<LesHouchesEvents version="3.0">
  <!--
  <scalesfunctionalform>
    muR  H_T/2 := sum_i mT(i)/2, i=final state
    muF1 H_T/2 := sum_i mT(i)/2, i=final state
    muF2 H_T/2 := sum_i mT(i)/2, i=final state
    QES  H_T/2 := sum_i mT(i)/2, i=final state
  </scalesfunctionalform>
HERWIG6   
  -->
  <header>
      971
  </header>
  <init>
   2212   2212 0.65000000D+04 0.65000000D+04 -1 -1   247000   247000 -3   1
 0.39804796D+00 0.15618970D-02 0.45252658D-03     66
  </init>
  <event>
  4     66 0.45252658E-03 0.11961038E+03 0.75467711E-02 0.12345064E+00
       -1 -1    0    0    0  501 0.00000000E+00 0.00000000E+00 0.26879563E+02 0.26881468E+02 0.32000000E+00 0.0000E+00 0.9000E+01
        2 -1    0    0  501    0 0.00000000E+00 0.00000000E+00 -.53780156E+03 0.53780165E+03 0.32000000E+00 0.0000E+00 0.9000E+01
       25  1    1    2    0    0 0.58307080E+02 -.15072928E+02 -.26754445E+03 0.30138338E+03 0.12500000E+03 0.0000E+00 0.9000E+01
       24  1    1    2    0    0 -.58307080E+02 0.15072928E+02 -.24337754E+03 0.26329974E+03 0.80419002E+02 0.0000E+00 0.9000E+01
#aMCatNLO 1  0  0  2  1 0.11230506D+02 0.00000000D+00  -5  5  0 0.00000000D+00 0.00000000D+00 0.00000000D+00 0.00000000D+00 0.00000000D+00
  <mgrwgt>
 0.3232231826D+00    4    2    0
 0.120234918530203D+03 0.000000000000000D+00 0.000000000000000D+00 0.120234918530203D+03
 0.120234918530203D+03 0.000000000000000D+00 0.000000000000000D+00 -.120234918530203D+03
 0.139276358732387D+03 0.583070797560566D+02 -.150729280351886D+02 0.120828553131930D+02
 0.101193478328019D+03 -.583070797560566D+02 0.150729280351886D+02 -.120828553131930D+02
 0.000000000000000D+00 0.000000000000000D+00 -.000000000000000D+00 0.000000000000000D+00
 0.145390020756241D+03 0.000000000000000D+00 0.000000000000000D+00 0.145390020756241D+03
 0.121626000359496D+03 0.000000000000000D+00 0.000000000000000D+00 -.121626000359496D+03
 0.137259040693770D+03 0.545163723081073D+02 -.984956902702811D+01 0.120828553131930D+02
 0.103472899033543D+03 -.611126169951197D+02 0.189387837920917D+02 -.120828553131930D+02
 0.262840813884236D+02 0.659624468701245D+01 -.908921476506354D+01 0.237640203967444D+02
0.270055458372D-03 0.000000000000D+00 0.000000000000D+00 0.275453420579D-02 0.000000000000D+00  5 -1 2 25 24 21 0 0.41354713D-02 0.82738855D-01 0.14306644D+05 0.14306644D+05 0.14306644D+05 0.12501725D+01  1  2  2  2  5  2        2 0.386571249559D+00 0.100000000000D+01
-.150025862842D-04 0.000000000000D+00 -.103708406738D-05 0.275453420579D-02 0.000000000000D+00  5 -1 2 25 24 21 2 0.41354713D-02 0.82738855D-01 0.14306644D+05 0.14306644D+05 0.14306644D+05 0.12501725D+01  1  2  3  2  5  2        2 -.335646864664D-01 0.100000000000D+01
0.186589699214D-04 0.000000000000D+00 0.000000000000D+00 0.275453420579D-02 0.000000000000D+00  5 -1 2 25 24 21 2 0.41354713D-02 0.82738855D-01 0.14306644D+05 0.14306644D+05 0.14306644D+05 0.12501725D+01  1  2 15  2  5  2        2 0.417449673900D-01 0.100000000000D+01
-.319714057571D-04 0.000000000000D+00 0.000000000000D+00 0.275453420579D-02 0.000000000000D+00  5 -1 2 25 24 21 2 0.41354713D-02 0.82738855D-01 0.14306644D+05 0.14306644D+05 0.14306644D+05 0.12501725D+01  1  2  4  2  5  2        2 -.715283478328D-01 0.100000000000D+01
  </mgrwgt>
  </event>
  <event>
  4     66 0.45252658E-03 0.14593612E+03 0.75467711E-02 0.11183780E+00
       -3 -1    0    0    0  501 0.00000000E+00 0.00000000E+00 0.38054073E+02 0.38057358E+02 0.50000000E+00 0.0000E+00 0.9000E+01
        4 -1    0    0  501    0 0.00000000E+00 0.00000000E+00 -.68665856E+03 0.68666031E+03 0.15500000E+01 0.0000E+00 0.9000E+01
       25  1    1    2    0    0 -.98800255E+02 0.27126847E+02 -.19759049E+03 0.25527310E+03 0.12500000E+03 0.0000E+00 0.9000E+01
       24  1    1    2    0    0 0.98800255E+02 -.27126847E+02 -.45101400E+03 0.46944456E+03 0.80419002E+02 0.0000E+00 0.9000E+01
#aMCatNLO 1  0  0  1  2 0.15445244D+03 0.00000000D+00  -5  5  0 0.00000000D+00 0.00000000D+00 0.00000000D+00 0.00000000D+00 0.00000000D+00
  <mgrwgt>
 0.1634659462D-01    3    2    0
 0.161653887326656D+03 0.000000000000000D+00 0.000000000000000D+00 0.161653887326656D+03
 0.161653887326656D+03 0.000000000000000D+00 0.000000000000000D+00 -.161653887326656D+03
 0.175816528567575D+03 -.988002547436704D+02 0.271268474776325D+02 0.692032912950237D+02
 0.147491246085737D+03 0.988002547436704D+02 -.271268474776325D+02 -.692032912950237D+02
 0.000000000000000D+00 0.000000000000000D+00 0.000000000000000D+00 -.000000000000000D+00
 0.241053462787291D+03 0.000000000000000D+00 0.000000000000000D+00 0.241053462787291D+03
 0.275499939872763D+03 0.000000000000000D+00 0.000000000000000D+00 -.275499939872763D+03
 0.204030671683160D+03 -.136754630062965D+03 -.501257480518663D+02 0.692032912950237D+02
 0.154275723416676D+03 0.686476649341352D+02 -.884996353348135D+02 -.692032912950237D+02
 0.158247007560218D+03 0.681069651288301D+02 0.138625383386680D+03 -.344464770854716D+02
0.604745502228D-03 0.000000000000D+00 0.000000000000D+00 0.193244682662D-02 0.000000000000D+00  5 -3 4 25 24 21 0 0.58548601D-02 0.10564017D+00 0.21297351D+05 0.21297351D+05 0.21297351D+05 0.12308323D+01  1  2  2  1  5  1       -3 0.160062836496D-01 0.100000000000D+01
-.331695710464D-04 0.000000000000D+00 -.232238196170D-05 0.193244682662D-02 0.000000000000D+00  5 -3 4 25 24 21 2 0.58548601D-02 0.10564017D+00 0.21297351D+05 0.21297351D+05 0.21297351D+05 0.12308323D+01  1  2  3  1  5  1       -3 -.133001179935D-02 0.100000000000D+01
0.416566903330D-04 0.000000000000D+00 0.000000000000D+00 0.193244682662D-02 0.000000000000D+00  5 -3 4 25 24 21 2 0.58548601D-02 0.10564017D+00 0.21297351D+05 0.21297351D+05 0.21297351D+05 0.12308323D+01  1  2 15  1  5  1       -3 0.167032276622D-02 0.100000000000D+01
  </mgrwgt>
  </event>
  <event>
  4     66 -.45252658E-03 0.38628371E+02 0.75467711E-02 0.12010800E+00
       -1 -1    0    0    0  501 0.00000000E+00 0.00000000E+00 0.78972267E+01 0.79037073E+01 0.32000000E+00 0.0000E+00 0.9000E+01
        2 -1    0    0  501    0 0.00000000E+00 0.00000000E+00 -.34546839E+04 0.34546839E+04 0.32000000E+00 0.0000E+00 0.9000E+01
       25  1    1    2    0    0 -.60487027E+02 -.32072984E+01 -.30522123E+04 0.30553713E+04 0.12500000E+03 0.0000E+00 0.9000E+01
       24  1    1    2    0    0 0.60487027E+02 0.32072984E+01 -.39457441E+03 0.40721634E+03 0.80419002E+02 0.0000E+00 0.9000E+01
#aMCatNLO 1  0  0  1  2 0.55397153D+02 0.00000000D+00  -5  5  0 0.00000000D+00 0.00000000D+00 0.00000000D+00 0.00000000D+00 0.00000000D+00
  <mgrwgt>
 -.5540718432D+00    7    2    0
 0.165207952591489D+03 0.000000000000000D+00 0.000000000000000D+00 0.165207952591489D+03
 0.165207952591489D+03 0.000000000000000D+00 0.000000000000000D+00 -.165207952591489D+03
 0.179065917510820D+03 -.604870271329556D+02 -.320729841782132D+01 -.113007236934048D+03
 0.151349987672158D+03 0.604870271329556D+02 0.320729841782132D+01 0.113007236934048D+03
 0.000000000000000D+00 0.000000000000000D+00 0.000000000000000D+00 0.000000000000000D+00
 0.798255409275274D+03 0.000000000000000D+00 0.000000000000000D+00 0.798255409275274D+03
 0.168730180155370D+03 0.000000000000000D+00 0.000000000000000D+00 -.168730180155370D+03
 0.190057153950917D+03 -.852541012403233D+02 -.213968313111808D+02 -.113007236934048D+03
 0.144970479112079D+03 0.406047940031965D+02 -.113946901715217D+02 0.113007236934048D+03
 0.631957956367648D+03 0.446493072371268D+02 0.327915214827025D+02 0.629525229119905D+03
0.101316935446D-02 0.000000000000D+00 0.000000000000D+00 0.130369166252D-02 0.000000000000D+00  5 -1 2 25 24 21 0 0.12154576D-02 0.53149033D+00 0.14349804D+05 0.14349804D+05 0.14349804D+05 0.12500225D+01  1  2  2  1  5  1       -1 0.183703393189D+00 0.100000000000D+01
-.492151780695D-04 0.000000000000D+00 -.389083709473D-05 0.130369166252D-02 0.000000000000D+00  5 -1 2 25 24 21 2 0.12154576D-02 0.53149033D+00 0.14349804D+05 0.14349804D+05 0.14349804D+05 0.12500225D+01  1  2  3  1  5  1       -1 -.139434375188D-01 0.100000000000D+01
0.688929778520D-04 0.000000000000D+00 0.000000000000D+00 0.130369166252D-02 0.000000000000D+00  5 -1 2 25 24 21 2 0.12154576D-02 0.53149033D+00 0.14349804D+05 0.14349804D+05 0.14349804D+05 0.12500225D+01  1  2 15  1  5  1       -1 0.195184690952D-01 0.100000000000D+01
0.141159583125D-01 0.000000000000D+00 0.000000000000D+00 0.130369166252D-02 0.000000000000D+00  5 -1 2 25 24 21 2 0.58135731D-02 0.53149033D+00 0.22352371D+05 0.22352371D+05 0.22352371D+05 0.12285445D+01  1  2 12  1  5  1       -1 0.391255927727D+00 0.100000000000D+01
-.201042033586D-01 0.000000000000D+00 -.385168738766D-03 0.130369166252D-02 0.000000000000D+00  5 -1 2 25 24 21 2 0.60549022D-02 0.53149033D+00 0.14349804D+05 0.14349804D+05 0.14349804D+05 0.12500225D+01  1  2  5  1  5  1       -1 -.554979101371D+00 0.100000000000D+01
0.268475333926D-02 0.000000000000D+00 0.000000000000D+00 0.130369166252D-02 0.000000000000D+00  5 21 2 25 24 1 2 0.58135731D-02 0.53149033D+00 0.22352371D+05 0.22352371D+05 0.22352371D+05 0.12285445D+01  1  2 12  3  5  1       -1 0.125853001278D+01 0.100000000000D+01
-.394428513649D-02 0.000000000000D+00 -.753626513252D-04 0.130369166252D-02 0.000000000000D+00  5 21 2 25 24 1 2 0.60549022D-02 0.53149033D+00 0.14349804D+05 0.14349804D+05 0.14349804D+05 0.12500225D+01  1  2  5  3  5  1       -1 -.183815710708D+01 0.100000000000D+01
  </mgrwgt>
  </event>
  <event>
  5     66 0.45252658E-03 0.13521363E+03 0.75467711E-02 0.11893635E+00
       -1 -1    0    0    0  502 0.00000000E+00 0.00000000E+00 0.52477583E+03 0.52477593E+03 0.32000000E+00 0.0000E+00 0.9000E+01
        2 -1    0    0  501    0 0.00000000E+00 0.00000000E+00 -.22465937E+03 0.22465959E+03 0.32000000E+00 0.0000E+00 0.9000E+01
       25  1    1    2    0    0 0.69520682E+02 -.33970051E+02 -.52940516E+01 0.14710580E+03 0.12500000E+03 0.0000E+00 0.9000E+01
       24  1    1    2    0    0 -.60828833E+02 0.77654954E+02 -.11980437E+03 0.17478770E+03 0.80419002E+02 0.0000E+00 0.9000E+01
       21  1    1    2  501  502 -.86918485E+01 -.43684902E+02 0.42521489E+03 0.42754202E+03 0.75000000E+00 0.0000E+00 0.9000E+01
#aMCatNLO 2  0  0  1  2 0.44541205D+02 0.00000000D+00  -5  5  0 0.00000000D+00 0.00000000D+00 0.00000000D+00 0.00000000D+00 0.00000000D+00
  <mgrwgt>
 0.3208404718D-01    2    2    0
 0.146613346954850D+03 0.000000000000000D+00 0.000000000000000D+00 0.146613346954850D+03
 0.146613346954850D+03 0.000000000000000D+00 0.000000000000000D+00 -.146613346954850D+03
 0.162228883050021D+03 0.648101267339050D+02 -.576451222909335D+02 0.563018458352471D+02
 0.130997810859678D+03 -.648101267339050D+02 0.576451222909335D+02 -.563018458352471D+02
 0.000000000000000D+00 -.000000000000000D+00 -.000000000000000D+00 0.000000000000000D+00
 0.790889920299174D+03 0.000000000000000D+00 0.000000000000000D+00 0.790889920299174D+03
 0.149066994844192D+03 0.000000000000000D+00 0.000000000000000D+00 -.149066994844192D+03
 0.157422957069759D+03 0.695206816154585D+02 -.339700514549712D+02 0.563018458352471D+02
 0.139167354531072D+03 -.608288330921096D+02 0.776549536926195D+02 -.563018458352471D+02
 0.643366603542535D+03 -.869184852334887D+01 -.436849022376484D+02 0.641822925454982D+03
-.114433758468D-01 0.000000000000D+00 0.000000000000D+00 0.211071368055D-02 0.000000000000D+00  5 -1 2 25 24 21 2 0.80030992D-01 0.33994046D-01 0.25411822D+05 0.25411822D+05 0.25411822D+05 0.12225376D+01  1  2 13  1  5  1       -1 -.492398791232D+00 0.100000000000D+01
0.126345225519D-01 0.000000000000D+00 0.000000000000D+00 0.211071368055D-02 0.230706400674D-04  5 -1 2 25 24 21 2 0.80734651D-01 0.34562954D-01 0.25411822D+05 0.25411822D+05 0.25411822D+05 0.12225376D+01  1  2  1  1  5  1       -1 0.524482838414D+00 0.100000000000D+01
  </mgrwgt>
  </event>
  <event>
  5     66 0.45252658E-03 0.11204754E+03 0.75467711E-02 0.12219694E+00
       -1 -1    0    0    0  502 0.00000000E+00 0.00000000E+00 0.64973089E+02 0.64973877E+02 0.32000000E+00 0.0000E+00 0.9000E+01
        2 -1    0    0  501    0 0.00000000E+00 0.00000000E+00 -.12370174E+04 0.12370174E+04 0.32000000E+00 0.0000E+00 0.9000E+01
       25  1    1    2    0    0 0.47883595E+02 -.39594709E+02 -.35705997E+03 0.38337632E+03 0.12500000E+03 0.0000E+00 0.9000E+01
       24  1    1    2    0    0 -.78347707E+01 0.33352811E+02 -.85628955E+03 0.86073969E+03 0.80419002E+02 0.0000E+00 0.9000E+01
       21  1    1    2  501  502 -.40048824E+02 0.62418978E+01 0.41305208E+02 0.57875317E+02 0.75000000E+00 0.0000E+00 0.9000E+01
#aMCatNLO 2  0  0  1  2 0.40532328D+02 0.00000000D+00  -5  5  0 0.00000000D+00 0.00000000D+00 0.00000000D+00 0.00000000D+00 0.00000000D+00
  <mgrwgt>
 0.1544056342D+00    2    2    0
 0.135982260029728D+03 0.000000000000000D+00 0.000000000000000D+00 0.135982260029728D+03
 0.135982260029728D+03 0.000000000000000D+00 0.000000000000000D+00 -.135982260029728D+03
 0.152818618028976D+03 0.250492390957633D+02 -.360358100535789D+02 0.761740509018114D+02
 0.119145902030479D+03 -.250492390957633D+02 0.360358100535789D+02 -.761740509018114D+02
 0.000000000000000D+00 -.000000000000000D+00 0.000000000000000D+00 0.000000000000000D+00
 0.580684317187750D+03 0.000000000000000D+00 0.000000000000000D+00 0.580684317187750D+03
 0.138410862036007D+03 0.000000000000000D+00 0.000000000000000D+00 -.138410862036007D+03
 0.159022217557071D+03 0.478835949913216D+02 -.395947089480863D+02 0.761740509018114D+02
 0.115946089315074D+03 -.783477073246693D+01 0.333528111239010D+02 -.761740509018114D+02
 0.444126872351612D+03 -.400488242588547D+02 0.624189782418529D+01 0.442273455151743D+03
-.362236410036D-02 0.000000000000D+00 0.000000000000D+00 0.183037679024D-02 0.000000000000D+00  5 -1 2 25 24 21 2 0.99206487D-02 0.18697076D+00 0.17893872D+05 0.17893872D+05 0.17893872D+05 0.12391820D+01  1  2 13  1  5  1       -1 -.769216382833D+00 0.100000000000D+01
0.452229208316D-02 0.000000000000D+00 0.000000000000D+00 0.183037679024D-02 0.216603467544D-04  5 -1 2 25 24 21 2 0.99959010D-02 0.19031000D+00 0.17893872D+05 0.17893872D+05 0.17893872D+05 0.12391820D+01  1  2  1  1  5  1       -1 0.923622017031D+00 0.100000000000D+01
  </mgrwgt>
  </event>
  <event>
  4     66 0.45252658E-03 0.12068568E+03 0.75467711E-02 0.11235573E+00
       -1 -1    0    0    0  501 0.00000000E+00 0.00000000E+00 0.17422827E+02 0.17425765E+02 0.32000000E+00 0.0000E+00 0.9000E+01
        2 -1    0    0  501    0 0.00000000E+00 0.00000000E+00 -.19476683E+04 0.19476684E+04 0.32000000E+00 0.0000E+00 0.9000E+01
       25  1    1    2    0    0 0.28489406E+02 0.55381876E+02 -.17686249E+04 0.17741302E+04 0.12500000E+03 0.0000E+00 0.9000E+01
       24  1    1    2    0    0 -.28489406E+02 -.55381876E+02 -.16162061E+03 0.19096397E+03 0.80419002E+02 0.0000E+00 0.9000E+01
#aMCatNLO 1  0  0  1  2 0.17230161D+03 0.00000000D+00  -5  5  0 0.00000000D+00 0.00000000D+00 0.00000000D+00 0.00000000D+00 0.00000000D+00
  <mgrwgt>
 0.3484434000D+00    3    2    0
 0.184219436132074D+03 0.000000000000000D+00 0.000000000000000D+00 0.184219436132074D+03
 0.184219436132074D+03 0.000000000000000D+00 0.000000000000000D+00 -.184219436132074D+03
 0.196647256233347D+03 0.284894056694625D+02 0.553818764412908D+02 -.138442568997206D+03
 0.171791616030801D+03 -.284894056694625D+02 -.553818764412908D+02 0.138442568997206D+03
 0.000000000000000D+00 0.000000000000000D+00 0.000000000000000D+00 -.000000000000000D+00
 0.238965615288090D+03 0.000000000000000D+00 0.000000000000000D+00 0.238965615288090D+03
 0.411867706625877D+03 0.000000000000000D+00 0.000000000000000D+00 -.411867706625877D+03
 0.188131051566915D+03 -.224364428524098D+01 -.244318176452027D+02 -.138442568997206D+03
 0.218606022652720D+03 -.596712833601539D+02 -.136361175622966D+03 0.138442568997206D+03
 0.244096247694331D+03 0.619149276453949D+02 0.160792993268168D+03 -.172902091337787D+03
0.840036602731D-03 0.000000000000D+00 0.000000000000D+00 0.103604779103D-02 0.000000000000D+00  5 -1 2 25 24 21 0 0.26806629D-02 0.29964151D+00 0.14565033D+05 0.14565033D+05 0.14565033D+05 0.12492821D+01  1  2  2  1  5  1       -1 0.335756134331D+00 0.100000000000D+01
-.365188195081D-04 0.000000000000D+00 -.322596174120D-05 0.103604779103D-02 0.000000000000D+00  5 -1 2 25 24 21 2 0.26806629D-02 0.29964151D+00 0.14565033D+05 0.14565033D+05 0.14565033D+05 0.12492821D+01  1  2  3  1  5  1       -1 -.227805127714D-01 0.100000000000D+01
0.568574294715D-04 0.000000000000D+00 0.000000000000D+00 0.103604779103D-02 0.000000000000D+00  5 -1 2 25 24 21 2 0.26806629D-02 0.29964151D+00 0.14565033D+05 0.14565033D+05 0.14565033D+05 0.12492821D+01  1  2 15  1  5  1       -1 0.354677784132D-01 0.100000000000D+01
  </mgrwgt>
  </event>
  <event>
  5     66 -.45252658E-03 0.15998266E+03 0.75467711E-02 0.11760266E+00
       -1 -1    0    0    0  502 0.00000000E+00 0.00000000E+00 0.17734094E+02 0.17736981E+02 0.32000000E+00 0.0000E+00 0.9000E+01
        2 -1    0    0  501    0 0.00000000E+00 0.00000000E+00 -.18023653E+04 0.18023653E+04 0.32000000E+00 0.0000E+00 0.9000E+01
       25  1    1    2    0    0 0.12268866E+03 -.40361204E+02 -.68279566E+03 0.70605697E+03 0.12500000E+03 0.0000E+00 0.9000E+01
       24  1    1    2    0    0 -.10325343E+03 0.52331334E+02 -.98048749E+03 0.99056689E+03 0.80419002E+02 0.0000E+00 0.9000E+01
       21  1    1    2  501  502 -.19435231E+02 -.11970130E+02 -.12134801E+03 0.12347840E+03 0.75000000E+00 0.0000E+00 0.9000E+01
#aMCatNLO 2  0  0  1  2 0.22825692D+02 0.00000000D+00  -5  5  0 0.00000000D+00 0.00000000D+00 0.00000000D+00 0.00000000D+00 0.00000000D+00
  <mgrwgt>
 -.1424970405D+00    2    2    0
 0.166958601251180D+03 0.000000000000000D+00 0.000000000000000D+00 0.166958601251180D+03
 0.166958601251180D+03 0.000000000000000D+00 0.000000000000000D+00 -.166958601251180D+03
 0.180671258126899D+03 0.112032272346099D+03 -.469244591762453D+02 0.475811790222016D+02
 0.153245944375461D+03 -.112032272346099D+03 0.469244591762453D+02 -.475811790222016D+02
 0.000000000000000D+00 -.000000000000000D+00 -.000000000000000D+00 -.000000000000000D+00
 0.178035220255289D+03 0.000000000000000D+00 0.000000000000000D+00 0.178035220255289D+03
 0.179536215552680D+03 0.000000000000000D+00 0.000000000000000D+00 -.179536215552680D+03
 0.185931448071099D+03 0.122688662955774D+03 -.403612037332581D+02 0.475811790222016D+02
 0.148764996997343D+03 -.103253432186839D+03 0.523313340336726D+02 -.475811790222016D+02
 0.228749907395270D+02 -.194352307689349D+02 -.119701303004144D+02 -.150099529739126D+01
-.575350547023D-03 0.000000000000D+00 0.000000000000D+00 0.212308225958D-02 0.000000000000D+00  5 -1 2 25 24 21 2 0.28182898D-02 0.25785265D+00 0.29500883D+05 0.29500883D+05 0.29500883D+05 0.12156639D+01  1  2 13  1  5  1       -1 -.437389748270D+00 0.100000000000D+01
0.429955019511D-03 0.000000000000D+00 0.000000000000D+00 0.212308225958D-02 0.322495596933D-04  5 -1 2 25 24 21 2 0.27284526D-02 0.27727765D+00 0.29500883D+05 0.29500883D+05 0.29500883D+05 0.12156639D+01  1  2  1  1  5  1       -1 0.294892707805D+00 0.100000000000D+01
  </mgrwgt>
  </event>
  <event>
  4     66 0.45252658E-03 0.12279534E+03 0.75467711E-02 0.10761911E+00
       -1 -1    0    0    0  501 0.00000000E+00 0.00000000E+00 0.10163384E+02 0.10168420E+02 0.32000000E+00 0.0000E+00 0.9000E+01
        2 -1    0    0  501    0 0.00000000E+00 0.00000000E+00 -.21180074E+04 0.21180074E+04 0.32000000E+00 0.0000E+00 0.9000E+01
       25  1    1    2    0    0 0.24215638E+02 -.61593856E+02 -.17437895E+04 0.17495162E+04 0.12500000E+03 0.0000E+00 0.9000E+01
       24  1    1    2    0    0 -.24215638E+02 0.61593856E+02 -.36405451E+03 0.37865961E+03 0.80419002E+02 0.0000E+00 0.9000E+01
#aMCatNLO 1  0  0  1  2 0.27217202D+03 0.00000000D+00  -5  5  0 0.00000000D+00 0.00000000D+00 0.00000000D+00 0.00000000D+00 0.00000000D+00
  <mgrwgt>
 0.6288392221D+00    5    2    0
 0.146736179045765D+03 0.000000000000000D+00 0.000000000000000D+00 0.146736179045765D+03
 0.146736179045765D+03 0.000000000000000D+00 0.000000000000000D+00 -.146736179045765D+03
 0.162338643457035D+03 0.242156384109844D+02 -.615938559853631D+02 -.796783215226901D+02
 0.131133714634494D+03 -.242156384109844D+02 0.615938559853631D+02 0.796783215226901D+02
 0.000000000000000D+00 0.000000000000000D+00 -.000000000000000D+00 0.000000000000000D+00
 0.349165370680221D+03 0.000000000000000D+00 0.000000000000000D+00 0.349165370680221D+03
 0.324386713555754D+03 0.000000000000000D+00 0.000000000000000D+00 -.324386713555754D+03
 0.160787624251324D+03 -.401076240386615D+02 0.476487532437648D+02 -.796783215226901D+02
 0.239466837068579D+03 -.979893885930518D+02 0.186886582995532D+03 0.796783215226901D+02
 0.273297622916072D+03 0.138097012631713D+03 -.234535336239296D+03 0.247786571244662D+02
0.626121571600D-03 0.000000000000D+00 0.000000000000D+00 0.178295029994D-02 0.000000000000D+00  5 -1 2 25 24 21 0 0.15639868D-02 0.32584767D+00 0.15078694D+05 0.15078694D+05 0.15078694D+05 0.12475636D+01  1  2  2  1  5  1       -1 0.445032605975D+00 0.100000000000D+01
-.334427570435D-04 0.000000000000D+00 -.240447169654D-05 0.178295029994D-02 0.000000000000D+00  5 -1 2 25 24 21 2 0.15639868D-02 0.32584767D+00 0.15078694D+05 0.15078694D+05 0.15078694D+05 0.12475636D+01  1  2  3  1  5  1       -1 -.369964961266D-01 0.100000000000D+01
0.426269588316D-04 0.000000000000D+00 0.000000000000D+00 0.178295029994D-02 0.000000000000D+00  5 -1 2 25 24 21 2 0.15639868D-02 0.32584767D+00 0.15078694D+05 0.15078694D+05 0.15078694D+05 0.12475636D+01  1  2 15  1  5  1       -1 0.471566418776D-01 0.100000000000D+01
0.112115928167D-02 0.000000000000D+00 -.396858931888D-03 0.178295029994D-02 0.000000000000D+00  5 -1 2 25 24 21 2 0.14984828D-01 0.32584767D+00 0.15078694D+05 0.15078694D+05 0.15078694D+05 0.12475636D+01  1  2  5  1  5  1       -1 0.436279062325D-01 0.100000000000D+01
0.242440331429D-03 0.000000000000D+00 -.107202306850D-03 0.178295029994D-02 0.000000000000D+00  5 21 2 25 24 1 2 0.14984828D-01 0.32584767D+00 0.15078694D+05 0.15078694D+05 0.15078694D+05 0.12475636D+01  1  2  5  3  5  1       -1 0.130018564113D+00 0.100000000000D+01
  </mgrwgt>
  </event>
  <event>
  4     66 0.45252658E-03 0.10050524E+03 0.75467711E-02 0.11752747E+00
       -1 -1    0    0    0  501 0.00000000E+00 0.00000000E+00 0.14647475E+02 0.14650970E+02 0.32000000E+00 0.0000E+00 0.9000E+01
        2 -1    0    0  501    0 0.00000000E+00 0.00000000E+00 -.13636155E+04 0.13636156E+04 0.32000000E+00 0.0000E+00 0.9000E+01
       25  1    1    2    0    0 -.94811551E+02 -.72243061E+01 -.81166695E+03 0.82672224E+03 0.12500000E+03 0.0000E+00 0.9000E+01
       24  1    1    2    0    0 0.94811551E+02 0.72243061E+01 -.53730111E+03 0.55154430E+03 0.80419002E+02 0.0000E+00 0.9000E+01
#aMCatNLO 1  0  0  2  1 0.57562586D+02 0.00000000D+00  -5  5  0 0.00000000D+00 0.00000000D+00 0.00000000D+00 0.00000000D+00 0.00000000D+00
  <mgrwgt>
 0.4462001048D+00    9    2    0
 0.141336331624924D+03 0.000000000000000D+00 0.000000000000000D+00 0.141336331624924D+03
 0.141336331624924D+03 0.000000000000000D+00 0.000000000000000D+00 -.141336331624924D+03
 0.157534898441297D+03 -.948115514394305D+02 -.722430614472955D+01 -.122810154826575D+02
 0.125137764808552D+03 0.948115514394305D+02 0.722430614472955D+01 0.122810154826575D+02
 0.000000000000000D+00 -.000000000000000D+00 -.000000000000000D+00 -.000000000000000D+00
 0.156928409378161D+03 0.000000000000000D+00 0.000000000000000D+00 0.156928409378161D+03
 0.209506767577002D+03 0.000000000000000D+00 0.000000000000000D+00 -.209506767577002D+03
 0.155927219446948D+03 -.892603055093460D+02 0.238761865369978D+02 -.122810154826575D+02
 0.132546845003894D+03 0.993750076270670D+02 0.327907713229011D+02 0.122810154826575D+02
 0.779611125043216D+02 -.101147021177210D+02 -.566669578598990D+02 -.525783581988416D+02
0.329304620155D-03 0.000000000000D+00 0.000000000000D+00 0.247028391449D-02 0.000000000000D+00  5 -1 2 25 24 21 0 0.22537294D-02 0.20978728D+00 0.19823112D+05 0.19823112D+05 0.19823112D+05 0.12342510D+01  1  2  2  2  5  2        2 0.339721071460D+00 0.100000000000D+01
-.182943730422D-04 0.000000000000D+00 -.126461644929D-05 0.247028391449D-02 0.000000000000D+00  5 -1 2 25 24 21 2 0.22537294D-02 0.20978728D+00 0.19823112D+05 0.19823112D+05 0.19823112D+05 0.12342510D+01  1  2  3  2  5  2        2 -.287507502578D-01 0.100000000000D+01
0.226913716510D-04 0.000000000000D+00 0.000000000000D+00 0.247028391449D-02 0.000000000000D+00  5 -1 2 25 24 21 2 0.22537294D-02 0.20978728D+00 0.19823112D+05 0.19823112D+05 0.19823112D+05 0.12342510D+01  1  2 15  2  5  2        2 0.356609082935D-01 0.100000000000D+01
0.258137985896D-03 0.000000000000D+00 0.000000000000D+00 0.247028391449D-02 0.000000000000D+00  5 -1 2 25 24 21 2 0.22537294D-02 0.31809458D+00 0.29753161D+05 0.29753161D+05 0.29753161D+05 0.12152752D+01  1  2 12  2  5  2        2 0.170540692920D+00 0.100000000000D+01
-.317143682998D-03 0.000000000000D+00 0.000000000000D+00 0.247028391449D-02 0.000000000000D+00  5 -1 2 25 24 21 2 0.22537294D-02 0.20978728D+00 0.19823112D+05 0.19823112D+05 0.19823112D+05 0.12342510D+01  1  2  4  2  5  2        2 -.498411112787D+00 0.100000000000D+01
-.423694019933D-03 0.000000000000D+00 -.128761198841D-03 0.247028391449D-02 0.000000000000D+00  5 -1 2 25 24 21 2 0.22537294D-02 0.32386386D+00 0.19823112D+05 0.19823112D+05 0.19823112D+05 0.12342510D+01  1  2  5  2  5  2        2 -.275813794230D+00 0.100000000000D+01
0.447959146751D-03 0.000000000000D+00 0.117507696846D-03 0.247028391449D-02 0.000000000000D+00  5 -1 2 25 24 21 2 0.22537294D-02 0.20978728D+00 0.19823112D+05 0.19823112D+05 0.19823112D+05 0.12342510D+01  1  2  6  2  5  2        2 0.703995787349D+00 0.100000000000D+01
0.126534665524D-04 0.000000000000D+00 0.000000000000D+00 0.247028391449D-02 0.000000000000D+00  5 -1 21 25 24 -2 2 0.22537294D-02 0.31809458D+00 0.29753161D+05 0.29753161D+05 0.29753161D+05 0.12152752D+01  1  2 12  4  5  2        2 0.257068779638D-02 0.100000000000D+01
-.165352283841D-04 0.000000000000D+00 -.651356766279D-05 0.247028391449D-02 0.000000000000D+00  5 -1 21 25 24 -2 2 0.22537294D-02 0.32386386D+00 0.19823112D+05 0.19823112D+05 0.19823112D+05 0.12342510D+01  1  2  5  4  5  2        2 -.331338569697D-02 0.100000000000D+01
  </mgrwgt>
  </event>
  <event>
  4     66 0.45252658E-03 0.11263638E+03 0.75467711E-02 0.11318525E+00
       -1 -1    0    0    0  501 0.00000000E+00 0.00000000E+00 0.73758645E+02 0.73759340E+02 0.32000000E+00 0.0000E+00 0.9000E+01
        2 -1    0    0  501    0 0.00000000E+00 0.00000000E+00 -.17201673E+03 0.17201703E+03 0.32000000E+00 0.0000E+00 0.9000E+01
       25  1    1    2    0    0 0.15291397E+02 0.42663382E+02 -.59006272E+02 0.14546729E+03 0.12500000E+03 0.0000E+00 0.9000E+01
       24  1    1    2    0    0 -.15291397E+02 -.42663382E+02 -.39251811E+02 0.10030908E+03 0.80419002E+02 0.0000E+00 0.9000E+01
#aMCatNLO 1  0  0  1  1 0.16578906D+03 0.00000000D+00  -5  5  0 0.00000000D+00 0.00000000D+00 0.00000000D+00 0.00000000D+00 0.00000000D+00
  <mgrwgt>
 0.3427126414D+00    3    2    0
 0.112640324724898D+03 0.000000000000000D+00 0.000000000000000D+00 0.112640324724898D+03
 0.112640324724898D+03 0.000000000000000D+00 0.000000000000000D+00 -.112640324724898D+03
 0.132965603589274D+03 0.152913970262134D+02 0.426633817489257D+02 -.927778309746244D+00
 0.923150458605228D+02 -.152913970262134D+02 -.426633817489257D+02 0.927778309746244D+00
 0.000000000000000D+00 -.000000000000000D+00 -.000000000000000D+00 -.000000000000000D+00
 0.157458320484733D+03 0.000000000000000D+00 0.000000000000000D+00 0.157458320484733D+03
 0.530201473715991D+03 0.000000000000000D+00 0.000000000000000D+00 -.530201473715991D+03
 0.198311041686983D+03 0.427288638876042D+02 0.147904200999360D+03 -.927778309746244D+00
 0.813984226005523D+02 -.903852349457368D+00 0.125223610324059D+02 0.927778309746244D+00
 0.407950329913188D+03 -.418250115381468D+02 -.160426562031765D+03 -.372743153231258D+03
0.314837471331D-03 0.000000000000D+00 0.000000000000D+00 0.294280865304D-02 0.000000000000D+00  5 -1 2 25 24 21 0 0.11347560D-01 0.26464188D-01 0.12686953D+05 0.12686953D+05 0.12686953D+05 0.12562005D+01  1  2  2  1  5  1       -1 0.335663401915D+00 0.100000000000D+01
-.174909706034D-04 0.000000000000D+00 -.120905878852D-05 0.294280865304D-02 0.000000000000D+00  5 -1 2 25 24 21 2 0.11347560D-01 0.26464188D-01 0.12686953D+05 0.12686953D+05 0.12686953D+05 0.12562005D+01  1  2  3  1  5  1       -1 -.294272332870D-01 0.100000000000D+01
0.216809003888D-04 0.000000000000D+00 0.000000000000D+00 0.294280865304D-02 0.000000000000D+00  5 -1 2 25 24 21 2 0.11347560D-01 0.26464188D-01 0.12686953D+05 0.12686953D+05 0.12686953D+05 0.12562005D+01  1  2 15  1  5  1       -1 0.364764728088D-01 0.100000000000D+01
  </mgrwgt>
  </event>
  <event>
  4     66 0.45252658E-03 0.18458906E+03 0.75467711E-02 0.10281127E+00
       -1 -1    0    0    0  501 0.00000000E+00 0.00000000E+00 0.48608991E+03 0.48609001E+03 0.32000000E+00 0.0000E+00 0.9000E+01
        2 -1    0    0  501    0 0.00000000E+00 0.00000000E+00 -.70115587E+02 0.70116317E+02 0.32000000E+00 0.0000E+00 0.9000E+01
       25  1    1    2    0    0 -.13654052E+03 -.67361223E+02 0.22661258E+03 0.30026507E+03 0.12500000E+03 0.0000E+00 0.9000E+01
       24  1    1    2    0    0 0.13654052E+03 0.67361223E+02 0.18936174E+03 0.25594126E+03 0.80419002E+02 0.0000E+00 0.9000E+01
#aMCatNLO 1  0  0  1  1 0.37276609D+03 0.00000000D+00  -5  5  0 0.00000000D+00 0.00000000D+00 0.00000000D+00 0.00000000D+00 0.00000000D+00
  <mgrwgt>
 0.3040976139D+00    5    2    0
 0.184615035613531D+03 0.000000000000000D+00 0.000000000000000D+00 0.184615035613531D+03
 0.184615035613531D+03 0.000000000000000D+00 0.000000000000000D+00 -.184615035613531D+03
 0.197016224952194D+03 -.136540516057930D+03 -.673612229016222D+02 0.308966312813722D+01
 0.172213846274868D+03 0.136540516057930D+03 0.673612229016222D+02 -.308966312813722D+01
 0.000000000000000D+00 0.000000000000000D+00 0.000000000000000D+00 0.000000000000000D+00
 0.521144304075565D+03 0.000000000000000D+00 0.000000000000000D+00 0.521144304075565D+03
 0.396564769159863D+03 0.000000000000000D+00 0.000000000000000D+00 -.396564769159863D+03
 0.422742685301887D+03 -.309491723638408D+03 -.259406447408950D+03 0.308966312813722D+01
 0.101933792332823D+03 0.600363071340149D+02 -.175891407534701D+02 -.308966312813722D+01
 0.393032595600718D+03 0.249455416504393D+03 0.276995588162420D+03 0.124579534915701D+03
0.237982005270D-02 0.000000000000D+00 0.000000000000D+00 0.221498284132D-02 0.000000000000D+00  5 -1 2 25 24 21 0 0.74783127D-01 0.10787078D-01 0.34073122D+05 0.34073122D+05 0.34073122D+05 0.12091379D+01  1  2  2  1  5  1       -1 0.293618671739D+00 0.100000000000D+01
-.132212221968D-03 0.000000000000D+00 -.913913562338D-05 0.221498284132D-02 0.000000000000D+00  5 -1 2 25 24 21 2 0.74783127D-01 0.10787078D-01 0.34073122D+05 0.34073122D+05 0.34073122D+05 0.12091379D+01  1  2  3  1  5  1       -1 -.238485969405D-01 0.100000000000D+01
0.163207921212D-03 0.000000000000D+00 0.000000000000D+00 0.221498284132D-02 0.000000000000D+00  5 -1 2 25 24 21 2 0.74783127D-01 0.10787078D-01 0.34073122D+05 0.34073122D+05 0.34073122D+05 0.12091379D+01  1  2 15  1  5  1       -1 0.294396378227D-01 0.100000000000D+01
0.825525950042D-03 0.000000000000D+00 -.787428307332D-03 0.221498284132D-02 0.000000000000D+00  5 -1 2 25 24 21 2 0.33836300D+00 0.10787078D-01 0.34073122D+05 0.34073122D+05 0.34073122D+05 0.12091379D+01  1  2  5  1  5  1       -1 0.183467589133D-02 0.100000000000D+01
0.143074278815D-03 0.000000000000D+00 -.143794377216D-03 0.221498284132D-02 0.000000000000D+00  5 21 2 25 24 1 2 0.33836300D+00 0.10787078D-01 0.34073122D+05 0.34073122D+05 0.34073122D+05 0.12091379D+01  1  2  5  3  5  1       -1 0.305322541697D-02 0.100000000000D+01
  </mgrwgt>
  </event>
  <event>
  4     66 0.45252658E-03 0.12342234E+03 0.75467711E-02 0.12349305E+00
       -1 -1    0    0    0  501 0.00000000E+00 0.00000000E+00 0.12348727E+02 0.12352873E+02 0.32000000E+00 0.0000E+00 0.9000E+01
        2 -1    0    0  501    0 0.00000000E+00 0.00000000E+00 -.13966158E+04 0.13966158E+04 0.32000000E+00 0.0000E+00 0.9000E+01
       25  1    1    2    0    0 -.66952832E+02 0.69552738E+01 -.10224421E+04 0.10322518E+04 0.12500000E+03 0.0000E+00 0.9000E+01
       24  1    1    2    0    0 0.66952832E+02 -.69552738E+01 -.36182501E+03 0.37671689E+03 0.80419002E+02 0.0000E+00 0.9000E+01
#aMCatNLO 1  0  0  1  1 0.33146625D+01 0.00000000D+00  -5  5  0 0.00000000D+00 0.00000000D+00 0.00000000D+00 0.00000000D+00 0.00000000D+00
  <mgrwgt>
 0.4078184117D+00    6    2    0
 0.131336871567240D+03 0.000000000000000D+00 0.000000000000000D+00 0.131336871567240D+03
 0.131336871567240D+03 0.000000000000000D+00 0.000000000000000D+00 -.131336871567240D+03
 0.148768731973899D+03 -.669528320188945D+02 0.695527384605171D+01 -.444530995938167D+02
 0.113905011160582D+03 0.669528320188945D+02 -.695527384605171D+01 0.444530995938167D+02
 0.000000000000000D+00 0.000000000000000D+00 0.000000000000000D+00 -.000000000000000D+00
 0.131719377909440D+03 0.000000000000000D+00 0.000000000000000D+00 0.131719377909440D+03
 0.138730066260482D+03 0.000000000000000D+00 0.000000000000000D+00 -.138730066260482D+03
 0.148883373003786D+03 -.673715021903895D+02 0.512458643180150D+01 -.444530995938167D+02
 0.113811283051170D+03 0.666325318484758D+02 -.835582619176553D+01 0.444530995938167D+02
 0.775478811496656D+01 0.738970341913692D+00 0.323123975996404D+01 -.701068835104129D+01
0.255279578928D-03 0.000000000000D+00 0.000000000000D+00 0.233825232649D-02 0.000000000000D+00  5 -1 2 25 24 21 0 0.19001259D-02 0.21486429D+00 0.15233075D+05 0.15233075D+05 0.15233075D+05 0.12470599D+01  1  2  2  1  5  1       -1 0.321503743762D+00 0.100000000000D+01
-.141155864429D-04 0.000000000000D+00 -.980340799742D-06 0.233825232649D-02 0.000000000000D+00  5 -1 2 25 24 21 2 0.19001259D-02 0.21486429D+00 0.15233075D+05 0.15233075D+05 0.15233075D+05 0.12470599D+01  1  2  3  1  5  1       -1 -.276467123074D-01 0.100000000000D+01
0.175929858559D-04 0.000000000000D+00 0.000000000000D+00 0.233825232649D-02 0.000000000000D+00  5 -1 2 25 24 21 2 0.19001259D-02 0.21486429D+00 0.15233075D+05 0.15233075D+05 0.15233075D+05 0.12470599D+01  1  2 15  1  5  1       -1 0.344575282475D-01 0.100000000000D+01
-.539664716947D-04 0.000000000000D+00 0.000000000000D+00 0.233825232649D-02 0.000000000000D+00  5 -1 2 25 24 21 2 0.19001259D-02 0.21486429D+00 0.15233075D+05 0.15233075D+05 0.15233075D+05 0.12470599D+01  1  2  4  1  5  1       -1 -.105698443577D+00 0.100000000000D+01
0.530187443850D-04 0.000000000000D+00 0.000000000000D+00 0.233825232649D-02 0.176415198551D-02  5 -1 2 25 24 21 2 0.19056598D-02 0.22695940D+00 0.15647216D+05 0.15647216D+05 0.15647216D+05 0.12457365D+01  1  2 11  1  5  1       -1 0.939254906335D-01 0.100000000000D+01
0.245400811533D-05 0.000000000000D+00 0.000000000000D+00 0.233825232649D-02 0.986418309922D-06  5 21 2 25 24 1 2 0.19056598D-02 0.22695940D+00 0.15647216D+05 0.15647216D+05 0.15647216D+05 0.12457365D+01  1  2 11  3  5  1       -1 0.912768049787D-01 0.100000000000D+01
  </mgrwgt>
  </event>
  <event>
  4     66 0.45252658E-03 0.24963552E+03 0.75467711E-02 0.10112660E+00
       -1 -1    0    0    0  501 0.00000000E+00 0.00000000E+00 0.32018914E+02 0.32020513E+02 0.32000000E+00 0.0000E+00 0.9000E+01
        2 -1    0    0  501    0 0.00000000E+00 0.00000000E+00 -.21223402E+04 0.21223402E+04 0.32000000E+00 0.0000E+00 0.9000E+01
       25  1    1    2    0    0 -.21376188E+03 0.75244631E+02 -.77027331E+03 0.81258961E+03 0.12500000E+03 0.0000E+00 0.9000E+01
       24  1    1    2    0    0 0.21376188E+03 -.75244631E+02 -.13200479E+04 0.13417711E+04 0.80419002E+02 0.0000E+00 0.9000E+01
#aMCatNLO 1  0  0  2  2 0.39114367D+03 0.00000000D+00  -5  5  0 0.00000000D+00 0.00000000D+00 0.00000000D+00 0.00000000D+00 0.00000000D+00
  <mgrwgt>
 0.5115793204D+00    3    2    0
 0.260685203278892D+03 0.000000000000000D+00 0.000000000000000D+00 0.260685203278892D+03
 0.260685203278892D+03 0.000000000000000D+00 0.000000000000000D+00 -.260685203278892D+03
 0.269467619705336D+03 -.213761875607393D+03 0.752446307183241D+02 0.750460135818812D+02
 0.251902786852448D+03 0.213761875607393D+03 -.752446307183241D+02 -.750460135818812D+02
 0.000000000000000D+00 0.000000000000000D+00 -.000000000000000D+00 0.000000000000000D+00
 0.710097321109533D+03 0.000000000000000D+00 0.000000000000000D+00 0.710097321109533D+03
 0.425442906730743D+03 0.000000000000000D+00 0.000000000000000D+00 -.425442906730743D+03
 0.482690858348247D+03 -.373839045925517D+03 0.268287026000018D+03 0.750460135818812D+02
 0.169091675621415D+03 0.124164265211762D+03 0.328041140709279D+02 -.750460135818812D+02
 0.483757693870615D+03 0.249674780713755D+03 -.301091140070946D+03 0.284654414378790D+03
0.382446717160D-02 0.000000000000D+00 0.000000000000D+00 0.188290630957D-02 0.000000000000D+00  5 -1 2 25 24 21 0 0.49261116D-02 0.32651400D+00 0.62317892D+05 0.62317892D+05 0.62317892D+05 0.11829243D+01  1  2  2  2  5  2        2 0.502495590447D+00 0.100000000000D+01
-.211985792063D-03 0.000000000000D+00 -.146869609443D-04 0.188290630957D-02 0.000000000000D+00  5 -1 2 25 24 21 2 0.49261116D-02 0.32651400D+00 0.62317892D+05 0.62317892D+05 0.62317892D+05 0.11829243D+01  1  2  3  2  5  2        2 -.389746253472D-01 0.100000000000D+01
0.261392853063D-03 0.000000000000D+00 0.000000000000D+00 0.188290630957D-02 0.000000000000D+00  5 -1 2 25 24 21 2 0.49261116D-02 0.32651400D+00 0.62317892D+05 0.62317892D+05 0.62317892D+05 0.11829243D+01  1  2 15  2  5  2        2 0.480583553143D-01 0.100000000000D+01
  </mgrwgt>
  </event>
  <event>
  4     66 0.45252658E-03 0.10655245E+03 0.75467711E-02 0.11830244E+00
       -1 -1    0    0    0  501 0.00000000E+00 0.00000000E+00 0.12970124E+02 0.12974071E+02 0.32000000E+00 0.0000E+00 0.9000E+01
        2 -1    0    0  501    0 0.00000000E+00 0.00000000E+00 -.19137414E+04 0.19137415E+04 0.32000000E+00 0.0000E+00 0.9000E+01
       25  1    1    2    0    0 0.58002536E+02 0.10241605E+03 -.96647243E+03 0.98160445E+03 0.12500000E+03 0.0000E+00 0.9000E+01
       24  1    1    2    0    0 -.58002536E+02 -.10241605E+03 -.93429889E+03 0.94511109E+03 0.80419002E+02 0.0000E+00 0.9000E+01
#aMCatNLO 1  0  0  2  1 0.15631089D+02 0.00000000D+00  -5  5  0 0.00000000D+00 0.00000000D+00 0.00000000D+00 0.00000000D+00 0.00000000D+00
  <mgrwgt>
 0.8236818543D+00    9    2    0
 0.157560441242261D+03 0.000000000000000D+00 0.000000000000000D+00 0.157560441242261D+03
 0.157560441242261D+03 0.000000000000000D+00 0.000000000000000D+00 -.157560441242261D+03
 0.172091030223585D+03 0.580025355006043D+02 0.102416052106761D+03 0.117038809709152D+02
 0.143029852260937D+03 -.580025355006043D+02 -.102416052106761D+03 -.117038809709152D+02
 0.000000000000000D+00 0.000000000000000D+00 -.000000000000000D+00 -.000000000000000D+00
 0.164217507629790D+03 0.000000000000000D+00 0.000000000000000D+00 0.164217507629790D+03
 0.167204797585352D+03 0.000000000000000D+00 0.000000000000000D+00 -.167204797585352D+03
 0.175381776907243D+03 0.538737877583457D+02 0.109974550846682D+03 0.117038809709152D+02
 0.140126545525832D+03 -.613670616277611D+02 -.962566139235414D+02 -.117038809709152D+02
 0.159139827820669D+02 0.749327386941535D+01 -.137179369231404D+02 -.298728995556169D+01
0.416625767977D-03 0.000000000000D+00 0.000000000000D+00 0.234173075456D-02 0.000000000000D+00  5 -1 2 25 24 21 0 0.19957094D-02 0.29442207D+00 0.24687130D+05 0.24687130D+05 0.24687130D+05 0.12238845D+01  1  2  2  2  5  2        2 0.266651073602D+00 0.100000000000D+01
-.231456568650D-04 0.000000000000D+00 -.159995264911D-05 0.234173075456D-02 0.000000000000D+00  5 -1 2 25 24 21 2 0.19957094D-02 0.29442207D+00 0.24687130D+05 0.24687130D+05 0.24687130D+05 0.12238845D+01  1  2  3  2  5  2        2 -.221895024604D-01 0.100000000000D+01
0.287265202287D-04 0.000000000000D+00 0.000000000000D+00 0.234173075456D-02 0.000000000000D+00  5 -1 2 25 24 21 2 0.19957094D-02 0.29442207D+00 0.24687130D+05 0.24687130D+05 0.24687130D+05 0.12238845D+01  1  2 15  2  5  2        2 0.275398185938D-01 0.100000000000D+01
0.914612711854D-03 0.000000000000D+00 0.000000000000D+00 0.234173075456D-02 0.000000000000D+00  5 -1 2 25 24 21 2 0.19957094D-02 0.31834209D+00 0.27267723D+05 0.27267723D+05 0.27267723D+05 0.12192753D+01  1  2 12  2  5  2        2 0.724062258766D+00 0.100000000000D+01
-.797547594318D-03 0.000000000000D+00 0.000000000000D+00 0.234173075456D-02 0.000000000000D+00  5 -1 2 25 24 21 2 0.19957094D-02 0.29442207D+00 0.24687130D+05 0.24687130D+05 0.24687130D+05 0.12238845D+01  1  2  4  2  5  2        2 -.764600650984D+00 0.100000000000D+01
-.342142646832D-02 0.000000000000D+00 -.613354929512D-03 0.234173075456D-02 0.000000000000D+00  5 -1 2 25 24 21 2 0.19957094D-02 0.31880195D+00 0.24687130D+05 0.24687130D+05 0.24687130D+05 0.12238845D+01  1  2  5  2  5  2        2 -.271802513651D+01 0.100000000000D+01
0.346119931524D-02 0.000000000000D+00 0.611419038643D-03 0.234173075456D-02 0.000000000000D+00  5 -1 2 25 24 21 2 0.19957094D-02 0.29442207D+00 0.24687130D+05 0.24687130D+05 0.24687130D+05 0.12238845D+01  1  2  6  2  5  2        2 0.331821607698D+01 0.100000000000D+01
0.119816673415D-04 0.000000000000D+00 0.000000000000D+00 0.234173075456D-02 0.000000000000D+00  5 -1 21 25 24 -2 2 0.19957094D-02 0.31834209D+00 0.27267723D+05 0.27267723D+05 0.27267723D+05 0.12192753D+01  1  2 12  4  5  2        2 0.293292588840D-02 0.100000000000D+01
-.441588631464D-04 0.000000000000D+00 -.815207152236D-05 0.234173075456D-02 0.000000000000D+00  5 -1 21 25 24 -2 2 0.19957094D-02 0.31880195D+00 0.24687130D+05 0.24687130D+05 0.24687130D+05 0.12238845D+01  1  2  5  4  5  2        2 -.109050096080D-01 0.100000000000D+01
  </mgrwgt>
  </event>
  <event>
  4     66 0.45252658E-03 0.20951092E+03 0.75467711E-02 0.11304351E+00
       -1 -1    0    0    0  501 0.00000000E+00 0.00000000E+00 0.45952574E+02 0.45953688E+02 0.32000000E+00 0.0000E+00 0.9000E+01
        2 -1    0    0  501    0 0.00000000E+00 0.00000000E+00 -.12515258E+04 0.12515258E+04 0.32000000E+00 0.0000E+00 0.9000E+01
       25  1    1    2    0    0 -.11582971E+03 -.13982706E+03 -.31144311E+03 0.38156250E+03 0.12500000E+03 0.0000E+00 0.9000E+01
       24  1    1    2    0    0 0.11582971E+03 0.13982706E+03 -.89413012E+03 0.91591704E+03 0.80419002E+02 0.0000E+00 0.9000E+01
#aMCatNLO 1  0  0  1  1 0.29640872D+02 0.00000000D+00  -5  5  0 0.00000000D+00 0.00000000D+00 0.00000000D+00 0.00000000D+00 0.00000000D+00
  <mgrwgt>
 0.3767482331D+00    4    2    0
 0.239815724794336D+03 0.000000000000000D+00 0.000000000000000D+00 0.239815724794336D+03
 0.239815724794336D+03 0.000000000000000D+00 0.000000000000000D+00 -.239815724794336D+03
 0.249362413250111D+03 -.115829710643623D+03 -.139827062245140D+03 0.116569652731864D+03
 0.230269036338561D+03 0.115829710643623D+03 0.139827062245140D+03 -.116569652731864D+03
 0.000000000000000D+00 0.000000000000000D+00 0.000000000000000D+00 -.000000000000000D+00
 0.244537388291493D+03 0.000000000000000D+00 0.000000000000000D+00 0.244537388291493D+03
 0.291782944536003D+03 0.000000000000000D+00 0.000000000000000D+00 -.291782944536003D+03
 0.258048164154189D+03 -.131363502141374D+03 -.141841465694884D+03 0.116569652731864D+03
 0.222498304722338D+03 0.101968759007554D+03 0.138029590662205D+03 -.116569652731864D+03
 0.557738639509693D+02 0.293947431338205D+02 0.381187503267930D+01 -.472455562445102D+02
0.192722023636D-02 0.000000000000D+00 0.000000000000D+00 0.160269385842D-02 0.000000000000D+00  5 -1 2 25 24 21 0 0.70697157D-02 0.19254252D+00 0.43894825D+05 0.43894825D+05 0.43894825D+05 0.11979238D+01  1  2  2  1  5  1       -1 0.425992292089D+00 0.100000000000D+01
-.104691943127D-03 0.000000000000D+00 -.740103315637D-05 0.160269385842D-02 0.000000000000D+00  5 -1 2 25 24 21 2 0.70697157D-02 0.19254252D+00 0.43894825D+05 0.43894825D+05 0.43894825D+05 0.11979238D+01  1  2  3  1  5  1       -1 -.332079504617D-01 0.100000000000D+01
0.131728724365D-03 0.000000000000D+00 0.000000000000D+00 0.160269385842D-02 0.000000000000D+00  5 -1 2 25 24 21 2 0.70697157D-02 0.19254252D+00 0.43894825D+05 0.43894825D+05 0.43894825D+05 0.11979238D+01  1  2 15  1  5  1       -1 0.417839312410D-01 0.100000000000D+01
-.182284429651D-03 0.000000000000D+00 0.000000000000D+00 0.160269385842D-02 0.000000000000D+00  5 -1 2 25 24 21 2 0.70697157D-02 0.19254252D+00 0.43894825D+05 0.43894825D+05 0.43894825D+05 0.11979238D+01  1  2  4  1  5  1       -1 -.578200397186D-01 0.100000000000D+01
  </mgrwgt>
  </event>
  <event>
  4     66 0.45252658E-03 0.11481982E+03 0.75467711E-02 0.12407683E+00
       -1 -1    0    0    0  501 0.00000000E+00 0.00000000E+00 0.28454212E+03 0.28454230E+03 0.32000000E+00 0.0000E+00 0.9000E+01
        2 -1    0    0  501    0 0.00000000E+00 0.00000000E+00 -.69232515E+02 0.69233254E+02 0.32000000E+00 0.0000E+00 0.9000E+01
       25  1    1    2    0    0 0.49139574E+02 0.10971208E+02 0.22086754E+03 0.25873256E+03 0.12500000E+03 0.0000E+00 0.9000E+01
       24  1    1    2    0    0 -.49139574E+02 -.10971208E+02 -.55579348E+01 0.95042999E+02 0.80419002E+02 0.0000E+00 0.9000E+01
#aMCatNLO 1  0  0  2  1 0.12564648D+02 0.00000000D+00  -5  5  0 0.00000000D+00 0.00000000D+00 0.00000000D+00 0.00000000D+00 0.00000000D+00
  <mgrwgt>
 0.2317959200D+00    4    2    0
 0.140355724816279D+03 0.000000000000000D+00 0.000000000000000D+00 0.140355724816279D+03
 0.140355724816279D+03 0.000000000000000D+00 0.000000000000000D+00 -.140355724816279D+03
 0.156667464251234D+03 0.491395739321373D+02 0.109712083909246D+02 0.799038748442319D+02
 0.124043985381325D+03 -.491395739321373D+02 -.109712083909246D+02 -.799038748442319D+02
 0.000000000000000D+00 0.000000000000000D+00 0.000000000000000D+00 0.000000000000000D+00
 0.167372785544861D+03 0.000000000000000D+00 0.000000000000000D+00 0.167372785544861D+03
 0.141964730812821D+03 0.000000000000000D+00 0.000000000000000D+00 -.141964730812821D+03
 0.154600632290072D+03 0.426810134460326D+02 0.837002870884289D+01 0.799038748442319D+02
 0.126391873537889D+03 -.543359148379091D+02 -.130640302224061D+02 -.799038748442319D+02
 0.283450105297218D+02 0.116549013918764D+02 0.469400151356325D+01 0.254080547320400D+02
0.834422056075D-03 0.000000000000D+00 0.000000000000D+00 0.176765646736D-02 0.000000000000D+00  5 -1 2 25 24 21 0 0.43775782D-01 0.10651227D-01 0.13183591D+05 0.13183591D+05 0.13183591D+05 0.12542642D+01  1  2  2  2  5  2        2 0.281963304099D+00 0.100000000000D+01
-.440838232943D-04 0.000000000000D+00 -.320440040370D-05 0.176765646736D-02 0.000000000000D+00  5 -1 2 25 24 21 2 0.43775782D-01 0.10651227D-01 0.13183591D+05 0.13183591D+05 0.13183591D+05 0.12542642D+01  1  2  3  2  5  2        2 -.234349567408D-01 0.100000000000D+01
0.571269297700D-04 0.000000000000D+00 0.000000000000D+00 0.176765646736D-02 0.000000000000D+00  5 -1 2 25 24 21 2 0.43775782D-01 0.10651227D-01 0.13183591D+05 0.13183591D+05 0.13183591D+05 0.12542642D+01  1  2 15  2  5  2        2 0.303686710419D-01 0.100000000000D+01
-.107413670971D-03 0.000000000000D+00 0.000000000000D+00 0.176765646736D-02 0.000000000000D+00  5 -1 2 25 24 21 2 0.43775782D-01 0.10651227D-01 0.13183591D+05 0.13183591D+05 0.13183591D+05 0.12542642D+01  1  2  4  2  5  2        2 -.571010984183D-01 0.100000000000D+01
  </mgrwgt>
  </event>
  <event>
  4     66 0.45252658E-03 0.67848600E+02 0.75467711E-02 0.11820086E+00
       -1 -1    0    0    0  501 0.00000000E+00 0.00000000E+00 0.12833052E+02 0.12837041E+02 0.32000000E+00 0.0000E+00 0.9000E+01
        2 -1    0    0  501    0 0.00000000E+00 0.00000000E+00 -.24125938E+04 0.24125938E+04 0.32000000E+00 0.0000E+00 0.9000E+01
       25  1    1    2    0    0 -.12209783E+03 0.19763732E+02 -.81160531E+03 0.83043763E+03 0.12500000E+03 0.0000E+00 0.9000E+01
       24  1    1    2    0    0 0.12209783E+03 -.19763732E+02 -.15881554E+04 0.15949932E+04 0.80419002E+02 0.0000E+00 0.9000E+01
#aMCatNLO 1  0  0  2  1 0.86177752D+01 0.00000000D+00  -5  5  0 0.00000000D+00 0.00000000D+00 0.00000000D+00 0.00000000D+00 0.00000000D+00
  <mgrwgt>
 0.5087351129D+00    8    2    0
 0.175971036338953D+03 0.000000000000000D+00 0.000000000000000D+00 0.175971036338953D+03
 0.175971036338953D+03 0.000000000000000D+00 0.000000000000000D+00 -.175971036338953D+03
 0.188981393378605D+03 -.122097833377078D+03 0.197637316458198D+02 0.692133010293127D+02
 0.162960679299301D+03 0.122097833377078D+03 -.197637316458198D+02 -.692133010293127D+02
 0.000000000000000D+00 -.000000000000000D+00 -.000000000000000D+00 0.000000000000000D+00
 0.181523208714654D+03 0.000000000000000D+00 0.000000000000000D+00 0.181523208714654D+03
 0.179399864847368D+03 0.000000000000000D+00 0.000000000000000D+00 -.179399864847368D+03
 0.188143070464644D+03 -.120046454448579D+03 0.238994288386789D+02 0.692133010293127D+02
 0.163904495313149D+03 0.123875825514812D+03 -.161791978520907D+02 -.692133010293127D+02
 0.887550778422933D+01 -.382937106623234D+01 -.772023098658824D+01 0.212334386728596D+01
0.822139085229D-03 0.000000000000D+00 0.000000000000D+00 0.192509282887D-02 0.000000000000D+00  5 -1 2 25 24 21 0 0.19746242D-02 0.37116859D+00 0.26144107D+05 0.26144107D+05 0.26144107D+05 0.12212196D+01  1  2  2  2  5  2        2 0.293780749323D+00 0.100000000000D+01
-.452766513847D-04 0.000000000000D+00 -.315723056147D-05 0.192509282887D-02 0.000000000000D+00  5 -1 2 25 24 21 2 0.19746242D-02 0.37116859D+00 0.26144107D+05 0.26144107D+05 0.26144107D+05 0.12212196D+01  1  2  3  2  5  2        2 -.241290291004D-01 0.100000000000D+01
0.564163469796D-04 0.000000000000D+00 0.000000000000D+00 0.192509282887D-02 0.000000000000D+00  5 -1 2 25 24 21 2 0.19746242D-02 0.37116859D+00 0.26144107D+05 0.26144107D+05 0.26144107D+05 0.12212196D+01  1  2 15  2  5  2        2 0.300656439109D-01 0.100000000000D+01
0.133471931220D-02 0.000000000000D+00 0.000000000000D+00 0.192509282887D-02 0.000000000000D+00  5 -1 2 25 24 21 2 0.19746242D-02 0.38411071D+00 0.27579442D+05 0.27579442D+05 0.27579442D+05 0.12187518D+01  1  2 12  2  5  2        2 0.638567228178D+00 0.100000000000D+01
-.810528453654D-03 0.000000000000D+00 0.000000000000D+00 0.192509282887D-02 0.000000000000D+00  5 -1 2 25 24 21 2 0.19746242D-02 0.37116859D+00 0.26144107D+05 0.26144107D+05 0.26144107D+05 0.12212196D+01  1  2  4  2  5  2        2 -.431950333048D+00 0.100000000000D+01
0.141110977139D-05 0.000000000000D+00 0.000000000000D+00 0.192509282887D-02 0.205489866059D-03  5 -1 2 25 24 21 2 0.20369268D-02 0.37840087D+00 0.27579442D+05 0.27579442D+05 0.27579442D+05 0.12187518D+01  1  2 11  2  5  2        2 0.675674497498D-03 0.100000000000D+01
0.169048076666D-04 0.000000000000D+00 0.000000000000D+00 0.192509282887D-02 0.000000000000D+00  5 -1 21 25 24 -2 2 0.19746242D-02 0.38411071D+00 0.27579442D+05 0.27579442D+05 0.27579442D+05 0.12187518D+01  1  2 12  4  5  2        2 0.172356423790D-02 0.100000000000D+01
0.153027797051D-07 0.000000000000D+00 0.000000000000D+00 0.192509282887D-02 0.732402136958D-06  5 -1 21 25 24 -2 2 0.20369268D-02 0.37840087D+00 0.27579442D+05 0.27579442D+05 0.27579442D+05 0.12187518D+01  1  2 11  4  5  2        2 0.161490483907D-05 0.100000000000D+01
  </mgrwgt>
  </event>
  <event>
  4     66 0.45252658E-03 0.39913163E+02 0.75467711E-02 0.12701661E+00
       -1 -1    0    0    0  501 0.00000000E+00 0.00000000E+00 0.18319724E+02 0.18322518E+02 0.32000000E+00 0.0000E+00 0.9000E+01
        2 -1    0    0  501    0 0.00000000E+00 0.00000000E+00 -.63287312E+03 0.63287320E+03 0.32000000E+00 0.0000E+00 0.9000E+01
       25  1    1    2    0    0 0.22203306E+01 0.17170339E+02 -.44801792E+03 0.46545118E+03 0.12500000E+03 0.0000E+00 0.9000E+01
       24  1    1    2    0    0 -.22203306E+01 -.17170339E+02 -.16653547E+03 0.18574453E+03 0.80419002E+02 0.0000E+00 0.9000E+01
#aMCatNLO 1  0  0  2  1 0.14909984D+01 0.00000000D+00  -5  5  0 0.00000000D+00 0.00000000D+00 0.00000000D+00 0.00000000D+00 0.00000000D+00
  <mgrwgt>
 0.6380252107D+00   11    2    0
 0.107680066872867D+03 0.000000000000000D+00 0.000000000000000D+00 0.107680066872867D+03
 0.107680066872867D+03 0.000000000000000D+00 0.000000000000000D+00 -.107680066872867D+03
 0.128941625097106D+03 0.222033060761244D+01 0.171703390265754D+02 -.264800353547342D+02
 0.864185086486289D+02 -.222033060761244D+01 -.171703390265754D+02 0.264800353547342D+02
 0.000000000000000D+00 -.000000000000000D+00 0.000000000000000D+00 -.000000000000000D+00
 0.108130505085984D+03 0.000000000000000D+00 0.000000000000000D+00 0.108130505085984D+03
 0.108923597897711D+03 0.000000000000000D+00 0.000000000000000D+00 -.108923597897711D+03
 0.128890677163646D+03 0.295881796533968D+01 0.166691266586851D+02 -.264800353547342D+02
 0.864746178196334D+02 -.172512738049459D+01 -.175064341261780D+02 0.264800353547342D+02
 0.168880800041570D+01 -.123369058484509D+01 0.837307467492874D+00 -.793092811727181D+00
0.118009141154D-03 0.000000000000D+00 0.000000000000D+00 0.292319386053D-02 0.000000000000D+00  5 -1 2 25 24 21 0 0.28186402D-02 0.97365316D-01 0.10863359D+05 0.10863359D+05 0.10863359D+05 0.12641209D+01  1  2  2  2  5  2        2 0.242857896663D+00 0.100000000000D+01
-.654759759171D-05 0.000000000000D+00 -.453186174552D-06 0.292319386053D-02 0.000000000000D+00  5 -1 2 25 24 21 2 0.28186402D-02 0.97365316D-01 0.10863359D+05 0.10863359D+05 0.10863359D+05 0.12641209D+01  1  2  3  2  5  2        2 -.215325647511D-01 0.100000000000D+01
0.806494956926D-05 0.000000000000D+00 0.000000000000D+00 0.292319386053D-02 0.000000000000D+00  5 -1 2 25 24 21 2 0.28186402D-02 0.97365316D-01 0.10863359D+05 0.10863359D+05 0.10863359D+05 0.12641209D+01  1  2 15  2  5  2        2 0.265225598217D-01 0.100000000000D+01
0.153126346166D-07 0.000000000000D+00 0.000000000000D+00 0.292319386053D-02 0.000000000000D+00  5 -1 2 25 24 21 2 0.28186402D-02 0.98691761D-01 0.11020041D+05 0.11020041D+05 0.11020041D+05 0.12633835D+01  1  2 12  2  5  2        2 0.495590824456D-04 0.100000000000D+01
-.247135522611D-02 0.000000000000D+00 0.000000000000D+00 0.292319386053D-02 0.000000000000D+00  5 -1 2 25 24 21 2 0.28186402D-02 0.97365316D-01 0.10863359D+05 0.10863359D+05 0.10863359D+05 0.12641209D+01  1  2  4  2  5  2        2 -.812734986899D+01 0.100000000000D+01
-.112993814066D-01 0.000000000000D+00 -.117864325005D-02 0.292319386053D-02 0.000000000000D+00  5 -1 2 25 24 21 2 0.28186402D-02 0.98785493D-01 0.10863359D+05 0.10863359D+05 0.10863359D+05 0.12641209D+01  1  2  5  2  5  2        2 -.365494945716D+02 0.100000000000D+01
0.113153861783D-01 0.000000000000D+00 0.117851968537D-02 0.292319386053D-02 0.000000000000D+00  5 -1 2 25 24 21 2 0.28186402D-02 0.97365316D-01 0.10863359D+05 0.10863359D+05 0.10863359D+05 0.12641209D+01  1  2  6  2  5  2        2 0.372120128269D+02 0.100000000000D+01
0.247152662414D-02 0.000000000000D+00 0.000000000000D+00 0.292319386053D-02 0.111945107101D-01  5 -1 2 25 24 21 2 0.28304309D-02 0.98489728D-01 0.11020041D+05 0.11020041D+05 0.11020041D+05 0.12633835D+01  1  2 11  2  5  2        2 0.796966297041D+01 0.100000000000D+01
0.116365289395D-08 0.000000000000D+00 0.000000000000D+00 0.292319386053D-02 0.000000000000D+00  5 -1 21 25 24 -2 2 0.28186402D-02 0.98691761D-01 0.11020041D+05 0.11020041D+05 0.11020041D+05 0.12633835D+01  1  2 12  4  5  2        2 0.567689377252D-05 0.100000000000D+01
-.299326183063D-04 0.000000000000D+00 -.313177765824D-05 0.292319386053D-02 0.000000000000D+00  5 -1 21 25 24 -2 2 0.28186402D-02 0.98785493D-01 0.10863359D+05 0.10863359D+05 0.10863359D+05 0.12641209D+01  1  2  5  4  5  2        2 -.145856742498D+00 0.100000000000D+01
0.639282455888D-05 0.000000000000D+00 0.000000000000D+00 0.292319386053D-02 0.237496903896D-04  5 -1 21 25 24 -2 2 0.28304309D-02 0.98489728D-01 0.11020041D+05 0.11020041D+05 0.11020041D+05 0.12633835D+01  1  2 11  4  5  2        2 0.311474686827D-01 0.100000000000D+01
  </mgrwgt>
  </event>
  <event>
  4     66 0.45252658E-03 0.10387750E+03 0.75467711E-02 0.12205483E+00
       -1 -1    0    0    0  501 0.00000000E+00 0.00000000E+00 0.93576913E+02 0.93577460E+02 0.32000000E+00 0.0000E+00 0.9000E+01
        2 -1    0    0  501    0 0.00000000E+00 0.00000000E+00 -.11554706E+03 0.11554750E+03 0.32000000E+00 0.0000E+00 0.9000E+01
       25  1    1    2    0    0 0.14238991E+02 -.52376411E+01 -.86905237E+01 0.12621690E+03 0.12500000E+03 0.0000E+00 0.9000E+01
       24  1    1    2    0    0 -.14238991E+02 0.52376411E+01 -.13279623E+02 0.82908058E+02 0.80419002E+02 0.0000E+00 0.9000E+01
#aMCatNLO 1  0  0  2  1 0.54697930D+02 0.00000000D+00  -5  5  0 0.00000000D+00 0.00000000D+00 0.00000000D+00 0.00000000D+00 0.00000000D+00
  <mgrwgt>
 0.1826194096D+00    4    2    0
 0.103983848064101D+03 0.000000000000000D+00 0.000000000000000D+00 0.103983848064101D+03
 0.103983848064101D+03 0.000000000000000D+00 0.000000000000000D+00 -.103983848064101D+03
 0.126001171466059D+03 0.142389914996086D+02 -.523764110300105D+01 0.459493716706965D+01
 0.819665246621426D+02 -.142389914996086D+02 0.523764110300105D+01 -.459493716706965D+01
 0.000000000000000D+00 0.000000000000000D+00 0.000000000000000D+00 0.000000000000000D+00
 0.144896703967002D+03 0.000000000000000D+00 0.000000000000000D+00 0.144896703967002D+03
 0.127531954111134D+03 0.000000000000000D+00 0.000000000000000D+00 -.127531954111134D+03
 0.127540520365044D+03 -.151463117742848D+02 -.197752402527244D+02 0.459493716706965D+01
 0.875000019209123D+02 -.338800424149497D+02 -.447924772489849D+01 -.459493716706965D+01
 0.573881357921809D+02 0.490263541892345D+02 0.242544879776229D+02 0.173647498558680D+02
0.265271001862D-03 0.000000000000D+00 0.000000000000D+00 0.319263841183D-02 0.000000000000D+00  5 -1 2 25 24 21 0 0.14396524D-01 0.17776547D-01 0.10790534D+05 0.10790534D+05 0.10790534D+05 0.12644677D+01  1  2  2  2  5  2        2 0.303117049835D+00 0.100000000000D+01
-.147372591180D-04 0.000000000000D+00 -.101871049461D-05 0.319263841183D-02 0.000000000000D+00  5 -1 2 25 24 21 2 0.14396524D-01 0.17776547D-01 0.10790534D+05 0.10790534D+05 0.10790534D+05 0.12644677D+01  1  2  3  2  5  2        2 -.269248181224D-01 0.100000000000D+01
0.183389892158D-04 0.000000000000D+00 0.000000000000D+00 0.319263841183D-02 0.000000000000D+00  5 -1 2 25 24 21 2 0.14396524D-01 0.17776547D-01 0.10790534D+05 0.10790534D+05 0.10790534D+05 0.12644677D+01  1  2 15  2  5  2        2 0.335051413041D-01 0.100000000000D+01
-.695559340938D-04 0.000000000000D+00 0.000000000000D+00 0.319263841183D-02 0.000000000000D+00  5 -1 2 25 24 21 2 0.14396524D-01 0.17776547D-01 0.10790534D+05 0.10790534D+05 0.10790534D+05 0.12644677D+01  1  2  4  2  5  2        2 -.127077963400D+00 0.100000000000D+01
  </mgrwgt>
  </event>
  <event>
  4     66 -.45252658E-03 0.10335306E+03 0.75467711E-02 0.12538593E+00
       -1 -1    0    0    0  501 0.00000000E+00 0.00000000E+00 0.53396717E+01 0.53492517E+01 0.32000000E+00 0.0000E+00 0.9000E+01
        2 -1    0    0  501    0 0.00000000E+00 0.00000000E+00 -.24309285E+04 0.24309285E+04 0.32000000E+00 0.0000E+00 0.9000E+01
       25  1    1    2    0    0 0.36964971E+02 0.29594110E+02 -.13158759E+04 0.13226476E+04 0.12500000E+03 0.0000E+00 0.9000E+01
       24  1    1    2    0    0 -.36964971E+02 -.29594110E+02 -.11097129E+04 0.11136302E+04 0.80419002E+02 0.0000E+00 0.9000E+01
#aMCatNLO 1  0  0  1  1 0.41628088D+00 0.00000000D+00  -5  5  0 0.00000000D+00 0.00000000D+00 0.00000000D+00 0.00000000D+00 0.00000000D+00
  <mgrwgt>
 -.8686462790D+00    9    2    0
 0.113982697413453D+03 0.000000000000000D+00 0.000000000000000D+00 0.113982697413453D+03
 0.113982697413453D+03 0.000000000000000D+00 0.000000000000000D+00 -.113982697413453D+03
 0.134068605743055D+03 0.369649708869922D+02 0.295941100024294D+02 0.103523246845611D+02
 0.938967890838509D+02 -.369649708869922D+02 -.295941100024294D+02 -.103523246845611D+02
 0.000000000000000D+00 0.000000000000000D+00 -.000000000000000D+00 0.000000000000000D+00
 0.114204719751302D+03 0.000000000000000D+00 0.000000000000000D+00 0.114204719751302D+03
 0.114178181117410D+03 0.000000000000000D+00 0.000000000000000D+00 -.114178181117410D+03
 0.134117065314842D+03 0.369445933184770D+02 0.298381233797210D+02 0.103523246845611D+02
 0.938487095908591D+02 -.369792363648888D+02 -.294232865090556D+02 -.103523246845611D+02
 0.417125963009962D+00 0.346430464118317D-01 -.414836870665388D+00 0.265386338918278D-01
0.148781649788D-03 0.000000000000D+00 0.000000000000D+00 0.289019538965D-02 0.000000000000D+00  5 -1 2 25 24 21 0 0.82222650D-03 0.37398973D+00 0.12881420D+05 0.12881420D+05 0.12881420D+05 0.12554324D+01  1  2  2  1  5  1       -1 0.181398784204D+00 0.100000000000D+01
-.826546345307D-05 0.000000000000D+00 -.571360710296D-06 0.289019538965D-02 0.000000000000D+00  5 -1 2 25 24 21 2 0.82222650D-03 0.37398973D+00 0.12881420D+05 0.12881420D+05 0.12881420D+05 0.12554324D+01  1  2  3  1  5  1       -1 -.158832309514D-01 0.100000000000D+01
0.102600565572D-04 0.000000000000D+00 0.000000000000D+00 0.289019538965D-02 0.000000000000D+00  5 -1 2 25 24 21 2 0.82222650D-03 0.37398973D+00 0.12881420D+05 0.12881420D+05 0.12881420D+05 0.12554324D+01  1  2 15  1  5  1       -1 0.197161174080D-01 0.100000000000D+01
-.459155578526D-02 0.000000000000D+00 0.000000000000D+00 0.289019538965D-02 0.000000000000D+00  5 -1 2 25 24 21 2 0.82222650D-03 0.37398973D+00 0.12881420D+05 0.12881420D+05 0.12881420D+05 0.12554324D+01  1  2  4  1  5  1       -1 -.882330934953D+01 0.100000000000D+01
-.472591832299D-01 0.000000000000D+00 -.417594369528D-02 0.289019538965D-02 0.000000000000D+00  5 -1 2 25 24 21 2 0.82567748D-03 0.37398973D+00 0.12881420D+05 0.12881420D+05 0.12881420D+05 0.12554324D+01  1  2  5  1  5  1       -1 -.902782582709D+02 0.100000000000D+01
0.472762954533D-01 0.000000000000D+00 0.417590706799D-02 0.289019538965D-02 0.000000000000D+00  5 -1 2 25 24 21 2 0.82222650D-03 0.37398973D+00 0.12881420D+05 0.12881420D+05 0.12881420D+05 0.12554324D+01  1  2  6  1  5  1       -1 0.908479389542D+02 0.100000000000D+01
0.459157069437D-02 0.000000000000D+00 0.000000000000D+00 0.289019538965D-02 0.140156453089D+00  5 -1 2 25 24 21 2 0.82382808D-03 0.37463114D+00 0.12928735D+05 0.12928735D+05 0.12928735D+05 0.12552474D+01  1  2 11  1  5  1       -1 0.875271109351D+01 0.100000000000D+01
-.368538560095D-04 0.000000000000D+00 -.325891675273D-05 0.289019538965D-02 0.000000000000D+00  5 21 2 25 24 1 2 0.82567748D-03 0.37398973D+00 0.12881420D+05 0.12881420D+05 0.12881420D+05 0.12554324D+01  1  2  5  3  5  1       -1 -.169295834017D+01 0.100000000000D+01
0.305320108985D-05 0.000000000000D+00 0.000000000000D+00 0.289019538965D-02 0.510306584753D-04  5 21 2 25 24 1 2 0.82382808D-03 0.37463114D+00 0.12928735D+05 0.12928735D+05 0.12928735D+05 0.12552474D+01  1  2 11  3  5  1       -1 0.139997963223D+00 0.100000000000D+01
  </mgrwgt>
  </event>
  <event>
  4     66 0.45252658E-03 0.10378202E+03 0.75467711E-02 0.10979632E+00
       -3 -1    0    0    0  501 0.00000000E+00 0.00000000E+00 0.10938119E+02 0.10949541E+02 0.50000000E+00 0.0000E+00 0.9000E+01
        4 -1    0    0  501    0 0.00000000E+00 0.00000000E+00 -.99423315E+03 0.99423436E+03 0.15500000E+01 0.0000E+00 0.9000E+01
       25  1    1    2    0    0 0.10269484E+02 0.10285275E+02 -.64463234E+03 0.65680066E+03 0.12500000E+03 0.0000E+00 0.9000E+01
       24  1    1    2    0    0 -.10269484E+02 -.10285275E+02 -.33866269E+03 0.34838324E+03 0.80419002E+02 0.0000E+00 0.9000E+01
#aMCatNLO 1  0  0  1  2 0.23684913D+03 0.00000000D+00  -5  5  0 0.00000000D+00 0.00000000D+00 0.00000000D+00 0.00000000D+00 0.00000000D+00
  <mgrwgt>
 0.1433457294D-01    5    2    0
 0.104313892857326D+03 0.000000000000000D+00 0.000000000000000D+00 0.104313892857326D+03
 0.104313892857326D+03 0.000000000000000D+00 0.000000000000000D+00 -.104313892857326D+03
 0.126261554369094D+03 0.102694836527645D+02 0.102852746955697D+02 -.102825552097650D+02
 0.823662313455589D+02 -.102694836527645D+02 -.102852746955697D+02 0.102825552097650D+02
 0.000000000000000D+00 0.000000000000000D+00 -.000000000000000D+00 0.000000000000000D+00
 0.397474354728920D+03 0.000000000000000D+00 0.000000000000000D+00 0.397474354728920D+03
 0.216333720537293D+03 0.000000000000000D+00 0.000000000000000D+00 -.216333720537293D+03
 0.202467568683109D+03 0.737993775189907D+01 0.158770028486442D+03 -.102825552097650D+02
 0.113163646099148D+03 -.119882013332098D+02 0.780342676728325D+02 0.102825552097650D+02
 0.298176860483956D+03 0.460826358131072D+01 -.236804296159274D+03 0.181140634191626D+03
0.157797533864D-03 0.000000000000D+00 0.000000000000D+00 0.316087993500D-02 0.000000000000D+00  5 -3 4 25 24 21 0 0.16837591D-02 0.15295992D+00 0.10770707D+05 0.10770707D+05 0.10770707D+05 0.12645626D+01  1  2  2  1  5  1       -3 0.110094016668D-01 0.100000000000D+01
-.876625113515D-05 0.000000000000D+00 -.605984079083D-06 0.316087993500D-02 0.000000000000D+00  5 -3 4 25 24 21 2 0.16837591D-02 0.15295992D+00 0.10770707D+05 0.10770707D+05 0.10770707D+05 0.12645626D+01  1  2  3  1  5  1       -3 -.978043240738D-03 0.100000000000D+01
0.108881711030D-04 0.000000000000D+00 0.000000000000D+00 0.316087993500D-02 0.000000000000D+00  5 -3 4 25 24 21 2 0.16837591D-02 0.15295992D+00 0.10770707D+05 0.10770707D+05 0.10770707D+05 0.12645626D+01  1  2 15  1  5  1       -3 0.121478406073D-02 0.100000000000D+01
0.155617750014D-03 0.000000000000D+00 -.897154036216D-04 0.316087993500D-02 0.000000000000D+00  5 -3 4 25 24 21 2 0.14198089D-01 0.15295992D+00 0.10770707D+05 0.10770707D+05 0.10770707D+05 0.12645626D+01  1  2  5  1  5  1       -3 0.598383062609D-03 0.100000000000D+01
0.285128227539D-04 0.000000000000D+00 -.231290487017D-04 0.316087993500D-02 0.000000000000D+00  5 21 4 25 24 3 2 0.14198089D-01 0.15295992D+00 0.10770707D+05 0.10770707D+05 0.10770707D+05 0.12645626D+01  1  2  5  3  5  1       -3 0.249004738860D-02 0.100000000000D+01
  </mgrwgt>
  </event>
  <event>
  4     66 0.45252658E-03 0.77111794E+02 0.75467711E-02 0.12515414E+00
       -1 -1    0    0    0  501 0.00000000E+00 0.00000000E+00 0.47873458E+02 0.47874527E+02 0.32000000E+00 0.0000E+00 0.9000E+01
        2 -1    0    0  501    0 0.00000000E+00 0.00000000E+00 -.43923784E+03 0.43923796E+03 0.32000000E+00 0.0000E+00 0.9000E+01
       25  1    1    2    0    0 0.77440937E+01 -.48978829E+02 -.36506025E+03 0.38904098E+03 0.12500000E+03 0.0000E+00 0.9000E+01
       24  1    1    2    0    0 -.77440937E+01 0.48978829E+02 -.26304131E+02 0.98071504E+02 0.80419002E+02 0.0000E+00 0.9000E+01
#aMCatNLO 1  0  0  2  1 0.10868887D+01 0.00000000D+00  -5  5  0 0.00000000D+00 0.00000000D+00 0.00000000D+00 0.00000000D+00 0.00000000D+00
  <mgrwgt>
 0.4907415747D+00   11    2    0
 0.145010768767039D+03 0.000000000000000D+00 0.000000000000000D+00 0.145010768767039D+03
 0.145010768767039D+03 0.000000000000000D+00 0.000000000000000D+00 -.145010768767039D+03
 0.160798879063077D+03 0.774409372147965D+01 -.489788294125929D+02 -.881611183558105D+02
 0.129222658471000D+03 -.774409372147965D+01 0.489788294125929D+02 0.881611183558105D+02
 0.000000000000000D+00 -.000000000000000D+00 -.000000000000000D+00 -.000000000000000D+00
 0.145228046363480D+03 0.000000000000000D+00 0.000000000000000D+00 0.145228046363480D+03
 0.146377424372535D+03 0.000000000000000D+00 0.000000000000000D+00 -.146377424372535D+03
 0.160790965159925D+03 0.833401040225882D+01 -.488558692270226D+02 -.881611183558105D+02
 0.129232608986459D+03 -.726998959086952D+01 0.490776500321462D+02 0.881611183558105D+02
 0.158189658963180D+01 -.106402081138930D+01 -.221780805123631D+00 -.114937800905442D+01
0.286138135778D-03 0.000000000000D+00 0.000000000000D+00 0.162937874996D-02 0.000000000000D+00  5 -1 2 25 24 21 0 0.73652386D-02 0.67575144D-01 0.13105039D+05 0.13105039D+05 0.13105039D+05 0.12545650D+01  1  2  2  2  5  2        2 0.216659101851D+00 0.100000000000D+01
-.148161320029D-04 0.000000000000D+00 -.109884578329D-05 0.162937874996D-02 0.000000000000D+00  5 -1 2 25 24 21 2 0.73652386D-02 0.67575144D-01 0.13105039D+05 0.13105039D+05 0.13105039D+05 0.12545650D+01  1  2  3  2  5  2        2 -.176572213932D-01 0.100000000000D+01
0.195134151586D-04 0.000000000000D+00 0.000000000000D+00 0.162937874996D-02 0.000000000000D+00  5 -1 2 25 24 21 2 0.73652386D-02 0.67575144D-01 0.13105039D+05 0.13105039D+05 0.13105039D+05 0.12545650D+01  1  2 15  2  5  2        2 0.232552390545D-01 0.100000000000D+01
0.435956846982D-08 0.000000000000D+00 0.000000000000D+00 0.162937874996D-02 0.000000000000D+00  5 -1 2 25 24 21 2 0.73652386D-02 0.68262353D-01 0.13230236D+05 0.13230236D+05 0.13230236D+05 0.12540866D+01  1  2 12  2  5  2        2 0.513713266414D-05 0.100000000000D+01
-.162445568472D-01 0.000000000000D+00 0.000000000000D+00 0.162937874996D-02 0.000000000000D+00  5 -1 2 25 24 21 2 0.73652386D-02 0.67575144D-01 0.13105039D+05 0.13105039D+05 0.13105039D+05 0.12545650D+01  1  2  4  2  5  2        2 -.193595559644D+02 0.100000000000D+01
-.475843346822D-01 0.000000000000D+00 -.410255222545D-02 0.162937874996D-02 0.000000000000D+00  5 -1 2 25 24 21 2 0.73652386D-02 0.68281494D-01 0.13105039D+05 0.13105039D+05 0.13105039D+05 0.12545650D+01  1  2  5  2  5  2        2 -.560800629129D+02 0.100000000000D+01
0.476246422876D-01 0.000000000000D+00 0.410233043055D-02 0.162937874996D-02 0.000000000000D+00  5 -1 2 25 24 21 2 0.73652386D-02 0.67575144D-01 0.13105039D+05 0.13105039D+05 0.13105039D+05 0.12545650D+01  1  2  6  2  5  2        2 0.567569762794D+02 0.100000000000D+01
0.162453871760D-01 0.000000000000D+00 0.000000000000D+00 0.162937874996D-02 0.115698578908D-01  5 -1 2 25 24 21 2 0.73762743D-02 0.68212006D-01 0.13230236D+05 0.13230236D+05 0.13230236D+05 0.12540866D+01  1  2 11  2  5  2        2 0.191151764064D+02 0.100000000000D+01
0.561728239799D-09 0.000000000000D+00 0.000000000000D+00 0.162937874996D-02 0.000000000000D+00  5 -1 21 25 24 -2 2 0.73652386D-02 0.68262353D-01 0.13230236D+05 0.13230236D+05 0.13230236D+05 0.12540866D+01  1  2 12  4  5  2        2 0.150543747114D-05 0.100000000000D+01
-.911820325676D-04 0.000000000000D+00 -.787554750060D-05 0.162937874996D-02 0.000000000000D+00  5 -1 21 25 24 -2 2 0.73652386D-02 0.68281494D-01 0.13105039D+05 0.13105039D+05 0.13105039D+05 0.12545650D+01  1  2  5  4  5  2        2 -.244402592311D+00 0.100000000000D+01
0.299992739214D-04 0.000000000000D+00 0.000000000000D+00 0.162937874996D-02 0.200845578992D-04  5 -1 21 25 24 -2 2 0.73762743D-02 0.68212006D-01 0.13230236D+05 0.13230236D+05 0.13230236D+05 0.12540866D+01  1  2 11  4  5  2        2 0.803465964112D-01 0.100000000000D+01
  </mgrwgt>
  </event>
  <event>
  4     66 0.45252658E-03 0.10879735E+03 0.75467711E-02 0.10569123E+00
       -1 -1    0    0    0  501 0.00000000E+00 0.00000000E+00 0.26108192E+02 0.26110153E+02 0.32000000E+00 0.0000E+00 0.9000E+01
        2 -1    0    0  501    0 0.00000000E+00 0.00000000E+00 -.46789634E+03 0.46789645E+03 0.32000000E+00 0.0000E+00 0.9000E+01
       25  1    1    2    0    0 -.31928754E+02 0.14633060E+02 -.30503393E+03 0.33151813E+03 0.12500000E+03 0.0000E+00 0.9000E+01
       24  1    1    2    0    0 0.31928754E+02 -.14633060E+02 -.13675422E+03 0.16248848E+03 0.80419002E+02 0.0000E+00 0.9000E+01
#aMCatNLO 1  0  0  1  1 0.33175312D+03 0.00000000D+00  -5  5  0 0.00000000D+00 0.00000000D+00 0.00000000D+00 0.00000000D+00 0.00000000D+00
  <mgrwgt>
 0.4000902622D+00    5    2    0
 0.110528000492345D+03 0.000000000000000D+00 0.000000000000000D+00 0.110528000492345D+03
 0.110528000492345D+03 0.000000000000000D+00 0.000000000000000D+00 -.110528000492345D+03
 0.131241720103747D+03 -.319287540163651D+02 0.146330604576496D+02 -.191263510475886D+02
 0.898142808809429D+02 0.319287540163651D+02 -.146330604576496D+02 0.191263510475886D+02
 0.000000000000000D+00 0.000000000000000D+00 0.000000000000000D+00 0.000000000000000D+00
 0.624302861486079D+03 0.000000000000000D+00 0.000000000000000D+00 0.624302861486079D+03
 0.264072562462669D+03 0.000000000000000D+00 0.000000000000000D+00 -.264072562462669D+03
 0.235170544136052D+03 -.108502570359253D+03 -.165956499572286D+03 -.191263510475886D+02
 0.163484552582287D+03 -.210063146111070D+02 -.139473654934269D+03 0.191263510475886D+02
 0.489720327230410D+03 0.129508884970360D+03 0.305430154506555D+03 0.360230299023410D+03
0.199144828642D-03 0.000000000000D+00 0.000000000000D+00 0.292190419250D-02 0.000000000000D+00  5 -1 2 25 24 21 0 0.40168042D-02 0.71984212D-01 0.11836863D+05 0.11836863D+05 0.11836863D+05 0.12597214D+01  1  2  2  1  5  1       -1 0.343572127269D+00 0.100000000000D+01
-.110602511785D-04 0.000000000000D+00 -.764768578024D-06 0.292190419250D-02 0.000000000000D+00  5 -1 2 25 24 21 2 0.40168042D-02 0.71984212D-01 0.11836863D+05 0.11836863D+05 0.11836863D+05 0.12597214D+01  1  2  3  1  5  1       -1 -.302804900878D-01 0.100000000000D+01
0.137443467554D-04 0.000000000000D+00 0.000000000000D+00 0.292190419250D-02 0.000000000000D+00  5 -1 2 25 24 21 2 0.40168042D-02 0.71984212D-01 0.11836863D+05 0.11836863D+05 0.11836863D+05 0.12597214D+01  1  2 15  1  5  1       -1 0.376289425052D-01 0.100000000000D+01
0.350295818001D-03 0.000000000000D+00 -.166586832174D-03 0.292190419250D-02 0.000000000000D+00  5 -1 2 25 24 21 2 0.52791314D-01 0.71984212D-01 0.11836863D+05 0.11836863D+05 0.11836863D+05 0.12597214D+01  1  2  5  1  5  1       -1 0.162322201473D-01 0.100000000000D+01
0.699150592621D-04 0.000000000000D+00 -.493164438829D-04 0.292190419250D-02 0.000000000000D+00  5 21 2 25 24 1 2 0.52791314D-01 0.71984212D-01 0.11836863D+05 0.11836863D+05 0.11836863D+05 0.12597214D+01  1  2  5  3  5  1       -1 0.329374624040D-01 0.100000000000D+01
  </mgrwgt>
  </event>
  <event>
  4     66 0.45252658E-03 0.19058636E+03 0.75467711E-02 0.10430390E+00
       -1 -1    0    0    0  501 0.00000000E+00 0.00000000E+00 0.25755705E+02 0.25757693E+02 0.32000000E+00 0.0000E+00 0.9000E+01
        2 -1    0    0  501    0 0.00000000E+00 0.00000000E+00 -.14247893E+04 0.14247893E+04 0.32000000E+00 0.0000E+00 0.9000E+01
       25  1    1    2    0    0 -.13261561E+03 -.88512468E+02 -.67000927E+03 0.69997056E+03 0.12500000E+03 0.0000E+00 0.9000E+01
       24  1    1    2    0    0 0.13261561E+03 0.88512468E+02 -.72902432E+03 0.75057647E+03 0.80419002E+02 0.0000E+00 0.9000E+01
#aMCatNLO 1  0  0  2  1 0.31212042D+03 0.00000000D+00  -5  5  0 0.00000000D+00 0.00000000D+00 0.00000000D+00 0.00000000D+00 0.00000000D+00
  <mgrwgt>
 0.5103959821D+00    3    2    0
 0.191567012918418D+03 0.000000000000000D+00 0.000000000000000D+00 0.191567012918418D+03
 0.191567012918418D+03 0.000000000000000D+00 0.000000000000000D+00 -.191567012918418D+03
 0.203518162422338D+03 -.132615613501075D+03 -.885124681667217D+02 0.193205711751448D+02
 0.179615863414498D+03 0.132615613501075D+03 0.885124681667217D+02 -.193205711751448D+02
 0.000000000000000D+00 0.000000000000000D+00 0.000000000000000D+00 0.000000000000000D+00
 0.425208131957134D+03 0.000000000000000D+00 0.000000000000000D+00 0.425208131957134D+03
 0.383821202167324D+03 0.000000000000000D+00 0.000000000000000D+00 -.383821202167324D+03
 0.368858690002082D+03 -.206407916720518D+03 -.278305983828256D+03 0.193205711751448D+02
 0.125318241255747D+03 0.933027205731630D+02 -.126001388950924D+02 -.193205711751448D+02
 0.314852402866629D+03 0.113105196147355D+03 0.290906122723349D+03 0.413869297898093D+02
0.118458351583D-02 0.000000000000D+00 0.000000000000D+00 0.216933199634D-02 0.000000000000D+00  5 -1 2 25 24 21 0 0.39625718D-02 0.21919851D+00 0.36323162D+05 0.36323162D+05 0.36323162D+05 0.12062762D+01  1  2  2  2  5  2        2 0.500960017834D+00 0.100000000000D+01
-.658080877259D-04 0.000000000000D+00 -.454911260880D-05 0.216933199634D-02 0.000000000000D+00  5 -1 2 25 24 21 2 0.39625718D-02 0.21919851D+00 0.36323162D+05 0.36323162D+05 0.36323162D+05 0.12062762D+01  1  2  3  2  5  2        2 -.404958146621D-01 0.100000000000D+01
0.811420862478D-04 0.000000000000D+00 0.000000000000D+00 0.216933199634D-02 0.000000000000D+00  5 -1 2 25 24 21 2 0.39625718D-02 0.21919851D+00 0.36323162D+05 0.36323162D+05 0.36323162D+05 0.12062762D+01  1  2 15  2  5  2        2 0.499317788974D-01 0.100000000000D+01
  </mgrwgt>
  </event>
  <event>
  4     66 0.45252658E-03 0.13015102E+03 0.75467711E-02 0.10701012E+00
       -1 -1    0    0    0  501 0.00000000E+00 0.00000000E+00 0.12769012E+02 0.12773021E+02 0.32000000E+00 0.0000E+00 0.9000E+01
        2 -1    0    0  501    0 0.00000000E+00 0.00000000E+00 -.14751721E+04 0.14751722E+04 0.32000000E+00 0.0000E+00 0.9000E+01
       25  1    1    2    0    0 -.70964962E+02 0.34155324E+02 -.10543895E+04 0.10646900E+04 0.12500000E+03 0.0000E+00 0.9000E+01
       24  1    1    2    0    0 0.70964962E+02 -.34155324E+02 -.40801366E+03 0.42325521E+03 0.80419002E+02 0.0000E+00 0.9000E+01
#aMCatNLO 1  0  0  1  1 0.28149017D+03 0.00000000D+00  -5  5  0 0.00000000D+00 0.00000000D+00 0.00000000D+00 0.00000000D+00 0.00000000D+00
  <mgrwgt>
 0.4531577534D+00    5    2    0
 0.137257056442767D+03 0.000000000000000D+00 0.000000000000000D+00 0.137257056442767D+03
 0.137257056442767D+03 0.000000000000000D+00 0.000000000000000D+00 -.137257056442767D+03
 0.153937044129681D+03 -.709649617392688D+02 0.341553244583569D+02 -.432319508219539D+02
 0.120577068755854D+03 0.709649617392688D+02 -.341553244583569D+02 0.432319508219539D+02
 0.000000000000000D+00 0.000000000000000D+00 0.000000000000000D+00 0.000000000000000D+00
 0.459662304707060D+03 0.000000000000000D+00 0.000000000000000D+00 0.459662304707060D+03
 0.271892803369572D+03 0.000000000000000D+00 0.000000000000000D+00 -.271892803369572D+03
 0.232183606889844D+03 -.162066137972055D+03 -.100746179378320D+03 -.432319508219539D+02
 0.161001733724000D+03 0.452935400784780D+01 -.132532357136524D+03 0.432319508219539D+02
 0.338369767462788D+03 0.157536783964207D+03 0.233278536514843D+03 0.187769501337487D+03
0.327254831825D-03 0.000000000000D+00 0.000000000000D+00 0.230536943681D-02 0.000000000000D+00  5 -1 2 25 24 21 0 0.19647745D-02 0.22694987D+00 0.16939288D+05 0.16939288D+05 0.16939288D+05 0.12418474D+01  1  2  2  1  5  1       -1 0.358205731663D+00 0.100000000000D+01
-.181183548443D-04 0.000000000000D+00 -.125674472239D-05 0.230536943681D-02 0.000000000000D+00  5 -1 2 25 24 21 2 0.19647745D-02 0.22694987D+00 0.16939288D+05 0.16939288D+05 0.16939288D+05 0.12418474D+01  1  2  3  1  5  1       -1 -.305845213954D-01 0.100000000000D+01
0.225441399371D-04 0.000000000000D+00 0.000000000000D+00 0.230536943681D-02 0.000000000000D+00  5 -1 2 25 24 21 2 0.19647745D-02 0.22694987D+00 0.16939288D+05 0.16939288D+05 0.16939288D+05 0.12418474D+01  1  2 15  1  5  1       -1 0.380554270060D-01 0.100000000000D+01
0.306139278492D-03 0.000000000000D+00 -.172559367978D-03 0.230536943681D-02 0.000000000000D+00  5 -1 2 25 24 21 2 0.15131957D-01 0.22694987D+00 0.16939288D+05 0.16939288D+05 0.16939288D+05 0.12418474D+01  1  2  5  1  5  1       -1 0.247209304663D-01 0.100000000000D+01
0.566380866718D-04 0.000000000000D+00 -.428613795685D-04 0.230536943681D-02 0.000000000000D+00  5 21 2 25 24 1 2 0.15131957D-01 0.22694987D+00 0.16939288D+05 0.16939288D+05 0.16939288D+05 0.12418474D+01  1  2  5  3  5  1       -1 0.627601856868D-01 0.100000000000D+01
  </mgrwgt>
  </event>
  <event>
  4     66 0.45252658E-03 0.10382396E+03 0.75467711E-02 0.12592220E+00
       -1 -1    0    0    0  501 0.00000000E+00 0.00000000E+00 0.27820366E+02 0.27822207E+02 0.32000000E+00 0.0000E+00 0.9000E+01
        2 -1    0    0  501    0 0.00000000E+00 0.00000000E+00 -.41003287E+03 0.41003299E+03 0.32000000E+00 0.0000E+00 0.9000E+01
       25  1    1    2    0    0 -.13727719E+02 0.55779440E+01 -.17918878E+03 0.21898215E+03 0.12500000E+03 0.0000E+00 0.9000E+01
       24  1    1    2    0    0 0.13727719E+02 -.55779440E+01 -.20302372E+03 0.21887305E+03 0.80419002E+02 0.0000E+00 0.9000E+01
#aMCatNLO 1  0  0  2  1 0.13399769D+02 0.00000000D+00  -5  5  0 0.00000000D+00 0.00000000D+00 0.00000000D+00 0.00000000D+00 0.00000000D+00
  <mgrwgt>
 0.2141714693D+00    4    2    0
 0.106806810802470D+03 0.000000000000000D+00 0.000000000000000D+00 0.106806810802470D+03
 0.106806810802470D+03 0.000000000000000D+00 0.000000000000000D+00 -.106806810802470D+03
 0.128242204240455D+03 -.137277188541730D+02 0.557794395197356D+01 0.245254811324856D+02
 0.853714173644845D+02 0.137277188541730D+02 -.557794395197356D+01 -.245254811324856D+02
 0.000000000000000D+00 0.000000000000000D+00 -.000000000000000D+00 0.000000000000000D+00
 0.122986995866406D+03 0.000000000000000D+00 0.000000000000000D+00 0.122986995866406D+03
 0.109827497146453D+03 0.000000000000000D+00 0.000000000000000D+00 -.109827497146453D+03
 0.129180810930269D+03 -.172002824151178D+02 0.128581869897087D+02 0.245254811324856D+02
 0.848526751206779D+02 0.114314440616224D+02 -.763794901050499D+00 -.245254811324856D+02
 0.187810069619125D+02 0.576883835349541D+01 -.120943920886582D+02 0.131594987199531D+02
0.218981383234D-03 0.000000000000D+00 0.000000000000D+00 0.296896132217D-02 0.000000000000D+00  5 -1 2 25 24 21 0 0.42802075D-02 0.63082131D-01 0.10779415D+05 0.10779415D+05 0.10779415D+05 0.12645209D+01  1  2  2  2  5  2        2 0.394793452485D+00 0.100000000000D+01
-.121537650657D-04 0.000000000000D+00 -.840946170741D-06 0.296896132217D-02 0.000000000000D+00  5 -1 2 25 24 21 2 0.42802075D-02 0.63082131D-01 0.10779415D+05 0.10779415D+05 0.10779415D+05 0.12645209D+01  1  2  3  2  5  2        2 -.350368930774D-01 0.100000000000D+01
0.149878172442D-04 0.000000000000D+00 0.000000000000D+00 0.296896132217D-02 0.000000000000D+00  5 -1 2 25 24 21 2 0.42802075D-02 0.63082131D-01 0.10779415D+05 0.10779415D+05 0.10779415D+05 0.12645209D+01  1  2 15  2  5  2        2 0.432069031622D-01 0.100000000000D+01
-.654890697050D-04 0.000000000000D+00 0.000000000000D+00 0.296896132217D-02 0.000000000000D+00  5 -1 2 25 24 21 2 0.42802075D-02 0.63082131D-01 0.10779415D+05 0.10779415D+05 0.10779415D+05 0.12645209D+01  1  2  4  2  5  2        2 -.188791993312D+00 0.100000000000D+01
  </mgrwgt>
  </event>
  <event>
  5     66 0.45252658E-03 0.15811315E+03 0.75467711E-02 0.11238034E+00
       -3 -1    0    0    0  501 0.00000000E+00 0.00000000E+00 0.36421960E+03 0.36421994E+03 0.50000000E+00 0.0000E+00 0.9000E+01
       21 -1    0    0  501  502 0.00000000E+00 0.00000000E+00 -.21850910E+03 0.21851039E+03 0.75000000E+00 0.0000E+00 0.9000E+01
       25  1    1    2    0    0 -.14227194E+03 0.85728290E+02 0.22890372E+03 0.30921280E+03 0.12500000E+03 0.0000E+00 0.9000E+01
       24  1    1    2    0    0 0.14660475E+02 -.10299702E+03 -.35678079E+02 0.13624778E+03 0.80419002E+02 0.0000E+00 0.9000E+01
       -4  1    1    2    0  502 0.12761146E+03 0.17268732E+02 -.47515143E+02 0.13726975E+03 0.15500000E+01 0.0000E+00 0.9000E+01
#aMCatNLO 2  0  0  2  1 0.12877459D+03 0.00000000D+00  -5  5  0 0.00000000D+00 0.00000000D+00 0.00000000D+00 0.00000000D+00 0.00000000D+00
  <mgrwgt>
 0.2606949078D-01    2    2    0
 0.190076356913327D+03 0.000000000000000D+00 0.000000000000000D+00 0.190076356913327D+03
 0.190076356913327D+03 0.000000000000000D+00 0.000000000000000D+00 -.190076356913327D+03
 0.202121232186538D+03 -.712260429628824D+02 0.953424141606371D+02 0.105188722620229D+03
 0.178031481640115D+03 0.712260429628824D+02 -.953424141606371D+02 -.105188722620229D+03
 0.000000000000000D+00 0.000000000000000D+00 0.000000000000000D+00 -.000000000000000D+00
 0.228884894043598D+03 0.000000000000000D+00 0.000000000000000D+00 0.228884894043598D+03
 0.347701290022348D+03 0.000000000000000D+00 0.000000000000000D+00 -.347701290022348D+03
 0.232981352428011D+03 -.142271935155820D+03 0.857282898448800D+02 0.105188722620229D+03
 0.168390021291188D+03 0.146604751614956D+02 -.102997021401786D+03 -.105188722620229D+03
 0.175214810346748D+03 0.127611459994325D+03 0.172687315569056D+02 -.118816395978750D+03
-.495073396074D-05 0.000000000000D+00 0.000000000000D+00 0.155899328253D-02 0.000000000000D+00  5 -3 21 25 24 -4 2 0.46532447D-01 0.34163290D-01 0.54791522D+05 0.54791522D+05 0.54791522D+05 0.11883657D+01  1  2 13  4  5  2        4 -.131205719583D-02 0.100000000000D+01
0.145780513781D-03 0.000000000000D+00 0.000000000000D+00 0.155899328253D-02 0.852106292159D-07  5 -3 21 25 24 -4 2 0.56033136D-01 0.33616446D-01 0.54791522D+05 0.54791522D+05 0.54791522D+05 0.11883657D+01  1  2  1  4  5  2        4 0.273815479772D-01 0.100000000000D+01
  </mgrwgt>
  </event>
  <event>
  5     66 0.45252658E-03 0.12166613E+03 0.75467711E-02 0.11756106E+00
       21 -1    0    0  502  501 0.00000000E+00 0.00000000E+00 0.54033835E+02 0.54039040E+02 0.75000000E+00 0.0000E+00 0.9000E+01
        2 -1    0    0  501    0 0.00000000E+00 0.00000000E+00 -.89149409E+03 0.89149415E+03 0.32000000E+00 0.0000E+00 0.9000E+01
       25  1    1    2    0    0 -.10359786E+03 -.51034466E+02 -.49624090E+03 0.52461135E+03 0.12500000E+03 0.0000E+00 0.9000E+01
       24  1    1    2    0    0 0.24561263E+02 0.88397965E+01 -.19242157E+02 0.86711442E+02 0.80419002E+02 0.0000E+00 0.9000E+01
        1  1    1    2  502    0 0.79036593E+02 0.42194669E+02 -.32197719E+03 0.33421040E+03 0.32000000E+00 0.0000E+00 0.9000E+01
#aMCatNLO 2  0  0  1  1 0.89594493D+02 0.00000000D+00  -5  5  0 0.00000000D+00 0.00000000D+00 0.00000000D+00 0.00000000D+00 0.00000000D+00
  <mgrwgt>
 0.1492674534D+00    1    2    0
 0.158086681300155D+03 0.000000000000000D+00 0.000000000000000D+00 0.158086681300155D+03
 0.158086681300155D+03 0.000000000000000D+00 0.000000000000000D+00 -.158086681300155D+03
 0.172568900754560D+03 -.582361842460813D+02 -.268175726431545D+02 -.100221704982617D+03
 0.143604461845751D+03 0.582361842460813D+02 0.268175726431545D+02 0.100221704982617D+03
 0.000000000000000D+00 0.000000000000000D+00 0.000000000000000D+00 -.000000000000000D+00
 0.185284127140595D+03 0.000000000000000D+00 0.000000000000000D+00 0.185284127140595D+03
 0.259996506975717D+03 0.000000000000000D+00 0.000000000000000D+00 -.259996506975717D+03
 0.197500436950841D+03 -.103597855821857D+03 -.510344659545301D+02 -.100221704982617D+03
 0.131122094789378D+03 0.245612629124285D+02 0.883979649696991D+01 0.100221704982617D+03
 0.116658102376093D+03 0.790365929094283D+02 0.421946694575602D+02 -.747123798351219D+02
0.230236098693D-04 0.000000000000D+00 0.000000000000D+00 0.147877057898D-02 0.789705894371D-07  5 21 2 25 24 1 2 0.83132933D-02 0.13715319D+00 0.29640153D+05 0.29640153D+05 0.29640153D+05 0.12154488D+01  1  2  1  3  5  1       -1 0.149267453376D+00 0.100000000000D+01
  </mgrwgt>
  </event>
  <event>
  4     66 0.45252658E-03 0.13277233E+03 0.75467711E-02 0.10205012E+00
       -1 -1    0    0    0  501 0.00000000E+00 0.00000000E+00 0.67013144E+02 0.67013908E+02 0.32000000E+00 0.0000E+00 0.9000E+01
        2 -1    0    0  501    0 0.00000000E+00 0.00000000E+00 -.26463194E+03 0.26463214E+03 0.32000000E+00 0.0000E+00 0.9000E+01
       25  1    1    2    0    0 -.12113091E+02 -.82054802E+02 -.98884194E+02 0.17967415E+03 0.12500000E+03 0.0000E+00 0.9000E+01
       24  1    1    2    0    0 0.12113091E+02 0.82054802E+02 -.98734607E+02 0.15197189E+03 0.80419002E+02 0.0000E+00 0.9000E+01
#aMCatNLO 1  0  0  2  2 0.43795538D+03 0.00000000D+00  -5  5  0 0.00000000D+00 0.00000000D+00 0.00000000D+00 0.00000000D+00 0.00000000D+00
  <mgrwgt>
 0.3561076737D+00    5    2    0
 0.133168980129124D+03 0.000000000000000D+00 0.000000000000000D+00 0.133168980129124D+03
 0.133168980129124D+03 0.000000000000000D+00 0.000000000000000D+00 -.133168980129124D+03
 0.150361016962232D+03 -.121130909257416D+02 -.820548020829668D+02 0.101841988033683D+02
 0.115976943296015D+03 0.121130909257416D+02 0.820548020829668D+02 -.101841988033683D+02
 0.000000000000000D+00 -.000000000000000D+00 -.000000000000000D+00 -.000000000000000D+00
 0.310771432553628D+03 0.000000000000000D+00 0.000000000000000D+00 0.310771432553628D+03
 0.113645040440664D+04 0.000000000000000D+00 0.000000000000000D+00 -.113645040440664D+04
 0.217514388206566D+03 0.177718269860054D+03 0.879179113877484D-01 0.101841988033683D+02
 0.295068117114511D+03 0.224220891734568D+03 0.173836853364356D+03 -.101841988033683D+02
 0.934639331639188D+03 -.401939161594622D+03 -.173924771275744D+03 -.825678971853007D+03
0.432406706879D-03 0.000000000000D+00 0.000000000000D+00 0.256567737571D-02 0.000000000000D+00  5 -1 2 25 24 21 0 0.10309788D-01 0.40712681D-01 0.17628491D+05 0.17628491D+05 0.17628491D+05 0.12399067D+01  1  2  2  2  5  2        2 0.340417035760D+00 0.100000000000D+01
-.240223349227D-04 0.000000000000D+00 -.166055560972D-05 0.256567737571D-02 0.000000000000D+00  5 -1 2 25 24 21 2 0.10309788D-01 0.40712681D-01 0.17628491D+05 0.17628491D+05 0.17628491D+05 0.12399067D+01  1  2  3  2  5  2        2 -.290744900503D-01 0.100000000000D+01
0.297745245267D-04 0.000000000000D+00 0.000000000000D+00 0.256567737571D-02 0.000000000000D+00  5 -1 2 25 24 21 2 0.10309788D-01 0.40712681D-01 0.17628491D+05 0.17628491D+05 0.17628491D+05 0.12399067D+01  1  2 15  2  5  2        2 0.360364269289D-01 0.100000000000D+01
0.506010923460D-03 0.000000000000D+00 -.439477946457D-03 0.256567737571D-02 0.000000000000D+00  5 -1 2 25 24 21 2 0.10309788D-01 0.49435153D+00 0.17628491D+05 0.17628491D+05 0.17628491D+05 0.12399067D+01  1  2  5  2  5  2        2 0.861161676034D-02 0.100000000000D+01
0.628684662837D-04 0.000000000000D+00 -.127508694269D-03 0.256567737571D-02 0.000000000000D+00  5 -1 21 25 24 -2 2 0.10309788D-01 0.49435153D+00 0.17628491D+05 0.17628491D+05 0.17628491D+05 0.12399067D+01  1  2  5  4  5  2        2 0.117084297349D-03 0.100000000000D+01
  </mgrwgt>
  </event>
  <event>
  5     66 0.45252658E-03 0.10645181E+03 0.75467711E-02 0.12082371E+00
       -1 -1    0    0    0  501 0.00000000E+00 0.00000000E+00 0.15627788E+03 0.15627821E+03 0.32000000E+00 0.0000E+00 0.9000E+01
        2 -1    0    0  502    0 0.00000000E+00 0.00000000E+00 -.17583220E+03 0.17583249E+03 0.32000000E+00 0.0000E+00 0.9000E+01
       25  1    1    2    0    0 0.25215979E+02 0.53650146E+01 -.80903363E+02 0.15111248E+03 0.12500000E+03 0.0000E+00 0.9000E+01
       24  1    1    2    0    0 0.60201537E+01 0.51152771E+02 0.66256497E+02 0.11623247E+03 0.80419002E+02 0.0000E+00 0.9000E+01
       21  1    1    2  502  501 -.31236133E+02 -.56517786E+02 -.49074528E+01 0.64765745E+02 0.75000000E+00 0.0000E+00 0.9000E+01
#aMCatNLO 2  0  0  2  1 0.64575198D+02 0.00000000D+00  -5  5  0 0.00000000D+00 0.00000000D+00 0.00000000D+00 0.00000000D+00 0.00000000D+00
  <mgrwgt>
 0.1296449846D+00    1    2    0
 0.129507566711486D+03 0.000000000000000D+00 0.000000000000000D+00 0.129507566711486D+03
 0.129507566711486D+03 0.000000000000000D+00 0.000000000000000D+00 -.129507566711486D+03
 0.147185653556464D+03 0.775049547694148D+01 -.262365437163154D+02 -.727336937500573D+02
 0.111829479866509D+03 -.775049547694148D+01 0.262365437163154D+02 0.727336937500573D+02
 0.000000000000000D+00 -.000000000000000D+00 -.000000000000000D+00 -.000000000000000D+00
 0.165085887924393D+03 0.000000000000000D+00 0.000000000000000D+00 0.165085887924393D+03
 0.166447085807586D+03 0.000000000000000D+00 0.000000000000000D+00 -.166447085807586D+03
 0.146900712071556D+03 0.252159794356410D+02 0.536501460431315D+01 -.727336937500573D+02
 0.120042719167813D+03 0.602015371331960D+01 0.511527713185968D+02 0.727336937500573D+02
 0.645895424926101D+02 -.312361331489606D+02 -.565177859229100D+02 -.136119788319251D+01
0.264240695535D-03 0.000000000000D+00 0.000000000000D+00 0.189508990418D-02 0.398969580263D-05  5 -1 2 25 24 21 2 0.24042483D-01 0.27050800D-01 0.20693550D+05 0.20693550D+05 0.20693550D+05 0.12321995D+01  1  2  1  2  5  2        2 0.129644984584D+00 0.100000000000D+01
  </mgrwgt>
  </event>
  <event>
  4     66 0.45252658E-03 0.47651481E+02 0.75467711E-02 0.12365732E+00
       -1 -1    0    0    0  501 0.00000000E+00 0.00000000E+00 0.26269896E+02 0.26271845E+02 0.32000000E+00 0.0000E+00 0.9000E+01
        2 -1    0    0  501    0 0.00000000E+00 0.00000000E+00 -.42392652E+03 0.42392664E+03 0.32000000E+00 0.0000E+00 0.9000E+01
       25  1    1    2    0    0 0.12921275E+02 0.19614898E+02 -.23302258E+03 0.26547359E+03 0.12500000E+03 0.0000E+00 0.9000E+01
       24  1    1    2    0    0 -.12921275E+02 -.19614898E+02 -.16463404E+03 0.18472490E+03 0.80419002E+02 0.0000E+00 0.9000E+01
#aMCatNLO 1  0  0  2  1 0.34342359D+02 0.00000000D+00  -5  5  0 0.00000000D+00 0.00000000D+00 0.00000000D+00 0.00000000D+00 0.00000000D+00
  <mgrwgt>
 0.3583446184D+00    9    2    0
 0.105531851701810D+03 0.000000000000000D+00 0.000000000000000D+00 0.105531851701810D+03
 0.105531851701810D+03 0.000000000000000D+00 0.000000000000000D+00 -.105531851701810D+03
 0.127226211977762D+03 0.129212748646518D+02 0.196148975892348D+02 0.313136753611918D+01
 0.838374914258582D+02 -.129212748646518D+02 -.196148975892348D+02 -.313136753611918D+01
 0.000000000000000D+00 0.000000000000000D+00 -.000000000000000D+00 -.000000000000000D+00
 0.115476414799331D+03 0.000000000000000D+00 0.000000000000000D+00 0.115476414799331D+03
 0.141377921246518D+03 0.000000000000000D+00 0.000000000000000D+00 -.141377921246518D+03
 0.130963453691080D+03 0.445486979732605D+01 0.386881748747383D+02 0.313136753611918D+01
 0.828759357754902D+02 -.183880444241241D+02 -.729925584582612D+01 -.313136753611918D+01
 0.430149465792779D+02 0.139331746267980D+02 -.313889190289121D+02 -.259015064471873D+02
0.135377573438D-03 0.000000000000D+00 0.000000000000D+00 0.314310117201D-02 0.000000000000D+00  5 -1 2 25 24 21 0 0.40416817D-02 0.65219624D-01 0.11126733D+05 0.11126733D+05 0.11126733D+05 0.12628881D+01  1  2  2  2  5  2        2 0.256529661541D+00 0.100000000000D+01
-.752097436819D-05 0.000000000000D+00 -.519885527735D-06 0.314310117201D-02 0.000000000000D+00  5 -1 2 25 24 21 2 0.40416817D-02 0.65219624D-01 0.11126733D+05 0.11126733D+05 0.11126733D+05 0.12628881D+01  1  2  3  2  5  2        2 -.227297528718D-01 0.100000000000D+01
0.936538357900D-05 0.000000000000D+00 0.000000000000D+00 0.314310117201D-02 0.000000000000D+00  5 -1 2 25 24 21 2 0.40416817D-02 0.65219624D-01 0.11126733D+05 0.11126733D+05 0.11126733D+05 0.12628881D+01  1  2 15  2  5  2        2 0.283038930702D-01 0.100000000000D+01
0.146478106369D-03 0.000000000000D+00 0.000000000000D+00 0.314310117201D-02 0.000000000000D+00  5 -1 2 25 24 21 2 0.40416817D-02 0.89646229D-01 0.15386558D+05 0.15386558D+05 0.15386558D+05 0.12465648D+01  1  2 12  2  5  2        2 0.308994839053D+00 0.100000000000D+01
-.160087614771D-03 0.000000000000D+00 0.000000000000D+00 0.314310117201D-02 0.000000000000D+00  5 -1 2 25 24 21 2 0.40416817D-02 0.65219624D-01 0.11126733D+05 0.11126733D+05 0.11126733D+05 0.12628881D+01  1  2  4  2  5  2        2 -.483813897435D+00 0.100000000000D+01
-.244244315199D-03 0.000000000000D+00 -.711755950135D-04 0.314310117201D-02 0.000000000000D+00  5 -1 2 25 24 21 2 0.40416817D-02 0.93324644D-01 0.11126733D+05 0.11126733D+05 0.11126733D+05 0.12628881D+01  1  2  5  2  5  2        2 -.499138130268D+00 0.100000000000D+01
0.257384139970D-03 0.000000000000D+00 0.668385851827D-04 0.314310117201D-02 0.000000000000D+00  5 -1 2 25 24 21 2 0.40416817D-02 0.65219624D-01 0.11126733D+05 0.11126733D+05 0.11126733D+05 0.12628881D+01  1  2  6  2  5  2        2 0.777861698266D+00 0.100000000000D+01
0.590672077138D-05 0.000000000000D+00 0.000000000000D+00 0.314310117201D-02 0.000000000000D+00  5 -1 21 25 24 -2 2 0.40416817D-02 0.89646229D-01 0.15386558D+05 0.15386558D+05 0.15386558D+05 0.12465648D+01  1  2 12  4  5  2        2 0.207625640412D-01 0.100000000000D+01
-.864902110064D-05 0.000000000000D+00 -.312732296150D-05 0.314310117201D-02 0.000000000000D+00  5 -1 21 25 24 -2 2 0.40416817D-02 0.93324644D-01 0.11126733D+05 0.11126733D+05 0.11126733D+05 0.12628881D+01  1  2  5  4  5  2        2 -.284262569628D-01 0.100000000000D+01
  </mgrwgt>
  </event>
  <event>
  4     66 -.45252658E-03 0.46296004E+02 0.75467711E-02 0.12711078E+00
       -1 -1    0    0    0  501 0.00000000E+00 0.00000000E+00 0.41836473E+03 0.41836485E+03 0.32000000E+00 0.0000E+00 0.9000E+01
        2 -1    0    0  501    0 0.00000000E+00 0.00000000E+00 -.25357810E+02 0.25359829E+02 0.32000000E+00 0.0000E+00 0.9000E+01
       25  1    1    2    0    0 0.57900320E+01 -.16675557E-01 0.22841994E+03 0.26044998E+03 0.12500000E+03 0.0000E+00 0.9000E+01
       24  1    1    2    0    0 -.57900320E+01 0.16675557E-01 0.16458698E+03 0.18327470E+03 0.80419002E+02 0.0000E+00 0.9000E+01
#aMCatNLO 1  0  0  2  1 0.32138532D+01 0.00000000D+00  -5  5  0 0.00000000D+00 0.00000000D+00 0.00000000D+00 0.00000000D+00 0.00000000D+00
  <mgrwgt>
 -.8197700238D-01   11    2    0
 0.103001399251387D+03 0.000000000000000D+00 0.000000000000000D+00 0.103001399251387D+03
 0.103001399251387D+03 0.000000000000000D+00 0.000000000000000D+00 -.103001399251387D+03
 0.125228728472612D+03 0.579003204783931D+01 -.166755569931167D-01 -.486925925351349D+01
 0.807740700301629D+02 -.579003204783931D+01 0.166755569931167D-01 0.486925925351349D+01
 0.000000000000000D+00 -.000000000000000D+00 0.000000000000000D+00 -.000000000000000D+00
 0.104551145181509D+03 0.000000000000000D+00 0.000000000000000D+00 0.104551145181509D+03
 0.104693736386789D+03 0.000000000000000D+00 0.000000000000000D+00 -.104693736386789D+03
 0.125320359746238D+03 0.743975826826116D+01 -.106436749214249D+01 -.486925925351349D+01
 0.807075069213431D+02 -.472676578929570D+01 -.658573141974479D+00 0.486925925351349D+01
 0.321701490071741D+01 -.271299247896546D+01 0.172294063411697D+01 -.142591205280521D+00
0.135671453080D-03 0.000000000000D+00 0.000000000000D+00 0.322693615036D-02 0.000000000000D+00  5 -1 2 25 24 21 0 0.64363969D-01 0.39013662D-02 0.10584418D+05 0.10584418D+05 0.10584418D+05 0.12654638D+01  1  2  2  2  5  2        2 0.800724130191D-01 0.100000000000D+01
-.753729032898D-05 0.000000000000D+00 -.521014102940D-06 0.322693615036D-02 0.000000000000D+00  5 -1 2 25 24 21 2 0.64363969D-01 0.39013662D-02 0.10584418D+05 0.10584418D+05 0.10584418D+05 0.12654638D+01  1  2  3  2  5  2        2 -.712375717326D-02 0.100000000000D+01
0.937652931050D-05 0.000000000000D+00 0.000000000000D+00 0.322693615036D-02 0.000000000000D+00  5 -1 2 25 24 21 2 0.64363969D-01 0.39013662D-02 0.10584418D+05 0.10584418D+05 0.10584418D+05 0.12654638D+01  1  2 15  2  5  2        2 0.886208637595D-02 0.100000000000D+01
0.390858127198D-05 0.000000000000D+00 0.000000000000D+00 0.322693615036D-02 0.000000000000D+00  5 -1 2 25 24 21 2 0.64363969D-01 0.39943572D-02 0.10920257D+05 0.10920257D+05 0.10920257D+05 0.12638517D+01  1  2 12  2  5  2        2 0.357681984551D-02 0.100000000000D+01
-.730772442722D-03 0.000000000000D+00 0.000000000000D+00 0.322693615036D-02 0.000000000000D+00  5 -1 2 25 24 21 2 0.64363969D-01 0.39013662D-02 0.10584418D+05 0.10584418D+05 0.10584418D+05 0.12654638D+01  1  2  4  2  5  2        2 -.690678639623D+00 0.100000000000D+01
-.509414137560D-02 0.000000000000D+00 -.699504407504D-03 0.322693615036D-02 0.000000000000D+00  5 -1 2 25 24 21 2 0.64363969D-01 0.40251173D-02 0.10584418D+05 0.10584418D+05 0.10584418D+05 0.12654638D+01  1  2  5  2  5  2        2 -.462109862528D+01 0.100000000000D+01
0.511383234096D-02 0.000000000000D+00 0.699163488109D-03 0.322693615036D-02 0.000000000000D+00  5 -1 2 25 24 21 2 0.64363969D-01 0.39013662D-02 0.10584418D+05 0.10584418D+05 0.10584418D+05 0.12654638D+01  1  2  6  2  5  2        2 0.483326211832D+01 0.100000000000D+01
0.727885289317D-03 0.000000000000D+00 0.000000000000D+00 0.322693615036D-02 0.266216759084D-02  5 -1 2 25 24 21 2 0.65332381D-01 0.39654666D-02 0.10920257D+05 0.10920257D+05 0.10920257D+05 0.12638517D+01  1  2 11  2  5  2        2 0.653455945712D+00 0.100000000000D+01
0.101225255186D-06 0.000000000000D+00 0.000000000000D+00 0.322693615036D-02 0.000000000000D+00  5 -1 21 25 24 -2 2 0.64363969D-01 0.39943572D-02 0.10920257D+05 0.10920257D+05 0.10920257D+05 0.12638517D+01  1  2 12  4  5  2        2 0.145703177748D-02 0.100000000000D+01
-.282318516156D-04 0.000000000000D+00 -.391043889664D-05 0.322693615036D-02 0.000000000000D+00  5 -1 21 25 24 -2 2 0.64363969D-01 0.40251173D-02 0.10584418D+05 0.10584418D+05 0.10584418D+05 0.12654638D+01  1  2  5  4  5  2        2 -.401924559981D+00 0.100000000000D+01
0.410884925564D-05 0.000000000000D+00 0.000000000000D+00 0.322693615036D-02 0.800536340562D-05  5 -1 21 25 24 -2 2 0.65332381D-01 0.39654666D-02 0.10920257D+05 0.10920257D+05 0.10920257D+05 0.12638517D+01  1  2 11  4  5  2        2 0.581621646275D-01 0.100000000000D+01
  </mgrwgt>
  </event>
  <event>
  4     66 0.45252658E-03 0.34501848E+02 0.75467711E-02 0.12651803E+00
       -1 -1    0    0    0  501 0.00000000E+00 0.00000000E+00 0.35433147E+02 0.35434592E+02 0.32000000E+00 0.0000E+00 0.9000E+01
        2 -1    0    0  501    0 0.00000000E+00 0.00000000E+00 -.33535838E+03 0.33535853E+03 0.32000000E+00 0.0000E+00 0.9000E+01
       25  1    1    2    0    0 -.26942456E+02 0.12400759E+02 -.14490797E+03 0.19365690E+03 0.12500000E+03 0.0000E+00 0.9000E+01
       24  1    1    2    0    0 0.26942456E+02 -.12400759E+02 -.15501726E+03 0.17713623E+03 0.80419002E+02 0.0000E+00 0.9000E+01
#aMCatNLO 1  0  0  2  1 0.90843501D+00 0.00000000D+00  -5  5  0 0.00000000D+00 0.00000000D+00 0.00000000D+00 0.00000000D+00 0.00000000D+00
  <mgrwgt>
 0.3333233656D+00   11    2    0
 0.109009628010700D+03 0.000000000000000D+00 0.000000000000000D+00 0.109009628010700D+03
 0.109009628010700D+03 0.000000000000000D+00 0.000000000000000D+00 -.109009628010700D+03
 0.130011864723063D+03 -.269424557428560D+02 0.124007589739545D+02 0.199602160354597D+02
 0.880073912983371D+02 0.269424557428560D+02 -.124007589739545D+02 -.199602160354597D+02
 0.000000000000000D+00 -.000000000000000D+00 -.000000000000000D+00 -.000000000000000D+00
 0.109131995056152D+03 0.000000000000000D+00 0.000000000000000D+00 0.109131995056152D+03
 0.110709736576234D+03 0.000000000000000D+00 0.000000000000000D+00 -.110709736576234D+03
 0.130023327726319D+03 -.267578924061892D+02 0.129101015806341D+02 0.199602160354597D+02
 0.879978209044652D+02 0.270673777156432D+02 -.120560096624164D+02 -.199602160354597D+02
 0.182058300160250D+01 -.309485309454009D+00 -.854091918217705D+00 -.157774152008221D+01
0.108752521313D-03 0.000000000000D+00 0.000000000000D+00 0.295405858541D-02 0.000000000000D+00  5 -1 2 25 24 21 0 0.54513763D-02 0.51593720D-01 0.11468753D+05 0.11468753D+05 0.11468753D+05 0.12613354D+01  1  2  2  2  5  2        2 0.170458561155D+00 0.100000000000D+01
-.603949348450D-05 0.000000000000D+00 -.417638317039D-06 0.295405858541D-02 0.000000000000D+00  5 -1 2 25 24 21 2 0.54513763D-02 0.51593720D-01 0.11468753D+05 0.11468753D+05 0.11468753D+05 0.12613354D+01  1  2  3  2  5  2        2 -.150605612198D-01 0.100000000000D+01
0.750328253664D-05 0.000000000000D+00 0.000000000000D+00 0.295405858541D-02 0.000000000000D+00  5 -1 2 25 24 21 2 0.54513763D-02 0.51593720D-01 0.11468753D+05 0.11468753D+05 0.11468753D+05 0.12613354D+01  1  2 15  2  5  2        2 0.187107820022D-01 0.100000000000D+01
0.119135337948D-08 0.000000000000D+00 0.000000000000D+00 0.295405858541D-02 0.000000000000D+00  5 -1 2 25 24 21 2 0.54513763D-02 0.52427084D-01 0.11566436D+05 0.11566436D+05 0.11566436D+05 0.12609015D+01  1  2 12  2  5  2        2 0.292029490446D-05 0.100000000000D+01
-.795802382682D-02 0.000000000000D+00 0.000000000000D+00 0.295405858541D-02 0.000000000000D+00  5 -1 2 25 24 21 2 0.54513763D-02 0.51593720D-01 0.11468753D+05 0.11468753D+05 0.11468753D+05 0.12613354D+01  1  2  4  2  5  2        2 -.198447610449D+02 0.100000000000D+01
-.152576074905D-01 0.000000000000D+00 -.102280316640D-02 0.295405858541D-02 0.000000000000D+00  5 -1 2 25 24 21 2 0.54513763D-02 0.52434877D-01 0.11468753D+05 0.11468753D+05 0.11468753D+05 0.12613354D+01  1  2  5  2  5  2        2 -.374055037809D+02 0.100000000000D+01
0.152722848524D-01 0.000000000000D+00 0.102266943215D-02 0.295405858541D-02 0.000000000000D+00  5 -1 2 25 24 21 2 0.54513763D-02 0.51593720D-01 0.11468753D+05 0.11468753D+05 0.11468753D+05 0.12613354D+01  1  2  6  2  5  2        2 0.380841839760D+02 0.100000000000D+01
0.795898111050D-02 0.000000000000D+00 0.000000000000D+00 0.295405858541D-02 0.303560117496D-01  5 -1 2 25 24 21 2 0.54574956D-02 0.52398373D-01 0.11566436D+05 0.11566436D+05 0.11566436D+05 0.12609015D+01  1  2 11  2  5  2        2 0.194883669122D+02 0.100000000000D+01
0.935101788029D-10 0.000000000000D+00 0.000000000000D+00 0.295405858541D-02 0.000000000000D+00  5 -1 21 25 24 -2 2 0.54513763D-02 0.52427084D-01 0.11566436D+05 0.11566436D+05 0.11566436D+05 0.12609015D+01  1  2 12  4  5  2        2 0.691133368271D-06 0.100000000000D+01
-.450644042712D-04 0.000000000000D+00 -.302750956703D-05 0.295405858541D-02 0.000000000000D+00  5 -1 21 25 24 -2 2 0.54513763D-02 0.52434877D-01 0.11468753D+05 0.11468753D+05 0.11468753D+05 0.12613354D+01  1  2  5  4  5  2        2 -.333148082391D+00 0.100000000000D+01
0.230228592779D-04 0.000000000000D+00 0.000000000000D+00 0.295405858541D-02 0.861294264660D-04  5 -1 21 25 24 -2 2 0.54574956D-02 0.52398373D-01 0.11566436D+05 0.11566436D+05 0.11566436D+05 0.12609015D+01  1  2 11  4  5  2        2 0.170072992238D+00 0.100000000000D+01
  </mgrwgt>
  </event>
  <event>
  4     66 0.45252658E-03 0.19173591E+03 0.75467711E-02 0.97326531E-01
       -3 -1    0    0    0  501 0.00000000E+00 0.00000000E+00 0.93946600E+03 0.93946613E+03 0.50000000E+00 0.0000E+00 0.9000E+01
        4 -1    0    0  501    0 0.00000000E+00 0.00000000E+00 -.64796209E+02 0.64814745E+02 0.15500000E+01 0.0000E+00 0.9000E+01
       25  1    1    2    0    0 -.14943234E+03 0.59406267E+02 0.13809032E+03 0.24607532E+03 0.12500000E+03 0.0000E+00 0.9000E+01
       24  1    1    2    0    0 0.14943234E+03 -.59406267E+02 0.73657948E+03 0.75820556E+03 0.80419002E+02 0.0000E+00 0.9000E+01
#aMCatNLO 1  0  0  1  1 0.63857235D+03 0.00000000D+00  -5  5  0 0.00000000D+00 0.00000000D+00 0.00000000D+00 0.00000000D+00 0.00000000D+00
  <mgrwgt>
 0.4950826762D-01    5    2    0
 0.246745231878878D+03 0.000000000000000D+00 0.000000000000000D+00 0.246745231878878D+03
 0.246745231878878D+03 0.000000000000000D+00 0.000000000000000D+00 -.246745231878878D+03
 0.256023814463733D+03 -.149432337968422D+03 0.594062667925387D+02 -.155125966258473D+03
 0.237466649294023D+03 0.149432337968422D+03 -.594062667925387D+02 0.155125966258473D+03
 0.000000000000000D+00 -.000000000000000D+00 -.000000000000000D+00 0.000000000000000D+00
 0.770745369866565D+03 0.000000000000000D+00 0.000000000000000D+00 0.770745369866565D+03
 0.681121859102202D+03 0.000000000000000D+00 0.000000000000000D+00 -.681121859102202D+03
 0.459138550236780D+03 -.856097857095976D+02 0.404709905360202D+03 -.155125966258473D+03
 0.347897681428855D+03 0.201671448178950D+03 0.223226661425069D+03 0.155125966258473D+03
 0.644830997303133D+03 -.116061662469353D+03 -.627936566785271D+03 0.896235107643626D+02
0.808194756855D-02 0.000000000000D+00 0.000000000000D+00 0.127538362385D-02 0.000000000000D+00  5 -3 4 25 24 21 0 0.14453467D+00 0.99700836D-02 0.36762658D+05 0.36762658D+05 0.36762658D+05 0.12057403D+01  1  2  2  1  5  1       -3 0.481978241558D-01 0.100000000000D+01
-.414263946907D-03 0.000000000000D+00 -.310368066889D-04 0.127538362385D-02 0.000000000000D+00  5 -3 4 25 24 21 2 0.14453467D+00 0.99700836D-02 0.36762658D+05 0.36762658D+05 0.36762658D+05 0.12057403D+01  1  2  3  1  5  1       -3 -.359166701572D-02 0.100000000000D+01
0.551265162875D-03 0.000000000000D+00 0.000000000000D+00 0.127538362385D-02 0.000000000000D+00  5 -3 4 25 24 21 2 0.14453467D+00 0.99700836D-02 0.36762658D+05 0.36762658D+05 0.36762658D+05 0.12057403D+01  1  2 15  1  5  1       -3 0.477946709386D-02 0.100000000000D+01
0.407692418552D-02 0.000000000000D+00 -.244563430011D-02 0.127538362385D-02 0.000000000000D+00  5 -3 4 25 24 21 2 0.64249297D+00 0.99700836D-02 0.36762658D+05 0.36762658D+05 0.36762658D+05 0.12057403D+01  1  2  5  1  5  1       -3 0.704388131484D-04 0.100000000000D+01
0.718540172746D-03 0.000000000000D+00 -.440641058376D-03 0.127538362385D-02 0.000000000000D+00  5 21 4 25 24 3 2 0.64249297D+00 0.99700836D-02 0.36762658D+05 0.36762658D+05 0.36762658D+05 0.12057403D+01  1  2  5  3  5  1       -3 0.522045745285D-04 0.100000000000D+01
  </mgrwgt>
  </event>
  <event>
  5     66 0.45252658E-03 0.11221821E+03 0.75467711E-02 0.11065230E+00
       21 -1    0    0  502  501 0.00000000E+00 0.00000000E+00 0.54055895E+02 0.54061097E+02 0.75000000E+00 0.0000E+00 0.9000E+01
        2 -1    0    0  501    0 0.00000000E+00 0.00000000E+00 -.18602421E+04 0.18602421E+04 0.32000000E+00 0.0000E+00 0.9000E+01
       25  1    1    2    0    0 -.47872455E+02 -.67420358E+02 -.50437496E+03 0.52617144E+03 0.12500000E+03 0.0000E+00 0.9000E+01
       24  1    1    2    0    0 -.76701065E+01 -.13772228E+03 -.10339165E+04 0.10461725E+04 0.80419002E+02 0.0000E+00 0.9000E+01
        1  1    1    2  502    0 0.55542561E+02 0.20514264E+03 -.26789465E+03 0.34195924E+03 0.32000000E+00 0.0000E+00 0.9000E+01
#aMCatNLO 2  0  0  1  1 0.21252877D+03 0.00000000D+00  -5  5  0 0.00000000D+00 0.00000000D+00 0.00000000D+00 0.00000000D+00 0.00000000D+00
  <mgrwgt>
 0.1231258930D+00    1    2    0
 0.123243867656421D+03 0.000000000000000D+00 0.000000000000000D+00 0.123243867656421D+03
 0.123243867656421D+03 0.000000000000000D+00 0.000000000000000D+00 -.123243867656421D+03
 0.141820418806129D+03 -.187494090988203D+02 0.401436123398928D+02 0.502491914073788D+02
 0.104667316506713D+03 0.187494090988203D+02 -.401436123398928D+02 -.502491914073788D+02
 0.000000000000000D+00 0.000000000000000D+00 0.000000000000000D+00 0.000000000000000D+00
 0.516671458612755D+03 0.000000000000000D+00 0.000000000000000D+00 0.516671458612755D+03
 0.194634312924356D+03 0.000000000000000D+00 0.000000000000000D+00 -.194634312924356D+03
 0.158073583607810D+03 -.478724545179794D+02 -.674203581712820D+02 0.502491914073788D+02
 0.167387139196385D+03 -.767010648385510D+01 -.137722280853210D+03 -.502491914073788D+02
 0.385845048732916D+03 0.555425610018345D+02 0.205142639024492D+03 0.322037145688398D+03
0.709916198202D-04 0.000000000000D+00 0.000000000000D+00 0.232989875833D-02 0.266625882670D-06  5 21 2 25 24 1 2 0.83166913D-02 0.28619140D+00 0.68139201D+05 0.68139201D+05 0.68139201D+05 0.11791937D+01  1  2  1  3  5  1       -1 0.123125893022D+00 0.100000000000D+01
  </mgrwgt>
  </event>
  <event>
  4     66 0.45252658E-03 0.10573247E+03 0.75467711E-02 0.11322936E+00
       -1 -1    0    0    0  501 0.00000000E+00 0.00000000E+00 0.74625145E+02 0.74625831E+02 0.32000000E+00 0.0000E+00 0.9000E+01
        2 -1    0    0  501    0 0.00000000E+00 0.00000000E+00 -.18256969E+03 0.18256997E+03 0.32000000E+00 0.0000E+00 0.9000E+01
       25  1    1    2    0    0 -.22177589E+02 0.10500579E+02 -.11657400E+03 0.17267486E+03 0.12500000E+03 0.0000E+00 0.9000E+01
       24  1    1    2    0    0 0.22177589E+02 -.10500579E+02 0.86294541E+01 0.84520950E+02 0.80419002E+02 0.0000E+00 0.9000E+01
#aMCatNLO 1  0  0  1  2 0.17196491D+03 0.00000000D+00  -5  5  0 0.00000000D+00 0.00000000D+00 0.00000000D+00 0.00000000D+00 0.00000000D+00
  <mgrwgt>
 0.3612303837D+00    5    2    0
 0.116723666047887D+03 0.000000000000000D+00 0.000000000000000D+00 0.116723666047887D+03
 0.116723666047887D+03 0.000000000000000D+00 0.000000000000000D+00 -.116723666047887D+03
 0.136337906149531D+03 -.221775889931551D+02 0.105005785860594D+02 -.485892688671795D+02
 0.971094259462433D+02 0.221775889931551D+02 -.105005785860594D+02 0.485892688671795D+02
 0.000000000000000D+00 -.000000000000000D+00 -.000000000000000D+00 0.000000000000000D+00
 0.305819298029032D+03 0.000000000000000D+00 0.000000000000000D+00 0.305819298029032D+03
 0.190937031415565D+03 0.000000000000000D+00 0.000000000000000D+00 -.190937031415565D+03
 0.174458343741878D+03 -.643009582267315D+01 0.111393224748292D+03 -.485892688671795D+02
 0.115489217515904D+03 0.329495841093884D+02 0.585145389286837D+02 0.485892688671795D+02
 0.206808768186815D+03 -.265194882867153D+02 -.169907763676976D+03 0.114882266613466D+03
0.328037571152D-03 0.000000000000D+00 0.000000000000D+00 0.242609762303D-02 0.000000000000D+00  5 -1 2 25 24 21 0 0.11480866D-01 0.28087720D-01 0.11179355D+05 0.11179355D+05 0.11179355D+05 0.12626457D+01  1  2  2  1  5  1       -1 0.320358745331D+00 0.100000000000D+01
-.180075882644D-04 0.000000000000D+00 -.125975064750D-05 0.242609762303D-02 0.000000000000D+00  5 -1 2 25 24 21 2 0.11480866D-01 0.28087720D-01 0.11179355D+05 0.11179355D+05 0.11179355D+05 0.12626457D+01  1  2  3  1  5  1       -1 -.280370025776D-01 0.100000000000D+01
0.223418630421D-04 0.000000000000D+00 0.000000000000D+00 0.242609762303D-02 0.000000000000D+00  5 -1 2 25 24 21 2 0.11480866D-01 0.28087720D-01 0.11179355D+05 0.11179355D+05 0.11179355D+05 0.12626457D+01  1  2 15  1  5  1       -1 0.347852728806D-01 0.100000000000D+01
0.777127479899D-04 0.000000000000D+00 -.109888412420D-03 0.242609762303D-02 0.000000000000D+00  5 -1 2 25 24 21 2 0.47470240D-01 0.28087720D-01 0.11179355D+05 0.11179355D+05 0.11179355D+05 0.12626457D+01  1  2  5  1  5  1       -1 0.119046124319D-01 0.100000000000D+01
0.138925674085D-04 0.000000000000D+00 -.186914422882D-04 0.242609762303D-02 0.000000000000D+00  5 21 2 25 24 1 2 0.47470240D-01 0.28087720D-01 0.11179355D+05 0.11179355D+05 0.11179355D+05 0.12626457D+01  1  2  5  3  5  1       -1 0.222187556426D-01 0.100000000000D+01
  </mgrwgt>
  </event>
  <event>
  4     66 0.45252658E-03 0.10955773E+03 0.75467711E-02 0.10800352E+00
       -1 -1    0    0    0  501 0.00000000E+00 0.00000000E+00 0.12520884E+02 0.12524973E+02 0.32000000E+00 0.0000E+00 0.9000E+01
        2 -1    0    0  501    0 0.00000000E+00 0.00000000E+00 -.96179085E+03 0.96179090E+03 0.32000000E+00 0.0000E+00 0.9000E+01
       25  1    1    2    0    0 0.17291038E+02 0.33083212E+02 -.59295898E+03 0.60713988E+03 0.12500000E+03 0.0000E+00 0.9000E+01
       24  1    1    2    0    0 -.17291038E+02 -.33083212E+02 -.35631098E+03 0.36717599E+03 0.80419002E+02 0.0000E+00 0.9000E+01
#aMCatNLO 1  0  0  1  2 0.27202435D+03 0.00000000D+00  -5  5  0 0.00000000D+00 0.00000000D+00 0.00000000D+00 0.00000000D+00 0.00000000D+00
  <mgrwgt>
 0.4388242864D+00    5    2    0
 0.109747388741336D+03 0.000000000000000D+00 0.000000000000000D+00 0.109747388741336D+03
 0.109747388741336D+03 0.000000000000000D+00 0.000000000000000D+00 -.109747388741336D+03
 0.130608440996559D+03 0.172910383230271D+02 0.330832122070534D+02 -.633134451174686D+01
 0.888863364861118D+02 -.172910383230271D+02 -.330832122070534D+02 0.633134451174686D+01
 0.000000000000000D+00 0.000000000000000D+00 -.000000000000000D+00 0.000000000000000D+00
 0.613759446665173D+03 0.000000000000000D+00 0.000000000000000D+00 0.613759446665173D+03
 0.216908320606733D+03 0.000000000000000D+00 0.000000000000000D+00 -.216908320606733D+03
 0.236545283952466D+03 -.549045570927245D+02 0.193064950333503D+03 -.633134451174686D+01
 0.112990417053449D+03 -.569872511951995D+02 0.548815603771493D+02 0.633134451174686D+01
 0.481132066265990D+03 0.111891808287924D+03 -.247946510710653D+03 0.396851126058440D+03
0.177869161545D-03 0.000000000000D+00 0.000000000000D+00 0.301016085924D-02 0.000000000000D+00  5 -1 2 25 24 21 0 0.19266085D-02 0.14796814D+00 0.12002895D+05 0.12002895D+05 0.12002895D+05 0.12590118D+01  1  2  2  1  5  1       -1 0.380483359378D+00 0.100000000000D+01
-.988158414106D-05 0.000000000000D+00 -.683064414358D-06 0.301016085924D-02 0.000000000000D+00  5 -1 2 25 24 21 2 0.19266085D-02 0.14796814D+00 0.12002895D+05 0.12002895D+05 0.12002895D+05 0.12590118D+01  1  2  3  1  5  1       -1 -.335058933977D-01 0.100000000000D+01
0.122717840039D-04 0.000000000000D+00 0.000000000000D+00 0.301016085924D-02 0.000000000000D+00  5 -1 2 25 24 21 2 0.19266085D-02 0.14796814D+00 0.12002895D+05 0.12002895D+05 0.12002895D+05 0.12590118D+01  1  2 15  1  5  1       -1 0.416104422898D-01 0.100000000000D+01
0.192034762433D-03 0.000000000000D+00 -.132626774839D-03 0.301016085924D-02 0.000000000000D+00  5 -1 2 25 24 21 2 0.22226558D-01 0.14796814D+00 0.12002895D+05 0.12002895D+05 0.12002895D+05 0.12590118D+01  1  2  5  1  5  1       -1 0.166975946404D-01 0.100000000000D+01
0.306655490010D-04 0.000000000000D+00 -.379467134949D-04 0.301016085924D-02 0.000000000000D+00  5 21 2 25 24 1 2 0.22226558D-01 0.14796814D+00 0.12002895D+05 0.12002895D+05 0.12002895D+05 0.12590118D+01  1  2  5  3  5  1       -1 0.335387834483D-01 0.100000000000D+01
  </mgrwgt>
  </event>
  <event>
  4     66 0.45252658E-03 0.75782246E+02 0.75467711E-02 0.12300913E+00
       -1 -1    0    0    0  501 0.00000000E+00 0.00000000E+00 0.31153005E+02 0.31154648E+02 0.32000000E+00 0.0000E+00 0.9000E+01
        2 -1    0    0  501    0 0.00000000E+00 0.00000000E+00 -.52655374E+03 0.52655384E+03 0.32000000E+00 0.0000E+00 0.9000E+01
       25  1    1    2    0    0 0.52209801E+02 -.54034677E+02 -.29459134E+03 0.32871669E+03 0.12500000E+03 0.0000E+00 0.9000E+01
       24  1    1    2    0    0 -.52209801E+02 0.54034677E+02 -.20080940E+03 0.22899179E+03 0.80419002E+02 0.0000E+00 0.9000E+01
#aMCatNLO 1  0  0  2  1 0.57603794D+00 0.00000000D+00  -5  5  0 0.00000000D+00 0.00000000D+00 0.00000000D+00 0.00000000D+00 0.00000000D+00
  <mgrwgt>
 0.5049006899D+00   11    2    0
 0.128078946226388D+03 0.000000000000000D+00 0.000000000000000D+00 0.128078946226388D+03
 0.128078946226388D+03 0.000000000000000D+00 0.000000000000000D+00 -.128078946226388D+03
 0.145954218305537D+03 0.522098011881046D+02 -.540346767816933D+02 -.565899338901308D+01
 0.110203674147239D+03 -.522098011881046D+02 0.540346767816933D+02 0.565899338901308D+01
 0.000000000000000D+00 -.000000000000000D+00 -.000000000000000D+00 -.000000000000000D+00
 0.128117153085826D+03 0.000000000000000D+00 0.000000000000000D+00 0.128117153085826D+03
 0.130269035645333D+03 0.000000000000000D+00 0.000000000000000D+00 -.130269035645333D+03
 0.146006980593756D+03 0.525049738453332D+02 -.538910187084017D+02 -.565899338901308D+01
 0.110151559544093D+03 -.519870221335312D+02 0.541431014916588D+02 0.565899338901308D+01
 0.222764859331110D+01 -.517951711801959D+00 -.252082783257025D+00 -.215188255950638D+01
0.187544073267D-03 0.000000000000D+00 0.000000000000D+00 0.264372013654D-02 0.000000000000D+00  5 -1 2 25 24 21 0 0.47929038D-02 0.81008401D-01 0.16371555D+05 0.16371555D+05 0.16371555D+05 0.12435138D+01  1  2  2  2  5  2        2 0.222375399850D+00 0.100000000000D+01
-.104191026014D-04 0.000000000000D+00 -.720218622835D-06 0.264372013654D-02 0.000000000000D+00  5 -1 2 25 24 21 2 0.47929038D-02 0.81008401D-01 0.16371555D+05 0.16371555D+05 0.16371555D+05 0.12435138D+01  1  2  3  2  5  2        2 -.191035867979D-01 0.100000000000D+01
0.129605996492D-04 0.000000000000D+00 0.000000000000D+00 0.264372013654D-02 0.000000000000D+00  5 -1 2 25 24 21 2 0.47929038D-02 0.81008401D-01 0.16371555D+05 0.16371555D+05 0.16371555D+05 0.12435138D+01  1  2 15  2  5  2        2 0.237634611946D-01 0.100000000000D+01
0.816671438929D-11 0.000000000000D+00 0.000000000000D+00 0.264372013654D-02 0.000000000000D+00  5 -1 2 25 24 21 2 0.47929038D-02 0.82405582D-01 0.16445422D+05 0.16445422D+05 0.16445422D+05 0.12432933D+01  1  2 12  2  5  2        2 0.146902001471D-07 0.100000000000D+01
-.474850406482D-01 0.000000000000D+00 0.000000000000D+00 0.264372013654D-02 0.000000000000D+00  5 -1 2 25 24 21 2 0.47929038D-02 0.81008401D-01 0.16371555D+05 0.16371555D+05 0.16371555D+05 0.12435138D+01  1  2  4  2  5  2        2 -.870645611551D+02 0.100000000000D+01
-.588164525244D-01 0.000000000000D+00 -.161732390804D-02 0.264372013654D-02 0.000000000000D+00  5 -1 2 25 24 21 2 0.47929038D-02 0.82405399D-01 0.16371555D+05 0.16371555D+05 0.16371555D+05 0.12435138D+01  1  2  5  2  5  2        2 -.105818850538D+03 0.100000000000D+01
0.588357416796D-01 0.000000000000D+00 0.161708752907D-02 0.264372013654D-02 0.000000000000D+00  5 -1 2 25 24 21 2 0.47929038D-02 0.81008401D-01 0.16371555D+05 0.16371555D+05 0.16371555D+05 0.12435138D+01  1  2  6  2  5  2        2 0.107876248175D+03 0.100000000000D+01
0.474918868653D-01 0.000000000000D+00 0.000000000000D+00 0.264372013654D-02 0.656934168555D-01  5 -1 2 25 24 21 2 0.47943336D-02 0.82393607D-01 0.16445422D+05 0.16445422D+05 0.16445422D+05 0.12432933D+01  1  2 11  2  5  2        2 0.854040959454D+02 0.100000000000D+01
0.625011398012D-12 0.000000000000D+00 0.000000000000D+00 0.264372013654D-02 0.000000000000D+00  5 -1 21 25 24 -2 2 0.47929038D-02 0.82405582D-01 0.16445422D+05 0.16445422D+05 0.16445422D+05 0.12432933D+01  1  2 12  4  5  2        2 0.205881973478D-08 0.100000000000D+01
-.183641059504D-03 0.000000000000D+00 -.505449976949D-05 0.264372013654D-02 0.000000000000D+00  5 -1 21 25 24 -2 2 0.47929038D-02 0.82405399D-01 0.16371555D+05 0.16371555D+05 0.16371555D+05 0.12435138D+01  1  2  5  4  5  2        2 -.605131284838D+00 0.100000000000D+01
0.147574925719D-03 0.000000000000D+00 0.000000000000D+00 0.264372013654D-02 0.203658694543D-03  5 -1 21 25 24 -2 2 0.47943336D-02 0.82393607D-01 0.16445422D+05 0.16445422D+05 0.16445422D+05 0.12432933D+01  1  2 11  4  5  2        2 0.486064255931D+00 0.100000000000D+01
  </mgrwgt>
  </event>
  <event>
  4     66 0.45252658E-03 0.54950331E+02 0.75467711E-02 0.12543808E+00
       -1 -1    0    0    0  501 0.00000000E+00 0.00000000E+00 0.10065661E+04 0.10065661E+04 0.32000000E+00 0.0000E+00 0.9000E+01
        2 -1    0    0  501    0 0.00000000E+00 0.00000000E+00 -.10857407E+02 0.10862122E+02 0.32000000E+00 0.0000E+00 0.9000E+01
       25  1    1    2    0    0 -.17980590E+02 0.21398382E+01 0.57267347E+03 0.58643651E+03 0.12500000E+03 0.0000E+00 0.9000E+01
       24  1    1    2    0    0 0.17980590E+02 -.21398382E+01 0.42303522E+03 0.43099175E+03 0.80419002E+02 0.0000E+00 0.9000E+01
#aMCatNLO 1  0  0  2  1 0.17365255D+02 0.00000000D+00  -5  5  0 0.00000000D+00 0.00000000D+00 0.00000000D+00 0.00000000D+00 0.00000000D+00
  <mgrwgt>
 0.3467750193D+00    9    2    0
 0.104552005448643D+03 0.000000000000000D+00 0.000000000000000D+00 0.104552005448643D+03
 0.104552005448643D+03 0.000000000000000D+00 0.000000000000000D+00 -.104552005448643D+03
 0.126449682127183D+03 -.179805896762804D+02 0.213983818193902D+01 -.605323033709840D+01
 0.826543287701022D+02 0.179805896762804D+02 -.213983818193902D+01 0.605323033709840D+01
 0.000000000000000D+00 0.000000000000000D+00 0.000000000000000D+00 -.000000000000000D+00
 0.107923246504185D+03 0.000000000000000D+00 0.000000000000000D+00 0.107923246504185D+03
 0.129946692737725D+03 0.000000000000000D+00 0.000000000000000D+00 -.129946692737725D+03
 0.127990180183989D+03 -.265231050112318D+02 -.404592715941142D+01 -.605323033709840D+01
 0.818336493894553D+02 0.124581017175158D+02 -.613875574590094D+01 0.605323033709840D+01
 0.280461096684657D+02 0.140650032937159D+02 0.101846829053124D+02 -.220234462335395D+02
0.139861224020D-02 0.000000000000D+00 0.000000000000D+00 0.316938095958D-02 0.000000000000D+00  5 -1 2 25 24 21 0 0.15485669D+00 0.16707369D-02 0.10892793D+05 0.10892793D+05 0.10892793D+05 0.12639814D+01  1  2  2  2  5  2        2 0.370623034620D+00 0.100000000000D+01
-.777003886086D-04 0.000000000000D+00 -.537103926544D-05 0.316938095958D-02 0.000000000000D+00  5 -1 2 25 24 21 2 0.15485669D+00 0.16707369D-02 0.10892793D+05 0.10892793D+05 0.10892793D+05 0.12639814D+01  1  2  3  2  5  2        2 -.328957403804D-01 0.100000000000D+01
0.968898811398D-04 0.000000000000D+00 0.000000000000D+00 0.316938095958D-02 0.000000000000D+00  5 -1 2 25 24 21 2 0.15485669D+00 0.16707369D-02 0.10892793D+05 0.10892793D+05 0.10892793D+05 0.12639814D+01  1  2 15  2  5  2        2 0.410199283754D-01 0.100000000000D+01
0.425787911623D-02 0.000000000000D+00 0.000000000000D+00 0.316938095958D-02 0.000000000000D+00  5 -1 2 25 24 21 2 0.15485669D+00 0.20989036D-02 0.12862018D+05 0.12862018D+05 0.12862018D+05 0.12555084D+01  1  2 12  2  5  2        2 0.131099827940D+01 0.100000000000D+01
-.430998171091D-02 0.000000000000D+00 0.000000000000D+00 0.316938095958D-02 0.000000000000D+00  5 -1 2 25 24 21 2 0.15485669D+00 0.16707369D-02 0.10892793D+05 0.10892793D+05 0.10892793D+05 0.12639814D+01  1  2  4  2  5  2        2 -.182470180581D+01 0.100000000000D+01
-.621404303175D-02 0.000000000000D+00 -.103654944865D-02 0.316938095958D-02 0.000000000000D+00  5 -1 2 25 24 21 2 0.15485669D+00 0.21446489D-02 0.10892793D+05 0.10892793D+05 0.10892793D+05 0.12639814D+01  1  2  5  2  5  2        2 -.187501761718D+01 0.100000000000D+01
0.630672559328D-02 0.000000000000D+00 0.100505099148D-02 0.316938095958D-02 0.000000000000D+00  5 -1 2 25 24 21 2 0.15485669D+00 0.16707369D-02 0.10892793D+05 0.10892793D+05 0.10892793D+05 0.12639814D+01  1  2  6  2  5  2        2 0.267005624402D+01 0.100000000000D+01
0.134632417467D-03 0.000000000000D+00 0.000000000000D+00 0.316938095958D-02 0.000000000000D+00  5 -1 21 25 24 -2 2 0.15485669D+00 0.20989036D-02 0.12862018D+05 0.12862018D+05 0.12862018D+05 0.12555084D+01  1  2 12  4  5  2        2 0.786624959081D+00 0.100000000000D+01
-.192785495376D-03 0.000000000000D+00 -.350502712830D-04 0.316938095958D-02 0.000000000000D+00  5 -1 21 25 24 -2 2 0.15485669D+00 0.21446489D-02 0.10892793D+05 0.10892793D+05 0.10892793D+05 0.12639814D+01  1  2  5  4  5  2        2 -.109993226277D+01 0.100000000000D+01
  </mgrwgt>
  </event>
  <event>
  4     66 0.45252658E-03 0.65314038E+02 0.75467711E-02 0.10832327E+00
       -1 -1    0    0    0  501 0.00000000E+00 0.00000000E+00 0.58301097E+02 0.58301975E+02 0.32000000E+00 0.0000E+00 0.9000E+01
        2 -1    0    0  501    0 0.00000000E+00 0.00000000E+00 -.10924773E+04 0.10924773E+04 0.32000000E+00 0.0000E+00 0.9000E+01
       25  1    1    2    0    0 -.20907751E+03 0.19438064E+02 -.74757175E+03 0.78649842E+03 0.12500000E+03 0.0000E+00 0.9000E+01
       24  1    1    2    0    0 0.20907751E+03 -.19438064E+02 -.28660444E+03 0.36428089E+03 0.80419002E+02 0.0000E+00 0.9000E+01
#aMCatNLO 1  0  0  2  1 0.12381296D+03 0.00000000D+00  -5  5  0 0.00000000D+00 0.00000000D+00 0.00000000D+00 0.00000000D+00 0.00000000D+00
  <mgrwgt>
 0.4036766133D+00    9    2    0
 0.252375031279026D+03 0.000000000000000D+00 0.000000000000000D+00 0.252375031279026D+03
 0.252375031279026D+03 0.000000000000000D+00 0.000000000000000D+00 -.252375031279026D+03
 0.261446633964143D+03 -.209077512070146D+03 0.194380635698492D+02 -.929413688429057D+02
 0.243303428593908D+03 0.209077512070146D+03 -.194380635698492D+02 0.929413688429057D+02
 0.000000000000000D+00 -.000000000000000D+00 -.000000000000000D+00 -.000000000000000D+00
 0.300544892790404D+03 0.000000000000000D+00 0.000000000000000D+00 0.300544892790404D+03
 0.354046889338496D+03 0.000000000000000D+00 0.000000000000000D+00 -.354046889338496D+03
 0.218988330626066D+03 -.151521037248045D+03 0.270955010891997D+02 -.929413688429057D+02
 0.300725315209493D+03 0.274252570096840D+03 -.107670333130098D+02 0.929413688429057D+02
 0.134878136293340D+03 -.122731532848794D+03 -.163284677761899D+02 -.535019965480925D+02
0.171868718193D-02 0.000000000000D+00 0.000000000000D+00 0.178777019108D-02 0.000000000000D+00  5 -1 2 25 24 21 0 0.89694707D-02 0.16807350D+00 0.55042124D+05 0.55042124D+05 0.55042124D+05 0.11881714D+01  1  2  2  2  5  2        2 0.325661047152D+00 0.100000000000D+01
-.948641454853D-04 0.000000000000D+00 -.660021131936D-05 0.178777019108D-02 0.000000000000D+00  5 -1 2 25 24 21 2 0.89694707D-02 0.16807350D+00 0.55042124D+05 0.55042124D+05 0.55042124D+05 0.11881714D+01  1  2  3  2  5  2        2 -.253763582348D-01 0.100000000000D+01
0.117597774808D-03 0.000000000000D+00 0.000000000000D+00 0.178777019108D-02 0.000000000000D+00  5 -1 2 25 24 21 2 0.89694707D-02 0.16807350D+00 0.55042124D+05 0.55042124D+05 0.55042124D+05 0.11881714D+01  1  2 15  2  5  2        2 0.314576518439D-01 0.100000000000D+01
0.617034301585D-03 0.000000000000D+00 0.000000000000D+00 0.178777019108D-02 0.000000000000D+00  5 -1 2 25 24 21 2 0.89694707D-02 0.24664166D+00 0.92447292D+05 0.92447292D+05 0.92447292D+05 0.11667178D+01  1  2 12  2  5  2        2 0.827803786374D-01 0.100000000000D+01
-.105988867463D-02 0.000000000000D+00 0.000000000000D+00 0.178777019108D-02 0.000000000000D+00  5 -1 2 25 24 21 2 0.89694707D-02 0.16807350D+00 0.55042124D+05 0.55042124D+05 0.55042124D+05 0.11881714D+01  1  2  4  2  5  2        2 -.283522447377D+00 0.100000000000D+01
-.156330118126D-02 0.000000000000D+00 -.707610069682D-03 0.178777019108D-02 0.000000000000D+00  5 -1 2 25 24 21 2 0.89694707D-02 0.25943844D+00 0.55042124D+05 0.55042124D+05 0.55042124D+05 0.11881714D+01  1  2  5  2  5  2        2 -.197997469141D+00 0.100000000000D+01
0.176350234988D-02 0.000000000000D+00 0.645795533028D-03 0.178777019108D-02 0.000000000000D+00  5 -1 2 25 24 21 2 0.89694707D-02 0.16807350D+00 0.55042124D+05 0.55042124D+05 0.55042124D+05 0.11881714D+01  1  2  6  2  5  2        2 0.471740583859D+00 0.100000000000D+01
0.284818599126D-04 0.000000000000D+00 0.000000000000D+00 0.178777019108D-02 0.000000000000D+00  5 -1 21 25 24 -2 2 0.89694707D-02 0.24664166D+00 0.92447292D+05 0.92447292D+05 0.92447292D+05 0.11667178D+01  1  2 12  4  5  2        2 0.162057400531D-02 0.100000000000D+01
-.521587629574D-04 0.000000000000D+00 -.357885924576D-04 0.178777019108D-02 0.000000000000D+00  5 -1 21 25 24 -2 2 0.89694707D-02 0.25943844D+00 0.55042124D+05 0.55042124D+05 0.55042124D+05 0.11881714D+01  1  2  5  4  5  2        2 -.268734741774D-02 0.100000000000D+01
  </mgrwgt>
  </event>
  <event>
  4     66 0.45252658E-03 0.10289101E+03 0.75467711E-02 0.11017304E+00
       -1 -1    0    0    0  501 0.00000000E+00 0.00000000E+00 0.99041637E+01 0.99093319E+01 0.32000000E+00 0.0000E+00 0.9000E+01
        2 -1    0    0  501    0 0.00000000E+00 0.00000000E+00 -.11771830E+04 0.11771831E+04 0.32000000E+00 0.0000E+00 0.9000E+01
       25  1    1    2    0    0 0.86516272E+00 -.59007719E+01 -.52183222E+03 0.53662783E+03 0.12500000E+03 0.0000E+00 0.9000E+01
       24  1    1    2    0    0 -.86516272E+00 0.59007719E+01 -.64544663E+03 0.65046455E+03 0.80419002E+02 0.0000E+00 0.9000E+01
#aMCatNLO 1  0  0  1  1 0.22984533D+03 0.00000000D+00  -5  5  0 0.00000000D+00 0.00000000D+00 0.00000000D+00 0.00000000D+00 0.00000000D+00
  <mgrwgt>
 0.6320353715D+00    3    2    0
 0.107991233664063D+03 0.000000000000000D+00 0.000000000000000D+00 0.107991233664063D+03
 0.107991233664063D+03 0.000000000000000D+00 0.000000000000000D+00 -.107991233664063D+03
 0.129191528666983D+03 0.865162723147523D+00 -.590077186677650D+01 0.320917974590180D+02
 0.867909386611438D+02 -.865162723147523D+00 0.590077186677650D+01 -.320917974590180D+02
 0.000000000000000D+00 -.000000000000000D+00 -.000000000000000D+00 -.000000000000000D+00
 0.205511391648054D+03 0.000000000000000D+00 0.000000000000000D+00 0.205511391648054D+03
 0.433936581305398D+03 0.000000000000000D+00 0.000000000000000D+00 -.433936581305398D+03
 0.185154264747655D+03 0.102130018442849D+03 0.848332341889508D+02 0.320917974590180D+02
 0.130245960210751D+03 0.690521408022839D+02 0.685471559097887D+02 -.320917974590180D+02
 0.324047747995046D+03 -.171182159245133D+03 -.153380390098739D+03 -.228425189657344D+03
0.276711582350D-03 0.000000000000D+00 0.000000000000D+00 0.284305115701D-02 0.000000000000D+00  5 -1 2 25 24 21 0 0.15241184D-02 0.18110548D+00 0.10586561D+05 0.10586561D+05 0.10586561D+05 0.12654533D+01  1  2  2  1  5  1       -1 0.619235728785D+00 0.100000000000D+01
-.153291171604D-04 0.000000000000D+00 -.106264533606D-05 0.284305115701D-02 0.000000000000D+00  5 -1 2 25 24 21 2 0.15241184D-02 0.18110548D+00 0.10586561D+05 0.10586561D+05 0.10586561D+05 0.12654533D+01  1  2  3  1  5  1       -1 -.549335985839D-01 0.100000000000D+01
0.189008333285D-04 0.000000000000D+00 0.000000000000D+00 0.284305115701D-02 0.000000000000D+00  5 -1 2 25 24 21 2 0.15241184D-02 0.18110548D+00 0.10586561D+05 0.10586561D+05 0.10586561D+05 0.12654533D+01  1  2 15  1  5  1       -1 0.677332412629D-01 0.100000000000D+01
  </mgrwgt>
  </event>
  <event>
  4     66 0.45252658E-03 0.33031879E+02 0.75467711E-02 0.12127486E+00
       -1 -1    0    0    0  501 0.00000000E+00 0.00000000E+00 0.72898327E+02 0.72899029E+02 0.32000000E+00 0.0000E+00 0.9000E+01
        2 -1    0    0  501    0 0.00000000E+00 0.00000000E+00 -.20522418E+03 0.20522443E+03 0.32000000E+00 0.0000E+00 0.9000E+01
       25  1    1    2    0    0 0.36472598E+02 0.44912453E+02 -.11072578E+03 0.17672741E+03 0.12500000E+03 0.0000E+00 0.9000E+01
       24  1    1    2    0    0 -.36472598E+02 -.44912453E+02 -.21600068E+02 0.10139604E+03 0.80419002E+02 0.0000E+00 0.9000E+01
#aMCatNLO 1  0  0  2  1 0.40811280D+02 0.00000000D+00  -5  5  0 0.00000000D+00 0.00000000D+00 0.00000000D+00 0.00000000D+00 0.00000000D+00
  <mgrwgt>
 0.1384698051D+01    8    2    0
 0.122313659812365D+03 0.000000000000000D+00 0.000000000000000D+00 0.122313659812365D+03
 0.122313659812365D+03 0.000000000000000D+00 0.000000000000000D+00 -.122313659812365D+03
 0.141031487526126D+03 0.364725983789849D+02 0.449124532526291D+02 -.302902886111620D+02
 0.103595832098605D+03 -.364725983789849D+02 -.449124532526291D+02 0.302902886111620D+02
 0.000000000000000D+00 -.000000000000000D+00 -.000000000000000D+00 -.000000000000000D+00
 0.127680191715758D+03 0.000000000000000D+00 0.000000000000000D+00 0.127680191715758D+03
 0.237274496844112D+03 0.000000000000000D+00 0.000000000000000D+00 -.237274496844112D+03
 0.152088724504694D+03 0.571571907351937D+02 0.576327518393658D+02 -.302902886111620D+02
 0.959195134581791D+02 -.223934137227719D+02 -.362542486527654D+02 0.302902886111620D+02
 0.116946450596996D+03 -.347637770124218D+02 -.213785031866004D+02 -.109594305128354D+03
0.286854496263D-03 0.000000000000D+00 0.000000000000D+00 0.259470930117D-02 0.000000000000D+00  5 -1 2 25 24 21 0 0.11215200D-01 0.31573023D-01 0.14019613D+05 0.14019613D+05 0.14019613D+05 0.12511830D+01  1  2  2  2  5  2        2 0.258273913900D+00 0.100000000000D+01
-.159159168072D-04 0.000000000000D+00 -.110159679617D-05 0.259470930117D-02 0.000000000000D+00  5 -1 2 25 24 21 2 0.11215200D-01 0.31573023D-01 0.14019613D+05 0.14019613D+05 0.14019613D+05 0.12511830D+01  1  2  3  2  5  2        2 -.224332512226D-01 0.100000000000D+01
0.197993398133D-04 0.000000000000D+00 0.000000000000D+00 0.259470930117D-02 0.000000000000D+00  5 -1 2 25 24 21 2 0.11215200D-01 0.31573023D-01 0.14019613D+05 0.14019613D+05 0.14019613D+05 0.12511830D+01  1  2 15  2  5  2        2 0.279068789725D-01 0.100000000000D+01
0.853768898633D-03 0.000000000000D+00 0.000000000000D+00 0.259470930117D-02 0.000000000000D+00  5 -1 2 25 24 21 2 0.11215200D-01 0.61319878D-01 0.19721206D+05 0.19721206D+05 0.19721206D+05 0.12344978D+01  1  2 12  2  5  2        2 0.584664794299D+00 0.100000000000D+01
-.946525183228D-03 0.000000000000D+00 -.110744086043D-03 0.259470930117D-02 0.000000000000D+00  5 -1 2 25 24 21 2 0.11215200D-01 0.62757730D-01 0.14019613D+05 0.14019613D+05 0.14019613D+05 0.12511830D+01  1  2  5  2  5  2        2 -.644032530240D+00 0.100000000000D+01
0.838628232302D-03 0.000000000000D+00 0.889226905136D-04 0.259470930117D-02 0.000000000000D+00  5 -1 2 25 24 21 2 0.11215200D-01 0.31573023D-01 0.14019613D+05 0.14019613D+05 0.14019613D+05 0.12511830D+01  1  2  6  2  5  2        2 0.118203418914D+01 0.100000000000D+01
0.614380365797D-04 0.000000000000D+00 0.000000000000D+00 0.259470930117D-02 0.000000000000D+00  5 -1 21 25 24 -2 2 0.11215200D-01 0.61319878D-01 0.19721206D+05 0.19721206D+05 0.19721206D+05 0.12344978D+01  1  2 12  4  5  2        2 0.106155260389D+00 0.100000000000D+01
-.637669685500D-04 0.000000000000D+00 -.823428673406D-05 0.259470930117D-02 0.000000000000D+00  5 -1 21 25 24 -2 2 0.11215200D-01 0.62757730D-01 0.14019613D+05 0.14019613D+05 0.14019613D+05 0.12511830D+01  1  2  5  4  5  2        2 -.107871204359D+00 0.100000000000D+01
  </mgrwgt>
  </event>
  <event>
  4     66 0.45252658E-03 0.78513375E+02 0.75467711E-02 0.10991208E+00
       -1 -1    0    0    0  501 0.00000000E+00 0.00000000E+00 0.44294298E+02 0.44295454E+02 0.32000000E+00 0.0000E+00 0.9000E+01
        2 -1    0    0  501    0 0.00000000E+00 0.00000000E+00 -.11399866E+04 0.11399866E+04 0.32000000E+00 0.0000E+00 0.9000E+01
       25  1    1    2    0    0 -.16003512E+03 -.11739140E+03 -.60615535E+03 0.64995484E+03 0.12500000E+03 0.0000E+00 0.9000E+01
       24  1    1    2    0    0 0.16003512E+03 0.11739140E+03 -.48953692E+03 0.53432723E+03 0.80419002E+02 0.0000E+00 0.9000E+01
#aMCatNLO 1  0  0  1  2 0.89997920D+02 0.00000000D+00  -5  5  0 0.00000000D+00 0.00000000D+00 0.00000000D+00 0.00000000D+00 0.00000000D+00
  <mgrwgt>
 0.5239902609D+00    9    2    0
 0.224712296746688D+03 0.000000000000000D+00 0.000000000000000D+00 0.224712296746688D+03
 0.224712296746688D+03 0.000000000000000D+00 0.000000000000000D+00 -.224712296746688D+03
 0.234900639995159D+03 -.160035115031118D+03 -.117391402363370D+03 -.127016250249092D+02
 0.214523953498218D+03 0.160035115031118D+03 0.117391402363370D+03 0.127016250249092D+02
 0.000000000000000D+00 0.000000000000000D+00 0.000000000000000D+00 0.000000000000000D+00
 0.283907782737688D+03 0.000000000000000D+00 0.000000000000000D+00 0.283907782737688D+03
 0.266168820232664D+03 0.000000000000000D+00 0.000000000000000D+00 -.266168820232664D+03
 0.274211139461973D+03 -.210141306386068D+03 -.123474892496883D+03 -.127016250249092D+02
 0.184135989700066D+03 0.120799465404731D+03 0.112627725840976D+03 0.127016250249092D+02
 0.917294738083141D+02 0.893418409813371D+02 0.108471666559067D+02 0.177389625050240D+02
0.145149991590D-02 0.000000000000D+00 0.000000000000D+00 0.209765507571D-02 0.000000000000D+00  5 -1 2 25 24 21 0 0.68145998D-02 0.17538264D+00 0.50333952D+05 0.50333952D+05 0.50333952D+05 0.11919955D+01  1  2  2  1  5  1       -1 0.392442947718D+00 0.100000000000D+01
-.806386321697D-04 0.000000000000D+00 -.557414186575D-05 0.209765507571D-02 0.000000000000D+00  5 -1 2 25 24 21 2 0.68145998D-02 0.17538264D+00 0.50333952D+05 0.50333952D+05 0.50333952D+05 0.11919955D+01  1  2  3  1  5  1       -1 -.309778972151D-01 0.100000000000D+01
0.994361114943D-04 0.000000000000D+00 0.000000000000D+00 0.209765507571D-02 0.000000000000D+00  5 -1 2 25 24 21 2 0.68145998D-02 0.17538264D+00 0.50333952D+05 0.50333952D+05 0.50333952D+05 0.11919955D+01  1  2 15  1  5  1       -1 0.381990809920D-01 0.100000000000D+01
0.569786131717D-03 0.000000000000D+00 0.000000000000D+00 0.209765507571D-02 0.000000000000D+00  5 -1 2 25 24 21 2 0.90996692D-02 0.17538264D+00 0.74969758D+05 0.74969758D+05 0.74969758D+05 0.11752429D+01  1  2 12  1  5  1       -1 0.136794460115D+00 0.100000000000D+01
-.639686734521D-03 0.000000000000D+00 0.000000000000D+00 0.209765507571D-02 0.000000000000D+00  5 -1 2 25 24 21 2 0.68145998D-02 0.17538264D+00 0.50333952D+05 0.50333952D+05 0.50333952D+05 0.11919955D+01  1  2  4  1  5  1       -1 -.245740154299D+00 0.100000000000D+01
-.118933613039D-02 0.000000000000D+00 -.545115753581D-03 0.209765507571D-02 0.000000000000D+00  5 -1 2 25 24 21 2 0.10280064D-01 0.17538264D+00 0.50333952D+05 0.50333952D+05 0.50333952D+05 0.11919955D+01  1  2  5  1  5  1       -1 -.243467556091D+00 0.100000000000D+01
0.134150340855D-02 0.000000000000D+00 0.502079979472D-03 0.209765507571D-02 0.000000000000D+00  5 -1 2 25 24 21 2 0.68145998D-02 0.17538264D+00 0.50333952D+05 0.50333952D+05 0.50333952D+05 0.11919955D+01  1  2  6  1  5  1       -1 0.515347961461D+00 0.100000000000D+01
0.214470602572D-04 0.000000000000D+00 0.000000000000D+00 0.209765507571D-02 0.000000000000D+00  5 21 2 25 24 1 2 0.90996692D-02 0.17538264D+00 0.74969758D+05 0.74969758D+05 0.74969758D+05 0.11752429D+01  1  2 12  3  5  1       -1 0.771758409867D-01 0.100000000000D+01
-.384626481633D-04 0.000000000000D+00 -.264773707788D-04 0.209765507571D-02 0.000000000000D+00  5 21 2 25 24 1 2 0.10280064D-01 0.17538264D+00 0.50333952D+05 0.50333952D+05 0.50333952D+05 0.11919955D+01  1  2  5  3  5  1       -1 -.115784422727D+00 0.100000000000D+01
  </mgrwgt>
  </event>
  <event>
  4     66 0.45252658E-03 0.12736061E+03 0.75467711E-02 0.12298255E+00
       -1 -1    0    0    0  501 0.00000000E+00 0.00000000E+00 0.60091221E+03 0.60091230E+03 0.32000000E+00 0.0000E+00 0.9000E+01
        2 -1    0    0  501    0 0.00000000E+00 0.00000000E+00 -.27034762E+02 0.27036656E+02 0.32000000E+00 0.0000E+00 0.9000E+01
       25  1    1    2    0    0 -.22313742E+02 -.70709640E+02 0.33966926E+03 0.36945630E+03 0.12500000E+03 0.0000E+00 0.9000E+01
       24  1    1    2    0    0 0.22313742E+02 0.70709640E+02 0.23420819E+03 0.25849265E+03 0.80419002E+02 0.0000E+00 0.9000E+01
#aMCatNLO 1  0  0  1  2 0.21017217D+01 0.00000000D+00  -5  5  0 0.00000000D+00 0.00000000D+00 0.00000000D+00 0.00000000D+00 0.00000000D+00
  <mgrwgt>
 0.3158153566D+00    6    2    0
 0.127460347438581D+03 0.000000000000000D+00 0.000000000000000D+00 0.127460347438581D+03
 0.127460347438581D+03 0.000000000000000D+00 0.000000000000000D+00 -.127460347438581D+03
 0.145422372942322D+03 -.223137421301009D+02 -.707096403571512D+02 0.499101441486014D+01
 0.109498321934841D+03 0.223137421301009D+02 0.707096403571512D+02 -.499101441486014D+01
 0.000000000000000D+00 0.000000000000000D+00 -.000000000000000D+00 -.000000000000000D+00
 0.127718671639765D+03 0.000000000000000D+00 0.000000000000000D+00 0.127718671639765D+03
 0.131812482588154D+03 0.000000000000000D+00 0.000000000000000D+00 -.131812482588154D+03
 0.145349986634396D+03 -.234019979113874D+02 -.702072281427294D+02 0.499101441486014D+01
 0.109579372033742D+03 0.214938135531230D+02 0.710881746494664D+02 -.499101441486014D+01
 0.460179555978000D+01 0.190818435826449D+01 -.880946506737020D+00 -.409381094838947D+01
0.104057917601D-02 0.000000000000D+00 0.000000000000D+00 0.265384443038D-02 0.000000000000D+00  5 -1 2 25 24 21 0 0.92448185D-01 0.41593464D-02 0.16220724D+05 0.16220724D+05 0.16220724D+05 0.12439674D+01  1  2  2  1  5  1       -1 0.275478392370D+00 0.100000000000D+01
-.578099111494D-04 0.000000000000D+00 -.399609802667D-05 0.265384443038D-02 0.000000000000D+00  5 -1 2 25 24 21 2 0.92448185D-01 0.41593464D-02 0.16220724D+05 0.16220724D+05 0.16220724D+05 0.12439674D+01  1  2  3  1  5  1       -1 -.236827816882D-01 0.100000000000D+01
0.719668874553D-04 0.000000000000D+00 0.000000000000D+00 0.265384443038D-02 0.000000000000D+00  5 -1 2 25 24 21 2 0.92448185D-01 0.41593464D-02 0.16220724D+05 0.16220724D+05 0.16220724D+05 0.12439674D+01  1  2 15  1  5  1       -1 0.294824200642D-01 0.100000000000D+01
-.474239156054D-03 0.000000000000D+00 0.000000000000D+00 0.265384443038D-02 0.000000000000D+00  5 -1 2 25 24 21 2 0.92448185D-01 0.41593464D-02 0.16220724D+05 0.16220724D+05 0.16220724D+05 0.12439674D+01  1  2  4  1  5  1       -1 -.194279876538D+00 0.100000000000D+01
0.474327987627D-03 0.000000000000D+00 0.000000000000D+00 0.265384443038D-02 0.495476664099D-02  5 -1 2 25 24 21 2 0.92635550D-01 0.43013674D-02 0.16490623D+05 0.16490623D+05 0.16490623D+05 0.12431590D+01  1  2 11  1  5  1       -1 0.184945453948D+00 0.100000000000D+01
0.125223679652D-04 0.000000000000D+00 0.000000000000D+00 0.265384443038D-02 0.190821795828D-05  5 21 2 25 24 1 2 0.92635550D-01 0.43013674D-02 0.16490623D+05 0.16490623D+05 0.16490623D+05 0.12431590D+01  1  2 11  3  5  1       -1 0.438717484282D-01 0.100000000000D+01
  </mgrwgt>
  </event>
  <event>
  4     66 0.45252658E-03 0.39506250E+02 0.75467711E-02 0.12120652E+00
       -1 -1    0    0    0  501 0.00000000E+00 0.00000000E+00 0.10609653E+02 0.10614478E+02 0.32000000E+00 0.0000E+00 0.9000E+01
        2 -1    0    0  501    0 0.00000000E+00 0.00000000E+00 -.17894635E+04 0.17894635E+04 0.32000000E+00 0.0000E+00 0.9000E+01
       25  1    1    2    0    0 -.84068263E+02 0.24291742E+02 -.11515332E+04 0.11615986E+04 0.12500000E+03 0.0000E+00 0.9000E+01
       24  1    1    2    0    0 0.84068263E+02 -.24291742E+02 -.62732059E+03 0.63847936E+03 0.80419002E+02 0.0000E+00 0.9000E+01
#aMCatNLO 1  0  0  2  1 0.10252214D+02 0.00000000D+00  -5  5  0 0.00000000D+00 0.00000000D+00 0.00000000D+00 0.00000000D+00 0.00000000D+00
  <mgrwgt>
 0.5469890545D+00    9    2    0
 0.137804046802823D+03 0.000000000000000D+00 0.000000000000000D+00 0.137804046802823D+03
 0.137804046802823D+03 0.000000000000000D+00 0.000000000000000D+00 -.137804046802823D+03
 0.154417826038808D+03 -.840682626668385D+02 0.242917421581472D+02 -.237129389501380D+02
 0.121190267566839D+03 0.840682626668385D+02 -.242917421581472D+02 0.237129389501380D+02
 0.000000000000000D+00 -.000000000000000D+00 -.000000000000000D+00 -.000000000000000D+00
 0.138863942171053D+03 0.000000000000000D+00 0.000000000000000D+00 0.138863942171053D+03
 0.165141050886964D+03 0.000000000000000D+00 0.000000000000000D+00 -.165141050886964D+03
 0.153594783518777D+03 -.809731681115847D+02 0.291101373493826D+02 -.237129389501380D+02
 0.122203927771919D+03 0.865140328249350D+02 -.204842051158184D+02 0.237129389501380D+02
 0.282062817673214D+02 -.554086471335028D+01 -.862593223356417D+01 -.262771087159116D+02
0.305572275202D-03 0.000000000000D+00 0.000000000000D+00 0.245733144026D-02 0.000000000000D+00  5 -1 2 25 24 21 0 0.16326277D-02 0.27530245D+00 0.18419097D+05 0.18419097D+05 0.18419097D+05 0.12377826D+01  1  2  2  2  5  2        2 0.301341231152D+00 0.100000000000D+01
-.169714303006D-04 0.000000000000D+00 -.117347799580D-05 0.245733144026D-02 0.000000000000D+00  5 -1 2 25 24 21 2 0.16326277D-02 0.27530245D+00 0.18419097D+05 0.18419097D+05 0.18419097D+05 0.12377826D+01  1  2  3  2  5  2        2 -.256419954898D-01 0.100000000000D+01
0.210660311312D-04 0.000000000000D+00 0.000000000000D+00 0.245733144026D-02 0.000000000000D+00  5 -1 2 25 24 21 2 0.16326277D-02 0.27530245D+00 0.18419097D+05 0.18419097D+05 0.18419097D+05 0.12377826D+01  1  2 15  2  5  2        2 0.318284944573D-01 0.100000000000D+01
0.269003617463D-02 0.000000000000D+00 0.000000000000D+00 0.245733144026D-02 0.000000000000D+00  5 -1 2 25 24 21 2 0.16326277D-02 0.33083844D+00 0.19865022D+05 0.19865022D+05 0.19865022D+05 0.12341499D+01  1  2 12  2  5  2        2 0.264159946851D+01 0.100000000000D+01
-.268738757579D-02 0.000000000000D+00 0.000000000000D+00 0.245733144026D-02 0.000000000000D+00  5 -1 2 25 24 21 2 0.16326277D-02 0.27530245D+00 0.18419097D+05 0.18419097D+05 0.18419097D+05 0.12377826D+01  1  2  4  2  5  2        2 -.406035194897D+01 0.100000000000D+01
-.321119446745D-02 0.000000000000D+00 -.213750320415D-03 0.245733144026D-02 0.000000000000D+00  5 -1 2 25 24 21 2 0.16326277D-02 0.33071984D+00 0.18419097D+05 0.18419097D+05 0.18419097D+05 0.12377826D+01  1  2  5  2  5  2        2 -.317287359734D+01 0.100000000000D+01
0.319997347199D-02 0.000000000000D+00 0.210205165115D-03 0.245733144026D-02 0.000000000000D+00  5 -1 2 25 24 21 2 0.16326277D-02 0.27530245D+00 0.18419097D+05 0.18419097D+05 0.18419097D+05 0.12377826D+01  1  2  6  2  5  2        2 0.483481379490D+01 0.100000000000D+01
0.721013534563D-04 0.000000000000D+00 0.000000000000D+00 0.245733144026D-02 0.000000000000D+00  5 -1 21 25 24 -2 2 0.16326277D-02 0.33083844D+00 0.19865022D+05 0.19865022D+05 0.19865022D+05 0.12341499D+01  1  2 12  4  5  2        2 0.209843091677D-01 0.100000000000D+01
-.838206241718D-04 0.000000000000D+00 -.572045876910D-05 0.245733144026D-02 0.000000000000D+00  5 -1 21 25 24 -2 2 0.16326277D-02 0.33071984D+00 0.18419097D+05 0.18419097D+05 0.18419097D+05 0.12377826D+01  1  2  5  4  5  2        2 -.247107019033D-01 0.100000000000D+01
  </mgrwgt>
  </event>
  <event>
  5     66 0.45252658E-03 0.12139924E+03 0.75467711E-02 0.11841696E+00
       21 -1    0    0  502  501 0.00000000E+00 0.00000000E+00 0.25780939E+02 0.25791846E+02 0.75000000E+00 0.0000E+00 0.9000E+01
        2 -1    0    0  501    0 0.00000000E+00 0.00000000E+00 -.11173224E+04 0.11173224E+04 0.32000000E+00 0.0000E+00 0.9000E+01
       25  1    1    2    0    0 -.43081874E+02 0.96724784E+02 -.42417991E+03 0.45471456E+03 0.12500000E+03 0.0000E+00 0.9000E+01
       24  1    1    2    0    0 -.46335861E+01 -.39165900E+02 -.44120997E+03 0.45020983E+03 0.80419002E+02 0.0000E+00 0.9000E+01
        1  1    1    2  502    0 0.47715460E+02 -.57558885E+02 -.22615156E+03 0.23818988E+03 0.32000000E+00 0.0000E+00 0.9000E+01
#aMCatNLO 2  0  0  1  2 0.74764900D+02 0.00000000D+00  -5  5  0 0.00000000D+00 0.00000000D+00 0.00000000D+00 0.00000000D+00 0.00000000D+00
  <mgrwgt>
 0.1095021488D+00    1    2    0
 0.126884505604219D+03 0.000000000000000D+00 0.000000000000000D+00 0.126884505604219D+03
 0.126884505604219D+03 0.000000000000000D+00 0.000000000000000D+00 -.126884505604219D+03
 0.144928048434805D+03 -.142897034454358D+02 0.619929548845444D+02 0.364940699737016D+02
 0.108840962773634D+03 0.142897034454358D+02 -.619929548845444D+02 -.364940699737016D+02
 0.000000000000000D+00 0.000000000000000D+00 -.000000000000000D+00 0.000000000000000D+00
 0.172554830956527D+03 0.000000000000000D+00 0.000000000000000D+00 0.172554830956527D+03
 0.166971646105453D+03 0.000000000000000D+00 0.000000000000000D+00 -.166971646105453D+03
 0.167834885989692D+03 -.430818742723091D+02 0.967247844200875D+02 0.364940699737016D+02
 0.967185139060585D+02 -.463358610143724D+01 -.391658998929048D+02 -.364940699737016D+02
 0.749730771662293D+02 0.477154603737464D+02 -.575588845271827D+02 0.558318485107451D+01
0.650499608109D-05 0.000000000000D+00 0.000000000000D+00 0.247222375767D-02 0.197690191600D-06  5 21 2 25 24 1 2 0.39671328D-02 0.17189625D+00 0.26921159D+05 0.26921159D+05 0.26921159D+05 0.12198653D+01  1  2  1  3  5  1       -1 0.109502148804D+00 0.100000000000D+01
  </mgrwgt>
  </event>
  <event>
  5     66 0.45252658E-03 0.17857304E+03 0.75467711E-02 0.10871766E+00
       21 -1    0    0  502  501 0.00000000E+00 0.00000000E+00 0.58460038E+02 0.58464849E+02 0.75000000E+00 0.0000E+00 0.9000E+01
        2 -1    0    0  501    0 0.00000000E+00 0.00000000E+00 -.16289438E+04 0.16289438E+04 0.32000000E+00 0.0000E+00 0.9000E+01
       25  1    1    2    0    0 0.16836504E+03 -.93783466E+01 -.53294833E+03 0.57279460E+03 0.12500000E+03 0.0000E+00 0.9000E+01
       24  1    1    2    0    0 -.62252935E+02 0.16513962E+03 -.33354537E+03 0.38583190E+03 0.80419002E+02 0.0000E+00 0.9000E+01
        1  1    1    2  502    0 -.10611211E+03 -.15576127E+03 -.70399006E+03 0.72878217E+03 0.32000000E+00 0.0000E+00 0.9000E+01
#aMCatNLO 2  0  0  1  2 0.18847109D+03 0.00000000D+00  -5  5  0 0.00000000D+00 0.00000000D+00 0.00000000D+00 0.00000000D+00 0.00000000D+00
  <mgrwgt>
 0.9662686266D-01    1    2    0
 0.182093441948018D+03 0.000000000000000D+00 0.000000000000000D+00 0.182093441948018D+03
 0.182093441948018D+03 0.000000000000000D+00 0.000000000000000D+00 -.182093441948018D+03
 0.194666360483222D+03 0.112508670259020D+03 -.913695496607773D+02 -.355442880800484D+02
 0.169520523412813D+03 -.112508670259020D+03 0.913695496607773D+02 0.355442880800484D+02
 0.000000000000000D+00 -.000000000000000D+00 -.000000000000000D+00 -.000000000000000D+00
 0.260204914450130D+03 0.000000000000000D+00 0.000000000000000D+00 0.260204914450130D+03
 0.365988947850622D+03 0.000000000000000D+00 0.000000000000000D+00 -.365988947850622D+03
 0.212892311973212D+03 0.168365040009873D+03 -.937834658434180D+01 -.355442880800484D+02
 0.197172852172316D+03 -.622529349352662D+02 0.165139617766978D+03 0.355442880800484D+02
 0.216128698155223D+03 -.106112105074607D+03 -.155761271182636D+03 -.105784033400492D+03
0.496255209996D-04 0.000000000000D+00 0.000000000000D+00 0.214564066763D-02 0.529199881707D-07  5 21 2 25 24 1 2 0.89942208D-02 0.25060701D+00 0.87710102D+05 0.87710102D+05 0.87710102D+05 0.11688398D+01  1  2  1  3  5  1       -1 0.966268626607D-01 0.100000000000D+01
  </mgrwgt>
  </event>
  <event>
  4     66 0.45252658E-03 0.83481783E+02 0.75467711E-02 0.11640123E+00
       -1 -1    0    0    0  501 0.00000000E+00 0.00000000E+00 0.17473846E+02 0.17476776E+02 0.32000000E+00 0.0000E+00 0.9000E+01
        2 -1    0    0  501    0 0.00000000E+00 0.00000000E+00 -.16252986E+04 0.16252986E+04 0.32000000E+00 0.0000E+00 0.9000E+01
       25  1    1    2    0    0 0.11752698E+03 -.43279180E+02 -.10786499E+04 0.10930673E+04 0.12500000E+03 0.0000E+00 0.9000E+01
       24  1    1    2    0    0 -.11752698E+03 0.43279180E+02 -.52917486E+03 0.54970803E+03 0.80419002E+02 0.0000E+00 0.9000E+01
#aMCatNLO 1  0  0  2  1 0.39711063D+02 0.00000000D+00  -5  5  0 0.00000000D+00 0.00000000D+00 0.00000000D+00 0.00000000D+00 0.00000000D+00
  <mgrwgt>
 0.3410622701D+00    6    2    0
 0.168530855317484D+03 0.000000000000000D+00 0.000000000000000D+00 0.168530855317484D+03
 0.168530855317484D+03 0.000000000000000D+00 0.000000000000000D+00 -.168530855317484D+03
 0.182115584399256D+03 0.117526980776916D+03 -.432791797751931D+02 -.430744410124087D+02
 0.154946126235712D+03 -.117526980776916D+03 0.432791797751931D+02 0.430744410124087D+02
 0.000000000000000D+00 -.000000000000000D+00 -.000000000000000D+00 0.000000000000000D+00
 0.190778401477142D+03 0.000000000000000D+00 0.000000000000000D+00 0.190778401477142D+03
 0.188396941324413D+03 0.000000000000000D+00 0.000000000000000D+00 -.188396941324413D+03
 0.179688756751725D+03 0.119654417514999D+03 -.221463812754017D+02 -.430744410124087D+02
 0.159704179654335D+03 -.115676813312728D+03 0.616577362378345D+02 0.430744410124087D+02
 0.397824063954949D+02 -.397760420227007D+01 -.395113549624328D+02 0.238146015272841D+01
0.641069760694D-03 0.000000000000D+00 0.000000000000D+00 0.214891614088D-02 0.000000000000D+00  5 -1 2 25 24 21 0 0.26885118D-02 0.25004616D+00 0.26534247D+05 0.26534247D+05 0.26534247D+05 0.12205341D+01  1  2  2  2  5  2        2 0.374956603264D+00 0.100000000000D+01
-.355648608466D-04 0.000000000000D+00 -.246187667861D-05 0.214891614088D-02 0.000000000000D+00  5 -1 2 25 24 21 2 0.26885118D-02 0.25004616D+00 0.26534247D+05 0.26534247D+05 0.26534247D+05 0.12205341D+01  1  2  3  2  5  2        2 -.309882215793D-01 0.100000000000D+01
0.439463044445D-04 0.000000000000D+00 0.000000000000D+00 0.214891614088D-02 0.000000000000D+00  5 -1 2 25 24 21 2 0.26885118D-02 0.25004616D+00 0.26534247D+05 0.26534247D+05 0.26534247D+05 0.12205341D+01  1  2 15  2  5  2        2 0.382911049643D-01 0.100000000000D+01
0.532539869250D-03 0.000000000000D+00 0.000000000000D+00 0.214891614088D-02 0.000000000000D+00  5 -1 2 25 24 21 2 0.26885118D-02 0.29410316D+00 0.33846106D+05 0.33846106D+05 0.33846106D+05 0.12094383D+01  1  2 12  2  5  2        2 0.324529153239D+00 0.100000000000D+01
-.422881855366D-03 0.000000000000D+00 0.000000000000D+00 0.214891614088D-02 0.000000000000D+00  5 -1 2 25 24 21 2 0.26885118D-02 0.25004616D+00 0.26534247D+05 0.26534247D+05 0.26534247D+05 0.12205341D+01  1  2  4  2  5  2        2 -.368463599294D+00 0.100000000000D+01
0.129411445605D-04 0.000000000000D+00 0.000000000000D+00 0.214891614088D-02 0.000000000000D+00  5 -1 21 25 24 -2 2 0.26885118D-02 0.29410316D+00 0.33846106D+05 0.33846106D+05 0.33846106D+05 0.12094383D+01  1  2 12  4  5  2        2 0.273722953874D-02 0.100000000000D+01
  </mgrwgt>
  </event>
  <event>
  4     66 0.45252658E-03 0.10381049E+03 0.75467711E-02 0.11783889E+00
       -1 -1    0    0    0  501 0.00000000E+00 0.00000000E+00 0.43554752E+02 0.43555928E+02 0.32000000E+00 0.0000E+00 0.9000E+01
        2 -1    0    0  501    0 0.00000000E+00 0.00000000E+00 -.24864628E+03 0.24864648E+03 0.32000000E+00 0.0000E+00 0.9000E+01
       25  1    1    2    0    0 0.14668929E+02 0.13093489E+01 -.13424179E+03 0.18401834E+03 0.12500000E+03 0.0000E+00 0.9000E+01
       24  1    1    2    0    0 -.14668929E+02 -.13093489E+01 -.70849732E+02 0.10818407E+03 0.80419002E+02 0.0000E+00 0.9000E+01
#aMCatNLO 1  0  0  1  1 0.10588997D+03 0.00000000D+00  -5  5  0 0.00000000D+00 0.00000000D+00 0.00000000D+00 0.00000000D+00 0.00000000D+00
  <mgrwgt>
 0.3629307882D+00    3    2    0
 0.104066943943783D+03 0.000000000000000D+00 0.000000000000000D+00 0.104066943943783D+03
 0.104066943943783D+03 0.000000000000000D+00 0.000000000000000D+00 -.104066943943783D+03
 0.126066686846237D+03 0.146689292715321D+02 0.130934891258022D+01 -.713566057483237D+01
 0.820672010413285D+02 -.146689292715321D+02 -.130934891258022D+01 0.713566057483237D+01
 0.000000000000000D+00 0.000000000000000D+00 0.000000000000000D+00 -.000000000000000D+00
 0.139737860800251D+03 0.000000000000000D+00 0.000000000000000D+00 0.139737860800251D+03
 0.238759915620229D+03 0.000000000000000D+00 0.000000000000000D+00 -.238759915620229D+03
 0.134949401991708D+03 -.365874876148353D+02 -.345944966160016D+02 -.713566057483237D+01
 0.985723327638600D+02 -.501415903327677D+02 -.261570659516752D+02 0.713566057483237D+01
 0.144976041664912D+03 0.867290779476029D+02 0.607515625676768D+02 -.990220548199776D+02
0.225173975913D-03 0.000000000000D+00 0.000000000000D+00 0.318253755738D-02 0.000000000000D+00  5 -1 2 25 24 21 0 0.67008374D-02 0.38253380D-01 0.10776617D+05 0.10776617D+05 0.10776617D+05 0.12645343D+01  1  2  2  1  5  1       -1 0.355167684081D+00 0.100000000000D+01
-.125095727293D-04 0.000000000000D+00 -.864727357174D-06 0.318253755738D-02 0.000000000000D+00  5 -1 2 25 24 21 2 0.67008374D-02 0.38253380D-01 0.10776617D+05 0.10776617D+05 0.10776617D+05 0.12645343D+01  1  2  3  1  5  1       -1 -.315514212821D-01 0.100000000000D+01
0.155875042986D-04 0.000000000000D+00 0.000000000000D+00 0.318253755738D-02 0.000000000000D+00  5 -1 2 25 24 21 2 0.67008374D-02 0.38253380D-01 0.10776617D+05 0.10776617D+05 0.10776617D+05 0.12645343D+01  1  2 15  1  5  1       -1 0.393145254042D-01 0.100000000000D+01
  </mgrwgt>
  </event>
  <event>
  5     66 0.45252658E-03 0.10716590E+03 0.75467711E-02 0.12238046E+00
       -1 -1    0    0    0  501 0.00000000E+00 0.00000000E+00 0.14951115E+03 0.14951149E+03 0.32000000E+00 0.0000E+00 0.9000E+01
       21 -1    0    0  501  502 0.00000000E+00 0.00000000E+00 -.12013293E+03 0.12013527E+03 0.75000000E+00 0.0000E+00 0.9000E+01
       25  1    1    2    0    0 -.41294036E+02 -.38426591E+02 0.18875393E+02 0.13843078E+03 0.12500000E+03 0.0000E+00 0.9000E+01
       24  1    1    2    0    0 0.16173616E+02 0.11090028E+00 0.19982649E+02 0.84428197E+02 0.80419002E+02 0.0000E+00 0.9000E+01
       -2  1    1    2    0  502 0.25120420E+02 0.38315691E+02 -.94798264E+01 0.46787789E+02 0.32000000E+00 0.0000E+00 0.9000E+01
#aMCatNLO 2  0  0  2  1 0.45816238D+02 0.00000000D+00  -5  5  0 0.00000000D+00 0.00000000D+00 0.00000000D+00 0.00000000D+00 0.00000000D+00
  <mgrwgt>
 0.2578332664D-01    2    2    0
 0.107304529537996D+03 0.000000000000000D+00 0.000000000000000D+00 0.107304529537996D+03
 0.107304529537996D+03 0.000000000000000D+00 0.000000000000000D+00 -.107304529537996D+03
 0.128640497565298D+03 -.259063759654700D+02 -.149560904600095D+02 -.534346856780927D+01
 0.859685615106939D+02 0.259063759654700D+02 0.149560904600095D+02 0.534346856780927D+01
 0.000000000000000D+00 0.000000000000000D+00 0.000000000000000D+00 -.000000000000000D+00
 0.125363117386838D+03 0.000000000000000D+00 0.000000000000000D+00 0.125363117386838D+03
 0.143275249911297D+03 0.000000000000000D+00 0.000000000000000D+00 -.143275249911297D+03
 0.137241950578209D+03 -.412940364951297D+02 -.384265909509994D+02 -.534346856780927D+01
 0.822032041037872D+02 0.161736160258127D+02 0.110900282977108D+00 0.534346856780927D+01
 0.491932126161389D+02 0.251204204693170D+02 0.383156906680223D+02 -.179121325244594D+02
-.524090345841D-05 0.000000000000D+00 0.000000000000D+00 0.308305409922D-02 0.000000000000D+00  5 -1 21 25 24 -2 2 0.19688411D-01 0.19334051D-01 0.17554061D+05 0.17554061D+05 0.17554061D+05 0.12401122D+01  1  2 13  4  5  2        2 -.368314509157D-01 0.100000000000D+01
0.105413735818D-04 0.000000000000D+00 0.000000000000D+00 0.308305409922D-02 0.582975433242D-06  5 -1 21 25 24 -2 2 0.23001830D-01 0.18482123D-01 0.17554061D+05 0.17554061D+05 0.17554061D+05 0.12401122D+01  1  2  1  4  5  2        2 0.626147775574D-01 0.100000000000D+01
  </mgrwgt>
  </event>
  <event>
  5     66 0.45252658E-03 0.11202830E+03 0.75467711E-02 0.11529121E+00
       21 -1    0    0  502  501 0.00000000E+00 0.00000000E+00 0.51757138E+02 0.51762572E+02 0.75000000E+00 0.0000E+00 0.9000E+01
        2 -1    0    0  501    0 0.00000000E+00 0.00000000E+00 -.91753293E+03 0.91753299E+03 0.32000000E+00 0.0000E+00 0.9000E+01
       25  1    1    2    0    0 0.50065434E+02 -.10143964E+03 -.59171023E+03 0.61525812E+03 0.12500000E+03 0.0000E+00 0.9000E+01
       24  1    1    2    0    0 0.41860638E+02 0.50747636E+01 -.11726228E+03 0.14830956E+03 0.80419002E+02 0.0000E+00 0.9000E+01
        1  1    1    2  502    0 -.91926072E+02 0.96364877E+02 -.15680328E+03 0.20572789E+03 0.32000000E+00 0.0000E+00 0.9000E+01
#aMCatNLO 2  0  0  1  2 0.13317880D+03 0.00000000D+00  -5  5  0 0.00000000D+00 0.00000000D+00 0.00000000D+00 0.00000000D+00 0.00000000D+00
  <mgrwgt>
 0.1368224540D+00    1    2    0
 0.125156874006196D+03 0.000000000000000D+00 0.000000000000000D+00 0.125156874006196D+03
 0.125156874006196D+03 0.000000000000000D+00 0.000000000000000D+00 -.125156874006196D+03
 0.143449485016072D+03 -.517406809487826D+01 -.435328059624111D+02 -.550534156593841D+02
 0.106864262996321D+03 0.517406809487826D+01 0.435328059624111D+02 0.550534156593841D+02
 0.000000000000000D+00 -.000000000000000D+00 0.000000000000000D+00 0.000000000000000D+00
 0.268812491335269D+03 0.000000000000000D+00 0.000000000000000D+00 0.268812491335269D+03
 0.176671337699627D+03 0.000000000000000D+00 0.000000000000000D+00 -.176671337699627D+03
 0.177348321047873D+03 0.500654343930867D+02 -.101439640583778D+03 -.550534156593841D+02
 0.106189268553958D+03 0.418606378396709D+02 0.507476359499883D+01 0.550534156593841D+02
 0.161946239433065D+03 -.919260722327576D+02 0.963648769887787D+02 0.921411536356418D+02
0.207949857761D-04 0.000000000000D+00 0.000000000000D+00 0.223678021041D-02 0.206338097937D-06  5 21 2 25 24 1 2 0.79630525D-02 0.14115922D+00 0.38527654D+05 0.38527654D+05 0.38527654D+05 0.12036578D+01  1  2  1  3  5  1       -1 0.136822453968D+00 0.100000000000D+01
  </mgrwgt>
  </event>
  <event>
  4     66 0.45252658E-03 0.77922101E+02 0.75467711E-02 0.11670787E+00
       -1 -1    0    0    0  501 0.00000000E+00 0.00000000E+00 0.10576102E+02 0.10580942E+02 0.32000000E+00 0.0000E+00 0.9000E+01
        2 -1    0    0  501    0 0.00000000E+00 0.00000000E+00 -.19155597E+04 0.19155597E+04 0.32000000E+00 0.0000E+00 0.9000E+01
       25  1    1    2    0    0 0.90603171E+02 0.24712223E+02 -.12334881E+04 0.12433574E+04 0.12500000E+03 0.0000E+00 0.9000E+01
       24  1    1    2    0    0 -.90603171E+02 -.24712223E+02 -.67149549E+03 0.68278330E+03 0.80419002E+02 0.0000E+00 0.9000E+01
#aMCatNLO 1  0  0  2  1 0.72578658D+02 0.00000000D+00  -5  5  0 0.00000000D+00 0.00000000D+00 0.00000000D+00 0.00000000D+00 0.00000000D+00
  <mgrwgt>
 0.3769333356D+00    7    2    0
 0.142351121433265D+03 0.000000000000000D+00 0.000000000000000D+00 0.142351121433265D+03
 0.142351121433265D+03 0.000000000000000D+00 0.000000000000000D+00 -.142351121433265D+03
 0.158434212232663D+03 0.906031706527036D+02 0.247122231708264D+02 -.256275457158303D+02
 0.126268030633867D+03 -.906031706527036D+02 -.247122231708264D+02 0.256275457158303D+02
 0.000000000000000D+00 -.000000000000000D+00 -.000000000000000D+00 -.000000000000000D+00
 0.153751323782281D+03 0.000000000000000D+00 0.000000000000000D+00 0.153751323782281D+03
 0.339226787584175D+03 0.000000000000000D+00 0.000000000000000D+00 -.339226787584175D+03
 0.187054360092856D+03 0.133787329604636D+03 0.284343624439035D+02 -.256275457158303D+02
 0.106753449045152D+03 -.614767756754710D+02 -.222017540252171D+02 0.256275457158303D+02
 0.199170302228447D+03 -.723105539291652D+02 -.623260841868636D+01 -.185475463801894D+03
0.437869975143D-03 0.000000000000D+00 0.000000000000D+00 0.240459170467D-02 0.000000000000D+00  5 -1 2 25 24 21 0 0.16274670D-02 0.29470187D+00 0.19598286D+05 0.19598286D+05 0.19598286D+05 0.12347973D+01  1  2  2  2  5  2        2 0.374337723608D+00 0.100000000000D+01
-.243178629904D-04 0.000000000000D+00 -.168153599836D-05 0.240459170467D-02 0.000000000000D+00  5 -1 2 25 24 21 2 0.16274670D-02 0.29470187D+00 0.19598286D+05 0.19598286D+05 0.19598286D+05 0.12347973D+01  1  2  3  2  5  2        2 -.316982441003D-01 0.100000000000D+01
0.301956002390D-04 0.000000000000D+00 0.000000000000D+00 0.240459170467D-02 0.000000000000D+00  5 -1 2 25 24 21 2 0.16274670D-02 0.29470187D+00 0.19598286D+05 0.19598286D+05 0.19598286D+05 0.12347973D+01  1  2 15  2  5  2        2 0.393598527760D-01 0.100000000000D+01
0.463744194322D-03 0.000000000000D+00 0.000000000000D+00 0.240459170467D-02 0.000000000000D+00  5 -1 2 25 24 21 2 0.16274670D-02 0.69700921D+00 0.32670713D+05 0.32670713D+05 0.32670713D+05 0.12110303D+01  1  2 12  2  5  2        2 0.119426410556D-01 0.100000000000D+01
-.717399695202D-03 0.000000000000D+00 -.118593903040D-03 0.240459170467D-02 0.000000000000D+00  5 -1 2 25 24 21 2 0.16274670D-02 0.70774169D+00 0.19598286D+05 0.19598286D+05 0.19598286D+05 0.12347973D+01  1  2  5  2  5  2        2 -.170015991059D-01 0.100000000000D+01
0.435913620330D-04 0.000000000000D+00 0.000000000000D+00 0.240459170467D-02 0.000000000000D+00  5 -1 21 25 24 -2 2 0.16274670D-02 0.69700921D+00 0.32670713D+05 0.32670713D+05 0.32670713D+05 0.12110303D+01  1  2 12  4  5  2        2 0.277102753701D-04 0.100000000000D+01
-.613218478624D-04 0.000000000000D+00 -.113688023823D-04 0.240459170467D-02 0.000000000000D+00  5 -1 21 25 24 -2 2 0.16274670D-02 0.70774169D+00 0.19598286D+05 0.19598286D+05 0.19598286D+05 0.12347973D+01  1  2  5  4  5  2        2 -.347489130258D-04 0.100000000000D+01
  </mgrwgt>
  </event>
  <event>
  4     66 0.45252658E-03 0.11803259E+03 0.75467711E-02 0.10876991E+00
       -1 -1    0    0    0  501 0.00000000E+00 0.00000000E+00 0.83731394E+03 0.83731400E+03 0.32000000E+00 0.0000E+00 0.9000E+01
        2 -1    0    0  501    0 0.00000000E+00 0.00000000E+00 -.90420075E+02 0.90420642E+02 0.32000000E+00 0.0000E+00 0.9000E+01
       25  1    1    2    0    0 0.21213786E+03 0.11440882E+03 0.52212858E+03 0.58850243E+03 0.12500000E+03 0.0000E+00 0.9000E+01
       24  1    1    2    0    0 -.21213786E+03 -.11440882E+03 0.22476528E+03 0.33923222E+03 0.80419002E+02 0.0000E+00 0.9000E+01
#aMCatNLO 1  0  0  1  2 0.61296259D+02 0.00000000D+00  -5  5  0 0.00000000D+00 0.00000000D+00 0.00000000D+00 0.00000000D+00 0.00000000D+00
  <mgrwgt>
 0.3464057513D+00    9    2    0
 0.275155011707226D+03 0.000000000000000D+00 0.000000000000000D+00 0.275155011707226D+03
 0.275155011707226D+03 0.000000000000000D+00 0.000000000000000D+00 -.275155011707226D+03
 0.283475579801561D+03 0.212137857781769D+03 0.114408819353602D+03 0.814957403408786D+02
 0.266834443612892D+03 -.212137857781769D+03 -.114408819353602D+03 -.814957403408786D+02
 0.000000000000000D+00 -.000000000000000D+00 0.000000000000000D+00 0.000000000000000D+00
 0.335337951264317D+03 0.000000000000000D+00 0.000000000000000D+00 0.335337951264317D+03
 0.292918290776726D+03 0.000000000000000D+00 0.000000000000000D+00 -.292918290776726D+03
 0.300968788806589D+03 0.241360494946902D+03 0.100303377914125D+03 0.814957403408786D+02
 0.252744452209340D+03 -.186158540729861D+03 -.126948746302787D+03 -.814957403408786D+02
 0.745430010251152D+02 -.552019542170411D+02 0.266453683886626D+02 0.424196604875909D+02
0.816243592868D-02 0.000000000000D+00 0.000000000000D+00 0.185786817548D-02 0.000000000000D+00  5 -1 2 25 24 21 0 0.12881758D+00 0.13910829D-01 0.69062060D+05 0.69062060D+05 0.69062060D+05 0.11786349D+01  1  2  2  1  5  1       -1 0.221455031608D+00 0.100000000000D+01
-.452304323523D-03 0.000000000000D+00 -.313459031849D-04 0.185786817548D-02 0.000000000000D+00  5 -1 2 25 24 21 2 0.12881758D+00 0.13910829D-01 0.69062060D+05 0.69062060D+05 0.69062060D+05 0.11786349D+01  1  2  3  1  5  1       -1 -.170472802426D-01 0.100000000000D+01
0.558978158996D-03 0.000000000000D+00 0.000000000000D+00 0.185786817548D-02 0.000000000000D+00  5 -1 2 25 24 21 2 0.12881758D+00 0.13910829D-01 0.69062060D+05 0.69062060D+05 0.69062060D+05 0.11786349D+01  1  2 15  1  5  1       -1 0.210678006606D-01 0.100000000000D+01
0.910282595218D-02 0.000000000000D+00 0.000000000000D+00 0.185786817548D-02 0.000000000000D+00  5 -1 2 25 24 21 2 0.16048303D+00 0.13910829D-01 0.87103625D+05 0.87103625D+05 0.87103625D+05 0.11691206D+01  1  2 12  1  5  1       -1 0.190811538682D+00 0.100000000000D+01
-.930916313062D-02 0.000000000000D+00 0.000000000000D+00 0.185786817548D-02 0.000000000000D+00  5 -1 2 25 24 21 2 0.12881758D+00 0.13910829D-01 0.69062060D+05 0.69062060D+05 0.69062060D+05 0.11786349D+01  1  2  4  1  5  1       -1 -.350860923628D+00 0.100000000000D+01
-.170794313244D-01 0.000000000000D+00 -.409628600956D-02 0.185786817548D-02 0.000000000000D+00  5 -1 2 25 24 21 2 0.16295051D+00 0.13910829D-01 0.69062060D+05 0.69062060D+05 0.69062060D+05 0.11786349D+01  1  2  5  1  5  1       -1 -.350231342756D+00 0.100000000000D+01
0.176627024716D-01 0.000000000000D+00 0.398567748480D-02 0.185786817548D-02 0.000000000000D+00  5 -1 2 25 24 21 2 0.12881758D+00 0.13910829D-01 0.69062060D+05 0.69062060D+05 0.69062060D+05 0.11786349D+01  1  2  6  1  5  1       -1 0.665704533910D+00 0.100000000000D+01
0.279868331937D-03 0.000000000000D+00 0.000000000000D+00 0.185786817548D-02 0.000000000000D+00  5 21 2 25 24 1 2 0.16048303D+00 0.13910829D-01 0.87103625D+05 0.87103625D+05 0.87103625D+05 0.11691206D+01  1  2 12  3  5  1       -1 0.473436857159D-01 0.100000000000D+01
-.490191766082D-03 0.000000000000D+00 -.132437085449D-03 0.185786817548D-02 0.000000000000D+00  5 21 2 25 24 1 2 0.16295051D+00 0.13910829D-01 0.69062060D+05 0.69062060D+05 0.69062060D+05 0.11786349D+01  1  2  5  3  5  1       -1 -.818372926673D-01 0.100000000000D+01
  </mgrwgt>
  </event>
  <event>
  4     66 0.45252658E-03 0.72336343E+02 0.75467711E-02 0.11780177E+00
       -1 -1    0    0    0  501 0.00000000E+00 0.00000000E+00 0.60501542E+01 0.60586109E+01 0.32000000E+00 0.0000E+00 0.9000E+01
        2 -1    0    0  501    0 0.00000000E+00 0.00000000E+00 -.36102689E+04 0.36102689E+04 0.32000000E+00 0.0000E+00 0.9000E+01
       25  1    1    2    0    0 0.69334664E+00 -.10512215E+03 -.19999032E+04 0.20065615E+04 0.12500000E+03 0.0000E+00 0.9000E+01
       24  1    1    2    0    0 -.69334664E+00 0.10512215E+03 -.16043155E+04 0.16097660E+04 0.80419002E+02 0.0000E+00 0.9000E+01
#aMCatNLO 1  0  0  2  1 0.41140663D+02 0.00000000D+00  -5  5  0 0.00000000D+00 0.00000000D+00 0.00000000D+00 0.00000000D+00 0.00000000D+00
  <mgrwgt>
 0.5787677462D+00    9    2    0
 0.147844513321818D+03 0.000000000000000D+00 0.000000000000000D+00 0.147844513321818D+03
 0.147844513321818D+03 0.000000000000000D+00 0.000000000000000D+00 -.147844513321818D+03
 0.163330011971496D+03 0.693346644405733D+00 -.105122148035995D+03 -.738967751797001D+00
 0.132359014672139D+03 -.693346644405733D+00 0.105122148035995D+03 0.738967751797001D+00
 0.000000000000000D+00 0.000000000000000D+00 -.000000000000000D+00 -.000000000000000D+00
 0.152992265561811D+03 0.000000000000000D+00 0.000000000000000D+00 0.152992265561811D+03
 0.262906052299997D+03 0.000000000000000D+00 0.000000000000000D+00 -.262906052299997D+03
 0.151829292685517D+03 -.921777882516693D+01 -.856832573935919D+02 -.738967751797001D+00
 0.146708066204602D+03 -.946944435793145D+01 0.122334885806695D+03 0.738967751797001D+00
 0.117360958971689D+03 0.186872231830984D+02 -.366516284131036D+02 -.109913786738185D+03
0.219309334369D-02 0.000000000000D+00 0.000000000000D+00 0.242709920800D-02 0.000000000000D+00  5 -1 2 25 24 21 0 0.93144457D-03 0.55542663D+00 0.21857448D+05 0.21857448D+05 0.21857448D+05 0.12296023D+01  1  2  2  2  5  2        2 0.456468409547D+00 0.100000000000D+01
-.121838519070D-03 0.000000000000D+00 -.842205589453D-05 0.242709920800D-02 0.000000000000D+00  5 -1 2 25 24 21 2 0.93144457D-03 0.55542663D+00 0.21857448D+05 0.21857448D+05 0.21857448D+05 0.12296023D+01  1  2  3  2  5  2        2 -.383413667732D-01 0.100000000000D+01
0.150921935145D-03 0.000000000000D+00 0.000000000000D+00 0.242709920800D-02 0.000000000000D+00  5 -1 2 25 24 21 2 0.93144457D-03 0.55542663D+00 0.21857448D+05 0.21857448D+05 0.21857448D+05 0.12296023D+01  1  2 15  2  5  2        2 0.474936277430D-01 0.100000000000D+01
0.372189832817D-02 0.000000000000D+00 0.000000000000D+00 0.242709920800D-02 0.000000000000D+00  5 -1 2 25 24 21 2 0.93144457D-03 0.99055337D+00 0.28844668D+05 0.28844668D+05 0.28844668D+05 0.12166925D+01  1  2 12  2  5  2        2 0.253677259115D-05 0.100000000000D+01
-.372089162171D-02 0.000000000000D+00 0.000000000000D+00 0.242709920800D-02 0.000000000000D+00  5 -1 2 25 24 21 2 0.93144457D-03 0.55542663D+00 0.21857448D+05 0.21857448D+05 0.21857448D+05 0.12296023D+01  1  2  4  2  5  2        2 -.117092748237D+01 0.100000000000D+01
-.398780896356D-02 0.000000000000D+00 -.414644754435D-03 0.242709920800D-02 0.000000000000D+00  5 -1 2 25 24 21 2 0.93144457D-03 0.98784758D+00 0.21857448D+05 0.21857448D+05 0.21857448D+05 0.12296023D+01  1  2  5  2  5  2        2 -.292039764537D-05 0.100000000000D+01
0.408044371971D-02 0.000000000000D+00 0.395261684419D-03 0.242709920800D-02 0.000000000000D+00  5 -1 2 25 24 21 2 0.93144457D-03 0.55542663D+00 0.21857448D+05 0.21857448D+05 0.21857448D+05 0.12296023D+01  1  2  6  2  5  2        2 0.128407494156D+01 0.100000000000D+01
0.236663518036D-03 0.000000000000D+00 0.000000000000D+00 0.242709920800D-02 0.000000000000D+00  5 -1 21 25 24 -2 2 0.93144457D-03 0.99055337D+00 0.28844668D+05 0.28844668D+05 0.28844668D+05 0.12166925D+01  1  2 12  4  5  2        2 0.719377980957D-09 0.100000000000D+01
-.230908142139D-03 0.000000000000D+00 -.262588446841D-04 0.242709920800D-02 0.000000000000D+00  5 -1 21 25 24 -2 2 0.93144457D-03 0.98784758D+00 0.21857448D+05 0.21857448D+05 0.21857448D+05 0.12296023D+01  1  2  5  4  5  2        2 -.618028737773D-09 0.100000000000D+01
  </mgrwgt>
  </event>
  <event>
  4     66 0.45252658E-03 0.65676485E+02 0.75467711E-02 0.11429197E+00
       -1 -1    0    0    0  501 0.00000000E+00 0.00000000E+00 0.96935042E+02 0.96935570E+02 0.32000000E+00 0.0000E+00 0.9000E+01
        2 -1    0    0  501    0 0.00000000E+00 0.00000000E+00 -.45967423E+03 0.45967434E+03 0.32000000E+00 0.0000E+00 0.9000E+01
       25  1    1    2    0    0 0.11684851E+03 -.13255290E+02 -.37621145E+03 0.41350856E+03 0.12500000E+03 0.0000E+00 0.9000E+01
       24  1    1    2    0    0 -.11684851E+03 0.13255290E+02 0.13472262E+02 0.14310135E+03 0.80419002E+02 0.0000E+00 0.9000E+01
#aMCatNLO 1  0  0  1  2 0.90477623D+02 0.00000000D+00  -5  5  0 0.00000000D+00 0.00000000D+00 0.00000000D+00 0.00000000D+00 0.00000000D+00
  <mgrwgt>
 0.1684787387D+00    7    2    0
 0.211089361278471D+03 0.000000000000000D+00 0.000000000000000D+00 0.211089361278471D+03
 0.211089361278471D+03 0.000000000000000D+00 0.000000000000000D+00 -.211089361278471D+03
 0.221935222943603D+03 0.116848512030842D+03 -.132552901105483D+02 -.140715904230084D+03
 0.200243499613339D+03 -.116848512030842D+03 0.132552901105483D+02 0.140715904230084D+03
 0.000000000000000D+00 -.000000000000000D+00 0.000000000000000D+00 0.000000000000000D+00
 0.402116765671451D+03 0.000000000000000D+00 0.000000000000000D+00 0.402116765671451D+03
 0.226871652797791D+03 0.000000000000000D+00 0.000000000000000D+00 -.226871652797791D+03
 0.232801580326412D+03 0.122633393775386D+03 -.610873213548926D+02 -.140715904230084D+03
 0.198963487847659D+03 -.111770046427330D+03 -.287357714439236D+02 0.140715904230084D+03
 0.197223350295170D+03 -.108633473480560D+02 0.898230927988162D+02 0.175245112873661D+03
0.117398305926D-02 0.000000000000D+00 0.000000000000D+00 0.122663920144D-02 0.000000000000D+00  5 -1 2 25 24 21 0 0.14913133D-01 0.70719161D-01 0.24662857D+05 0.24662857D+05 0.24662857D+05 0.12239303D+01  1  2  2  1  5  1       -1 0.291708125802D+00 0.100000000000D+01
-.582848787441D-04 0.000000000000D+00 -.450840406441D-05 0.122663920144D-02 0.000000000000D+00  5 -1 2 25 24 21 2 0.14913133D-01 0.70719161D-01 0.24662857D+05 0.24662857D+05 0.24662857D+05 0.12239303D+01  1  2  3  1  5  1       -1 -.216948172100D-01 0.100000000000D+01
0.793289509885D-04 0.000000000000D+00 0.000000000000D+00 0.122663920144D-02 0.000000000000D+00  5 -1 2 25 24 21 2 0.14913133D-01 0.70719161D-01 0.24662857D+05 0.24662857D+05 0.24662857D+05 0.12239303D+01  1  2 15  1  5  1       -1 0.295278488733D-01 0.100000000000D+01
0.779478874242D-03 0.000000000000D+00 0.000000000000D+00 0.122663920144D-02 0.000000000000D+00  5 -1 2 25 24 21 2 0.28498934D-01 0.70719161D-01 0.43388705D+05 0.43388705D+05 0.43388705D+05 0.11984303D+01  1  2 12  1  5  1       -1 0.975874961558D-01 0.100000000000D+01
-.150617651479D-02 0.000000000000D+00 -.338127321132D-03 0.122663920144D-02 0.000000000000D+00  5 -1 2 25 24 21 2 0.30127313D-01 0.70719161D-01 0.24662857D+05 0.24662857D+05 0.24662857D+05 0.12239303D+01  1  2  5  1  5  1       -1 -.179019317610D+00 0.100000000000D+01
0.548140585304D-04 0.000000000000D+00 0.000000000000D+00 0.122663920144D-02 0.000000000000D+00  5 21 2 25 24 1 2 0.28498934D-01 0.70719161D-01 0.43388705D+05 0.43388705D+05 0.43388705D+05 0.11984303D+01  1  2 12  3  5  1       -1 0.789939969690D-01 0.100000000000D+01
-.941141855038D-04 0.000000000000D+00 -.257177936515D-04 0.122663920144D-02 0.000000000000D+00  5 21 2 25 24 1 2 0.30127313D-01 0.70719161D-01 0.24662857D+05 0.24662857D+05 0.24662857D+05 0.12239303D+01  1  2  5  3  5  1       -1 -.128624594295D+00 0.100000000000D+01
  </mgrwgt>
  </event>
  <event>
  4     66 0.45252658E-03 0.50553990E+02 0.75467711E-02 0.12295564E+00
       -1 -1    0    0    0  501 0.00000000E+00 0.00000000E+00 0.33458222E+03 0.33458238E+03 0.32000000E+00 0.0000E+00 0.9000E+01
        2 -1    0    0  501    0 0.00000000E+00 0.00000000E+00 -.48191523E+02 0.48192586E+02 0.32000000E+00 0.0000E+00 0.9000E+01
       25  1    1    2    0    0 0.14783538E+01 0.66774577E+02 0.20979142E+03 0.25317675E+03 0.12500000E+03 0.0000E+00 0.9000E+01
       24  1    1    2    0    0 -.14783538E+01 -.66774577E+02 0.76599284E+02 0.12959821E+03 0.80419002E+02 0.0000E+00 0.9000E+01
#aMCatNLO 1  0  0  1  2 0.10658538D+02 0.00000000D+00  -5  5  0 0.00000000D+00 0.00000000D+00 0.00000000D+00 0.00000000D+00 0.00000000D+00
  <mgrwgt>
 0.2721935948D+00    9    2    0
 0.126981335618796D+03 0.000000000000000D+00 0.000000000000000D+00 0.126981335618796D+03
 0.126981335618796D+03 0.000000000000000D+00 0.000000000000000D+00 -.126981335618796D+03
 0.145011119289370D+03 0.147835382816696D+01 0.667745770098996D+02 0.306951959215694D+02
 0.108951551948223D+03 -.147835382816696D+01 -.667745770098996D+02 -.306951959215694D+02
 0.000000000000000D+00 -.000000000000000D+00 0.000000000000000D+00 0.000000000000000D+00
 0.140208856514909D+03 0.000000000000000D+00 0.000000000000000D+00 0.140208856514909D+03
 0.129258540152552D+03 0.000000000000000D+00 0.000000000000000D+00 -.129258540152552D+03
 0.143103862465798D+03 0.553655051974678D+01 0.622966051106210D+02 0.306951959215694D+02
 0.111082374004009D+03 0.162089823049017D+01 -.701944121441216D+02 -.306951959215694D+02
 0.152811601976550D+02 -.715744875023695D+01 0.789780703350057D+01 0.109503163623576D+02
0.511750724783D-03 0.000000000000D+00 0.000000000000D+00 0.252773061087D-02 0.000000000000D+00  5 -1 2 25 24 21 0 0.51474282D-01 0.74141740D-02 0.15161420D+05 0.15161420D+05 0.15161420D+05 0.12472929D+01  1  2  2  1  5  1       -1 0.203011380747D+00 0.100000000000D+01
-.283978347543D-04 0.000000000000D+00 -.196525753023D-05 0.252773061087D-02 0.000000000000D+00  5 -1 2 25 24 21 2 0.51474282D-01 0.74141740D-02 0.15161420D+05 0.15161420D+05 0.15161420D+05 0.12472929D+01  1  2  3  1  5  1       -1 -.175260509331D-01 0.100000000000D+01
0.354128648742D-04 0.000000000000D+00 0.000000000000D+00 0.252773061087D-02 0.000000000000D+00  5 -1 2 25 24 21 2 0.51474282D-01 0.74141740D-02 0.15161420D+05 0.15161420D+05 0.15161420D+05 0.12472929D+01  1  2 15  1  5  1       -1 0.218554576023D-01 0.100000000000D+01
0.190714538131D-02 0.000000000000D+00 0.000000000000D+00 0.252773061087D-02 0.000000000000D+00  5 -1 2 25 24 21 2 0.57266868D-01 0.74141740D-02 0.16536524D+05 0.16536524D+05 0.16536524D+05 0.12430230D+01  1  2 12  1  5  1       -1 0.961801116189D+00 0.100000000000D+01
-.193835401140D-02 0.000000000000D+00 0.000000000000D+00 0.252773061087D-02 0.000000000000D+00  5 -1 2 25 24 21 2 0.51474282D-01 0.74141740D-02 0.15161420D+05 0.15161420D+05 0.15161420D+05 0.12472929D+01  1  2  4  1  5  1       -1 -.119627751285D+01 0.100000000000D+01
-.373345130283D-02 0.000000000000D+00 -.540615341560D-03 0.252773061087D-02 0.000000000000D+00  5 -1 2 25 24 21 2 0.57582678D-01 0.74141740D-02 0.15161420D+05 0.15161420D+05 0.15161420D+05 0.12472929D+01  1  2  5  1  5  1       -1 -.187179051235D+01 0.100000000000D+01
0.377370456079D-02 0.000000000000D+00 0.537233870279D-03 0.252773061087D-02 0.000000000000D+00  5 -1 2 25 24 21 2 0.51474282D-01 0.74141740D-02 0.15161420D+05 0.15161420D+05 0.15161420D+05 0.12472929D+01  1  2  6  1  5  1       -1 0.232898525226D+01 0.100000000000D+01
0.327372011621D-04 0.000000000000D+00 0.000000000000D+00 0.252773061087D-02 0.000000000000D+00  5 21 2 25 24 1 2 0.57266868D-01 0.74141740D-02 0.16536524D+05 0.16536524D+05 0.16536524D+05 0.12430230D+01  1  2 12  3  5  1       -1 0.163442014622D+00 0.100000000000D+01
-.646885370142D-04 0.000000000000D+00 -.968660677875D-05 0.252773061087D-02 0.000000000000D+00  5 21 2 25 24 1 2 0.57582678D-01 0.74141740D-02 0.15161420D+05 0.15161420D+05 0.15161420D+05 0.12472929D+01  1  2  5  3  5  1       -1 -.321307550500D+00 0.100000000000D+01
  </mgrwgt>
  </event>
  <event>
  4     66 0.45252658E-03 0.11460170E+03 0.75467711E-02 0.11878850E+00
       -3 -1    0    0    0  501 0.00000000E+00 0.00000000E+00 0.19326535E+02 0.19333002E+02 0.50000000E+00 0.0000E+00 0.9000E+01
        4 -1    0    0  501    0 0.00000000E+00 0.00000000E+00 -.70930977E+03 0.70931147E+03 0.15500000E+01 0.0000E+00 0.9000E+01
       25  1    1    2    0    0 0.49215235E+02 -.80249741E+01 -.32889646E+03 0.35536520E+03 0.12500000E+03 0.0000E+00 0.9000E+01
       24  1    1    2    0    0 -.49215235E+02 0.80249741E+01 -.36108677E+03 0.37327927E+03 0.80419002E+02 0.0000E+00 0.9000E+01
#aMCatNLO 1  0  0  2  1 0.79222439D+02 0.00000000D+00  -5  5  0 0.00000000D+00 0.00000000D+00 0.00000000D+00 0.00000000D+00 0.00000000D+00
  <mgrwgt>
 0.1477678582D-01    3    2    0
 0.117095999225971D+03 0.000000000000000D+00 0.000000000000000D+00 0.117095999225971D+03
 0.117095999225971D+03 0.000000000000000D+00 0.000000000000000D+00 -.117095999225971D+03
 0.136647871420932D+03 0.492152349483559D+02 -.802497408366146D+01 0.236875748823331D+02
 0.975441270310109D+02 -.492152349483559D+02 0.802497408366146D+01 -.236875748823331D+02
 0.000000000000000D+00 -.000000000000000D+00 0.000000000000000D+00 0.000000000000000D+00
 0.273569774901924D+03 0.000000000000000D+00 0.000000000000000D+00 0.273569774901924D+03
 0.134077845780966D+03 0.000000000000000D+00 0.000000000000000D+00 -.134077845780966D+03
 0.158828095222381D+03 0.867351859729898D+02 -.389521519610199D+02 0.236875748823331D+02
 0.884007198995985D+02 -.256036985199416D+02 -.114376895696002D+02 -.236875748823331D+02
 0.160418805560911D+03 -.611314874530482D+02 0.503898415306202D+02 0.139491929120958D+03
0.212572224920D-03 0.000000000000D+00 0.000000000000D+00 0.274159869787D-02 0.000000000000D+00  5 -3 4 25 24 21 0 0.29739408D-02 0.10912521D+00 0.13133550D+05 0.13133550D+05 0.13133550D+05 0.12544556D+01  1  2  2  2  5  2        4 0.144651618224D-01 0.100000000000D+01
-.118029113104D-04 0.000000000000D+00 -.816333315247D-06 0.274159869787D-02 0.000000000000D+00  5 -3 4 25 24 21 2 0.29739408D-02 0.10912521D+00 0.13133550D+05 0.13133550D+05 0.13133550D+05 0.12544556D+01  1  2  3  2  5  2        4 -.126391105142D-02 0.100000000000D+01
0.147129819346D-04 0.000000000000D+00 0.000000000000D+00 0.274159869787D-02 0.000000000000D+00  5 -3 4 25 24 21 2 0.29739408D-02 0.10912521D+00 0.13133550D+05 0.13133550D+05 0.13133550D+05 0.12544556D+01  1  2 15  2  5  2        4 0.157553505042D-02 0.100000000000D+01
  </mgrwgt>
  </event>
  <event>
  4     66 0.45252658E-03 0.11224624E+03 0.75467711E-02 0.12328656E+00
       -1 -1    0    0    0  501 0.00000000E+00 0.00000000E+00 0.52927555E+03 0.52927565E+03 0.32000000E+00 0.0000E+00 0.9000E+01
        2 -1    0    0  501    0 0.00000000E+00 0.00000000E+00 -.24514237E+02 0.24516326E+02 0.32000000E+00 0.0000E+00 0.9000E+01
       25  1    1    2    0    0 -.38644158E+02 -.21811957E+02 0.34329670E+03 0.36803092E+03 0.12500000E+03 0.0000E+00 0.9000E+01
       24  1    1    2    0    0 0.38644158E+02 0.21811957E+02 0.16146461E+03 0.18576105E+03 0.80419002E+02 0.0000E+00 0.9000E+01
#aMCatNLO 1  0  0  2  1 0.26722153D+02 0.00000000D+00  -5  5  0 0.00000000D+00 0.00000000D+00 0.00000000D+00 0.00000000D+00 0.00000000D+00
  <mgrwgt>
 0.2773596128D+00    4    2    0
 0.113909576586167D+03 0.000000000000000D+00 0.000000000000000D+00 0.113909576586167D+03
 0.113909576586167D+03 0.000000000000000D+00 0.000000000000000D+00 -.113909576586167D+03
 0.134008378460613D+03 -.386441575700746D+02 -.218119569990215D+02 0.190817482221862D+02
 0.938107747117215D+02 0.386441575700746D+02 0.218119569990215D+02 -.190817482221862D+02
 0.000000000000000D+00 -.000000000000000D+00 -.000000000000000D+00 0.000000000000000D+00
 0.173624291828375D+03 0.000000000000000D+00 0.000000000000000D+00 0.173624291828375D+03
 0.117719630626738D+03 0.000000000000000D+00 0.000000000000000D+00 -.117719630626738D+03
 0.130581803793293D+03 -.315857132768871D+02 -.805214775605425D+01 0.190817482221862D+02
 0.987991893527255D+02 0.437823931995325D+02 0.318284902703820D+02 -.190817482221862D+02
 0.619629293090949D+02 -.121966799226454D+02 -.237763425143278D+02 0.559046612016369D+02
0.773449205771D-03 0.000000000000D+00 0.000000000000D+00 0.284287193104D-02 0.000000000000D+00  5 -1 2 25 24 21 0 0.81427176D-01 0.37715892D-02 0.12599217D+05 0.12599217D+05 0.12599217D+05 0.12565514D+01  1  2  2  2  5  2        2 0.301547979712D+00 0.100000000000D+01
-.429580955071D-04 0.000000000000D+00 -.297024860401D-05 0.284287193104D-02 0.000000000000D+00  5 -1 2 25 24 21 2 0.81427176D-01 0.37715892D-02 0.12599217D+05 0.12599217D+05 0.12599217D+05 0.12565514D+01  1  2  3  2  5  2        2 -.264441853865D-01 0.100000000000D+01
0.535080959663D-04 0.000000000000D+00 0.000000000000D+00 0.284287193104D-02 0.000000000000D+00  5 -1 2 25 24 21 2 0.81427176D-01 0.37715892D-02 0.12599217D+05 0.12599217D+05 0.12599217D+05 0.12565514D+01  1  2 15  2  5  2        2 0.329385647271D-01 0.100000000000D+01
-.498435601348D-04 0.000000000000D+00 0.000000000000D+00 0.284287193104D-02 0.000000000000D+00  5 -1 2 25 24 21 2 0.81427176D-01 0.37715892D-02 0.12599217D+05 0.12599217D+05 0.12599217D+05 0.12565514D+01  1  2  4  2  5  2        2 -.306827462664D-01 0.100000000000D+01
  </mgrwgt>
  </event>
  <event>
  4     66 0.45252658E-03 0.80022326E+02 0.75467711E-02 0.12219299E+00
       -1 -1    0    0    0  501 0.00000000E+00 0.00000000E+00 0.57351376E+03 0.57351385E+03 0.32000000E+00 0.0000E+00 0.9000E+01
        2 -1    0    0  501    0 0.00000000E+00 0.00000000E+00 -.36947591E+02 0.36948976E+02 0.32000000E+00 0.0000E+00 0.9000E+01
       25  1    1    2    0    0 -.13044506E+02 0.56645383E+02 0.12167669E+03 0.18387244E+03 0.12500000E+03 0.0000E+00 0.9000E+01
       24  1    1    2    0    0 0.13044506E+02 -.56645383E+02 0.41488947E+03 0.42659038E+03 0.80419002E+02 0.0000E+00 0.9000E+01
#aMCatNLO 1  0  0  2  1 0.29576340D+02 0.00000000D+00  -5  5  0 0.00000000D+00 0.00000000D+00 0.00000000D+00 0.00000000D+00 0.00000000D+00
  <mgrwgt>
 0.3069752607D+00    6    2    0
 0.145569233489530D+03 0.000000000000000D+00 0.000000000000000D+00 0.145569233489530D+03
 0.145569233489530D+03 0.000000000000000D+00 0.000000000000000D+00 -.145569233489530D+03
 0.161296773963060D+03 -.130445058832889D+02 0.566453826024510D+02 -.837424073392526D+02
 0.129841693016000D+03 0.130445058832889D+02 -.566453826024510D+02 0.837424073392526D+02
 0.000000000000000D+00 0.000000000000000D+00 -.000000000000000D+00 0.000000000000000D+00
 0.161544466568957D+03 0.000000000000000D+00 0.000000000000000D+00 0.161544466568957D+03
 0.160681383542076D+03 0.000000000000000D+00 0.000000000000000D+00 -.160681383542076D+03
 0.167682582850763D+03 -.220683388903795D+02 0.706586599303239D+02 -.837424073392526D+02
 0.124954336964017D+03 0.605550557738066D+01 -.457920346455103D+02 0.837424073392526D+02
 0.295889302962528D+02 0.160128333129988D+02 -.248666252848136D+02 0.863083026880767D+00
0.111712109372D-02 0.000000000000D+00 0.000000000000D+00 0.171134892278D-02 0.000000000000D+00  5 -1 2 25 24 21 0 0.88232999D-01 0.56843582D-02 0.14051953D+05 0.14051953D+05 0.14051953D+05 0.12510680D+01  1  2  2  2  5  2        2 0.216490481082D+00 0.100000000000D+01
-.588789471260D-04 0.000000000000D+00 -.429003914462D-05 0.171134892278D-02 0.000000000000D+00  5 -1 2 25 24 21 2 0.88232999D-01 0.56843582D-02 0.14051953D+05 0.14051953D+05 0.14051953D+05 0.12510680D+01  1  2  3  2  5  2        2 -.178591348965D-01 0.100000000000D+01
0.761312006966D-04 0.000000000000D+00 0.000000000000D+00 0.171134892278D-02 0.000000000000D+00  5 -1 2 25 24 21 2 0.88232999D-01 0.56843582D-02 0.14051953D+05 0.14051953D+05 0.14051953D+05 0.12510680D+01  1  2 15  2  5  2        2 0.230920804369D-01 0.100000000000D+01
0.114176808566D-02 0.000000000000D+00 0.000000000000D+00 0.171134892278D-02 0.000000000000D+00  5 -1 2 25 24 21 2 0.88232999D-01 0.65548460D-02 0.17901267D+05 0.17901267D+05 0.17901267D+05 0.12391620D+01  1  2 12  2  5  2        2 0.284419794806D+00 0.100000000000D+01
-.922175305833D-03 0.000000000000D+00 0.000000000000D+00 0.171134892278D-02 0.000000000000D+00  5 -1 2 25 24 21 2 0.88232999D-01 0.56843582D-02 0.14051953D+05 0.14051953D+05 0.14051953D+05 0.12510680D+01  1  2  4  2  5  2        2 -.279713785470D+00 0.100000000000D+01
0.249788034840D-04 0.000000000000D+00 0.000000000000D+00 0.171134892278D-02 0.000000000000D+00  5 -1 21 25 24 -2 2 0.88232999D-01 0.65548460D-02 0.17901267D+05 0.17901267D+05 0.17901267D+05 0.12391620D+01  1  2 12  4  5  2        2 0.805458247105D-01 0.100000000000D+01
  </mgrwgt>
  </event>
  <event>
  5     66 0.45252658E-03 0.21610619E+03 0.75467711E-02 0.10883688E+00
       -1 -1    0    0    0  502 0.00000000E+00 0.00000000E+00 0.91735897E+02 0.91736455E+02 0.32000000E+00 0.0000E+00 0.9000E+01
        2 -1    0    0  501    0 0.00000000E+00 0.00000000E+00 -.18134592E+04 0.18134592E+04 0.32000000E+00 0.0000E+00 0.9000E+01
       25  1    1    2    0    0 -.14288718E+03 0.70267494E+01 -.98787362E+03 0.10059749E+04 0.12500000E+03 0.0000E+00 0.9000E+01
       24  1    1    2    0    0 0.23069576E+03 0.95830102E+02 -.71627996E+03 0.76284215E+03 0.80419002E+02 0.0000E+00 0.9000E+01
       21  1    1    2  501  502 -.87808579E+02 -.10285685E+03 -.17569686E+02 0.13637865E+03 0.75000000E+00 0.0000E+00 0.9000E+01
#aMCatNLO 2  0  0  1  2 0.13524008D+03 0.00000000D+00  -5  5  0 0.00000000D+00 0.00000000D+00 0.00000000D+00 0.00000000D+00 0.00000000D+00
  <mgrwgt>
 0.1099416388D+00    2    2    0
 0.227092646847277D+03 0.000000000000000D+00 0.000000000000000D+00 0.227092646847277D+03
 0.227092646847277D+03 0.000000000000000D+00 0.000000000000000D+00 -.227092646847277D+03
 0.237174197453128D+03 -.184473027189614D+03 -.416859085320015D+02 -.697035666727098D+02
 0.217011096241427D+03 0.184473027189614D+03 0.416859085320015D+02 0.697035666727098D+02
 0.000000000000000D+00 -.000000000000000D+00 -.000000000000000D+00 0.000000000000000D+00
 0.672297321057272D+03 0.000000000000000D+00 0.000000000000000D+00 0.672297321057272D+03
 0.247449229287731D+03 0.000000000000000D+00 0.000000000000000D+00 -.247449229287731D+03
 0.202360343626334D+03 -.142887180176328D+03 0.702674938563392D+01 -.697035666727098D+02
 0.271532217575844D+03 0.230695759669006D+03 0.958301022180816D+02 0.697035666727098D+02
 0.445853989142825D+03 -.878085794926781D+02 -.102856851603715D+03 0.424848091769541D+03
-.989818279569D-03 0.000000000000D+00 0.000000000000D+00 0.190902883814D-02 0.000000000000D+00  5 -1 2 25 24 21 2 0.13845180D-01 0.25604183D+00 0.86333090D+05 0.86333090D+05 0.86333090D+05 0.11694805D+01  1  2 13  1  5  1       -1 -.628241176885D-01 0.100000000000D+01
0.336461105698D-02 0.000000000000D+00 0.000000000000D+00 0.190902883814D-02 0.135527624127D-05  5 -1 2 25 24 21 2 0.14113243D-01 0.27899342D+00 0.86333090D+05 0.86333090D+05 0.86333090D+05 0.11694805D+01  1  2  1  1  5  1       -1 0.172765756529D+00 0.100000000000D+01
  </mgrwgt>
  </event>
  <event>
  5     66 0.45252658E-03 0.11363638E+03 0.75467711E-02 0.12215916E+00
       -1 -1    0    0    0  502 0.00000000E+00 0.00000000E+00 0.24961879E+02 0.24963930E+02 0.32000000E+00 0.0000E+00 0.9000E+01
        2 -1    0    0  501    0 0.00000000E+00 0.00000000E+00 -.91939353E+03 0.91939358E+03 0.32000000E+00 0.0000E+00 0.9000E+01
       25  1    1    2    0    0 0.29730195E+02 0.15200444E+02 -.21523261E+03 0.25112749E+03 0.12500000E+03 0.0000E+00 0.9000E+01
       24  1    1    2    0    0 -.61554280E+02 0.42915928E+01 -.50652232E+03 0.51656502E+03 0.80419002E+02 0.0000E+00 0.9000E+01
       21  1    1    2  501  502 0.31824085E+02 -.19492037E+02 -.17267671E+03 0.17666500E+03 0.75000000E+00 0.0000E+00 0.9000E+01
#aMCatNLO 2  0  0  1  2 0.37319056D+02 0.00000000D+00  -5  5  0 0.00000000D+00 0.00000000D+00 0.00000000D+00 0.00000000D+00 0.00000000D+00
  <mgrwgt>
 0.9131804519D-01    1    2    0
 0.129449699492871D+03 0.000000000000000D+00 0.000000000000000D+00 0.129449699492871D+03
 0.129449699492871D+03 0.000000000000000D+00 0.000000000000000D+00 -.129449699492871D+03
 0.147135688880073D+03 0.474792908242636D+02 0.432924318145258D+01 0.612444735344698D+02
 0.111763710105669D+03 -.474792908242636D+02 -.432924318145258D+01 -.612444735344698D+02
 0.000000000000000D+00 0.000000000000000D+00 -.000000000000000D+00 -.000000000000000D+00
 0.142139334555057D+03 0.000000000000000D+00 0.000000000000000D+00 0.142139334555057D+03
 0.161459476909133D+03 0.000000000000000D+00 0.000000000000000D+00 -.161459476909133D+03
 0.143146161463939D+03 0.297301949769781D+02 0.152004444006238D+02 0.612444735344698D+02
 0.118429087218811D+03 -.615542804187732D+02 0.429159279555619D+01 -.612444735344698D+02
 0.420235627814406D+02 0.318240854417951D+02 -.194920371961800D+02 -.193201423540755D+02
0.702019818223D-04 0.000000000000D+00 0.000000000000D+00 0.210853419791D-02 0.128650461207D-04  5 -1 2 25 24 21 2 0.38403640D-02 0.14144211D+00 0.17964776D+05 0.17964776D+05 0.17964776D+05 0.12389904D+01  1  2  1  1  5  1       -1 0.913180451907D-01 0.100000000000D+01
  </mgrwgt>
  </event>
  <event>
  5     66 0.45252658E-03 0.14062152E+03 0.75467711E-02 0.11707761E+00
       21 -1    0    0  502  501 0.00000000E+00 0.00000000E+00 0.17298144E+02 0.17314395E+02 0.75000000E+00 0.0000E+00 0.9000E+01
        2 -1    0    0  501    0 0.00000000E+00 0.00000000E+00 -.18140182E+04 0.18140182E+04 0.32000000E+00 0.0000E+00 0.9000E+01
       25  1    1    2    0    0 -.19795830E+02 0.11699892E+03 -.84066023E+03 0.85814640E+03 0.12500000E+03 0.0000E+00 0.9000E+01
       24  1    1    2    0    0 -.32227100E+02 -.77665201E+02 -.59042277E+03 0.60177797E+03 0.80419002E+02 0.0000E+00 0.9000E+01
        1  1    1    2  502    0 0.52022930E+02 -.39333719E+02 -.36563704E+03 0.37140823E+03 0.32000000E+00 0.0000E+00 0.9000E+01
#aMCatNLO 2  0  0  1  2 0.65219067D+02 0.00000000D+00  -5  5  0 0.00000000D+00 0.00000000D+00 0.00000000D+00 0.00000000D+00 0.00000000D+00
  <mgrwgt>
 0.1428996009D+00    1    2    0
 0.140647703801553D+03 0.000000000000000D+00 0.000000000000000D+00 0.140647703801553D+03
 0.140647703801553D+03 0.000000000000000D+00 0.000000000000000D+00 -.140647703801553D+03
 0.156925580720452D+03 0.102560415427364D+02 0.942771734781632D+02 0.269556251883006D+01
 0.124369826882655D+03 -.102560415427364D+02 -.942771734781632D+02 -.269556251883006D+01
 0.000000000000000D+00 0.000000000000000D+00 -.000000000000000D+00 -.000000000000000D+00
 0.173268443418476D+03 0.000000000000000D+00 0.000000000000000D+00 0.173268443418476D+03
 0.181186577755643D+03 0.000000000000000D+00 0.000000000000000D+00 -.181186577755643D+03
 0.172374268329092D+03 -.197958298845316D+02 0.116998920695362D+03 0.269556251883006D+01
 0.116382780230541D+03 -.322271004898566D+02 -.776652014517669D+02 -.269556251883006D+01
 0.656979726144865D+02 0.520229303743882D+02 -.393337192435951D+02 -.791813433716662D+01
0.104543999254D-04 0.000000000000D+00 0.000000000000D+00 0.249338734208D-02 0.185017933491D-06  5 21 2 25 24 1 2 0.26624994D-02 0.27908036D+00 0.31315517D+05 0.31315517D+05 0.31315517D+05 0.12129471D+01  1  2  1  3  5  1       -1 0.142899600924D+00 0.100000000000D+01
  </mgrwgt>
  </event>
  <event>
  5     66 0.45252658E-03 0.10692147E+03 0.75467711E-02 0.12040445E+00
       21 -1    0    0  502  501 0.00000000E+00 0.00000000E+00 0.69312718E+02 0.69316776E+02 0.75000000E+00 0.0000E+00 0.9000E+01
        2 -1    0    0  501    0 0.00000000E+00 0.00000000E+00 -.43180266E+03 0.43180278E+03 0.32000000E+00 0.0000E+00 0.9000E+01
       25  1    1    2    0    0 -.28471936E+02 0.25581430E+02 -.24245602E+03 0.27545414E+03 0.12500000E+03 0.0000E+00 0.9000E+01
       24  1    1    2    0    0 -.40922846E+02 -.26791502E+02 -.12454538E+03 0.15611288E+03 0.80419002E+02 0.0000E+00 0.9000E+01
        1  1    1    2  502    0 0.69394782E+02 0.12100718E+01 0.45114550E+01 0.69552539E+02 0.32000000E+00 0.0000E+00 0.9000E+01
#aMCatNLO 2  0  0  1  2 0.69405331D+02 0.00000000D+00  -5  5  0 0.00000000D+00 0.00000000D+00 0.00000000D+00 0.00000000D+00 0.00000000D+00
  <mgrwgt>
 0.1753771022D+00    2    2    0
 0.108100605958307D+03 0.000000000000000D+00 0.000000000000000D+00 0.108100605958307D+03
 0.108100605958307D+03 0.000000000000000D+00 0.000000000000000D+00 -.108100605958307D+03
 0.129279451267374D+03 0.123782608305851D+02 0.262937554783406D+02 -.156074854364331D+02
 0.869217606492400D+02 -.123782608305851D+02 -.262937554783406D+02 0.156074854364331D+02
 0.000000000000000D+00 0.000000000000000D+00 0.000000000000000D+00 0.000000000000000D+00
 0.243770311258251D+03 0.000000000000000D+00 0.000000000000000D+00 0.243770311258251D+03
 0.122781066135834D+03 0.000000000000000D+00 0.000000000000000D+00 -.122781066135834D+03
 0.131657336698762D+03 -.284719360817482D+02 0.255814299975503D+02 -.156074854364331D+02
 0.954110759912450D+02 -.409228456643447D+02 -.267915017966583D+02 0.156074854364331D+02
 0.139482964704079D+03 0.693947817460929D+02 0.121007179910803D+01 0.120989245122417D+03
-.452959219063D-05 0.000000000000D+00 0.000000000000D+00 0.301231901288D-02 0.000000000000D+00  5 21 2 25 24 1 2 0.10590703D-01 0.58488459D-01 0.21647261D+05 0.21647261D+05 0.21647261D+05 0.12300597D+01  1  2 13  3  5  1       -1 -.526524422184D-01 0.100000000000D+01
0.227641074930D-04 0.000000000000D+00 0.000000000000D+00 0.301231901288D-02 0.768031300912D-06  5 21 2 25 24 1 2 0.10663801D-01 0.66431407D-01 0.21647261D+05 0.21647261D+05 0.21647261D+05 0.12300597D+01  1  2  1  3  5  1       -1 0.228029544407D+00 0.100000000000D+01
  </mgrwgt>
  </event>
  <event>
  4     66 0.45252658E-03 0.10748532E+03 0.75467711E-02 0.11325696E+00
       -1 -1    0    0    0  501 0.00000000E+00 0.00000000E+00 0.50220260E+02 0.50221280E+02 0.32000000E+00 0.0000E+00 0.9000E+01
        2 -1    0    0  501    0 0.00000000E+00 0.00000000E+00 -.73349666E+03 0.73349673E+03 0.32000000E+00 0.0000E+00 0.9000E+01
       25  1    1    2    0    0 0.78913387E+02 0.13590019E+03 -.29106846E+03 0.35361283E+03 0.12500000E+03 0.0000E+00 0.9000E+01
       24  1    1    2    0    0 -.78913387E+02 -.13590019E+03 -.39220794E+03 0.43010518E+03 0.80419002E+02 0.0000E+00 0.9000E+01
#aMCatNLO 1  0  0  2  1 0.61415731D+02 0.00000000D+00  -5  5  0 0.00000000D+00 0.00000000D+00 0.00000000D+00 0.00000000D+00 0.00000000D+00
  <mgrwgt>
 0.6395647283D+00    9    2    0
 0.191929205616891D+03 0.000000000000000D+00 0.000000000000000D+00 0.191929205616891D+03
 0.191929205616891D+03 0.000000000000000D+00 0.000000000000000D+00 -.191929205616891D+03
 0.203857801913888D+03 0.789133872091547D+02 0.135900187346749D+03 0.351684489202848D+02
 0.180000609319893D+03 -.789133872091547D+02 -.135900187346749D+03 -.351684489202848D+02
 0.000000000000000D+00 0.000000000000000D+00 -.000000000000000D+00 -.000000000000000D+00
 0.215816292201233D+03 0.000000000000000D+00 0.000000000000000D+00 0.215816292201233D+03
 0.238339800303194D+03 0.000000000000000D+00 0.000000000000000D+00 -.238339800303194D+03
 0.227318758731355D+03 0.766645212391460D+02 0.170101585691838D+03 0.351684489202848D+02
 0.161421735609973D+03 -.806941266161493D+02 -.108818191967904D+03 -.351684489202848D+02
 0.654155981630998D+02 0.402960537700328D+01 -.612833937239338D+02 -.225235081019606D+02
0.100843058568D-02 0.000000000000D+00 0.000000000000D+00 0.211955558210D-02 0.000000000000D+00  5 -1 2 25 24 21 0 0.77262777D-02 0.11284572D+00 0.35595036D+05 0.35595036D+05 0.35595036D+05 0.12071801D+01  1  2  2  2  5  2        2 0.407012589531D+00 0.100000000000D+01
-.560038964095D-04 0.000000000000D+00 -.387263897487D-05 0.211955558210D-02 0.000000000000D+00  5 -1 2 25 24 21 2 0.77262777D-02 0.11284572D+00 0.35595036D+05 0.35595036D+05 0.35595036D+05 0.12071801D+01  1  2  3  2  5  2        2 -.329400468161D-01 0.100000000000D+01
0.693824674213D-04 0.000000000000D+00 0.000000000000D+00 0.211955558210D-02 0.000000000000D+00  5 -1 2 25 24 21 2 0.77262777D-02 0.11284572D+00 0.35595036D+05 0.35595036D+05 0.35595036D+05 0.12071801D+01  1  2 15  2  5  2        2 0.408089770819D-01 0.100000000000D+01
0.830819111919D-03 0.000000000000D+00 0.000000000000D+00 0.211955558210D-02 0.000000000000D+00  5 -1 2 25 24 21 2 0.77262777D-02 0.14580338D+00 0.49182311D+05 0.49182311D+05 0.49182311D+05 0.11929916D+01  1  2 12  2  5  2        2 0.344344200510D+00 0.100000000000D+01
-.869538683801D-03 0.000000000000D+00 0.000000000000D+00 0.211955558210D-02 0.000000000000D+00  5 -1 2 25 24 21 2 0.77262777D-02 0.11284572D+00 0.35595036D+05 0.35595036D+05 0.35595036D+05 0.12071801D+01  1  2  4  2  5  2        2 -.511440217362D+00 0.100000000000D+01
-.177170172882D-02 0.000000000000D+00 -.576813001763D-03 0.211955558210D-02 0.000000000000D+00  5 -1 2 25 24 21 2 0.77262777D-02 0.15202971D+00 0.35595036D+05 0.35595036D+05 0.35595036D+05 0.12071801D+01  1  2  5  2  5  2        2 -.708008874394D+00 0.100000000000D+01
0.188402279712D-02 0.000000000000D+00 0.552107301123D-03 0.211955558210D-02 0.000000000000D+00  5 -1 2 25 24 21 2 0.77262777D-02 0.11284572D+00 0.35595036D+05 0.35595036D+05 0.35595036D+05 0.12071801D+01  1  2  6  2  5  2        2 0.110813359638D+01 0.100000000000D+01
0.286324984236D-04 0.000000000000D+00 0.000000000000D+00 0.211955558210D-02 0.000000000000D+00  5 -1 21 25 24 -2 2 0.77262777D-02 0.14580338D+00 0.49182311D+05 0.49182311D+05 0.49182311D+05 0.11929916D+01  1  2 12  4  5  2        2 0.104922138203D-01 0.100000000000D+01
-.553612624719D-04 0.000000000000D+00 -.221922524954D-04 0.211955558210D-02 0.000000000000D+00  5 -1 21 25 24 -2 2 0.77262777D-02 0.15202971D+00 0.35595036D+05 0.35595036D+05 0.35595036D+05 0.12071801D+01  1  2  5  4  5  2        2 -.188377104930D-01 0.100000000000D+01
  </mgrwgt>
  </event>
  <event>
  4     66 0.45252658E-03 0.62733967E+02 0.75467711E-02 0.12572715E+00
       -1 -1    0    0    0  501 0.00000000E+00 0.00000000E+00 0.27520560E+02 0.27522420E+02 0.32000000E+00 0.0000E+00 0.9000E+01
        2 -1    0    0  501    0 0.00000000E+00 0.00000000E+00 -.48074692E+03 0.48074703E+03 0.32000000E+00 0.0000E+00 0.9000E+01
       25  1    1    2    0    0 -.42771784E+01 -.36186621E+02 -.34403912E+03 0.36785280E+03 0.12500000E+03 0.0000E+00 0.9000E+01
       24  1    1    2    0    0 0.42771784E+01 0.36186621E+02 -.10918724E+03 0.14041665E+03 0.80419002E+02 0.0000E+00 0.9000E+01
#aMCatNLO 1  0  0  1  2 0.50196230D+01 0.00000000D+00  -5  5  0 0.00000000D+00 0.00000000D+00 0.00000000D+00 0.00000000D+00 0.00000000D+00
  <mgrwgt>
 0.8798383721D-01   11    2    0
 0.115025754914762D+03 0.000000000000000D+00 0.000000000000000D+00 0.115025754914762D+03
 0.115025754914762D+03 0.000000000000000D+00 0.000000000000000D+00 -.115025754914762D+03
 0.134929523536875D+03 -.427717835977932D+01 -.361866208562008D+02 -.354007138088543D+02
 0.951219862926481D+02 0.427717835977932D+01 0.361866208562008D+02 0.354007138088543D+02
 0.000000000000000D+00 -.000000000000000D+00 -.000000000000000D+00 0.000000000000000D+00
 0.128386907443146D+03 0.000000000000000D+00 0.000000000000000D+00 0.128386907443146D+03
 0.115525554066141D+03 0.000000000000000D+00 0.000000000000000D+00 -.115525554066141D+03
 0.134170807894596D+03 -.363374237312502D+01 -.333225309554634D+02 -.354007138088543D+02
 0.959354584049648D+02 0.473400884669369D+01 0.382200843413934D+02 0.354007138088543D+02
 0.138061952097265D+02 -.110026647356868D+01 -.489755338592999D+01 0.128613533770043D+02
0.148508295511D-03 0.000000000000D+00 0.000000000000D+00 0.265338082518D-02 0.000000000000D+00  5 -1 2 25 24 21 0 0.42340836D-02 0.73961216D-01 0.11934686D+05 0.11934686D+05 0.11934686D+05 0.12593020D+01  1  2  2  1  5  1       -1 0.230473707118D+00 0.100000000000D+01
-.822379944633D-05 0.000000000000D+00 -.570310957895D-06 0.265338082518D-02 0.000000000000D+00  5 -1 2 25 24 21 2 0.42340836D-02 0.73961216D-01 0.11934686D+05 0.11934686D+05 0.11934686D+05 0.12593020D+01  1  2  3  1  5  1       -1 -.202396483951D-01 0.100000000000D+01
0.102534315589D-04 0.000000000000D+00 0.000000000000D+00 0.265338082518D-02 0.000000000000D+00  5 -1 2 25 24 21 2 0.42340836D-02 0.73961216D-01 0.11934686D+05 0.11934686D+05 0.11934686D+05 0.12593020D+01  1  2 15  1  5  1       -1 0.252347897040D-01 0.100000000000D+01
0.881415972059D-03 0.000000000000D+00 0.000000000000D+00 0.265338082518D-02 0.000000000000D+00  5 -1 2 25 24 21 2 0.47344664D-02 0.73961216D-01 0.12499353D+05 0.12499353D+05 0.12499353D+05 0.12569542D+01  1  2 12  1  5  1       -1 0.183828153675D+01 0.100000000000D+01
-.219764456916D-02 0.000000000000D+00 0.000000000000D+00 0.265338082518D-02 0.000000000000D+00  5 -1 2 25 24 21 2 0.42340836D-02 0.73961216D-01 0.11934686D+05 0.11934686D+05 0.11934686D+05 0.12593020D+01  1  2  4  1  5  1       -1 -.540863790119D+01 0.100000000000D+01
-.272050685562D-02 0.000000000000D+00 -.162497401486D-03 0.265338082518D-02 0.000000000000D+00  5 -1 2 25 24 21 2 0.47442672D-02 0.73961216D-01 0.11934686D+05 0.11934686D+05 0.11934686D+05 0.12593020D+01  1  2  5  1  5  1       -1 -.566734948816D+01 0.100000000000D+01
0.272240231239D-02 0.000000000000D+00 0.161451390535D-03 0.265338082518D-02 0.000000000000D+00  5 -1 2 25 24 21 2 0.42340836D-02 0.73961216D-01 0.11934686D+05 0.11934686D+05 0.11934686D+05 0.12593020D+01  1  2  6  1  5  1       -1 0.670012272944D+01 0.100000000000D+01
0.131799235422D-02 0.000000000000D+00 0.000000000000D+00 0.265338082518D-02 0.893089700520D-03  5 -1 2 25 24 21 2 0.47259060D-02 0.74282585D-01 0.12499353D+05 0.12499353D+05 0.12499353D+05 0.12569542D+01  1  2 11  1  5  1       -1 0.274320260041D+01 0.100000000000D+01
0.157406137978D-04 0.000000000000D+00 0.000000000000D+00 0.265338082518D-02 0.000000000000D+00  5 21 2 25 24 1 2 0.47344664D-02 0.73961216D-01 0.12499353D+05 0.12499353D+05 0.12499353D+05 0.12569542D+01  1  2 12  3  5  1       -1 0.583939773900D+00 0.100000000000D+01
-.486650908845D-04 0.000000000000D+00 -.294747994737D-05 0.265338082518D-02 0.000000000000D+00  5 21 2 25 24 1 2 0.47442672D-02 0.73961216D-01 0.11934686D+05 0.11934686D+05 0.11934686D+05 0.12593020D+01  1  2  5  3  5  1       -1 -.180375197279D+01 0.100000000000D+01
0.234021139014D-04 0.000000000000D+00 0.000000000000D+00 0.265338082518D-02 0.157346556713D-04  5 21 2 25 24 1 2 0.47259060D-02 0.74282585D-01 0.12499353D+05 0.12499353D+05 0.12499353D+05 0.12569542D+01  1  2 11  3  5  1       -1 0.866707710420D+00 0.100000000000D+01
  </mgrwgt>
  </event>
  <event>
  4     66 0.45252658E-03 0.53928519E+02 0.75467711E-02 0.12066655E+00
       -1 -1    0    0    0  501 0.00000000E+00 0.00000000E+00 0.67280692E+02 0.67281453E+02 0.32000000E+00 0.0000E+00 0.9000E+01
        2 -1    0    0  501    0 0.00000000E+00 0.00000000E+00 -.33163734E+03 0.33163749E+03 0.32000000E+00 0.0000E+00 0.9000E+01
       25  1    1    2    0    0 -.61458092E+02 -.53992206E+02 -.23834399E+03 0.28129187E+03 0.12500000E+03 0.0000E+00 0.9000E+01
       24  1    1    2    0    0 0.61458092E+02 0.53992206E+02 -.26012653E+02 0.11762708E+03 0.80419002E+02 0.0000E+00 0.9000E+01
#aMCatNLO 1  0  0  1  2 0.25217184D+02 0.00000000D+00  -5  5  0 0.00000000D+00 0.00000000D+00 0.00000000D+00 0.00000000D+00 0.00000000D+00
  <mgrwgt>
 0.3991968765D+00    9    2    0
 0.149375272464577D+03 0.000000000000000D+00 0.000000000000000D+00 0.149375272464577D+03
 0.149375272464577D+03 0.000000000000000D+00 0.000000000000000D+00 -.149375272464577D+03
 0.164702079730822D+03 -.614580915212204D+02 -.539922057129648D+02 -.693507013409098D+02
 0.134048465198332D+03 0.614580915212204D+02 0.539922057129648D+02 0.693507013409098D+02
 0.000000000000000D+00 0.000000000000000D+00 0.000000000000000D+00 0.000000000000000D+00
 0.162934462526637D+03 0.000000000000000D+00 0.000000000000000D+00 0.162934462526637D+03
 0.162109156109055D+03 0.000000000000000D+00 0.000000000000000D+00 -.162109156109055D+03
 0.170273993590863D+03 -.626704251816533D+02 -.680524130685744D+02 -.693507013409098D+02
 0.129538938899003D+03 0.605041252295849D+02 0.429284496626145D+02 0.693507013409098D+02
 0.252306861458274D+02 0.216629995206842D+01 0.251239634059599D+02 0.825306417581870D+00
0.457408207383D-03 0.000000000000D+00 0.000000000000D+00 0.193920564564D-02 0.000000000000D+00  5 -1 2 25 24 21 0 0.10350946D-01 0.51021199D-01 0.17437777D+05 0.17437777D+05 0.17437777D+05 0.12404351D+01  1  2  2  1  5  1       -1 0.281717273086D+00 0.100000000000D+01
-.249421163511D-04 0.000000000000D+00 -.175656795470D-05 0.193920564564D-02 0.000000000000D+00  5 -1 2 25 24 21 2 0.10350946D-01 0.51021199D-01 0.17437777D+05 0.17437777D+05 0.17437777D+05 0.12404351D+01  1  2  3  1  5  1       -1 -.236369219598D-01 0.100000000000D+01
0.314545231815D-04 0.000000000000D+00 0.000000000000D+00 0.193920564564D-02 0.000000000000D+00  5 -1 2 25 24 21 2 0.10350946D-01 0.51021199D-01 0.17437777D+05 0.17437777D+05 0.17437777D+05 0.12404351D+01  1  2 15  1  5  1       -1 0.298085414750D-01 0.100000000000D+01
0.443454012365D-03 0.000000000000D+00 0.000000000000D+00 0.193920564564D-02 0.000000000000D+00  5 -1 2 25 24 21 2 0.11694194D-01 0.51021199D-01 0.21045239D+05 0.21045239D+05 0.21045239D+05 0.12313978D+01  1  2 12  1  5  1       -1 0.345199205880D+00 0.100000000000D+01
-.361042376371D-03 0.000000000000D+00 0.000000000000D+00 0.193920564564D-02 0.000000000000D+00  5 -1 2 25 24 21 2 0.10350946D-01 0.51021199D-01 0.17437777D+05 0.17437777D+05 0.17437777D+05 0.12404351D+01  1  2  4  1  5  1       -1 -.342149413239D+00 0.100000000000D+01
-.127794671461D-02 0.000000000000D+00 -.349937448478D-03 0.193920564564D-02 0.000000000000D+00  5 -1 2 25 24 21 2 0.12235215D-01 0.51021199D-01 0.17437777D+05 0.17437777D+05 0.17437777D+05 0.12404351D+01  1  2  5  1  5  1       -1 -.936763562068D+00 0.100000000000D+01
0.132276614419D-02 0.000000000000D+00 0.345100079648D-03 0.193920564564D-02 0.000000000000D+00  5 -1 2 25 24 21 2 0.10350946D-01 0.51021199D-01 0.17437777D+05 0.17437777D+05 0.17437777D+05 0.12404351D+01  1  2  6  1  5  1       -1 0.125354720029D+01 0.100000000000D+01
0.853244684892D-05 0.000000000000D+00 0.000000000000D+00 0.193920564564D-02 0.000000000000D+00  5 21 2 25 24 1 2 0.11694194D-01 0.51021199D-01 0.21045239D+05 0.21045239D+05 0.21045239D+05 0.12313978D+01  1  2 12  3  5  1       -1 0.964673663412D-01 0.100000000000D+01
-.288583945330D-04 0.000000000000D+00 -.870972366234D-05 0.193920564564D-02 0.000000000000D+00  5 21 2 25 24 1 2 0.12235215D-01 0.51021199D-01 0.17437777D+05 0.17437777D+05 0.17437777D+05 0.12404351D+01  1  2  5  3  5  1       -1 -.304992813259D+00 0.100000000000D+01
  </mgrwgt>
  </event>
  <event>
  4     66 0.45252658E-03 0.80267798E+02 0.75467711E-02 0.11973725E+00
       -1 -1    0    0    0  501 0.00000000E+00 0.00000000E+00 0.55484831E+02 0.55485753E+02 0.32000000E+00 0.0000E+00 0.9000E+01
        2 -1    0    0  501    0 0.00000000E+00 0.00000000E+00 -.39155449E+03 0.39155462E+03 0.32000000E+00 0.0000E+00 0.9000E+01
       25  1    1    2    0    0 0.17156361E+02 -.95284026E+02 -.24539422E+03 0.29191901E+03 0.12500000E+03 0.0000E+00 0.9000E+01
       24  1    1    2    0    0 -.17156361E+02 0.95284026E+02 -.90675445E+02 0.15512137E+03 0.80419002E+02 0.0000E+00 0.9000E+01
#aMCatNLO 1  0  0  1  2 0.20463224D+02 0.00000000D+00  -5  5  0 0.00000000D+00 0.00000000D+00 0.00000000D+00 0.00000000D+00 0.00000000D+00
  <mgrwgt>
 0.3515925205D+00    9    2    0
 0.147395964036624D+03 0.000000000000000D+00 0.000000000000000D+00 0.147395964036624D+03
 0.147395964036624D+03 0.000000000000000D+00 0.000000000000000D+00 -.147395964036624D+03
 0.162928587513604D+03 0.171563609354315D+02 -.952840261260867D+02 -.393362208890820D+02
 0.131863340559644D+03 -.171563609354315D+02 0.952840261260867D+02 0.393362208890820D+02
 0.000000000000000D+00 -.000000000000000D+00 0.000000000000000D+00 0.000000000000000D+00
 0.158437732050249D+03 0.000000000000000D+00 0.000000000000000D+00 0.158437732050249D+03
 0.157546213353765D+03 0.000000000000000D+00 0.000000000000000D+00 -.157546213353765D+03
 0.166726809918097D+03 0.278782276397748D+02 -.992385776565520D+02 -.393362208890820D+02
 0.128774500387195D+03 -.867925359694538D+01 0.921574103301871D+02 0.393362208890820D+02
 0.204826350987219D+02 -.191989740428294D+02 0.708116732636489D+01 0.891518696484187D+00
0.385343981149D-03 0.000000000000D+00 0.000000000000D+00 0.227329950765D-02 0.000000000000D+00  5 -1 2 25 24 21 0 0.85362088D-02 0.60239234D-01 0.20159490D+05 0.20159490D+05 0.20159490D+05 0.12334465D+01  1  2  2  1  5  1       -1 0.267824831791D+00 0.100000000000D+01
-.213715762186D-04 0.000000000000D+00 -.147982235101D-05 0.227329950765D-02 0.000000000000D+00  5 -1 2 25 24 21 2 0.85362088D-02 0.60239234D-01 0.20159490D+05 0.20159490D+05 0.20159490D+05 0.12334465D+01  1  2  3  1  5  1       -1 -.225984900610D-01 0.100000000000D+01
0.266056650983D-04 0.000000000000D+00 0.000000000000D+00 0.227329950765D-02 0.000000000000D+00  5 -1 2 25 24 21 2 0.85362088D-02 0.60239234D-01 0.20159490D+05 0.20159490D+05 0.20159490D+05 0.12334465D+01  1  2 15  1  5  1       -1 0.281330610405D-01 0.100000000000D+01
0.458212365848D-03 0.000000000000D+00 0.000000000000D+00 0.227329950765D-02 0.000000000000D+00  5 -1 2 25 24 21 2 0.94490138D-02 0.60239234D-01 0.23271918D+05 0.23271918D+05 0.23271918D+05 0.12266469D+01  1  2 12  1  5  1       -1 0.412293801860D+00 0.100000000000D+01
-.369681320953D-03 0.000000000000D+00 0.000000000000D+00 0.227329950765D-02 0.000000000000D+00  5 -1 2 25 24 21 2 0.85362088D-02 0.60239234D-01 0.20159490D+05 0.20159490D+05 0.20159490D+05 0.12334465D+01  1  2  4  1  5  1       -1 -.390904235225D+00 0.100000000000D+01
-.148315956759D-02 0.000000000000D+00 -.351163054728D-03 0.227329950765D-02 0.000000000000D+00  5 -1 2 25 24 21 2 0.97999480D-02 0.60239234D-01 0.20159490D+05 0.20159490D+05 0.20159490D+05 0.12334465D+01  1  2  5  1  5  1       -1 -.127132841251D+01 0.100000000000D+01
0.152044813623D-02 0.000000000000D+00 0.347842741638D-03 0.227329950765D-02 0.000000000000D+00  5 -1 2 25 24 21 2 0.85362088D-02 0.60239234D-01 0.20159490D+05 0.20159490D+05 0.20159490D+05 0.12334465D+01  1  2  6  1  5  1       -1 0.160773504694D+01 0.100000000000D+01
0.754464163116D-05 0.000000000000D+00 0.000000000000D+00 0.227329950765D-02 0.000000000000D+00  5 21 2 25 24 1 2 0.94490138D-02 0.60239234D-01 0.23271918D+05 0.23271918D+05 0.23271918D+05 0.12266469D+01  1  2 12  3  5  1       -1 0.103326706875D+00 0.100000000000D+01
-.295210968180D-04 0.000000000000D+00 -.748643150087D-05 0.227329950765D-02 0.000000000000D+00  5 21 2 25 24 1 2 0.97999480D-02 0.60239234D-01 0.20159490D+05 0.20159490D+05 0.20159490D+05 0.12334465D+01  1  2  5  3  5  1       -1 -.382889790161D+00 0.100000000000D+01
  </mgrwgt>
  </event>
  <event>
  4     66 0.45252658E-03 0.59283521E+02 0.75467711E-02 0.11344929E+00
       -1 -1    0    0    0  501 0.00000000E+00 0.00000000E+00 0.31932678E+02 0.31934282E+02 0.32000000E+00 0.0000E+00 0.9000E+01
        2 -1    0    0  501    0 0.00000000E+00 0.00000000E+00 -.15761054E+04 0.15761055E+04 0.32000000E+00 0.0000E+00 0.9000E+01
       25  1    1    2    0    0 0.18114017E+03 -.21655698E+02 -.10872963E+04 0.11095580E+04 0.12500000E+03 0.0000E+00 0.9000E+01
       24  1    1    2    0    0 -.18114017E+03 0.21655698E+02 -.45687645E+03 0.49848173E+03 0.80419002E+02 0.0000E+00 0.9000E+01
#aMCatNLO 1  0  0  1  2 0.17522765D+02 0.00000000D+00  -5  5  0 0.00000000D+00 0.00000000D+00 0.00000000D+00 0.00000000D+00 0.00000000D+00
  <mgrwgt>
 0.6761579032D+00    6    2    0
 0.224344786399341D+03 0.000000000000000D+00 0.000000000000000D+00 0.224344786399341D+03
 0.224344786399341D+03 0.000000000000000D+00 0.000000000000000D+00 -.224344786399341D+03
 0.234549819679375D+03 0.181140174167351D+03 -.216556981341597D+02 -.781529650913596D+02
 0.214139753119307D+03 -.181140174167351D+03 0.216556981341597D+02 0.781529650913596D+02
 0.000000000000000D+00 -.000000000000000D+00 -.000000000000000D+00 -.000000000000000D+00
 0.231785291311657D+03 0.000000000000000D+00 0.000000000000000D+00 0.231785291311657D+03
 0.235075252365930D+03 0.000000000000000D+00 0.000000000000000D+00 -.235075252365930D+03
 0.237062747132975D+03 0.185167208427408D+03 -.133777819111444D+02 -.781529650913596D+02
 0.211968855360943D+03 -.177501691892687D+03 0.291349122415068D+02 0.781529650913596D+02
 0.178289411836694D+02 -.766551653472122D+01 -.157571303303624D+02 -.328996105427282D+01
0.136495668760D-02 0.000000000000D+00 0.000000000000D+00 0.185914622926D-02 0.000000000000D+00  5 -1 2 25 24 21 0 0.49128456D-02 0.24247789D+00 0.44208275D+05 0.44208275D+05 0.44208275D+05 0.11976134D+01  1  2  2  1  5  1       -1 0.348835107693D+00 0.100000000000D+01
-.754431751100D-04 0.000000000000D+00 -.524179308174D-05 0.185914622926D-02 0.000000000000D+00  5 -1 2 25 24 21 2 0.49128456D-02 0.24247789D+00 0.44208275D+05 0.44208275D+05 0.44208275D+05 0.11976134D+01  1  2  3  1  5  1       -1 -.276537854379D-01 0.100000000000D+01
0.932522004650D-04 0.000000000000D+00 0.000000000000D+00 0.185914622926D-02 0.000000000000D+00  5 -1 2 25 24 21 2 0.49128456D-02 0.24247789D+00 0.44208275D+05 0.44208275D+05 0.44208275D+05 0.11976134D+01  1  2 15  1  5  1       -1 0.341817048329D-01 0.100000000000D+01
0.205631090224D-02 0.000000000000D+00 0.000000000000D+00 0.185914622926D-02 0.000000000000D+00  5 -1 2 25 24 21 2 0.51886814D-02 0.24247789D+00 0.48041613D+05 0.48041613D+05 0.48041613D+05 0.11940041D+01  1  2 12  1  5  1       -1 0.690320548603D+00 0.100000000000D+01
-.134136873517D-02 0.000000000000D+00 0.000000000000D+00 0.185914622926D-02 0.000000000000D+00  5 -1 2 25 24 21 2 0.49128456D-02 0.24247789D+00 0.44208275D+05 0.44208275D+05 0.44208275D+05 0.11976134D+01  1  2  4  1  5  1       -1 -.491680302976D+00 0.100000000000D+01
0.213184122244D-04 0.000000000000D+00 0.000000000000D+00 0.185914622926D-02 0.000000000000D+00  5 21 2 25 24 1 2 0.51886814D-02 0.24247789D+00 0.48041613D+05 0.48041613D+05 0.48041613D+05 0.11940041D+01  1  2 12  3  5  1       -1 0.122154630499D+00 0.100000000000D+01
  </mgrwgt>
  </event>
  <event>
  5     66 0.45252658E-03 0.13416509E+03 0.75467711E-02 0.12129455E+00
       -1 -1    0    0    0  502 0.00000000E+00 0.00000000E+00 0.17730232E+03 0.17730261E+03 0.32000000E+00 0.0000E+00 0.9000E+01
        2 -1    0    0  501    0 0.00000000E+00 0.00000000E+00 -.25244477E+03 0.25244497E+03 0.32000000E+00 0.0000E+00 0.9000E+01
       25  1    1    2    0    0 0.83998224E+02 -.24829548E+02 0.12088383E+03 0.19470519E+03 0.12500000E+03 0.0000E+00 0.9000E+01
       24  1    1    2    0    0 -.76009826E+02 0.34012512E+02 -.18675073E+03 0.21972118E+03 0.80419002E+02 0.0000E+00 0.9000E+01
       21  1    1    2  501  502 -.79883979E+01 -.91829639E+01 -.92755512E+01 0.15321217E+02 0.75000000E+00 0.0000E+00 0.9000E+01
#aMCatNLO 2  0  0  1  2 0.12171332D+02 0.00000000D+00  -5  5  0 0.00000000D+00 0.00000000D+00 0.00000000D+00 0.00000000D+00 0.00000000D+00
  <mgrwgt>
 0.1817353311D+00    2    2    0
 0.204488767786857D+03 0.000000000000000D+00 0.000000000000000D+00 0.204488767786857D+03
 0.204488767786857D+03 0.000000000000000D+00 0.000000000000000D+00 -.204488767786857D+03
 0.215684717746288D+03 0.797766319403023D+02 -.296824275924059D+02 0.153784069258747D+03
 0.193292817827426D+03 -.797766319403023D+02 0.296824275924059D+02 -.153784069258747D+03
 0.000000000000000D+00 -.000000000000000D+00 -.000000000000000D+00 -.000000000000000D+00
 0.208117723765585D+03 0.000000000000000D+00 0.000000000000000D+00 0.208117723765585D+03
 0.215045932949305D+03 0.000000000000000D+00 0.000000000000000D+00 -.215045932949305D+03
 0.216671982792390D+03 0.839982243930418D+02 -.248295482887360D+02 0.153784069258747D+03
 0.192486624511029D+03 -.760098264758121D+02 0.340125121479894D+02 -.153784069258747D+03
 0.140050494114707D+02 -.798839791722967D+01 -.918296385925338D+01 -.692820918372011D+01
-.187805463887D-03 0.000000000000D+00 0.000000000000D+00 0.990441507475D-03 0.000000000000D+00  5 -1 2 25 24 21 2 0.26800401D-01 0.36929286D-01 0.18000272D+05 0.18000272D+05 0.18000272D+05 0.12388948D+01  1  2  8  1  5  1       -1 -.555074594183D-01 0.100000000000D+01
0.876973598522D-03 0.000000000000D+00 0.000000000000D+00 0.990441507475D-03 0.544577820061D-04  5 -1 2 25 24 21 2 0.27276014D-01 0.38835838D-01 0.19679975D+05 0.19679975D+05 0.19679975D+05 0.12345980D+01  1  2  1  1  5  1       -1 0.237242790539D+00 0.100000000000D+01
  </mgrwgt>
  </event>
  <event>
  4     66 0.45252658E-03 0.21685817E+03 0.75467711E-02 0.10132945E+00
       -3 -1    0    0    0  501 0.00000000E+00 0.00000000E+00 0.26043648E+03 0.26043696E+03 0.50000000E+00 0.0000E+00 0.9000E+01
        4 -1    0    0  501    0 0.00000000E+00 0.00000000E+00 -.21129484E+03 0.21130053E+03 0.15500000E+01 0.0000E+00 0.9000E+01
       25  1    1    2    0    0 0.10089311E+03 -.16097638E+03 0.11545008E+03 0.25504222E+03 0.12500000E+03 0.0000E+00 0.9000E+01
       24  1    1    2    0    0 -.10089311E+03 0.16097638E+03 -.66308442E+02 0.21669527E+03 0.80419002E+02 0.0000E+00 0.9000E+01
#aMCatNLO 1  0  0  2  2 0.40822995D+03 0.00000000D+00  -5  5  0 0.00000000D+00 0.00000000D+00 0.00000000D+00 0.00000000D+00 0.00000000D+00
  <mgrwgt>
 0.3748394686D-01    5    2    0
 0.234585464293373D+03 0.000000000000000D+00 0.000000000000000D+00 0.234585464293373D+03
 0.234585464293373D+03 0.000000000000000D+00 0.000000000000000D+00 -.234585464293373D+03
 0.244345003394841D+03 0.100893109371487D+03 -.160976378911223D+03 0.893681520342032D+02
 0.224825925191904D+03 -.100893109371487D+03 0.160976378911223D+03 -.893681520342032D+02
 0.000000000000000D+00 -.000000000000000D+00 -.000000000000000D+00 -.000000000000000D+00
 0.488758163843171D+03 0.000000000000000D+00 0.000000000000000D+00 0.488758163843171D+03
 0.545276411400772D+03 0.000000000000000D+00 0.000000000000000D+00 -.545276411400772D+03
 0.335449111762666D+03 0.292309395604587D+03 -.589037963601180D+02 0.893681520342032D+02
 0.286461693502461D+03 0.679060809080718D+02 0.250988413014676D+03 -.893681520342032D+02
 0.412123769978816D+03 -.360215476512659D+03 -.192084616654558D+03 -.565182475576011D+02
0.267278598651D-02 0.000000000000D+00 0.000000000000D+00 0.179365050373D-02 0.000000000000D+00  5 -3 4 25 24 21 0 0.40067625D-01 0.32507373D-01 0.47027465D+05 0.47027465D+05 0.47027465D+05 0.11949270D+01  1  2  2  2  5  2        4 0.317216518582D-01 0.100000000000D+01
-.147373410579D-03 0.000000000000D+00 -.102642019489D-04 0.179365050373D-02 0.000000000000D+00  5 -3 4 25 24 21 2 0.40067625D-01 0.32507373D-01 0.47027465D+05 0.47027465D+05 0.47027465D+05 0.11949270D+01  1  2  3  2  5  2        4 -.249743083023D-02 0.100000000000D+01
0.182720363085D-03 0.000000000000D+00 0.000000000000D+00 0.179365050373D-02 0.000000000000D+00  5 -3 4 25 24 21 2 0.40067625D-01 0.32507373D-01 0.47027465D+05 0.47027465D+05 0.47027465D+05 0.11949270D+01  1  2 15  2  5  2        4 0.309643012458D-02 0.100000000000D+01
0.153444935969D-02 0.000000000000D+00 -.121874785455D-02 0.179365050373D-02 0.000000000000D+00  5 -3 4 25 24 21 2 0.40067625D-01 0.14058083D+00 0.47027465D+05 0.47027465D+05 0.47027465D+05 0.11949270D+01  1  2  5  2  5  2        4 0.106007327989D-02 0.100000000000D+01
0.268611345459D-03 0.000000000000D+00 -.214939964090D-03 0.179365050373D-02 0.000000000000D+00  5 -3 21 25 24 -4 2 0.40067625D-01 0.14058083D+00 0.47027465D+05 0.47027465D+05 0.47027465D+05 0.11949270D+01  1  2  5  4  5  2        4 0.410322242643D-02 0.100000000000D+01
  </mgrwgt>
  </event>
  <event>
  4     66 0.45252658E-03 0.14544573E+03 0.75467711E-02 0.11408597E+00
       -1 -1    0    0    0  501 0.00000000E+00 0.00000000E+00 0.44434660E+02 0.44435812E+02 0.32000000E+00 0.0000E+00 0.9000E+01
        2 -1    0    0  501    0 0.00000000E+00 0.00000000E+00 -.49150816E+03 0.49150827E+03 0.32000000E+00 0.0000E+00 0.9000E+01
       25  1    1    2    0    0 0.70822385E+02 0.73077476E+02 -.29418701E+03 0.33545063E+03 0.12500000E+03 0.0000E+00 0.9000E+01
       24  1    1    2    0    0 -.70822385E+02 -.73077476E+02 -.15288650E+03 0.20049345E+03 0.80419002E+02 0.0000E+00 0.9000E+01
#aMCatNLO 1  0  0  2  2 0.11058645D+03 0.00000000D+00  -5  5  0 0.00000000D+00 0.00000000D+00 0.00000000D+00 0.00000000D+00 0.00000000D+00
  <mgrwgt>
 0.4904285232D+00    3    2    0
 0.147784757792551D+03 0.000000000000000D+00 0.000000000000000D+00 0.147784757792551D+03
 0.147784757792551D+03 0.000000000000000D+00 0.000000000000000D+00 -.147784757792551D+03
 0.163276517873933D+03 0.708223854184990D+02 0.730774764892540D+02 -.260402273921114D+02
 0.132292997711169D+03 -.708223854184990D+02 -.730774764892540D+02 0.260402273921114D+02
 0.000000000000000D+00 -.000000000000000D+00 0.000000000000000D+00 0.000000000000000D+00
 0.547606722185530D+03 0.000000000000000D+00 0.000000000000000D+00 0.547606722185530D+03
 0.165632993570476D+03 0.000000000000000D+00 0.000000000000000D+00 -.165632993570476D+03
 0.174461910393830D+03 0.114854238896607D+03 0.306980218110698D+02 -.260402273921114D+02
 0.141118035154822D+03 -.351770648661421D+02 -.107385122602516D+03 0.260402273921114D+02
 0.397659770207354D+03 -.796771740304653D+02 0.766871007914463D+02 0.381973728615054D+03
0.631787042429D-03 0.000000000000D+00 0.000000000000D+00 0.235898134778D-02 0.000000000000D+00  5 -1 2 25 24 21 0 0.68361981D-02 0.75616737D-01 0.21154460D+05 0.21154460D+05 0.21154460D+05 0.12311519D+01  1  2  2  2  5  2        2 0.480618405359D+00 0.100000000000D+01
-.350884181028D-04 0.000000000000D+00 -.242622859627D-05 0.235898134778D-02 0.000000000000D+00  5 -1 2 25 24 21 2 0.68361981D-02 0.75616737D-01 0.21154460D+05 0.21154460D+05 0.21154460D+05 0.12311519D+01  1  2  3  2  5  2        2 -.404591495853D-01 0.100000000000D+01
0.435962962938D-04 0.000000000000D+00 0.000000000000D+00 0.235898134778D-02 0.000000000000D+00  5 -1 2 25 24 21 2 0.68361981D-02 0.75616737D-01 0.21154460D+05 0.21154460D+05 0.21154460D+05 0.12311519D+01  1  2 15  2  5  2        2 0.502692674246D-01 0.100000000000D+01
  </mgrwgt>
  </event>
  <event>
  4     66 0.45252658E-03 0.63638746E+02 0.75467711E-02 0.11819908E+00
       -1 -1    0    0    0  501 0.00000000E+00 0.00000000E+00 0.10345325E+02 0.10350273E+02 0.32000000E+00 0.0000E+00 0.9000E+01
        2 -1    0    0  501    0 0.00000000E+00 0.00000000E+00 -.12267852E+04 0.12267853E+04 0.32000000E+00 0.0000E+00 0.9000E+01
       25  1    1    2    0    0 -.46470594E+01 -.44706486E+02 -.68271354E+03 0.69551639E+03 0.12500000E+03 0.0000E+00 0.9000E+01
       24  1    1    2    0    0 0.46470594E+01 0.44706486E+02 -.53372635E+03 0.54161914E+03 0.80419002E+02 0.0000E+00 0.9000E+01
#aMCatNLO 1  0  0  1  2 0.89920739D+02 0.00000000D+00  -5  5  0 0.00000000D+00 0.00000000D+00 0.00000000D+00 0.00000000D+00 0.00000000D+00
  <mgrwgt>
 0.2895504423D+00    7    2    0
 0.112670220277251D+03 0.000000000000000D+00 0.000000000000000D+00 0.112670220277251D+03
 0.112670220277251D+03 0.000000000000000D+00 0.000000000000000D+00 -.112670220277251D+03
 0.132990106097778D+03 -.464705942763802D+01 -.447064863371795D+02 0.641118069920305D+01
 0.923503344567240D+02 0.464705942763802D+01 0.447064863371795D+02 -.641118069920305D+01
 0.000000000000000D+00 0.000000000000000D+00 0.000000000000000D+00 0.000000000000000D+00
 0.192274655893125D+03 0.000000000000000D+00 0.000000000000000D+00 0.192274655893125D+03
 0.149794499503145D+03 0.000000000000000D+00 0.000000000000000D+00 -.149794499503145D+03
 0.153846588946381D+03 -.521242875762149D+02 -.727030146359206D+02 0.641118069920305D+01
 0.887725641070597D+02 -.253324143517557D+02 0.270280914776573D+02 -.641118069920305D+01
 0.994500023428301D+02 0.774567019279706D+02 0.456749231582633D+02 0.424801563899801D+02
0.155572756641D-03 0.000000000000D+00 0.000000000000D+00 0.293417430480D-02 0.000000000000D+00  5 -1 2 25 24 21 0 0.15919723D-02 0.18873657D+00 0.12652089D+05 0.12652089D+05 0.12652089D+05 0.12563397D+01  1  2  2  1  5  1       -1 0.309412261500D+00 0.100000000000D+01
-.864290139387D-05 0.000000000000D+00 -.597440348749D-06 0.293417430480D-02 0.000000000000D+00  5 -1 2 25 24 21 2 0.15919723D-02 0.18873657D+00 0.12652089D+05 0.12652089D+05 0.12652089D+05 0.12563397D+01  1  2  3  1  5  1       -1 -.271317410935D-01 0.100000000000D+01
0.107691180186D-04 0.000000000000D+00 0.000000000000D+00 0.293417430480D-02 0.000000000000D+00  5 -1 2 25 24 21 2 0.15919723D-02 0.18873657D+00 0.12652089D+05 0.12652089D+05 0.12652089D+05 0.12563397D+01  1  2 15  1  5  1       -1 0.338063468009D-01 0.100000000000D+01
0.431032381335D-05 0.000000000000D+00 0.000000000000D+00 0.293417430480D-02 0.000000000000D+00  5 -1 2 25 24 21 2 0.28295121D-02 0.18873657D+00 0.27584964D+05 0.27584964D+05 0.27584964D+05 0.12187425D+01  1  2 12  1  5  1       -1 0.566925951342D-02 0.100000000000D+01
-.346738969556D-04 0.000000000000D+00 -.440864553991D-04 0.293417430480D-02 0.000000000000D+00  5 -1 2 25 24 21 2 0.36943024D-02 0.18873657D+00 0.12652089D+05 0.12652089D+05 0.12652089D+05 0.12563397D+01  1  2  5  1  5  1       -1 -.323329994266D-01 0.100000000000D+01
0.272697766803D-06 0.000000000000D+00 0.000000000000D+00 0.293417430480D-02 0.000000000000D+00  5 21 2 25 24 1 2 0.28295121D-02 0.18873657D+00 0.27584964D+05 0.27584964D+05 0.27584964D+05 0.12187425D+01  1  2 12  3  5  1       -1 0.696084520350D-02 0.100000000000D+01
-.392494013457D-06 0.000000000000D+00 -.404306997699D-05 0.293417430480D-02 0.000000000000D+00  5 21 2 25 24 1 2 0.36943024D-02 0.18873657D+00 0.12652089D+05 0.12652089D+05 0.12652089D+05 0.12563397D+01  1  2  5  3  5  1       -1 -.683353018542D-02 0.100000000000D+01
  </mgrwgt>
  </event>
  <event>
  4     66 0.45252658E-03 0.10684656E+03 0.75467711E-02 0.99273847E-01
       -1 -1    0    0    0  501 0.00000000E+00 0.00000000E+00 0.24872081E+03 0.24872102E+03 0.32000000E+00 0.0000E+00 0.9000E+01
        2 -1    0    0  501    0 0.00000000E+00 0.00000000E+00 -.60070733E+02 0.60071585E+02 0.32000000E+00 0.0000E+00 0.9000E+01
       25  1    1    2    0    0 -.19359857E+02 -.21316902E+02 0.18260951E+03 0.22316014E+03 0.12500000E+03 0.0000E+00 0.9000E+01
       24  1    1    2    0    0 0.19359857E+02 0.21316902E+02 0.60405676E+01 0.85632463E+02 0.80419002E+02 0.0000E+00 0.9000E+01
#aMCatNLO 1  0  0  2  1 0.56997437D+03 0.00000000D+00  -5  5  0 0.00000000D+00 0.00000000D+00 0.00000000D+00 0.00000000D+00 0.00000000D+00
  <mgrwgt>
 0.4328222643D+00    5    2    0
 0.122233403350910D+03 0.000000000000000D+00 0.000000000000000D+00 0.122233403350910D+03
 0.122233403350910D+03 0.000000000000000D+00 0.000000000000000D+00 -.122233403350910D+03
 0.140963520885433D+03 -.193598567138818D+02 -.213169022071432D+02 0.584508327462238D+02
 0.103503285816386D+03 0.193598567138818D+02 0.213169022071432D+02 -.584508327462238D+02
 0.000000000000000D+00 -.000000000000000D+00 -.000000000000000D+00 -.000000000000000D+00
 0.446542642629037D+03 0.000000000000000D+00 0.000000000000000D+00 0.446542642629037D+03
 0.905322938768729D+03 0.000000000000000D+00 0.000000000000000D+00 -.905322938768729D+03
 0.306957455672153D+03 -.130489549717261D+02 0.273881551985782D+03 0.584508327462238D+02
 0.313231871097718D+03 0.252313714797206D+02 0.295962611087165D+03 -.584508327462238D+02
 0.731676254627895D+03 -.121824165079945D+02 -.569844163072947D+03 -.458780296139692D+03
0.645419939350D-03 0.000000000000D+00 0.000000000000D+00 0.219698892304D-02 0.000000000000D+00  5 -1 2 25 24 21 0 0.38264822D-01 0.92417326D-02 0.11416188D+05 0.11416188D+05 0.11416188D+05 0.12615706D+01  1  2  2  2  5  2        2 0.326752493987D+00 0.100000000000D+01
-.350675401089D-04 0.000000000000D+00 -.247858251008D-05 0.219698892304D-02 0.000000000000D+00  5 -1 2 25 24 21 2 0.38264822D-01 0.92417326D-02 0.11416188D+05 0.11416188D+05 0.11416188D+05 0.12615706D+01  1  2  3  2  5  2        2 -.282556273303D-01 0.100000000000D+01
0.440610851831D-04 0.000000000000D+00 0.000000000000D+00 0.219698892304D-02 0.000000000000D+00  5 -1 2 25 24 21 2 0.38264822D-01 0.92417326D-02 0.11416188D+05 0.11416188D+05 0.11416188D+05 0.12615706D+01  1  2 15  2  5  2        2 0.355021652170D-01 0.100000000000D+01
0.389608873255D-02 0.000000000000D+00 -.118059290795D-02 0.219698892304D-02 0.000000000000D+00  5 -1 2 25 24 21 2 0.38264822D-01 0.20442642D+00 0.11416188D+05 0.11416188D+05 0.11416188D+05 0.12615706D+01  1  2  5  2  5  2        2 0.857910576104D-01 0.100000000000D+01
0.957723189292D-03 0.000000000000D+00 -.385428173729D-03 0.219698892304D-02 0.000000000000D+00  5 -1 21 25 24 -2 2 0.38264822D-01 0.20442642D+00 0.11416188D+05 0.11416188D+05 0.11416188D+05 0.12615706D+01  1  2  5  4  5  2        2 0.130321748432D-01 0.100000000000D+01
  </mgrwgt>
  </event>
  <event>
  5     66 -.45252658E-03 0.12364893E+03 0.75467711E-02 0.12218666E+00
       -1 -1    0    0    0  501 0.00000000E+00 0.00000000E+00 0.52974686E+03 0.52974696E+03 0.32000000E+00 0.0000E+00 0.9000E+01
        2 -1    0    0  502    0 0.00000000E+00 0.00000000E+00 -.42385694E+02 0.42386902E+02 0.32000000E+00 0.0000E+00 0.9000E+01
       25  1    1    2    0    0 -.69991612E+02 0.76662301E+01 0.19475720E+03 0.24189453E+03 0.12500000E+03 0.0000E+00 0.9000E+01
       24  1    1    2    0    0 0.65861689E+02 0.11524119E+02 0.29245737E+03 0.31059474E+03 0.80419002E+02 0.0000E+00 0.9000E+01
       21  1    1    2  502  501 0.41299223E+01 -.19190349E+02 0.14660028E+00 0.19644586E+02 0.75000000E+00 0.0000E+00 0.9000E+01
#aMCatNLO 2  0  0  2  1 0.19629716D+02 0.00000000D+00  -5  5  0 0.00000000D+00 0.00000000D+00 0.00000000D+00 0.00000000D+00 0.00000000D+00
  <mgrwgt>
 -.4662115905D-02    2    2    0
 0.129885562965078D+03 0.000000000000000D+00 0.000000000000000D+00 0.129885562965078D+03
 0.129885562965078D+03 0.000000000000000D+00 0.000000000000000D+00 -.129885562965078D+03
 0.147512202594171D+03 -.676397935662919D+02 -.326187197063063D+01 -.393582066631653D+02
 0.112258923335984D+03 0.676397935662919D+02 0.326187197063063D+01 0.393582066631653D+02
 0.000000000000000D+00 0.000000000000000D+00 -.000000000000000D+00 -.000000000000000D+00
 0.132731997409275D+03 0.000000000000000D+00 0.000000000000000D+00 0.132731997409275D+03
 0.169159892577097D+03 0.000000000000000D+00 0.000000000000000D+00 -.169159892577097D+03
 0.148767151059665D+03 -.699916117751883D+02 0.766623008917793D+01 -.393582066631653D+02
 0.111744583070236D+03 0.658616894941523D+02 0.115241188993256D+02 0.393582066631653D+02
 0.413801558564709D+02 0.412992228103603D+01 -.191903489885036D+02 -.364278951678224D+02
-.347472543383D-02 0.000000000000D+00 0.000000000000D+00 0.240947574977D-02 0.000000000000D+00  5 -1 2 25 24 21 2 0.79749851D-01 0.65638472D-02 0.17913137D+05 0.17913137D+05 0.17913137D+05 0.12391299D+01  1  2 13  2  5  2        2 -.106568851135D+01 0.100000000000D+01
0.358649172383D-02 0.000000000000D+00 0.000000000000D+00 0.240947574977D-02 0.530924706413D-04  5 -1 2 25 24 21 2 0.81497565D-01 0.65208121D-02 0.17913137D+05 0.17913137D+05 0.17913137D+05 0.12391299D+01  1  2  1  2  5  2        2 0.106102639545D+01 0.100000000000D+01
  </mgrwgt>
  </event>
  <event>
  4     66 0.45252658E-03 0.11328470E+03 0.75467711E-02 0.11417523E+00
       -1 -1    0    0    0  501 0.00000000E+00 0.00000000E+00 0.92222581E+02 0.92223136E+02 0.32000000E+00 0.0000E+00 0.9000E+01
        2 -1    0    0  501    0 0.00000000E+00 0.00000000E+00 -.13939170E+03 0.13939206E+03 0.32000000E+00 0.0000E+00 0.9000E+01
       25  1    1    2    0    0 -.72819717E+01 -.46289517E+02 -.32471549E+02 0.13738686E+03 0.12500000E+03 0.0000E+00 0.9000E+01
       24  1    1    2    0    0 0.72819717E+01 0.46289517E+02 -.14697566E+02 0.94228344E+02 0.80419002E+02 0.0000E+00 0.9000E+01
#aMCatNLO 1  0  0  2  1 0.14858159D+03 0.00000000D+00  -5  5  0 0.00000000D+00 0.00000000D+00 0.00000000D+00 0.00000000D+00 0.00000000D+00
  <mgrwgt>
 0.2913151531D+00    5    2    0
 0.113380636741276D+03 0.000000000000000D+00 0.000000000000000D+00 0.113380636741276D+03
 0.113380636741276D+03 0.000000000000000D+00 0.000000000000000D+00 -.113380636741276D+03
 0.133573202925498D+03 -.728197174153891D+01 -.462895165822645D+02 -.458847272105291D+01
 0.931880705570551D+02 0.728197174153891D+01 0.462895165822645D+02 0.458847272105291D+01
 0.000000000000000D+00 -.000000000000000D+00 -.000000000000000D+00 -.000000000000000D+00
 0.206167179920267D+03 0.000000000000000D+00 0.000000000000000D+00 0.206167179920267D+03
 0.213709312686457D+03 0.000000000000000D+00 0.000000000000000D+00 -.213709312686457D+03
 0.138585864308235D+03 0.596648878938257D+02 -.298088520290506D+00 -.458847272105291D+01
 0.132517739295655D+03 0.628020590371014D+02 0.844309337414275D+02 0.458847272105291D+01
 0.148772889002833D+03 -.122466946930927D+03 -.841328452211370D+02 -.754213276619006D+01
0.262302223079D-03 0.000000000000D+00 0.000000000000D+00 0.292086039692D-02 0.000000000000D+00  5 -1 2 25 24 21 0 0.14188160D-01 0.21444947D-01 0.12833424D+05 0.12833424D+05 0.12833424D+05 0.12556207D+01  1  2  2  2  5  2        2 0.250030695962D+00 0.100000000000D+01
-.145723330312D-04 0.000000000000D+00 -.100730960238D-05 0.292086039692D-02 0.000000000000D+00  5 -1 2 25 24 21 2 0.14188160D-01 0.21444947D-01 0.12833424D+05 0.12833424D+05 0.12833424D+05 0.12556207D+01  1  2  3  2  5  2        2 -.218996615717D-01 0.100000000000D+01
0.181104568288D-04 0.000000000000D+00 0.000000000000D+00 0.292086039692D-02 0.000000000000D+00  5 -1 2 25 24 21 2 0.14188160D-01 0.21444947D-01 0.12833424D+05 0.12833424D+05 0.12833424D+05 0.12556207D+01  1  2 15  2  5  2        2 0.272168412985D-01 0.100000000000D+01
0.578022972192D-04 0.000000000000D+00 -.105043940737D-03 0.292086039692D-02 0.000000000000D+00  5 -1 2 25 24 21 2 0.14188160D-01 0.69941264D-01 0.12833424D+05 0.12833424D+05 0.12833424D+05 0.12556207D+01  1  2  5  2  5  2        2 0.244989914378D-01 0.100000000000D+01
0.122058127834D-04 0.000000000000D+00 -.143505863136D-04 0.292086039692D-02 0.000000000000D+00  5 -1 21 25 24 -2 2 0.14188160D-01 0.69941264D-01 0.12833424D+05 0.12833424D+05 0.12833424D+05 0.12556207D+01  1  2  5  4  5  2        2 0.114682859552D-01 0.100000000000D+01
  </mgrwgt>
  </event>
  <event>
  4     66 -.45252658E-03 0.73833802E+02 0.75467711E-02 0.11038777E+00
       -3 -1    0    0    0  501 0.00000000E+00 0.00000000E+00 0.27204581E+04 0.27204581E+04 0.50000000E+00 0.0000E+00 0.9000E+01
        4 -1    0    0  501    0 0.00000000E+00 0.00000000E+00 -.25981198E+02 0.26027392E+02 0.15500000E+01 0.0000E+00 0.9000E+01
       25  1    1    2    0    0 0.11282416E+03 -.20808252E+03 0.10748977E+04 0.11077263E+04 0.12500000E+03 0.0000E+00 0.9000E+01
       24  1    1    2    0    0 -.11282416E+03 0.20808252E+03 0.16195792E+04 0.16387592E+04 0.80419002E+02 0.0000E+00 0.9000E+01
#aMCatNLO 1  0  0  2  1 0.13200460D+02 0.00000000D+00  -5  5  0 0.00000000D+00 0.00000000D+00 0.00000000D+00 0.00000000D+00 0.00000000D+00
  <mgrwgt>
 -.3575257947D-01    9    2    0
 0.265977928533405D+03 0.000000000000000D+00 0.000000000000000D+00 0.265977928533405D+03
 0.265977928533405D+03 0.000000000000000D+00 0.000000000000000D+00 -.265977928533405D+03
 0.274585582649787D+03 0.112824157440299D+03 -.208082524764701D+03 -.611932560382075D+02
 0.257370274417023D+03 -.112824157440299D+03 0.208082524764701D+03 0.611932560382075D+02
 0.000000000000000D+00 -.000000000000000D+00 0.000000000000000D+00 -.000000000000000D+00
 0.269873558607935D+03 0.000000000000000D+00 0.000000000000000D+00 0.269873558607935D+03
 0.277482431338226D+03 0.000000000000000D+00 0.000000000000000D+00 -.277482431338226D+03
 0.278993031618568D+03 0.119320477338945D+03 -.210309583221421D+03 -.611932560382075D+02
 0.253126584639490D+03 -.106833407764992D+03 0.206028785119079D+03 0.611932560382075D+02
 0.152363736881030D+02 -.124870695739528D+02 0.428079810234188D+01 -.760887273029101D+01
0.386853389859D-01 0.000000000000D+00 0.000000000000D+00 0.193642724694D-02 0.000000000000D+00  5 -3 4 25 24 21 0 0.41853557D+00 0.40006643D-02 0.66995498D+05 0.66995498D+05 0.66995498D+05 0.11798981D+01  1  2  2  2  5  2        4 0.291056127560D-01 0.100000000000D+01
-.214724895828D-02 0.000000000000D+00 -.148561887789D-03 0.193642724694D-02 0.000000000000D+00  5 -3 4 25 24 21 2 0.41853557D+00 0.40006643D-02 0.66995498D+05 0.66995498D+05 0.66995498D+05 0.11798981D+01  1  2  3  2  5  2        4 -.224906345583D-02 0.100000000000D+01
0.265293738246D-02 0.000000000000D+00 0.000000000000D+00 0.193642724694D-02 0.000000000000D+00  5 -3 4 25 24 21 2 0.41853557D+00 0.40006643D-02 0.66995498D+05 0.66995498D+05 0.66995498D+05 0.11798981D+01  1  2 15  2  5  2        4 0.277872972973D-02 0.100000000000D+01
0.139286888712D+00 0.000000000000D+00 0.000000000000D+00 0.193642724694D-02 0.000000000000D+00  5 -3 4 25 24 21 2 0.41853557D+00 0.42021340D-02 0.70495120D+05 0.70495120D+05 0.70495120D+05 0.11777833D+01  1  2 12  2  5  2        4 0.134316374214D+00 0.100000000000D+01
-.136818393445D+00 0.000000000000D+00 0.000000000000D+00 0.193642724694D-02 0.000000000000D+00  5 -3 4 25 24 21 2 0.41853557D+00 0.40006643D-02 0.66995498D+05 0.66995498D+05 0.66995498D+05 0.11798981D+01  1  2  4  2  5  2        4 -.143305808856D+00 0.100000000000D+01
-.704110456029D+00 0.000000000000D+00 -.103589412664D+00 0.193642724694D-02 0.000000000000D+00  5 -3 4 25 24 21 2 0.41853557D+00 0.42527380D-02 0.66995498D+05 0.66995498D+05 0.66995498D+05 0.11798981D+01  1  2  5  2  5  2        4 -.668361280283D+00 0.100000000000D+01
0.709308589548D+00 0.000000000000D+00 0.103396336237D+00 0.193642724694D-02 0.000000000000D+00  5 -3 4 25 24 21 2 0.41853557D+00 0.40006643D-02 0.66995498D+05 0.66995498D+05 0.66995498D+05 0.11798981D+01  1  2  6  2  5  2        4 0.742941344322D+00 0.100000000000D+01
0.197381196596D-02 0.000000000000D+00 0.000000000000D+00 0.193642724694D-02 0.000000000000D+00  5 -3 21 25 24 -4 2 0.41853557D+00 0.42021340D-02 0.70495120D+05 0.70495120D+05 0.70495120D+05 0.11777833D+01  1  2 12  4  5  2        4 0.500489862025D-01 0.100000000000D+01
-.724271519415D-02 0.000000000000D+00 -.108529909939D-02 0.193642724694D-02 0.000000000000D+00  5 -3 21 25 24 -4 2 0.41853557D+00 0.42527380D-02 0.66995498D+05 0.66995498D+05 0.66995498D+05 0.11798981D+01  1  2  5  4  5  2        4 -.181027474098D+00 0.100000000000D+01
  </mgrwgt>
  </event>
  <event>
  5     66 0.45252658E-03 0.11401699E+03 0.75467711E-02 0.12291392E+00
       -1 -1    0    0    0  502 0.00000000E+00 0.00000000E+00 0.23647900E+02 0.23650065E+02 0.32000000E+00 0.0000E+00 0.9000E+01
        2 -1    0    0  501    0 0.00000000E+00 0.00000000E+00 -.73810814E+03 0.73810821E+03 0.32000000E+00 0.0000E+00 0.9000E+01
       25  1    1    2    0    0 0.39227578E+02 0.53182338E+01 -.27962695E+03 0.30884189E+03 0.12500000E+03 0.0000E+00 0.9000E+01
       24  1    1    2    0    0 -.54182145E+02 0.18290680E+02 -.33264521E+03 0.34697306E+03 0.80419002E+02 0.0000E+00 0.9000E+01
       21  1    1    2  501  502 0.14954567E+02 -.23608914E+02 -.10218808E+03 0.10594332E+03 0.75000000E+00 0.0000E+00 0.9000E+01
#aMCatNLO 2  0  0  1  2 0.27946733D+02 0.00000000D+00  -5  5  0 0.00000000D+00 0.00000000D+00 0.00000000D+00 0.00000000D+00 0.00000000D+00
  <mgrwgt>
 0.1286015831D+00    1    2    0
 0.116656593345725D+03 0.000000000000000D+00 0.000000000000000D+00 0.116656593345725D+03
 0.116656593345725D+03 0.000000000000000D+00 0.000000000000000D+00 -.116656593345725D+03
 0.136282110821812D+03 0.478381303702549D+02 -.827532444251978D+01 0.243073243714379D+02
 0.970310758696373D+02 -.478381303702549D+02 0.827532444251978D+01 -.243073243714379D+02
 0.000000000000000D+00 0.000000000000000D+00 -.000000000000000D+00 -.000000000000000D+00
 0.127618487718435D+03 0.000000000000000D+00 0.000000000000000D+00 0.127618487718435D+03
 0.136769229921250D+03 0.000000000000000D+00 0.000000000000000D+00 -.136769229921250D+03
 0.133352662276385D+03 0.392275783985407D+02 0.531823383159851D+01 0.243073243714379D+02
 0.101628321994059D+03 -.541821454626698D+02 0.182906799196041D+02 -.243073243714379D+02
 0.294067333692409D+02 0.149545670641291D+02 -.236089137512026D+02 -.915074220281444D+01
0.690220446097D-04 0.000000000000D+00 0.000000000000D+00 0.274461629508D-02 0.294465621558D-04  5 -1 2 25 24 21 2 0.36381774D-02 0.11355112D+00 0.16607986D+05 0.16607986D+05 0.16607986D+05 0.12428121D+01  1  2  1  1  5  1       -1 0.128601583133D+00 0.100000000000D+01
  </mgrwgt>
  </event>
  <event>
  4     66 0.45252658E-03 0.10823580E+03 0.75467711E-02 0.11851404E+00
       -1 -1    0    0    0  501 0.00000000E+00 0.00000000E+00 0.72279537E+02 0.72280246E+02 0.32000000E+00 0.0000E+00 0.9000E+01
        2 -1    0    0  501    0 0.00000000E+00 0.00000000E+00 -.33807745E+03 0.33807760E+03 0.32000000E+00 0.0000E+00 0.9000E+01
       25  1    1    2    0    0 0.86453963E+02 0.62985324E+02 -.20639739E+03 0.26394379E+03 0.12500000E+03 0.0000E+00 0.9000E+01
       24  1    1    2    0    0 -.86453963E+02 -.62985324E+02 -.59400516E+02 0.14641406E+03 0.80419002E+02 0.0000E+00 0.9000E+01
#aMCatNLO 1  0  0  2  1 0.26780465D+02 0.00000000D+00  -5  5  0 0.00000000D+00 0.00000000D+00 0.00000000D+00 0.00000000D+00 0.00000000D+00
  <mgrwgt>
 0.5579043151D+00    9    2    0
 0.156321008781565D+03 0.000000000000000D+00 0.000000000000000D+00 0.156321008781565D+03
 0.156321008781565D+03 0.000000000000000D+00 0.000000000000000D+00 -.156321008781565D+03
 0.170966807380565D+03 0.864539626483423D+02 0.629853244579108D+02 -.465103265010480D+02
 0.141675210182565D+03 -.864539626483423D+02 -.629853244579108D+02 0.465103265010480D+02
 0.000000000000000D+00 -.000000000000000D+00 0.000000000000000D+00 -.000000000000000D+00
 0.168594820150524D+03 0.000000000000000D+00 0.000000000000000D+00 0.168594820150524D+03
 0.172216309978202D+03 0.000000000000000D+00 0.000000000000000D+00 -.172216309978202D+03
 0.168044381991141D+03 0.897853904749105D+02 0.488803386324034D+02 -.465103265010480D+02
 0.145742527339265D+03 -.836295383265255D+02 -.749436999948899D+02 0.465103265010480D+02
 0.270242207983191D+02 -.615585214838497D+01 0.260633613624865D+02 -.362148982767771D+01
0.516022041793D-03 0.000000000000D+00 0.000000000000D+00 0.216962151244D-02 0.000000000000D+00  5 -1 2 25 24 21 0 0.11119995D-01 0.52011981D-01 0.22251992D+05 0.22251992D+05 0.22251992D+05 0.12287569D+01  1  2  2  2  5  2        2 0.280901964845D+00 0.100000000000D+01
-.285914887483D-04 0.000000000000D+00 -.198166051221D-05 0.216962151244D-02 0.000000000000D+00  5 -1 2 25 24 21 2 0.11119995D-01 0.52011981D-01 0.22251992D+05 0.22251992D+05 0.22251992D+05 0.12287569D+01  1  2  3  2  5  2        2 -.234993175452D-01 0.100000000000D+01
0.355813870808D-04 0.000000000000D+00 0.000000000000D+00 0.216962151244D-02 0.000000000000D+00  5 -1 2 25 24 21 2 0.11119995D-01 0.52011981D-01 0.22251992D+05 0.22251992D+05 0.22251992D+05 0.12287569D+01  1  2 15  2  5  2        2 0.292443083699D-01 0.100000000000D+01
0.719292117027D-03 0.000000000000D+00 0.000000000000D+00 0.216962151244D-02 0.000000000000D+00  5 -1 2 25 24 21 2 0.11119995D-01 0.59161276D-01 0.26631327D+05 0.26631327D+05 0.26631327D+05 0.12203653D+01  1  2 12  2  5  2        2 0.510500819260D+00 0.100000000000D+01
-.621032850802D-03 0.000000000000D+00 0.000000000000D+00 0.216962151244D-02 0.000000000000D+00  5 -1 2 25 24 21 2 0.11119995D-01 0.52011981D-01 0.22251992D+05 0.22251992D+05 0.22251992D+05 0.12287569D+01  1  2  4  2  5  2        2 -.510426312372D+00 0.100000000000D+01
-.207406854455D-02 0.000000000000D+00 -.523342634725D-03 0.216962151244D-02 0.000000000000D+00  5 -1 2 25 24 21 2 0.11119995D-01 0.61238380D-01 0.22251992D+05 0.22251992D+05 0.22251992D+05 0.12287569D+01  1  2  5  2  5  2        2 -.143192252594D+01 0.100000000000D+01
0.213786318066D-02 0.000000000000D+00 0.516441373609D-03 0.216962151244D-02 0.000000000000D+00  5 -1 2 25 24 21 2 0.11119995D-01 0.52011981D-01 0.22251992D+05 0.22251992D+05 0.22251992D+05 0.12287569D+01  1  2  6  2  5  2        2 0.175710772506D+01 0.100000000000D+01
0.144788807399D-04 0.000000000000D+00 0.000000000000D+00 0.216962151244D-02 0.000000000000D+00  5 -1 21 25 24 -2 2 0.11119995D-01 0.59161276D-01 0.26631327D+05 0.26631327D+05 0.26631327D+05 0.12203653D+01  1  2 12  4  5  2        2 0.267001038301D-01 0.100000000000D+01
-.464251651751D-04 0.000000000000D+00 -.127810334324D-04 0.216962151244D-02 0.000000000000D+00  5 -1 21 25 24 -2 2 0.11119995D-01 0.61238380D-01 0.22251992D+05 0.22251992D+05 0.22251992D+05 0.12287569D+01  1  2  5  4  5  2        2 -.807024503623D-01 0.100000000000D+01
  </mgrwgt>
  </event>
  <event>
  4     66 0.45252658E-03 0.39798477E+02 0.75467711E-02 0.12211746E+00
       -1 -1    0    0    0  501 0.00000000E+00 0.00000000E+00 0.48817459E+02 0.48818508E+02 0.32000000E+00 0.0000E+00 0.9000E+01
        2 -1    0    0  501    0 0.00000000E+00 0.00000000E+00 -.33620448E+03 0.33620463E+03 0.32000000E+00 0.0000E+00 0.9000E+01
       25  1    1    2    0    0 0.98622877E+00 0.74826909E+02 -.14979500E+03 0.20895833E+03 0.12500000E+03 0.0000E+00 0.9000E+01
       24  1    1    2    0    0 -.98622877E+00 -.74826909E+02 -.13759201E+03 0.17606481E+03 0.80419002E+02 0.0000E+00 0.9000E+01
#aMCatNLO 1  0  0  1  2 0.12795194D+02 0.00000000D+00  -5  5  0 0.00000000D+00 0.00000000D+00 0.00000000D+00 0.00000000D+00 0.00000000D+00
  <mgrwgt>
 0.2109475401D+00    9    2    0
 0.128112760325280D+03 0.000000000000000D+00 0.000000000000000D+00 0.128112760325280D+03
 0.128112760325280D+03 0.000000000000000D+00 0.000000000000000D+00 -.128112760325280D+03
 0.145983314402754D+03 0.986228768579138D+00 0.748269093508045D+02 0.927841979195481D+01
 0.110242206247806D+03 -.986228768579138D+00 -.748269093508045D+02 -.927841979195481D+01
 0.000000000000000D+00 0.000000000000000D+00 -.000000000000000D+00 0.000000000000000D+00
 0.139302627803146D+03 0.000000000000000D+00 0.000000000000000D+00 0.139302627803146D+03
 0.131983043943508D+03 0.000000000000000D+00 0.000000000000000D+00 -.131983043943508D+03
 0.148002104536382D+03 -.535413527337642D+01 0.785166677135290D+02 0.927841979195481D+01
 0.108542695496026D+03 -.570474824122876D+01 -.720809792167175D+02 -.927841979195481D+01
 0.147408717142468D+02 0.110588835146052D+02 -.643568849681153D+01 0.731958385963867D+01
0.265258406278D-03 0.000000000000D+00 0.000000000000D+00 0.263553984114D-02 0.000000000000D+00  5 -1 2 25 24 21 0 0.75104707D-02 0.51723858D-01 0.16325073D+05 0.16325073D+05 0.16325073D+05 0.12436531D+01  1  2  2  1  5  1       -1 0.261149697557D+00 0.100000000000D+01
-.147364492324D-04 0.000000000000D+00 -.101866212425D-05 0.263553984114D-02 0.000000000000D+00  5 -1 2 25 24 21 2 0.75104707D-02 0.51723858D-01 0.16325073D+05 0.16325073D+05 0.16325073D+05 0.12436531D+01  1  2  3  1  5  1       -1 -.224394246859D-01 0.100000000000D+01
0.183246379488D-04 0.000000000000D+00 0.000000000000D+00 0.263553984114D-02 0.000000000000D+00  5 -1 2 25 24 21 2 0.75104707D-02 0.51723858D-01 0.16325073D+05 0.16325073D+05 0.16325073D+05 0.12436531D+01  1  2 15  1  5  1       -1 0.279032164848D-01 0.100000000000D+01
0.629234103898D-03 0.000000000000D+00 0.000000000000D+00 0.263553984114D-02 0.000000000000D+00  5 -1 2 25 24 21 2 0.82729004D-02 0.51723858D-01 0.18043417D+05 0.18043417D+05 0.18043417D+05 0.12387789D+01  1  2 12  1  5  1       -1 0.824750887009D+00 0.100000000000D+01
-.618864771564D-03 0.000000000000D+00 0.000000000000D+00 0.263553984114D-02 0.000000000000D+00  5 -1 2 25 24 21 2 0.75104707D-02 0.51723858D-01 0.16325073D+05 0.16325073D+05 0.16325073D+05 0.12436531D+01  1  2  4  1  5  1       -1 -.942355191085D+00 0.100000000000D+01
-.162489642991D-02 0.000000000000D+00 -.291819718666D-03 0.263553984114D-02 0.000000000000D+00  5 -1 2 25 24 21 2 0.84065403D-02 0.51723858D-01 0.16325073D+05 0.16325073D+05 0.16325073D+05 0.12436531D+01  1  2  5  1  5  1       -1 -.208805601509D+01 0.100000000000D+01
0.164914541066D-02 0.000000000000D+00 0.289975846260D-03 0.263553984114D-02 0.000000000000D+00  5 -1 2 25 24 21 2 0.75104707D-02 0.51723858D-01 0.16325073D+05 0.16325073D+05 0.16325073D+05 0.12436531D+01  1  2  6  1  5  1       -1 0.251117984090D+01 0.100000000000D+01
0.992637704819D-05 0.000000000000D+00 0.000000000000D+00 0.263553984114D-02 0.000000000000D+00  5 21 2 25 24 1 2 0.82729004D-02 0.51723858D-01 0.18043417D+05 0.18043417D+05 0.18043417D+05 0.12387789D+01  1  2 12  3  5  1       -1 0.204768741682D+00 0.100000000000D+01
-.280383269379D-04 0.000000000000D+00 -.525140939487D-05 0.263553984114D-02 0.000000000000D+00  5 21 2 25 24 1 2 0.84065403D-02 0.51723858D-01 0.16325073D+05 0.16325073D+05 0.16325073D+05 0.12436531D+01  1  2  5  3  5  1       -1 -.565954212668D+00 0.100000000000D+01
  </mgrwgt>
  </event>
  <event>
  5     66 0.45252658E-03 0.10614425E+03 0.75467711E-02 0.11046863E+00
       -1 -1    0    0    0  501 0.00000000E+00 0.00000000E+00 0.40597271E+02 0.40598532E+02 0.32000000E+00 0.0000E+00 0.9000E+01
        2 -1    0    0  502    0 0.00000000E+00 0.00000000E+00 -.20155408E+04 0.20155408E+04 0.32000000E+00 0.0000E+00 0.9000E+01
       25  1    1    2    0    0 -.10392208E+03 0.33310432E+01 -.33065616E+03 0.36846899E+03 0.12500000E+03 0.0000E+00 0.9000E+01
       24  1    1    2    0    0 -.11568006E+03 -.31221220E+02 -.43564574E+03 0.45892381E+03 0.80419002E+02 0.0000E+00 0.9000E+01
       21  1    1    2  502  501 0.21960214E+03 0.27890177E+02 -.12086416E+04 0.12287465E+04 0.75000000E+00 0.0000E+00 0.9000E+01
#aMCatNLO 2  0  0  2  1 0.22136612D+03 0.00000000D+00  -5  5  0 0.00000000D+00 0.00000000D+00 0.00000000D+00 0.00000000D+00 0.00000000D+00
  <mgrwgt>
 0.2646743374D-01    1    2    0
 0.109951439152939D+03 0.000000000000000D+00 0.000000000000000D+00 0.109951439152939D+03
 0.109951439152939D+03 0.000000000000000D+00 0.000000000000000D+00 -.109951439152939D+03
 0.130773776987215D+03 0.181879456767737D+02 0.188394085990692D+02 0.281257188921082D+02
 0.891291013186624D+02 -.181879456767737D+02 -.188394085990692D+02 -.281257188921082D+02
 0.000000000000000D+00 0.000000000000000D+00 0.000000000000000D+00 -.000000000000000D+00
 0.207356264419797D+03 0.000000000000000D+00 0.000000000000000D+00 0.207356264419797D+03
 0.394617674358501D+03 0.000000000000000D+00 0.000000000000000D+00 -.394617674358501D+03
 0.165005911323771D+03 -.103922080714816D+03 0.333104315395608D+01 0.281257188921082D+02
 0.147020107581335D+03 -.115680056429196D+03 -.312212197102668D+02 -.281257188921082D+02
 0.289947919873192D+03 0.219602137144013D+03 0.278901765563107D+02 -.187261409938704D+03
0.182668568137D-03 0.000000000000D+00 0.000000000000D+00 0.284758235133D-02 0.109151321334D-05  5 -1 2 25 24 21 2 0.62458203D-02 0.31008267D+00 0.69765197D+05 0.69765197D+05 0.69765197D+05 0.11782147D+01  1  2  1  2  5  2        2 0.264674337419D-01 0.100000000000D+01
  </mgrwgt>
  </event>
  <event>
  4     66 0.45252658E-03 0.72499941E+02 0.75467711E-02 0.12596361E+00
       -1 -1    0    0    0  501 0.00000000E+00 0.00000000E+00 0.20050673E+02 0.20053226E+02 0.32000000E+00 0.0000E+00 0.9000E+01
        2 -1    0    0  501    0 0.00000000E+00 0.00000000E+00 -.74400399E+03 0.74400405E+03 0.32000000E+00 0.0000E+00 0.9000E+01
       25  1    1    2    0    0 -.31569884E+02 -.12329282E+00 -.23984046E+03 0.27229601E+03 0.12500000E+03 0.0000E+00 0.9000E+01
       24  1    1    2    0    0 0.31569884E+02 0.12329282E+00 -.48411286E+03 0.49176127E+03 0.80419002E+02 0.0000E+00 0.9000E+01
#aMCatNLO 1  0  0  2  1 0.55837455D+01 0.00000000D+00  -5  5  0 0.00000000D+00 0.00000000D+00 0.00000000D+00 0.00000000D+00 0.00000000D+00
  <mgrwgt>
 0.3877209118D+00   11    2    0
 0.122142466431029D+03 0.000000000000000D+00 0.000000000000000D+00 0.122142466431029D+03
 0.122142466431029D+03 0.000000000000000D+00 0.000000000000000D+00 -.122142466431029D+03
 0.140886528822303D+03 -.315698836634803D+02 -.123292817984750D+00 0.568096932569878D+02
 0.103398404039754D+03 0.315698836634803D+02 0.123292817984750D+00 -.568096932569878D+02
 0.000000000000000D+00 -.000000000000000D+00 -.000000000000000D+00 -.000000000000000D+00
 0.122656820522463D+03 0.000000000000000D+00 0.000000000000000D+00 0.122656820522463D+03
 0.138330538060846D+03 0.000000000000000D+00 0.000000000000000D+00 -.138330538060846D+03
 0.140569496818997D+03 -.300037984296445D+02 0.268593890217451D+01 0.568096932569878D+02
 0.103779242971644D+03 0.327226671330334D+02 0.219114699295316D+01 -.568096932569878D+02
 0.166386187926684D+02 -.271886870338888D+01 -.487708589512767D+01 -.156737175383831D+02
0.161781246048D-03 0.000000000000D+00 0.000000000000D+00 0.222783670729D-02 0.000000000000D+00  5 -1 2 25 24 21 0 0.30849206D-02 0.11446235D+00 0.11590554D+05 0.11590554D+05 0.11590554D+05 0.12607950D+01  1  2  2  2  5  2        2 0.242545368759D+00 0.100000000000D+01
-.881376214999D-05 0.000000000000D+00 -.621282582805D-06 0.222783670729D-02 0.000000000000D+00  5 -1 2 25 24 21 2 0.30849206D-02 0.11446235D+00 0.11590554D+05 0.11590554D+05 0.11590554D+05 0.12607950D+01  1  2  3  2  5  2        2 -.210046317130D-01 0.100000000000D+01
0.110608558709D-04 0.000000000000D+00 0.000000000000D+00 0.222783670729D-02 0.000000000000D+00  5 -1 2 25 24 21 2 0.30849206D-02 0.11446235D+00 0.11590554D+05 0.11590554D+05 0.11590554D+05 0.12607950D+01  1  2 15  2  5  2        2 0.263598222922D-01 0.100000000000D+01
0.192021970965D-02 0.000000000000D+00 0.000000000000D+00 0.222783670729D-02 0.000000000000D+00  5 -1 2 25 24 21 2 0.30849206D-02 0.12985421D+00 0.12211524D+05 0.12211524D+05 0.12211524D+05 0.12581357D+01  1  2 12  2  5  2        2 0.391050391495D+01 0.100000000000D+01
-.302766791660D-02 0.000000000000D+00 0.000000000000D+00 0.222783670729D-02 0.000000000000D+00  5 -1 2 25 24 21 2 0.30849206D-02 0.11446235D+00 0.11590554D+05 0.11590554D+05 0.11590554D+05 0.12607950D+01  1  2  4  2  5  2        2 -.721542610923D+01 0.100000000000D+01
-.358683493100D-02 0.000000000000D+00 -.193570937326D-03 0.222783670729D-02 0.000000000000D+00  5 -1 2 25 24 21 2 0.30849206D-02 0.12987328D+00 0.11590554D+05 0.11590554D+05 0.11590554D+05 0.12607950D+01  1  2  5  2  5  2        2 -.732051449597D+01 0.100000000000D+01
0.358418855758D-02 0.000000000000D+00 0.192036921655D-03 0.222783670729D-02 0.000000000000D+00  5 -1 2 25 24 21 2 0.30849206D-02 0.11446235D+00 0.11590554D+05 0.11590554D+05 0.11590554D+05 0.12607950D+01  1  2  6  2  5  2        2 0.854170550112D+01 0.100000000000D+01
0.110761979810D-02 0.000000000000D+00 0.000000000000D+00 0.222783670729D-02 0.608196465402D-03  5 -1 2 25 24 21 2 0.30979115D-02 0.12963255D+00 0.12211524D+05 0.12211524D+05 0.12211524D+05 0.12581357D+01  1  2 11  2  5  2        2 0.224678339706D+01 0.100000000000D+01
0.379952514568D-04 0.000000000000D+00 0.000000000000D+00 0.222783670729D-02 0.000000000000D+00  5 -1 21 25 24 -2 2 0.30849206D-02 0.12985421D+00 0.12211524D+05 0.12211524D+05 0.12211524D+05 0.12581357D+01  1  2 12  4  5  2        2 0.836818720381D-01 0.100000000000D+01
-.700577298881D-04 0.000000000000D+00 -.383389215338D-05 0.222783670729D-02 0.000000000000D+00  5 -1 21 25 24 -2 2 0.30849206D-02 0.12987328D+00 0.11590554D+05 0.11590554D+05 0.11590554D+05 0.12607950D+01  1  2  5  4  5  2        2 -.154934434646D+00 0.100000000000D+01
0.218443160734D-04 0.000000000000D+00 0.000000000000D+00 0.222783670729D-02 0.119210857801D-04  5 -1 21 25 24 -2 2 0.30979115D-02 0.12963255D+00 0.12211524D+05 0.12211524D+05 0.12211524D+05 0.12581357D+01  1  2 11  4  5  2        2 0.480207071422D-01 0.100000000000D+01
  </mgrwgt>
  </event>
  <event>
  5     66 0.45252658E-03 0.12093753E+03 0.75467711E-02 0.12168398E+00
       -1 -1    0    0    0  501 0.00000000E+00 0.00000000E+00 0.31051242E+02 0.31052891E+02 0.32000000E+00 0.0000E+00 0.9000E+01
       21 -1    0    0  501  502 0.00000000E+00 0.00000000E+00 -.61864265E+03 0.61864310E+03 0.75000000E+00 0.0000E+00 0.9000E+01
       25  1    1    2    0    0 0.15409270E+02 -.47888364E+02 -.28933588E+03 0.31917235E+03 0.12500000E+03 0.0000E+00 0.9000E+01
       24  1    1    2    0    0 -.44379394E+02 0.58894455E+02 -.25450612E+03 0.27690914E+03 0.80419002E+02 0.0000E+00 0.9000E+01
       -2  1    1    2    0  502 0.28970123E+02 -.11006090E+02 -.43749407E+02 0.53614504E+02 0.32000000E+00 0.0000E+00 0.9000E+01
#aMCatNLO 2  0  0  2  1 0.30990355D+02 0.00000000D+00  -5  5  0 0.00000000D+00 0.00000000D+00 0.00000000D+00 0.00000000D+00 0.00000000D+00
  <mgrwgt>
 0.1735122786D-01    1    2    0
 0.121025430162799D+03 0.000000000000000D+00 0.000000000000000D+00 0.121025430162799D+03
 0.121025430162799D+03 0.000000000000000D+00 0.000000000000000D+00 -.121025430162799D+03
 0.139942495843356D+03 0.317850723594675D+02 -.541097239238221D+02 0.455511743634753D+01
 0.102108364482242D+03 -.317850723594675D+02 0.541097239238221D+02 -.455511743634753D+01
 0.000000000000000D+00 0.000000000000000D+00 -.000000000000000D+00 0.000000000000000D+00
 0.145053975158182D+03 0.000000000000000D+00 0.000000000000000D+00 0.145053975158182D+03
 0.132434082920946D+03 0.000000000000000D+00 0.000000000000000D+00 -.132434082920946D+03
 0.134820214114948D+03 0.154092703030760D+02 -.478883642220972D+02 0.455511743634753D+01
 0.109206466921879D+03 -.443793936601227D+02 0.588944546344556D+02 -.455511743634753D+01
 0.334613770423000D+02 0.289701233570467D+02 -.110060904123584D+02 0.126198922372361D+02
0.736079536838D-05 0.000000000000D+00 0.000000000000D+00 0.276070112867D-02 0.405062359567D-06  5 -1 21 25 24 -2 2 0.47772491D-02 0.95175420D-01 0.18884947D+05 0.18884947D+05 0.18884947D+05 0.12365783D+01  1  2  1  4  5  2        2 0.173512278620D-01 0.100000000000D+01
  </mgrwgt>
  </event>
  <event>
  4     66 0.45252658E-03 0.13034421E+03 0.75467711E-02 0.11006680E+00
       -1 -1    0    0    0  501 0.00000000E+00 0.00000000E+00 0.47688435E+02 0.47689508E+02 0.32000000E+00 0.0000E+00 0.9000E+01
        2 -1    0    0  501    0 0.00000000E+00 0.00000000E+00 -.57268745E+03 0.57268754E+03 0.32000000E+00 0.0000E+00 0.9000E+01
       25  1    1    2    0    0 0.94080581E+00 -.79064126E+02 -.47411318E+03 0.49664910E+03 0.12500000E+03 0.0000E+00 0.9000E+01
       24  1    1    2    0    0 -.94080581E+00 0.79064126E+02 -.50885836E+02 0.12372795E+03 0.80419002E+02 0.0000E+00 0.9000E+01
#aMCatNLO 1  0  0  1  2 0.21050074D+03 0.00000000D+00  -5  5  0 0.00000000D+00 0.00000000D+00 0.00000000D+00 0.00000000D+00 0.00000000D+00
  <mgrwgt>
 0.3471248428D+00    3    2    0
 0.165260186094219D+03 0.000000000000000D+00 0.000000000000000D+00 0.165260186094219D+03
 0.165260186094219D+03 0.000000000000000D+00 0.000000000000000D+00 -.165260186094219D+03
 0.179113770950417D+03 0.940805806750454D+00 -.790641259004533D+02 -.101018423191564D+03
 0.151406601238021D+03 -.940805806750454D+00 0.790641259004533D+02 0.101018423191564D+03
 0.000000000000000D+00 -.000000000000000D+00 0.000000000000000D+00 -.000000000000000D+00
 0.293877572480281D+03 0.000000000000000D+00 0.000000000000000D+00 0.293877572480281D+03
 0.309027669043566D+03 0.000000000000000D+00 0.000000000000000D+00 -.309027669043566D+03
 0.237582514977157D+03 0.106745696859411D+03 -.138640130556632D+03 -.101018423191564D+03
 0.154277506067249D+03 0.766765734745839D+02 0.353597819569990D+02 0.101018423191564D+03
 0.211045220479441D+03 -.183422270333995D+03 0.103280348599633D+03 -.151500965632843D+02
0.589835890684D-03 0.000000000000D+00 0.000000000000D+00 0.150543993538D-02 0.000000000000D+00  5 -1 2 25 24 21 0 0.73367717D-02 0.88105852D-01 0.16989613D+05 0.16989613D+05 0.16989613D+05 0.12417027D+01  1  2  2  1  5  1       -1 0.338522998667D+00 0.100000000000D+01
-.305243094405D-04 0.000000000000D+00 -.226512512758D-05 0.150543993538D-02 0.000000000000D+00  5 -1 2 25 24 21 2 0.73367717D-02 0.88105852D-01 0.16989613D+05 0.16989613D+05 0.16989613D+05 0.12417027D+01  1  2  3  1  5  1       -1 -.270108402813D-01 0.100000000000D+01
0.402450493216D-04 0.000000000000D+00 0.000000000000D+00 0.150543993538D-02 0.000000000000D+00  5 -1 2 25 24 21 2 0.73367717D-02 0.88105852D-01 0.16989613D+05 0.16989613D+05 0.16989613D+05 0.12417027D+01  1  2 15  1  5  1       -1 0.356126844231D-01 0.100000000000D+01
  </mgrwgt>
  </event>
  <event>
  5     66 0.45252658E-03 0.11566921E+03 0.75467711E-02 0.11699536E+00
       -3 -1    0    0    0  501 0.00000000E+00 0.00000000E+00 0.64838738E+02 0.64840666E+02 0.50000000E+00 0.0000E+00 0.9000E+01
       21 -1    0    0  501  502 0.00000000E+00 0.00000000E+00 -.64640002E+03 0.64640045E+03 0.75000000E+00 0.0000E+00 0.9000E+01
       25  1    1    2    0    0 0.73550532E+01 -.10598491E+03 -.16716477E+03 0.23421349E+03 0.12500000E+03 0.0000E+00 0.9000E+01
       24  1    1    2    0    0 0.35671129E+02 0.12796358E+02 -.58014676E+02 0.10615599E+03 0.80419002E+02 0.0000E+00 0.9000E+01
       -4  1    1    2    0  502 -.43026182E+02 0.93188550E+02 -.35638184E+03 0.37087164E+03 0.15500000E+01 0.0000E+00 0.9000E+01
#aMCatNLO 2  0  0  2  1 0.10264189D+03 0.00000000D+00  -5  5  0 0.00000000D+00 0.00000000D+00 0.00000000D+00 0.00000000D+00 0.00000000D+00
  <mgrwgt>
 0.1784250668D-01    2    2    0
 0.116844171988394D+03 0.000000000000000D+00 0.000000000000000D+00 0.116844171988394D+03
 0.116844171988394D+03 0.000000000000000D+00 0.000000000000000D+00 -.116844171988394D+03
 0.136438183161110D+03 -.191592663704007D+02 -.485586879498298D+02 -.162896949340270D+02
 0.972501608156774D+02 0.191592663704007D+02 0.485586879498298D+02 0.162896949340270D+02
 0.000000000000000D+00 -.000000000000000D+00 0.000000000000000D+00 -.000000000000000D+00
 0.143668273379377D+03 0.000000000000000D+00 0.000000000000000D+00 0.143668273379377D+03
 0.291719384921809D+03 0.000000000000000D+00 0.000000000000000D+00 -.291719384921809D+03
 0.164855244360031D+03 0.735505321697775D+01 -.105984907529975D+03 -.162896949340270D+02
 0.903811171273986D+02 0.356711289387332D+02 0.127963579982206D+02 0.162896949340270D+02
 0.180151296813757D+03 -.430261821557109D+02 0.931885495317543D+02 -.148051111542432D+03
-.462577819595D-06 0.000000000000D+00 0.000000000000D+00 0.279923878845D-02 0.000000000000D+00  5 -3 21 25 24 -4 2 0.81127121D-02 0.97431336D-01 0.31611307D+05 0.31611307D+05 0.31611307D+05 0.12125209D+01  1  2 13  4  5  2        4 -.304594433261D-03 0.100000000000D+01
0.406653722796D-04 0.000000000000D+00 0.000000000000D+00 0.279923878845D-02 0.429287051392D-06  5 -3 21 25 24 -4 2 0.99751602D-02 0.99444225D-01 0.31611307D+05 0.31611307D+05 0.31611307D+05 0.12125209D+01  1  2  1  4  5  2        4 0.181471011179D-01 0.100000000000D+01
  </mgrwgt>
  </event>
  <event>
  4     66 0.45252658E-03 0.10088141E+03 0.75467711E-02 0.12262000E+00
       -1 -1    0    0    0  501 0.00000000E+00 0.00000000E+00 0.30097774E+02 0.30099475E+02 0.32000000E+00 0.0000E+00 0.9000E+01
        2 -1    0    0  501    0 0.00000000E+00 0.00000000E+00 -.51505684E+03 0.51505694E+03 0.32000000E+00 0.0000E+00 0.9000E+01
       25  1    1    2    0    0 -.83421948E+01 0.66912832E+02 -.31274005E+03 0.34347964E+03 0.12500000E+03 0.0000E+00 0.9000E+01
       24  1    1    2    0    0 0.83421948E+01 -.66912832E+02 -.17221902E+03 0.20167678E+03 0.80419002E+02 0.0000E+00 0.9000E+01
#aMCatNLO 1  0  0  1  2 0.14306503D+02 0.00000000D+00  -5  5  0 0.00000000D+00 0.00000000D+00 0.00000000D+00 0.00000000D+00 0.00000000D+00
  <mgrwgt>
 0.2333879319D+00    9    2    0
 0.124509258329024D+03 0.000000000000000D+00 0.000000000000000D+00 0.124509258329024D+03
 0.124509258329024D+03 0.000000000000000D+00 0.000000000000000D+00 -.124509258329024D+03
 0.142897015529837D+03 -.834219481568971D+01 0.669128315891396D+02 -.157365117391008D+02
 0.106121501128211D+03 0.834219481568971D+01 -.669128315891396D+02 0.157365117391008D+02
 0.000000000000000D+00 0.000000000000000D+00 0.000000000000000D+00 0.000000000000000D+00
 0.153303070771262D+03 0.000000000000000D+00 0.000000000000000D+00 0.153303070771262D+03
 0.126504417777345D+03 0.000000000000000D+00 0.000000000000000D+00 -.126504417777345D+03
 0.142497482415525D+03 -.161945418953488D+02 0.645804266465301D+02 -.157365117391008D+02
 0.106931661186392D+03 0.248024797033219D+01 -.686540223002384D+02 0.157365117391008D+02
 0.303783449466894D+02 0.137142939250166D+02 0.407359565370839D+01 0.267986529939172D+02
0.188869486285D-03 0.000000000000D+00 0.000000000000D+00 0.266585636474D-02 0.000000000000D+00  5 -1 2 25 24 21 0 0.46305653D-02 0.79239653D-01 0.15249302D+05 0.15249302D+05 0.15249302D+05 0.12470073D+01  1  2  2  1  5  1       -1 0.240772498394D+00 0.100000000000D+01
-.104918839578D-04 0.000000000000D+00 -.725308557811D-06 0.266585636474D-02 0.000000000000D+00  5 -1 2 25 24 21 2 0.46305653D-02 0.79239653D-01 0.15249302D+05 0.15249302D+05 0.15249302D+05 0.12470073D+01  1  2  3  1  5  1       -1 -.207987158130D-01 0.100000000000D+01
0.130488110038D-04 0.000000000000D+00 0.000000000000D+00 0.266585636474D-02 0.000000000000D+00  5 -1 2 25 24 21 2 0.46305653D-02 0.79239653D-01 0.15249302D+05 0.15249302D+05 0.15249302D+05 0.12470073D+01  1  2 15  1  5  1       -1 0.258674717389D-01 0.100000000000D+01
0.824027735979D-03 0.000000000000D+00 0.000000000000D+00 0.266585636474D-02 0.000000000000D+00  5 -1 2 25 24 21 2 0.57327251D-02 0.79239653D-01 0.17121696D+05 0.17121696D+05 0.17121696D+05 0.12413253D+01  1  2 12  1  5  1       -1 0.118542169960D+01 0.100000000000D+01
-.825433688447D-03 0.000000000000D+00 0.000000000000D+00 0.266585636474D-02 0.000000000000D+00  5 -1 2 25 24 21 2 0.46305653D-02 0.79239653D-01 0.15249302D+05 0.15249302D+05 0.15249302D+05 0.12470073D+01  1  2  4  1  5  1       -1 -.163630867226D+01 0.100000000000D+01
-.105914246129D-02 0.000000000000D+00 -.113225536805D-03 0.266585636474D-02 0.000000000000D+00  5 -1 2 25 24 21 2 0.57867510D-02 0.79239653D-01 0.15249302D+05 0.15249302D+05 0.15249302D+05 0.12470073D+01  1  2  5  1  5  1       -1 -.151045719701D+01 0.100000000000D+01
0.106067807313D-02 0.000000000000D+00 0.110470033986D-03 0.266585636474D-02 0.000000000000D+00  5 -1 2 25 24 21 2 0.46305653D-02 0.79239653D-01 0.15249302D+05 0.15249302D+05 0.15249302D+05 0.12470073D+01  1  2  6  1  5  1       -1 0.210264828518D+01 0.100000000000D+01
0.247860242514D-04 0.000000000000D+00 0.000000000000D+00 0.266585636474D-02 0.000000000000D+00  5 21 2 25 24 1 2 0.57327251D-02 0.79239653D-01 0.17121696D+05 0.17121696D+05 0.17121696D+05 0.12413253D+01  1  2 12  3  5  1       -1 0.607223155025D+00 0.100000000000D+01
-.313407329367D-04 0.000000000000D+00 -.351805399111D-05 0.266585636474D-02 0.000000000000D+00  5 21 2 25 24 1 2 0.57867510D-02 0.79239653D-01 0.15249302D+05 0.15249302D+05 0.15249302D+05 0.12470073D+01  1  2  5  3  5  1       -1 -.760980592978D+00 0.100000000000D+01
  </mgrwgt>
  </event>
  <event>
  4     66 0.45252658E-03 0.14718801E+03 0.75467711E-02 0.11126905E+00
       -1 -1    0    0    0  501 0.00000000E+00 0.00000000E+00 0.13423858E+02 0.13427672E+02 0.32000000E+00 0.0000E+00 0.9000E+01
        2 -1    0    0  501    0 0.00000000E+00 0.00000000E+00 -.19297333E+04 0.19297333E+04 0.32000000E+00 0.0000E+00 0.9000E+01
       25  1    1    2    0    0 -.63941994E+02 -.82289532E+02 -.65143905E+03 0.67145959E+03 0.12500000E+03 0.0000E+00 0.9000E+01
       24  1    1    2    0    0 0.63941994E+02 0.82289532E+02 -.12648704E+04 0.12717014E+04 0.80419002E+02 0.0000E+00 0.9000E+01
#aMCatNLO 1  0  0  1  2 0.16534300D+03 0.00000000D+00  -5  5  0 0.00000000D+00 0.00000000D+00 0.00000000D+00 0.00000000D+00 0.00000000D+00
  <mgrwgt>
 0.4221396447D+00    3    2    0
 0.160960233507055D+03 0.000000000000000D+00 0.000000000000000D+00 0.160960233507055D+03
 0.160960233507055D+03 0.000000000000000D+00 0.000000000000000D+00 -.160960233507055D+03
 0.175183908271462D+03 -.639419938430310D+02 -.822895320262049D+02 0.648402348819768D+02
 0.146736558742648D+03 0.639419938430310D+02 0.822895320262049D+02 -.648402348819768D+02
 0.000000000000000D+00 -.000000000000000D+00 -.000000000000000D+00 -.000000000000000D+00
 0.235082673915560D+03 0.000000000000000D+00 0.000000000000000D+00 0.235082673915560D+03
 0.307204852390759D+03 0.000000000000000D+00 0.000000000000000D+00 -.307204852390759D+03
 0.144023465270779D+03 -.795928628433931D+01 -.291573704386627D+02 0.648402348819768D+02
 0.217875823023275D+03 0.127887848583691D+03 0.142979370640607D+03 -.648402348819768D+02
 0.180388238012264D+03 -.119928562299352D+03 -.113822000201944D+03 -.721221784751990D+02
0.692709118661D-03 0.000000000000D+00 0.000000000000D+00 0.198157334901D-02 0.000000000000D+00  5 -1 2 25 24 21 0 0.20655043D-02 0.29688234D+00 0.21664309D+05 0.21664309D+05 0.21664309D+05 0.12300225D+01  1  2  2  1  5  1       -1 0.413459228059D+00 0.100000000000D+01
-.381094813832D-04 0.000000000000D+00 -.266018541016D-05 0.198157334901D-02 0.000000000000D+00  5 -1 2 25 24 21 2 0.20655043D-02 0.29688234D+00 0.21664309D+05 0.21664309D+05 0.21664309D+05 0.12300225D+01  1  2  3  1  5  1       -1 -.344144554788D-01 0.100000000000D+01
0.477219007386D-04 0.000000000000D+00 0.000000000000D+00 0.198157334901D-02 0.000000000000D+00  5 -1 2 25 24 21 2 0.20655043D-02 0.29688234D+00 0.21664309D+05 0.21664309D+05 0.21664309D+05 0.12300225D+01  1  2 15  1  5  1       -1 0.430948721611D-01 0.100000000000D+01
  </mgrwgt>
  </event>
  <event>
  4     66 0.45252658E-03 0.13071792E+03 0.75467711E-02 0.11376704E+00
       -1 -1    0    0    0  501 0.00000000E+00 0.00000000E+00 0.62718052E+02 0.62718868E+02 0.32000000E+00 0.0000E+00 0.9000E+01
        2 -1    0    0  501    0 0.00000000E+00 0.00000000E+00 -.27682059E+03 0.27682078E+03 0.32000000E+00 0.0000E+00 0.9000E+01
       25  1    1    2    0    0 0.75518881E+02 0.25391309E+02 -.10000476E+03 0.17881211E+03 0.12500000E+03 0.0000E+00 0.9000E+01
       24  1    1    2    0    0 -.75518881E+02 -.25391309E+02 -.11409778E+03 0.16072753E+03 0.80419002E+02 0.0000E+00 0.9000E+01
#aMCatNLO 1  0  0  2  2 0.13550594D+03 0.00000000D+00  -5  5  0 0.00000000D+00 0.00000000D+00 0.00000000D+00 0.00000000D+00 0.00000000D+00
  <mgrwgt>
 0.4407910900D+00    3    2    0
 0.131764252942286D+03 0.000000000000000D+00 0.000000000000000D+00 0.131764252942286D+03
 0.131764252942286D+03 0.000000000000000D+00 0.000000000000000D+00 -.131764252942286D+03
 0.149139572577803D+03 0.755188813010343D+02 0.253913087284059D+02 0.164253498224195D+02
 0.114388933306768D+03 -.755188813010343D+02 -.253913087284059D+02 -.164253498224195D+02
 0.000000000000000D+00 -.000000000000000D+00 0.000000000000000D+00 0.000000000000000D+00
 0.303003584651090D+03 0.000000000000000D+00 0.000000000000000D+00 0.303003584651090D+03
 0.177809429752946D+03 0.000000000000000D+00 0.000000000000000D+00 -.177809429752946D+03
 0.161554146082337D+03 0.885188486118031D+02 -.486761074865765D+02 0.164253498224195D+02
 0.134771913401088D+03 -.650935567199835D+02 -.847896776982511D+02 -.164253498224195D+02
 0.184486954920612D+03 -.234252918918196D+02 0.133465785184828D+03 0.125194154898143D+03
0.520570725496D-03 0.000000000000D+00 0.000000000000D+00 0.256132634145D-02 0.000000000000D+00  5 -1 2 25 24 21 0 0.96490081D-02 0.42587861D-01 0.17087174D+05 0.17087174D+05 0.17087174D+05 0.12414236D+01  1  2  2  2  5  2        2 0.431779415160D+00 0.100000000000D+01
-.289183607642D-04 0.000000000000D+00 -.199912865533D-05 0.256132634145D-02 0.000000000000D+00  5 -1 2 25 24 21 2 0.96490081D-02 0.42587861D-01 0.17087174D+05 0.17087174D+05 0.17087174D+05 0.12414236D+01  1  2  3  2  5  2        2 -.369654383697D-01 0.100000000000D+01
0.359682667181D-04 0.000000000000D+00 0.000000000000D+00 0.256132634145D-02 0.000000000000D+00  5 -1 2 25 24 21 2 0.96490081D-02 0.42587861D-01 0.17087174D+05 0.17087174D+05 0.17087174D+05 0.12414236D+01  1  2 15  2  5  2        2 0.459771132075D-01 0.100000000000D+01
  </mgrwgt>
  </event>
  <event>
  4     66 0.45252658E-03 0.61831241E+02 0.75467711E-02 0.12259634E+00
       -1 -1    0    0    0  501 0.00000000E+00 0.00000000E+00 0.13556407E+02 0.13560184E+02 0.32000000E+00 0.0000E+00 0.9000E+01
        2 -1    0    0  501    0 0.00000000E+00 0.00000000E+00 -.14847008E+04 0.14847009E+04 0.32000000E+00 0.0000E+00 0.9000E+01
       25  1    1    2    0    0 0.43355849E+02 -.44692768E+02 -.42882513E+03 0.45099132E+03 0.12500000E+03 0.0000E+00 0.9000E+01
       24  1    1    2    0    0 -.43355849E+02 0.44692768E+02 -.10423193E+04 0.10472697E+04 0.80419002E+02 0.0000E+00 0.9000E+01
#aMCatNLO 1  0  0  2  1 0.19876716D+02 0.00000000D+00  -5  5  0 0.00000000D+00 0.00000000D+00 0.00000000D+00 0.00000000D+00 0.00000000D+00
  <mgrwgt>
 0.6761966819D+00    9    2    0
 0.141880457531271D+03 0.000000000000000D+00 0.000000000000000D+00 0.141880457531271D+03
 0.141880457531271D+03 0.000000000000000D+00 0.000000000000000D+00 -.141880457531271D+03
 0.158016901205361D+03 0.433558488456609D+02 -.446927678332271D+02 0.739402998426579D+02
 0.125744013857182D+03 -.433558488456609D+02 0.446927678332271D+02 -.739402998426579D+02
 0.000000000000000D+00 0.000000000000000D+00 0.000000000000000D+00 -.000000000000000D+00
 0.149640484932096D+03 0.000000000000000D+00 0.000000000000000D+00 0.149640484932096D+03
 0.155553252023412D+03 0.000000000000000D+00 0.000000000000000D+00 -.155553252023412D+03
 0.158700780225996D+03 0.359468971953758D+02 -.529300508741754D+02 0.739402998426579D+02
 0.125755439143662D+03 -.492391556409598D+02 0.381516989240047D+02 -.739402998426579D+02
 0.207375175858507D+02 0.132922584455841D+02 0.147783519501707D+02 -.591276709131595D+01
0.287723793468D-03 0.000000000000D+00 0.000000000000D+00 0.187278286155D-02 0.000000000000D+00  5 -1 2 25 24 21 0 0.20858943D-02 0.22841581D+00 0.14563367D+05 0.14563367D+05 0.14563367D+05 0.12492878D+01  1  2  2  2  5  2        2 0.284692629950D+00 0.100000000000D+01
-.154755306156D-04 0.000000000000D+00 -.110493512633D-05 0.187278286155D-02 0.000000000000D+00  5 -1 2 25 24 21 2 0.20858943D-02 0.22841581D+00 0.14563367D+05 0.14563367D+05 0.14563367D+05 0.12492878D+01  1  2  3  2  5  2        2 -.238985178668D-01 0.100000000000D+01
0.196400902785D-04 0.000000000000D+00 0.000000000000D+00 0.187278286155D-02 0.000000000000D+00  5 -1 2 25 24 21 2 0.20858943D-02 0.22841581D+00 0.14563367D+05 0.14563367D+05 0.14563367D+05 0.12492878D+01  1  2 15  2  5  2        2 0.303297547646D-01 0.100000000000D+01
0.502982456365D-03 0.000000000000D+00 0.000000000000D+00 0.187278286155D-02 0.000000000000D+00  5 -1 2 25 24 21 2 0.20858943D-02 0.25619453D+00 0.17163849D+05 0.17163849D+05 0.17163849D+05 0.12412055D+01  1  2 12  2  5  2        2 0.620881379524D+00 0.100000000000D+01
-.464515827096D-03 0.000000000000D+00 0.000000000000D+00 0.187278286155D-02 0.000000000000D+00  5 -1 2 25 24 21 2 0.20858943D-02 0.22841581D+00 0.14563367D+05 0.14563367D+05 0.14563367D+05 0.12492878D+01  1  2  4  2  5  2        2 -.717341464339D+00 0.100000000000D+01
-.142869803813D-02 0.000000000000D+00 -.312772695133D-03 0.187278286155D-02 0.000000000000D+00  5 -1 2 25 24 21 2 0.20858943D-02 0.25772489D+00 0.14563367D+05 0.14563367D+05 0.14563367D+05 0.12492878D+01  1  2  5  2  5  2        2 -.176098103402D+01 0.100000000000D+01
0.145808466653D-02 0.000000000000D+00 0.310507196917D-03 0.187278286155D-02 0.000000000000D+00  5 -1 2 25 24 21 2 0.20858943D-02 0.22841581D+00 0.14563367D+05 0.14563367D+05 0.14563367D+05 0.12492878D+01  1  2  6  2  5  2        2 0.225168773336D+01 0.100000000000D+01
0.919125912071D-05 0.000000000000D+00 0.000000000000D+00 0.187278286155D-02 0.000000000000D+00  5 -1 21 25 24 -2 2 0.20858943D-02 0.25619453D+00 0.17163849D+05 0.17163849D+05 0.17163849D+05 0.12412055D+01  1  2 12  4  5  2        2 0.507349083785D-02 0.100000000000D+01
-.257826670864D-04 0.000000000000D+00 -.596459447254D-05 0.187278286155D-02 0.000000000000D+00  5 -1 21 25 24 -2 2 0.20858943D-02 0.25772489D+00 0.14563367D+05 0.14563367D+05 0.14563367D+05 0.12492878D+01  1  2  5  4  5  2        2 -.142472902650D-01 0.100000000000D+01
  </mgrwgt>
  </event>
  <event>
  4     66 0.45252658E-03 0.10715090E+03 0.75467711E-02 0.10855455E+00
       -1 -1    0    0    0  501 0.00000000E+00 0.00000000E+00 0.15425361E+03 0.15425394E+03 0.32000000E+00 0.0000E+00 0.9000E+01
        2 -1    0    0  501    0 0.00000000E+00 0.00000000E+00 -.79871768E+02 0.79872409E+02 0.32000000E+00 0.0000E+00 0.9000E+01
       25  1    1    2    0    0 -.23091705E+02 0.18934344E+02 0.14119472E+02 0.12929074E+03 0.12500000E+03 0.0000E+00 0.9000E+01
       24  1    1    2    0    0 0.23091705E+02 -.18934344E+02 0.60262372E+02 0.10483561E+03 0.80419002E+02 0.0000E+00 0.9000E+01
#aMCatNLO 1  0  0  1  1 0.26104790D+03 0.00000000D+00  -5  5  0 0.00000000D+00 0.00000000D+00 0.00000000D+00 0.00000000D+00 0.00000000D+00
  <mgrwgt>
 0.2995398867D+00    5    2    0
 0.110998300320532D+03 0.000000000000000D+00 0.000000000000000D+00 0.110998300320532D+03
 0.110998300320532D+03 0.000000000000000D+00 0.000000000000000D+00 -.110998300320532D+03
 0.131624255896393D+03 -.230917046995366D+02 0.189343443408299D+02 -.284290084021848D+02
 0.903723447446714D+02 0.230917046995366D+02 -.189343443408299D+02 0.284290084021848D+02
 0.000000000000000D+00 -.000000000000000D+00 -.000000000000000D+00 0.000000000000000D+00
 0.403345646583058D+03 0.000000000000000D+00 0.000000000000000D+00 0.403345646583058D+03
 0.244770366190523D+03 0.000000000000000D+00 0.000000000000000D+00 -.244770366190523D+03
 0.204743179576716D+03 0.700478942111396D+02 0.143456800400110D+03 -.284290084021848D+02
 0.137935236326981D+03 0.863097046803353D+02 0.655846005207873D+02 0.284290084021848D+02
 0.305437596869884D+03 -.156357598891475D+03 -.209041400920897D+03 0.158575280392535D+03
0.344552863052D-03 0.000000000000D+00 0.000000000000D+00 0.282001635044D-02 0.000000000000D+00  5 -1 2 25 24 21 0 0.23731400D-01 0.12288039D-01 0.11481314D+05 0.11481314D+05 0.11481314D+05 0.12612793D+01  1  2  2  1  5  1       -1 0.274791069229D+00 0.100000000000D+01
-.191128627247D-04 0.000000000000D+00 -.132317371697D-05 0.282001635044D-02 0.000000000000D+00  5 -1 2 25 24 21 2 0.23731400D-01 0.12288039D-01 0.11481314D+05 0.11481314D+05 0.11481314D+05 0.12612793D+01  1  2  3  1  5  1       -1 -.242490685255D-01 0.100000000000D+01
0.237673759667D-04 0.000000000000D+00 0.000000000000D+00 0.282001635044D-02 0.000000000000D+00  5 -1 2 25 24 21 2 0.23731400D-01 0.12288039D-01 0.11481314D+05 0.11481314D+05 0.11481314D+05 0.12612793D+01  1  2 15  1  5  1       -1 0.301543906210D-01 0.100000000000D+01
0.267664522846D-03 0.000000000000D+00 -.162942870282D-03 0.282001635044D-02 0.000000000000D+00  5 -1 2 25 24 21 2 0.16406946D+00 0.12288039D-01 0.11481314D+05 0.11481314D+05 0.11481314D+05 0.12612793D+01  1  2  5  1  5  1       -1 0.731864221354D-02 0.100000000000D+01
0.483451430586D-04 0.000000000000D+00 -.385267205728D-04 0.282001635044D-02 0.000000000000D+00  5 21 2 25 24 1 2 0.16406946D+00 0.12288039D-01 0.11481314D+05 0.11481314D+05 0.11481314D+05 0.12612793D+01  1  2  5  3  5  1       -1 0.115248531612D-01 0.100000000000D+01
  </mgrwgt>
  </event>
  <event>
  4     66 0.45252658E-03 0.13829528E+03 0.75467711E-02 0.11265752E+00
       -1 -1    0    0    0  501 0.00000000E+00 0.00000000E+00 0.11238706E+03 0.11238752E+03 0.32000000E+00 0.0000E+00 0.9000E+01
        2 -1    0    0  501    0 0.00000000E+00 0.00000000E+00 -.25470688E+03 0.25470708E+03 0.32000000E+00 0.0000E+00 0.9000E+01
       25  1    1    2    0    0 -.43657066E+02 0.80296939E+02 0.28380926E+02 0.15742940E+03 0.12500000E+03 0.0000E+00 0.9000E+01
       24  1    1    2    0    0 0.43657066E+02 -.80296939E+02 -.17070074E+03 0.20966520E+03 0.80419002E+02 0.0000E+00 0.9000E+01
#aMCatNLO 1  0  0  1  1 0.14682547D+03 0.00000000D+00  -5  5  0 0.00000000D+00 0.00000000D+00 0.00000000D+00 0.00000000D+00 0.00000000D+00
  <mgrwgt>
 0.2484073632D+00    5    2    0
 0.169191840166385D+03 0.000000000000000D+00 0.000000000000000D+00 0.169191840166385D+03
 0.169191840166385D+03 0.000000000000000D+00 0.000000000000000D+00 -.169191840166385D+03
 0.182723497539199D+03 -.436570656738874D+02 0.802969394536166D+02 0.970017457785459D+02
 0.155660182793571D+03 0.436570656738874D+02 -.802969394536166D+02 -.970017457785459D+02
 0.000000000000000D+00 0.000000000000000D+00 0.000000000000000D+00 0.000000000000000D+00
 0.382099292086724D+03 0.000000000000000D+00 0.000000000000000D+00 0.382099292086724D+03
 0.211697606264441D+03 0.000000000000000D+00 0.000000000000000D+00 -.211697606264441D+03
 0.196661197980207D+03 -.110319502614443D+03 0.383522548206307D+02 0.970017457785459D+02
 0.172203592567144D+03 -.139525282506999D+02 -.116545483009802D+03 -.970017457785459D+02
 0.224932107803814D+03 0.124272030865143D+03 0.781932281891714D+02 0.170401685822283D+03
0.743872984456D-03 0.000000000000D+00 0.000000000000D+00 0.158443233140D-02 0.000000000000D+00  5 -1 2 25 24 21 0 0.17290368D-01 0.39185725D-01 0.19125586D+05 0.19125586D+05 0.19125586D+05 0.12359692D+01  1  2  2  1  5  1       -1 0.273605605286D+00 0.100000000000D+01
-.392832686362D-04 0.000000000000D+00 -.285666812657D-05 0.158443233140D-02 0.000000000000D+00  5 -1 2 25 24 21 2 0.17290368D-01 0.39185725D-01 0.19125586D+05 0.19125586D+05 0.19125586D+05 0.12359692D+01  1  2  3  1  5  1       -1 -.220723789669D-01 0.100000000000D+01
0.510747366208D-04 0.000000000000D+00 0.000000000000D+00 0.158443233140D-02 0.000000000000D+00  5 -1 2 25 24 21 2 0.17290368D-01 0.39185725D-01 0.19125586D+05 0.19125586D+05 0.19125586D+05 0.12359692D+01  1  2 15  1  5  1       -1 0.286977377766D-01 0.100000000000D+01
-.199693020758D-03 0.000000000000D+00 -.209891187743D-03 0.158443233140D-02 0.000000000000D+00  5 -1 2 25 24 21 2 0.47461863D-01 0.39185725D-01 0.19125586D+05 0.19125586D+05 0.19125586D+05 0.12359692D+01  1  2  5  1  5  1       -1 -.205884496957D-01 0.100000000000D+01
-.105616199333D-04 0.000000000000D+00 -.237133469133D-04 0.158443233140D-02 0.000000000000D+00  5 21 2 25 24 1 2 0.47461863D-01 0.39185725D-01 0.19125586D+05 0.19125586D+05 0.19125586D+05 0.12359692D+01  1  2  5  3  5  1       -1 -.112351512180D-01 0.100000000000D+01
  </mgrwgt>
  </event>
  <event>
  4     66 0.45252658E-03 0.67083979E+02 0.75467711E-02 0.12709306E+00
       -1 -1    0    0    0  501 0.00000000E+00 0.00000000E+00 0.64762546E+01 0.64841556E+01 0.32000000E+00 0.0000E+00 0.9000E+01
        2 -1    0    0  501    0 0.00000000E+00 0.00000000E+00 -.16785226E+04 0.16785226E+04 0.32000000E+00 0.0000E+00 0.9000E+01
       25  1    1    2    0    0 -.20508897E+00 -.13079658E+02 -.91576860E+03 0.92435288E+03 0.12500000E+03 0.0000E+00 0.9000E+01
       24  1    1    2    0    0 0.20508897E+00 0.13079658E+02 -.75627775E+03 0.76065391E+03 0.80419002E+02 0.0000E+00 0.9000E+01
#aMCatNLO 1  0  0  2  1 0.20113164D+01 0.00000000D+00  -5  5  0 0.00000000D+00 0.00000000D+00 0.00000000D+00 0.00000000D+00 0.00000000D+00
  <mgrwgt>
 0.5792726730D+00   11    2    0
 0.104293921288008D+03 0.000000000000000D+00 0.000000000000000D+00 0.104293921288008D+03
 0.104293921288008D+03 0.000000000000000D+00 0.000000000000000D+00 -.104293921288008D+03
 0.126245785626152D+03 -.205088970748602D+00 -.130796578136267D+02 0.119112920523659D+02
 0.823420569498648D+02 0.205088970748602D+00 0.130796578136267D+02 -.119112920523659D+02
 0.000000000000000D+00 -.000000000000000D+00 0.000000000000000D+00 -.000000000000000D+00
 0.104459520752391D+03 0.000000000000000D+00 0.000000000000000D+00 0.104459520752391D+03
 0.110590165925169D+03 0.000000000000000D+00 0.000000000000000D+00 -.110590165925169D+03
 0.126373981645263D+03 0.734170080865744D-01 -.142653064623073D+02 0.119112920523659D+02
 0.822235578036539D+02 0.386517796032487D+00 0.123072835815574D+02 -.119112920523659D+02
 0.645214722864325D+01 -.459934804119061D+00 0.195802288074995D+01 -.613064517277818D+01
0.961914403864D-04 0.000000000000D+00 0.000000000000D+00 0.315285917235D-02 0.000000000000D+00  5 -1 2 25 24 21 0 0.99695697D-03 0.25823486D+00 0.10728671D+05 0.10728671D+05 0.10728671D+05 0.12647644D+01  1  2  2  2  5  2        2 0.215312859774D+00 0.100000000000D+01
-.534366174896D-05 0.000000000000D+00 -.369400458872D-06 0.315285917235D-02 0.000000000000D+00  5 -1 2 25 24 21 2 0.99695697D-03 0.25823486D+00 0.10728671D+05 0.10728671D+05 0.10728671D+05 0.12647644D+01  1  2  3  2  5  2        2 -.191333824021D-01 0.100000000000D+01
0.664648472274D-05 0.000000000000D+00 0.000000000000D+00 0.315285917235D-02 0.000000000000D+00  5 -1 2 25 24 21 2 0.99695697D-03 0.25823486D+00 0.10728671D+05 0.10728671D+05 0.10728671D+05 0.12647644D+01  1  2 15  2  5  2        2 0.237982379508D-01 0.100000000000D+01
0.322946508776D-05 0.000000000000D+00 0.000000000000D+00 0.315285917235D-02 0.000000000000D+00  5 -1 2 25 24 21 2 0.99695697D-03 0.27402268D+00 0.10938955D+05 0.10938955D+05 0.10938955D+05 0.12637636D+01  1  2 12  2  5  2        2 0.102514316900D-01 0.100000000000D+01
-.383136749500D-02 0.000000000000D+00 0.000000000000D+00 0.315285917235D-02 0.000000000000D+00  5 -1 2 25 24 21 2 0.99695697D-03 0.25823486D+00 0.10728671D+05 0.10728671D+05 0.10728671D+05 0.12647644D+01  1  2  4  2  5  2        2 -.137184991957D+02 0.100000000000D+01
-.473268990893D-02 0.000000000000D+00 -.197811003217D-03 0.315285917235D-02 0.000000000000D+00  5 -1 2 25 24 21 2 0.99695697D-03 0.27398167D+00 0.10728671D+05 0.10728671D+05 0.10728671D+05 0.12647644D+01  1  2  5  2  5  2        2 -.150429010800D+02 0.100000000000D+01
0.473644483793D-02 0.000000000000D+00 0.197464976803D-03 0.315285917235D-02 0.000000000000D+00  5 -1 2 25 24 21 2 0.99695697D-03 0.25823486D+00 0.10728671D+05 0.10728671D+05 0.10728671D+05 0.12647644D+01  1  2  6  2  5  2        2 0.169591966274D+02 0.100000000000D+01
0.383464679541D-02 0.000000000000D+00 0.000000000000D+00 0.315285917235D-02 0.664989727210D-02  5 -1 2 25 24 21 2 0.99853996D-03 0.27382455D+00 0.10938955D+05 0.10938955D+05 0.10938955D+05 0.12637636D+01  1  2 11  2  5  2        2 0.121633669331D+02 0.100000000000D+01
0.496186851057D-07 0.000000000000D+00 0.000000000000D+00 0.315285917235D-02 0.000000000000D+00  5 -1 21 25 24 -2 2 0.99695697D-03 0.27402268D+00 0.10938955D+05 0.10938955D+05 0.10938955D+05 0.12637636D+01  1  2 12  4  5  2        2 0.660152802452D-04 0.100000000000D+01
-.479305778409D-04 0.000000000000D+00 -.201311156454D-05 0.315285917235D-02 0.000000000000D+00  5 -1 21 25 24 -2 2 0.99695697D-03 0.27398167D+00 0.10728671D+05 0.10728671D+05 0.10728671D+05 0.12647644D+01  1  2  5  4  5  2        2 -.639571220132D-01 0.100000000000D+01
0.389013048697D-04 0.000000000000D+00 0.000000000000D+00 0.315285917235D-02 0.671623440579D-04  5 -1 21 25 24 -2 2 0.99853996D-03 0.27382455D+00 0.10938955D+05 0.10938955D+05 0.10938955D+05 0.12637636D+01  1  2 11  4  5  2        2 0.517713478880D-01 0.100000000000D+01
  </mgrwgt>
  </event>
  <event>
  4     66 0.45252658E-03 0.10680554E+03 0.75467711E-02 0.11866572E+00
       -1 -1    0    0    0  501 0.00000000E+00 0.00000000E+00 0.98300030E+01 0.98352102E+01 0.32000000E+00 0.0000E+00 0.9000E+01
        2 -1    0    0  501    0 0.00000000E+00 0.00000000E+00 -.19922344E+04 0.19922344E+04 0.32000000E+00 0.0000E+00 0.9000E+01
       25  1    1    2    0    0 -.13365319E+02 0.25341081E+02 -.46774675E+03 0.48500806E+03 0.12500000E+03 0.0000E+00 0.9000E+01
       24  1    1    2    0    0 0.13365319E+02 -.25341081E+02 -.15146576E+04 0.15170615E+04 0.80419002E+02 0.0000E+00 0.9000E+01
#aMCatNLO 1  0  0  1  1 0.91067222D+02 0.00000000D+00  -5  5  0 0.00000000D+00 0.00000000D+00 0.00000000D+00 0.00000000D+00 0.00000000D+00
  <mgrwgt>
 0.2159923378D+00    6    2    0
 0.139960380589637D+03 0.000000000000000D+00 0.000000000000000D+00 0.139960380589637D+03
 0.139960380589637D+03 0.000000000000000D+00 0.000000000000000D+00 -.139960380589637D+03
 0.156318195578152D+03 -.133653192614557D+02 0.253410806876447D+02 0.893844289539903D+02
 0.123602565601123D+03 0.133653192614557D+02 -.253410806876447D+02 -.893844289539903D+02
 0.000000000000000D+00 0.000000000000000D+00 0.000000000000000D+00 0.000000000000000D+00
 0.198772224646141D+03 0.000000000000000D+00 0.000000000000000D+00 0.198772224646141D+03
 0.187368081208668D+03 0.000000000000000D+00 0.000000000000000D+00 -.187368081208668D+03
 0.162973406484296D+03 -.540640278016742D+02 -.477870061045216D+01 0.893844289539903D+02
 0.131388397257017D+03 -.191372671226465D+02 -.493951804029769D+02 -.893844289539903D+02
 0.917785021134962D+02 0.732012949243207D+02 0.541738810134291D+02 0.114041434374734D+02
0.360989011576D-03 0.000000000000D+00 0.000000000000D+00 0.158226466176D-02 0.000000000000D+00  5 -1 2 25 24 21 0 0.15127107D-02 0.30649800D+00 0.11407423D+05 0.11407423D+05 0.11407423D+05 0.12616099D+01  1  2  2  1  5  1       -1 0.310705259021D+00 0.100000000000D+01
-.182727532589D-04 0.000000000000D+00 -.138629285504D-05 0.158226466176D-02 0.000000000000D+00  5 -1 2 25 24 21 2 0.15127107D-02 0.30649800D+00 0.11407423D+05 0.11407423D+05 0.11407423D+05 0.12616099D+01  1  2  3  1  5  1       -1 -.250327646446D-01 0.100000000000D+01
0.246563055462D-04 0.000000000000D+00 0.000000000000D+00 0.158226466176D-02 0.000000000000D+00  5 -1 2 25 24 21 2 0.15127107D-02 0.30649800D+00 0.11407423D+05 0.11407423D+05 0.11407423D+05 0.12616099D+01  1  2 15  1  5  1       -1 0.337779143076D-01 0.100000000000D+01
-.948129368256D-04 0.000000000000D+00 0.000000000000D+00 0.158226466176D-02 0.000000000000D+00  5 -1 2 25 24 21 2 0.15127107D-02 0.30649800D+00 0.11407423D+05 0.11407423D+05 0.11407423D+05 0.12616099D+01  1  2  4  1  5  1       -1 -.129889015584D+00 0.100000000000D+01
-.276637241125D-04 0.000000000000D+00 -.104681539625D-03 0.158226466176D-02 0.000000000000D+00  5 -1 2 25 24 21 2 0.31151097D-02 0.30649800D+00 0.11407423D+05 0.11407423D+05 0.11407423D+05 0.12616099D+01  1  2  5  1  5  1       -1 -.134295699879D-01 0.100000000000D+01
0.425158269589D-05 0.000000000000D+00 -.817666698444D-05 0.158226466176D-02 0.000000000000D+00  5 21 2 25 24 1 2 0.31151097D-02 0.30649800D+00 0.11407423D+05 0.11407423D+05 0.11407423D+05 0.12616099D+01  1  2  5  3  5  1       -1 0.398605146596D-01 0.100000000000D+01
  </mgrwgt>
  </event>
  <event>
  4     66 0.45252658E-03 0.12292230E+03 0.75467711E-02 0.12264270E+00
       -1 -1    0    0    0  501 0.00000000E+00 0.00000000E+00 0.12282195E+02 0.12286363E+02 0.32000000E+00 0.0000E+00 0.9000E+01
        2 -1    0    0  501    0 0.00000000E+00 0.00000000E+00 -.15043033E+04 0.15043033E+04 0.32000000E+00 0.0000E+00 0.9000E+01
       25  1    1    2    0    0 0.65064368E+02 0.13315716E+02 -.51769125E+03 0.53669350E+03 0.12500000E+03 0.0000E+00 0.9000E+01
       24  1    1    2    0    0 -.65064368E+02 -.13315716E+02 -.97432986E+03 0.97989620E+03 0.80419002E+02 0.0000E+00 0.9000E+01
#aMCatNLO 1  0  0  2  2 0.14953534D+02 0.00000000D+00  -5  5  0 0.00000000D+00 0.00000000D+00 0.00000000D+00 0.00000000D+00 0.00000000D+00
  <mgrwgt>
 0.3067751257D+00    4    2    0
 0.135938712087208D+03 0.000000000000000D+00 0.000000000000000D+00 0.135938712087208D+03
 0.135938712087208D+03 0.000000000000000D+00 0.000000000000000D+00 -.135938712087208D+03
 0.152780463610781D+03 0.650643683211082D+02 0.133157160389342D+02 0.574994760190989D+02
 0.119096960563634D+03 -.650643683211082D+02 -.133157160389342D+02 -.574994760190989D+02
 0.000000000000000D+00 0.000000000000000D+00 -.000000000000000D+00 0.000000000000000D+00
 0.165691352261802D+03 0.000000000000000D+00 0.000000000000000D+00 0.165691352261802D+03
 0.138036130306119D+03 0.000000000000000D+00 0.000000000000000D+00 -.138036130306119D+03
 0.150598918334030D+03 0.584150866182481D+02 0.183445391408825D+02 0.574994760190989D+02
 0.121689425056752D+03 -.703417754340764D+02 -.932443577829118D+01 -.574994760190989D+02
 0.314391391771390D+02 0.119266888158283D+02 -.902010336259132D+01 0.276552219556828D+02
0.335575552342D-03 0.000000000000D+00 0.000000000000D+00 0.213804298374D-02 0.000000000000D+00  5 -1 2 25 24 21 0 0.18898918D-02 0.23143160D+00 0.15109892D+05 0.15109892D+05 0.15109892D+05 0.12474613D+01  1  2  2  2  5  2        2 0.374131459077D+00 0.100000000000D+01
-.184134495130D-04 0.000000000000D+00 -.128869848006D-05 0.213804298374D-02 0.000000000000D+00  5 -1 2 25 24 21 2 0.18898918D-02 0.23143160D+00 0.15109892D+05 0.15109892D+05 0.15109892D+05 0.12474613D+01  1  2  3  2  5  2        2 -.319464961480D-01 0.100000000000D+01
0.231479301721D-04 0.000000000000D+00 0.000000000000D+00 0.213804298374D-02 0.000000000000D+00  5 -1 2 25 24 21 2 0.18898918D-02 0.23143160D+00 0.15109892D+05 0.15109892D+05 0.15109892D+05 0.12474613D+01  1  2 15  2  5  2        2 0.401606044297D-01 0.100000000000D+01
-.435575941270D-04 0.000000000000D+00 0.000000000000D+00 0.213804298374D-02 0.000000000000D+00  5 -1 2 25 24 21 2 0.18898918D-02 0.23143160D+00 0.15109892D+05 0.15109892D+05 0.15109892D+05 0.12474613D+01  1  2  4  2  5  2        2 -.755704417042D-01 0.100000000000D+01
  </mgrwgt>
  </event>
  <event>
  4     66 0.45252658E-03 0.10938734E+03 0.75467711E-02 0.12467783E+00
       -1 -1    0    0    0  501 0.00000000E+00 0.00000000E+00 0.41277748E+01 0.41401600E+01 0.32000000E+00 0.0000E+00 0.9000E+01
        2 -1    0    0  501    0 0.00000000E+00 0.00000000E+00 -.28972817E+04 0.28972817E+04 0.32000000E+00 0.0000E+00 0.9000E+01
       25  1    1    2    0    0 0.47608089E+01 0.36535859E+02 -.16785265E+04 0.16835777E+04 0.12500000E+03 0.0000E+00 0.9000E+01
       24  1    1    2    0    0 -.47608089E+01 -.36535859E+02 -.12146274E+04 0.12178442E+04 0.80419002E+02 0.0000E+00 0.9000E+01
#aMCatNLO 1  0  0  1  2 0.16216704D+02 0.00000000D+00  -5  5  0 0.00000000D+00 0.00000000D+00 0.00000000D+00 0.00000000D+00 0.00000000D+00
  <mgrwgt>
 0.2653426460D+00    4    2    0
 0.109440939173704D+03 0.000000000000000D+00 0.000000000000000D+00 0.109440939173704D+03
 0.109440939173704D+03 0.000000000000000D+00 0.000000000000000D+00 -.109440939173704D+03
 0.130360405222635D+03 0.476080886018557D+01 0.365358590507150D+02 0.336168889586782D+01
 0.885214731247739D+02 -.476080886018557D+01 -.365358590507150D+02 -.336168889586782D+01
 0.000000000000000D+00 0.000000000000000D+00 -.000000000000000D+00 -.000000000000000D+00
 0.114874009352828D+03 0.000000000000000D+00 0.000000000000000D+00 0.114874009352828D+03
 0.122548989500386D+03 0.000000000000000D+00 0.000000000000000D+00 -.122548989500386D+03
 0.131129951571131D+03 -.453281501863906D+01 0.392201075319980D+02 0.336168889586782D+01
 0.883518430243268D+02 -.110470600804805D+02 -.347202206613149D+02 -.336168889586782D+01
 0.179412042577560D+02 0.155798750991196D+02 -.449988687068304D+01 -.767498014755808D+01
0.475682242267D-03 0.000000000000D+00 0.000000000000D+00 0.302470546467D-02 0.000000000000D+00  5 -1 2 25 24 21 0 0.63599634D-03 0.44573660D+00 0.11965589D+05 0.11965589D+05 0.11965589D+05 0.12591703D+01  1  2  2  1  5  1       -1 0.465060402983D+00 0.100000000000D+01
-.264267835251D-04 0.000000000000D+00 -.182674506032D-05 0.302470546467D-02 0.000000000000D+00  5 -1 2 25 24 21 2 0.63599634D-03 0.44573660D+00 0.11965589D+05 0.11965589D+05 0.11965589D+05 0.12591703D+01  1  2  3  1  5  1       -1 -.409643127568D-01 0.100000000000D+01
0.328075011171D-04 0.000000000000D+00 0.000000000000D+00 0.302470546467D-02 0.000000000000D+00  5 -1 2 25 24 21 2 0.63599634D-03 0.44573660D+00 0.11965589D+05 0.11965589D+05 0.11965589D+05 0.12591703D+01  1  2 15  1  5  1       -1 0.508551006690D-01 0.100000000000D+01
-.135222081557D-03 0.000000000000D+00 0.000000000000D+00 0.302470546467D-02 0.000000000000D+00  5 -1 2 25 24 21 2 0.63599634D-03 0.44573660D+00 0.11965589D+05 0.11965589D+05 0.11965589D+05 0.12591703D+01  1  2  4  1  5  1       -1 -.209608544879D+00 0.100000000000D+01
  </mgrwgt>
  </event>
  <event>
  4     66 0.45252658E-03 0.38920246E+02 0.75467711E-02 0.12285102E+00
       -3 -1    0    0    0  501 0.00000000E+00 0.00000000E+00 0.43848762E+02 0.43851613E+02 0.50000000E+00 0.0000E+00 0.9000E+01
        4 -1    0    0  501    0 0.00000000E+00 0.00000000E+00 -.29439032E+03 0.29439440E+03 0.15500000E+01 0.0000E+00 0.9000E+01
       25  1    1    2    0    0 -.24042148E+02 -.13955165E+02 -.20507649E+03 0.24177291E+03 0.12500000E+03 0.0000E+00 0.9000E+01
       24  1    1    2    0    0 0.24042148E+02 0.13955165E+02 -.45465064E+02 0.96473103E+02 0.80419002E+02 0.0000E+00 0.9000E+01
#aMCatNLO 1  0  0  1  2 0.41266842D+02 0.00000000D+00  -5  5  0 0.00000000D+00 0.00000000D+00 0.00000000D+00 0.00000000D+00 0.00000000D+00
  <mgrwgt>
 0.3500882510D-01    9    2    0
 0.113621402220414D+03 0.000000000000000D+00 0.000000000000000D+00 0.113621402220414D+03
 0.113621402220414D+03 0.000000000000000D+00 0.000000000000000D+00 -.113621402220414D+03
 0.133771180049824D+03 -.240421480025044D+02 -.139551654261347D+02 -.386905297104781D+02
 0.934716243910045D+02 0.240421480025044D+02 0.139551654261347D+02 0.386905297104781D+02
 0.000000000000000D+00 -.000000000000000D+00 -.000000000000000D+00 0.000000000000000D+00
 0.138475312938701D+03 0.000000000000000D+00 0.000000000000000D+00 0.138475312938701D+03
 0.133993582359301D+03 0.000000000000000D+00 0.000000000000000D+00 -.133993582359301D+03
 0.131185084007136D+03 -.630752237488519D+00 -.933655869669877D+01 -.386905297104781D+02
 0.997743160161349D+02 0.411172573869030D+02 0.173237477994456D+02 0.386905297104781D+02
 0.415094952747312D+02 -.404865051494145D+02 -.798718910274682D+01 0.448173057940029D+01
0.210973080451D-03 0.000000000000D+00 0.000000000000D+00 0.263174800114D-02 0.000000000000D+00  5 -3 4 25 24 21 0 0.67464965D-02 0.45291351D-01 0.11357367D+05 0.11357367D+05 0.11357367D+05 0.12618353D+01  1  2  2  1  5  1       -3 0.260934978636D-01 0.100000000000D+01
-.116622446522D-04 0.000000000000D+00 -.810192179418D-06 0.263174800114D-02 0.000000000000D+00  5 -3 4 25 24 21 2 0.67464965D-02 0.45291351D-01 0.11357367D+05 0.11357367D+05 0.11357367D+05 0.12618353D+01  1  2  3  1  5  1       -3 -.229663894601D-02 0.100000000000D+01
0.144059509391D-04 0.000000000000D+00 0.000000000000D+00 0.263174800114D-02 0.000000000000D+00  5 -3 4 25 24 21 2 0.67464965D-02 0.45291351D-01 0.11357367D+05 0.11357367D+05 0.11357367D+05 0.12618353D+01  1  2 15  1  5  1       -3 0.283695540334D-02 0.100000000000D+01
0.885623290868D-04 0.000000000000D+00 0.000000000000D+00 0.263174800114D-02 0.000000000000D+00  5 -3 4 25 24 21 2 0.87119852D-02 0.45291351D-01 0.16716393D+05 0.16716393D+05 0.16716393D+05 0.12424941D+01  1  2 12  1  5  1       -3 0.116201941501D-01 0.100000000000D+01
-.931994046388D-04 0.000000000000D+00 0.000000000000D+00 0.263174800114D-02 0.000000000000D+00  5 -3 4 25 24 21 2 0.67464965D-02 0.45291351D-01 0.11357367D+05 0.11357367D+05 0.11357367D+05 0.12618353D+01  1  2  4  1  5  1       -3 -.183537036671D-01 0.100000000000D+01
-.194674797889D-03 0.000000000000D+00 -.866173321835D-04 0.263174800114D-02 0.000000000000D+00  5 -3 4 25 24 21 2 0.96751329D-02 0.45291351D-01 0.11357367D+05 0.11357367D+05 0.11357367D+05 0.12618353D+01  1  2  5  1  5  1       -3 -.213865748992D-01 0.100000000000D+01
0.216987287471D-03 0.000000000000D+00 0.812774031551D-04 0.263174800114D-02 0.000000000000D+00  5 -3 4 25 24 21 2 0.67464965D-02 0.45291351D-01 0.11357367D+05 0.11357367D+05 0.11357367D+05 0.12618353D+01  1  2  6  1  5  1       -3 0.427311782645D-01 0.100000000000D+01
0.304720711693D-05 0.000000000000D+00 0.000000000000D+00 0.263174800114D-02 0.000000000000D+00  5 21 4 25 24 3 2 0.87119852D-02 0.45291351D-01 0.16716393D+05 0.16716393D+05 0.16716393D+05 0.12424941D+01  1  2 12  3  5  1       -3 0.934788666401D-02 0.100000000000D+01
-.603479622380D-05 0.000000000000D+00 -.382277218021D-05 0.263174800114D-02 0.000000000000D+00  5 21 4 25 24 3 2 0.96751329D-02 0.45291351D-01 0.11357367D+05 0.11357367D+05 0.11357367D+05 0.12618353D+01  1  2  5  3  5  1       -3 -.155839697351D-01 0.100000000000D+01
  </mgrwgt>
  </event>
  <event>
  4     66 0.45252658E-03 0.60002461E+02 0.75467711E-02 0.11765130E+00
       -1 -1    0    0    0  501 0.00000000E+00 0.00000000E+00 0.32592437E+02 0.32594008E+02 0.32000000E+00 0.0000E+00 0.9000E+01
        2 -1    0    0  501    0 0.00000000E+00 0.00000000E+00 -.50387017E+03 0.50387027E+03 0.32000000E+00 0.0000E+00 0.9000E+01
       25  1    1    2    0    0 0.38009128E+02 0.58523748E+02 -.20832767E+03 0.25277489E+03 0.12500000E+03 0.0000E+00 0.9000E+01
       24  1    1    2    0    0 -.38009128E+02 -.58523748E+02 -.26295006E+03 0.28368939E+03 0.80419002E+02 0.0000E+00 0.9000E+01
#aMCatNLO 1  0  0  2  1 0.80268738D+02 0.00000000D+00  -5  5  0 0.00000000D+00 0.00000000D+00 0.00000000D+00 0.00000000D+00 0.00000000D+00
  <mgrwgt>
 0.3017843404D+00    9    2    0
 0.128151493802058D+03 0.000000000000000D+00 0.000000000000000D+00 0.128151493802058D+03
 0.128151493802058D+03 0.000000000000000D+00 0.000000000000000D+00 -.128151493802058D+03
 0.146016646548102D+03 0.380091275196518D+02 0.585237484882255D+02 0.287426191784079D+02
 0.110286341056015D+03 -.380091275196518D+02 -.585237484882255D+02 -.287426191784079D+02
 0.000000000000000D+00 -.000000000000000D+00 0.000000000000000D+00 -.000000000000000D+00
 0.155636856803447D+03 0.000000000000000D+00 0.000000000000000D+00 0.155636856803447D+03
 0.209742993358207D+03 0.000000000000000D+00 0.000000000000000D+00 -.209742993358207D+03
 0.145966049852032D+03 0.656195406454770D+02 0.234312918476014D+02 0.287426191784079D+02
 0.122612228697309D+03 -.159858165269660D+02 -.865150748972797D+02 -.287426191784079D+02
 0.968015716123125D+02 -.496337241185111D+02 0.630837830496783D+02 -.541061365547598D+02
0.271213145199D-03 0.000000000000D+00 0.000000000000D+00 0.252982702001D-02 0.000000000000D+00  5 -1 2 25 24 21 0 0.50143498D-02 0.77518616D-01 0.15579389D+05 0.15579389D+05 0.15579389D+05 0.12459505D+01  1  2  2  2  5  2        2 0.315211859814D+00 0.100000000000D+01
-.150546664485D-04 0.000000000000D+00 -.104152988962D-05 0.252982702001D-02 0.000000000000D+00  5 -1 2 25 24 21 2 0.50143498D-02 0.77518616D-01 0.15579389D+05 0.15579389D+05 0.15579389D+05 0.12459505D+01  1  2  3  2  5  2        2 -.271621753895D-01 0.100000000000D+01
0.187555896781D-04 0.000000000000D+00 0.000000000000D+00 0.252982702001D-02 0.000000000000D+00  5 -1 2 25 24 21 2 0.50143498D-02 0.77518616D-01 0.15579389D+05 0.15579389D+05 0.15579389D+05 0.12459505D+01  1  2 15  2  5  2        2 0.338395153497D-01 0.100000000000D+01
0.559000240107D-04 0.000000000000D+00 0.000000000000D+00 0.252982702001D-02 0.000000000000D+00  5 -1 2 25 24 21 2 0.50143498D-02 0.13085222D+00 0.29339003D+05 0.29339003D+05 0.29339003D+05 0.12159152D+01  1  2 12  2  5  2        2 0.528696897204D-01 0.100000000000D+01
-.173137936594D-03 0.000000000000D+00 0.000000000000D+00 0.252982702001D-02 0.000000000000D+00  5 -1 2 25 24 21 2 0.50143498D-02 0.77518616D-01 0.15579389D+05 0.15579389D+05 0.15579389D+05 0.12459505D+01  1  2  4  2  5  2        2 -.312381746645D+00 0.100000000000D+01
-.185068007655D-03 0.000000000000D+00 -.102819080899D-03 0.252982702001D-02 0.000000000000D+00  5 -1 2 25 24 21 2 0.50143498D-02 0.14502569D+00 0.15579389D+05 0.15579389D+05 0.15579389D+05 0.12459505D+01  1  2  5  2  5  2        2 -.158544869938D+00 0.100000000000D+01
0.221837986494D-03 0.000000000000D+00 0.854914136960D-04 0.252982702001D-02 0.000000000000D+00  5 -1 2 25 24 21 2 0.50143498D-02 0.77518616D-01 0.15579389D+05 0.15579389D+05 0.15579389D+05 0.12459505D+01  1  2  6  2  5  2        2 0.400248143512D+00 0.100000000000D+01
0.327024890821D-05 0.000000000000D+00 0.000000000000D+00 0.252982702001D-02 0.000000000000D+00  5 -1 21 25 24 -2 2 0.50143498D-02 0.13085222D+00 0.29339003D+05 0.29339003D+05 0.29339003D+05 0.12159152D+01  1  2 12  4  5  2        2 0.320056990906D-02 0.100000000000D+01
-.685833083868D-05 0.000000000000D+00 -.701296654111D-05 0.252982702001D-02 0.000000000000D+00  5 -1 21 25 24 -2 2 0.50143498D-02 0.14502569D+00 0.15579389D+05 0.15579389D+05 0.15579389D+05 0.12459505D+01  1  2  5  4  5  2        2 -.549664595361D-02 0.100000000000D+01
  </mgrwgt>
  </event>
  <event>
  4     66 0.45252658E-03 0.32172240E+02 0.75467711E-02 0.12040890E+00
       -1 -1    0    0    0  501 0.00000000E+00 0.00000000E+00 0.63386107E+01 0.63466830E+01 0.32000000E+00 0.0000E+00 0.9000E+01
        2 -1    0    0  501    0 0.00000000E+00 0.00000000E+00 -.26949537E+04 0.26949537E+04 0.32000000E+00 0.0000E+00 0.9000E+01
       25  1    1    2    0    0 0.33505516E+02 -.42182588E+02 -.21313092E+04 0.21356511E+04 0.12500000E+03 0.0000E+00 0.9000E+01
       24  1    1    2    0    0 -.33505516E+02 0.42182588E+02 -.55730593E+03 0.56564928E+03 0.80419002E+02 0.0000E+00 0.9000E+01
#aMCatNLO 1  0  0  1  2 0.54464031D+02 0.00000000D+00  -5  5  0 0.00000000D+00 0.00000000D+00 0.00000000D+00 0.00000000D+00 0.00000000D+00
  <mgrwgt>
 0.6016091287D+00    9    2    0
 0.130740930007669D+03 0.000000000000000D+00 0.000000000000000D+00 0.130740930007669D+03
 0.130740930007669D+03 0.000000000000000D+00 0.000000000000000D+00 -.130740930007669D+03
 0.148252248087425D+03 0.335055159627476D+02 -.421825876064883D+02 -.587515001158807D+02
 0.113229611927913D+03 -.335055159627476D+02 0.421825876064883D+02 0.587515001158807D+02
 0.000000000000000D+00 0.000000000000000D+00 -.000000000000000D+00 0.000000000000000D+00
 0.162725337640582D+03 0.000000000000000D+00 0.000000000000000D+00 0.162725337640582D+03
 0.158962327485463D+03 0.000000000000000D+00 0.000000000000000D+00 -.158962327485463D+03
 0.141677236516649D+03 0.289013527323674D+02 -.126654013504253D+02 -.587515001158807D+02
 0.125416555684815D+03 -.372952854354666D+02 0.664787139157529D+02 0.587515001158807D+02
 0.545938729245814D+02 0.839393270309925D+01 -.538133125653277D+02 0.376301015511939D+01
0.623883549512D-03 0.000000000000D+00 0.000000000000D+00 0.214357673716D-02 0.000000000000D+00  5 -1 2 25 24 21 0 0.97579328D-03 0.41460888D+00 0.13561598D+05 0.13561598D+05 0.13561598D+05 0.12528446D+01  1  2  2  1  5  1       -1 0.431311298305D+00 0.100000000000D+01
-.340958814835D-04 0.000000000000D+00 -.239587710244D-05 0.214357673716D-02 0.000000000000D+00  5 -1 2 25 24 21 2 0.97579328D-03 0.41460888D+00 0.13561598D+05 0.13561598D+05 0.13561598D+05 0.12528446D+01  1  2  3  1  5  1       -1 -.369984617063D-01 0.100000000000D+01
0.429895238298D-04 0.000000000000D+00 0.000000000000D+00 0.214357673716D-02 0.000000000000D+00  5 -1 2 25 24 21 2 0.97579328D-03 0.41460888D+00 0.13561598D+05 0.13561598D+05 0.13561598D+05 0.12528446D+01  1  2 15  1  5  1       -1 0.466492192602D-01 0.100000000000D+01
0.157374775542D-03 0.000000000000D+00 0.000000000000D+00 0.214357673716D-02 0.000000000000D+00  5 -1 2 25 24 21 2 0.12971938D-02 0.41460888D+00 0.21636871D+05 0.21636871D+05 0.21636871D+05 0.12300825D+01  1  2 12  1  5  1       -1 0.109754781139D+00 0.100000000000D+01
-.198039337245D-03 0.000000000000D+00 0.000000000000D+00 0.214357673716D-02 0.000000000000D+00  5 -1 2 25 24 21 2 0.97579328D-03 0.41460888D+00 0.13561598D+05 0.13561598D+05 0.13561598D+05 0.12528446D+01  1  2  4  1  5  1       -1 -.214898413433D+00 0.100000000000D+01
-.272856862948D-03 0.000000000000D+00 -.206442525591D-03 0.214357673716D-02 0.000000000000D+00  5 -1 2 25 24 21 2 0.16331998D-02 0.41460888D+00 0.13561598D+05 0.13561598D+05 0.13561598D+05 0.12528446D+01  1  2  5  1  5  1       -1 -.142118749063D+00 0.100000000000D+01
0.355614902760D-03 0.000000000000D+00 0.181792524338D-03 0.214357673716D-02 0.000000000000D+00  5 -1 2 25 24 21 2 0.97579328D-03 0.41460888D+00 0.13561598D+05 0.13561598D+05 0.13561598D+05 0.12528446D+01  1  2  6  1  5  1       -1 0.385888376823D+00 0.100000000000D+01
0.585723741951D-05 0.000000000000D+00 0.000000000000D+00 0.214357673716D-02 0.000000000000D+00  5 21 2 25 24 1 2 0.12971938D-02 0.41460888D+00 0.21636871D+05 0.21636871D+05 0.21636871D+05 0.12300825D+01  1  2 12  3  5  1       -1 0.909715803384D-01 0.100000000000D+01
-.613014888957D-05 0.000000000000D+00 -.119185276309D-04 0.214357673716D-02 0.000000000000D+00  5 21 2 25 24 1 2 0.16331998D-02 0.41460888D+00 0.13561598D+05 0.13561598D+05 0.13561598D+05 0.12528446D+01  1  2  5  3  5  1       -1 -.689505029958D-01 0.100000000000D+01
  </mgrwgt>
  </event>
  <event>
  5     66 0.45252658E-03 0.14681072E+03 0.75467711E-02 0.11463097E+00
       21 -1    0    0  502  501 0.00000000E+00 0.00000000E+00 0.75390574E+02 0.75394304E+02 0.75000000E+00 0.0000E+00 0.9000E+01
        2 -1    0    0  501    0 0.00000000E+00 0.00000000E+00 -.83148430E+03 0.83148436E+03 0.32000000E+00 0.0000E+00 0.9000E+01
       25  1    1    2    0    0 0.26997546E+02 -.59462507E+02 -.20060561E+03 0.24521882E+03 0.12500000E+03 0.0000E+00 0.9000E+01
       24  1    1    2    0    0 0.17572957E+02 0.14728190E+03 -.53512437E+03 0.56109364E+03 0.80419002E+02 0.0000E+00 0.9000E+01
        1  1    1    2  502    0 -.44570503E+02 -.87819398E+02 -.20363739E+02 0.10056620E+03 0.32000000E+00 0.0000E+00 0.9000E+01
#aMCatNLO 2  0  0  1  2 0.98482366D+02 0.00000000D+00  -5  5  0 0.00000000D+00 0.00000000D+00 0.00000000D+00 0.00000000D+00 0.00000000D+00
  <mgrwgt>
 0.1447125943D+00    2    2    0
 0.157434431207694D+03 0.000000000000000D+00 0.000000000000000D+00 0.157434431207694D+03
 0.157434431207694D+03 0.000000000000000D+00 0.000000000000000D+00 -.157434431207694D+03
 0.171976650427752D+03 0.460575574489631D+01 -.103582123551247D+03 0.565729527864834D+02
 0.142892211987637D+03 -.460575574489631D+01 0.103582123551247D+03 -.565729527864834D+02
 0.000000000000000D+00 -.000000000000000D+00 -.000000000000000D+00 0.000000000000000D+00
 0.352393094821893D+03 0.000000000000000D+00 0.000000000000000D+00 0.352393094821893D+03
 0.177891433518830D+03 0.000000000000000D+00 0.000000000000000D+00 -.177891433518830D+03
 0.151954454195338D+03 0.269975458702572D+02 -.594625065045584D+02 0.565729527864834D+02
 0.177956407822080D+03 0.175729571179831D+02 0.147281904257501D+03 -.565729527864834D+02
 0.200373666323306D+03 -.445705029882403D+02 -.878193977529424D+02 0.174501661303064D+03
-.104065948503D-04 0.000000000000D+00 0.000000000000D+00 0.207426269048D-02 0.000000000000D+00  5 21 2 25 24 1 2 0.11527602D-01 0.11321034D+00 0.41664493D+05 0.41664493D+05 0.41664493D+05 0.12002064D+01  1  2 13  3  5  1       -1 -.469733252563D-01 0.100000000000D+01
0.500480615105D-04 0.000000000000D+00 0.000000000000D+00 0.207426269048D-02 0.204128242539D-06  5 21 2 25 24 1 2 0.11598834D-01 0.12792087D+00 0.41664493D+05 0.41664493D+05 0.41664493D+05 0.12002064D+01  1  2  1  3  5  1       -1 0.191685919566D+00 0.100000000000D+01
  </mgrwgt>
  </event>
  <event>
  4     66 0.45252658E-03 0.88541353E+02 0.75467711E-02 0.11482247E+00
       -1 -1    0    0    0  501 0.00000000E+00 0.00000000E+00 0.22263886E+02 0.22266186E+02 0.32000000E+00 0.0000E+00 0.9000E+01
        2 -1    0    0  501    0 0.00000000E+00 0.00000000E+00 -.16200998E+04 0.16200998E+04 0.32000000E+00 0.0000E+00 0.9000E+01
       25  1    1    2    0    0 0.12645284E+03 -.94375319E+02 -.92117059E+03 0.94290894E+03 0.12500000E+03 0.0000E+00 0.9000E+01
       24  1    1    2    0    0 -.12645284E+03 0.94375319E+02 -.67666528E+03 0.69945703E+03 0.80419002E+02 0.0000E+00 0.9000E+01
#aMCatNLO 1  0  0  1  2 0.24418268D+02 0.00000000D+00  -5  5  0 0.00000000D+00 0.00000000D+00 0.00000000D+00 0.00000000D+00 0.00000000D+00
  <mgrwgt>
 0.5159506785D+00    9    2    0
 0.189925330997913D+03 0.000000000000000D+00 0.000000000000000D+00 0.189925330997913D+03
 0.189925330997913D+03 0.000000000000000D+00 0.000000000000000D+00 -.189925330997913D+03
 0.201979784184216D+03 0.126452835044060D+03 -.943753187095509D+02 -.165472942468828D+02
 0.177870877811611D+03 -.126452835044060D+03 0.943753187095509D+02 0.165472942468828D+02
 0.000000000000000D+00 0.000000000000000D+00 0.000000000000000D+00 0.000000000000000D+00
 0.309216987598561D+03 0.000000000000000D+00 0.000000000000000D+00 0.309216987598561D+03
 0.191571038799783D+03 0.000000000000000D+00 0.000000000000000D+00 -.191571038799783D+03
 0.195026869813570D+03 0.113791577228179D+03 -.958548066312251D+02 -.165472942468828D+02
 0.185607833331873D+03 -.138044826326900D+03 0.930207762667295D+02 0.165472942468828D+02
 0.120153323252901D+03 0.242532490987217D+02 0.283403036449559D+01 0.117645948798778D+03
0.105138603187D-02 0.000000000000D+00 0.000000000000D+00 0.218031411617D-02 0.000000000000D+00  5 -1 2 25 24 21 0 0.34253926D-02 0.24924630D+00 0.35796702D+05 0.35796702D+05 0.35796702D+05 0.12069277D+01  1  2  2  1  5  1       -1 0.434875855139D+00 0.100000000000D+01
-.584092958030D-04 0.000000000000D+00 -.403759919868D-05 0.218031411617D-02 0.000000000000D+00  5 -1 2 25 24 21 2 0.34253926D-02 0.24924630D+00 0.35796702D+05 0.35796702D+05 0.35796702D+05 0.12069277D+01  1  2  3  1  5  1       -1 -.351922930530D-01 0.100000000000D+01
0.722569884109D-04 0.000000000000D+00 0.000000000000D+00 0.218031411617D-02 0.000000000000D+00  5 -1 2 25 24 21 2 0.34253926D-02 0.24924630D+00 0.35796702D+05 0.35796702D+05 0.35796702D+05 0.12069277D+01  1  2 15  1  5  1       -1 0.435356919874D-01 0.100000000000D+01
0.106095222252D-01 0.000000000000D+00 0.000000000000D+00 0.218031411617D-02 0.000000000000D+00  5 -1 2 25 24 21 2 0.55837322D-02 0.24924630D+00 0.40725386D+05 0.40725386D+05 0.40725386D+05 0.12012085D+01  1  2 12  1  5  1       -1 0.306320832538D+01 0.100000000000D+01
-.955961017459D-02 0.000000000000D+00 0.000000000000D+00 0.218031411617D-02 0.000000000000D+00  5 -1 2 25 24 21 2 0.34253926D-02 0.24924630D+00 0.35796702D+05 0.35796702D+05 0.35796702D+05 0.12069277D+01  1  2  4  1  5  1       -1 -.575977844127D+01 0.100000000000D+01
-.108005728589D-01 0.000000000000D+00 -.354646920061D-03 0.218031411617D-02 0.000000000000D+00  5 -1 2 25 24 21 2 0.56168985D-02 0.24924630D+00 0.35796702D+05 0.35796702D+05 0.35796702D+05 0.12069277D+01  1  2  5  1  5  1       -1 -.312175261513D+01 0.100000000000D+01
0.979305224186D-02 0.000000000000D+00 0.315295040008D-03 0.218031411617D-02 0.000000000000D+00  5 -1 2 25 24 21 2 0.34253926D-02 0.24924630D+00 0.35796702D+05 0.35796702D+05 0.35796702D+05 0.12069277D+01  1  2  6  1  5  1       -1 0.590043005382D+01 0.100000000000D+01
0.587455505509D-03 0.000000000000D+00 0.000000000000D+00 0.218031411617D-02 0.000000000000D+00  5 21 2 25 24 1 2 0.55837322D-02 0.24924630D+00 0.40725386D+05 0.40725386D+05 0.40725386D+05 0.12012085D+01  1  2 12  3  5  1       -1 0.286156237054D+01 0.100000000000D+01
-.587925679550D-03 0.000000000000D+00 -.198238651338D-04 0.218031411617D-02 0.000000000000D+00  5 21 2 25 24 1 2 0.56168985D-02 0.24924630D+00 0.35796702D+05 0.35796702D+05 0.35796702D+05 0.12069277D+01  1  2  5  3  5  1       -1 -.287093826890D+01 0.100000000000D+01
  </mgrwgt>
  </event>
  <event>
  4     66 0.45252658E-03 0.12301142E+03 0.75467711E-02 0.12364262E+00
       -3 -1    0    0    0  501 0.00000000E+00 0.00000000E+00 0.88905984E+02 0.88907390E+02 0.50000000E+00 0.0000E+00 0.9000E+01
        4 -1    0    0  501    0 0.00000000E+00 0.00000000E+00 -.31727062E+03 0.31727441E+03 0.15500000E+01 0.0000E+00 0.9000E+01
       25  1    1    2    0    0 -.58931629E+02 -.30970296E+02 0.13975056E+02 0.14231092E+03 0.12500000E+03 0.0000E+00 0.9000E+01
       24  1    1    2    0    0 0.58931629E+02 0.30970296E+02 -.24233970E+03 0.26387088E+03 0.80419002E+02 0.0000E+00 0.9000E+01
#aMCatNLO 1  0  0  2  2 0.21682566D+01 0.00000000D+00  -5  5  0 0.00000000D+00 0.00000000D+00 0.00000000D+00 0.00000000D+00 0.00000000D+00
  <mgrwgt>
 0.2816257906D-01    8    2    0
 0.167953301378471D+03 0.000000000000000D+00 0.000000000000000D+00 0.167953301378471D+03
 0.167953301378471D+03 0.000000000000000D+00 0.000000000000000D+00 -.167953301378471D+03
 0.181584745313284D+03 -.589316286538818D+02 -.309702962221051D+02 0.113648245154099D+03
 0.154321857443658D+03 0.589316286538818D+02 0.309702962221051D+02 -.113648245154099D+03
 0.000000000000000D+00 -.000000000000000D+00 0.000000000000000D+00 0.000000000000000D+00
 0.176267924311137D+03 0.000000000000000D+00 0.000000000000000D+00 0.176267924311137D+03
 0.168098217325661D+03 0.000000000000000D+00 0.000000000000000D+00 -.168098217325661D+03
 0.181222549060421D+03 -.577633828257582D+02 -.310496419605048D+02 0.113648245154099D+03
 0.154691051605502D+03 0.599266556211764D+02 0.309027152836185D+02 -.113648245154099D+03
 0.845254097087494D+01 -.216327279541822D+01 0.146926676886285D+00 0.816970698547641D+01
0.529036029242D-03 0.000000000000D+00 0.000000000000D+00 0.131402667448D-02 0.000000000000D+00  5 -3 4 25 24 21 0 0.13678243D-01 0.48811265D-01 0.15131810D+05 0.15131810D+05 0.15131810D+05 0.12473896D+01  1  2  2  2  5  2        4 0.181115822472D-01 0.100000000000D+01
-.259254707271D-04 0.000000000000D+00 -.203163765067D-05 0.131402667448D-02 0.000000000000D+00  5 -3 4 25 24 21 2 0.13678243D-01 0.48811265D-01 0.15131810D+05 0.15131810D+05 0.15131810D+05 0.12473896D+01  1  2  3  2  5  2        4 -.138102656787D-02 0.100000000000D+01
0.359784016470D-04 0.000000000000D+00 0.000000000000D+00 0.131402667448D-02 0.000000000000D+00  5 -3 4 25 24 21 2 0.13678243D-01 0.48811265D-01 0.15131810D+05 0.15131810D+05 0.15131810D+05 0.12473896D+01  1  2 15  2  5  2        4 0.191653717949D-02 0.100000000000D+01
-.120001780141D-03 0.000000000000D+00 0.000000000000D+00 0.131402667448D-02 0.000000000000D+00  5 -3 4 25 24 21 2 0.13678243D-01 0.48811265D-01 0.15131810D+05 0.15131810D+05 0.15131810D+05 0.12473896D+01  1  2  4  2  5  2        4 -.639238717443D-02 0.100000000000D+01
0.761900282939D-06 0.000000000000D+00 0.000000000000D+00 0.131402667448D-02 0.000000000000D+00  5 -3 4 25 24 21 2 0.13678243D-01 0.51164313D-01 0.15131810D+05 0.15131810D+05 0.15131810D+05 0.12473896D+01  1  2  5  2  5  2        4 0.368819020405D-04 0.100000000000D+01
-.761056634265D-06 0.000000000000D+00 0.000000000000D+00 0.131402667448D-02 0.000000000000D+00  5 -3 4 25 24 21 2 0.13678243D-01 0.48811265D-01 0.15131810D+05 0.15131810D+05 0.15131810D+05 0.12473896D+01  1  2  6  2  5  2        4 -.405408041629D-04 0.100000000000D+01
0.120003823217D-03 0.000000000000D+00 0.000000000000D+00 0.131402667448D-02 0.231834492137D-02  5 -3 4 25 24 21 2 0.14355392D-01 0.48853381D-01 0.15409669D+05 0.15409669D+05 0.15409669D+05 0.12464907D+01  1  2 11  2  5  2        4 0.587979392643D-02 0.100000000000D+01
0.831727177912D-05 0.000000000000D+00 0.000000000000D+00 0.131402667448D-02 0.382039324828D-06  5 -3 21 25 24 -4 2 0.14355392D-01 0.48853381D-01 0.15409669D+05 0.15409669D+05 0.15409669D+05 0.12464907D+01  1  2 11  4  5  2        4 0.100317383466D-01 0.100000000000D+01
  </mgrwgt>
  </event>
  <event>
  5     66 0.45252658E-03 0.17546658E+03 0.75467711E-02 0.11318264E+00
       21 -1    0    0  502  501 0.00000000E+00 0.00000000E+00 0.20539819E+03 0.20539956E+03 0.75000000E+00 0.0000E+00 0.9000E+01
        2 -1    0    0  501    0 0.00000000E+00 0.00000000E+00 -.24350378E+03 0.24350399E+03 0.32000000E+00 0.0000E+00 0.9000E+01
       25  1    1    2    0    0 0.64230808E+02 0.76415622E+02 0.21871749E+01 0.15998352E+03 0.12500000E+03 0.0000E+00 0.9000E+01
       24  1    1    2    0    0 -.12427304E+03 -.13599234E+03 -.20514850E+02 0.20205390E+03 0.80419002E+02 0.0000E+00 0.9000E+01
        1  1    1    2  502    0 0.60042235E+02 0.59576715E+02 -.19777920E+02 0.86866124E+02 0.32000000E+00 0.0000E+00 0.9000E+01
#aMCatNLO 2  0  0  1  2 0.84584011D+02 0.00000000D+00  -5  5  0 0.00000000D+00 0.00000000D+00 0.00000000D+00 0.00000000D+00 0.00000000D+00
  <mgrwgt>
 0.9299410421D-01    1    2    0
 0.175770261583647D+03 0.000000000000000D+00 0.000000000000000D+00 0.175770261583647D+03
 0.175770261583647D+03 0.000000000000000D+00 0.000000000000000D+00 -.175770261583647D+03
 0.188795479790527D+03 0.936236783596829D+02 0.105580602650611D+03 0.102993389919847D+02
 0.162745043376767D+03 -.936236783596829D+02 -.105580602650611D+03 -.102993389919847D+02
 0.000000000000000D+00 0.000000000000000D+00 0.000000000000000D+00 -.000000000000000D+00
 0.216073795733667D+03 0.000000000000000D+00 0.000000000000000D+00 0.216073795733667D+03
 0.231473956224896D+03 0.000000000000000D+00 0.000000000000000D+00 -.231473956224896D+03
 0.160299782558428D+03 0.642308078964091D+02 0.764156215808137D+02 0.102993389919847D+02
 0.201273438793277D+03 -.124273043294250D+03 -.135992336313537D+03 -.102993389919847D+02
 0.859745306068585D+02 0.600422353978410D+02 0.595767147327233D+02 -.154001604912288D+02
0.402176173333D-04 0.000000000000D+00 0.000000000000D+00 0.224540020434D-02 0.888710418324D-07  5 21 2 25 24 1 2 0.31599800D-01 0.37462192D-01 0.49631449D+05 0.49631449D+05 0.49631449D+05 0.11926001D+01  1  2  1  3  5  1       -1 0.929941042094D-01 0.100000000000D+01
  </mgrwgt>
  </event>
  <event>
  4     66 0.45252658E-03 0.88788016E+02 0.75467711E-02 0.12097208E+00
       -1 -1    0    0    0  501 0.00000000E+00 0.00000000E+00 0.24487055E+03 0.24487076E+03 0.32000000E+00 0.0000E+00 0.9000E+01
        2 -1    0    0  501    0 0.00000000E+00 0.00000000E+00 -.66769056E+02 0.66769823E+02 0.32000000E+00 0.0000E+00 0.9000E+01
       25  1    1    2    0    0 0.71589082E+02 -.18324344E+02 0.11710847E+03 0.18654804E+03 0.12500000E+03 0.0000E+00 0.9000E+01
       24  1    1    2    0    0 -.71589082E+02 0.18324344E+02 0.60993020E+02 0.12509254E+03 0.80419002E+02 0.0000E+00 0.9000E+01
#aMCatNLO 1  0  0  2  1 0.29329316D+02 0.00000000D+00  -5  5  0 0.00000000D+00 0.00000000D+00 0.00000000D+00 0.00000000D+00 0.00000000D+00
  <mgrwgt>
 0.3460199787D+00    9    2    0
 0.127866834498306D+03 0.000000000000000D+00 0.000000000000000D+00 0.127866834498306D+03
 0.127866834498306D+03 0.000000000000000D+00 0.000000000000000D+00 -.127866834498306D+03
 0.145771758948733D+03 0.715890819756957D+02 -.183243443585171D+02 0.127916946772146D+02
 0.109961910047880D+03 -.715890819756957D+02 0.183243443585171D+02 -.127916946772146D+02
 0.000000000000000D+00 -.000000000000000D+00 -.000000000000000D+00 -.000000000000000D+00
 0.137536807437023D+03 0.000000000000000D+00 0.000000000000000D+00 0.137536807437023D+03
 0.153054774717283D+03 0.000000000000000D+00 0.000000000000000D+00 -.153054774717283D+03
 0.149157297505124D+03 0.802759800559935D+02 -.387801139330909D+01 0.127916946772146D+02
 0.108252722186122D+03 -.651617455421862D+02 0.290130207237298D+02 -.127916946772146D+02
 0.331815624630597D+02 -.151142345138073D+02 -.251350093304207D+02 -.155179672802603D+02
0.528140586635D-03 0.000000000000D+00 0.000000000000D+00 0.262801951886D-02 0.000000000000D+00  5 -1 2 25 24 21 0 0.37672467D-01 0.10272238D-01 0.16182993D+05 0.16182993D+05 0.16182993D+05 0.12440816D+01  1  2  2  2  5  2        2 0.244119560240D+00 0.100000000000D+01
-.293402043855D-04 0.000000000000D+00 -.202819891529D-05 0.262801951886D-02 0.000000000000D+00  5 -1 2 25 24 21 2 0.37672467D-01 0.10272238D-01 0.16182993D+05 0.16182993D+05 0.16182993D+05 0.12440816D+01  1  2  3  2  5  2        2 -.209900715443D-01 0.100000000000D+01
0.364512581515D-04 0.000000000000D+00 0.000000000000D+00 0.262801951886D-02 0.000000000000D+00  5 -1 2 25 24 21 2 0.37672467D-01 0.10272238D-01 0.16182993D+05 0.16182993D+05 0.16182993D+05 0.12440816D+01  1  2 15  2  5  2        2 0.260773410582D-01 0.100000000000D+01
0.728310613227D-03 0.000000000000D+00 0.000000000000D+00 0.262801951886D-02 0.000000000000D+00  5 -1 2 25 24 21 2 0.37672467D-01 0.12626466D-01 0.20367770D+05 0.20367770D+05 0.20367770D+05 0.12329558D+01  1  2 12  2  5  2        2 0.401388678852D+00 0.100000000000D+01
-.730317650014D-03 0.000000000000D+00 0.000000000000D+00 0.262801951886D-02 0.000000000000D+00  5 -1 2 25 24 21 2 0.37672467D-01 0.10272238D-01 0.16182993D+05 0.16182993D+05 0.16182993D+05 0.12440816D+01  1  2  4  2  5  2        2 -.522471470288D+00 0.100000000000D+01
-.146305514282D-02 0.000000000000D+00 -.387777932451D-03 0.262801951886D-02 0.000000000000D+00  5 -1 2 25 24 21 2 0.37672467D-01 0.13188792D-01 0.16182993D+05 0.16182993D+05 0.16182993D+05 0.12440816D+01  1  2  5  2  5  2        2 -.774704912167D+00 0.100000000000D+01
0.152393117629D-02 0.000000000000D+00 0.375974757089D-03 0.262801951886D-02 0.000000000000D+00  5 -1 2 25 24 21 2 0.37672467D-01 0.10272238D-01 0.16182993D+05 0.16182993D+05 0.16182993D+05 0.12440816D+01  1  2  6  2  5  2        2 0.109022500316D+01 0.100000000000D+01
0.213461245255D-04 0.000000000000D+00 0.000000000000D+00 0.262801951886D-02 0.000000000000D+00  5 -1 21 25 24 -2 2 0.37672467D-01 0.12626466D-01 0.20367770D+05 0.20367770D+05 0.20367770D+05 0.12329558D+01  1  2 12  4  5  2        2 0.109279093373D+00 0.100000000000D+01
-.430077881937D-04 0.000000000000D+00 -.131206590220D-04 0.262801951886D-02 0.000000000000D+00  5 -1 21 25 24 -2 2 0.37672467D-01 0.13188792D-01 0.16182993D+05 0.16182993D+05 0.16182993D+05 0.12440816D+01  1  2  5  4  5  2        2 -.206903243972D+00 0.100000000000D+01
  </mgrwgt>
  </event>
  <event>
  4     66 0.45252658E-03 0.10322935E+03 0.75467711E-02 0.11619897E+00
       -1 -1    0    0    0  501 0.00000000E+00 0.00000000E+00 0.16209528E+02 0.16212687E+02 0.32000000E+00 0.0000E+00 0.9000E+01
        2 -1    0    0  501    0 0.00000000E+00 0.00000000E+00 -.65894111E+03 0.65894119E+03 0.32000000E+00 0.0000E+00 0.9000E+01
       25  1    1    2    0    0 -.83079252E+01 -.57483544E+01 -.37400101E+03 0.39446651E+03 0.12500000E+03 0.0000E+00 0.9000E+01
       24  1    1    2    0    0 0.83079252E+01 0.57483544E+01 -.26873057E+03 0.28068737E+03 0.80419002E+02 0.0000E+00 0.9000E+01
#aMCatNLO 1  0  0  2  1 0.12888990D+03 0.00000000D+00  -5  5  0 0.00000000D+00 0.00000000D+00 0.00000000D+00 0.00000000D+00 0.00000000D+00
  <mgrwgt>
 0.2339316935D+00    3    2    0
 0.103354810930374D+03 0.000000000000000D+00 0.000000000000000D+00 0.103354810930374D+03
 0.103354810930374D+03 0.000000000000000D+00 0.000000000000000D+00 -.103354810930374D+03
 0.125506135970770D+03 -.830792516232187D+01 -.574835435078173D+01 0.497242074532373D+01
 0.812034858899786D+02 0.830792516232187D+01 0.574835435078173D+01 -.497242074532373D+01
 0.000000000000000D+00 0.000000000000000D+00 -.000000000000000D+00 0.000000000000000D+00
 0.195769014631391D+03 0.000000000000000D+00 0.000000000000000D+00 0.195769014631391D+03
 0.177948105075671D+03 0.000000000000000D+00 0.000000000000000D+00 -.177948105075671D+03
 0.145665896866557D+03 -.268968951772091D+02 0.696088038375617D+02 0.497242074532373D+01
 0.979351571302240D+02 -.397211282230229D+01 0.555299594760297D+02 -.497242074532373D+01
 0.130116065710281D+03 0.308690079995114D+02 -.125138763313591D+03 0.178209095557207D+02
0.977595832900D-04 0.000000000000D+00 0.000000000000D+00 0.321395071964D-02 0.000000000000D+00  5 -1 2 25 24 21 0 0.24940225D-02 0.10137580D+00 0.10656299D+05 0.10656299D+05 0.10656299D+05 0.12651139D+01  1  2  2  2  5  2        2 0.228922424114D+00 0.100000000000D+01
-.543107821835D-05 0.000000000000D+00 -.375422540523D-06 0.321395071964D-02 0.000000000000D+00  5 -1 2 25 24 21 2 0.24940225D-02 0.10137580D+00 0.10656299D+05 0.10656299D+05 0.10656299D+05 0.12651139D+01  1  2  3  2  5  2        2 -.203551508244D-01 0.100000000000D+01
0.676763100942D-05 0.000000000000D+00 0.000000000000D+00 0.321395071964D-02 0.000000000000D+00  5 -1 2 25 24 21 2 0.24940225D-02 0.10137580D+00 0.10656299D+05 0.10656299D+05 0.10656299D+05 0.12651139D+01  1  2 15  2  5  2        2 0.253644201726D-01 0.100000000000D+01
  </mgrwgt>
  </event>
  <event>
  4     66 0.45252658E-03 0.18992103E+03 0.75467711E-02 0.10564821E+00
       -1 -1    0    0    0  501 0.00000000E+00 0.00000000E+00 0.27743152E+02 0.27744997E+02 0.32000000E+00 0.0000E+00 0.9000E+01
        2 -1    0    0  501    0 0.00000000E+00 0.00000000E+00 -.13099958E+04 0.13099958E+04 0.32000000E+00 0.0000E+00 0.9000E+01
       25  1    1    2    0    0 0.84832031E+02 0.13406243E+03 -.73954346E+03 0.76662816E+03 0.12500000E+03 0.0000E+00 0.9000E+01
       24  1    1    2    0    0 -.84832031E+02 -.13406243E+03 -.54270915E+03 0.57111264E+03 0.80419002E+02 0.0000E+00 0.9000E+01
#aMCatNLO 1  0  0  1  1 0.26664186D+03 0.00000000D+00  -5  5  0 0.00000000D+00 0.00000000D+00 0.00000000D+00 0.00000000D+00 0.00000000D+00
  <mgrwgt>
 0.4804012763D+00    5    2    0
 0.190642785976281D+03 0.000000000000000D+00 0.000000000000000D+00 0.190642785976281D+03
 0.190642785976281D+03 0.000000000000000D+00 0.000000000000000D+00 -.190642785976281D+03
 0.202651874070976D+03 0.848320306278932D+02 0.134062425754809D+03 -.165400920421713D+02
 0.178633697881585D+03 -.848320306278932D+02 -.134062425754809D+03 0.165400920421713D+02
 0.000000000000000D+00 -.000000000000000D+00 0.000000000000000D+00 0.000000000000000D+00
 0.445153964206802D+03 0.000000000000000D+00 0.000000000000000D+00 0.445153964206802D+03
 0.316272398269509D+03 0.000000000000000D+00 0.000000000000000D+00 -.316272398269509D+03
 0.261065672621593D+03 0.216998183666566D+03 0.718922740078004D+02 -.165400920421713D+02
 0.204204752551461D+03 0.242824197307586D+02 -.185389197251319D+03 0.165400920421713D+02
 0.296155937303257D+03 -.241280603397324D+03 0.113496923243519D+03 0.128881565937293D+03
0.956861263786D-03 0.000000000000D+00 0.000000000000D+00 0.217796755450D-02 0.000000000000D+00  5 -1 2 25 24 21 0 0.42683222D-02 0.20153795D+00 0.36069999D+05 0.36069999D+05 0.36069999D+05 0.12065881D+01  1  2  2  1  5  1       -1 0.418007855405D+00 0.100000000000D+01
-.531580291901D-04 0.000000000000D+00 -.367459920030D-05 0.217796755450D-02 0.000000000000D+00  5 -1 2 25 24 21 2 0.42683222D-02 0.20153795D+00 0.36069999D+05 0.36069999D+05 0.36069999D+05 0.12065881D+01  1  2  3  1  5  1       -1 -.338082310388D-01 0.100000000000D+01
0.657601331836D-04 0.000000000000D+00 0.000000000000D+00 0.217796755450D-02 0.000000000000D+00  5 -1 2 25 24 21 2 0.42683222D-02 0.20153795D+00 0.36069999D+05 0.36069999D+05 0.36069999D+05 0.12065881D+01  1  2 15  1  5  1       -1 0.418231038601D-01 0.100000000000D+01
0.221836585121D-03 0.000000000000D+00 -.321397832783D-03 0.217796755450D-02 0.000000000000D+00  5 -1 2 25 24 21 2 0.17506412D-01 0.20153795D+00 0.36069999D+05 0.36069999D+05 0.36069999D+05 0.12065881D+01  1  2  5  1  5  1       -1 0.162382975650D-01 0.100000000000D+01
0.398930296440D-04 0.000000000000D+00 -.543041686967D-04 0.217796755450D-02 0.000000000000D+00  5 21 2 25 24 1 2 0.17506412D-01 0.20153795D+00 0.36069999D+05 0.36069999D+05 0.36069999D+05 0.12065881D+01  1  2  5  3  5  1       -1 0.381402504755D-01 0.100000000000D+01
  </mgrwgt>
  </event>
  <event>
  4     66 0.45252658E-03 0.11403243E+03 0.75467711E-02 0.12292668E+00
       -1 -1    0    0    0  501 0.00000000E+00 0.00000000E+00 0.19159783E+03 0.19159810E+03 0.32000000E+00 0.0000E+00 0.9000E+01
        2 -1    0    0  501    0 0.00000000E+00 0.00000000E+00 -.90838723E+02 0.90839287E+02 0.32000000E+00 0.0000E+00 0.9000E+01
       25  1    1    2    0    0 -.97835976E+01 0.47588452E+02 0.12719388E+03 0.18483415E+03 0.12500000E+03 0.0000E+00 0.9000E+01
       24  1    1    2    0    0 0.97835976E+01 -.47588452E+02 -.26434768E+02 0.97603240E+02 0.80419002E+02 0.0000E+00 0.9000E+01
#aMCatNLO 1  0  0  1  1 0.28133215D+02 0.00000000D+00  -5  5  0 0.00000000D+00 0.00000000D+00 0.00000000D+00 0.00000000D+00 0.00000000D+00
  <mgrwgt>
 0.8575314164D-01    4    2    0
 0.131926570253727D+03 0.000000000000000D+00 0.000000000000000D+00 0.131926570253727D+03
 0.131926570253727D+03 0.000000000000000D+00 0.000000000000000D+00 -.131926570253727D+03
 0.149280511973004D+03 -.978359763455252D+01 0.475884515319002D+02 0.655689846882155D+02
 0.114572628534449D+03 0.978359763455252D+01 -.475884515319002D+02 -.655689846882155D+02
 0.000000000000000D+00 -.000000000000000D+00 -.000000000000000D+00 -.000000000000000D+00
 0.143925552842397D+03 0.000000000000000D+00 0.000000000000000D+00 0.143925552842397D+03
 0.150260925376293D+03 0.000000000000000D+00 0.000000000000000D+00 -.150260925376293D+03
 0.153217547201259D+03 0.924844085838693D+00 0.595858177819466D+02 0.655689846882155D+02
 0.112131199829120D+03 0.178089209719903D+02 -.385971579461172D+02 -.655689846882155D+02
 0.288377311883119D+02 -.187337650578290D+02 -.209886598358294D+02 -.633537253389587D+01
0.545990269021D-03 0.000000000000D+00 0.000000000000D+00 0.202564182151D-02 0.000000000000D+00  5 -1 2 25 24 21 0 0.29476654D-01 0.13975252D-01 0.13003396D+05 0.13003396D+05 0.13003396D+05 0.12549572D+01  1  2  2  1  5  1       -1 0.262979656762D+00 0.100000000000D+01
-.295492079410D-04 0.000000000000D+00 -.209674639558D-05 0.202564182151D-02 0.000000000000D+00  5 -1 2 25 24 21 2 0.29476654D-01 0.13975252D-01 0.13003396D+05 0.13003396D+05 0.13003396D+05 0.12549572D+01  1  2  3  1  5  1       -1 -.224151113509D-01 0.100000000000D+01
0.372540964736D-04 0.000000000000D+00 0.000000000000D+00 0.202564182151D-02 0.000000000000D+00  5 -1 2 25 24 21 2 0.29476654D-01 0.13975252D-01 0.13003396D+05 0.13003396D+05 0.13003396D+05 0.12549572D+01  1  2 15  1  5  1       -1 0.282598004793D-01 0.100000000000D+01
-.241337595771D-03 0.000000000000D+00 0.000000000000D+00 0.202564182151D-02 0.000000000000D+00  5 -1 2 25 24 21 2 0.29476654D-01 0.13975252D-01 0.13003396D+05 0.13003396D+05 0.13003396D+05 0.12549572D+01  1  2  4  1  5  1       -1 -.183071204249D+00 0.100000000000D+01
  </mgrwgt>
  </event>
  <event>
  4     66 0.45252658E-03 0.76359369E+02 0.75467711E-02 0.11528115E+00
       -1 -1    0    0    0  501 0.00000000E+00 0.00000000E+00 0.80094595E+01 0.80158494E+01 0.32000000E+00 0.0000E+00 0.9000E+01
        2 -1    0    0  501    0 0.00000000E+00 0.00000000E+00 -.22865180E+04 0.22865180E+04 0.32000000E+00 0.0000E+00 0.9000E+01
       25  1    1    2    0    0 0.61976306E+02 -.58172082E+02 -.14369990E+04 0.14449277E+04 0.12500000E+03 0.0000E+00 0.9000E+01
       24  1    1    2    0    0 -.61976306E+02 0.58172082E+02 -.84150961E+03 0.84960620E+03 0.80419002E+02 0.0000E+00 0.9000E+01
#aMCatNLO 1  0  0  1  2 0.10506161D+03 0.00000000D+00  -5  5  0 0.00000000D+00 0.00000000D+00 0.00000000D+00 0.00000000D+00 0.00000000D+00
  <mgrwgt>
 0.2846626109D+00    7    2    0
 0.135355569188773D+03 0.000000000000000D+00 0.000000000000000D+00 0.135355569188773D+03
 0.135355569188773D+03 0.000000000000000D+00 0.000000000000000D+00 -.135355569188773D+03
 0.152269878848351D+03 0.619763062981617D+02 -.581720823500475D+02 -.183320019961626D+02
 0.118441259529195D+03 -.619763062981617D+02 0.581720823500475D+02 0.183320019961626D+02
 0.000000000000000D+00 -.000000000000000D+00 0.000000000000000D+00 0.000000000000000D+00
 0.255395526928271D+03 0.000000000000000D+00 0.000000000000000D+00 0.255395526928271D+03
 0.170231477058437D+03 0.000000000000000D+00 0.000000000000000D+00 -.170231477058437D+03
 0.195073643206759D+03 0.119736061764434D+03 -.880678118833100D+02 -.183320019961626D+02
 0.953096610229891D+02 -.264316649910874D+02 0.397746190246767D+02 0.183320019961626D+02
 0.135243699756961D+03 -.933043967733465D+02 0.482931928586333D+02 0.851640498698345D+02
0.397466196344D-03 0.000000000000D+00 0.000000000000D+00 0.251056918730D-02 0.000000000000D+00  5 -1 2 25 24 21 0 0.12327178D-02 0.35177250D+00 0.17979634D+05 0.17979634D+05 0.17979634D+05 0.12389504D+01  1  2  2  1  5  1       -1 0.325559355680D+00 0.100000000000D+01
-.220790791957D-04 0.000000000000D+00 -.152637484921D-05 0.251056918730D-02 0.000000000000D+00  5 -1 2 25 24 21 2 0.12327178D-02 0.35177250D+00 0.17979634D+05 0.17979634D+05 0.17979634D+05 0.12389504D+01  1  2  3  1  5  1       -1 -.277599562947D-01 0.100000000000D+01
0.274500570732D-04 0.000000000000D+00 0.000000000000D+00 0.251056918730D-02 0.000000000000D+00  5 -1 2 25 24 21 2 0.12327178D-02 0.35177250D+00 0.17979634D+05 0.17979634D+05 0.17979634D+05 0.12389504D+01  1  2 15  1  5  1       -1 0.345128697572D-01 0.100000000000D+01
0.171815573769D-04 0.000000000000D+00 0.000000000000D+00 0.251056918730D-02 0.000000000000D+00  5 -1 2 25 24 21 2 0.23655866D-02 0.35177250D+00 0.38573357D+05 0.38573357D+05 0.38573357D+05 0.12036053D+01  1  2 12  1  5  1       -1 0.796578152342D-02 0.100000000000D+01
-.113141176645D-03 0.000000000000D+00 -.112765899502D-03 0.251056918730D-02 0.000000000000D+00  5 -1 2 25 24 21 2 0.31331325D-02 0.35177250D+00 0.17979634D+05 0.17979634D+05 0.17979634D+05 0.12389504D+01  1  2  5  1  5  1       -1 -.370520666845D-01 0.100000000000D+01
0.121546991578D-05 0.000000000000D+00 0.000000000000D+00 0.251056918730D-02 0.000000000000D+00  5 21 2 25 24 1 2 0.23655866D-02 0.35177250D+00 0.38573357D+05 0.38573357D+05 0.38573357D+05 0.12036053D+01  1  2 12  3  5  1       -1 0.112283108264D-01 0.100000000000D+01
-.474618582261D-05 0.000000000000D+00 -.116099639447D-04 0.251056918730D-02 0.000000000000D+00  5 21 2 25 24 1 2 0.31331325D-02 0.35177250D+00 0.17979634D+05 0.17979634D+05 0.17979634D+05 0.12389504D+01  1  2  5  3  5  1       -1 -.297916838687D-01 0.100000000000D+01
  </mgrwgt>
  </event>
  <event>
  4     66 0.45252658E-03 0.10661878E+03 0.75467711E-02 0.12070063E+00
       -1 -1    0    0    0  501 0.00000000E+00 0.00000000E+00 0.53480809E+02 0.53481767E+02 0.32000000E+00 0.0000E+00 0.9000E+01
        2 -1    0    0  501    0 0.00000000E+00 0.00000000E+00 -.21740966E+03 0.21740990E+03 0.32000000E+00 0.0000E+00 0.9000E+01
       25  1    1    2    0    0 -.27973478E+02 0.19866542E+00 -.78261002E+02 0.15010776E+03 0.12500000E+03 0.0000E+00 0.9000E+01
       24  1    1    2    0    0 0.27973478E+02 -.19866542E+00 -.85667849E+02 0.12078390E+03 0.80419002E+02 0.0000E+00 0.9000E+01
#aMCatNLO 1  0  0  1  2 0.66280241D+02 0.00000000D+00  -5  5  0 0.00000000D+00 0.00000000D+00 0.00000000D+00 0.00000000D+00 0.00000000D+00
  <mgrwgt>
 0.2519836185D+00    4    2    0
 0.107830450947411D+03 0.000000000000000D+00 0.000000000000000D+00 0.107830450947411D+03
 0.107830450947411D+03 0.000000000000000D+00 0.000000000000000D+00 -.107830450947411D+03
 0.129062357067547D+03 -.279734782308571D+02 0.198665424892714D+00 0.157967420548573D+02
 0.865985448272748D+02 0.279734782308571D+02 -.198665424892714D+00 -.157967420548573D+02
 0.000000000000000D+00 -.000000000000000D+00 -.000000000000000D+00 -.000000000000000D+00
 0.135249198434800D+03 0.000000000000000D+00 0.000000000000000D+00 0.135249198434800D+03
 0.161748199766745D+03 0.000000000000000D+00 0.000000000000000D+00 -.161748199766745D+03
 0.131475249396413D+03 -.115854286870901D+02 0.357348847268007D+02 0.157967420548573D+02
 0.941410066457371D+02 0.393421584158718D+02 0.244534392169064D+02 -.157967420548573D+02
 0.713811421593943D+02 -.277567297287817D+02 -.601883239437071D+02 -.264990013319444D+02
0.243867772611D-03 0.000000000000D+00 0.000000000000D+00 0.301866461399D-02 0.000000000000D+00  5 -1 2 25 24 21 0 0.82279086D-02 0.33447732D-01 0.11367565D+05 0.11367565D+05 0.11367565D+05 0.12617893D+01  1  2  2  1  5  1       -1 0.327248110783D+00 0.100000000000D+01
-.135461060473D-04 0.000000000000D+00 -.936516458687D-06 0.301866461399D-02 0.000000000000D+00  5 -1 2 25 24 21 2 0.82279086D-02 0.33447732D-01 0.11367565D+05 0.11367565D+05 0.11367565D+05 0.12617893D+01  1  2  3  1  5  1       -1 -.289408223747D-01 0.100000000000D+01
0.168221790925D-04 0.000000000000D+00 0.000000000000D+00 0.301866461399D-02 0.000000000000D+00  5 -1 2 25 24 21 2 0.82279086D-02 0.33447732D-01 0.11367565D+05 0.11367565D+05 0.11367565D+05 0.12617893D+01  1  2 15  1  5  1       -1 0.359400476692D-01 0.100000000000D+01
-.385045396185D-04 0.000000000000D+00 0.000000000000D+00 0.301866461399D-02 0.000000000000D+00  5 -1 2 25 24 21 2 0.82279086D-02 0.33447732D-01 0.11367565D+05 0.11367565D+05 0.11367565D+05 0.12617893D+01  1  2  4  1  5  1       -1 -.822637175457D-01 0.100000000000D+01
  </mgrwgt>
  </event>
  <event>
  4     66 0.45252658E-03 0.20496912E+03 0.75467711E-02 0.11092454E+00
       -1 -1    0    0    0  501 0.00000000E+00 0.00000000E+00 0.11219412E+03 0.11219458E+03 0.32000000E+00 0.0000E+00 0.9000E+01
        2 -1    0    0  501    0 0.00000000E+00 0.00000000E+00 -.77755976E+03 0.77755983E+03 0.32000000E+00 0.0000E+00 0.9000E+01
       25  1    1    2    0    0 0.17926802E+03 0.14719054E+03 -.56709389E+03 0.62531796E+03 0.12500000E+03 0.0000E+00 0.9000E+01
       24  1    1    2    0    0 -.17926802E+03 -.14719054E+03 -.98271757E+02 0.26443644E+03 0.80419002E+02 0.0000E+00 0.9000E+01
#aMCatNLO 1  0  0  1  2 0.40310445D+01 0.00000000D+00  -5  5  0 0.00000000D+00 0.00000000D+00 0.00000000D+00 0.00000000D+00 0.00000000D+00
  <mgrwgt>
 0.1204217119D+00   11    2    0
 0.295360568313250D+03 0.000000000000000D+00 0.000000000000000D+00 0.295360568313250D+03
 0.295360568313250D+03 0.000000000000000D+00 0.000000000000000D+00 -.295360568313250D+03
 0.303111928030906D+03 0.179268015960863D+03 0.147190544208249D+03 -.149832449969119D+03
 0.287609208595594D+03 -.179268015960863D+03 -.147190544208249D+03 0.149832449969119D+03
 0.000000000000000D+00 0.000000000000000D+00 0.000000000000000D+00 0.000000000000000D+00
 0.333862923397537D+03 0.000000000000000D+00 0.000000000000000D+00 0.333862923397537D+03
 0.295472972588478D+03 0.000000000000000D+00 0.000000000000000D+00 -.295472972588478D+03
 0.301699550711394D+03 0.178417236316599D+03 0.145310514488302D+03 -.149832449969119D+03
 0.289035339553967D+03 -.180079173587304D+03 -.148983018270780D+03 0.149832449969119D+03
 0.386010057206544D+02 0.166193727070495D+01 0.367250378247750D+01 0.383899508090584D+02
0.158382558721D-02 0.000000000000D+00 0.000000000000D+00 0.150628881953D-02 0.000000000000D+00  5 -1 2 25 24 21 0 0.17260674D-01 0.11962462D+00 0.64767257D+05 0.64767257D+05 0.64767257D+05 0.11813094D+01  1  2  2  1  5  1       -1 0.170439815645D+00 0.100000000000D+01
-.856177491432D-04 0.000000000000D+00 -.608230728576D-05 0.150628881953D-02 0.000000000000D+00  5 -1 2 25 24 21 2 0.17260674D-01 0.11962462D+00 0.64767257D+05 0.64767257D+05 0.64767257D+05 0.11813094D+01  1  2  3  1  5  1       -1 -.128574488487D-01 0.100000000000D+01
0.108506163424D-03 0.000000000000D+00 0.000000000000D+00 0.150628881953D-02 0.000000000000D+00  5 -1 2 25 24 21 2 0.17260674D-01 0.11962462D+00 0.64767257D+05 0.64767257D+05 0.64767257D+05 0.11813094D+01  1  2 15  1  5  1       -1 0.162946638981D-01 0.100000000000D+01
0.282040731682D-01 0.000000000000D+00 0.000000000000D+00 0.150628881953D-02 0.000000000000D+00  5 -1 2 25 24 21 2 0.19513756D-01 0.11962462D+00 0.65808287D+05 0.65808287D+05 0.65808287D+05 0.11806434D+01  1  2 12  1  5  1       -1 0.346903664245D+01 0.100000000000D+01
-.256968884562D+00 0.000000000000D+00 0.000000000000D+00 0.150628881953D-02 0.000000000000D+00  5 -1 2 25 24 21 2 0.17260674D-01 0.11962462D+00 0.64767257D+05 0.64767257D+05 0.64767257D+05 0.11813094D+01  1  2  4  1  5  1       -1 -.385897120870D+02 0.100000000000D+01
-.263246633819D+00 0.000000000000D+00 -.159428987561D-02 0.150628881953D-02 0.000000000000D+00  5 -1 2 25 24 21 2 0.19514316D-01 0.11962462D+00 0.64767257D+05 0.64767257D+05 0.64767257D+05 0.11813094D+01  1  2  5  1  5  1       -1 -.324160938830D+02 0.100000000000D+01
0.261482824149D+00 0.000000000000D+00 0.158236005217D-02 0.150628881953D-02 0.000000000000D+00  5 -1 2 25 24 21 2 0.17260674D-01 0.11962462D+00 0.64767257D+05 0.64767257D+05 0.64767257D+05 0.11813094D+01  1  2  6  1  5  1       -1 0.392675825978D+02 0.100000000000D+01
0.230828411984D+00 0.000000000000D+00 0.000000000000D+00 0.150628881953D-02 0.694850918281D-03  5 -1 2 25 24 21 2 0.19510726D-01 0.11967014D+00 0.65808287D+05 0.65808287D+05 0.65808287D+05 0.11806434D+01  1  2 11  1  5  1       -1 0.283849030276D+02 0.100000000000D+01
0.545184165083D-03 0.000000000000D+00 0.000000000000D+00 0.150628881953D-02 0.000000000000D+00  5 21 2 25 24 1 2 0.19513756D-01 0.11962462D+00 0.65808287D+05 0.65808287D+05 0.65808287D+05 0.11806434D+01  1  2 12  3  5  1       -1 0.840831551586D+00 0.100000000000D+01
-.508186478832D-02 0.000000000000D+00 -.308236236847D-04 0.150628881953D-02 0.000000000000D+00  5 21 2 25 24 1 2 0.19514316D-01 0.11962462D+00 0.64767257D+05 0.64767257D+05 0.64767257D+05 0.11813094D+01  1  2  5  3  5  1       -1 -.784960530415D+01 0.100000000000D+01
0.443554661352D-02 0.000000000000D+00 0.000000000000D+00 0.150628881953D-02 0.133497969010D-04  5 21 2 25 24 1 2 0.19510726D-01 0.11967014D+00 0.65808287D+05 0.65808287D+05 0.65808287D+05 0.11806434D+01  1  2 11  3  5  1       -1 0.683960213588D+01 0.100000000000D+01
  </mgrwgt>
  </event>
  <event>
  4     66 0.45252658E-03 0.10684707E+03 0.75467711E-02 0.11492830E+00
       -1 -1    0    0    0  501 0.00000000E+00 0.00000000E+00 0.32541195E+02 0.32542768E+02 0.32000000E+00 0.0000E+00 0.9000E+01
        2 -1    0    0  501    0 0.00000000E+00 0.00000000E+00 -.35675448E+03 0.35675462E+03 0.32000000E+00 0.0000E+00 0.9000E+01
       25  1    1    2    0    0 -.24254994E+02 0.15524640E+02 -.21868660E+03 0.25353135E+03 0.12500000E+03 0.0000E+00 0.9000E+01
       24  1    1    2    0    0 0.24254994E+02 -.15524640E+02 -.10552668E+03 0.13576603E+03 0.80419002E+02 0.0000E+00 0.9000E+01
#aMCatNLO 1  0  0  2  2 0.14367402D+03 0.00000000D+00  -5  5  0 0.00000000D+00 0.00000000D+00 0.00000000D+00 0.00000000D+00 0.00000000D+00
  <mgrwgt>
 0.3408106850D+00    3    2    0
 0.107747626897236D+03 0.000000000000000D+00 0.000000000000000D+00 0.107747626897236D+03
 0.107747626897236D+03 0.000000000000000D+00 0.000000000000000D+00 -.107747626897236D+03
 0.128995853678053D+03 -.242549936739347D+02 0.155246399975696D+02 -.136239165056496D+02
 0.864994001164181D+02 0.242549936739347D+02 -.155246399975696D+02 0.136239165056496D+02
 0.000000000000000D+00 0.000000000000000D+00 -.000000000000000D+00 0.000000000000000D+00
 0.203667705938975D+03 0.000000000000000D+00 0.000000000000000D+00 0.203667705938975D+03
 0.199078482119529D+03 0.000000000000000D+00 0.000000000000000D+00 -.199078482119529D+03
 0.169353412262564D+03 -.485366541044123D+02 0.102538579824228D+03 -.136239165056496D+02
 0.896454828406092D+02 0.991914397427403D+01 0.358482373516485D+02 0.136239165056496D+02
 0.143747292955331D+03 0.386175101301383D+02 -.138386817175877D+03 0.458922381944540D+01
0.200418804134D-03 0.000000000000D+00 0.000000000000D+00 0.303512176947D-02 0.000000000000D+00  5 -1 2 25 24 21 0 0.50064697D-02 0.54885436D-01 0.11416297D+05 0.11416297D+05 0.11416297D+05 0.12615701D+01  1  2  2  2  5  2        2 0.333560836291D+00 0.100000000000D+01
-.111334243492D-04 0.000000000000D+00 -.769660979359D-06 0.303512176947D-02 0.000000000000D+00  5 -1 2 25 24 21 2 0.50064697D-02 0.54885436D-01 0.11416297D+05 0.11416297D+05 0.11416297D+05 0.12615701D+01  1  2  3  2  5  2        2 -.294909071252D-01 0.100000000000D+01
0.138703914461D-04 0.000000000000D+00 0.000000000000D+00 0.303512176947D-02 0.000000000000D+00  5 -1 2 25 24 21 2 0.50064697D-02 0.54885436D-01 0.11416297D+05 0.11416297D+05 0.11416297D+05 0.12615701D+01  1  2 15  2  5  2        2 0.367407558626D-01 0.100000000000D+01
  </mgrwgt>
  </event>
  <event>
  4     66 0.45252658E-03 0.10663196E+03 0.75467711E-02 0.12228514E+00
       -1 -1    0    0    0  501 0.00000000E+00 0.00000000E+00 0.11948801E+02 0.11953085E+02 0.32000000E+00 0.0000E+00 0.9000E+01
        2 -1    0    0  501    0 0.00000000E+00 0.00000000E+00 -.98916552E+03 0.98916557E+03 0.32000000E+00 0.0000E+00 0.9000E+01
       25  1    1    2    0    0 0.23935788E+02 -.14571532E+02 -.48737637E+03 0.50393053E+03 0.12500000E+03 0.0000E+00 0.9000E+01
       24  1    1    2    0    0 -.23935788E+02 0.14571532E+02 -.48984035E+03 0.49718813E+03 0.80419002E+02 0.0000E+00 0.9000E+01
#aMCatNLO 1  0  0  1  2 0.47787035D+02 0.00000000D+00  -5  5  0 0.00000000D+00 0.00000000D+00 0.00000000D+00 0.00000000D+00 0.00000000D+00
  <mgrwgt>
 0.5030501676D+00    3    2    0
 0.108726778078065D+03 0.000000000000000D+00 0.000000000000000D+00 0.108726778078065D+03
 0.108726778078065D+03 0.000000000000000D+00 0.000000000000000D+00 -.108726778078065D+03
 0.129783651572132D+03 0.239357879402162D+02 -.145715324858553D+02 0.208217365291967D+02
 0.876699045839971D+02 -.239357879402162D+02 0.145715324858553D+02 -.208217365291967D+02
 0.000000000000000D+00 0.000000000000000D+00 0.000000000000000D+00 -.000000000000000D+00
 0.114361772432801D+03 0.000000000000000D+00 0.000000000000000D+00 0.114361772432801D+03
 0.299082761460013D+03 0.000000000000000D+00 0.000000000000000D+00 -.299082761460013D+03
 0.134978764367861D+03 0.182479517375766D+02 -.427520101932798D+02 0.208217365291967D+02
 0.876636614131633D+02 -.277024426622465D+02 -.409042008171034D+01 -.208217365291967D+02
 0.190802108111790D+03 0.945449092466990D+01 0.468424302749902D+02 -.184720989027212D+03
0.224105397544D-03 0.000000000000D+00 0.000000000000D+00 0.295399610401D-02 0.000000000000D+00  5 -1 2 25 24 21 0 0.18386106D-02 0.15217964D+00 0.11370375D+05 0.11370375D+05 0.11370375D+05 0.12617766D+01  1  2  2  1  5  1       -1 0.492507501445D+00 0.100000000000D+01
-.124445703795D-04 0.000000000000D+00 -.860623734874D-06 0.295399610401D-02 0.000000000000D+00  5 -1 2 25 24 21 2 0.18386106D-02 0.15217964D+00 0.11370375D+05 0.11370375D+05 0.11370375D+05 0.12617766D+01  1  2  3  1  5  1       -1 -.435416999592D-01 0.100000000000D+01
0.154577497155D-04 0.000000000000D+00 0.000000000000D+00 0.295399610401D-02 0.000000000000D+00  5 -1 2 25 24 21 2 0.18386106D-02 0.15217964D+00 0.11370375D+05 0.11370375D+05 0.11370375D+05 0.12617766D+01  1  2 15  1  5  1       -1 0.540843660835D-01 0.100000000000D+01
  </mgrwgt>
  </event>
  <event>
  4     66 0.45252658E-03 0.81676646E+02 0.75467711E-02 0.12713701E+00
       -1 -1    0    0    0  501 0.00000000E+00 0.00000000E+00 0.55939012E+01 0.56030465E+01 0.32000000E+00 0.0000E+00 0.9000E+01
        2 -1    0    0  501    0 0.00000000E+00 0.00000000E+00 -.21660704E+04 0.21660704E+04 0.32000000E+00 0.0000E+00 0.9000E+01
       25  1    1    2    0    0 -.16267642E+02 -.46089393E+00 -.93584064E+03 0.94429209E+03 0.12500000E+03 0.0000E+00 0.9000E+01
       24  1    1    2    0    0 0.16267642E+02 0.46089393E+00 -.12246359E+04 0.12273814E+04 0.80419002E+02 0.0000E+00 0.9000E+01
#aMCatNLO 1  0  0  2  2 0.63296273D+00 0.00000000D+00  -5  5  0 0.00000000D+00 0.00000000D+00 0.00000000D+00 0.00000000D+00 0.00000000D+00
  <mgrwgt>
 0.1306998488D+01   10    2    0
 0.110121477237748D+03 0.000000000000000D+00 0.000000000000000D+00 0.110121477237748D+03
 0.110121477237748D+03 0.000000000000000D+00 0.000000000000000D+00 -.110121477237748D+03
 0.130911663392485D+03 -.162676424029354D+02 -.460893931975687D+00 0.353272557612512D+02
 0.893312910830114D+02 0.162676424029354D+02 0.460893931975687D+00 -.353272557612512D+02
 0.000000000000000D+00 0.000000000000000D+00 -.000000000000000D+00 -.000000000000000D+00
 0.110364949970971D+03 0.000000000000000D+00 0.000000000000000D+00 0.110364949970971D+03
 0.110534084482517D+03 0.000000000000000D+00 0.000000000000000D+00 -.110534084482517D+03
 0.130957509840446D+03 -.166346518644090D+02 -.377811248567679D+00 0.353272557612512D+02
 0.892863541783070D+02 0.160173098991599D+02 0.517563577696566D+00 -.353272557612512D+02
 0.655170434734722D+00 0.617341965249102D+00 -.139752329128887D+00 -.169134511546024D+00
0.159195422756D-03 0.000000000000D+00 0.000000000000D+00 0.274845466078D-02 0.000000000000D+00  5 -1 2 25 24 21 0 0.86130549D-03 0.33324231D+00 0.10826829D+05 0.10826829D+05 0.10826829D+05 0.12642945D+01  1  2  2  2  5  2        2 0.248389009351D+00 0.100000000000D+01
-.880962839435D-05 0.000000000000D+00 -.611352340501D-06 0.274845466078D-02 0.000000000000D+00  5 -1 2 25 24 21 2 0.86130549D-03 0.33324231D+00 0.10826829D+05 0.10826829D+05 0.10826829D+05 0.12642945D+01  1  2  3  2  5  2        2 -.219713069189D-01 0.100000000000D+01
0.108905778860D-04 0.000000000000D+00 0.000000000000D+00 0.274845466078D-02 0.000000000000D+00  5 -1 2 25 24 21 2 0.86130549D-03 0.33324231D+00 0.10826829D+05 0.10826829D+05 0.10826829D+05 0.12642945D+01  1  2 15  2  5  2        2 0.271612170850D-01 0.100000000000D+01
-.527323993632D-02 0.000000000000D+00 0.000000000000D+00 0.274845466078D-02 0.000000000000D+00  5 -1 2 25 24 21 2 0.86130549D-03 0.33324231D+00 0.10826829D+05 0.10826829D+05 0.10826829D+05 0.12642945D+01  1  2  4  2  5  2        2 -.131515164899D+02 0.100000000000D+01
-.402598227794D-01 0.000000000000D+00 -.357912933150D-02 0.274845466078D-02 0.000000000000D+00  5 -1 2 25 24 21 2 0.86130549D-03 0.33482173D+00 0.10826829D+05 0.10826829D+05 0.10826829D+05 0.12642945D+01  1  2  5  2  5  2        2 -.992035074556D+02 0.100000000000D+01
0.402763359773D-01 0.000000000000D+00 0.357908932181D-02 0.274845466078D-02 0.000000000000D+00  5 -1 2 25 24 21 2 0.86130549D-03 0.33324231D+00 0.10826829D+05 0.10826829D+05 0.10826829D+05 0.12642945D+01  1  2  6  2  5  2        2 0.100449610326D+03 0.100000000000D+01
0.527329101307D-02 0.000000000000D+00 0.000000000000D+00 0.274845466078D-02 0.584543831632D-01  5 -1 2 25 24 21 2 0.86320979D-03 0.33449091D+00 0.10892653D+05 0.10892653D+05 0.10892653D+05 0.12639821D+01  1  2 11  2  5  2        2 0.129814557846D+02 0.100000000000D+01
0.216077783338D-12 0.000000000000D+00 0.000000000000D+00 0.274845466078D-02 0.000000000000D+00  5 -1 21 25 24 -2 2 0.86130549D-03 0.33485820D+00 0.10892653D+05 0.10892653D+05 0.10892653D+05 0.12639821D+01  1  2 12  4  5  2        2 0.162408859587D-09 0.100000000000D+01
-.354114246429D-04 0.000000000000D+00 -.315075494755D-05 0.274845466078D-02 0.000000000000D+00  5 -1 21 25 24 -2 2 0.86130549D-03 0.33482173D+00 0.10826829D+05 0.10826829D+05 0.10826829D+05 0.12642945D+01  1  2  5  4  5  2        2 -.266526900844D-01 0.100000000000D+01
0.535311547031D-05 0.000000000000D+00 0.000000000000D+00 0.274845466078D-02 0.408165329009D-04  5 -1 21 25 24 -2 2 0.86320979D-03 0.33449091D+00 0.10892653D+05 0.10892653D+05 0.10892653D+05 0.12639821D+01  1  2 11  4  5  2        2 0.403009300424D-02 0.100000000000D+01
  </mgrwgt>
  </event>
  <event>
  4     66 0.45252658E-03 0.16834009E+03 0.75467711E-02 0.10266963E+00
       -1 -1    0    0    0  501 0.00000000E+00 0.00000000E+00 0.64829271E+03 0.64829279E+03 0.32000000E+00 0.0000E+00 0.9000E+01
        2 -1    0    0  501    0 0.00000000E+00 0.00000000E+00 -.46562686E+02 0.46563786E+02 0.32000000E+00 0.0000E+00 0.9000E+01
       25  1    1    2    0    0 -.12927328E+03 0.27670568E+02 0.23797851E+03 0.29955970E+03 0.12500000E+03 0.0000E+00 0.9000E+01
       24  1    1    2    0    0 0.12927328E+03 -.27670568E+02 0.36375151E+03 0.39529688E+03 0.80419002E+02 0.0000E+00 0.9000E+01
#aMCatNLO 1  0  0  1  1 0.39127993D+03 0.00000000D+00  -5  5  0 0.00000000D+00 0.00000000D+00 0.00000000D+00 0.00000000D+00 0.00000000D+00
  <mgrwgt>
 0.4114984958D+00    3    2    0
 0.173743084551080D+03 0.000000000000000D+00 0.000000000000000D+00 0.173743084551080D+03
 0.173743084551080D+03 0.000000000000000D+00 0.000000000000000D+00 -.173743084551080D+03
 0.186920276709967D+03 -.129273279861395D+03 0.276705677364072D+02 -.428596388266756D+02
 0.160565892392193D+03 0.129273279861395D+03 -.276705677364072D+02 0.428596388266756D+02
 0.000000000000000D+00 0.000000000000000D+00 0.000000000000000D+00 -.000000000000000D+00
 0.307262877888222D+03 0.000000000000000D+00 0.000000000000000D+00 0.307262877888222D+03
 0.110081152674447D+04 0.000000000000000D+00 0.000000000000000D+00 -.110081152674447D+04
 0.333655971198545D+03 -.255274960536063D+03 -.169407948454028D+03 -.428596388266756D+02
 0.189647592785296D+03 0.445066622821550D+02 -.160253554927921D+03 0.428596388266756D+02
 0.884770840648847D+03 0.210768298253908D+03 0.329661503381949D+03 -.793548648856245D+03
0.360460981898D-02 0.000000000000D+00 0.000000000000D+00 0.213323857373D-02 0.000000000000D+00  5 -1 2 25 24 21 0 0.99737431D-01 0.71635808D-02 0.28338386D+05 0.28338386D+05 0.28338386D+05 0.12175042D+01  1  2  2  1  5  1       -1 0.403642988321D+00 0.100000000000D+01
-.200013101682D-03 0.000000000000D+00 -.138426508205D-04 0.213323857373D-02 0.000000000000D+00  5 -1 2 25 24 21 2 0.99737431D-01 0.71635808D-02 0.28338386D+05 0.28338386D+05 0.28338386D+05 0.12175042D+01  1  2  3  1  5  1       -1 -.332000345812D-01 0.100000000000D+01
0.247338486786D-03 0.000000000000D+00 0.000000000000D+00 0.213323857373D-02 0.000000000000D+00  5 -1 2 25 24 21 2 0.99737431D-01 0.71635808D-02 0.28338386D+05 0.28338386D+05 0.28338386D+05 0.12175042D+01  1  2 15  1  5  1       -1 0.410555420894D-01 0.100000000000D+01
  </mgrwgt>
  </event>
  <event>
  4     66 0.45252658E-03 0.59791649E+02 0.75467711E-02 0.12276567E+00
       -1 -1    0    0    0  501 0.00000000E+00 0.00000000E+00 0.30676248E+03 0.30676265E+03 0.32000000E+00 0.0000E+00 0.9000E+01
        2 -1    0    0  501    0 0.00000000E+00 0.00000000E+00 -.59485490E+02 0.59486351E+02 0.32000000E+00 0.0000E+00 0.9000E+01
       25  1    1    2    0    0 0.10650000E+02 0.74322084E+02 0.80810922E+02 0.16671113E+03 0.12500000E+03 0.0000E+00 0.9000E+01
       24  1    1    2    0    0 -.10650000E+02 -.74322084E+02 0.16646607E+03 0.19953787E+03 0.80419002E+02 0.0000E+00 0.9000E+01
#aMCatNLO 1  0  0  1  2 0.38667272D+01 0.00000000D+00  -5  5  0 0.00000000D+00 0.00000000D+00 0.00000000D+00 0.00000000D+00 0.00000000D+00
  <mgrwgt>
 0.2364432657D+00   11    2    0
 0.135085546575883D+03 0.000000000000000D+00 0.000000000000000D+00 0.135085546575883D+03
 0.135085546575883D+03 0.000000000000000D+00 0.000000000000000D+00 -.135085546575883D+03
 0.152033666263294D+03 0.106499999688424D+02 0.743220837056462D+02 -.430353465394800D+02
 0.118137426888472D+03 -.106499999688424D+02 -.743220837056462D+02 0.430353465394800D+02
 0.000000000000000D+00 0.000000000000000D+00 -.000000000000000D+00 0.000000000000000D+00
 0.140056262899777D+03 0.000000000000000D+00 0.000000000000000D+00 0.140056262899777D+03
 0.135853463061253D+03 0.000000000000000D+00 0.000000000000000D+00 -.135853463061253D+03
 0.152122689315081D+03 0.852169556059874D+01 0.747773512331910D+02 -.430353465394800D+02
 0.118076072995471D+03 -.123028808765376D+02 -.739685144505820D+02 0.430353465394800D+02
 0.571096365047760D+01 0.378118531593889D+01 -.808836782609027D+00 0.420279983852469D+01
0.524908409958D-03 0.000000000000D+00 0.000000000000D+00 0.232387976309D-02 0.000000000000D+00  5 -1 2 25 24 21 0 0.47194307D-01 0.91516929D-02 0.16362972D+05 0.16362972D+05 0.16362972D+05 0.12435395D+01  1  2  2  1  5  1       -1 0.187860841512D+00 0.100000000000D+01
-.290561866502D-04 0.000000000000D+00 -.201578650580D-05 0.232387976309D-02 0.000000000000D+00  5 -1 2 25 24 21 2 0.47194307D-01 0.91516929D-02 0.16362972D+05 0.16362972D+05 0.16362972D+05 0.12435395D+01  1  2  3  1  5  1       -1 -.160809053146D-01 0.100000000000D+01
0.362990342486D-04 0.000000000000D+00 0.000000000000D+00 0.232387976309D-02 0.000000000000D+00  5 -1 2 25 24 21 2 0.47194307D-01 0.91516929D-02 0.16362972D+05 0.16362972D+05 0.16362972D+05 0.12435395D+01  1  2 15  1  5  1       -1 0.200893991972D-01 0.100000000000D+01
0.158435074916D-03 0.000000000000D+00 0.000000000000D+00 0.232387976309D-02 0.000000000000D+00  5 -1 2 25 24 21 2 0.49062089D-01 0.91516929D-02 0.16864831D+05 0.16864831D+05 0.16864831D+05 0.12420623D+01  1  2 12  1  5  1       -1 0.816128090134D-01 0.100000000000D+01
-.563157316820D-02 0.000000000000D+00 0.000000000000D+00 0.232387976309D-02 0.000000000000D+00  5 -1 2 25 24 21 2 0.47194307D-01 0.91516929D-02 0.16362972D+05 0.16362972D+05 0.16362972D+05 0.12435395D+01  1  2  4  1  5  1       -1 -.311674742389D+01 0.100000000000D+01
-.138350280200D-01 0.000000000000D+00 -.148665398449D-02 0.232387976309D-02 0.000000000000D+00  5 -1 2 25 24 21 2 0.49136659D-01 0.91516929D-02 0.16362972D+05 0.16362972D+05 0.16362972D+05 0.12435395D+01  1  2  5  1  5  1       -1 -.711802182146D+01 0.100000000000D+01
0.138849015693D-01 0.000000000000D+00 0.148544564948D-02 0.232387976309D-02 0.000000000000D+00  5 -1 2 25 24 21 2 0.47194307D-01 0.91516929D-02 0.16362972D+05 0.16362972D+05 0.16362972D+05 0.12435395D+01  1  2  6  1  5  1       -1 0.768448351901D+01 0.100000000000D+01
0.547405898511D-02 0.000000000000D+00 0.000000000000D+00 0.232387976309D-02 0.127969606130D-02  5 -1 2 25 24 21 2 0.48930907D-01 0.92037173D-02 0.16864831D+05 0.16864831D+05 0.16864831D+05 0.12420623D+01  1  2 11  1  5  1       -1 0.281374345966D+01 0.100000000000D+01
0.335402517002D-05 0.000000000000D+00 0.000000000000D+00 0.232387976309D-02 0.000000000000D+00  5 21 2 25 24 1 2 0.49062089D-01 0.91516929D-02 0.16864831D+05 0.16864831D+05 0.16864831D+05 0.12420623D+01  1  2 12  3  5  1       -1 0.177324995032D-01 0.100000000000D+01
-.977137917457D-04 0.000000000000D+00 -.105925208718D-04 0.232387976309D-02 0.000000000000D+00  5 21 2 25 24 1 2 0.49136659D-01 0.91516929D-02 0.16362972D+05 0.16362972D+05 0.16362972D+05 0.12435395D+01  1  2  5  3  5  1       -1 -.516138104015D+00 0.100000000000D+01
0.374898246439D-04 0.000000000000D+00 0.000000000000D+00 0.232387976309D-02 0.825165771406D-05  5 21 2 25 24 1 2 0.48930907D-01 0.92037173D-02 0.16864831D+05 0.16864831D+05 0.16864831D+05 0.12420623D+01  1  2 11  3  5  1       -1 0.197908992486D+00 0.100000000000D+01
  </mgrwgt>
  </event>
  <event>
  4     66 0.45252658E-03 0.10945490E+03 0.75467711E-02 0.11945484E+00
       -1 -1    0    0    0  501 0.00000000E+00 0.00000000E+00 0.74818406E+02 0.74819090E+02 0.32000000E+00 0.0000E+00 0.9000E+01
        2 -1    0    0  501    0 0.00000000E+00 0.00000000E+00 -.24379806E+03 0.24379827E+03 0.32000000E+00 0.0000E+00 0.9000E+01
       25  1    1    2    0    0 0.81729794E+02 -.20528640E+02 -.11811197E+03 0.19151141E+03 0.12500000E+03 0.0000E+00 0.9000E+01
       24  1    1    2    0    0 -.81729794E+02 0.20528640E+02 -.50867686E+02 0.12710595E+03 0.80419002E+02 0.0000E+00 0.9000E+01
#aMCatNLO 1  0  0  2  1 0.39669291D+02 0.00000000D+00  -5  5  0 0.00000000D+00 0.00000000D+00 0.00000000D+00 0.00000000D+00 0.00000000D+00
  <mgrwgt>
 0.3266923744D+00    9    2    0
 0.135058226756077D+03 0.000000000000000D+00 0.000000000000000D+00 0.135058226756077D+03
 0.135058226756077D+03 0.000000000000000D+00 0.000000000000000D+00 -.135058226756077D+03
 0.152009774739469D+03 0.817297939694942D+02 -.205286395937932D+02 -.195137733531001D+02
 0.118106678772686D+03 -.817297939694942D+02 0.205286395937932D+02 0.195137733531001D+02
 0.000000000000000D+00 0.000000000000000D+00 0.000000000000000D+00 -.000000000000000D+00
 0.141061424538658D+03 0.000000000000000D+00 0.000000000000000D+00 0.141061424538658D+03
 0.222885728046733D+03 0.000000000000000D+00 0.000000000000000D+00 -.222885728046733D+03
 0.150163278983033D+03 0.705559058815765D+02 -.395611823596071D+02 -.195137733531001D+02
 0.122850550465448D+03 -.906400163745476D+02 0.535181057574848D+01 0.195137733531001D+02
 0.909333231369098D+02 0.200841104929711D+02 0.342093717838586D+02 -.818243035080746D+02
0.401625832749D-03 0.000000000000D+00 0.000000000000D+00 0.250828141615D-02 0.000000000000D+00  5 -1 2 25 24 21 0 0.11510593D-01 0.37507463D-01 0.17853708D+05 0.17853708D+05 0.17853708D+05 0.12392909D+01  1  2  2  2  5  2        2 0.291510195064D+00 0.100000000000D+01
-.223094270716D-04 0.000000000000D+00 -.154234894827D-05 0.250828141615D-02 0.000000000000D+00  5 -1 2 25 24 21 2 0.11510593D-01 0.37507463D-01 0.17853708D+05 0.17853708D+05 0.17853708D+05 0.12392909D+01  1  2  3  2  5  2        2 -.248695005422D-01 0.100000000000D+01
0.276635472892D-04 0.000000000000D+00 0.000000000000D+00 0.250828141615D-02 0.000000000000D+00  5 -1 2 25 24 21 2 0.11510593D-01 0.37507463D-01 0.17853708D+05 0.17853708D+05 0.17853708D+05 0.12392909D+01  1  2 15  2  5  2        2 0.308380220657D-01 0.100000000000D+01
0.104484295076D-02 0.000000000000D+00 0.000000000000D+00 0.250828141615D-02 0.000000000000D+00  5 -1 2 25 24 21 2 0.11510593D-01 0.62267906D-01 0.24001773D+05 0.24001773D+05 0.24001773D+05 0.12251995D+01  1  2 12  2  5  2        2 0.669145065678D+00 0.100000000000D+01
-.103144355120D-02 0.000000000000D+00 0.000000000000D+00 0.250828141615D-02 0.000000000000D+00  5 -1 2 25 24 21 2 0.11510593D-01 0.37507463D-01 0.17853708D+05 0.17853708D+05 0.17853708D+05 0.12392909D+01  1  2  4  2  5  2        2 -.114980478313D+01 0.100000000000D+01
-.118523655550D-02 0.000000000000D+00 -.171330893003D-03 0.250828141615D-02 0.000000000000D+00  5 -1 2 25 24 21 2 0.11510593D-01 0.63571674D-01 0.17853708D+05 0.17853708D+05 0.17853708D+05 0.12392909D+01  1  2  5  2  5  2        2 -.754384315665D+00 0.100000000000D+01
0.113527367494D-02 0.000000000000D+00 0.149967294458D-03 0.250828141615D-02 0.000000000000D+00  5 -1 2 25 24 21 2 0.11510593D-01 0.37507463D-01 0.17853708D+05 0.17853708D+05 0.17853708D+05 0.12392909D+01  1  2  6  2  5  2        2 0.126554972406D+01 0.100000000000D+01
0.595570023630D-04 0.000000000000D+00 0.000000000000D+00 0.250828141615D-02 0.000000000000D+00  5 -1 21 25 24 -2 2 0.11510593D-01 0.62267906D-01 0.24001773D+05 0.24001773D+05 0.24001773D+05 0.12251995D+01  1  2 12  4  5  2        2 0.941306462721D-01 0.100000000000D+01
-.615813804513D-04 0.000000000000D+00 -.100865714063D-04 0.250828141615D-02 0.000000000000D+00  5 -1 21 25 24 -2 2 0.11510593D-01 0.63571674D-01 0.17853708D+05 0.17853708D+05 0.17853708D+05 0.12392909D+01  1  2  5  4  5  2        2 -.954226793660D-01 0.100000000000D+01
  </mgrwgt>
  </event>
  <event>
  4     66 0.45252658E-03 0.11381052E+03 0.75467711E-02 0.10236293E+00
       -1 -1    0    0    0  501 0.00000000E+00 0.00000000E+00 0.11182011E+03 0.11182057E+03 0.32000000E+00 0.0000E+00 0.9000E+01
        2 -1    0    0  501    0 0.00000000E+00 0.00000000E+00 -.11596899E+03 0.11596943E+03 0.32000000E+00 0.0000E+00 0.9000E+01
       25  1    1    2    0    0 0.31792480E+02 -.36064255E+02 -.62448181E+01 0.13407233E+03 0.12500000E+03 0.0000E+00 0.9000E+01
       24  1    1    2    0    0 -.31792480E+02 0.36064255E+02 0.20959410E+01 0.93717667E+02 0.80419002E+02 0.0000E+00 0.9000E+01
#aMCatNLO 1  0  0  1  1 0.43607735D+03 0.00000000D+00  -5  5  0 0.00000000D+00 0.00000000D+00 0.00000000D+00 0.00000000D+00 0.00000000D+00
  <mgrwgt>
 0.4476554821D+00    3    2    0
 0.113876106255464D+03 0.000000000000000D+00 0.000000000000000D+00 0.113876106255464D+03
 0.113876106255464D+03 0.000000000000000D+00 0.000000000000000D+00 -.113876106255464D+03
 0.133980815546027D+03 0.317924795724508D+02 -.360642551595320D+02 -.380350848585518D+01
 0.937713969649010D+02 -.317924795724508D+02 0.360642551595320D+02 0.380350848585518D+01
 0.000000000000000D+00 0.000000000000000D+00 -.000000000000000D+00 -.000000000000000D+00
 0.273501569137878D+03 0.000000000000000D+00 0.000000000000000D+00 0.273501569137878D+03
 0.197370433220511D+04 0.000000000000000D+00 0.000000000000000D+00 -.197370433220511D+04
 0.203552548388684D+03 -.390349986337140D+02 0.155789737018814D+03 -.380350848585518D+01
 0.288417501278662D+03 -.111990405920911D+03 0.253300456759011D+03 0.380350848585518D+01
 0.175523585167565D+04 0.151025404554625D+03 -.409090193777826D+03 -.170020276306724D+04
0.505021732793D-03 0.000000000000D+00 0.000000000000D+00 0.291035521164D-02 0.000000000000D+00  5 -1 2 25 24 21 0 0.17203163D-01 0.17841452D-01 0.12952835D+05 0.12952835D+05 0.12952835D+05 0.12551535D+01  1  2  2  1  5  1       -1 0.438344038850D+00 0.100000000000D+01
-.280567516115D-04 0.000000000000D+00 -.193941642920D-05 0.291035521164D-02 0.000000000000D+00  5 -1 2 25 24 21 2 0.17203163D-01 0.17841452D-01 0.12952835D+05 0.12952835D+05 0.12952835D+05 0.12551535D+01  1  2  3  1  5  1       -1 -.383650817526D-01 0.100000000000D+01
0.348662992256D-04 0.000000000000D+00 0.000000000000D+00 0.291035521164D-02 0.000000000000D+00  5 -1 2 25 24 21 2 0.17203163D-01 0.17841452D-01 0.12952835D+05 0.12952835D+05 0.12952835D+05 0.12551535D+01  1  2 15  1  5  1       -1 0.476765250206D-01 0.100000000000D+01
  </mgrwgt>
  </event>
  <event>
  4     66 0.45252658E-03 0.11036928E+03 0.75467711E-02 0.12504162E+00
       -1 -1    0    0    0  501 0.00000000E+00 0.00000000E+00 0.10097747E+03 0.10097798E+03 0.32000000E+00 0.0000E+00 0.9000E+01
        2 -1    0    0  501    0 0.00000000E+00 0.00000000E+00 -.12175422E+03 0.12175464E+03 0.32000000E+00 0.0000E+00 0.9000E+01
       25  1    1    2    0    0 -.18297278E+01 0.39524875E+02 -.22818386E+02 0.13308359E+03 0.12500000E+03 0.0000E+00 0.9000E+01
       24  1    1    2    0    0 0.18297278E+01 -.39524875E+02 0.20416345E+01 0.89649026E+02 0.80419002E+02 0.0000E+00 0.9000E+01
#aMCatNLO 1  0  0  1  1 0.10364342D+02 0.00000000D+00  -5  5  0 0.00000000D+00 0.00000000D+00 0.00000000D+00 0.00000000D+00 0.00000000D+00
  <mgrwgt>
 0.2223045619D+00    4    2    0
 0.110880730698990D+03 0.000000000000000D+00 0.000000000000000D+00 0.110880730698990D+03
 0.110880730698990D+03 0.000000000000000D+00 0.000000000000000D+00 -.110880730698990D+03
 0.131528556493199D+03 -.182972782161949D+01 0.395248754110583D+02 -.104497604290099D+02
 0.902329049047803D+02 0.182972782161949D+01 -.395248754110583D+02 0.104497604290099D+02
 0.000000000000000D+00 -.000000000000000D+00 -.000000000000000D+00 -.000000000000000D+00
 0.112491066397216D+03 0.000000000000000D+00 0.000000000000000D+00 0.112491066397216D+03
 0.129033612289872D+03 0.000000000000000D+00 0.000000000000000D+00 -.129033612289872D+03
 0.133321888659197D+03 0.706607882142729D+00 0.451666824986352D+02 -.104497604290099D+02
 0.886816368906558D+02 0.354309983432996D+01 -.357136629005744D+02 0.104497604290099D+02
 0.195211531372350D+02 -.424970771647269D+01 -.945301959806083D+01 -.165425458926554D+02
0.287493246377D-03 0.000000000000D+00 0.000000000000D+00 0.296562716346D-02 0.000000000000D+00  5 -1 2 25 24 21 0 0.15535067D-01 0.18731490D-01 0.12181379D+05 0.12181379D+05 0.12181379D+05 0.12582612D+01  1  2  2  1  5  1       -1 0.276421960377D+00 0.100000000000D+01
-.159714319384D-04 0.000000000000D+00 -.110404976480D-05 0.296562716346D-02 0.000000000000D+00  5 -1 2 25 24 21 2 0.15535067D-01 0.18731490D-01 0.12181379D+05 0.12181379D+05 0.12181379D+05 0.12582612D+01  1  2  3  1  5  1       -1 -.243125434512D-01 0.100000000000D+01
0.198199394422D-04 0.000000000000D+00 0.000000000000D+00 0.296562716346D-02 0.000000000000D+00  5 -1 2 25 24 21 2 0.15535067D-01 0.18731490D-01 0.12181379D+05 0.12181379D+05 0.12181379D+05 0.12582612D+01  1  2 15  1  5  1       -1 0.301709415128D-01 0.100000000000D+01
-.393993887930D-04 0.000000000000D+00 0.000000000000D+00 0.296562716346D-02 0.000000000000D+00  5 -1 2 25 24 21 2 0.15535067D-01 0.18731490D-01 0.12181379D+05 0.12181379D+05 0.12181379D+05 0.12582612D+01  1  2  4  1  5  1       -1 -.599757965147D-01 0.100000000000D+01
  </mgrwgt>
  </event>
  <event>
  5     66 -.45252658E-03 0.10731898E+03 0.75467711E-02 0.12536199E+00
       -1 -1    0    0    0  502 0.00000000E+00 0.00000000E+00 0.20079924E+02 0.20082474E+02 0.32000000E+00 0.0000E+00 0.9000E+01
        2 -1    0    0  501    0 0.00000000E+00 0.00000000E+00 -.66594191E+03 0.66594198E+03 0.32000000E+00 0.0000E+00 0.9000E+01
       25  1    1    2    0    0 0.23615565E+02 0.22475259E+02 -.31352948E+03 0.33909964E+03 0.12500000E+03 0.0000E+00 0.9000E+01
       24  1    1    2    0    0 -.11976834E+02 -.27486720E+02 -.30390748E+03 0.31579414E+03 0.80419002E+02 0.0000E+00 0.9000E+01
       21  1    1    2  501  502 -.11638731E+02 0.50114606E+01 -.28425017E+02 0.31130674E+02 0.75000000E+00 0.0000E+00 0.9000E+01
#aMCatNLO 2  0  0  1  2 0.12671811D+02 0.00000000D+00  -5  5  0 0.00000000D+00 0.00000000D+00 0.00000000D+00 0.00000000D+00 0.00000000D+00
  <mgrwgt>
 -.6898022371D-01    2    2    0
 0.108968902099555D+03 0.000000000000000D+00 0.000000000000000D+00 0.108968902099555D+03
 0.108968902099555D+03 0.000000000000000D+00 0.000000000000000D+00 -.108968902099555D+03
 0.129978988163519D+03 0.166660576073226D+02 0.254676116791827D+02 0.185251354435021D+02
 0.879588160355906D+02 -.166660576073226D+02 -.254676116791827D+02 -.185251354435021D+02
 0.000000000000000D+00 -.000000000000000D+00 0.000000000000000D+00 0.000000000000000D+00
 0.117026513402499D+03 0.000000000000000D+00 0.000000000000000D+00 0.117026513402499D+03
 0.114251483783071D+03 0.000000000000000D+00 0.000000000000000D+00 -.114251483783071D+03
 0.130502922745491D+03 0.236155652027983D+02 0.224752593326072D+02 0.185251354435021D+02
 0.878029665321805D+02 -.119768343185095D+02 -.274867199568729D+02 -.185251354435021D+02
 0.129721079078986D+02 -.116387308842888D+02 0.501146062426568D+01 0.277502961942784D+01
-.189768640718D-03 0.000000000000D+00 0.000000000000D+00 0.296695573029D-02 0.000000000000D+00  5 -1 2 25 24 21 2 0.31545726D-02 0.97706575D-01 0.12959507D+05 0.12959507D+05 0.12959507D+05 0.12551276D+01  1  2 13  1  5  1       -1 -.524635043822D+00 0.100000000000D+01
0.168851735929D-03 0.000000000000D+00 0.000000000000D+00 0.296695573029D-02 0.155826298276D-03  5 -1 2 25 24 21 2 0.30891311D-02 0.10244318D+00 0.12959507D+05 0.12959507D+05 0.12959507D+05 0.12551276D+01  1  2  1  1  5  1       -1 0.455654820107D+00 0.100000000000D+01
  </mgrwgt>
  </event>
  <event>
  4     66 0.45252658E-03 0.57269210E+02 0.75467711E-02 0.11770107E+00
       -3 -1    0    0    0  501 0.00000000E+00 0.00000000E+00 0.50741435E+03 0.50741460E+03 0.50000000E+00 0.0000E+00 0.9000E+01
        4 -1    0    0  501    0 0.00000000E+00 0.00000000E+00 -.26890138E+02 0.26934773E+02 0.15500000E+01 0.0000E+00 0.9000E+01
       25  1    1    2    0    0 -.29586937E+02 -.45656661E+02 0.29391593E+03 0.32399304E+03 0.12500000E+03 0.0000E+00 0.9000E+01
       24  1    1    2    0    0 0.29586937E+02 0.45656661E+02 0.18660828E+03 0.21035633E+03 0.80419002E+02 0.0000E+00 0.9000E+01
#aMCatNLO 1  0  0  1  2 0.91053525D+02 0.00000000D+00  -5  5  0 0.00000000D+00 0.00000000D+00 0.00000000D+00 0.00000000D+00 0.00000000D+00
  <mgrwgt>
 0.5415599145D-01    7    2    0
 0.116860740234630D+03 0.000000000000000D+00 0.000000000000000D+00 0.116860740234630D+03
 0.116860740234630D+03 0.000000000000000D+00 0.000000000000000D+00 -.116860740234630D+03
 0.136451973413632D+03 -.295869373998762D+02 -.456566608115668D+02 0.585008609404575D+01
 0.972695070556284D+02 0.295869373998762D+02 0.456566608115668D+02 -.585008609404575D+01
 0.000000000000000D+00 -.000000000000000D+00 0.000000000000000D+00 0.000000000000000D+00
 0.210953571667490D+03 0.000000000000000D+00 0.000000000000000D+00 0.210953571667490D+03
 0.149647016844194D+03 0.000000000000000D+00 0.000000000000000D+00 -.149647016844194D+03
 0.135034675909989D+03 0.214276148373414D+02 -.459999729694551D+02 0.585008609404575D+01
 0.115796890879803D+03 0.696238486607172D+02 0.453872247820938D+02 -.585008609404575D+01
 0.109769021721892D+03 -.910514634980585D+02 0.612748187361359D+00 0.613065548232963D+02
0.620719969537D-03 0.000000000000D+00 0.000000000000D+00 0.284020580767D-02 0.000000000000D+00  5 -3 4 25 24 21 0 0.78067199D-01 0.41403967D-02 0.13621217D+05 0.13621217D+05 0.13621217D+05 0.12526248D+01  1  2  2  1  5  1       -3 0.601997544697D-01 0.100000000000D+01
-.344843728698D-04 0.000000000000D+00 -.238372812234D-05 0.284020580767D-02 0.000000000000D+00  5 -3 4 25 24 21 2 0.78067199D-01 0.41403967D-02 0.13621217D+05 0.13621217D+05 0.13621217D+05 0.12526248D+01  1  2  3  1  5  1       -3 -.524763181727D-02 0.100000000000D+01
0.429827214120D-04 0.000000000000D+00 0.000000000000D+00 0.284020580767D-02 0.000000000000D+00  5 -3 4 25 24 21 2 0.78067199D-01 0.41403967D-02 0.13621217D+05 0.13621217D+05 0.13621217D+05 0.12526248D+01  1  2 15  1  5  1       -3 0.654086119895D-02 0.100000000000D+01
0.257299450852D-04 0.000000000000D+00 0.000000000000D+00 0.284020580767D-02 0.000000000000D+00  5 -3 4 25 24 21 2 0.14458118D+00 0.41403967D-02 0.29174424D+05 0.29174424D+05 0.29174424D+05 0.12161724D+01  1  2 12  1  5  1       -3 0.948604822004D-03 0.100000000000D+01
-.219578871435D-03 0.000000000000D+00 -.164566664561D-03 0.284020580767D-02 0.000000000000D+00  5 -3 4 25 24 21 2 0.16644340D+00 0.41403967D-02 0.13621217D+05 0.13621217D+05 0.13621217D+05 0.12526248D+01  1  2  5  1  5  1       -3 -.571060298391D-02 0.100000000000D+01
0.172939514043D-05 0.000000000000D+00 0.000000000000D+00 0.284020580767D-02 0.000000000000D+00  5 21 4 25 24 3 2 0.14458118D+00 0.41403967D-02 0.29174424D+05 0.29174424D+05 0.29174424D+05 0.12161724D+01  1  2 12  3  5  1       -3 0.114571894319D-02 0.100000000000D+01
-.772479113439D-05 0.000000000000D+00 -.134808813653D-04 0.284020580767D-02 0.000000000000D+00  5 21 4 25 24 3 2 0.16644340D+00 0.41403967D-02 0.13621217D+05 0.13621217D+05 0.13621217D+05 0.12526248D+01  1  2  5  3  5  1       -3 -.372071317802D-02 0.100000000000D+01
  </mgrwgt>
  </event>
  <event>
  4     66 0.45252658E-03 0.10850476E+03 0.75467711E-02 0.11238543E+00
       -1 -1    0    0    0  501 0.00000000E+00 0.00000000E+00 0.10888433E+03 0.10888480E+03 0.32000000E+00 0.0000E+00 0.9000E+01
        2 -1    0    0  501    0 0.00000000E+00 0.00000000E+00 -.11504930E+03 0.11504975E+03 0.32000000E+00 0.0000E+00 0.9000E+01
       25  1    1    2    0    0 -.23212545E+02 -.25170647E+02 -.30620719E+02 0.13317287E+03 0.12500000E+03 0.0000E+00 0.9000E+01
       24  1    1    2    0    0 0.23212545E+02 0.25170647E+02 0.24455742E+02 0.90761682E+02 0.80419002E+02 0.0000E+00 0.9000E+01
#aMCatNLO 1  0  0  1  2 0.18366612D+03 0.00000000D+00  -5  5  0 0.00000000D+00 0.00000000D+00 0.00000000D+00 0.00000000D+00 0.00000000D+00
  <mgrwgt>
 0.4386398075D+00    3    2    0
 0.111924835061824D+03 0.000000000000000D+00 0.000000000000000D+00 0.111924835061824D+03
 0.111924835061824D+03 0.000000000000000D+00 0.000000000000000D+00 -.111924835061824D+03
 0.132380045115453D+03 -.232125448408256D+02 -.251706470493744D+02 -.269646552712593D+02
 0.914696250081955D+02 0.232125448408256D+02 0.251706470493744D+02 0.269646552712593D+02
 0.000000000000000D+00 0.000000000000000D+00 -.000000000000000D+00 -.000000000000000D+00
 0.182504403263967D+03 0.000000000000000D+00 0.000000000000000D+00 0.182504403263967D+03
 0.368312139575229D+03 0.000000000000000D+00 0.000000000000000D+00 -.368312139575229D+03
 0.168827796406478D+03 -.958700287439949D+02 0.544028472985999D+02 -.269646552712593D+02
 0.120726891042151D+03 -.279735891965053D+02 0.812290092263853D+02 0.269646552712593D+02
 0.261261855390568D+03 0.123843617940500D+03 -.135631856524985D+03 -.185807736311262D+03
0.471974121965D-03 0.000000000000D+00 0.000000000000D+00 0.281577690828D-02 0.000000000000D+00  5 -1 2 25 24 21 0 0.16751505D-01 0.17699963D-01 0.11773283D+05 0.11773283D+05 0.11773283D+05 0.12599961D+01  1  2  2  1  5  1       -1 0.429440583648D+00 0.100000000000D+01
-.261900810615D-04 0.000000000000D+00 -.181250490199D-05 0.281577690828D-02 0.000000000000D+00  5 -1 2 25 24 21 2 0.16751505D-01 0.17699963D-01 0.11773283D+05 0.11773283D+05 0.11773283D+05 0.12599961D+01  1  2  3  1  5  1       -1 -.378320732344D-01 0.100000000000D+01
0.325584452194D-04 0.000000000000D+00 0.000000000000D+00 0.281577690828D-02 0.000000000000D+00  5 -1 2 25 24 21 2 0.16751505D-01 0.17699963D-01 0.11773283D+05 0.11773283D+05 0.11773283D+05 0.12599961D+01  1  2 15  1  5  1       -1 0.470312971177D-01 0.100000000000D+01
  </mgrwgt>
  </event>
  <event>
  4     66 0.45252658E-03 0.10516144E+03 0.75467711E-02 0.11413329E+00
       -1 -1    0    0    0  501 0.00000000E+00 0.00000000E+00 0.72661522E+02 0.72662226E+02 0.32000000E+00 0.0000E+00 0.9000E+01
        2 -1    0    0  501    0 0.00000000E+00 0.00000000E+00 -.23653297E+03 0.23653319E+03 0.32000000E+00 0.0000E+00 0.9000E+01
       25  1    1    2    0    0 -.29273882E+01 0.21868192E+02 -.18388184E+03 0.22343750E+03 0.12500000E+03 0.0000E+00 0.9000E+01
       24  1    1    2    0    0 0.29273882E+01 -.21868192E+02 0.20010389E+02 0.85757910E+02 0.80419002E+02 0.0000E+00 0.9000E+01
#aMCatNLO 1  0  0  1  2 0.15782668D+03 0.00000000D+00  -5  5  0 0.00000000D+00 0.00000000D+00 0.00000000D+00 0.00000000D+00 0.00000000D+00
  <mgrwgt>
 0.3946396527D+00    3    2    0
 0.131099152608324D+03 0.000000000000000D+00 0.000000000000000D+00 0.131099152608324D+03
 0.131099152608324D+03 0.000000000000000D+00 0.000000000000000D+00 -.131099152608324D+03
 0.148562621790672D+03 -.292738821751483D+01 0.218681917755664D+02 -.771949815726984D+02
 0.113635683425977D+03 0.292738821751483D+01 -.218681917755664D+02 0.771949815726984D+02
 0.000000000000000D+00 -.000000000000000D+00 -.000000000000000D+00 -.000000000000000D+00
 0.213444868777727D+03 0.000000000000000D+00 0.000000000000000D+00 0.213444868777727D+03
 0.256071593851529D+03 0.000000000000000D+00 0.000000000000000D+00 -.256071593851529D+03
 0.176358041456133D+03 0.816085700039856D+02 0.534615273644380D+02 -.771949815726984D+02
 0.129676618796851D+03 0.662309602647700D+02 0.179003648302780D+01 0.771949815726984D+02
 0.163481802376272D+03 -.147839530268756D+03 -.552515638474658D+02 -.426267250738019D+02
0.499338051897D-03 0.000000000000D+00 0.000000000000D+00 0.180468859393D-02 0.000000000000D+00  5 -1 2 25 24 21 0 0.11178766D-01 0.36389758D-01 0.11058929D+05 0.11058929D+05 0.11058929D+05 0.12632023D+01  1  2  2  1  5  1       -1 0.384885305343D+00 0.100000000000D+01
-.261017260163D-04 0.000000000000D+00 -.191758959801D-05 0.180468859393D-02 0.000000000000D+00  5 -1 2 25 24 21 2 0.11178766D-01 0.36389758D-01 0.11058929D+05 0.11058929D+05 0.11058929D+05 0.12632023D+01  1  2  3  1  5  1       -1 -.321034505409D-01 0.100000000000D+01
0.340325028906D-04 0.000000000000D+00 0.000000000000D+00 0.180468859393D-02 0.000000000000D+00  5 -1 2 25 24 21 2 0.11178766D-01 0.36389758D-01 0.11058929D+05 0.11058929D+05 0.11058929D+05 0.12632023D+01  1  2 15  1  5  1       -1 0.418577979346D-01 0.100000000000D+01
  </mgrwgt>
  </event>
  <event>
  4     66 0.45252658E-03 0.72054666E+02 0.75467711E-02 0.12087708E+00
       -1 -1    0    0    0  501 0.00000000E+00 0.00000000E+00 0.40426918E+03 0.40426931E+03 0.32000000E+00 0.0000E+00 0.9000E+01
        2 -1    0    0  501    0 0.00000000E+00 0.00000000E+00 -.38885873E+02 0.38887189E+02 0.32000000E+00 0.0000E+00 0.9000E+01
       25  1    1    2    0    0 -.54512170E+02 0.84947571E+01 0.13097440E+03 0.18926973E+03 0.12500000E+03 0.0000E+00 0.9000E+01
       24  1    1    2    0    0 0.54512170E+02 -.84947571E+01 0.23440891E+03 0.25388677E+03 0.80419002E+02 0.0000E+00 0.9000E+01
#aMCatNLO 1  0  0  1  2 0.47869051D+02 0.00000000D+00  -5  5  0 0.00000000D+00 0.00000000D+00 0.00000000D+00 0.00000000D+00 0.00000000D+00
  <mgrwgt>
 0.3565314939D+00    9    2    0
 0.125382134479258D+03 0.000000000000000D+00 0.000000000000000D+00 0.125382134479258D+03
 0.125382134479258D+03 0.000000000000000D+00 0.000000000000000D+00 -.125382134479258D+03
 0.143641881140263D+03 -.545121697400078D+02 0.849475707808782D+01 -.443198879729451D+02
 0.107122387818252D+03 0.545121697400078D+02 -.849475707808782D+01 0.443198879729451D+02
 0.000000000000000D+00 0.000000000000000D+00 0.000000000000000D+00 0.000000000000000D+00
 0.156161838887067D+03 0.000000000000000D+00 0.000000000000000D+00 0.156161838887067D+03
 0.147735505369123D+03 0.000000000000000D+00 0.000000000000000D+00 -.147735505369123D+03
 0.145951475317564D+03 -.579982279978151D+02 -.186758193007032D+02 -.443198879729451D+02
 0.109340836820745D+03 0.519064351990144D+02 -.288040302264508D+02 0.443198879729451D+02
 0.486050321178818D+02 0.609179279880076D+01 0.474798495271540D+02 0.842633351794359D+01
0.666044747714D-03 0.000000000000D+00 0.000000000000D+00 0.239507295375D-02 0.000000000000D+00  5 -1 2 25 24 21 0 0.62195370D-01 0.59825529D-02 0.13707458D+05 0.13707458D+05 0.13707458D+05 0.12523087D+01  1  2  2  1  5  1       -1 0.242991301866D+00 0.100000000000D+01
-.367912694591D-04 0.000000000000D+00 -.255778720483D-05 0.239507295375D-02 0.000000000000D+00  5 -1 2 25 24 21 2 0.62195370D-01 0.59825529D-02 0.13707458D+05 0.13707458D+05 0.13707458D+05 0.12523087D+01  1  2  3  1  5  1       -1 -.210501359209D-01 0.100000000000D+01
0.459792759219D-04 0.000000000000D+00 0.000000000000D+00 0.239507295375D-02 0.000000000000D+00  5 -1 2 25 24 21 2 0.62195370D-01 0.59825529D-02 0.13707458D+05 0.13707458D+05 0.13707458D+05 0.12523087D+01  1  2 15  1  5  1       -1 0.263070565906D-01 0.100000000000D+01
0.268609547399D-03 0.000000000000D+00 0.000000000000D+00 0.239507295375D-02 0.000000000000D+00  5 -1 2 25 24 21 2 0.81858065D-01 0.59825529D-02 0.20575679D+05 0.20575679D+05 0.20575679D+05 0.12324716D+01  1  2 12  1  5  1       -1 0.872658950872D-01 0.100000000000D+01
-.303813402250D-03 0.000000000000D+00 0.000000000000D+00 0.239507295375D-02 0.000000000000D+00  5 -1 2 25 24 21 2 0.62195370D-01 0.59825529D-02 0.13707458D+05 0.13707458D+05 0.13707458D+05 0.12523087D+01  1  2  4  1  5  1       -1 -.173826929757D+00 0.100000000000D+01
-.605439910640D-03 0.000000000000D+00 -.259921122152D-03 0.239507295375D-02 0.000000000000D+00  5 -1 2 25 24 21 2 0.88891924D-01 0.59825529D-02 0.13707458D+05 0.13707458D+05 0.13707458D+05 0.12523087D+01  1  2  5  1  5  1       -1 -.169537013211D+00 0.100000000000D+01
0.670772253883D-03 0.000000000000D+00 0.244182231341D-03 0.239507295375D-02 0.000000000000D+00  5 -1 2 25 24 21 2 0.62195370D-01 0.59825529D-02 0.13707458D+05 0.13707458D+05 0.13707458D+05 0.12523087D+01  1  2  6  1  5  1       -1 0.383782547430D+00 0.100000000000D+01
0.974065147316D-05 0.000000000000D+00 0.000000000000D+00 0.239507295375D-02 0.000000000000D+00  5 21 2 25 24 1 2 0.81858065D-01 0.59825529D-02 0.20575679D+05 0.20575679D+05 0.20575679D+05 0.12324716D+01  1  2 12  3  5  1       -1 0.288908639861D-01 0.100000000000D+01
-.189692208538D-04 0.000000000000D+00 -.113931895778D-04 0.239507295375D-02 0.000000000000D+00  5 21 2 25 24 1 2 0.88891924D-01 0.59825529D-02 0.13707458D+05 0.13707458D+05 0.13707458D+05 0.12523087D+01  1  2  5  3  5  1       -1 -.482920921932D-01 0.100000000000D+01
  </mgrwgt>
  </event>
  <event>
  5     66 0.45252658E-03 0.23474815E+03 0.75467711E-02 0.11171615E+00
       -1 -1    0    0    0  501 0.00000000E+00 0.00000000E+00 0.22639051E+02 0.22641312E+02 0.32000000E+00 0.0000E+00 0.9000E+01
        2 -1    0    0  502    0 0.00000000E+00 0.00000000E+00 -.27814681E+04 0.27814682E+04 0.32000000E+00 0.0000E+00 0.9000E+01
       25  1    1    2    0    0 0.20131985E+03 -.29329598E+02 -.10685745E+04 0.10949275E+04 0.12500000E+03 0.0000E+00 0.9000E+01
       24  1    1    2    0    0 -.21215436E+03 0.43856331E+02 -.16286654E+04 0.16449775E+04 0.80419002E+02 0.0000E+00 0.9000E+01
       21  1    1    2  502  501 0.10834511E+02 -.14526733E+02 -.61589270E+02 0.64204464E+02 0.75000000E+00 0.0000E+00 0.9000E+01
#aMCatNLO 2  0  0  2  2 0.18122158D+02 0.00000000D+00  -5  5  0 0.00000000D+00 0.00000000D+00 0.00000000D+00 0.00000000D+00 0.00000000D+00
  <mgrwgt>
 0.3029487462D+00    2    2    0
 0.240649324202897D+03 0.000000000000000D+00 0.000000000000000D+00 0.240649324202897D+03
 0.240649324202897D+03 0.000000000000000D+00 0.000000000000000D+00 -.240649324202897D+03
 0.250162943320635D+03 0.206886367643663D+03 -.367930974882816D+02 0.529225573009474D+02
 0.231135705085159D+03 -.206886367643663D+03 0.367930974882816D+02 -.529225573009474D+02
 0.000000000000000D+00 0.000000000000000D+00 -.000000000000000D+00 0.000000000000000D+00
 0.255573979773592D+03 0.000000000000000D+00 0.000000000000000D+00 0.255573979773592D+03
 0.246384607830145D+03 0.000000000000000D+00 0.000000000000000D+00 -.246384607830145D+03
 0.244572490425089D+03 0.201319846657237D+03 -.293295984180619D+02 0.529225573009474D+02
 0.237067210548987D+03 -.212154357720805D+03 0.438563312636607D+02 -.529225573009474D+02
 0.203188866296599D+02 0.108345110635672D+02 -.145267328455988D+02 0.918937194344713D+01
-.135805224934D-03 0.000000000000D+00 0.000000000000D+00 0.197873206305D-02 0.000000000000D+00  5 -1 2 25 24 21 2 0.32796135D-02 0.41794575D+00 0.55106692D+05 0.55106692D+05 0.55106692D+05 0.11881216D+01  1  2  8  2  5  2        2 -.220353966526D-01 0.100000000000D+01
0.239933377266D-02 0.000000000000D+00 0.000000000000D+00 0.197873206305D-02 0.451653766964D-04  5 -1 2 25 24 21 2 0.34830095D-02 0.42790646D+00 0.59532253D+05 0.59532253D+05 0.59532253D+05 0.11848487D+01  1  2  1  2  5  2        2 0.324984142818D+00 0.100000000000D+01
  </mgrwgt>
  </event>
  <event>
  4     66 0.45252658E-03 0.10630458E+03 0.75467711E-02 0.11939836E+00
       -1 -1    0    0    0  501 0.00000000E+00 0.00000000E+00 0.49788456E+01 0.49891185E+01 0.32000000E+00 0.0000E+00 0.9000E+01
        2 -1    0    0  501    0 0.00000000E+00 0.00000000E+00 -.23485533E+04 0.23485533E+04 0.32000000E+00 0.0000E+00 0.9000E+01
       25  1    1    2    0    0 0.25886217E+02 -.69489619E+01 -.11865916E+04 0.11934585E+04 0.12500000E+03 0.0000E+00 0.9000E+01
       24  1    1    2    0    0 -.25886217E+02 0.69489619E+01 -.11569828E+04 0.11600840E+04 0.80419002E+02 0.0000E+00 0.9000E+01
#aMCatNLO 1  0  0  2  2 0.82752794D+02 0.00000000D+00  -5  5  0 0.00000000D+00 0.00000000D+00 0.00000000D+00 0.00000000D+00 0.00000000D+00
  <mgrwgt>
 0.4935967527D+00    3    2    0
 0.108190567080737D+03 0.000000000000000D+00 0.000000000000000D+00 0.108190567080737D+03
 0.108190567080737D+03 0.000000000000000D+00 0.000000000000000D+00 -.108190567080737D+03
 0.129351802049575D+03 0.258862169927874D+02 -.694896186890821D+01 0.197105147629205D+02
 0.870293321118981D+02 -.258862169927874D+02 0.694896186890821D+01 -.197105147629205D+02
 0.000000000000000D+00 -.000000000000000D+00 0.000000000000000D+00 0.000000000000000D+00
 0.236072104704250D+03 0.000000000000000D+00 0.000000000000000D+00 0.236072104704250D+03
 0.130070967267521D+03 0.000000000000000D+00 0.000000000000000D+00 -.130070967267521D+03
 0.144409501156282D+03 0.433927809431281D+02 -.543844297019707D+02 0.197105147629205D+02
 0.872558179803999D+02 -.147409817460395D+02 -.232499652043129D+02 -.197105147629205D+02
 0.134477752835089D+03 -.286517991970887D+02 0.776343949062836D+02 0.106001137436729D+03
0.325963956318D-03 0.000000000000D+00 0.000000000000D+00 0.297817842449D-02 0.000000000000D+00  5 -1 2 25 24 21 0 0.76676815D-03 0.36131668D+00 0.11300664D+05 0.11300664D+05 0.11300664D+05 0.12620919D+01  1  2  2  2  5  2        2 0.483230406412D+00 0.100000000000D+01
-.181022993926D-04 0.000000000000D+00 -.125178742054D-05 0.297817842449D-02 0.000000000000D+00  5 -1 2 25 24 21 2 0.76676815D-03 0.36131668D+00 0.11300664D+05 0.11300664D+05 0.11300664D+05 0.12620919D+01  1  2  3  2  5  2        2 -.427464793570D-01 0.100000000000D+01
0.224922446356D-04 0.000000000000D+00 0.000000000000D+00 0.297817842449D-02 0.000000000000D+00  5 -1 2 25 24 21 2 0.76676815D-03 0.36131668D+00 0.11300664D+05 0.11300664D+05 0.11300664D+05 0.12620919D+01  1  2 15  2  5  2        2 0.531128256225D-01 0.100000000000D+01
  </mgrwgt>
  </event>
  <event>
  4     66 0.45252658E-03 0.14186557E+03 0.75467711E-02 0.12019334E+00
       -1 -1    0    0    0  501 0.00000000E+00 0.00000000E+00 0.11577690E+02 0.11582112E+02 0.32000000E+00 0.0000E+00 0.9000E+01
        2 -1    0    0  501    0 0.00000000E+00 0.00000000E+00 -.18409050E+04 0.18409051E+04 0.32000000E+00 0.0000E+00 0.9000E+01
       25  1    1    2    0    0 0.64100516E+02 -.72327703E+02 -.12305529E+04 0.12406553E+04 0.12500000E+03 0.0000E+00 0.9000E+01
       24  1    1    2    0    0 -.64100516E+02 0.72327703E+02 -.59877447E+03 0.61183189E+03 0.80419002E+02 0.0000E+00 0.9000E+01
#aMCatNLO 1  0  0  1  1 0.13634966D+02 0.00000000D+00  -5  5  0 0.00000000D+00 0.00000000D+00 0.00000000D+00 0.00000000D+00 0.00000000D+00
  <mgrwgt>
 0.2333976853D+00    4    2    0
 0.146005307691267D+03 0.000000000000000D+00 0.000000000000000D+00 0.146005307691267D+03
 0.146005307691267D+03 0.000000000000000D+00 0.000000000000000D+00 -.146005307691267D+03
 0.161685874703587D+03 0.641005164897549D+02 -.723277027864615D+02 -.343096090628280D+02
 0.130324740678947D+03 -.641005164897549D+02 0.723277027864615D+02 0.343096090628280D+02
 0.000000000000000D+00 -.000000000000000D+00 0.000000000000000D+00 -.000000000000000D+00
 0.149221283144184D+03 0.000000000000000D+00 0.000000000000000D+00 0.149221283144184D+03
 0.161368721602530D+03 0.000000000000000D+00 0.000000000000000D+00 -.161368721602530D+03
 0.165751684931442D+03 0.655693934315913D+02 -.798256000828127D+02 -.343096090628280D+02
 0.126577088545406D+03 -.629480611218251D+02 0.664449826339049D+02 0.343096090628280D+02
 0.182612312698662D+02 -.262133230976622D+01 0.133806174489078D+02 -.121474384583458D+02
0.451999898669D-03 0.000000000000D+00 0.000000000000D+00 0.232049750438D-02 0.000000000000D+00  5 -1 2 25 24 21 0 0.17815254D-02 0.28321650D+00 0.20125841D+05 0.20125841D+05 0.20125841D+05 0.12335263D+01  1  2  2  1  5  1       -1 0.370562761402D+00 0.100000000000D+01
-.250858464700D-04 0.000000000000D+00 -.173579862519D-05 0.232049750438D-02 0.000000000000D+00  5 -1 2 25 24 21 2 0.17815254D-02 0.28321650D+00 0.20125841D+05 0.20125841D+05 0.20125841D+05 0.12335263D+01  1  2  3  1  5  1       -1 -.312931295827D-01 0.100000000000D+01
0.311937409752D-04 0.000000000000D+00 0.000000000000D+00 0.232049750438D-02 0.000000000000D+00  5 -1 2 25 24 21 2 0.17815254D-02 0.28321650D+00 0.20125841D+05 0.20125841D+05 0.20125841D+05 0.12335263D+01  1  2 15  1  5  1       -1 0.389123715507D-01 0.100000000000D+01
-.116065002833D-03 0.000000000000D+00 0.000000000000D+00 0.232049750438D-02 0.000000000000D+00  5 -1 2 25 24 21 2 0.17815254D-02 0.28321650D+00 0.20125841D+05 0.20125841D+05 0.20125841D+05 0.12335263D+01  1  2  4  1  5  1       -1 -.144784318042D+00 0.100000000000D+01
  </mgrwgt>
  </event>
  <event>
  5     66 0.45252658E-03 0.24934777E+03 0.75467711E-02 0.10589530E+00
       21 -1    0    0  502  501 0.00000000E+00 0.00000000E+00 0.63462796E+02 0.63467228E+02 0.75000000E+00 0.0000E+00 0.9000E+01
        2 -1    0    0  501    0 0.00000000E+00 0.00000000E+00 -.22171918E+04 0.22171918E+04 0.32000000E+00 0.0000E+00 0.9000E+01
       25  1    1    2    0    0 0.26963384E+03 0.14200774E+03 -.68470798E+03 0.75981486E+03 0.12500000E+03 0.0000E+00 0.9000E+01
       24  1    1    2    0    0 -.84782552E+02 -.16530887E+03 -.64503141E+03 0.67605313E+03 0.80419002E+02 0.0000E+00 0.9000E+01
        1  1    1    2  502    0 -.18485129E+03 0.23301122E+02 -.82398959E+03 0.84479103E+03 0.32000000E+00 0.0000E+00 0.9000E+01
#aMCatNLO 2  0  0  1  2 0.18631409D+03 0.00000000D+00  -5  5  0 0.00000000D+00 0.00000000D+00 0.00000000D+00 0.00000000D+00 0.00000000D+00
  <mgrwgt>
 0.6276646492D-01    1    2    0
 0.254360528339112D+03 0.000000000000000D+00 0.000000000000000D+00 0.254360528339112D+03
 0.254360528339112D+03 0.000000000000000D+00 0.000000000000000D+00 -.254360528339112D+03
 0.263361319563901D+03 0.164660407588675D+03 0.155239996129890D+03 0.502163162404629D+02
 0.245359737114323D+03 -.164660407588675D+03 -.155239996129890D+03 -.502163162404629D+02
 0.000000000000000D+00 -.000000000000000D+00 0.000000000000000D+00 -.000000000000000D+00
 0.323976370178522D+03 0.000000000000000D+00 0.000000000000000D+00 0.323976370178522D+03
 0.434334686522821D+03 0.000000000000000D+00 0.000000000000000D+00 -.434334686522821D+03
 0.333189564535335D+03 0.269633840785023D+03 0.142007744162073D+03 0.502163162404629D+02
 0.208576117882093D+03 -.847825523712707D+02 -.165308866649810D+03 -.502163162404629D+02
 0.216545374283915D+03 -.184851288413752D+03 0.233011224877371D+02 -.110358316344299D+03
0.799557061903D-04 0.000000000000D+00 0.000000000000D+00 0.197814804010D-02 0.222308213036D-07  5 21 2 25 24 1 2 0.97638465D-02 0.34110665D+00 0.12893079D+06 0.12893079D+06 0.12893079D+06 0.11535682D+01  1  2  1  3  5  1       -1 0.627664649216D-01 0.100000000000D+01
  </mgrwgt>
  </event>
  <event>
  4     66 -.45252658E-03 0.62397849E+02 0.75467711E-02 0.12569168E+00
       -1 -1    0    0    0  501 0.00000000E+00 0.00000000E+00 0.22381677E+02 0.22383965E+02 0.32000000E+00 0.0000E+00 0.9000E+01
        2 -1    0    0  501    0 0.00000000E+00 0.00000000E+00 -.56974156E+03 0.56974165E+03 0.32000000E+00 0.0000E+00 0.9000E+01
       25  1    1    2    0    0 0.37448797E+02 0.19254531E+02 -.27417081E+03 0.30424954E+03 0.12500000E+03 0.0000E+00 0.9000E+01
       24  1    1    2    0    0 -.37448797E+02 -.19254531E+02 -.27318907E+03 0.28787607E+03 0.80419002E+02 0.0000E+00 0.9000E+01
#aMCatNLO 1  0  0  1  2 0.13104269D+01 0.00000000D+00  -5  5  0 0.00000000D+00 0.00000000D+00 0.00000000D+00 0.00000000D+00 0.00000000D+00
  <mgrwgt>
 -.3461612228D+00   11    2    0
 0.112926859715302D+03 0.000000000000000D+00 0.000000000000000D+00 0.112926859715302D+03
 0.112926859715302D+03 0.000000000000000D+00 0.000000000000000D+00 -.112926859715302D+03
 0.133200566229228D+03 0.374487970275970D+02 0.192545310076748D+02 0.185537457309122D+02
 0.926531532013754D+02 -.374487970275970D+02 -.192545310076748D+02 -.185537457309122D+02
 0.000000000000000D+00 -.000000000000000D+00 0.000000000000000D+00 0.000000000000000D+00
 0.113614212339414D+03 0.000000000000000D+00 0.000000000000000D+00 0.113614212339414D+03
 0.113555069547655D+03 0.000000000000000D+00 0.000000000000000D+00 -.113555069547655D+03
 0.133194902725719D+03 0.377797504780288D+02 0.185561603055249D+02 0.185537457309122D+02
 0.926626182899683D+02 -.372185720382792D+02 -.197403467235485D+02 -.185537457309122D+02
 0.131176087138184D+01 -.561178439749583D+00 0.118418641802359D+01 0.591427917596207D-01
0.111888673625D-03 0.000000000000D+00 0.000000000000D+00 0.286878523793D-02 0.000000000000D+00  5 -1 2 25 24 21 0 0.34435179D-02 0.87652731D-01 0.12396429D+05 0.12396429D+05 0.12396429D+05 0.12573732D+01  1  2  2  1  5  1       -1 0.195093793794D+00 0.100000000000D+01
-.621452236607D-05 0.000000000000D+00 -.429681967684D-06 0.286878523793D-02 0.000000000000D+00  5 -1 2 25 24 21 2 0.34435179D-02 0.87652731D-01 0.12396429D+05 0.12396429D+05 0.12396429D+05 0.12573732D+01  1  2  3  1  5  1       -1 -.171314237258D-01 0.100000000000D+01
0.773535233838D-05 0.000000000000D+00 0.000000000000D+00 0.286878523793D-02 0.000000000000D+00  5 -1 2 25 24 21 2 0.34435179D-02 0.87652731D-01 0.12396429D+05 0.12396429D+05 0.12396429D+05 0.12573732D+01  1  2 15  1  5  1       -1 0.213238589823D-01 0.100000000000D+01
0.196279363679D-08 0.000000000000D+00 0.000000000000D+00 0.286878523793D-02 0.000000000000D+00  5 -1 2 25 24 21 2 0.34740000D-02 0.87652731D-01 0.12543202D+05 0.12543202D+05 0.12543202D+05 0.12567769D+01  1  2 12  1  5  1       -1 0.533945918303D-05 0.100000000000D+01
-.120771044801D-02 0.000000000000D+00 0.000000000000D+00 0.286878523793D-02 0.000000000000D+00  5 -1 2 25 24 21 2 0.34435179D-02 0.87652731D-01 0.12396429D+05 0.12396429D+05 0.12396429D+05 0.12573732D+01  1  2  4  1  5  1       -1 -.332926622582D+01 0.100000000000D+01
-.104246609059D-01 0.000000000000D+00 -.112956657027D-02 0.286878523793D-02 0.000000000000D+00  5 -1 2 25 24 21 2 0.34838975D-02 0.87652731D-01 0.12396429D+05 0.12396429D+05 0.12396429D+05 0.12573732D+01  1  2  5  1  5  1       -1 -.282543144788D+02 0.100000000000D+01
0.104371969378D-01 0.000000000000D+00 0.112948981483D-02 0.286878523793D-02 0.000000000000D+00  5 -1 2 25 24 21 2 0.34435179D-02 0.87652731D-01 0.12396429D+05 0.12396429D+05 0.12396429D+05 0.12573732D+01  1  2  6  1  5  1       -1 0.287719687399D+02 0.100000000000D+01
0.120775067092D-02 0.000000000000D+00 0.000000000000D+00 0.286878523793D-02 0.140735146258D-01  5 -1 2 25 24 21 2 0.34644775D-02 0.88140341D-01 0.12543202D+05 0.12543202D+05 0.12543202D+05 0.12567769D+01  1  2 11  1  5  1       -1 0.327826461776D+01 0.100000000000D+01
0.190972734127D-09 0.000000000000D+00 0.000000000000D+00 0.286878523793D-02 0.000000000000D+00  5 21 2 25 24 1 2 0.34740000D-02 0.87652731D-01 0.12543202D+05 0.12543202D+05 0.12543202D+05 0.12567769D+01  1  2 12  3  5  1       -1 0.981575055925D-05 0.100000000000D+01
-.223370394709D-04 0.000000000000D+00 -.242648261323D-05 0.286878523793D-02 0.000000000000D+00  5 21 2 25 24 1 2 0.34838975D-02 0.87652731D-01 0.12396429D+05 0.12396429D+05 0.12396429D+05 0.12573732D+01  1  2  5  3  5  1       -1 -.114344982964D+01 0.100000000000D+01
0.255950532441D-05 0.000000000000D+00 0.000000000000D+00 0.286878523793D-02 0.159144109498D-04  5 21 2 25 24 1 2 0.34644775D-02 0.88140341D-01 0.12543202D+05 0.12543202D+05 0.12543202D+05 0.12567769D+01  1  2 11  3  5  1       -1 0.131334569496D+00 0.100000000000D+01
  </mgrwgt>
  </event>
  <event>
  4     66 0.45252658E-03 0.67481839E+02 0.75467711E-02 0.12154872E+00
       -1 -1    0    0    0  501 0.00000000E+00 0.00000000E+00 0.10740337E+02 0.10745103E+02 0.32000000E+00 0.0000E+00 0.9000E+01
        2 -1    0    0  501    0 0.00000000E+00 0.00000000E+00 -.16853727E+04 0.16853727E+04 0.32000000E+00 0.0000E+00 0.9000E+01
       25  1    1    2    0    0 0.59983621E+02 0.59218158E+02 -.84472347E+03 0.85807201E+03 0.12500000E+03 0.0000E+00 0.9000E+01
       24  1    1    2    0    0 -.59983621E+02 -.59218158E+02 -.82990887E+03 0.83804581E+03 0.80419002E+02 0.0000E+00 0.9000E+01
#aMCatNLO 1  0  0  2  1 0.93890686D+01 0.00000000D+00  -5  5  0 0.00000000D+00 0.00000000D+00 0.00000000D+00 0.00000000D+00 0.00000000D+00
  <mgrwgt>
 0.7263054044D+00   11    2    0
 0.134556824539415D+03 0.000000000000000D+00 0.000000000000000D+00 0.134556824539415D+03
 0.134556824539415D+03 0.000000000000000D+00 0.000000000000000D+00 -.134556824539415D+03
 0.151571539469290D+03 0.599836214239650D+02 0.592181583876499D+02 0.156239065259697D+02
 0.117542109609540D+03 -.599836214239650D+02 -.592181583876499D+02 -.156239065259697D+02
 0.000000000000000D+00 0.000000000000000D+00 -.000000000000000D+00 -.000000000000000D+00
 0.137156657330183D+03 0.000000000000000D+00 0.000000000000000D+00 0.137156657330183D+03
 0.143391260848629D+03 0.000000000000000D+00 0.000000000000000D+00 -.143391260848629D+03
 0.151941541843994D+03 0.566374342097695D+02 0.633192445385434D+02 0.156239065259697D+02
 0.117335844377167D+03 -.625731164240683D+02 -.560444740110915D+02 -.156239065259697D+02
 0.112705319576514D+02 0.593568221429881D+01 -.727477052745190D+01 -.623460351844565D+01
0.243336920637D-03 0.000000000000D+00 0.000000000000D+00 0.253114331459D-02 0.000000000000D+00  5 -1 2 25 24 21 0 0.16527286D-02 0.25928847D+00 0.17857410D+05 0.17857410D+05 0.17857410D+05 0.12392809D+01  1  2  2  2  5  2        2 0.266376764407D+00 0.100000000000D+01
-.135179353291D-04 0.000000000000D+00 -.934477847327D-06 0.253114331459D-02 0.000000000000D+00  5 -1 2 25 24 21 2 0.16527286D-02 0.25928847D+00 0.17857410D+05 0.17857410D+05 0.17857410D+05 0.12392809D+01  1  2  3  2  5  2        2 -.227267947744D-01 0.100000000000D+01
0.168103522796D-04 0.000000000000D+00 0.000000000000D+00 0.253114331459D-02 0.000000000000D+00  5 -1 2 25 24 21 2 0.16527286D-02 0.25928847D+00 0.17857410D+05 0.17857410D+05 0.17857410D+05 0.12392809D+01  1  2 15  2  5  2        2 0.282621137801D-01 0.100000000000D+01
0.936719486860D-03 0.000000000000D+00 0.000000000000D+00 0.253114331459D-02 0.000000000000D+00  5 -1 2 25 24 21 2 0.16527286D-02 0.27870581D+00 0.19156798D+05 0.19156798D+05 0.19156798D+05 0.12358909D+01  1  2 12  2  5  2        2 0.135164970277D+01 0.100000000000D+01
-.932391879718D-03 0.000000000000D+00 0.000000000000D+00 0.253114331459D-02 0.000000000000D+00  5 -1 2 25 24 21 2 0.16527286D-02 0.25928847D+00 0.17857410D+05 0.17857410D+05 0.17857410D+05 0.12392809D+01  1  2  4  2  5  2        2 -.156756770792D+01 0.100000000000D+01
-.277352284812D-02 0.000000000000D+00 -.413221817707D-03 0.253114331459D-02 0.000000000000D+00  5 -1 2 25 24 21 2 0.16527286D-02 0.27867299D+00 0.17857410D+05 0.17857410D+05 0.17857410D+05 0.12392809D+01  1  2  5  2  5  2        2 -.402032659034D+01 0.100000000000D+01
0.279711391083D-02 0.000000000000D+00 0.412150156766D-03 0.253114331459D-02 0.000000000000D+00  5 -1 2 25 24 21 2 0.16527286D-02 0.25928847D+00 0.17857410D+05 0.17857410D+05 0.17857410D+05 0.12392809D+01  1  2  6  2  5  2        2 0.470259934408D+01 0.100000000000D+01
0.222527892584D-07 0.000000000000D+00 0.000000000000D+00 0.253114331459D-02 0.234414445164D-03  5 -1 2 25 24 21 2 0.16846617D-02 0.27631227D+00 0.19156798D+05 0.19156798D+05 0.19156798D+05 0.12358909D+01  1  2 11  2  5  2        2 0.318155062035D-04 0.100000000000D+01
0.121867201103D-04 0.000000000000D+00 0.000000000000D+00 0.253114331459D-02 0.000000000000D+00  5 -1 21 25 24 -2 2 0.16527286D-02 0.27870581D+00 0.19156798D+05 0.19156798D+05 0.19156798D+05 0.12358909D+01  1  2 12  4  5  2        2 0.691045763400D-02 0.100000000000D+01
-.330230172544D-04 0.000000000000D+00 -.502951107595D-05 0.253114331459D-02 0.000000000000D+00  5 -1 21 25 24 -2 2 0.16527286D-02 0.27867299D+00 0.17857410D+05 0.17857410D+05 0.17857410D+05 0.12392809D+01  1  2  5  4  5  2        2 -.189038632857D-01 0.100000000000D+01
0.285666570478D-09 0.000000000000D+00 0.000000000000D+00 0.253114331459D-02 0.258318339049D-05  5 -1 21 25 24 -2 2 0.16846617D-02 0.27631227D+00 0.19156798D+05 0.19156798D+05 0.19156798D+05 0.12358909D+01  1  2 11  4  5  2        2 0.162578823705D-06 0.100000000000D+01
  </mgrwgt>
  </event>
  <event>
  5     66 0.45252658E-03 0.10920101E+03 0.75467711E-02 0.12158201E+00
       21 -1    0    0  502  501 0.00000000E+00 0.00000000E+00 0.55277476E+02 0.55282564E+02 0.75000000E+00 0.0000E+00 0.9000E+01
        2 -1    0    0  501    0 0.00000000E+00 0.00000000E+00 -.36929044E+03 0.36929058E+03 0.32000000E+00 0.0000E+00 0.9000E+01
       25  1    1    2    0    0 -.23113745E+02 -.16885269E+02 -.16502103E+03 0.20898875E+03 0.12500000E+03 0.0000E+00 0.9000E+01
       24  1    1    2    0    0 -.16331067E+02 0.50426856E+02 -.62625226E+02 0.11488562E+03 0.80419002E+02 0.0000E+00 0.9000E+01
        1  1    1    2  502    0 0.39444812E+02 -.33541587E+02 -.86366710E+02 0.10069877E+03 0.32000000E+00 0.0000E+00 0.9000E+01
#aMCatNLO 2  0  0  1  1 0.51777710D+02 0.00000000D+00  -5  5  0 0.00000000D+00 0.00000000D+00 0.00000000D+00 0.00000000D+00 0.00000000D+00
  <mgrwgt>
 0.1220657451D+00    1    2    0
 0.112239543749311D+03 0.000000000000000D+00 0.000000000000000D+00 0.112239543749311D+03
 0.112239543749311D+03 0.000000000000000D+00 0.000000000000000D+00 -.112239543749311D+03
 0.132637399397414D+03 -.273380716792991D+00 -.363073938863603D+02 -.254828987965154D+02
 0.918416881012082D+02 0.273380716792991D+00 0.363073938863603D+02 0.254828987965154D+02
 0.000000000000000D+00 0.000000000000000D+00 -.000000000000000D+00 -.000000000000000D+00
 0.132341847634509D+03 0.000000000000000D+00 0.000000000000000D+00 0.132341847634509D+03
 0.154255207068474D+03 0.000000000000000D+00 0.000000000000000D+00 -.154255207068474D+03
 0.130743013690950D+03 -.231137445326372D+02 -.168852690709505D+02 -.254828987965154D+02
 0.996301443720422D+02 -.163310670585554D+02 0.504268562462400D+02 0.254828987965154D+02
 0.562238966399909D+02 0.394448115911927D+02 -.335415871752895D+02 -.219133594339652D+02
0.688231157912D-05 0.000000000000D+00 0.000000000000D+00 0.282428249728D-02 0.300216006225D-06  5 21 2 25 24 1 2 0.85046013D-02 0.56814129D-01 0.19089477D+05 0.19089477D+05 0.19089477D+05 0.12360601D+01  1  2  1  3  5  1       -1 0.122065745066D+00 0.100000000000D+01
  </mgrwgt>
  </event>
  <event>
  4     66 0.45252658E-03 0.15106837E+03 0.75467711E-02 0.11921615E+00
       -1 -1    0    0    0  501 0.00000000E+00 0.00000000E+00 0.43829121E+02 0.43830289E+02 0.32000000E+00 0.0000E+00 0.9000E+01
        2 -1    0    0  501    0 0.00000000E+00 0.00000000E+00 -.52841084E+03 0.52841094E+03 0.32000000E+00 0.0000E+00 0.9000E+01
       25  1    1    2    0    0 -.10414297E+03 -.34050861E+02 -.30066023E+03 0.34355028E+03 0.12500000E+03 0.0000E+00 0.9000E+01
       24  1    1    2    0    0 0.10414297E+03 0.34050861E+02 -.18392149E+03 0.22869095E+03 0.80419002E+02 0.0000E+00 0.9000E+01
#aMCatNLO 1  0  0  2  1 0.11593283D+02 0.00000000D+00  -5  5  0 0.00000000D+00 0.00000000D+00 0.00000000D+00 0.00000000D+00 0.00000000D+00
  <mgrwgt>
 0.4307753938D+00    4    2    0
 0.152184573603373D+03 0.000000000000000D+00 0.000000000000000D+00 0.152184573603373D+03
 0.152184573603373D+03 0.000000000000000D+00 0.000000000000000D+00 -.152184573603373D+03
 0.167228450635051D+03 -.104142970648248D+03 -.340508609859684D+02 -.183066991145853D+02
 0.137140696571696D+03 0.104142970648248D+03 0.340508609859684D+02 0.183066991145853D+02
 0.000000000000000D+00 0.000000000000000D+00 0.000000000000000D+00 0.000000000000000D+00
 0.224354483521630D+03 0.000000000000000D+00 0.000000000000000D+00 0.224354483521630D+03
 0.152761224926703D+03 0.000000000000000D+00 0.000000000000000D+00 -.152761224926703D+03
 0.171415988360595D+03 -.109662439489625D+03 -.373825520577693D+02 -.183066991145853D+02
 0.133173870278355D+03 0.997371908470967D+02 0.313914208025622D+02 0.183066991145853D+02
 0.725258498093828D+02 0.992524864252858D+01 0.599113125520701D+01 0.715932585949265D+02
0.609469143827D-03 0.000000000000D+00 0.000000000000D+00 0.236050548312D-02 0.000000000000D+00  5 -1 2 25 24 21 0 0.67430390D-02 0.81294073D-01 0.22821652D+05 0.22821652D+05 0.22821652D+05 0.12275654D+01  1  2  2  2  5  2        2 0.437844045280D+00 0.100000000000D+01
-.338571658702D-04 0.000000000000D+00 -.234052198921D-05 0.236050548312D-02 0.000000000000D+00  5 -1 2 25 24 21 2 0.67430390D-02 0.81294073D-01 0.22821652D+05 0.22821652D+05 0.22821652D+05 0.12275654D+01  1  2  3  2  5  2        2 -.366528376561D-01 0.100000000000D+01
0.421137577025D-04 0.000000000000D+00 0.000000000000D+00 0.236050548312D-02 0.000000000000D+00  5 -1 2 25 24 21 2 0.67430390D-02 0.81294073D-01 0.22821652D+05 0.22821652D+05 0.22821652D+05 0.12275654D+01  1  2 15  2  5  2        2 0.455911971510D-01 0.100000000000D+01
-.147860864156D-04 0.000000000000D+00 0.000000000000D+00 0.236050548312D-02 0.000000000000D+00  5 -1 2 25 24 21 2 0.67430390D-02 0.81294073D-01 0.22821652D+05 0.22821652D+05 0.22821652D+05 0.12275654D+01  1  2  4  2  5  2        2 -.160070109541D-01 0.100000000000D+01
  </mgrwgt>
  </event>
  <event>
  4     66 0.45252658E-03 0.13348908E+03 0.75467711E-02 0.11156650E+00
       -1 -1    0    0    0  501 0.00000000E+00 0.00000000E+00 0.24385962E+03 0.24385983E+03 0.32000000E+00 0.0000E+00 0.9000E+01
        2 -1    0    0  501    0 0.00000000E+00 0.00000000E+00 -.96372894E+02 0.96373425E+02 0.32000000E+00 0.0000E+00 0.9000E+01
       25  1    1    2    0    0 0.83882017E+02 0.55843025E+01 -.21962052E+01 0.15065590E+03 0.12500000E+03 0.0000E+00 0.9000E+01
       24  1    1    2    0    0 -.83882017E+02 -.55843025E+01 0.14968293E+03 0.18957735E+03 0.80419002E+02 0.0000E+00 0.9000E+01
#aMCatNLO 1  0  0  2  1 0.17804175D+03 0.00000000D+00  -5  5  0 0.00000000D+00 0.00000000D+00 0.00000000D+00 0.00000000D+00 0.00000000D+00
  <mgrwgt>
 0.3314153403D+00    3    2    0
 0.153302260499101D+03 0.000000000000000D+00 0.000000000000000D+00 0.153302260499101D+03
 0.153302260499101D+03 0.000000000000000D+00 0.000000000000000D+00 -.153302260499101D+03
 0.168236456537396D+03 0.838820168987755D+02 0.558430249254176D+01 -.749074636796926D+02
 0.138368064460806D+03 -.838820168987755D+02 -.558430249254176D+01 0.749074636796926D+02
 0.000000000000000D+00 -.000000000000000D+00 0.000000000000000D+00 0.000000000000000D+00
 0.295211119782382D+03 0.000000000000000D+00 0.000000000000000D+00 0.295211119782382D+03
 0.244469432938947D+03 0.000000000000000D+00 0.000000000000000D+00 -.244469432938947D+03
 0.240416794588277D+03 0.189562325227338D+03 -.251044191245683D+02 -.749074636796926D+02
 0.114132494401968D+03 -.185837797252112D+02 -.245463915931650D+02 0.749074636796926D+02
 0.185131263731084D+03 -.170978545502127D+03 0.496508107177333D+02 0.507416868434352D+02
0.107690664583D-02 0.000000000000D+00 0.000000000000D+00 0.186157943098D-02 0.000000000000D+00  5 -1 2 25 24 21 0 0.37516921D-01 0.14826656D-01 0.17819335D+05 0.17819335D+05 0.17819335D+05 0.12393843D+01  1  2  2  2  5  2        2 0.324049974347D+00 0.100000000000D+01
-.584349643770D-04 0.000000000000D+00 -.413560507604D-05 0.186157943098D-02 0.000000000000D+00  5 -1 2 25 24 21 2 0.37516921D-01 0.14826656D-01 0.17819335D+05 0.17819335D+05 0.17819335D+05 0.12393843D+01  1  2  3  2  5  2        2 -.270096357796D-01 0.100000000000D+01
0.743698292337D-04 0.000000000000D+00 0.000000000000D+00 0.186157943098D-02 0.000000000000D+00  5 -1 2 25 24 21 2 0.37516921D-01 0.14826656D-01 0.17819335D+05 0.17819335D+05 0.17819335D+05 0.12393843D+01  1  2 15  2  5  2        2 0.343750017136D-01 0.100000000000D+01
  </mgrwgt>
  </event>
  <event>
  4     66 0.45252658E-03 0.61577955E+02 0.75467711E-02 0.12241265E+00
       -1 -1    0    0    0  501 0.00000000E+00 0.00000000E+00 0.58552000E+01 0.58639378E+01 0.32000000E+00 0.0000E+00 0.9000E+01
        2 -1    0    0  501    0 0.00000000E+00 0.00000000E+00 -.28683935E+04 0.28683935E+04 0.32000000E+00 0.0000E+00 0.9000E+01
       25  1    1    2    0    0 0.11966751E+02 -.51195657E+02 -.98855186E+03 0.99780959E+03 0.12500000E+03 0.0000E+00 0.9000E+01
       24  1    1    2    0    0 -.11966751E+02 0.51195657E+02 -.18739864E+04 0.18764479E+04 0.80419002E+02 0.0000E+00 0.9000E+01
#aMCatNLO 1  0  0  2  1 0.30827115D+02 0.00000000D+00  -5  5  0 0.00000000D+00 0.00000000D+00 0.00000000D+00 0.00000000D+00 0.00000000D+00
  <mgrwgt>
 0.7434690481D+00    9    2    0
 0.129644130445845D+03 0.000000000000000D+00 0.000000000000000D+00 0.129644130445845D+03
 0.129644130445845D+03 0.000000000000000D+00 0.000000000000000D+00 -.129644130445845D+03
 0.147303595656757D+03 0.119667505857499D+02 -.511956566450127D+02 0.575252198128251D+02
 0.111984665234933D+03 -.119667505857499D+02 0.511956566450127D+02 -.575252198128251D+02
 0.000000000000000D+00 0.000000000000000D+00 0.000000000000000D+00 -.000000000000000D+00
 0.142431716055638D+03 0.000000000000000D+00 0.000000000000000D+00 0.142431716055638D+03
 0.150564520784955D+03 0.000000000000000D+00 0.000000000000000D+00 -.150564520784955D+03
 0.148588082782607D+03 -.492991494127270D+01 -.558566322755766D+02 0.575252198128251D+02
 0.112526285402039D+03 -.247872748400141D+02 0.476590919290567D+02 -.575252198128251D+02
 0.318818686559465D+02 0.297171897812868D+02 0.819754034651985D+01 -.813280472931642D+01
0.532392608579D-03 0.000000000000D+00 0.000000000000D+00 0.216872378109D-02 0.000000000000D+00  5 -1 2 25 24 21 0 0.90147351D-03 0.44129198D+00 0.13419720D+05 0.13419720D+05 0.13419720D+05 0.12533722D+01  1  2  2  2  5  2        2 0.330221664519D+00 0.100000000000D+01
-.291217972916D-04 0.000000000000D+00 -.204452779914D-05 0.216872378109D-02 0.000000000000D+00  5 -1 2 25 24 21 2 0.90147351D-03 0.44129198D+00 0.13419720D+05 0.13419720D+05 0.13419720D+05 0.12533722D+01  1  2  3  2  5  2        2 -.283760428862D-01 0.100000000000D+01
0.367675143004D-04 0.000000000000D+00 0.000000000000D+00 0.216872378109D-02 0.000000000000D+00  5 -1 2 25 24 21 2 0.90147351D-03 0.44129198D+00 0.13419720D+05 0.13419720D+05 0.13419720D+05 0.12533722D+01  1  2 15  2  5  2        2 0.358259674758D-01 0.100000000000D+01
0.428574663868D-03 0.000000000000D+00 0.000000000000D+00 0.216872378109D-02 0.000000000000D+00  5 -1 2 25 24 21 2 0.90147351D-03 0.53139618D+00 0.17495230D+05 0.17495230D+05 0.17495230D+05 0.12402752D+01  1  2 12  2  5  2        2 0.182486275529D+00 0.100000000000D+01
-.410852669188D-03 0.000000000000D+00 0.000000000000D+00 0.216872378109D-02 0.000000000000D+00  5 -1 2 25 24 21 2 0.90147351D-03 0.44129198D+00 0.13419720D+05 0.13419720D+05 0.13419720D+05 0.12533722D+01  1  2  4  2  5  2        2 -.400331505780D+00 0.100000000000D+01
-.113117902149D-02 0.000000000000D+00 -.295978870717D-03 0.216872378109D-02 0.000000000000D+00  5 -1 2 25 24 21 2 0.90147351D-03 0.52683166D+00 0.13419720D+05 0.13419720D+05 0.13419720D+05 0.12533722D+01  1  2  5  2  5  2        2 -.515521582758D+00 0.100000000000D+01
0.116979592108D-02 0.000000000000D+00 0.291393367617D-03 0.216872378109D-02 0.000000000000D+00  5 -1 2 25 24 21 2 0.90147351D-03 0.44129198D+00 0.13419720D+05 0.13419720D+05 0.13419720D+05 0.12533722D+01  1  2  6  2  5  2        2 0.113983964974D+01 0.100000000000D+01
0.115863616365D-04 0.000000000000D+00 0.000000000000D+00 0.216872378109D-02 0.000000000000D+00  5 -1 21 25 24 -2 2 0.90147351D-03 0.53139618D+00 0.17495230D+05 0.17495230D+05 0.17495230D+05 0.12402752D+01  1  2 12  4  5  2        2 0.415642946097D-03 0.100000000000D+01
-.267046656184D-04 0.000000000000D+00 -.770991833193D-05 0.216872378109D-02 0.000000000000D+00  5 -1 21 25 24 -2 2 0.90147351D-03 0.52683166D+00 0.13419720D+05 0.13419720D+05 0.13419720D+05 0.12533722D+01  1  2  5  4  5  2        2 -.109102065702D-02 0.100000000000D+01
  </mgrwgt>
  </event>
  <event>
  4     66 0.45252658E-03 0.13285681E+03 0.75467711E-02 0.10409432E+00
       -1 -1    0    0    0  501 0.00000000E+00 0.00000000E+00 0.10835438E+02 0.10840163E+02 0.32000000E+00 0.0000E+00 0.9000E+01
        2 -1    0    0  501    0 0.00000000E+00 0.00000000E+00 -.31040489E+04 0.31040489E+04 0.32000000E+00 0.0000E+00 0.9000E+01
       25  1    1    2    0    0 0.46438399E+02 0.68885813E+02 -.58285835E+03 0.60187260E+03 0.12500000E+03 0.0000E+00 0.9000E+01
       24  1    1    2    0    0 -.46438399E+02 -.68885813E+02 -.25103551E+04 0.25130165E+04 0.80419002E+02 0.0000E+00 0.9000E+01
#aMCatNLO 1  0  0  1  1 0.36653520D+03 0.00000000D+00  -5  5  0 0.00000000D+00 0.00000000D+00 0.00000000D+00 0.00000000D+00 0.00000000D+00
  <mgrwgt>
 0.3491028734D+00    5    2    0
 0.183415140034244D+03 0.000000000000000D+00 0.000000000000000D+00 0.183415140034244D+03
 0.183415140034244D+03 0.000000000000000D+00 0.000000000000000D+00 -.183415140034244D+03
 0.195897457529844D+03 0.464383989145823D+02 0.688858133412822D+02 0.125892945367154D+03
 0.170932822538644D+03 -.464383989145823D+02 -.688858133412822D+02 -.125892945367154D+03
 0.000000000000000D+00 0.000000000000000D+00 0.000000000000000D+00 0.000000000000000D+00
 0.151281176918186D+04 0.000000000000000D+00 0.000000000000000D+00 0.151281176918186D+04
 0.286077864931974D+03 0.000000000000000D+00 0.000000000000000D+00 -.286077864931974D+03
 0.211760355118781D+03 -.114296184676498D+03 0.174584213264282D+02 0.125892945367154D+03
 0.306807394364148D+03 -.234805633506920D+03 -.129154334276261D+03 -.125892945367154D+03
 0.128032188463090D+04 0.349101818183418D+03 0.111695912949833D+03 0.122673390424988D+04
0.185724892794D-02 0.000000000000D+00 0.000000000000D+00 0.123415550311D-02 0.000000000000D+00  5 -1 2 25 24 21 0 0.16673552D-02 0.47754635D+00 0.17650931D+05 0.17650931D+05 0.17650931D+05 0.12398450D+01  1  2  2  1  5  1       -1 0.349923837288D+00 0.100000000000D+01
-.901342609044D-04 0.000000000000D+00 -.713232490816D-05 0.123415550311D-02 0.000000000000D+00  5 -1 2 25 24 21 2 0.16673552D-02 0.47754635D+00 0.17650931D+05 0.17650931D+05 0.17650931D+05 0.12398450D+01  1  2  3  1  5  1       -1 -.261052633014D-01 0.100000000000D+01
0.126044819115D-03 0.000000000000D+00 0.000000000000D+00 0.123415550311D-02 0.000000000000D+00  5 -1 2 25 24 21 2 0.16673552D-02 0.47754635D+00 0.17650931D+05 0.17650931D+05 0.17650931D+05 0.12398450D+01  1  2 15  1  5  1       -1 0.365059097146D-01 0.100000000000D+01
0.640914121972D-03 0.000000000000D+00 -.240532765844D-02 0.123415550311D-02 0.000000000000D+00  5 -1 2 25 24 21 2 0.35012361D-01 0.47754635D+00 0.17650931D+05 0.17650931D+05 0.17650931D+05 0.12398450D+01  1  2  5  1  5  1       -1 0.178072344280D-02 0.100000000000D+01
-.419883487486D-03 0.000000000000D+00 -.779353396128D-03 0.123415550311D-02 0.000000000000D+00  5 21 2 25 24 1 2 0.35012361D-01 0.47754635D+00 0.17650931D+05 0.17650931D+05 0.17650931D+05 0.12398450D+01  1  2  5  3  5  1       -1 -.130023337239D-01 0.100000000000D+01
  </mgrwgt>
  </event>
  <event>
  4     66 0.45252658E-03 0.12511728E+03 0.75467711E-02 0.11292759E+00
       -1 -1    0    0    0  501 0.00000000E+00 0.00000000E+00 0.44174848E+02 0.44176007E+02 0.32000000E+00 0.0000E+00 0.9000E+01
        2 -1    0    0  501    0 0.00000000E+00 0.00000000E+00 -.42241433E+03 0.42241445E+03 0.32000000E+00 0.0000E+00 0.9000E+01
       25  1    1    2    0    0 0.57629651E+02 -.40272564E+02 -.30511524E+03 0.33713998E+03 0.12500000E+03 0.0000E+00 0.9000E+01
       24  1    1    2    0    0 -.57629651E+02 0.40272564E+02 -.73124247E+02 0.12945048E+03 0.80419002E+02 0.0000E+00 0.9000E+01
#aMCatNLO 1  0  0  1  1 0.15813370D+03 0.00000000D+00  -5  5  0 0.00000000D+00 0.00000000D+00 0.00000000D+00 0.00000000D+00 0.00000000D+00
  <mgrwgt>
 0.3483551020D+00    5    2    0
 0.136603029109025D+03 0.000000000000000D+00 0.000000000000000D+00 0.136603029109025D+03
 0.136603029109025D+03 0.000000000000000D+00 0.000000000000000D+00 -.136603029109025D+03
 0.153362877161736D+03 0.576296512682569D+02 -.402725642424368D+02 -.543333779123271D+02
 0.119843181056314D+03 -.576296512682569D+02 0.402725642424368D+02 0.543333779123271D+02
 0.000000000000000D+00 -.000000000000000D+00 -.000000000000000D+00 0.000000000000000D+00
 0.313617195685752D+03 0.000000000000000D+00 0.000000000000000D+00 0.313617195685752D+03
 0.197965445352350D+03 0.000000000000000D+00 0.000000000000000D+00 -.197965445352350D+03
 0.201455607622748D+03 0.148004679669851D+03 -.100926053678686D+02 -.543333779123271D+02
 0.114214819395640D+03 0.198674231200964D+01 0.601809431201444D+02 0.543333779123271D+02
 0.195912214019714D+03 -.149991421981861D+03 -.500883377522758D+02 0.115651750333403D+03
0.363704499638D-03 0.000000000000D+00 0.000000000000D+00 0.217823052569D-02 0.000000000000D+00  5 -1 2 25 24 21 0 0.67962289D-02 0.64986919D-01 0.15654333D+05 0.15654333D+05 0.15654333D+05 0.12457141D+01  1  2  2  1  5  1       -1 0.325775659567D+00 0.100000000000D+01
-.200163008753D-04 0.000000000000D+00 -.139672104420D-05 0.217823052569D-02 0.000000000000D+00  5 -1 2 25 24 21 2 0.67962289D-02 0.64986919D-01 0.15654333D+05 0.15654333D+05 0.15654333D+05 0.12457141D+01  1  2  3  1  5  1       -1 -.278221407151D-01 0.100000000000D+01
0.251127930603D-04 0.000000000000D+00 0.000000000000D+00 0.217823052569D-02 0.000000000000D+00  5 -1 2 25 24 21 2 0.67962289D-02 0.64986919D-01 0.15654333D+05 0.15654333D+05 0.15654333D+05 0.12457141D+01  1  2 15  1  5  1       -1 0.349061330876D-01 0.100000000000D+01
0.570484110343D-05 0.000000000000D+00 -.109469092303D-03 0.217823052569D-02 0.000000000000D+00  5 -1 2 25 24 21 2 0.22347923D-01 0.64986919D-01 0.15654333D+05 0.15654333D+05 0.15654333D+05 0.12457141D+01  1  2  5  1  5  1       -1 0.125730424456D-02 0.100000000000D+01
0.516847496147D-05 0.000000000000D+00 -.150811004857D-04 0.217823052569D-02 0.000000000000D+00  5 21 2 25 24 1 2 0.22347923D-01 0.64986919D-01 0.15654333D+05 0.15654333D+05 0.15654333D+05 0.12457141D+01  1  2  5  3  5  1       -1 0.142381458386D-01 0.100000000000D+01
  </mgrwgt>
  </event>
  <event>
  5     66 0.45252658E-03 0.17177435E+03 0.75467711E-02 0.11290167E+00
       21 -1    0    0  502  501 0.00000000E+00 0.00000000E+00 0.35308820E+03 0.35308899E+03 0.75000000E+00 0.0000E+00 0.9000E+01
        2 -1    0    0  501    0 0.00000000E+00 0.00000000E+00 -.19116006E+03 0.19116033E+03 0.32000000E+00 0.0000E+00 0.9000E+01
       25  1    1    2    0    0 -.83156620E+02 0.14794134E+03 0.14034320E+03 0.25322495E+03 0.12500000E+03 0.0000E+00 0.9000E+01
       24  1    1    2    0    0 0.10818048E+03 -.53823505E+02 -.66551495E+02 0.15967562E+03 0.80419002E+02 0.0000E+00 0.9000E+01
        1  1    1    2  502    0 -.25023862E+02 -.94117836E+02 0.88136434E+02 0.13134875E+03 0.32000000E+00 0.0000E+00 0.9000E+01
#aMCatNLO 2  0  0  1  2 0.97387682D+02 0.00000000D+00  -5  5  0 0.00000000D+00 0.00000000D+00 0.00000000D+00 0.00000000D+00 0.00000000D+00
  <mgrwgt>
 0.5070512538D-01    2    2    0
 0.197203770274690D+03 0.000000000000000D+00 0.000000000000000D+00 0.197203770274690D+03
 0.197203770274690D+03 0.000000000000000D+00 0.000000000000000D+00 -.197203770274690D+03
 0.208813315103465D+03 -.969299451998085D+02 0.961381647397473D+02 0.966438801401008D+02
 0.185594225445916D+03 0.969299451998085D+02 -.961381647397473D+02 -.966438801401008D+02
 0.000000000000000D+00 -.000000000000000D+00 -.000000000000000D+00 0.000000000000000D+00
 0.294730999227074D+03 0.000000000000000D+00 0.000000000000000D+00 0.294730999227074D+03
 0.229010625647745D+03 0.000000000000000D+00 0.000000000000000D+00 -.229010625647745D+03
 0.231876483291187D+03 -.831566201919441D+02 0.147941341257969D+03 0.966438801401008D+02
 0.174376724353928D+03 0.108180482205757D+03 -.538235054899916D+02 -.966438801401008D+02
 0.117488417229703D+03 -.250238620138125D+02 -.941178357679773D+02 0.657203735793287D+02
-.227099101208D-04 0.000000000000D+00 0.000000000000D+00 0.167633518337D-02 0.000000000000D+00  5 21 2 25 24 1 2 0.56089307D-01 0.25324694D-01 0.51372369D+05 0.51372369D+05 0.51372369D+05 0.11911189D+01  1  2 13  3  5  1       -1 -.248974060781D-01 0.100000000000D+01
0.760438973063D-04 0.000000000000D+00 0.000000000000D+00 0.167633518337D-02 0.898473270649D-07  5 21 2 25 24 1 2 0.54321294D-01 0.29409296D-01 0.51372369D+05 0.51372369D+05 0.51372369D+05 0.11911189D+01  1  2  1  3  5  1       -1 0.756025314578D-01 0.100000000000D+01
  </mgrwgt>
  </event>
  <event>
  4     66 0.45252658E-03 0.51480103E+02 0.75467711E-02 0.12517665E+00
       -1 -1    0    0    0  501 0.00000000E+00 0.00000000E+00 0.14806329E+02 0.14809786E+02 0.32000000E+00 0.0000E+00 0.9000E+01
        2 -1    0    0  501    0 0.00000000E+00 0.00000000E+00 -.92510888E+03 0.92510893E+03 0.32000000E+00 0.0000E+00 0.9000E+01
       25  1    1    2    0    0 -.19386041E+02 -.32766428E+02 -.69113279E+03 0.70337685E+03 0.12500000E+03 0.0000E+00 0.9000E+01
       24  1    1    2    0    0 0.19386041E+02 0.32766428E+02 -.21916976E+03 0.23654187E+03 0.80419002E+02 0.0000E+00 0.9000E+01
#aMCatNLO 1  0  0  1  2 0.99179945D+01 0.00000000D+00  -5  5  0 0.00000000D+00 0.00000000D+00 0.00000000D+00 0.00000000D+00 0.00000000D+00
  <mgrwgt>
 0.3408216283D+00   11    2    0
 0.117043227096780D+03 0.000000000000000D+00 0.000000000000000D+00 0.117043227096780D+03
 0.117043227096780D+03 0.000000000000000D+00 0.000000000000000D+00 -.117043227096780D+03
 0.136603914786246D+03 -.193860407298342D+02 -.327664283009341D+02 -.398267766226320D+02
 0.974825394073144D+02 0.193860407298342D+02 0.327664283009341D+02 0.398267766226320D+02
 0.000000000000000D+00 0.000000000000000D+00 -.000000000000000D+00 0.000000000000000D+00
 0.180472455357545D+03 0.000000000000000D+00 0.000000000000000D+00 0.180472455357545D+03
 0.117536578857610D+03 0.000000000000000D+00 0.000000000000000D+00 -.117536578857610D+03
 0.136711172926121D+03 -.243388261395312D+02 -.297723732483037D+02 -.398267766226320D+02
 0.975852945076960D+02 0.158511860322691D+02 0.349033166762789D+02 0.398267766226320D+02
 0.637125667813388D+02 0.848764010726217D+01 -.513094342797516D+01 0.629358764999350D+02
0.163762564623D-03 0.000000000000D+00 0.000000000000D+00 0.256014608146D-02 0.000000000000D+00  5 -1 2 25 24 21 0 0.22781669D-02 0.14232471D+00 0.12060977D+05 0.12060977D+05 0.12060977D+05 0.12587662D+01  1  2  2  1  5  1       -1 0.289977346709D+00 0.100000000000D+01
-.905306598545D-05 0.000000000000D+00 -.628891367825D-06 0.256014608146D-02 0.000000000000D+00  5 -1 2 25 24 21 2 0.22781669D-02 0.14232471D+00 0.12060977D+05 0.12060977D+05 0.12060977D+05 0.12587662D+01  1  2  3  1  5  1       -1 -.254000912334D-01 0.100000000000D+01
0.113145293590D-04 0.000000000000D+00 0.000000000000D+00 0.256014608146D-02 0.000000000000D+00  5 -1 2 25 24 21 2 0.22781669D-02 0.14232471D+00 0.12060977D+05 0.12060977D+05 0.12060977D+05 0.12587662D+01  1  2 15  1  5  1       -1 0.317450550392D-01 0.100000000000D+01
0.319558886696D-02 0.000000000000D+00 0.000000000000D+00 0.256014608146D-02 0.000000000000D+00  5 -1 2 25 24 21 2 0.35154431D-02 0.14232471D+00 0.13200590D+05 0.13200590D+05 0.13200590D+05 0.12541994D+01  1  2 12  1  5  1       -1 0.476619021223D+01 0.100000000000D+01
-.293276890585D-02 0.000000000000D+00 0.000000000000D+00 0.256014608146D-02 0.000000000000D+00  5 -1 2 25 24 21 2 0.22781669D-02 0.14232471D+00 0.12060977D+05 0.12060977D+05 0.12060977D+05 0.12587662D+01  1  2  4  1  5  1       -1 -.822843861899D+01 0.100000000000D+01
-.323294256936D-02 0.000000000000D+00 -.595021849116D-04 0.256014608146D-02 0.000000000000D+00  5 -1 2 25 24 21 2 0.35241850D-02 0.14232471D+00 0.12060977D+05 0.12060977D+05 0.12060977D+05 0.12587662D+01  1  2  5  1  5  1       -1 -.482680625280D+01 0.100000000000D+01
0.297636775676D-02 0.000000000000D+00 0.542562358690D-04 0.256014608146D-02 0.000000000000D+00  5 -1 2 25 24 21 2 0.22781669D-02 0.14232471D+00 0.12060977D+05 0.12060977D+05 0.12060977D+05 0.12587662D+01  1  2  6  1  5  1       -1 0.835076345265D+01 0.100000000000D+01
0.184697269190D-10 0.000000000000D+00 0.000000000000D+00 0.256014608146D-02 0.239217830850D-03  5 -1 2 25 24 21 2 0.35127738D-02 0.14292463D+00 0.13200590D+05 0.13200590D+05 0.13200590D+05 0.12541994D+01  1  2 11  1  5  1       -1 0.274258130600D-07 0.100000000000D+01
0.161532092828D-03 0.000000000000D+00 0.000000000000D+00 0.256014608146D-02 0.000000000000D+00  5 21 2 25 24 1 2 0.35154431D-02 0.14232471D+00 0.13200590D+05 0.13200590D+05 0.13200590D+05 0.12541994D+01  1  2 12  3  5  1       -1 0.453843559272D+01 0.100000000000D+01
-.161844302756D-03 0.000000000000D+00 -.302064767562D-05 0.256014608146D-02 0.000000000000D+00  5 21 2 25 24 1 2 0.35241850D-02 0.14232471D+00 0.12060977D+05 0.12060977D+05 0.12060977D+05 0.12587662D+01  1  2  5  3  5  1       -1 -.455564512178D+01 0.100000000000D+01
0.941013857591D-12 0.000000000000D+00 0.000000000000D+00 0.256014608146D-02 0.121767793374D-04  5 21 2 25 24 1 2 0.35127738D-02 0.14292463D+00 0.13200590D+05 0.13200590D+05 0.13200590D+05 0.12541994D+01  1  2 11  3  5  1       -1 0.263259976607D-07 0.100000000000D+01
  </mgrwgt>
  </event>
  <event>
  4     66 0.45252658E-03 0.35542330E+02 0.75467711E-02 0.12270948E+00
       -1 -1    0    0    0  501 0.00000000E+00 0.00000000E+00 0.17275564E+04 0.17275564E+04 0.32000000E+00 0.0000E+00 0.9000E+01
        2 -1    0    0  501    0 0.00000000E+00 0.00000000E+00 -.80734785E+01 0.80798177E+01 0.32000000E+00 0.0000E+00 0.9000E+01
       25  1    1    2    0    0 -.85778579E+01 0.53430749E+02 0.86257371E+03 0.87326218E+03 0.12500000E+03 0.0000E+00 0.9000E+01
       24  1    1    2    0    0 0.85778579E+01 -.53430749E+02 0.85690921E+03 0.86237407E+03 0.80419002E+02 0.0000E+00 0.9000E+01
#aMCatNLO 1  0  0  1  2 0.25898684D+02 0.00000000D+00  -5  5  0 0.00000000D+00 0.00000000D+00 0.00000000D+00 0.00000000D+00 0.00000000D+00
  <mgrwgt>
 0.3027897657D+00    9    2    0
 0.118122463733285D+03 0.000000000000000D+00 0.000000000000000D+00 0.118122463733285D+03
 0.118122463733285D+03 0.000000000000000D+00 0.000000000000000D+00 -.118122463733285D+03
 0.137504433420074D+03 -.857785792504092D+01 0.534307485111841D+02 -.188160749660472D+02
 0.987404940464956D+02 0.857785792504092D+01 -.534307485111841D+02 0.188160749660472D+02
 0.000000000000000D+00 -.000000000000000D+00 0.000000000000000D+00 0.000000000000000D+00
 0.136073464645547D+03 0.000000000000000D+00 0.000000000000000D+00 0.136073464645547D+03
 0.128554797548996D+03 0.000000000000000D+00 0.000000000000000D+00 -.128554797548996D+03
 0.136918203309215D+03 0.637028129425466D+01 0.522203910032067D+02 -.188160749660472D+02
 0.100742074371952D+03 0.194439192677980D+02 -.543105783505645D+02 0.188160749660472D+02
 0.269679845133762D+02 -.258142005620527D+02 0.209018734735773D+01 0.751866709655117D+01
0.194468481438D-02 0.000000000000D+00 0.000000000000D+00 0.275858238545D-02 0.000000000000D+00  5 -1 2 25 24 21 0 0.26577840D+00 0.12425635D-02 0.13588806D+05 0.13588806D+05 0.13588806D+05 0.12527442D+01  1  2  2  1  5  1       -1 0.146638216988D+00 0.100000000000D+01
-.108015084130D-03 0.000000000000D+00 -.746810173450D-05 0.275858238545D-02 0.000000000000D+00  5 -1 2 25 24 21 2 0.26577840D+00 0.12425635D-02 0.13588806D+05 0.13588806D+05 0.13588806D+05 0.12527442D+01  1  2  3  1  5  1       -1 -.127822453845D-01 0.100000000000D+01
0.134562916685D-03 0.000000000000D+00 0.000000000000D+00 0.275858238545D-02 0.000000000000D+00  5 -1 2 25 24 21 2 0.26577840D+00 0.12425635D-02 0.13588806D+05 0.13588806D+05 0.13588806D+05 0.12527442D+01  1  2 15  1  5  1       -1 0.159238520673D-01 0.100000000000D+01
0.156303754688D-02 0.000000000000D+00 0.000000000000D+00 0.275858238545D-02 0.000000000000D+00  5 -1 2 25 24 21 2 0.31646552D+00 0.12425635D-02 0.16963384D+05 0.16963384D+05 0.16963384D+05 0.12417781D+01  1  2 12  1  5  1       -1 0.890761104946D-01 0.100000000000D+01
-.147319779219D-02 0.000000000000D+00 0.000000000000D+00 0.275858238545D-02 0.000000000000D+00  5 -1 2 25 24 21 2 0.26577840D+00 0.12425635D-02 0.13588806D+05 0.13588806D+05 0.13588806D+05 0.12527442D+01  1  2  4  1  5  1       -1 -.174334685117D+00 0.100000000000D+01
-.410530285298D-02 0.000000000000D+00 -.102449591771D-02 0.275858238545D-02 0.000000000000D+00  5 -1 2 25 24 21 2 0.31881040D+00 0.12425635D-02 0.13588806D+05 0.13588806D+05 0.13588806D+05 0.12527442D+01  1  2  5  1  5  1       -1 -.230122190005D+00 0.100000000000D+01
0.423808409544D-02 0.000000000000D+00 0.100777130976D-02 0.275858238545D-02 0.000000000000D+00  5 -1 2 25 24 21 2 0.26577840D+00 0.12425635D-02 0.13588806D+05 0.13588806D+05 0.13588806D+05 0.12527442D+01  1  2  6  1  5  1       -1 0.501524683377D+00 0.100000000000D+01
0.402409035337D-04 0.000000000000D+00 0.000000000000D+00 0.275858238545D-02 0.000000000000D+00  5 21 2 25 24 1 2 0.31646552D+00 0.12425635D-02 0.16963384D+05 0.16963384D+05 0.16963384D+05 0.12417781D+01  1  2 12  3  5  1       -1 0.225479828681D-01 0.100000000000D+01
-.991687634824D-04 0.000000000000D+00 -.272465628841D-04 0.275858238545D-02 0.000000000000D+00  5 21 2 25 24 1 2 0.31881040D+00 0.12425635D-02 0.13588806D+05 0.13588806D+05 0.13588806D+05 0.12527442D+01  1  2  5  3  5  1       -1 -.556819596193D-01 0.100000000000D+01
  </mgrwgt>
  </event>
  <event>
  5     66 0.45252658E-03 0.11084932E+03 0.75467711E-02 0.12021798E+00
       -1 -1    0    0    0  501 0.00000000E+00 0.00000000E+00 0.11528557E+02 0.11532997E+02 0.32000000E+00 0.0000E+00 0.9000E+01
        2 -1    0    0  502    0 0.00000000E+00 0.00000000E+00 -.19277260E+04 0.19277260E+04 0.32000000E+00 0.0000E+00 0.9000E+01
       25  1    1    2    0    0 -.32869377E+02 -.73869949E+02 -.88445817E+03 0.89689934E+03 0.12500000E+03 0.0000E+00 0.9000E+01
       24  1    1    2    0    0 0.14554442E+02 0.10489965E+02 -.58557097E+03 0.59133954E+03 0.80419002E+02 0.0000E+00 0.9000E+01
       21  1    1    2  502  501 0.18314935E+02 0.63379984E+02 -.44616828E+03 0.45102013E+03 0.75000000E+00 0.0000E+00 0.9000E+01
#aMCatNLO 2  0  0  2  2 0.65973170D+02 0.00000000D+00  -5  5  0 0.00000000D+00 0.00000000D+00 0.00000000D+00 0.00000000D+00 0.00000000D+00
  <mgrwgt>
 0.7052453900D-01    1    2    0
 0.111261867703008D+03 0.000000000000000D+00 0.000000000000000D+00 0.111261867703008D+03
 0.111261867703008D+03 0.000000000000000D+00 0.000000000000000D+00 -.111261867703008D+03
 0.131838962611379D+03 -.215487533937973D+02 -.346942187874389D+02 0.940608698382156D+01
 0.906847727946380D+02 0.215487533937973D+02 0.346942187874389D+02 -.940608698382156D+01
 0.000000000000000D+00 0.000000000000000D+00 0.000000000000000D+00 -.000000000000000D+00
 0.146967007668311D+03 0.000000000000000D+00 0.000000000000000D+00 0.146967007668311D+03
 0.151242078771403D+03 0.000000000000000D+00 0.000000000000000D+00 -.151242078771403D+03
 0.149166483337906D+03 -.328693770340356D+02 -.738699487778685D+02 0.940608698382156D+01
 0.829310651875040D+02 0.145544421158046D+02 0.104899647813507D+02 -.940608698382156D+01
 0.661115379143034D+02 0.183149349182309D+02 0.633799839965178D+02 -.427507110309209D+01
0.626178586386D-04 0.000000000000D+00 0.000000000000D+00 0.296002580683D-02 0.591312576498D-05  5 -1 2 25 24 21 2 0.17739425D-02 0.29656934D+00 0.22087713D+05 0.22087713D+05 0.22087713D+05 0.12291069D+01  1  2  1  2  5  2        2 0.705245389975D-01 0.100000000000D+01
  </mgrwgt>
  </event>
  <event>
  4     66 0.45252658E-03 0.13905164E+03 0.75467711E-02 0.10651021E+00
       -1 -1    0    0    0  501 0.00000000E+00 0.00000000E+00 0.22029232E+03 0.22029255E+03 0.32000000E+00 0.0000E+00 0.9000E+01
        2 -1    0    0  501    0 0.00000000E+00 0.00000000E+00 -.10151292E+03 0.10151342E+03 0.32000000E+00 0.0000E+00 0.9000E+01
       25  1    1    2    0    0 -.36604909E+02 -.84973051E+02 0.66288948E+01 0.15565758E+03 0.12500000E+03 0.0000E+00 0.9000E+01
       24  1    1    2    0    0 0.36604909E+02 0.84973051E+02 0.11215051E+03 0.16614840E+03 0.80419002E+02 0.0000E+00 0.9000E+01
#aMCatNLO 1  0  0  1  1 0.28812382D+03 0.00000000D+00  -5  5  0 0.00000000D+00 0.00000000D+00 0.00000000D+00 0.00000000D+00 0.00000000D+00
  <mgrwgt>
 0.4369049855D+00    3    2    0
 0.149541415642047D+03 0.000000000000000D+00 0.000000000000000D+00 0.149541415642047D+03
 0.149541415642047D+03 0.000000000000000D+00 0.000000000000000D+00 -.149541415642047D+03
 0.164851194552309D+03 -.366049085582701D+02 -.849730512269843D+02 -.546861735719393D+02
 0.134231636731785D+03 0.366049085582701D+02 0.849730512269843D+02 0.546861735719393D+02
 0.000000000000000D+00 0.000000000000000D+00 -.000000000000000D+00 -.000000000000000D+00
 0.247081624057794D+03 0.000000000000000D+00 0.000000000000000D+00 0.247081624057794D+03
 0.733903627682300D+03 0.000000000000000D+00 0.000000000000000D+00 -.733903627682300D+03
 0.251054627649235D+03 -.202323068369736D+03 -.589764740350827D+02 -.546861735719393D+02
 0.164235479639442D+03 -.823196619790133D+02 0.103629013744934D+03 0.546861735719393D+02
 0.565695144451417D+03 0.284642730348750D+03 -.446525397098508D+02 -.486822003624507D+03
0.126623633705D-02 0.000000000000D+00 0.000000000000D+00 0.211832921815D-02 0.000000000000D+00  5 -1 2 25 24 21 0 0.33891183D-01 0.15617429D-01 0.19335360D+05 0.19335360D+05 0.19335360D+05 0.12354452D+01  1  2  2  1  5  1       -1 0.427947386686D+00 0.100000000000D+01
-.698940588314D-04 0.000000000000D+00 -.486268094194D-05 0.211832921815D-02 0.000000000000D+00  5 -1 2 25 24 21 2 0.33891183D-01 0.15617429D-01 0.19335360D+05 0.19335360D+05 0.19335360D+05 0.12354452D+01  1  2  3  1  5  1       -1 -.360547801036D-01 0.100000000000D+01
0.872588281773D-04 0.000000000000D+00 0.000000000000D+00 0.211832921815D-02 0.000000000000D+00  5 -1 2 25 24 21 2 0.33891183D-01 0.15617429D-01 0.19335360D+05 0.19335360D+05 0.19335360D+05 0.12354452D+01  1  2 15  1  5  1       -1 0.450123789436D-01 0.100000000000D+01
  </mgrwgt>
  </event>
  <event>
  4     66 0.45252658E-03 0.10873719E+03 0.75467711E-02 0.11574677E+00
       -1 -1    0    0    0  501 0.00000000E+00 0.00000000E+00 0.62530582E+02 0.62531401E+02 0.32000000E+00 0.0000E+00 0.9000E+01
        2 -1    0    0  501    0 0.00000000E+00 0.00000000E+00 -.20018604E+03 0.20018630E+03 0.32000000E+00 0.0000E+00 0.9000E+01
       25  1    1    2    0    0 -.33909800E+02 0.84321355E+01 -.51036461E+02 0.13946575E+03 0.12500000E+03 0.0000E+00 0.9000E+01
       24  1    1    2    0    0 0.33909800E+02 -.84321355E+01 -.86618997E+02 0.12325195E+03 0.80419002E+02 0.0000E+00 0.9000E+01
#aMCatNLO 1  0  0  1  1 0.12925377D+03 0.00000000D+00  -5  5  0 0.00000000D+00 0.00000000D+00 0.00000000D+00 0.00000000D+00 0.00000000D+00
  <mgrwgt>
 0.2354479674D+00    5    2    0
 0.111883380147480D+03 0.000000000000000D+00 0.000000000000000D+00 0.111883380147480D+03
 0.111883380147480D+03 0.000000000000000D+00 0.000000000000000D+00 -.111883380147480D+03
 0.132346169244391D+03 -.339097999715494D+02 0.843213547778791D+01 0.258753371154598D+02
 0.914205910505696D+02 0.339097999715494D+02 -.843213547778791D+01 -.258753371154598D+02
 0.000000000000000D+00 0.000000000000000D+00 0.000000000000000D+00 0.000000000000000D+00
 0.388933635645076D+03 0.000000000000000D+00 0.000000000000000D+00 0.388933635645076D+03
 0.145288199639656D+03 0.000000000000000D+00 0.000000000000000D+00 -.145288199639656D+03
 0.154582151764816D+03 -.588490286801104D+02 -.643265139488327D+02 0.258753371154598D+02
 0.103832438940242D+03 0.169388019402184D+02 -.579439672433636D+02 -.258753371154598D+02
 0.275807244579674D+03 0.419102267398920D+02 0.122270481192196D+03 0.243645436005421D+03
0.243419112640D-03 0.000000000000D+00 0.000000000000D+00 0.282819134904D-02 0.000000000000D+00  5 -1 2 25 24 21 0 0.96201722D-02 0.30797935D-01 0.11823776D+05 0.11823776D+05 0.11823776D+05 0.12597778D+01  1  2  2  1  5  1       -1 0.282380040586D+00 0.100000000000D+01
-.135099069783D-04 0.000000000000D+00 -.934793486262D-06 0.282819134904D-02 0.000000000000D+00  5 -1 2 25 24 21 2 0.96201722D-02 0.30797935D-01 0.11823776D+05 0.11823776D+05 0.11823776D+05 0.12597778D+01  1  2  3  1  5  1       -1 -.248725085836D-01 0.100000000000D+01
0.167572677280D-04 0.000000000000D+00 0.000000000000D+00 0.282819134904D-02 0.000000000000D+00  5 -1 2 25 24 21 2 0.96201722D-02 0.30797935D-01 0.11823776D+05 0.11823776D+05 0.11823776D+05 0.12597778D+01  1  2 15  1  5  1       -1 0.308510847685D-01 0.100000000000D+01
-.105071273443D-03 0.000000000000D+00 -.844500776244D-04 0.282819134904D-02 0.000000000000D+00  5 -1 2 25 24 21 2 0.42085566D-01 0.30797935D-01 0.11823776D+05 0.11823776D+05 0.11823776D+05 0.12597778D+01  1  2  5  1  5  1       -1 -.179806722715D-01 0.100000000000D+01
-.190100998279D-04 0.000000000000D+00 -.150288486001D-04 0.282819134904D-02 0.000000000000D+00  5 21 2 25 24 1 2 0.42085566D-01 0.30797935D-01 0.11823776D+05 0.11823776D+05 0.11823776D+05 0.12597778D+01  1  2  5  3  5  1       -1 -.349299770950D-01 0.100000000000D+01
  </mgrwgt>
  </event>
  <event>
  4     66 0.45252658E-03 0.89650907E+02 0.75467711E-02 0.12074491E+00
       -1 -1    0    0    0  501 0.00000000E+00 0.00000000E+00 0.10944482E+03 0.10944529E+03 0.32000000E+00 0.0000E+00 0.9000E+01
        2 -1    0    0  501    0 0.00000000E+00 0.00000000E+00 -.10060790E+03 0.10060841E+03 0.32000000E+00 0.0000E+00 0.9000E+01
       25  1    1    2    0    0 -.12895981E+02 -.16472330E+02 0.34944947E+01 0.12678665E+03 0.12500000E+03 0.0000E+00 0.9000E+01
       24  1    1    2    0    0 0.12895981E+02 0.16472330E+02 0.53424291E+01 0.83267049E+02 0.80419002E+02 0.0000E+00 0.9000E+01
#aMCatNLO 1  0  0  2  1 0.68263161D+02 0.00000000D+00  -5  5  0 0.00000000D+00 0.00000000D+00 0.00000000D+00 0.00000000D+00 0.00000000D+00
  <mgrwgt>
 0.2215789152D+00    9    2    0
 0.104933868113287D+03 0.000000000000000D+00 0.000000000000000D+00 0.104933868113287D+03
 0.104933868113287D+03 0.000000000000000D+00 0.000000000000000D+00 -.104933868113287D+03
 0.126751857410467D+03 -.128959807333190D+02 -.164723299117709D+02 -.184102830152518D+01
 0.831158788161077D+02 0.128959807333190D+02 0.164723299117709D+02 0.184102830152518D+01
 0.000000000000000D+00 -.000000000000000D+00 -.000000000000000D+00 -.000000000000000D+00
 0.130802442476795D+03 0.000000000000000D+00 0.000000000000000D+00 0.130802442476795D+03
 0.167291839639334D+03 0.000000000000000D+00 0.000000000000000D+00 -.167291839639334D+03
 0.126733390990805D+03 0.247843099251516D+01 0.206596318127086D+02 -.184102830152518D+01
 0.939571749266160D+02 0.236358326614350D+02 0.424109985146990D+02 0.184102830152518D+01
 0.774037161987075D+02 -.261142636539502D+02 -.630706303274077D+02 -.364893971625391D+02
0.211025237571D-03 0.000000000000D+00 0.000000000000D+00 0.316441096934D-02 0.000000000000D+00  5 -1 2 25 24 21 0 0.16837740D-01 0.15478214D-01 0.11007574D+05 0.11007574D+05 0.11007574D+05 0.12634417D+01  1  2  2  2  5  2        2 0.221548923253D+00 0.100000000000D+01
-.117236239405D-04 0.000000000000D+00 -.810392476495D-06 0.316441096934D-02 0.000000000000D+00  5 -1 2 25 24 21 2 0.16837740D-01 0.15478214D-01 0.11007574D+05 0.11007574D+05 0.11007574D+05 0.12634417D+01  1  2  3  2  5  2        2 -.196475118187D-01 0.100000000000D+01
0.145710241206D-04 0.000000000000D+00 0.000000000000D+00 0.316441096934D-02 0.000000000000D+00  5 -1 2 25 24 21 2 0.16837740D-01 0.15478214D-01 0.11007574D+05 0.11007574D+05 0.11007574D+05 0.12634417D+01  1  2 15  2  5  2        2 0.244194431749D-01 0.100000000000D+01
0.366845648724D-04 0.000000000000D+00 0.000000000000D+00 0.316441096934D-02 0.000000000000D+00  5 -1 2 25 24 21 2 0.16837740D-01 0.25665393D-01 0.20869026D+05 0.20869026D+05 0.20869026D+05 0.12317976D+01  1  2 12  2  5  2        2 0.338177840185D-01 0.100000000000D+01
-.119358126407D-03 0.000000000000D+00 0.000000000000D+00 0.316441096934D-02 0.000000000000D+00  5 -1 2 25 24 21 2 0.16837740D-01 0.15478214D-01 0.11007574D+05 0.11007574D+05 0.11007574D+05 0.12634417D+01  1  2  4  2  5  2        2 -.200031168786D+00 0.100000000000D+01
-.121879497691D-03 0.000000000000D+00 -.833629301774D-04 0.316441096934D-02 0.000000000000D+00  5 -1 2 25 24 21 2 0.16837740D-01 0.30311711D-01 0.11007574D+05 0.11007574D+05 0.11007574D+05 0.12634417D+01  1  2  5  2  5  2        2 -.966804142873D-01 0.100000000000D+01
0.156941240522D-03 0.000000000000D+00 0.675281896786D-04 0.316441096934D-02 0.000000000000D+00  5 -1 2 25 24 21 2 0.16837740D-01 0.15478214D-01 0.11007574D+05 0.11007574D+05 0.11007574D+05 0.12634417D+01  1  2  6  2  5  2        2 0.263016358563D+00 0.100000000000D+01
0.208711836839D-05 0.000000000000D+00 0.000000000000D+00 0.316441096934D-02 0.000000000000D+00  5 -1 21 25 24 -2 2 0.16837740D-01 0.25665393D-01 0.20869026D+05 0.20869026D+05 0.20869026D+05 0.12317976D+01  1  2 12  4  5  2        2 0.109481957871D-01 0.100000000000D+01
-.396291326706D-05 0.000000000000D+00 -.606981618795D-05 0.316441096934D-02 0.000000000000D+00  5 -1 21 25 24 -2 2 0.16837740D-01 0.30311711D-01 0.11007574D+05 0.11007574D+05 0.11007574D+05 0.12634417D+01  1  2  5  4  5  2        2 -.158126946618D-01 0.100000000000D+01
  </mgrwgt>
  </event>
  <event>
  4     66 0.45252658E-03 0.10469812E+03 0.75467711E-02 0.11808862E+00
       -1 -1    0    0    0  501 0.00000000E+00 0.00000000E+00 0.57028250E+02 0.57029148E+02 0.32000000E+00 0.0000E+00 0.9000E+01
        2 -1    0    0  501    0 0.00000000E+00 0.00000000E+00 -.31885636E+03 0.31885652E+03 0.32000000E+00 0.0000E+00 0.9000E+01
       25  1    1    2    0    0 0.19017499E+02 0.56651177E+01 -.30518709E+02 0.13019274E+03 0.12500000E+03 0.0000E+00 0.9000E+01
       24  1    1    2    0    0 -.19017499E+02 -.56651177E+01 -.23130940E+03 0.24569292E+03 0.80419002E+02 0.0000E+00 0.9000E+01
#aMCatNLO 1  0  0  1  1 0.10210249D+03 0.00000000D+00  -5  5  0 0.00000000D+00 0.00000000D+00 0.00000000D+00 0.00000000D+00 0.00000000D+00
  <mgrwgt>
 0.3316777515D+00    3    2    0
 0.134848133182186D+03 0.000000000000000D+00 0.000000000000000D+00 0.134848133182186D+03
 0.134848133182186D+03 0.000000000000000D+00 0.000000000000000D+00 -.134848133182186D+03
 0.151826091700264D+03 0.190174985645815D+02 0.566511774340889D+01 0.838594258880676D+02
 0.117870174664108D+03 -.190174985645815D+02 -.566511774340889D+01 -.838594258880676D+02
 0.000000000000000D+00 -.000000000000000D+00 0.000000000000000D+00 -.000000000000000D+00
 0.187153000200506D+03 0.000000000000000D+00 0.000000000000000D+00 0.187153000200506D+03
 0.204847949050031D+03 0.000000000000000D+00 0.000000000000000D+00 -.204847949050031D+03
 0.167139684637011D+03 0.675545012278637D+02 -.267331298978941D+02 0.838594258880676D+02
 0.121236797003751D+03 0.173673946798288D+02 -.299518828309147D+02 -.838594258880676D+02
 0.103624467609776D+03 -.849218959076925D+02 0.566850127288087D+02 -.176949488495253D+02
0.397530410645D-03 0.000000000000D+00 0.000000000000D+00 0.167479024526D-02 0.000000000000D+00  5 -1 2 25 24 21 0 0.87736584D-02 0.49054905D-01 0.10961696D+05 0.10961696D+05 0.10961696D+05 0.12636567D+01  1  2  2  1  5  1       -1 0.322867611248D+00 0.100000000000D+01
-.203653175303D-04 0.000000000000D+00 -.152662144904D-05 0.167479024526D-02 0.000000000000D+00  5 -1 2 25 24 21 2 0.87736584D-02 0.49054905D-01 0.10961696D+05 0.10961696D+05 0.10961696D+05 0.12636567D+01  1  2  3  1  5  1       -1 -.264121350425D-01 0.100000000000D+01
0.271584565305D-04 0.000000000000D+00 0.000000000000D+00 0.167479024526D-02 0.000000000000D+00  5 -1 2 25 24 21 2 0.87736584D-02 0.49054905D-01 0.10961696D+05 0.10961696D+05 0.10961696D+05 0.12636567D+01  1  2 15  1  5  1       -1 0.352222753396D-01 0.100000000000D+01
  </mgrwgt>
  </event>
  <event>
  4     66 0.45252658E-03 0.11475406E+03 0.75467711E-02 0.10994609E+00
       -1 -1    0    0    0  501 0.00000000E+00 0.00000000E+00 0.30172755E+02 0.30174452E+02 0.32000000E+00 0.0000E+00 0.9000E+01
        2 -1    0    0  501    0 0.00000000E+00 0.00000000E+00 -.20858259E+04 0.20858260E+04 0.32000000E+00 0.0000E+00 0.9000E+01
       25  1    1    2    0    0 0.15909911E+03 0.15582852E+03 -.12709161E+04 0.12963209E+04 0.12500000E+03 0.0000E+00 0.9000E+01
       24  1    1    2    0    0 -.15909911E+03 -.15582852E+03 -.78473706E+03 0.81967952E+03 0.80419002E+02 0.0000E+00 0.9000E+01
#aMCatNLO 1  0  0  1  2 0.51543032D+02 0.00000000D+00  -5  5  0 0.00000000D+00 0.00000000D+00 0.00000000D+00 0.00000000D+00 0.00000000D+00
  <mgrwgt>
 0.2888783955D+00    7    2    0
 0.250872350242270D+03 0.000000000000000D+00 0.000000000000000D+00 0.250872350242270D+03
 0.250872350242270D+03 0.000000000000000D+00 0.000000000000000D+00 -.250872350242270D+03
 0.259998290224083D+03 0.159099106939577D+03 0.155828524853047D+03 -.487755669633806D+02
 0.241746410260457D+03 -.159099106939577D+03 -.155828524853047D+03 0.487755669633806D+02
 0.000000000000000D+00 -.000000000000000D+00 0.000000000000000D+00 0.000000000000000D+00
 0.579397500390065D+03 0.000000000000000D+00 0.000000000000000D+00 0.579397500390065D+03
 0.254222431522963D+03 0.000000000000000D+00 0.000000000000000D+00 -.254222431522963D+03
 0.254628022956907D+03 0.171180386026270D+03 0.132395806513051D+03 -.487755669633806D+02
 0.249757175705793D+03 -.147560653032187D+03 -.178208385342213D+03 0.487755669633806D+02
 0.329234733250328D+03 -.236197329940821D+02 0.458125788291622D+02 0.325175068867102D+03
0.196976116854D-02 0.000000000000D+00 0.000000000000D+00 0.198511261416D-02 0.000000000000D+00  5 -1 2 25 24 21 0 0.46420947D-02 0.32089643D+00 0.60554604D+05 0.60554604D+05 0.60554604D+05 0.11841310D+01  1  2  2  1  5  1       -1 0.295834675800D+00 0.100000000000D+01
-.109381646905D-03 0.000000000000D+00 -.756440153721D-05 0.198511261416D-02 0.000000000000D+00  5 -1 2 25 24 21 2 0.46420947D-02 0.32089643D+00 0.60554604D+05 0.60554604D+05 0.60554604D+05 0.11841310D+01  1  2  3  1  5  1       -1 -.230345373435D-01 0.100000000000D+01
0.134779092575D-03 0.000000000000D+00 0.000000000000D+00 0.198511261416D-02 0.000000000000D+00  5 -1 2 25 24 21 2 0.46420947D-02 0.32089643D+00 0.60554604D+05 0.60554604D+05 0.60554604D+05 0.11841310D+01  1  2 15  1  5  1       -1 0.283829520661D-01 0.100000000000D+01
0.194931675446D-01 0.000000000000D+00 0.000000000000D+00 0.198511261416D-02 0.000000000000D+00  5 -1 2 25 24 21 2 0.10708134D-01 0.32089643D+00 0.74639307D+05 0.74639307D+05 0.74639307D+05 0.11754247D+01  1  2 12  1  5  1       -1 0.112605506121D+01 0.100000000000D+01
-.195447338722D-01 0.000000000000D+00 -.556324614079D-03 0.198511261416D-02 0.000000000000D+00  5 -1 2 25 24 21 2 0.10820370D-01 0.32089643D+00 0.60554604D+05 0.60554604D+05 0.60554604D+05 0.11841310D+01  1  2  5  1  5  1       -1 -.113390916620D+01 0.100000000000D+01
0.177376530213D-02 0.000000000000D+00 0.000000000000D+00 0.198511261416D-02 0.000000000000D+00  5 21 2 25 24 1 2 0.10708134D-01 0.32089643D+00 0.74639307D+05 0.74639307D+05 0.74639307D+05 0.11754247D+01  1  2 12  3  5  1       -1 0.147996952639D+01 0.100000000000D+01
-.176765771574D-02 0.000000000000D+00 -.513156615589D-04 0.198511261416D-02 0.000000000000D+00  5 21 2 25 24 1 2 0.10820370D-01 0.32089643D+00 0.60554604D+05 0.60554604D+05 0.60554604D+05 0.11841310D+01  1  2  5  3  5  1       -1 -.148442011642D+01 0.100000000000D+01
  </mgrwgt>
  </event>
  <event>
  4     66 0.45252658E-03 0.14271638E+03 0.75467711E-02 0.11531059E+00
       -1 -1    0    0    0  501 0.00000000E+00 0.00000000E+00 0.11786971E+02 0.11791314E+02 0.32000000E+00 0.0000E+00 0.9000E+01
        2 -1    0    0  501    0 0.00000000E+00 0.00000000E+00 -.18100529E+04 0.18100529E+04 0.32000000E+00 0.0000E+00 0.9000E+01
       25  1    1    2    0    0 -.96538951E+02 0.16106864E+02 -.80245583E+03 0.81800951E+03 0.12500000E+03 0.0000E+00 0.9000E+01
       24  1    1    2    0    0 0.96538951E+02 -.16106864E+02 -.99581009E+03 0.10038347E+04 0.80419002E+02 0.0000E+00 0.9000E+01
#aMCatNLO 1  0  0  1  2 0.92127009D+02 0.00000000D+00  -5  5  0 0.00000000D+00 0.00000000D+00 0.00000000D+00 0.00000000D+00 0.00000000D+00
  <mgrwgt>
 0.3536410605D+00    4    2    0
 0.146078825480428D+03 0.000000000000000D+00 0.000000000000000D+00 0.146078825480428D+03
 0.146078825480428D+03 0.000000000000000D+00 0.000000000000000D+00 -.146078825480428D+03
 0.161751500858792D+03 -.965389513993181D+02 0.161068639943144D+02 0.309733405537794D+02
 0.130406150102064D+03 0.965389513993181D+02 -.161068639943144D+02 -.309733405537794D+02
 0.000000000000000D+00 -.000000000000000D+00 0.000000000000000D+00 -.000000000000000D+00
 0.178656749722362D+03 0.000000000000000D+00 0.000000000000000D+00 0.178656749722362D+03
 0.236420429222647D+03 0.000000000000000D+00 0.000000000000000D+00 -.236420429222647D+03
 0.145660463832978D+03 -.652438964926097D+02 -.193870283808384D+02 0.309733405537794D+02
 0.160678366300818D+03 0.126171844616258D+03 -.497155835106045D+02 -.309733405537794D+02
 0.108738348811213D+03 -.609279481236481D+02 0.691026118914428D+02 -.577636795002856D+02
0.492152278072D-03 0.000000000000D+00 0.000000000000D+00 0.234265152422D-02 0.000000000000D+00  5 -1 2 25 24 21 0 0.18137164D-02 0.27847001D+00 0.20367965D+05 0.20367965D+05 0.20367965D+05 0.12329553D+01  1  2  2  1  5  1       -1 0.407826053276D+00 0.100000000000D+01
-.273237655948D-04 0.000000000000D+00 -.188999433447D-05 0.234265152422D-02 0.000000000000D+00  5 -1 2 25 24 21 2 0.18137164D-02 0.27847001D+00 0.20367965D+05 0.20367965D+05 0.20367965D+05 0.12329553D+01  1  2  3  1  5  1       -1 -.344199872818D-01 0.100000000000D+01
0.339835714002D-04 0.000000000000D+00 0.000000000000D+00 0.234265152422D-02 0.000000000000D+00  5 -1 2 25 24 21 2 0.18137164D-02 0.27847001D+00 0.20367965D+05 0.20367965D+05 0.20367965D+05 0.12329553D+01  1  2 15  1  5  1       -1 0.428094030936D-01 0.100000000000D+01
-.496737101928D-04 0.000000000000D+00 0.000000000000D+00 0.234265152422D-02 0.000000000000D+00  5 -1 2 25 24 21 2 0.18137164D-02 0.27847001D+00 0.20367965D+05 0.20367965D+05 0.20367965D+05 0.12329553D+01  1  2  4  1  5  1       -1 -.625744086094D-01 0.100000000000D+01
  </mgrwgt>
  </event>
  <event>
  5     66 0.45252658E-03 0.12098144E+03 0.75467711E-02 0.12268160E+00
       -1 -1    0    0    0  501 0.00000000E+00 0.00000000E+00 0.11950687E+02 0.11954970E+02 0.32000000E+00 0.0000E+00 0.9000E+01
        2 -1    0    0  502    0 0.00000000E+00 0.00000000E+00 -.15526921E+04 0.15526921E+04 0.32000000E+00 0.0000E+00 0.9000E+01
       25  1    1    2    0    0 0.59225147E+02 0.14699313E+00 -.90245368E+03 0.91299249E+03 0.12500000E+03 0.0000E+00 0.9000E+01
       24  1    1    2    0    0 -.64060243E+02 -.17708021E+02 -.60276560E+03 0.61172777E+03 0.80419002E+02 0.0000E+00 0.9000E+01
       21  1    1    2  502  501 0.48350964E+01 0.17561028E+02 -.35522131E+02 0.39926835E+02 0.75000000E+00 0.0000E+00 0.9000E+01
#aMCatNLO 2  0  0  2  2 0.18214496D+02 0.00000000D+00  -5  5  0 0.00000000D+00 0.00000000D+00 0.00000000D+00 0.00000000D+00 0.00000000D+00
  <mgrwgt>
 0.7759914930D-01    1    2    0
 0.121197194467070D+03 0.000000000000000D+00 0.000000000000000D+00 0.121197194467070D+03
 0.121197194467070D+03 0.000000000000000D+00 0.000000000000000D+00 -.121197194467070D+03
 0.140087450313953D+03 0.619998084659240D+02 0.102245402829205D+02 -.713976621857218D+01
 0.102306938620187D+03 -.619998084659240D+02 -.102245402829205D+02 0.713976621857218D+01
 0.000000000000000D+00 0.000000000000000D+00 0.000000000000000D+00 0.000000000000000D+00
 0.148985567992385D+03 0.000000000000000D+00 0.000000000000000D+00 0.148985567992385D+03
 0.124560821632844D+03 0.000000000000000D+00 0.000000000000000D+00 -.124560821632844D+03
 0.138504930897434D+03 0.592251468066374D+02 0.146993126918320D+00 -.713976621857218D+01
 0.104572850189755D+03 -.640602431971117D+02 -.177080214114803D+02 0.713976621857218D+01
 0.304686085380397D+02 0.483509639047425D+01 0.175610282845620D+02 0.244247463595416D+02
0.458535692702D-04 0.000000000000D+00 0.000000000000D+00 0.275263761075D-02 0.697121504185D-04  5 -1 2 25 24 21 2 0.18388324D-02 0.23886736D+00 0.17012521D+05 0.17012521D+05 0.17012521D+05 0.12416370D+01  1  2  1  2  5  2        2 0.775991492952D-01 0.100000000000D+01
  </mgrwgt>
  </event>
  <event>
  4     66 0.45252658E-03 0.20785017E+03 0.75467711E-02 0.10923523E+00
       -1 -1    0    0    0  501 0.00000000E+00 0.00000000E+00 0.55605594E+02 0.55606514E+02 0.32000000E+00 0.0000E+00 0.9000E+01
        2 -1    0    0  501    0 0.00000000E+00 0.00000000E+00 -.10901318E+04 0.10901318E+04 0.32000000E+00 0.0000E+00 0.9000E+01
       25  1    1    2    0    0 0.11795335E+03 -.13551354E+03 -.23004022E+03 0.31752230E+03 0.12500000E+03 0.0000E+00 0.9000E+01
       24  1    1    2    0    0 -.11795335E+03 0.13551354E+03 -.80448595E+03 0.82821602E+03 0.80419002E+02 0.0000E+00 0.9000E+01
#aMCatNLO 1  0  0  2  2 0.13698182D+03 0.00000000D+00  -5  5  0 0.00000000D+00 0.00000000D+00 0.00000000D+00 0.00000000D+00 0.00000000D+00
  <mgrwgt>
 0.1961747310D+00    4    2    0
 0.246207185421616D+03 0.000000000000000D+00 0.000000000000000D+00 0.246207185421616D+03
 0.246207185421616D+03 0.000000000000000D+00 0.000000000000000D+00 -.246207185421616D+03
 0.255506044865896D+03 0.117953351113589D+03 -.135513538755342D+03 0.131838639017898D+03
 0.236908325977336D+03 -.117953351113589D+03 0.135513538755342D+03 -.131838639017898D+03
 0.000000000000000D+00 0.000000000000000D+00 -.000000000000000D+00 0.000000000000000D+00
 0.326929143913219D+03 0.000000000000000D+00 0.000000000000000D+00 0.326929143913219D+03
 0.321281494126050D+03 0.000000000000000D+00 0.000000000000000D+00 -.321281494126050D+03
 0.218033103384842D+03 0.939935691517851D+02 -.754799072047800D+02 0.131838639017898D+03
 0.293079341434330D+03 -.144769273304049D+03 0.202703515485391D+03 -.131838639017898D+03
 0.137098193220097D+03 0.507757041522639D+02 -.127223608280611D+03 0.564764978716926D+01
0.184570838905D-02 0.000000000000D+00 0.000000000000D+00 0.149323579536D-02 0.000000000000D+00  5 -1 2 25 24 21 0 0.85547811D-02 0.16771265D+00 0.43201692D+05 0.43201692D+05 0.43201692D+05 0.11986191D+01  1  2  2  2  5  2        2 0.377096209877D+00 0.100000000000D+01
-.989635578942D-04 0.000000000000D+00 -.708800620014D-05 0.149323579536D-02 0.000000000000D+00  5 -1 2 25 24 21 2 0.85547811D-02 0.16771265D+00 0.43201692D+05 0.43201692D+05 0.43201692D+05 0.11986191D+01  1  2  3  2  5  2        2 -.290487049398D-01 0.100000000000D+01
0.126213886044D-03 0.000000000000D+00 0.000000000000D+00 0.149323579536D-02 0.000000000000D+00  5 -1 2 25 24 21 2 0.85547811D-02 0.16771265D+00 0.43201692D+05 0.43201692D+05 0.43201692D+05 0.11986191D+01  1  2 15  2  5  2        2 0.370474749798D-01 0.100000000000D+01
-.643616300002D-03 0.000000000000D+00 0.000000000000D+00 0.149323579536D-02 0.000000000000D+00  5 -1 2 25 24 21 2 0.85547811D-02 0.16771265D+00 0.43201692D+05 0.43201692D+05 0.43201692D+05 0.11986191D+01  1  2  4  2  5  2        2 -.188920248938D+00 0.100000000000D+01
  </mgrwgt>
  </event>
  <event>
  5     66 0.45252658E-03 0.11874371E+03 0.75467711E-02 0.12337634E+00
       -3 -1    0    0    0  501 0.00000000E+00 0.00000000E+00 0.62773246E+02 0.62775237E+02 0.50000000E+00 0.0000E+00 0.9000E+01
       21 -1    0    0  501  502 0.00000000E+00 0.00000000E+00 -.36858817E+03 0.36858893E+03 0.75000000E+00 0.0000E+00 0.9000E+01
       25  1    1    2    0    0 0.38849657E+02 -.45419191E+02 -.14714896E+03 0.20211387E+03 0.12500000E+03 0.0000E+00 0.9000E+01
       24  1    1    2    0    0 -.26648083E+02 0.51855604E+02 -.17895101E+03 0.20466999E+03 0.80419002E+02 0.0000E+00 0.9000E+01
       -4  1    1    2    0  502 -.12201574E+02 -.64364133E+01 0.20285052E+02 0.24580310E+02 0.15500000E+01 0.0000E+00 0.9000E+01
#aMCatNLO 2  0  0  2  2 0.13795138D+02 0.00000000D+00  -5  5  0 0.00000000D+00 0.00000000D+00 0.00000000D+00 0.00000000D+00 0.00000000D+00
  <mgrwgt>
 0.1488628421D-01    1    2    0
 0.121389464694605D+03 0.000000000000000D+00 0.000000000000000D+00 0.121389464694605D+03
 0.121389464694605D+03 0.000000000000000D+00 0.000000000000000D+00 -.121389464694605D+03
 0.140249800038922D+03 0.317935792585378D+02 -.491413198472620D+02 0.248858476359103D+02
 0.102529129350288D+03 -.317935792585378D+02 0.491413198472620D+02 -.248858476359103D+02
 0.000000000000000D+00 -.000000000000000D+00 -.000000000000000D+00 0.000000000000000D+00
 0.189180878130950D+03 0.000000000000000D+00 0.000000000000000D+00 0.189180878130950D+03
 0.122289112478206D+03 0.000000000000000D+00 0.000000000000000D+00 -.122289112478206D+03
 0.140771105641311D+03 0.388496574776778D+02 -.454191907103867D+02 0.248858476359103D+02
 0.102399440254683D+03 -.266480830081111D+02 0.518556040321290D+02 -.248858476359103D+02
 0.682994447131620D+02 -.122015744695668D+02 -.643641332174225D+01 0.668917656527438D+02
0.868271965662D-05 0.000000000000D+00 0.000000000000D+00 0.265687261518D-02 0.219485222617D-06  5 -3 21 25 24 -4 2 0.96569439D-02 0.56702030D-01 0.15835523D+05 0.15835523D+05 0.15835523D+05 0.12451477D+01  1  2  1  4  5  2        4 0.148862842095D-01 0.100000000000D+01
  </mgrwgt>
  </event>
  <event>
  4     66 0.45252658E-03 0.14314214E+03 0.75467711E-02 0.11009702E+00
       -1 -1    0    0    0  501 0.00000000E+00 0.00000000E+00 0.64740533E+02 0.64741324E+02 0.32000000E+00 0.0000E+00 0.9000E+01
        2 -1    0    0  501    0 0.00000000E+00 0.00000000E+00 -.32292969E+03 0.32292984E+03 0.32000000E+00 0.0000E+00 0.9000E+01
       25  1    1    2    0    0 -.78165089E+02 0.59913245E+02 -.17044355E+03 0.23318530E+03 0.12500000E+03 0.0000E+00 0.9000E+01
       24  1    1    2    0    0 0.78165089E+02 -.59913245E+02 -.87745599E+02 0.15448587E+03 0.80419002E+02 0.0000E+00 0.9000E+01
#aMCatNLO 1  0  0  1  2 0.19482654D+03 0.00000000D+00  -5  5  0 0.00000000D+00 0.00000000D+00 0.00000000D+00 0.00000000D+00 0.00000000D+00
  <mgrwgt>
 0.4070903869D+00    3    2    0
 0.144591922119001D+03 0.000000000000000D+00 0.000000000000000D+00 0.144591922119001D+03
 0.144591922119001D+03 0.000000000000000D+00 0.000000000000000D+00 -.144591922119001D+03
 0.160425766623282D+03 -.781650888421812D+02 0.599132446835592D+02 -.202989801332383D+02
 0.128758077614720D+03 0.781650888421812D+02 -.599132446835592D+02 0.202989801332383D+02
 0.000000000000000D+00 -.000000000000000D+00 -.000000000000000D+00 -.000000000000000D+00
 0.241485626072193D+03 0.000000000000000D+00 0.000000000000000D+00 0.241485626072193D+03
 0.315680271564455D+03 0.000000000000000D+00 0.000000000000000D+00 -.315680271564455D+03
 0.146656708114806D+03 0.147824631256755D+02 0.724749627427276D+02 -.202989801332383D+02
 0.202033232786057D+03 0.178288817948557D+03 -.463816773701803D+02 0.202989801332383D+02
 0.208475956735785D+03 -.193071281074232D+03 -.260932853725473D+02 -.741946454922623D+02
0.590908176516D-03 0.000000000000D+00 0.000000000000D+00 0.241201187392D-02 0.000000000000D+00  5 -1 2 25 24 21 0 0.99601550D-02 0.49681563D-01 0.20489671D+05 0.20489671D+05 0.20489671D+05 0.12326712D+01  1  2  2  1  5  1       -1 0.398940298995D+00 0.100000000000D+01
-.328241786078D-04 0.000000000000D+00 -.226924298752D-05 0.241201187392D-02 0.000000000000D+00  5 -1 2 25 24 21 2 0.99601550D-02 0.49681563D-01 0.20489671D+05 0.20489671D+05 0.20489671D+05 0.12326712D+01  1  2  3  1  5  1       -1 -.336725714773D-01 0.100000000000D+01
0.407689220624D-04 0.000000000000D+00 0.000000000000D+00 0.241201187392D-02 0.000000000000D+00  5 -1 2 25 24 21 2 0.99601550D-02 0.49681563D-01 0.20489671D+05 0.20489671D+05 0.20489671D+05 0.12326712D+01  1  2 15  1  5  1       -1 0.418226594061D-01 0.100000000000D+01
  </mgrwgt>
  </event>
  <event>
  4     66 0.45252658E-03 0.11748614E+03 0.75467711E-02 0.11866674E+00
       -1 -1    0    0    0  501 0.00000000E+00 0.00000000E+00 0.89127894E+02 0.89128469E+02 0.32000000E+00 0.0000E+00 0.9000E+01
        2 -1    0    0  501    0 0.00000000E+00 0.00000000E+00 -.18240327E+03 0.18240355E+03 0.32000000E+00 0.0000E+00 0.9000E+01
       25  1    1    2    0    0 -.21715688E+02 -.51624173E+02 -.10533712E+03 0.17279333E+03 0.12500000E+03 0.0000E+00 0.9000E+01
       24  1    1    2    0    0 0.21715688E+02 0.51624173E+02 0.12061748E+02 0.98738686E+02 0.80419002E+02 0.0000E+00 0.9000E+01
#aMCatNLO 1  0  0  1  2 0.76164644D+02 0.00000000D+00  -5  5  0 0.00000000D+00 0.00000000D+00 0.00000000D+00 0.00000000D+00 0.00000000D+00
  <mgrwgt>
 0.4132773159D+00    3    2    0
 0.127504256591550D+03 0.000000000000000D+00 0.000000000000000D+00 0.127504256591550D+03
 0.127504256591550D+03 0.000000000000000D+00 0.000000000000000D+00 -.127504256591550D+03
 0.145460096440422D+03 -.217156879548246D+02 -.516241732918608D+02 -.489593023340562D+02
 0.109548416742678D+03 0.217156879548246D+02 0.516241732918608D+02 0.489593023340562D+02
 0.000000000000000D+00 -.000000000000000D+00 -.000000000000000D+00 -.000000000000000D+00
 0.135574334409038D+03 0.000000000000000D+00 0.000000000000000D+00 0.135574334409038D+03
 0.712148432007652D+03 0.000000000000000D+00 0.000000000000000D+00 -.712148432007652D+03
 0.136516422805930D+03 0.828311831505261D+01 -.233690042934809D+02 -.489593023340562D+02
 0.129623380412219D+03 0.471606024010510D+02 0.755901388492758D+02 0.489593023340562D+02
 0.581582963198541D+03 -.554437207161036D+02 -.522211345557949D+02 -.576574097598614D+03
0.539563918791D-03 0.000000000000D+00 0.000000000000D+00 0.231194645665D-02 0.000000000000D+00  5 -1 2 25 24 21 0 0.13712050D-01 0.28062107D-01 0.13802993D+05 0.13802993D+05 0.13802993D+05 0.12519612D+01  1  2  2  1  5  1       -1 0.404545431122D+00 0.100000000000D+01
-.297317280309D-04 0.000000000000D+00 -.207206751860D-05 0.231194645665D-02 0.000000000000D+00  5 -1 2 25 24 21 2 0.13712050D-01 0.28062107D-01 0.13802993D+05 0.13802993D+05 0.13802993D+05 0.12519612D+01  1  2  3  1  5  1       -1 -.349402707624D-01 0.100000000000D+01
0.371619515834D-04 0.000000000000D+00 0.000000000000D+00 0.231194645665D-02 0.000000000000D+00  5 -1 2 25 24 21 2 0.13712050D-01 0.28062107D-01 0.13802993D+05 0.13802993D+05 0.13802993D+05 0.12519612D+01  1  2 15  1  5  1       -1 0.436721555179D-01 0.100000000000D+01
  </mgrwgt>
  </event>
  <event>
  4     66 0.45252658E-03 0.11101532E+03 0.75467711E-02 0.11492391E+00
       -1 -1    0    0    0  501 0.00000000E+00 0.00000000E+00 0.23388469E+03 0.23388490E+03 0.32000000E+00 0.0000E+00 0.9000E+01
        2 -1    0    0  501    0 0.00000000E+00 0.00000000E+00 -.57524112E+02 0.57525002E+02 0.32000000E+00 0.0000E+00 0.9000E+01
       25  1    1    2    0    0 0.37748559E+02 0.16692462E+02 0.61636098E+02 0.14535336E+03 0.12500000E+03 0.0000E+00 0.9000E+01
       24  1    1    2    0    0 -.37748559E+02 -.16692462E+02 0.11472448E+03 0.14605654E+03 0.80419002E+02 0.0000E+00 0.9000E+01
#aMCatNLO 1  0  0  2  2 0.13942936D+03 0.00000000D+00  -5  5  0 0.00000000D+00 0.00000000D+00 0.00000000D+00 0.00000000D+00 0.00000000D+00
  <mgrwgt>
 0.3111698161D+00    5    2    0
 0.115992113226153D+03 0.000000000000000D+00 0.000000000000000D+00 0.115992113226153D+03
 0.115992113226153D+03 0.000000000000000D+00 0.000000000000000D+00 -.115992113226153D+03
 0.135730058744428D+03 0.377485592251780D+02 0.166924615431666D+02 -.330765302112976D+02
 0.962541677078779D+02 -.377485592251780D+02 -.166924615431666D+02 0.330765302112976D+02
 0.000000000000000D+00 -.000000000000000D+00 0.000000000000000D+00 -.000000000000000D+00
 0.189623151864029D+03 0.000000000000000D+00 0.000000000000000D+00 0.189623151864029D+03
 0.224847520650948D+03 0.000000000000000D+00 0.000000000000000D+00 -.224847520650948D+03
 0.171588958048064D+03 0.108492191638537D+03 -.308732574677214D+02 -.330765302112976D+02
 0.990717646755055D+02 0.721470437479962D+01 -.469242985191423D+02 0.330765302112976D+02
 0.143809949791408D+03 -.115706896013337D+03 0.777975559868637D+02 -.352243687869181D+02
0.446852029811D-03 0.000000000000D+00 0.000000000000D+00 0.266578421131D-02 0.000000000000D+00  5 -1 2 25 24 21 0 0.35982345D-01 0.88499486D-02 0.12324400D+05 0.12324400D+05 0.12324400D+05 0.12576687D+01  1  2  2  2  5  2        2 0.266002514371D+00 0.100000000000D+01
-.247670641732D-04 0.000000000000D+00 -.171602945332D-05 0.266578421131D-02 0.000000000000D+00  5 -1 2 25 24 21 2 0.35982345D-01 0.88499486D-02 0.12324400D+05 0.12324400D+05 0.12324400D+05 0.12576687D+01  1  2  3  2  5  2        2 -.233200256230D-01 0.100000000000D+01
0.309190378714D-04 0.000000000000D+00 0.000000000000D+00 0.266578421131D-02 0.000000000000D+00  5 -1 2 25 24 21 2 0.35982345D-01 0.88499486D-02 0.12324400D+05 0.12324400D+05 0.12324400D+05 0.12576687D+01  1  2 15  2  5  2        2 0.291125645881D-01 0.100000000000D+01
0.652026160780D-04 0.000000000000D+00 -.178261297896D-03 0.266578421131D-02 0.000000000000D+00  5 -1 2 25 24 21 2 0.35982345D-01 0.27571533D-01 0.12324400D+05 0.12324400D+05 0.12324400D+05 0.12576687D+01  1  2  5  2  5  2        2 0.164551871151D-01 0.100000000000D+01
0.167255906883D-04 0.000000000000D+00 -.232132303985D-04 0.266578421131D-02 0.000000000000D+00  5 -1 21 25 24 -2 2 0.35982345D-01 0.27571533D-01 0.12324400D+05 0.12324400D+05 0.12324400D+05 0.12576687D+01  1  2  5  4  5  2        2 0.229195756944D-01 0.100000000000D+01
  </mgrwgt>
  </event>
  <event>
  4     66 0.45252658E-03 0.11404080E+03 0.75467711E-02 0.12497110E+00
       -3 -1    0    0    0  501 0.00000000E+00 0.00000000E+00 0.93034040E+03 0.93034054E+03 0.50000000E+00 0.0000E+00 0.9000E+01
        4 -1    0    0  501    0 0.00000000E+00 0.00000000E+00 -.14508302E+02 0.14590864E+02 0.15500000E+01 0.0000E+00 0.9000E+01
       25  1    1    2    0    0 0.46952531E+02 -.12557428E+02 0.62757118E+03 0.64174202E+03 0.12500000E+03 0.0000E+00 0.9000E+01
       24  1    1    2    0    0 -.46952531E+02 0.12557428E+02 0.28826092E+03 0.30318938E+03 0.80419002E+02 0.0000E+00 0.9000E+01
#aMCatNLO 1  0  0  2  2 0.40431086D+01 0.00000000D+00  -5  5  0 0.00000000D+00 0.00000000D+00 0.00000000D+00 0.00000000D+00 0.00000000D+00
  <mgrwgt>
 0.1032493032D+00    6    2    0
 0.116347450486041D+03 0.000000000000000D+00 0.000000000000000D+00 0.116347450486041D+03
 0.116347450486041D+03 0.000000000000000D+00 0.000000000000000D+00 -.116347450486041D+03
 0.136025114258158D+03 0.469525305690191D+02 -.125574281786988D+02 0.227068839704440D+02
 0.966697867139242D+02 -.469525305690191D+02 0.125574281786988D+02 -.227068839704440D+02
 0.000000000000000D+00 -.000000000000000D+00 0.000000000000000D+00 0.000000000000000D+00
 0.121071306923395D+03 0.000000000000000D+00 0.000000000000000D+00 0.121071306923395D+03
 0.117233355237570D+03 0.000000000000000D+00 0.000000000000000D+00 -.117233355237570D+03
 0.136352500983976D+03 0.472135621288952D+02 -.149091078216929D+02 0.227068839704440D+02
 0.963775221449748D+02 -.467675247633235D+02 0.108906780458926D+02 -.227068839704440D+02
 0.557463903201393D+01 -.446037365571668D+00 0.401842977580035D+01 0.383795168582517D+01
0.112477152153D-02 0.000000000000D+00 0.000000000000D+00 0.276413460899D-02 0.000000000000D+00  5 -3 4 25 24 21 0 0.14313565D+00 0.22384078D-02 0.13005304D+05 0.13005304D+05 0.13005304D+05 0.12549498D+01  1  2  2  2  5  2        4 0.708269907536D-01 0.100000000000D+01
-.624568415050D-04 0.000000000000D+00 -.431941880181D-05 0.276413460899D-02 0.000000000000D+00  5 -3 4 25 24 21 2 0.14313565D+00 0.22384078D-02 0.13005304D+05 0.13005304D+05 0.13005304D+05 0.12549498D+01  1  2  3  2  5  2        4 -.619394267569D-02 0.100000000000D+01
0.779151788146D-04 0.000000000000D+00 0.000000000000D+00 0.276413460899D-02 0.000000000000D+00  5 -3 4 25 24 21 2 0.14313565D+00 0.22384078D-02 0.13005304D+05 0.13005304D+05 0.13005304D+05 0.12549498D+01  1  2 15  2  5  2        4 0.772697016876D-02 0.100000000000D+01
-.953436586099D-03 0.000000000000D+00 0.000000000000D+00 0.276413460899D-02 0.000000000000D+00  5 -3 4 25 24 21 2 0.14313565D+00 0.22384078D-02 0.13005304D+05 0.13005304D+05 0.13005304D+05 0.12549498D+01  1  2  4  2  5  2        4 -.945537977410D-01 0.100000000000D+01
0.905949295309D-03 0.000000000000D+00 0.000000000000D+00 0.276413460899D-02 0.141748154746D-02  5 -3 4 25 24 21 2 0.14894715D+00 0.22554517D-02 0.13474107D+05 0.13474107D+05 0.13474107D+05 0.12531692D+01  1  2 11  2  5  2        4 0.805332900612D-01 0.100000000000D+01
0.169653266363D-04 0.000000000000D+00 0.000000000000D+00 0.276413460899D-02 0.203835597755D-05  5 -3 21 25 24 -4 2 0.14894715D+00 0.22554517D-02 0.13474107D+05 0.13474107D+05 0.13474107D+05 0.12531692D+01  1  2 11  4  5  2        4 0.449097926018D-01 0.100000000000D+01
  </mgrwgt>
  </event>
  <event>
  4     66 0.45252658E-03 0.61336805E+02 0.75467711E-02 0.11782724E+00
       -1 -1    0    0    0  501 0.00000000E+00 0.00000000E+00 0.16999730E+02 0.17002742E+02 0.32000000E+00 0.0000E+00 0.9000E+01
        2 -1    0    0  501    0 0.00000000E+00 0.00000000E+00 -.11086348E+04 0.11086348E+04 0.32000000E+00 0.0000E+00 0.9000E+01
       25  1    1    2    0    0 0.84153468E+02 0.26920012E+02 -.54429392E+03 0.56540903E+03 0.12500000E+03 0.0000E+00 0.9000E+01
       24  1    1    2    0    0 -.84153468E+02 -.26920012E+02 -.54734111E+03 0.56022853E+03 0.80419002E+02 0.0000E+00 0.9000E+01
#aMCatNLO 1  0  0  1  2 0.60162390D+02 0.00000000D+00  -5  5  0 0.00000000D+00 0.00000000D+00 0.00000000D+00 0.00000000D+00 0.00000000D+00
  <mgrwgt>
 0.5664689253D-01    7    2    0
 0.137288794692814D+03 0.000000000000000D+00 0.000000000000000D+00 0.137288794692814D+03
 0.137288794692814D+03 0.000000000000000D+00 0.000000000000000D+00 -.137288794692814D+03
 0.153964926321255D+03 0.841534678817053D+02 0.269200122864526D+02 0.165440418002808D+02
 0.120612663064373D+03 -.841534678817053D+02 -.269200122864526D+02 -.165440418002808D+02
 0.000000000000000D+00 -.000000000000000D+00 -.000000000000000D+00 0.000000000000000D+00
 0.472651533165198D+03 0.000000000000000D+00 0.000000000000000D+00 0.472651533165198D+03
 0.143270360030821D+03 0.000000000000000D+00 0.000000000000000D+00 -.143270360030821D+03
 0.173032254242659D+03 0.104477918842322D+03 0.559090347223394D+02 0.165440418002808D+02
 0.108059129032309D+03 -.699404137613900D+02 -.664775275163531D+01 -.165440418002808D+02
 0.334830509921051D+03 -.345375050809323D+02 -.492612819707041D+02 0.329381173134377D+03
0.301795734946D-03 0.000000000000D+00 0.000000000000D+00 0.249721127186D-02 0.000000000000D+00  5 -1 2 25 24 21 0 0.26155784D-02 0.17055943D+00 0.18570347D+05 0.18570347D+05 0.18570347D+05 0.12373879D+01  1  2  2  1  5  1       -1 0.345862770824D+00 0.100000000000D+01
-.167653055388D-04 0.000000000000D+00 -.115897508683D-05 0.249721127186D-02 0.000000000000D+00  5 -1 2 25 24 21 2 0.26155784D-02 0.17055943D+00 0.18570347D+05 0.18570347D+05 0.18570347D+05 0.12373879D+01  1  2  3  1  5  1       -1 -.294180536307D-01 0.100000000000D+01
0.208230653000D-04 0.000000000000D+00 0.000000000000D+00 0.249721127186D-02 0.000000000000D+00  5 -1 2 25 24 21 2 0.26155784D-02 0.17055943D+00 0.18570347D+05 0.18570347D+05 0.18570347D+05 0.12373879D+01  1  2 15  1  5  1       -1 0.365381979071D-01 0.100000000000D+01
0.125369672087D-02 0.000000000000D+00 0.000000000000D+00 0.249721127186D-02 0.000000000000D+00  5 -1 2 25 24 21 2 0.88845885D-02 0.17055943D+00 0.28761969D+05 0.28761969D+05 0.28761969D+05 0.12168240D+01  1  2 12  1  5  1       -1 0.348868613703D+00 0.100000000000D+01
-.162350349640D-02 0.000000000000D+00 -.945770101835D-04 0.249721127186D-02 0.000000000000D+00  5 -1 2 25 24 21 2 0.93533246D-02 0.17055943D+00 0.18570347D+05 0.18570347D+05 0.18570347D+05 0.12373879D+01  1  2  5  1  5  1       -1 -.431476566679D+00 0.100000000000D+01
0.178446356367D-03 0.000000000000D+00 0.000000000000D+00 0.249721127186D-02 0.000000000000D+00  5 21 2 25 24 1 2 0.88845885D-02 0.17055943D+00 0.28761969D+05 0.28761969D+05 0.28761969D+05 0.12168240D+01  1  2 12  3  5  1       -1 0.763415450785D+00 0.100000000000D+01
-.240143498262D-03 0.000000000000D+00 -.141489717476D-04 0.249721127186D-02 0.000000000000D+00  5 21 2 25 24 1 2 0.93533246D-02 0.17055943D+00 0.18570347D+05 0.18570347D+05 0.18570347D+05 0.12373879D+01  1  2  5  3  5  1       -1 -.977143520383D+00 0.100000000000D+01
  </mgrwgt>
  </event>
  <event>
  4     66 0.45252658E-03 0.21215000E+03 0.75467711E-02 0.11153026E+00
       -1 -1    0    0    0  501 0.00000000E+00 0.00000000E+00 0.54422440E+02 0.54423381E+02 0.32000000E+00 0.0000E+00 0.9000E+01
        2 -1    0    0  501    0 0.00000000E+00 0.00000000E+00 -.87537505E+03 0.87537511E+03 0.32000000E+00 0.0000E+00 0.9000E+01
       25  1    1    2    0    0 -.15039067E+03 0.10705428E+03 -.32104447E+03 0.39086126E+03 0.12500000E+03 0.0000E+00 0.9000E+01
       24  1    1    2    0    0 0.15039067E+03 -.10705428E+03 -.49990814E+03 0.53893723E+03 0.80419002E+02 0.0000E+00 0.9000E+01
#aMCatNLO 1  0  0  1  2 0.64585151D+02 0.00000000D+00  -5  5  0 0.00000000D+00 0.00000000D+00 0.00000000D+00 0.00000000D+00 0.00000000D+00
  <mgrwgt>
 0.4677462233D+00    4    2    0
 0.218267062377028D+03 0.000000000000000D+00 0.000000000000000D+00 0.218267062377028D+03
 0.218267062377028D+03 0.000000000000000D+00 0.000000000000000D+00 -.218267062377028D+03
 0.228756258440210D+03 -.150390671381665D+03 0.107054278617474D+03 0.512489333218596D+02
 0.207777866313846D+03 0.150390671381665D+03 -.107054278617474D+03 -.512489333218596D+02
 0.000000000000000D+00 -.000000000000000D+00 0.000000000000000D+00 -.000000000000000D+00
 0.226707104874110D+03 0.000000000000000D+00 0.000000000000000D+00 0.226707104874110D+03
 0.392606615531125D+03 0.000000000000000D+00 0.000000000000000D+00 -.392606615531125D+03
 0.204056250975823D+03 -.126305766328229D+03 0.862226987974672D+02 0.512489333218596D+02
 0.237229692409281D+03 0.175154199622493D+03 -.128472815000711D+03 -.512489333218596D+02
 0.178027777020129D+03 -.488484332942646D+02 0.422501162032442D+02 -.165899510657015D+03
0.167680225650D-02 0.000000000000D+00 0.000000000000D+00 0.200551718190D-02 0.000000000000D+00  5 -1 2 25 24 21 0 0.83727599D-02 0.13467316D+00 0.45007621D+05 0.45007621D+05 0.45007621D+05 0.11968328D+01  1  2  2  1  5  1       -1 0.480085449340D+00 0.100000000000D+01
-.930641607831D-04 0.000000000000D+00 -.643936217714D-05 0.200551718190D-02 0.000000000000D+00  5 -1 2 25 24 21 2 0.83727599D-02 0.13467316D+00 0.45007621D+05 0.45007621D+05 0.45007621D+05 0.11968328D+01  1  2  3  1  5  1       -1 -.381668317229D-01 0.100000000000D+01
0.114759533386D-03 0.000000000000D+00 0.000000000000D+00 0.200551718190D-02 0.000000000000D+00  5 -1 2 25 24 21 2 0.83727599D-02 0.13467316D+00 0.45007621D+05 0.45007621D+05 0.45007621D+05 0.11968328D+01  1  2 15  1  5  1       -1 0.470643882937D-01 0.100000000000D+01
-.517827460521D-04 0.000000000000D+00 0.000000000000D+00 0.200551718190D-02 0.000000000000D+00  5 -1 2 25 24 21 2 0.83727599D-02 0.13467316D+00 0.45007621D+05 0.45007621D+05 0.45007621D+05 0.11968328D+01  1  2  4  1  5  1       -1 -.212367826464D-01 0.100000000000D+01
  </mgrwgt>
  </event>
  <event>
  5     66 0.45252658E-03 0.10616447E+03 0.75467711E-02 0.11943788E+00
       -1 -1    0    0    0  501 0.00000000E+00 0.00000000E+00 0.18606789E+02 0.18609540E+02 0.32000000E+00 0.0000E+00 0.9000E+01
        2 -1    0    0  502    0 0.00000000E+00 0.00000000E+00 -.25081632E+04 0.25081632E+04 0.32000000E+00 0.0000E+00 0.9000E+01
       25  1    1    2    0    0 0.23401693E+02 -.42551783E+02 -.33656637E+03 0.36229852E+03 0.12500000E+03 0.0000E+00 0.9000E+01
       24  1    1    2    0    0 0.48103930E+02 0.17826321E+01 -.45825945E+03 0.46774577E+03 0.80419002E+02 0.0000E+00 0.9000E+01
       21  1    1    2  502  501 -.71505622E+02 0.40769151E+02 -.16947305E+04 0.16967284E+04 0.75000000E+00 0.0000E+00 0.9000E+01
#aMCatNLO 2  0  0  2  1 0.82311468D+02 0.00000000D+00  -5  5  0 0.00000000D+00 0.00000000D+00 0.00000000D+00 0.00000000D+00 0.00000000D+00
  <mgrwgt>
 0.1131716514D+00    2    2    0
 0.112305671463175D+03 0.000000000000000D+00 0.000000000000000D+00 0.112305671463175D+03
 0.112305671463175D+03 0.000000000000000D+00 0.000000000000000D+00 -.112305671463175D+03
 0.132691516466186D+03 -.184579766250069D+02 -.186853637110811D+02 0.359471671205308D+02
 0.919198264601636D+02 0.184579766250069D+02 0.186853637110811D+02 -.359471671205308D+02
 0.000000000000000D+00 -.000000000000000D+00 0.000000000000000D+00 -.000000000000000D+00
 0.126393893460460D+03 0.000000000000000D+00 0.000000000000000D+00 0.126393893460460D+03
 0.369258179438088D+03 0.000000000000000D+00 0.000000000000000D+00 -.369258179438088D+03
 0.138836206817383D+03 0.234016926873309D+02 -.425517834974692D+02 0.359471671205308D+02
 0.100382172669674D+03 0.481039295108926D+02 0.178263208024410D+01 -.359471671205308D+02
 0.256433693411491D+03 -.715056221982235D+02 0.407691514172251D+02 -.242864285977627D+03
-.402590618199D-04 0.000000000000D+00 0.000000000000D+00 0.269563531988D-02 0.000000000000D+00  5 -1 2 25 24 21 2 0.25436903D-02 0.37361119D+00 0.24046442D+05 0.24046442D+05 0.24046442D+05 0.12251125D+01  1  2 13  2  5  2        2 -.146686847950D-01 0.100000000000D+01
0.459760639986D-03 0.000000000000D+00 0.000000000000D+00 0.269563531988D-02 0.601301651283D-05  5 -1 2 25 24 21 2 0.28627843D-02 0.38586987D+00 0.24046442D+05 0.24046442D+05 0.24046442D+05 0.12251125D+01  1  2  1  2  5  2        2 0.127840336198D+00 0.100000000000D+01
  </mgrwgt>
  </event>
  <event>
  5     66 0.45252658E-03 0.11074321E+03 0.75467711E-02 0.11725161E+00
       21 -1    0    0  502  501 0.00000000E+00 0.00000000E+00 0.26249401E+02 0.26260113E+02 0.75000000E+00 0.0000E+00 0.9000E+01
        2 -1    0    0  501    0 0.00000000E+00 0.00000000E+00 -.32652119E+04 0.32652119E+04 0.32000000E+00 0.0000E+00 0.9000E+01
       25  1    1    2    0    0 0.25566996E+02 -.21827878E+02 -.19431049E+04 0.19474115E+04 0.12500000E+03 0.0000E+00 0.9000E+01
       24  1    1    2    0    0 0.79499331E+02 0.25251007E+02 -.11873220E+04 0.11929621E+04 0.80419002E+02 0.0000E+00 0.9000E+01
        1  1    1    2  502    0 -.10506633E+03 -.34231287E+01 -.10853564E+03 0.15109844E+03 0.32000000E+00 0.0000E+00 0.9000E+01
#aMCatNLO 2  0  0  1  2 0.10512208D+03 0.00000000D+00  -5  5  0 0.00000000D+00 0.00000000D+00 0.00000000D+00 0.00000000D+00 0.00000000D+00
  <mgrwgt>
 0.5649471258D+00    2    2    0
 0.113273245808221D+03 0.000000000000000D+00 0.000000000000000D+00 0.113273245808221D+03
 0.113273245808221D+03 0.000000000000000D+00 0.000000000000000D+00 -.113273245808221D+03
 0.133484955952764D+03 -.328953817551139D+02 -.237326200127627D+02 -.234070517628013D+02
 0.930615356636772D+02 0.328953817551139D+02 0.237326200127627D+02 0.234070517628013D+02
 0.000000000000000D+00 -.000000000000000D+00 -.000000000000000D+00 0.000000000000000D+00
 0.659218354721807D+03 0.000000000000000D+00 0.000000000000000D+00 0.659218354721807D+03
 0.130044090734334D+03 0.000000000000000D+00 0.000000000000000D+00 -.130044090734334D+03
 0.131540935153197D+03 0.255669961186333D+02 -.218278780054546D+02 -.234070517628013D+02
 0.118206865007624D+03 0.794993306043590D+02 0.252510067480970D+02 0.234070517628013D+02
 0.539514645295320D+03 -.105066326722992D+03 -.342312874264248D+01 0.529174263987473D+03
-.127201751033D-05 0.000000000000D+00 0.000000000000D+00 0.282148493427D-02 0.000000000000D+00  5 21 2 25 24 1 2 0.37539285D-02 0.43755767D+00 0.30700272D+05 0.30700272D+05 0.30700272D+05 0.12138481D+01  1  2 13  3  5  1       -1 -.278354114054D-02 0.100000000000D+01
0.519980123537D-03 0.000000000000D+00 0.000000000000D+00 0.282148493427D-02 0.159809366332D-05  5 21 2 25 24 1 2 0.40391932D-02 0.50234095D+00 0.30700272D+05 0.30700272D+05 0.30700272D+05 0.12138481D+01  1  2  1  3  5  1       -1 0.567730666959D+00 0.100000000000D+01
  </mgrwgt>
  </event>
  <event>
  4     66 0.45252658E-03 0.44046150E+02 0.75467711E-02 0.12317719E+00
       -1 -1    0    0    0  501 0.00000000E+00 0.00000000E+00 0.32462614E+02 0.32464192E+02 0.32000000E+00 0.0000E+00 0.9000E+01
        2 -1    0    0  501    0 0.00000000E+00 0.00000000E+00 -.49106897E+03 0.49106907E+03 0.32000000E+00 0.0000E+00 0.9000E+01
       25  1    1    2    0    0 0.39966962E+02 0.42651828E+02 -.35038780E+03 0.37658086E+03 0.12500000E+03 0.0000E+00 0.9000E+01
       24  1    1    2    0    0 -.39966962E+02 -.42651828E+02 -.10821855E+03 0.14695240E+03 0.80419002E+02 0.0000E+00 0.9000E+01
#aMCatNLO 1  0  0  1  2 0.16219044D+02 0.00000000D+00  -5  5  0 0.00000000D+00 0.00000000D+00 0.00000000D+00 0.00000000D+00 0.00000000D+00
  <mgrwgt>
 0.3457686697D+00    9    2    0
 0.126260930865743D+03 0.000000000000000D+00 0.000000000000000D+00 0.126260930865743D+03
 0.126260930865743D+03 0.000000000000000D+00 0.000000000000000D+00 -.126260930865743D+03
 0.144393586753112D+03 0.399669620382890D+02 0.426518282705407D+02 -.425202467777260D+02
 0.108128274978375D+03 -.399669620382890D+02 -.426518282705407D+02 0.425202467777260D+02
 0.000000000000000D+00 -.000000000000000D+00 0.000000000000000D+00 0.000000000000000D+00
 0.176855777489723D+03 0.000000000000000D+00 0.000000000000000D+00 0.176855777489723D+03
 0.127827634499250D+03 0.000000000000000D+00 0.000000000000000D+00 -.127827634499250D+03
 0.142426584239914D+03 0.415271577744835D+02 0.335835626368576D+02 -.425202467777260D+02
 0.110615602044360D+03 -.387770761837901D+02 -.495677560301406D+02 0.425202467777260D+02
 0.516412257046989D+02 -.275008159069341D+01 0.159841933932829D+02 0.490281429904735D+02
0.242327749300D-03 0.000000000000D+00 0.000000000000D+00 0.240928690502D-02 0.000000000000D+00  5 -1 2 25 24 21 0 0.49943777D-02 0.75549201D-01 0.14090656D+05 0.14090656D+05 0.14090656D+05 0.12509307D+01  1  2  2  1  5  1       -1 0.290290018426D+00 0.100000000000D+01
-.134003047119D-04 0.000000000000D+00 -.930602363674D-06 0.240928690502D-02 0.000000000000D+00  5 -1 2 25 24 21 2 0.49943777D-02 0.75549201D-01 0.14090656D+05 0.14090656D+05 0.14090656D+05 0.12509307D+01  1  2  3  1  5  1       -1 -.251194520577D-01 0.100000000000D+01
0.167561443011D-04 0.000000000000D+00 0.000000000000D+00 0.240928690502D-02 0.000000000000D+00  5 -1 2 25 24 21 2 0.49943777D-02 0.75549201D-01 0.14090656D+05 0.14090656D+05 0.14090656D+05 0.12509307D+01  1  2 15  1  5  1       -1 0.314101188361D-01 0.100000000000D+01
0.148741284871D-02 0.000000000000D+00 0.000000000000D+00 0.240928690502D-02 0.000000000000D+00  5 -1 2 25 24 21 2 0.70173324D-02 0.75549201D-01 0.16162964D+05 0.16162964D+05 0.16162964D+05 0.12441424D+01  1  2 12  1  5  1       -1 0.167230325085D+01 0.100000000000D+01
-.143102539943D-02 0.000000000000D+00 0.000000000000D+00 0.240928690502D-02 0.000000000000D+00  5 -1 2 25 24 21 2 0.49943777D-02 0.75549201D-01 0.14090656D+05 0.14090656D+05 0.14090656D+05 0.12509307D+01  1  2  4  1  5  1       -1 -.268251914319D+01 0.100000000000D+01
-.160147151334D-02 0.000000000000D+00 -.102315005058D-03 0.240928690502D-02 0.000000000000D+00  5 -1 2 25 24 21 2 0.70697571D-02 0.75549201D-01 0.14090656D+05 0.14090656D+05 0.14090656D+05 0.12509307D+01  1  2  5  1  5  1       -1 -.179247302102D+01 0.100000000000D+01
0.154846381747D-02 0.000000000000D+00 0.964332629375D-04 0.240928690502D-02 0.000000000000D+00  5 -1 2 25 24 21 2 0.49943777D-02 0.75549201D-01 0.14090656D+05 0.14090656D+05 0.14090656D+05 0.12509307D+01  1  2  6  1  5  1       -1 0.290266254852D+01 0.100000000000D+01
0.629346141348D-04 0.000000000000D+00 0.000000000000D+00 0.240928690502D-02 0.000000000000D+00  5 21 2 25 24 1 2 0.70173324D-02 0.75549201D-01 0.16162964D+05 0.16162964D+05 0.16162964D+05 0.12441424D+01  1  2 12  3  5  1       -1 0.115588188302D+01 0.100000000000D+01
-.659629932999D-04 0.000000000000D+00 -.439719881047D-05 0.240928690502D-02 0.000000000000D+00  5 21 2 25 24 1 2 0.70697571D-02 0.75549201D-01 0.14090656D+05 0.14090656D+05 0.14090656D+05 0.12509307D+01  1  2  5  3  5  1       -1 -.120666753373D+01 0.100000000000D+01
  </mgrwgt>
  </event>
  <event>
  4     66 0.45252658E-03 0.15402211E+03 0.75467711E-02 0.10918218E+00
       -1 -1    0    0    0  501 0.00000000E+00 0.00000000E+00 0.14837757E+03 0.14837791E+03 0.32000000E+00 0.0000E+00 0.9000E+01
        2 -1    0    0  501    0 0.00000000E+00 0.00000000E+00 -.18870657E+03 0.18870684E+03 0.32000000E+00 0.0000E+00 0.9000E+01
       25  1    1    2    0    0 0.57553316E+02 -.97904390E+02 0.43799106E+02 0.17447354E+03 0.12500000E+03 0.0000E+00 0.9000E+01
       24  1    1    2    0    0 -.57553316E+02 0.97904390E+02 -.84128109E+02 0.16261122E+03 0.80419002E+02 0.0000E+00 0.9000E+01
#aMCatNLO 1  0  0  2  1 0.20713188D+03 0.00000000D+00  -5  5  0 0.00000000D+00 0.00000000D+00 0.00000000D+00 0.00000000D+00 0.00000000D+00
  <mgrwgt>
 0.4265250055D+00    3    2    0
 0.167331784570170D+03 0.000000000000000D+00 0.000000000000000D+00 0.167331784570170D+03
 0.167331784570170D+03 0.000000000000000D+00 0.000000000000000D+00 -.167331784570170D+03
 0.181013859480733D+03 0.575533157765997D+02 -.979043897386933D+02 0.651411055872071D+02
 0.153649709659606D+03 -.575533157765997D+02 0.979043897386933D+02 -.651411055872071D+02
 0.000000000000000D+00 0.000000000000000D+00 0.000000000000000D+00 0.000000000000000D+00
 0.342958389499514D+03 0.000000000000000D+00 0.000000000000000D+00 0.342958389499514D+03
 0.270168651236027D+03 0.000000000000000D+00 0.000000000000000D+00 -.270168651236027D+03
 0.268443649718129D+03 0.412683999389889D+02 -.224701020476859D+03 0.651411055872071D+02
 0.125133940674410D+03 -.676543112871289D+02 0.192566269496195D+02 -.651411055872071D+02
 0.219549450343001D+03 0.263859113481401D+02 0.205444393527239D+03 0.727897382634867D+02
0.127931456538D-02 0.000000000000D+00 0.000000000000D+00 0.197089718923D-02 0.000000000000D+00  5 -1 2 25 24 21 0 0.22827366D-01 0.29031828D-01 0.23722811D+05 0.23722811D+05 0.23722811D+05 0.12257468D+01  1  2  2  2  5  2        2 0.417836088645D+00 0.100000000000D+01
-.704794081788D-04 0.000000000000D+00 -.491290478231D-05 0.197089718923D-02 0.000000000000D+00  5 -1 2 25 24 21 2 0.22827366D-01 0.29031828D-01 0.23722811D+05 0.23722811D+05 0.23722811D+05 0.12257468D+01  1  2  3  2  5  2        2 -.345853692380D-01 0.100000000000D+01
0.881860202220D-04 0.000000000000D+00 0.000000000000D+00 0.197089718923D-02 0.000000000000D+00  5 -1 2 25 24 21 2 0.22827366D-01 0.29031828D-01 0.23722811D+05 0.23722811D+05 0.23722811D+05 0.12257468D+01  1  2 15  2  5  2        2 0.432742860620D-01 0.100000000000D+01
  </mgrwgt>
  </event>
  <event>
  4     66 0.45252658E-03 0.12585611E+03 0.75467711E-02 0.11022203E+00
       -1 -1    0    0    0  501 0.00000000E+00 0.00000000E+00 0.46281762E+02 0.46282868E+02 0.32000000E+00 0.0000E+00 0.9000E+01
        2 -1    0    0  501    0 0.00000000E+00 0.00000000E+00 -.34243174E+03 0.34243189E+03 0.32000000E+00 0.0000E+00 0.9000E+01
       25  1    1    2    0    0 -.18127019E+01 -.71563112E+02 -.16492674E+03 0.21897578E+03 0.12500000E+03 0.0000E+00 0.9000E+01
       24  1    1    2    0    0 0.18127019E+01 0.71563112E+02 -.13122325E+03 0.16973898E+03 0.80419002E+02 0.0000E+00 0.9000E+01
#aMCatNLO 1  0  0  2  2 0.20933944D+03 0.00000000D+00  -5  5  0 0.00000000D+00 0.00000000D+00 0.00000000D+00 0.00000000D+00 0.00000000D+00
  <mgrwgt>
 0.4586918566D+00    3    2    0
 0.125891177182244D+03 0.000000000000000D+00 0.000000000000000D+00 0.125891177182244D+03
 0.125891177182244D+03 0.000000000000000D+00 0.000000000000000D+00 -.125891177182244D+03
 0.144077090306982D+03 -.181270194215321D+01 -.715631120384969D+02 0.293990788305395D+01
 0.107705264057505D+03 0.181270194215321D+01 0.715631120384969D+02 -.293990788305395D+01
 0.000000000000000D+00 -.000000000000000D+00 -.000000000000000D+00 0.000000000000000D+00
 0.550736213415253D+03 0.000000000000000D+00 0.000000000000000D+00 0.550736213415253D+03
 0.192028572252264D+03 0.000000000000000D+00 0.000000000000000D+00 -.192028572252264D+03
 0.133694480475930D+03 0.438417676599076D+02 0.178457406633277D+02 0.293990788305395D+01
 0.193746129495352D+03 0.513591816076828D+02 0.168594003885926D+03 -.293990788305395D+01
 0.415324175696234D+03 -.952009492675904D+02 -.186439744549253D+03 0.358707641162988D+03
0.430128737499D-03 0.000000000000D+00 0.000000000000D+00 0.268017347773D-02 0.000000000000D+00  5 -1 2 25 24 21 0 0.71203677D-02 0.52681903D-01 0.15839761D+05 0.15839761D+05 0.15839761D+05 0.12451346D+01  1  2  2  2  5  2        2 0.449393668360D+00 0.100000000000D+01
-.238960387176D-04 0.000000000000D+00 -.165180760749D-05 0.268017347773D-02 0.000000000000D+00  5 -1 2 25 24 21 2 0.71203677D-02 0.52681903D-01 0.15839761D+05 0.15839761D+05 0.15839761D+05 0.12451346D+01  1  2  3  2  5  2        2 -.387067739156D-01 0.100000000000D+01
0.296363741303D-04 0.000000000000D+00 0.000000000000D+00 0.268017347773D-02 0.000000000000D+00  5 -1 2 25 24 21 2 0.71203677D-02 0.52681903D-01 0.15839761D+05 0.15839761D+05 0.15839761D+05 0.12451346D+01  1  2 15  2  5  2        2 0.480049621069D-01 0.100000000000D+01
  </mgrwgt>
  </event>
  <event>
  4     66 0.45252658E-03 0.22371563E+03 0.75467711E-02 0.10959869E+00
       -1 -1    0    0    0  501 0.00000000E+00 0.00000000E+00 0.81913792E+02 0.81914417E+02 0.32000000E+00 0.0000E+00 0.9000E+01
        2 -1    0    0  501    0 0.00000000E+00 0.00000000E+00 -.66719075E+03 0.66719083E+03 0.32000000E+00 0.0000E+00 0.9000E+01
       25  1    1    2    0    0 -.41385452E+02 -.19337670E+03 -.19629349E+03 0.30539063E+03 0.12500000E+03 0.0000E+00 0.9000E+01
       24  1    1    2    0    0 0.41385452E+02 0.19337670E+03 -.38898347E+03 0.44371462E+03 0.80419002E+02 0.0000E+00 0.9000E+01
#aMCatNLO 1  0  0  1  2 0.10100822D+03 0.00000000D+00  -5  5  0 0.00000000D+00 0.00000000D+00 0.00000000D+00 0.00000000D+00 0.00000000D+00
  <mgrwgt>
 0.4295427330D+00    4    2    0
 0.233778501343131D+03 0.000000000000000D+00 0.000000000000000D+00 0.233778501343131D+03
 0.233778501343131D+03 0.000000000000000D+00 0.000000000000000D+00 -.233778501343131D+03
 0.243571728685481D+03 -.413854516773486D+02 -.193376699516326D+03 0.677855699132796D+02
 0.223985274000780D+03 0.413854516773486D+02 0.193376699516326D+03 -.677855699132796D+02
 0.000000000000000D+00 0.000000000000000D+00 0.000000000000000D+00 -.000000000000000D+00
 0.268799419955035D+03 0.000000000000000D+00 0.000000000000000D+00 0.268799419955035D+03
 0.325261796123683D+03 0.000000000000000D+00 0.000000000000000D+00 -.325261796123683D+03
 0.284749350720342D+03 -.817911290960284D+02 -.232749909663538D+03 0.677855699132796D+02
 0.193593843469907D+03 0.944925269722607D+01 0.162256551208499D+03 -.677855699132796D+02
 0.115718021888469D+03 0.723418763988023D+02 0.704933584550396D+02 -.564623761686479D+02
0.252156267125D-02 0.000000000000D+00 0.000000000000D+00 0.191790455342D-02 0.000000000000D+00  5 -1 2 25 24 21 0 0.12602176D-01 0.10264479D+00 0.50048682D+05 0.50048682D+05 0.50048682D+05 0.11922399D+01  1  2  2  1  5  1       -1 0.538943558435D+00 0.100000000000D+01
-.139757090112D-03 0.000000000000D+00 -.968346460031D-05 0.191790455342D-02 0.000000000000D+00  5 -1 2 25 24 21 2 0.12602176D-01 0.10264479D+00 0.50048682D+05 0.50048682D+05 0.50048682D+05 0.11922399D+01  1  2  3  1  5  1       -1 -.424594804152D-01 0.100000000000D+01
0.172841714747D-03 0.000000000000D+00 0.000000000000D+00 0.191790455342D-02 0.000000000000D+00  5 -1 2 25 24 21 2 0.12602176D-01 0.10264479D+00 0.50048682D+05 0.50048682D+05 0.50048682D+05 0.11922399D+01  1  2 15  1  5  1       -1 0.525108915503D-01 0.100000000000D+01
-.393181848328D-03 0.000000000000D+00 0.000000000000D+00 0.191790455342D-02 0.000000000000D+00  5 -1 2 25 24 21 2 0.12602176D-01 0.10264479D+00 0.50048682D+05 0.50048682D+05 0.50048682D+05 0.11922399D+01  1  2  4  1  5  1       -1 -.119452236558D+00 0.100000000000D+01
  </mgrwgt>
  </event>
  <event>
  4     66 0.45252658E-03 0.75239271E+02 0.75467711E-02 0.12185855E+00
       -3 -1    0    0    0  501 0.00000000E+00 0.00000000E+00 0.38332745E+02 0.38336006E+02 0.50000000E+00 0.0000E+00 0.9000E+01
        4 -1    0    0  501    0 0.00000000E+00 0.00000000E+00 -.78678189E+03 0.78678342E+03 0.15500000E+01 0.0000E+00 0.9000E+01
       25  1    1    2    0    0 0.66927709E+02 -.50568343E+02 -.13967881E+03 0.20535736E+03 0.12500000E+03 0.0000E+00 0.9000E+01
       24  1    1    2    0    0 -.66927709E+02 0.50568343E+02 -.60877034E+03 0.61976207E+03 0.80419002E+02 0.0000E+00 0.9000E+01
#aMCatNLO 1  0  0  2  1 0.55957961D+01 0.00000000D+00  -5  5  0 0.00000000D+00 0.00000000D+00 0.00000000D+00 0.00000000D+00 0.00000000D+00
  <mgrwgt>
 0.4184405072D-03   11    2    0
 0.173670621497432D+03 0.000000000000000D+00 0.000000000000000D+00 0.173670621497432D+03
 0.173670621497432D+03 0.000000000000000D+00 0.000000000000000D+00 -.173670621497432D+03
 0.186853311762873D+03 0.669277092170538D+02 -.505683433658443D+02 0.110691844798725D+03
 0.160487931231990D+03 -.669277092170538D+02 0.505683433658443D+02 -.110691844798725D+03
 0.000000000000000D+00 -.000000000000000D+00 -.000000000000000D+00 -.000000000000000D+00
 0.175186984406881D+03 0.000000000000000D+00 0.000000000000000D+00 0.175186984406881D+03
 0.178933546569609D+03 0.000000000000000D+00 0.000000000000000D+00 -.178933546569609D+03
 0.187360777932594D+03 0.694845522268522D+02 -.489721717345251D+02 0.110691844798725D+03
 0.160025537311272D+03 -.647377793235589D+02 0.519354605322792D+02 -.110691844798725D+03
 0.673421573262361D+01 -.474677290329329D+01 -.296328879775413D+01 -.374656216272743D+01
0.321014587251D-03 0.000000000000D+00 0.000000000000D+00 0.140216873729D-02 0.000000000000D+00  5 -3 4 25 24 21 0 0.58977137D-02 0.12104374D+00 0.17787914D+05 0.17787914D+05 0.17787914D+05 0.12394699D+01  1  2  2  2  5  2        4 0.600093785355D-02 0.100000000000D+01
-.163226087823D-04 0.000000000000D+00 -.123278054013D-05 0.140216873729D-02 0.000000000000D+00  5 -3 4 25 24 21 2 0.58977137D-02 0.12104374D+00 0.17787914D+05 0.17787914D+05 0.17787914D+05 0.12394699D+01  1  2  3  2  5  2        4 -.468765792706D-03 0.100000000000D+01
0.218267435166D-04 0.000000000000D+00 0.000000000000D+00 0.140216873729D-02 0.000000000000D+00  5 -3 4 25 24 21 2 0.58977137D-02 0.12104374D+00 0.17787914D+05 0.17787914D+05 0.17787914D+05 0.12394699D+01  1  2 15  2  5  2        4 0.626837956064D-03 0.100000000000D+01
0.556434663249D-03 0.000000000000D+00 0.000000000000D+00 0.140216873729D-02 0.000000000000D+00  5 -3 4 25 24 21 2 0.58977137D-02 0.12522974D+00 0.18540698D+05 0.18540698D+05 0.18540698D+05 0.12374650D+01  1  2 12  2  5  2        4 0.147131469578D-01 0.100000000000D+01
-.169681937513D-02 0.000000000000D+00 0.000000000000D+00 0.140216873729D-02 0.000000000000D+00  5 -3 4 25 24 21 2 0.58977137D-02 0.12104374D+00 0.17787914D+05 0.17787914D+05 0.17787914D+05 0.12394699D+01  1  2  4  2  5  2        4 -.487306220512D-01 0.100000000000D+01
-.991483280012D-02 0.000000000000D+00 -.129136957175D-02 0.140216873729D-02 0.000000000000D+00  5 -3 4 25 24 21 2 0.58977137D-02 0.12540473D+00 0.17787914D+05 0.17787914D+05 0.17787914D+05 0.12394699D+01  1  2  5  2  5  2        4 -.261357065776D+00 0.100000000000D+01
0.995511221051D-02 0.000000000000D+00 0.129056110142D-02 0.140216873729D-02 0.000000000000D+00  5 -3 4 25 24 21 2 0.58977137D-02 0.12104374D+00 0.17787914D+05 0.17787914D+05 0.17787914D+05 0.12394699D+01  1  2  6  2  5  2        4 0.285898910467D+00 0.100000000000D+01
0.114416958774D-02 0.000000000000D+00 0.000000000000D+00 0.140216873729D-02 0.365902932684D-03  5 -3 4 25 24 21 2 0.59492081D-02 0.12471185D+00 0.18540698D+05 0.18540698D+05 0.18540698D+05 0.12374650D+01  1  2 11  2  5  2        4 0.301388318593D-01 0.100000000000D+01
0.124950936661D-04 0.000000000000D+00 0.000000000000D+00 0.140216873729D-02 0.000000000000D+00  5 -3 21 25 24 -4 2 0.58977137D-02 0.12522974D+00 0.18540698D+05 0.18540698D+05 0.18540698D+05 0.12374650D+01  1  2 12  4  5  2        4 0.781855722806D-02 0.100000000000D+01
-.618620533728D-04 0.000000000000D+00 -.813286469837D-05 0.140216873729D-02 0.000000000000D+00  5 -3 21 25 24 -4 2 0.58977137D-02 0.12540473D+00 0.17787914D+05 0.17787914D+05 0.17787914D+05 0.12394699D+01  1  2  5  4  5  2        4 -.386916420471D-01 0.100000000000D+01
0.716856834686D-05 0.000000000000D+00 0.000000000000D+00 0.140216873729D-02 0.198123117975D-05  5 -3 21 25 24 -4 2 0.59492081D-02 0.12471185D+00 0.18540698D+05 0.18540698D+05 0.18540698D+05 0.12374650D+01  1  2 11  4  5  2        4 0.446931385288D-02 0.100000000000D+01
  </mgrwgt>
  </event>
  <event>
  4     66 0.45252658E-03 0.10506247E+03 0.75467711E-02 0.10298098E+00
       -1 -1    0    0    0  501 0.00000000E+00 0.00000000E+00 0.28438331E+02 0.28440132E+02 0.32000000E+00 0.0000E+00 0.9000E+01
        2 -1    0    0  501    0 0.00000000E+00 0.00000000E+00 -.47654782E+03 0.47654793E+03 0.32000000E+00 0.0000E+00 0.9000E+01
       25  1    1    2    0    0 0.10244249E+02 0.19024475E+02 -.36874221E+03 0.38995217E+03 0.12500000E+03 0.0000E+00 0.9000E+01
       24  1    1    2    0    0 -.10244249E+02 -.19024475E+02 -.79367276E+02 0.11503589E+03 0.80419002E+02 0.0000E+00 0.9000E+01
#aMCatNLO 1  0  0  1  1 0.41852267D+03 0.00000000D+00  -5  5  0 0.00000000D+00 0.00000000D+00 0.00000000D+00 0.00000000D+00 0.00000000D+00
  <mgrwgt>
 0.6835580159D+00    3    2    0
 0.116416091659658D+03 0.000000000000000D+00 0.000000000000000D+00 0.116416091659658D+03
 0.116416091659658D+03 0.000000000000000D+00 0.000000000000000D+00 -.116416091659658D+03
 0.136082153101581D+03 0.102442487356846D+02 0.190244754168036D+02 -.492592843606062D+02
 0.967500302177355D+02 -.102442487356846D+02 -.190244754168036D+02 0.492592843606062D+02
 0.000000000000000D+00 0.000000000000000D+00 -.000000000000000D+00 -.000000000000000D+00
 0.286513531205513D+03 0.000000000000000D+00 0.000000000000000D+00 0.286513531205513D+03
 0.117019207093811D+04 0.000000000000000D+00 0.000000000000000D+00 -.117019207093811D+04
 0.311081235112767D+03 -.278903122386233D+02 0.279181282013672D+03 -.492592843606062D+02
 0.167846790312767D+03 -.328093420596749D+02 0.134916266779880D+03 0.492592843606062D+02
 0.977777576718085D+03 0.606996542982982D+02 -.414097548793552D+03 -.883678539732594D+03
0.449666204197D-03 0.000000000000D+00 0.000000000000D+00 0.241801257578D-02 0.000000000000D+00  5 -1 2 25 24 21 0 0.43752746D-02 0.73315196D-01 0.11038123D+05 0.11038123D+05 0.11038123D+05 0.12632992D+01  1  2  2  1  5  1       -1 0.669221830005D+00 0.100000000000D+01
-.246616206800D-04 0.000000000000D+00 -.172683662395D-05 0.241801257578D-02 0.000000000000D+00  5 -1 2 25 24 21 2 0.43752746D-02 0.73315196D-01 0.11038123D+05 0.11038123D+05 0.11038123D+05 0.12632992D+01  1  2  3  1  5  1       -1 -.585752127152D-01 0.100000000000D+01
0.306975113225D-04 0.000000000000D+00 0.000000000000D+00 0.241801257578D-02 0.000000000000D+00  5 -1 2 25 24 21 2 0.43752746D-02 0.73315196D-01 0.11038123D+05 0.11038123D+05 0.11038123D+05 0.12632992D+01  1  2 15  1  5  1       -1 0.729113986009D-01 0.100000000000D+01
  </mgrwgt>
  </event>
  <event>
  4     66 0.45252658E-03 0.65943082E+02 0.75467711E-02 0.12389174E+00
       -1 -1    0    0    0  501 0.00000000E+00 0.00000000E+00 0.39285282E+01 0.39415396E+01 0.32000000E+00 0.0000E+00 0.9000E+01
        2 -1    0    0  501    0 0.00000000E+00 0.00000000E+00 -.28804752E+04 0.28804752E+04 0.32000000E+00 0.0000E+00 0.9000E+01
       25  1    1    2    0    0 -.40310877E+01 0.93003349E+01 -.20737184E+04 0.20775071E+04 0.12500000E+03 0.0000E+00 0.9000E+01
       24  1    1    2    0    0 0.40310877E+01 -.93003349E+01 -.80282827E+03 0.80690966E+03 0.80419002E+02 0.0000E+00 0.9000E+01
#aMCatNLO 1  0  0  2  1 0.35589289D+02 0.00000000D+00  -5  5  0 0.00000000D+00 0.00000000D+00 0.00000000D+00 0.00000000D+00 0.00000000D+00
  <mgrwgt>
 0.6928312655D+00    9    2    0
 0.106465105151405D+03 0.000000000000000D+00 0.000000000000000D+00 0.106465105151405D+03
 0.106465105151405D+03 0.000000000000000D+00 0.000000000000000D+00 -.106465105151405D+03
 0.127969296671730D+03 -.403108769823460D+01 0.930033486965561D+01 -.254636013544555D+02
 0.849609136310795D+02 0.403108769823460D+01 -.930033486965561D+01 0.254636013544555D+02
 0.000000000000000D+00 -.000000000000000D+00 0.000000000000000D+00 -.000000000000000D+00
 0.112262283372679D+03 0.000000000000000D+00 0.000000000000000D+00 0.112262283372679D+03
 0.181235045780466D+03 0.000000000000000D+00 0.000000000000000D+00 -.181235045780466D+03
 0.128251184642151D+03 0.126390171656860D+02 -.390212932410018D+01 -.254636013544555D+02
 0.876327470636536D+02 0.152603009440894D+02 -.181936973897267D+02 0.254636013544555D+02
 0.776133974473412D+02 -.278993181097755D+02 0.220958267138269D+02 -.689727624077870D+02
0.529473943635D-03 0.000000000000D+00 0.000000000000D+00 0.296781154790D-02 0.000000000000D+00  5 -1 2 25 24 21 0 0.60539120D-03 0.44315103D+00 0.10657012D+05 0.10657012D+05 0.10657012D+05 0.12651105D+01  1  2  2  2  5  2        2 0.566487256924D+00 0.100000000000D+01
-.293812239103D-04 0.000000000000D+00 -.203331935725D-05 0.296781154790D-02 0.000000000000D+00  5 -1 2 25 24 21 2 0.60539120D-03 0.44315103D+00 0.10657012D+05 0.10657012D+05 0.10657012D+05 0.12651105D+01  1  2  3  2  5  2        2 -.503120869824D-01 0.100000000000D+01
0.361097741975D-04 0.000000000000D+00 0.000000000000D+00 0.296781154790D-02 0.000000000000D+00  5 -1 2 25 24 21 2 0.60539120D-03 0.44315103D+00 0.10657012D+05 0.10657012D+05 0.10657012D+05 0.12651105D+01  1  2 15  2  5  2        2 0.618339830188D-01 0.100000000000D+01
0.669365233657D-03 0.000000000000D+00 0.000000000000D+00 0.296781154790D-02 0.000000000000D+00  5 -1 2 25 24 21 2 0.60539120D-03 0.75905614D+00 0.15023270D+05 0.15023270D+05 0.15023270D+05 0.12477458D+01  1  2 12  2  5  2        2 0.303855869674D-01 0.100000000000D+01
-.690844265065D-03 0.000000000000D+00 0.000000000000D+00 0.296781154790D-02 0.000000000000D+00  5 -1 2 25 24 21 2 0.60539120D-03 0.44315103D+00 0.10657012D+05 0.10657012D+05 0.10657012D+05 0.12651105D+01  1  2  4  2  5  2        2 -.118299417551D+01 0.100000000000D+01
-.788727084614D-03 0.000000000000D+00 -.129518854477D-03 0.296781154790D-02 0.000000000000D+00  5 -1 2 25 24 21 2 0.60539120D-03 0.75828181D+00 0.10657012D+05 0.10657012D+05 0.10657012D+05 0.12651105D+01  1  2  5  2  5  2        2 -.379662462298D-01 0.100000000000D+01
0.762327129041D-03 0.000000000000D+00 0.112844479071D-03 0.296781154790D-02 0.000000000000D+00  5 -1 2 25 24 21 2 0.60539120D-03 0.44315103D+00 0.10657012D+05 0.10657012D+05 0.10657012D+05 0.12651105D+01  1  2  6  2  5  2        2 0.130540065119D+01 0.100000000000D+01
0.400502459934D-04 0.000000000000D+00 0.000000000000D+00 0.296781154790D-02 0.000000000000D+00  5 -1 21 25 24 -2 2 0.60539120D-03 0.75905614D+00 0.15023270D+05 0.15023270D+05 0.15023270D+05 0.12477458D+01  1  2 12  4  5  2        2 0.305171023510D-04 0.100000000000D+01
-.408059168822D-04 0.000000000000D+00 -.773742357642D-05 0.296781154790D-02 0.000000000000D+00  5 -1 21 25 24 -2 2 0.60539120D-03 0.75828181D+00 0.10657012D+05 0.10657012D+05 0.10657012D+05 0.12651105D+01  1  2  5  4  5  2        2 -.342210185387D-04 0.100000000000D+01
  </mgrwgt>
  </event>
  <event>
  4     66 0.45252658E-03 0.12226998E+03 0.75467711E-02 0.99596085E-01
       -1 -1    0    0    0  501 0.00000000E+00 0.00000000E+00 0.25771097E+02 0.25773083E+02 0.32000000E+00 0.0000E+00 0.9000E+01
        2 -1    0    0  501    0 0.00000000E+00 0.00000000E+00 -.60100419E+03 0.60100427E+03 0.32000000E+00 0.0000E+00 0.9000E+01
       25  1    1    2    0    0 0.45012071E+02 0.47205516E+02 -.38793692E+03 0.41276446E+03 0.12500000E+03 0.0000E+00 0.9000E+01
       24  1    1    2    0    0 -.45012071E+02 -.47205516E+02 -.18729617E+03 0.21401290E+03 0.80419002E+02 0.0000E+00 0.9000E+01
#aMCatNLO 1  0  0  2  1 0.54854814D+03 0.00000000D+00  -5  5  0 0.00000000D+00 0.00000000D+00 0.00000000D+00 0.00000000D+00 0.00000000D+00
  <mgrwgt>
 0.3875050387D+00    5    2    0
 0.124455559430700D+03 0.000000000000000D+00 0.000000000000000D+00 0.124455559430700D+03
 0.124455559430700D+03 0.000000000000000D+00 0.000000000000000D+00 -.124455559430700D+03
 0.142851250405696D+03 0.450120705540610D+02 0.472055160189183D+02 -.229571885102398D+02
 0.106059868455704D+03 -.450120705540610D+02 -.472055160189183D+02 0.229571885102398D+02
 0.000000000000000D+00 -.000000000000000D+00 0.000000000000000D+00 -.000000000000000D+00
 0.458999680465985D+03 0.000000000000000D+00 0.000000000000000D+00 0.458999680465985D+03
 0.777880039666213D+03 0.000000000000000D+00 0.000000000000000D+00 -.777880039666213D+03
 0.263128548776301D+03 0.962652238627515D+02 -.209326556727716D+03 -.229571885102398D+02
 0.339251569285707D+03 0.112065280921301D+02 -.328590615405051D+03 0.229571885102398D+02
 0.634499602070191D+03 -.107471751954882D+03 0.537917172132767D+03 -.318880359200228D+03
0.281173391860D-03 0.000000000000D+00 0.000000000000D+00 0.262404504934D-02 0.000000000000D+00  5 -1 2 25 24 21 0 0.39649435D-02 0.92462342D-01 0.14949948D+05 0.14949948D+05 0.14949948D+05 0.12479880D+01  1  2  2  2  5  2        2 0.378674683668D+00 0.100000000000D+01
-.156147822760D-04 0.000000000000D+00 -.107977985940D-05 0.262404504934D-02 0.000000000000D+00  5 -1 2 25 24 21 2 0.39649435D-02 0.92462342D-01 0.14949948D+05 0.14949948D+05 0.14949948D+05 0.12479880D+01  1  2  3  2  5  2        2 -.327528304926D-01 0.100000000000D+01
0.194236926244D-04 0.000000000000D+00 0.000000000000D+00 0.262404504934D-02 0.000000000000D+00  5 -1 2 25 24 21 2 0.39649435D-02 0.92462342D-01 0.14949948D+05 0.14949948D+05 0.14949948D+05 0.12479880D+01  1  2 15  2  5  2        2 0.407422211097D-01 0.100000000000D+01
0.390170506866D-03 0.000000000000D+00 -.196810702387D-03 0.262404504934D-02 0.000000000000D+00  5 -1 2 25 24 21 2 0.39649435D-02 0.77934264D+00 0.14949948D+05 0.14949948D+05 0.14949948D+05 0.12479880D+01  1  2  5  2  5  2        2 0.838654320231D-03 0.100000000000D+01
0.751257239759D-04 0.000000000000D+00 -.507301987150D-04 0.262404504934D-02 0.000000000000D+00  5 -1 21 25 24 -2 2 0.39649435D-02 0.77934264D+00 0.14949948D+05 0.14949948D+05 0.14949948D+05 0.12479880D+01  1  2  5  4  5  2        2 0.231008430076D-05 0.100000000000D+01
  </mgrwgt>
  </event>
  <event>
  4     66 0.45252658E-03 0.90594641E+02 0.75467711E-02 0.11670191E+00
       -1 -1    0    0    0  501 0.00000000E+00 0.00000000E+00 0.98484065E+01 0.98536040E+01 0.32000000E+00 0.0000E+00 0.9000E+01
        2 -1    0    0  501    0 0.00000000E+00 0.00000000E+00 -.23990946E+04 0.23990946E+04 0.32000000E+00 0.0000E+00 0.9000E+01
       25  1    1    2    0    0 0.59316498E+01 0.10322565E+03 -.94973137E+03 0.96348607E+03 0.12500000E+03 0.0000E+00 0.9000E+01
       24  1    1    2    0    0 -.59316498E+01 -.10322565E+03 -.14395148E+04 0.14454622E+04 0.80419002E+02 0.0000E+00 0.9000E+01
#aMCatNLO 1  0  0  2  1 0.61826480D+02 0.00000000D+00  -5  5  0 0.00000000D+00 0.00000000D+00 0.00000000D+00 0.00000000D+00 0.00000000D+00
  <mgrwgt>
 0.6495258681D+00    9    2    0
 0.153732055625252D+03 0.000000000000000D+00 0.000000000000000D+00 0.153732055625252D+03
 0.153732055625252D+03 0.000000000000000D+00 0.000000000000000D+00 -.153732055625252D+03
 0.168624499508187D+03 0.593164980152178D+01 0.103225648899216D+03 0.460271960296811D+02
 0.138839611742317D+03 -.593164980152178D+01 -.103225648899216D+03 -.460271960296811D+02
 0.000000000000000D+00 0.000000000000000D+00 0.000000000000000D+00 -.000000000000000D+00
 0.180103154010527D+03 0.000000000000000D+00 0.000000000000000D+00 0.180103154010527D+03
 0.197834363543068D+03 0.000000000000000D+00 0.000000000000000D+00 -.197834363543068D+03
 0.159922662648534D+03 -.217364988602154D+02 0.857862452351302D+02 0.460271960296811D+02
 0.153696044253901D+03 -.305671388613884D+02 -.118753548630769D+03 -.460271960296811D+02
 0.643188106511598D+02 0.523036377216038D+02 0.329673033956391D+02 -.177312095325407D+02
0.718562524041D-03 0.000000000000D+00 0.000000000000D+00 0.218472573840D-02 0.000000000000D+00  5 -1 2 25 24 21 0 0.15155409D-02 0.36909188D+00 0.21492953D+05 0.21492953D+05 0.21492953D+05 0.12303987D+01  1  2  2  2  5  2        2 0.382455562677D+00 0.100000000000D+01
-.398107622266D-04 0.000000000000D+00 -.275946929418D-05 0.218472573840D-02 0.000000000000D+00  5 -1 2 25 24 21 2 0.15155409D-02 0.36909188D+00 0.21492953D+05 0.21492953D+05 0.21492953D+05 0.12303987D+01  1  2  3  2  5  2        2 -.320781001255D-01 0.100000000000D+01
0.495991235013D-04 0.000000000000D+00 0.000000000000D+00 0.218472573840D-02 0.000000000000D+00  5 -1 2 25 24 21 2 0.15155409D-02 0.36909188D+00 0.21492953D+05 0.21492953D+05 0.21492953D+05 0.12303987D+01  1  2 15  2  5  2        2 0.399652144502D-01 0.100000000000D+01
0.323701049409D-03 0.000000000000D+00 0.000000000000D+00 0.218472573840D-02 0.000000000000D+00  5 -1 2 25 24 21 2 0.15155409D-02 0.49922023D+00 0.32693122D+05 0.32693122D+05 0.32693122D+05 0.12109994D+01  1  2 12  2  5  2        2 0.835161693879D-01 0.100000000000D+01
-.390512338914D-03 0.000000000000D+00 0.000000000000D+00 0.218472573840D-02 0.000000000000D+00  5 -1 2 25 24 21 2 0.15155409D-02 0.36909188D+00 0.21492953D+05 0.21492953D+05 0.21492953D+05 0.12303987D+01  1  2  4  2  5  2        2 -.314660991333D+00 0.100000000000D+01
-.822082446201D-03 0.000000000000D+00 -.288543016606D-03 0.218472573840D-02 0.000000000000D+00  5 -1 2 25 24 21 2 0.15155409D-02 0.49976876D+00 0.21492953D+05 0.21492953D+05 0.21492953D+05 0.12303987D+01  1  2  5  2  5  2        2 -.219575552083D+00 0.100000000000D+01
0.881502325363D-03 0.000000000000D+00 0.275777939798D-03 0.218472573840D-02 0.000000000000D+00  5 -1 2 25 24 21 2 0.15155409D-02 0.36909188D+00 0.21492953D+05 0.21492953D+05 0.21492953D+05 0.12303987D+01  1  2  6  2  5  2        2 0.710283307136D+00 0.100000000000D+01
0.125730042733D-04 0.000000000000D+00 0.000000000000D+00 0.218472573840D-02 0.000000000000D+00  5 -1 21 25 24 -2 2 0.15155409D-02 0.49922023D+00 0.32693122D+05 0.32693122D+05 0.32693122D+05 0.12109994D+01  1  2 12  4  5  2        2 0.321959112890D-03 0.100000000000D+01
-.254412625111D-04 0.000000000000D+00 -.112368325556D-04 0.218472573840D-02 0.000000000000D+00  5 -1 21 25 24 -2 2 0.15155409D-02 0.49976876D+00 0.21492953D+05 0.21492953D+05 0.21492953D+05 0.12303987D+01  1  2  5  4  5  2        2 -.701701076338D-03 0.100000000000D+01
  </mgrwgt>
  </event>
  <event>
  4     66 0.45252658E-03 0.68232039E+02 0.75467711E-02 0.12043023E+00
       -1 -1    0    0    0  501 0.00000000E+00 0.00000000E+00 0.45592168E+02 0.45593291E+02 0.32000000E+00 0.0000E+00 0.9000E+01
        2 -1    0    0  501    0 0.00000000E+00 0.00000000E+00 -.42384115E+03 0.42384127E+03 0.32000000E+00 0.0000E+00 0.9000E+01
       25  1    1    2    0    0 -.19655404E+02 -.88270098E+02 -.17899480E+03 0.23630930E+03 0.12500000E+03 0.0000E+00 0.9000E+01
       24  1    1    2    0    0 0.19655404E+02 0.88270098E+02 -.19925418E+03 0.23312527E+03 0.80419002E+02 0.0000E+00 0.9000E+01
#aMCatNLO 1  0  0  1  2 0.17946556D+02 0.00000000D+00  -5  5  0 0.00000000D+00 0.00000000D+00 0.00000000D+00 0.00000000D+00 0.00000000D+00
  <mgrwgt>
 0.4813793926D+00    6    2    0
 0.139011255719953D+03 0.000000000000000D+00 0.000000000000000D+00 0.139011255719953D+03
 0.139011255719953D+03 0.000000000000000D+00 0.000000000000000D+00 -.139011255719953D+03
 0.155480756693454D+03 -.196554039719404D+02 -.882700983540573D+02 0.192696791160081D+02
 0.122541754746452D+03 0.196554039719404D+02 0.882700983540573D+02 -.192696791160081D+02
 0.000000000000000D+00 -.000000000000000D+00 -.000000000000000D+00 -.000000000000000D+00
 0.147430866418055D+03 0.000000000000000D+00 0.000000000000000D+00 0.147430866418055D+03
 0.149204234356615D+03 0.000000000000000D+00 0.000000000000000D+00 -.149204234356615D+03
 0.150443388048151D+03 -.138767130100751D+02 -.802765800854069D+02 0.192696791160081D+02
 0.128157752904922D+03 0.243909405548169D+02 0.948206473342483D+02 -.192696791160081D+02
 0.180339598215961D+02 -.105142275447418D+02 -.145440672488414D+02 -.177336793855990D+01
0.342018107125D-03 0.000000000000D+00 0.000000000000D+00 0.246791295914D-02 0.000000000000D+00  5 -1 2 25 24 21 0 0.70142754D-02 0.65206427D-01 0.18947416D+05 0.18947416D+05 0.18947416D+05 0.12364194D+01  1  2  2  1  5  1       -1 0.293017431558D+00 0.100000000000D+01
-.189987674552D-04 0.000000000000D+00 -.131343958679D-05 0.246791295914D-02 0.000000000000D+00  5 -1 2 25 24 21 2 0.70142754D-02 0.65206427D-01 0.18947416D+05 0.18947416D+05 0.18947416D+05 0.12364194D+01  1  2  3  1  5  1       -1 -.248829233682D-01 0.100000000000D+01
0.235798029787D-04 0.000000000000D+00 0.000000000000D+00 0.246791295914D-02 0.000000000000D+00  5 -1 2 25 24 21 2 0.70142754D-02 0.65206427D-01 0.18947416D+05 0.18947416D+05 0.18947416D+05 0.12364194D+01  1  2 15  1  5  1       -1 0.308827628919D-01 0.100000000000D+01
0.395889488163D-03 0.000000000000D+00 0.000000000000D+00 0.246791295914D-02 0.000000000000D+00  5 -1 2 25 24 21 2 0.76798205D-02 0.65206427D-01 0.21587182D+05 0.21587182D+05 0.21587182D+05 0.12301914D+01  1  2 12  1  5  1       -1 0.449679328569D+00 0.100000000000D+01
-.285776667408D-03 0.000000000000D+00 0.000000000000D+00 0.246791295914D-02 0.000000000000D+00  5 -1 2 25 24 21 2 0.70142754D-02 0.65206427D-01 0.18947416D+05 0.18947416D+05 0.18947416D+05 0.12364194D+01  1  2  4  1  5  1       -1 -.374285275732D+00 0.100000000000D+01
0.590396748221D-05 0.000000000000D+00 0.000000000000D+00 0.246791295914D-02 0.000000000000D+00  5 21 2 25 24 1 2 0.76798205D-02 0.65206427D-01 0.21587182D+05 0.21587182D+05 0.21587182D+05 0.12301914D+01  1  2 12  3  5  1       -1 0.106968068655D+00 0.100000000000D+01
  </mgrwgt>
  </event>
  <event>
  4     66 0.45252658E-03 0.13536167E+03 0.75467711E-02 0.11614490E+00
       -1 -1    0    0    0  501 0.00000000E+00 0.00000000E+00 0.17127916E+03 0.17127946E+03 0.32000000E+00 0.0000E+00 0.9000E+01
        2 -1    0    0  501    0 0.00000000E+00 0.00000000E+00 -.14374702E+03 0.14374737E+03 0.32000000E+00 0.0000E+00 0.9000E+01
       25  1    1    2    0    0 -.58123240E+02 0.64687182E+02 -.64155649E+02 0.16523828E+03 0.12500000E+03 0.0000E+00 0.9000E+01
       24  1    1    2    0    0 0.58123240E+02 -.64687182E+02 0.91687792E+02 0.14978855E+03 0.80419002E+02 0.0000E+00 0.9000E+01
#aMCatNLO 1  0  0  2  2 0.88217936D+02 0.00000000D+00  -5  5  0 0.00000000D+00 0.00000000D+00 0.00000000D+00 0.00000000D+00 0.00000000D+00
  <mgrwgt>
 0.2252287262D+00    7    2    0
 0.156910711656110D+03 0.000000000000000D+00 0.000000000000000D+00 0.156910711656110D+03
 0.156910711656110D+03 0.000000000000000D+00 0.000000000000000D+00 -.156910711656110D+03
 0.171501468317930D+03 -.581232398254997D+02 0.646871817587081D+02 -.788987398093867D+02
 0.142319954994289D+03 0.581232398254997D+02 -.646871817587081D+02 0.788987398093867D+02
 0.000000000000000D+00 -.000000000000000D+00 0.000000000000000D+00 -.000000000000000D+00
 0.200104341907260D+03 0.000000000000000D+00 0.000000000000000D+00 0.200104341907260D+03
 0.215417972859638D+03 0.000000000000000D+00 0.000000000000000D+00 -.215417972859638D+03
 0.160240788625658D+03 -.125672286910108D+02 0.605736242839354D+02 -.788987398093867D+02
 0.165744318405210D+03 0.100427707150301D+03 -.685071355572634D+02 0.788987398093867D+02
 0.895372077360304D+02 -.878604784592902D+02 0.793351127332808D+01 -.153136309523782D+02
0.700403486561D-03 0.000000000000D+00 0.000000000000D+00 0.180878020485D-02 0.000000000000D+00  5 -1 2 25 24 21 0 0.26350690D-01 0.22114976D-01 0.18322782D+05 0.18322782D+05 0.18322782D+05 0.12380359D+01  1  2  2  2  5  2        2 0.242567408094D+00 0.100000000000D+01
-.378788402662D-04 0.000000000000D+00 -.268973380887D-05 0.180878020485D-02 0.000000000000D+00  5 -1 2 25 24 21 2 0.26350690D-01 0.22114976D-01 0.18322782D+05 0.18322782D+05 0.18322782D+05 0.12380359D+01  1  2  3  2  5  2        2 -.201069999358D-01 0.100000000000D+01
0.482615199712D-04 0.000000000000D+00 0.000000000000D+00 0.180878020485D-02 0.000000000000D+00  5 -1 2 25 24 21 2 0.26350690D-01 0.22114976D-01 0.18322782D+05 0.18322782D+05 0.18322782D+05 0.12380359D+01  1  2 15  2  5  2        2 0.256183761737D-01 0.100000000000D+01
-.317602110006D-03 0.000000000000D+00 0.000000000000D+00 0.180878020485D-02 0.000000000000D+00  5 -1 2 25 24 21 2 0.26350690D-01 0.22114976D-01 0.18322782D+05 0.18322782D+05 0.18322782D+05 0.12380359D+01  1  2  4  2  5  2        2 -.168590842819D+00 0.100000000000D+01
-.367351336332D-03 0.000000000000D+00 -.299005899835D-03 0.180878020485D-02 0.000000000000D+00  5 -1 2 25 24 21 2 0.26350690D-01 0.38103904D-01 0.18322782D+05 0.18322782D+05 0.18322782D+05 0.12380359D+01  1  2  5  2  5  2        2 -.107866804551D+00 0.100000000000D+01
0.494414031733D-03 0.000000000000D+00 0.259623928624D-03 0.180878020485D-02 0.000000000000D+00  5 -1 2 25 24 21 2 0.26350690D-01 0.22114976D-01 0.18322782D+05 0.18322782D+05 0.18322782D+05 0.12380359D+01  1  2  6  2  5  2        2 0.262446865703D+00 0.100000000000D+01
-.741367041380D-05 0.000000000000D+00 -.180522669017D-04 0.180878020485D-02 0.000000000000D+00  5 -1 21 25 24 -2 2 0.26350690D-01 0.38103904D-01 0.18322782D+05 0.18322782D+05 0.18322782D+05 0.12380359D+01  1  2  5  4  5  2        2 -.883927646234D-02 0.100000000000D+01
  </mgrwgt>
  </event>
  <event>
  4     66 0.45252658E-03 0.11859553E+03 0.75467711E-02 0.11633963E+00
       -1 -1    0    0    0  501 0.00000000E+00 0.00000000E+00 0.15253249E+02 0.15256605E+02 0.32000000E+00 0.0000E+00 0.9000E+01
        2 -1    0    0  501    0 0.00000000E+00 0.00000000E+00 -.14979744E+04 0.14979745E+04 0.32000000E+00 0.0000E+00 0.9000E+01
       25  1    1    2    0    0 0.99955493E+02 0.37601377E+02 -.94124883E+03 0.95549952E+03 0.12500000E+03 0.0000E+00 0.9000E+01
       24  1    1    2    0    0 -.99955493E+02 -.37601377E+02 -.54147235E+03 0.55773156E+03 0.80419002E+02 0.0000E+00 0.9000E+01
#aMCatNLO 1  0  0  1  2 0.64494973D+02 0.00000000D+00  -5  5  0 0.00000000D+00 0.00000000D+00 0.00000000D+00 0.00000000D+00 0.00000000D+00
  <mgrwgt>
 0.4010085221D+00    9    2    0
 0.151167267029669D+03 0.000000000000000D+00 0.000000000000000D+00 0.151167267029669D+03
 0.151167267029669D+03 0.000000000000000D+00 0.000000000000000D+00 -.151167267029669D+03
 0.166312384464107D+03 0.999554926151149D+02 0.376013768655649D+02 -.250967165187064D+02
 0.136022149595231D+03 -.999554926151149D+02 -.376013768655649D+02 0.250967165187064D+02
 0.000000000000000D+00 -.000000000000000D+00 -.000000000000000D+00 0.000000000000000D+00
 0.232360165275577D+03 0.000000000000000D+00 0.000000000000000D+00 0.232360165275577D+03
 0.167936343566404D+03 0.000000000000000D+00 0.000000000000000D+00 -.167936343566404D+03
 0.192372584302606D+03 0.137318098149636D+03 0.435442984994570D+02 -.250967165187064D+02
 0.116764556798516D+03 -.736238344253813D+02 -.334130452737695D+02 0.250967165187064D+02
 0.911593677408597D+02 -.636942637242547D+02 -.101312532256875D+02 0.644238217091736D+02
0.438575520185D-03 0.000000000000D+00 0.000000000000D+00 0.233954225683D-02 0.000000000000D+00  5 -1 2 25 24 21 0 0.23469145D-02 0.23045787D+00 0.22215126D+05 0.22215126D+05 0.22215126D+05 0.12288352D+01  1  2  2  1  5  1       -1 0.363223278262D+00 0.100000000000D+01
-.243593981018D-04 0.000000000000D+00 -.168424547710D-05 0.233954225683D-02 0.000000000000D+00  5 -1 2 25 24 21 2 0.23469145D-02 0.23045787D+00 0.22215126D+05 0.22215126D+05 0.22215126D+05 0.12288352D+01  1  2  3  1  5  1       -1 -.304637337265D-01 0.100000000000D+01
0.302165427982D-04 0.000000000000D+00 0.000000000000D+00 0.233954225683D-02 0.000000000000D+00  5 -1 2 25 24 21 2 0.23469145D-02 0.23045787D+00 0.22215126D+05 0.22215126D+05 0.22215126D+05 0.12288352D+01  1  2 15  1  5  1       -1 0.377886477364D-01 0.100000000000D+01
0.275591938673D-03 0.000000000000D+00 0.000000000000D+00 0.233954225683D-02 0.000000000000D+00  5 -1 2 25 24 21 2 0.36809543D-02 0.23045787D+00 0.34088067D+05 0.34088067D+05 0.34088067D+05 0.12091182D+01  1  2 12  1  5  1       -1 0.173654009456D+00 0.100000000000D+01
-.353979704301D-03 0.000000000000D+00 0.000000000000D+00 0.233954225683D-02 0.000000000000D+00  5 -1 2 25 24 21 2 0.23469145D-02 0.23045787D+00 0.22215126D+05 0.22215126D+05 0.22215126D+05 0.12288352D+01  1  2  4  1  5  1       -1 -.442685135788D+00 0.100000000000D+01
-.415931607535D-03 0.000000000000D+00 -.141129618342D-03 0.233954225683D-02 0.000000000000D+00  5 -1 2 25 24 21 2 0.40393396D-02 0.23045787D+00 0.22215126D+05 0.22215126D+05 0.22215126D+05 0.12288352D+01  1  2  5  1  5  1       -1 -.235301678557D+00 0.100000000000D+01
0.444007801477D-03 0.000000000000D+00 0.122607216381D-03 0.233954225683D-02 0.000000000000D+00  5 -1 2 25 24 21 2 0.23469145D-02 0.23045787D+00 0.22215126D+05 0.22215126D+05 0.22215126D+05 0.12288352D+01  1  2  6  1  5  1       -1 0.555273795360D+00 0.100000000000D+01
0.143228827397D-04 0.000000000000D+00 0.000000000000D+00 0.233954225683D-02 0.000000000000D+00  5 21 2 25 24 1 2 0.36809543D-02 0.23045787D+00 0.34088067D+05 0.34088067D+05 0.34088067D+05 0.12091182D+01  1  2 12  3  5  1       -1 0.166052378214D+00 0.100000000000D+01
-.181152994550D-04 0.000000000000D+00 -.850656204302D-05 0.233954225683D-02 0.000000000000D+00  5 21 2 25 24 1 2 0.40393396D-02 0.23045787D+00 0.22215126D+05 0.22215126D+05 0.22215126D+05 0.12288352D+01  1  2  5  3  5  1       -1 -.186533038889D+00 0.100000000000D+01
  </mgrwgt>
  </event>
  <event>
  4     66 0.45252658E-03 0.84660674E+02 0.75467711E-02 0.11976420E+00
       -1 -1    0    0    0  501 0.00000000E+00 0.00000000E+00 0.35280934E+02 0.35282385E+02 0.32000000E+00 0.0000E+00 0.9000E+01
        2 -1    0    0  501    0 0.00000000E+00 0.00000000E+00 -.46402933E+03 0.46402944E+03 0.32000000E+00 0.0000E+00 0.9000E+01
       25  1    1    2    0    0 -.94522424E+01 0.73512456E+02 -.22026512E+03 0.26388472E+03 0.12500000E+03 0.0000E+00 0.9000E+01
       24  1    1    2    0    0 0.94522424E+01 -.73512456E+02 -.20848328E+03 0.23542710E+03 0.80419002E+02 0.0000E+00 0.9000E+01
#aMCatNLO 1  0  0  2  1 0.45913097D+02 0.00000000D+00  -5  5  0 0.00000000D+00 0.00000000D+00 0.00000000D+00 0.00000000D+00 0.00000000D+00
  <mgrwgt>
 0.4598672688D+00    9    2    0
 0.127952248589404D+03 0.000000000000000D+00 0.000000000000000D+00 0.127952248589404D+03
 0.127952248589404D+03 0.000000000000000D+00 0.000000000000000D+00 -.127952248589404D+03
 0.145845220668028D+03 -.945224239144958D+01 0.735124560526085D+02 0.123451330730966D+02
 0.110059276510780D+03 0.945224239144958D+01 -.735124560526085D+02 -.123451330730966D+02
 0.000000000000000D+00 0.000000000000000D+00 -.000000000000000D+00 -.000000000000000D+00
 0.149312532335471D+03 0.000000000000000D+00 0.000000000000000D+00 0.149312532335471D+03
 0.157276830427390D+03 0.000000000000000D+00 0.000000000000000D+00 -.157276830427390D+03
 0.161453524076429D+03 -.115134493792998D+02 0.100783325056756D+03 0.123451330730966D+02
 0.985370991385179D+02 0.805308175548239D+01 -.550008137749854D+02 -.123451330730966D+02
 0.465987395479146D+02 0.346036762381746D+01 -.457825112817708D+02 -.796429809191880D+01
0.256291993141D-03 0.000000000000D+00 0.000000000000D+00 0.262840009939D-02 0.000000000000D+00  5 -1 2 25 24 21 0 0.54279561D-02 0.71389248D-01 0.16216306D+05 0.16216306D+05 0.16216306D+05 0.12439808D+01  1  2  2  2  5  2        2 0.290231057657D+00 0.100000000000D+01
-.142380500272D-04 0.000000000000D+00 -.984228736894D-06 0.262840009939D-02 0.000000000000D+00  5 -1 2 25 24 21 2 0.54279561D-02 0.71389248D-01 0.16216306D+05 0.16216306D+05 0.16216306D+05 0.12439808D+01  1  2  3  2  5  2        2 -.249509271915D-01 0.100000000000D+01
0.177091566711D-04 0.000000000000D+00 0.000000000000D+00 0.262840009939D-02 0.000000000000D+00  5 -1 2 25 24 21 2 0.54279561D-02 0.71389248D-01 0.16216306D+05 0.16216306D+05 0.16216306D+05 0.12439808D+01  1  2 15  2  5  2        2 0.310337355101D-01 0.100000000000D+01
0.160741939552D-03 0.000000000000D+00 0.000000000000D+00 0.262840009939D-02 0.000000000000D+00  5 -1 2 25 24 21 2 0.54279561D-02 0.92552914D-01 0.23203618D+05 0.23203618D+05 0.23203618D+05 0.12267849D+01  1  2 12  2  5  2        2 0.207746572082D+00 0.100000000000D+01
-.166157435552D-03 0.000000000000D+00 0.000000000000D+00 0.262840009939D-02 0.000000000000D+00  5 -1 2 25 24 21 2 0.54279561D-02 0.71389248D-01 0.16216306D+05 0.16216306D+05 0.16216306D+05 0.12439808D+01  1  2  4  2  5  2        2 -.291176254394D+00 0.100000000000D+01
-.367819458177D-03 0.000000000000D+00 -.141172531787D-03 0.262840009939D-02 0.000000000000D+00  5 -1 2 25 24 21 2 0.54279561D-02 0.99586587D-01 0.16216306D+05 0.16216306D+05 0.16216306D+05 0.12439808D+01  1  2  5  2  5  2        2 -.444638707461D+00 0.100000000000D+01
0.399925948267D-03 0.000000000000D+00 0.133696475597D-03 0.262840009939D-02 0.000000000000D+00  5 -1 2 25 24 21 2 0.54279561D-02 0.71389248D-01 0.16216306D+05 0.16216306D+05 0.16216306D+05 0.12439808D+01  1  2  6  2  5  2        2 0.700834959714D+00 0.100000000000D+01
0.559346433313D-05 0.000000000000D+00 0.000000000000D+00 0.262840009939D-02 0.000000000000D+00  5 -1 21 25 24 -2 2 0.54279561D-02 0.92552914D-01 0.23203618D+05 0.23203618D+05 0.23203618D+05 0.12267849D+01  1  2 12  4  5  2        2 0.114478849355D-01 0.100000000000D+01
-.116172535607D-04 0.000000000000D+00 -.588195657404D-05 0.262840009939D-02 0.000000000000D+00  5 -1 21 25 24 -2 2 0.54279561D-02 0.99586587D-01 0.16216306D+05 0.16216306D+05 0.16216306D+05 0.12439808D+01  1  2  5  4  5  2        2 -.206610520652D-01 0.100000000000D+01
  </mgrwgt>
  </event>
  <event>
  4     66 0.45252658E-03 0.12400493E+03 0.75467711E-02 0.10426728E+00
       -1 -1    0    0    0  501 0.00000000E+00 0.00000000E+00 0.37203165E+02 0.37204541E+02 0.32000000E+00 0.0000E+00 0.9000E+01
        2 -1    0    0  501    0 0.00000000E+00 0.00000000E+00 -.11531338E+04 0.11531338E+04 0.32000000E+00 0.0000E+00 0.9000E+01
       25  1    1    2    0    0 -.48677526E+02 -.47984144E+02 -.10625612E+04 0.10720697E+04 0.12500000E+03 0.0000E+00 0.9000E+01
       24  1    1    2    0    0 0.48677526E+02 0.47984144E+02 -.53369380E+02 0.11826870E+03 0.80419002E+02 0.0000E+00 0.9000E+01
#aMCatNLO 1  0  0  2  2 0.37428384D+03 0.00000000D+00  -5  5  0 0.00000000D+00 0.00000000D+00 0.00000000D+00 0.00000000D+00 0.00000000D+00
  <mgrwgt>
 0.3009751685D+00    5    2    0
 0.207125738385224D+03 0.000000000000000D+00 0.000000000000000D+00 0.207125738385224D+03
 0.207125738385224D+03 0.000000000000000D+00 0.000000000000000D+00 -.207125738385224D+03
 0.218179149850435D+03 -.486775264533564D+02 -.479841439237789D+02 -.165242735936389D+03
 0.196072326920014D+03 0.486775264533564D+02 0.479841439237789D+02 0.165242735936389D+03
 0.000000000000000D+00 0.000000000000000D+00 0.000000000000000D+00 -.000000000000000D+00
 0.384628680131337D+03 0.000000000000000D+00 0.000000000000000D+00 0.384628680131337D+03
 0.611168591944674D+03 0.000000000000000D+00 0.000000000000000D+00 -.611168591944674D+03
 0.355801293054927D+03 -.206004895722918D+03 -.203042806565522D+03 -.165242735936389D+03
 0.202493147297414D+03 -.605688046984568D+02 -.596868232166756D+02 0.165242735936389D+03
 0.437502831723670D+03 0.266573700421375D+03 0.262729629782198D+03 -.226539911813336D+03
0.828923669818D-03 0.000000000000D+00 0.000000000000D+00 0.840563324297D-03 0.000000000000D+00  5 -1 2 25 24 21 0 0.57236731D-02 0.17740531D+00 0.15377222D+05 0.15377222D+05 0.15377222D+05 0.12465947D+01  1  2  2  2  5  2        2 0.283410490180D+00 0.100000000000D+01
-.313157674146D-04 0.000000000000D+00 -.318328515272D-05 0.840563324297D-03 0.000000000000D+00  5 -1 2 25 24 21 2 0.57236731D-02 0.17740531D+00 0.15377222D+05 0.15377222D+05 0.15377222D+05 0.12465947D+01  1  2  3  2  5  2        2 -.166385319303D-01 0.100000000000D+01
0.560596114065D-04 0.000000000000D+00 0.000000000000D+00 0.840563324297D-03 0.000000000000D+00  5 -1 2 25 24 21 2 0.57236731D-02 0.17740531D+00 0.15377222D+05 0.15377222D+05 0.15377222D+05 0.12465947D+01  1  2 15  2  5  2        2 0.297853034236D-01 0.100000000000D+01
0.365898163614D-03 0.000000000000D+00 -.287086871229D-03 0.840563324297D-03 0.000000000000D+00  5 -1 2 25 24 21 2 0.57236731D-02 0.61935208D+00 0.15377222D+05 0.15377222D+05 0.15377222D+05 0.12465947D+01  1  2  5  2  5  2        2 0.438372199575D-02 0.100000000000D+01
0.627668517257D-04 0.000000000000D+00 -.419738799411D-04 0.840563324297D-03 0.000000000000D+00  5 -1 21 25 24 -2 2 0.57236731D-02 0.61935208D+00 0.15377222D+05 0.15377222D+05 0.15377222D+05 0.12465947D+01  1  2  5  4  5  2        2 0.341848352512D-04 0.100000000000D+01
  </mgrwgt>
  </event>
  <event>
  4     66 0.45252658E-03 0.10356207E+03 0.75467711E-02 0.12434130E+00
       -1 -1    0    0    0  501 0.00000000E+00 0.00000000E+00 0.10735167E+03 0.10735214E+03 0.32000000E+00 0.0000E+00 0.9000E+01
        2 -1    0    0  501    0 0.00000000E+00 0.00000000E+00 -.10147100E+03 0.10147150E+03 0.32000000E+00 0.0000E+00 0.9000E+01
       25  1    1    2    0    0 0.12838120E+02 -.17020608E+01 0.16233751E+02 0.12671326E+03 0.12500000E+03 0.0000E+00 0.9000E+01
       24  1    1    2    0    0 -.12838120E+02 0.17020608E+01 -.10353081E+02 0.82110393E+02 0.80419002E+02 0.0000E+00 0.9000E+01
#aMCatNLO 1  0  0  2  1 0.30286368D+02 0.00000000D+00  -5  5  0 0.00000000D+00 0.00000000D+00 0.00000000D+00 0.00000000D+00 0.00000000D+00
  <mgrwgt>
 0.6853689839D-01    4    2    0
 0.104370414382800D+03 0.000000000000000D+00 0.000000000000000D+00 0.104370414382800D+03
 0.104370414382800D+03 0.000000000000000D+00 0.000000000000000D+00 -.104370414382800D+03
 0.126306190195765D+03 0.128381202710996D+02 -.170206075011884D+01 0.126704119458044D+02
 0.824346385698344D+02 -.128381202710996D+02 0.170206075011884D+01 -.126704119458044D+02
 0.000000000000000D+00 0.000000000000000D+00 -.000000000000000D+00 0.000000000000000D+00
 0.123722981156475D+03 0.000000000000000D+00 0.000000000000000D+00 0.123722981156475D+03
 0.118021833361512D+03 0.000000000000000D+00 0.000000000000000D+00 -.118021833361512D+03
 0.126997356843816D+03 0.901184334628902D+01 0.161733109146220D+02 0.126704119458044D+02
 0.839291651112544D+02 -.153511288356785D+02 0.134421838439923D+02 -.126704119458044D+02
 0.308182925629165D+02 0.633928548938949D+01 -.296154947586143D+02 0.570114779496353D+01
0.265990579897D-03 0.000000000000D+00 0.000000000000D+00 0.314581186379D-02 0.000000000000D+00  5 -1 2 25 24 21 0 0.16515717D-01 0.15610998D-01 0.10725103D+05 0.10725103D+05 0.10725103D+05 0.12647815D+01  1  2  2  2  5  2        2 0.284688222640D+00 0.100000000000D+01
-.147761683049D-04 0.000000000000D+00 -.102147386373D-05 0.314581186379D-02 0.000000000000D+00  5 -1 2 25 24 21 2 0.16515717D-01 0.15610998D-01 0.10725103D+05 0.10725103D+05 0.10725103D+05 0.12647815D+01  1  2  3  2  5  2        2 -.252985782697D-01 0.100000000000D+01
0.183994578038D-04 0.000000000000D+00 0.000000000000D+00 0.314581186379D-02 0.000000000000D+00  5 -1 2 25 24 21 2 0.16515717D-01 0.15610998D-01 0.10725103D+05 0.10725103D+05 0.10725103D+05 0.12647815D+01  1  2 15  2  5  2        2 0.315020859106D-01 0.100000000000D+01
-.129871030079D-03 0.000000000000D+00 0.000000000000D+00 0.314581186379D-02 0.000000000000D+00  5 -1 2 25 24 21 2 0.16515717D-01 0.15610998D-01 0.10725103D+05 0.10725103D+05 0.10725103D+05 0.12647815D+01  1  2  4  2  5  2        2 -.222354831890D+00 0.100000000000D+01
  </mgrwgt>
  </event>
  <event>
  5     66 0.45252658E-03 0.10317320E+03 0.75467711E-02 0.11983895E+00
       -3 -1    0    0    0  501 0.00000000E+00 0.00000000E+00 0.28923080E+02 0.28927401E+02 0.50000000E+00 0.0000E+00 0.9000E+01
        4 -1    0    0  502    0 0.00000000E+00 0.00000000E+00 -.87109242E+03 0.87109380E+03 0.15500000E+01 0.0000E+00 0.9000E+01
       25  1    1    2    0    0 -.29650335E+00 -.49958674E+02 -.50901116E+03 0.52651051E+03 0.12500000E+03 0.0000E+00 0.9000E+01
       24  1    1    2    0    0 -.15736677E+02 -.29991562E+02 -.16721186E+03 0.18861113E+03 0.80419002E+02 0.0000E+00 0.9000E+01
       21  1    1    2  502  501 0.16033181E+02 0.79950235E+02 -.16594633E+03 0.18489957E+03 0.75000000E+00 0.0000E+00 0.9000E+01
#aMCatNLO 2  0  0  2  1 0.81542032D+02 0.00000000D+00  -5  5  0 0.00000000D+00 0.00000000D+00 0.00000000D+00 0.00000000D+00 0.00000000D+00
  <mgrwgt>
 0.1979513429D-02    1    2    0
 0.108940680687196D+03 0.000000000000000D+00 0.000000000000000D+00 0.108940680687196D+03
 0.108940680687196D+03 0.000000000000000D+00 0.000000000000000D+00 -.108940680687196D+03
 0.129956209477411D+03 0.927161150389841D+01 -.224680377700036D+01 -.342433274470393D+02
 0.879251518969814D+02 -.927161150389841D+01 0.224680377700036D+01 0.342433274470393D+02
 0.000000000000000D+00 0.000000000000000D+00 0.000000000000000D+00 0.000000000000000D+00
 0.172994779433318D+03 0.000000000000000D+00 0.000000000000000D+00 0.172994779433318D+03
 0.145650113308061D+03 0.000000000000000D+00 0.000000000000000D+00 -.145650113308061D+03
 0.138901268703899D+03 -.296503350202251D+00 -.499586735079199D+02 -.342433274470393D+02
 0.937387765570065D+02 -.157366774713873D+02 -.299915618724707D+02 0.342433274470393D+02
 0.860048474804730D+02 0.160331808215896D+02 0.799502353803905D+02 0.273446661252573D+02
0.566135473494D-04 0.000000000000D+00 0.000000000000D+00 0.279004713880D-02 0.394192961498D-05  5 -3 4 25 24 21 2 0.44500961D-02 0.13401324D+00 0.23015377D+05 0.23015377D+05 0.23015377D+05 0.12271678D+01  1  2  1  2  5  2        4 0.197951342885D-02 0.100000000000D+01
  </mgrwgt>
  </event>
  <event>
  4     66 0.45252658E-03 0.11175298E+03 0.75467711E-02 0.11585668E+00
       -1 -1    0    0    0  501 0.00000000E+00 0.00000000E+00 0.10338509E+03 0.10338559E+03 0.32000000E+00 0.0000E+00 0.9000E+01
        2 -1    0    0  501    0 0.00000000E+00 0.00000000E+00 -.13059828E+03 0.13059867E+03 0.32000000E+00 0.0000E+00 0.9000E+01
       25  1    1    2    0    0 0.40977545E+02 0.13533856E+02 0.15633892E+02 0.13316059E+03 0.12500000E+03 0.0000E+00 0.9000E+01
       24  1    1    2    0    0 -.40977545E+02 -.13533856E+02 -.42847075E+02 0.10082367E+03 0.80419002E+02 0.0000E+00 0.9000E+01
#aMCatNLO 1  0  0  1  2 0.12398393D+03 0.00000000D+00  -5  5  0 0.00000000D+00 0.00000000D+00 0.00000000D+00 0.00000000D+00 0.00000000D+00
  <mgrwgt>
 0.2997781732D+00    5    2    0
 0.116198189123429D+03 0.000000000000000D+00 0.000000000000000D+00 0.116198189123429D+03
 0.116198189123429D+03 0.000000000000000D+00 0.000000000000000D+00 -.116198189123429D+03
 0.135901129665605D+03 0.409775447104378D+02 0.135338560199735D+02 0.313335700985728D+02
 0.964952485812540D+02 -.409775447104378D+02 -.135338560199735D+02 -.313335700985728D+02
 0.000000000000000D+00 0.000000000000000D+00 0.000000000000000D+00 0.000000000000000D+00
 0.210277441886463D+03 0.000000000000000D+00 0.000000000000000D+00 0.210277441886463D+03
 0.180608027033095D+03 0.000000000000000D+00 0.000000000000000D+00 -.180608027033095D+03
 0.142522330203916D+03 0.268373584750821D+02 -.546404445599772D+02 0.313335700985728D+02
 0.120878676779226D+03 -.520172314837719D+02 -.667596701547234D+02 -.313335700985728D+02
 0.127484461936416D+03 0.251798730086899D+02 0.121400114714701D+03 0.296694148533688D+02
0.324132287770D-03 0.000000000000D+00 0.000000000000D+00 0.268254478800D-02 0.000000000000D+00  5 -1 2 25 24 21 0 0.15905467D-01 0.20092111D-01 0.12488729D+05 0.12488729D+05 0.12488729D+05 0.12569973D+01  1  2  2  1  5  1       -1 0.277805649127D+00 0.100000000000D+01
-.179740372364D-04 0.000000000000D+00 -.124475333103D-05 0.268254478800D-02 0.000000000000D+00  5 -1 2 25 24 21 2 0.15905467D-01 0.20092111D-01 0.12488729D+05 0.12488729D+05 0.12488729D+05 0.12569973D+01  1  2  3  1  5  1       -1 -.243407021032D-01 0.100000000000D+01
0.223566165795D-04 0.000000000000D+00 0.000000000000D+00 0.268254478800D-02 0.000000000000D+00  5 -1 2 25 24 21 2 0.15905467D-01 0.20092111D-01 0.12488729D+05 0.12488729D+05 0.12488729D+05 0.12569973D+01  1  2 15  1  5  1       -1 0.302756546591D-01 0.100000000000D+01
0.298353779253D-05 0.000000000000D+00 -.915262094144D-04 0.268254478800D-02 0.000000000000D+00  5 -1 2 25 24 21 2 0.43510665D-01 0.20092111D-01 0.12488729D+05 0.12488729D+05 0.12488729D+05 0.12569973D+01  1  2  5  1  5  1       -1 0.766387933237D-03 0.100000000000D+01
0.558884123322D-05 0.000000000000D+00 -.102988478874D-04 0.268254478800D-02 0.000000000000D+00  5 21 2 25 24 1 2 0.43510665D-01 0.20092111D-01 0.12488729D+05 0.12488729D+05 0.12488729D+05 0.12569973D+01  1  2  5  3  5  1       -1 0.152711836225D-01 0.100000000000D+01
  </mgrwgt>
  </event>
  <event>
  4     66 0.45252658E-03 0.38960269E+02 0.75467711E-02 0.12059240E+00
       -1 -1    0    0    0  501 0.00000000E+00 0.00000000E+00 0.21201927E+03 0.21201951E+03 0.32000000E+00 0.0000E+00 0.9000E+01
        2 -1    0    0  501    0 0.00000000E+00 0.00000000E+00 -.12171779E+03 0.12171821E+03 0.32000000E+00 0.0000E+00 0.9000E+01
       25  1    1    2    0    0 0.11792354E+02 -.55891580E+02 -.63204696E+02 0.15127049E+03 0.12500000E+03 0.0000E+00 0.9000E+01
       24  1    1    2    0    0 -.11792354E+02 0.55891580E+02 0.15350617E+03 0.18246723E+03 0.80419002E+02 0.0000E+00 0.9000E+01
#aMCatNLO 1  0  0  2  1 0.49015034D+02 0.00000000D+00  -5  5  0 0.00000000D+00 0.00000000D+00 0.00000000D+00 0.00000000D+00 0.00000000D+00
  <mgrwgt>
 0.1251698033D+01    8    2    0
 0.160644412996607D+03 0.000000000000000D+00 0.000000000000000D+00 0.160644412996607D+03
 0.160644412996607D+03 0.000000000000000D+00 0.000000000000000D+00 -.160644412996607D+03
 0.174896050938449D+03 0.117923537509036D+02 -.558915800657079D+02 -.108169775374810D+03
 0.146392775054766D+03 -.117923537509036D+02 0.558915800657079D+02 0.108169775374810D+03
 0.000000000000000D+00 -.000000000000000D+00 -.000000000000000D+00 -.000000000000000D+00
 0.166529670194463D+03 0.000000000000000D+00 0.000000000000000D+00 0.166529670194463D+03
 0.311665499861577D+03 0.000000000000000D+00 0.000000000000000D+00 -.311665499861577D+03
 0.168764743886359D+03 0.157481609673559D+02 -.301302821184575D+02 -.108169775374810D+03
 0.156241384138141D+03 -.830879551875034D+01 0.785774635339064D+02 0.108169775374810D+03
 0.153189042031540D+03 -.743936544860556D+01 -.484471814154489D+02 -.145135829667115D+03
0.763637327581D-03 0.000000000000D+00 0.000000000000D+00 0.135490824424D-02 0.000000000000D+00  5 -1 2 25 24 21 0 0.32618400D-01 0.18725865D-01 0.13932834D+05 0.13932834D+05 0.13932834D+05 0.12514931D+01  1  2  2  2  5  2        2 0.221718664358D+00 0.100000000000D+01
-.375249554951D-04 0.000000000000D+00 -.293256840824D-05 0.135490824424D-02 0.000000000000D+00  5 -1 2 25 24 21 2 0.32618400D-01 0.18725865D-01 0.13932834D+05 0.13932834D+05 0.13932834D+05 0.12514931D+01  1  2  3  2  5  2        2 -.170644469112D-01 0.100000000000D+01
0.520397526766D-04 0.000000000000D+00 0.000000000000D+00 0.135490824424D-02 0.000000000000D+00  5 -1 2 25 24 21 2 0.32618400D-01 0.18725865D-01 0.13932834D+05 0.13932834D+05 0.13932834D+05 0.12514931D+01  1  2 15  2  5  2        2 0.236650406405D-01 0.100000000000D+01
0.240253415912D-02 0.000000000000D+00 0.000000000000D+00 0.135490824424D-02 0.000000000000D+00  5 -1 2 25 24 21 2 0.32618400D-01 0.36364118D-01 0.21213561D+05 0.21213561D+05 0.21213561D+05 0.12310194D+01  1  2 12  2  5  2        2 0.513704779590D+00 0.100000000000D+01
-.287043049368D-02 0.000000000000D+00 -.298840871147D-03 0.135490824424D-02 0.000000000000D+00  5 -1 2 25 24 21 2 0.32618400D-01 0.37186453D-01 0.13932834D+05 0.13932834D+05 0.13932834D+05 0.12514931D+01  1  2  5  2  5  2        2 -.616222573996D+00 0.100000000000D+01
0.251803368652D-02 0.000000000000D+00 0.240090632686D-03 0.135490824424D-02 0.000000000000D+00  5 -1 2 25 24 21 2 0.32618400D-01 0.18725865D-01 0.13932834D+05 0.13932834D+05 0.13932834D+05 0.12514931D+01  1  2  6  2  5  2        2 0.114507403400D+01 0.100000000000D+01
0.172858209385D-03 0.000000000000D+00 0.000000000000D+00 0.135490824424D-02 0.000000000000D+00  5 -1 21 25 24 -2 2 0.32618400D-01 0.36364118D-01 0.21213561D+05 0.21213561D+05 0.21213561D+05 0.12310194D+01  1  2 12  4  5  2        2 0.156087880988D+00 0.100000000000D+01
-.195321084618D-03 0.000000000000D+00 -.221907628856D-04 0.135490824424D-02 0.000000000000D+00  5 -1 21 25 24 -2 2 0.32618400D-01 0.37186453D-01 0.13932834D+05 0.13932834D+05 0.13932834D+05 0.12514931D+01  1  2  5  4  5  2        2 -.175265345496D+00 0.100000000000D+01
  </mgrwgt>
  </event>
  <event>
  4     66 0.45252658E-03 0.49115341E+02 0.75467711E-02 0.12276388E+00
       -1 -1    0    0    0  501 0.00000000E+00 0.00000000E+00 0.91751265E+02 0.91751823E+02 0.32000000E+00 0.0000E+00 0.9000E+01
        2 -1    0    0  501    0 0.00000000E+00 0.00000000E+00 -.15039647E+03 0.15039682E+03 0.32000000E+00 0.0000E+00 0.9000E+01
       25  1    1    2    0    0 -.22591628E+02 0.45529478E+02 -.58350430E+02 0.14701390E+03 0.12500000E+03 0.0000E+00 0.9000E+01
       24  1    1    2    0    0 0.22591628E+02 -.45529478E+02 -.29477954E+00 0.95134735E+02 0.80419002E+02 0.0000E+00 0.9000E+01
#aMCatNLO 1  0  0  1  2 0.27921641D+02 0.00000000D+00  -5  5  0 0.00000000D+00 0.00000000D+00 0.00000000D+00 0.00000000D+00 0.00000000D+00
  <mgrwgt>
 0.3246548588D+00    9    2    0
 0.117469892227198D+03 0.000000000000000D+00 0.000000000000000D+00 0.117469892227198D+03
 0.117469892227198D+03 0.000000000000000D+00 0.000000000000000D+00 -.117469892227198D+03
 0.136959533087508D+03 -.225916276005443D+02 0.455294776791225D+02 -.234435220940203D+02
 0.979802513668889D+02 0.225916276005443D+02 -.455294776791225D+02 0.234435220940203D+02
 0.000000000000000D+00 -.000000000000000D+00 0.000000000000000D+00 0.000000000000000D+00
 0.157944981406981D+03 0.000000000000000D+00 0.000000000000000D+00 0.157944981406981D+03
 0.123212399039015D+03 0.000000000000000D+00 0.000000000000000D+00 -.123212399039015D+03
 0.132171647060152D+03 -.114855491947919D+02 0.341002597954116D+02 -.234435220940203D+02
 0.104421506585230D+03 0.309440221170216D+02 -.541248912258236D+02 0.234435220940203D+02
 0.445642268006138D+02 -.194584729222296D+02 0.200246314304120D+02 0.347325823679662D+02
0.287944487615D-03 0.000000000000D+00 0.000000000000D+00 0.273661817691D-02 0.000000000000D+00  5 -1 2 25 24 21 0 0.14115648D-01 0.23137988D-01 0.13233335D+05 0.13233335D+05 0.13233335D+05 0.12540748D+01  1  2  2  1  5  1       -1 0.254574313629D+00 0.100000000000D+01
-.159883916561D-04 0.000000000000D+00 -.110578264997D-05 0.273661817691D-02 0.000000000000D+00  5 -1 2 25 24 21 2 0.14115648D-01 0.23137988D-01 0.13233335D+05 0.13233335D+05 0.13233335D+05 0.12540748D+01  1  2  3  1  5  1       -1 -.222309232734D-01 0.100000000000D+01
0.199132358823D-04 0.000000000000D+00 0.000000000000D+00 0.273661817691D-02 0.000000000000D+00  5 -1 2 25 24 21 2 0.14115648D-01 0.23137988D-01 0.13233335D+05 0.13233335D+05 0.13233335D+05 0.12540748D+01  1  2 15  1  5  1       -1 0.276881895658D-01 0.100000000000D+01
0.449617102581D-03 0.000000000000D+00 0.000000000000D+00 0.273661817691D-02 0.000000000000D+00  5 -1 2 25 24 21 2 0.19235749D-01 0.23137988D-01 0.16867958D+05 0.16867958D+05 0.16867958D+05 0.12420533D+01  1  2 12  1  5  1       -1 0.379919610720D+00 0.100000000000D+01
-.461174786402D-03 0.000000000000D+00 0.000000000000D+00 0.273661817691D-02 0.000000000000D+00  5 -1 2 25 24 21 2 0.14115648D-01 0.23137988D-01 0.13233335D+05 0.13233335D+05 0.13233335D+05 0.12540748D+01  1  2  4  1  5  1       -1 -.641236561668D+00 0.100000000000D+01
-.615465087118D-03 0.000000000000D+00 -.122772962313D-03 0.273661817691D-02 0.000000000000D+00  5 -1 2 25 24 21 2 0.19802391D-01 0.23137988D-01 0.13233335D+05 0.13233335D+05 0.13233335D+05 0.12540748D+01  1  2  5  1  5  1       -1 -.502267904768D+00 0.100000000000D+01
0.627444101262D-03 0.000000000000D+00 0.116059313027D-03 0.273661817691D-02 0.000000000000D+00  5 -1 2 25 24 21 2 0.14115648D-01 0.23137988D-01 0.13233335D+05 0.13233335D+05 0.13233335D+05 0.12540748D+01  1  2  6  1  5  1       -1 0.872424317191D+00 0.100000000000D+01
0.177750772513D-04 0.000000000000D+00 0.000000000000D+00 0.273661817691D-02 0.000000000000D+00  5 21 2 25 24 1 2 0.19235749D-01 0.23137988D-01 0.16867958D+05 0.16867958D+05 0.16867958D+05 0.12420533D+01  1  2 12  3  5  1       -1 0.194531421206D+00 0.100000000000D+01
-.226494380563D-04 0.000000000000D+00 -.517761323708D-05 0.273661817691D-02 0.000000000000D+00  5 21 2 25 24 1 2 0.19802391D-01 0.23137988D-01 0.13233335D+05 0.13233335D+05 0.13233335D+05 0.12540748D+01  1  2  5  3  5  1       -1 -.238747603781D+00 0.100000000000D+01
  </mgrwgt>
  </event>
  <event>
  4     66 0.45252658E-03 0.72497371E+02 0.75467711E-02 0.12137681E+00
       -1 -1    0    0    0  501 0.00000000E+00 0.00000000E+00 0.28510719E+02 0.28512515E+02 0.32000000E+00 0.0000E+00 0.9000E+01
        2 -1    0    0  501    0 0.00000000E+00 0.00000000E+00 -.55826845E+03 0.55826855E+03 0.32000000E+00 0.0000E+00 0.9000E+01
       25  1    1    2    0    0 -.14666770E+02 0.33551856E+02 -.15850664E+03 0.20515895E+03 0.12500000E+03 0.0000E+00 0.9000E+01
       24  1    1    2    0    0 0.14666770E+02 -.33551856E+02 -.37125110E+03 0.38162211E+03 0.80419002E+02 0.0000E+00 0.9000E+01
#aMCatNLO 1  0  0  1  2 0.54209802D+02 0.00000000D+00  -5  5  0 0.00000000D+00 0.00000000D+00 0.00000000D+00 0.00000000D+00 0.00000000D+00
  <mgrwgt>
 0.2981127941D+00    9    2    0
 0.126163341655656D+03 0.000000000000000D+00 0.000000000000000D+00 0.126163341655656D+03
 0.126163341655656D+03 0.000000000000000D+00 0.000000000000000D+00 -.126163341655656D+03
 0.144310023420444D+03 -.146667700283876D+02 0.335518557797761D+02 0.621252097805439D+02
 0.108016659890869D+03 0.146667700283876D+02 -.335518557797761D+02 -.621252097805439D+02
 0.000000000000000D+00 0.000000000000000D+00 0.000000000000000D+00 0.000000000000000D+00
 0.197965089629638D+03 0.000000000000000D+00 0.000000000000000D+00 0.197965089629638D+03
 0.139701474174298D+03 0.000000000000000D+00 0.000000000000000D+00 -.139701474174298D+03
 0.148628703099289D+03 -.445561081448810D+02 0.249139102045738D+02 0.621252097805439D+02
 0.109455503658771D+03 -.752250861184268D+01 -.399645030087069D+02 -.621252097805439D+02
 0.795823570458759D+02 0.520786167567237D+02 0.150505928041331D+02 0.582636154553402D+02
0.253519165083D-03 0.000000000000D+00 0.000000000000D+00 0.210742822792D-02 0.000000000000D+00  5 -1 2 25 24 21 0 0.43864096D-02 0.85887600D-01 0.11948261D+05 0.11948261D+05 0.11948261D+05 0.12592441D+01  1  2  2  1  5  1       -1 0.317183621091D+00 0.100000000000D+01
-.137322218206D-04 0.000000000000D+00 -.973580347049D-06 0.210742822792D-02 0.000000000000D+00  5 -1 2 25 24 21 2 0.43864096D-02 0.85887600D-01 0.11948261D+05 0.11948261D+05 0.11948261D+05 0.12592441D+01  1  2  3  1  5  1       -1 -.272433564989D-01 0.100000000000D+01
0.173420969478D-04 0.000000000000D+00 0.000000000000D+00 0.210742822792D-02 0.000000000000D+00  5 -1 2 25 24 21 2 0.43864096D-02 0.85887600D-01 0.11948261D+05 0.11948261D+05 0.11948261D+05 0.12592441D+01  1  2 15  1  5  1       -1 0.344049881920D-01 0.100000000000D+01
0.140269266448D-03 0.000000000000D+00 0.000000000000D+00 0.210742822792D-02 0.000000000000D+00  5 -1 2 25 24 21 2 0.70084221D-02 0.85887600D-01 0.19508859D+05 0.19508859D+05 0.19508859D+05 0.12350166D+01  1  2 12  1  5  1       -1 0.135832270252D+00 0.100000000000D+01
-.215316212590D-03 0.000000000000D+00 0.000000000000D+00 0.210742822792D-02 0.000000000000D+00  5 -1 2 25 24 21 2 0.43864096D-02 0.85887600D-01 0.11948261D+05 0.11948261D+05 0.11948261D+05 0.12592441D+01  1  2  4  1  5  1       -1 -.427165859699D+00 0.100000000000D+01
-.229395243674D-03 0.000000000000D+00 -.808850267392D-04 0.210742822792D-02 0.000000000000D+00  5 -1 2 25 24 21 2 0.76058616D-02 0.85887600D-01 0.11948261D+05 0.11948261D+05 0.11948261D+05 0.12592441D+01  1  2  5  1  5  1       -1 -.201600847053D+00 0.100000000000D+01
0.246499557406D-03 0.000000000000D+00 0.700098693098D-04 0.210742822792D-02 0.000000000000D+00  5 -1 2 25 24 21 2 0.43864096D-02 0.85887600D-01 0.11948261D+05 0.11948261D+05 0.11948261D+05 0.12592441D+01  1  2  6  1  5  1       -1 0.489030501178D+00 0.100000000000D+01
0.751820757313D-05 0.000000000000D+00 0.000000000000D+00 0.210742822792D-02 0.000000000000D+00  5 21 2 25 24 1 2 0.70084221D-02 0.85887600D-01 0.19508859D+05 0.19508859D+05 0.19508859D+05 0.12350166D+01  1  2 12  3  5  1       -1 0.118621985707D+00 0.100000000000D+01
-.994282663662D-05 0.000000000000D+00 -.493069657536D-05 0.210742822792D-02 0.000000000000D+00  5 21 2 25 24 1 2 0.76058616D-02 0.85887600D-01 0.11948261D+05 0.11948261D+05 0.11948261D+05 0.12592441D+01  1  2  5  3  5  1       -1 -.140950509074D+00 0.100000000000D+01
  </mgrwgt>
  </event>
  <event>
  5     66 -.45252658E-03 0.10447091E+03 0.75467711E-02 0.12500211E+00
       -1 -1    0    0    0  502 0.00000000E+00 0.00000000E+00 0.24264163E+02 0.24266273E+02 0.32000000E+00 0.0000E+00 0.9000E+01
        2 -1    0    0  501    0 0.00000000E+00 0.00000000E+00 -.62954716E+03 0.62954724E+03 0.32000000E+00 0.0000E+00 0.9000E+01
       25  1    1    2    0    0 -.16178767E+02 0.31603725E+01 -.43803006E+03 0.45581473E+03 0.12500000E+03 0.0000E+00 0.9000E+01
       24  1    1    2    0    0 0.15864727E+02 0.18517268E+02 -.12727780E+03 0.15251699E+03 0.80419002E+02 0.0000E+00 0.9000E+01
       21  1    1    2  501  502 0.31404051E+00 -.21677640E+02 -.39975136E+02 0.45481785E+02 0.75000000E+00 0.0000E+00 0.9000E+01
#aMCatNLO 2  0  0  1  2 0.21679915D+02 0.00000000D+00  -5  5  0 0.00000000D+00 0.00000000D+00 0.00000000D+00 0.00000000D+00 0.00000000D+00
  <mgrwgt>
 -.3614180340D-01    2    2    0
 0.111830784236999D+03 0.000000000000000D+00 0.000000000000000D+00 0.111830784236999D+03
 0.111830784236999D+03 0.000000000000000D+00 0.000000000000000D+00 -.111830784236999D+03
 0.132303197329940D+03 -.159936392313402D+02 -.961868034019907D+01 -.391257014809420D+02
 0.913583711440584D+02 0.159936392313402D+02 0.961868034019907D+01 0.391257014809420D+02
 0.000000000000000D+00 0.000000000000000D+00 -.000000000000000D+00 0.000000000000000D+00
 0.126728856243419D+03 0.000000000000000D+00 0.000000000000000D+00 0.126728856243419D+03
 0.120529769836358D+03 0.000000000000000D+00 0.000000000000000D+00 -.120529769836358D+03
 0.132013487881589D+03 -.161787673263460D+02 0.316037246009380D+01 -.391257014809420D+02
 0.926963604109687D+02 0.158647268177999D+02 0.185172677706638D+02 0.391257014809420D+02
 0.225487777872190D+02 0.314040508546139D+00 -.216776402307576D+02 0.619908640706124D+01
-.171774647907D-03 0.000000000000D+00 0.000000000000D+00 0.265707583292D-02 0.000000000000D+00  5 -1 2 25 24 21 2 0.38472788D-02 0.89858809D-01 0.13432425D+05 0.13432425D+05 0.13432425D+05 0.12533247D+01  1  2 13  1  5  1       -1 -.390585187197D+00 0.100000000000D+01
0.162383377185D-03 0.000000000000D+00 0.000000000000D+00 0.265707583292D-02 0.479265835459D-04  5 -1 2 25 24 21 2 0.37329272D-02 0.96848659D-01 0.13432425D+05 0.13432425D+05 0.13432425D+05 0.12533247D+01  1  2  1  1  5  1       -1 0.354443383796D+00 0.100000000000D+01
  </mgrwgt>
  </event>
  <event>
  5     66 0.45252658E-03 0.10461176E+03 0.75467711E-02 0.11815762E+00
       -3 -1    0    0    0  501 0.00000000E+00 0.00000000E+00 0.46076834E+03 0.46076861E+03 0.50000000E+00 0.0000E+00 0.9000E+01
       21 -1    0    0  501  502 0.00000000E+00 0.00000000E+00 -.75076598E+02 0.75080344E+02 0.75000000E+00 0.0000E+00 0.9000E+01
       25  1    1    2    0    0 -.48085191E+02 -.49876319E+02 0.15020213E+03 0.20732948E+03 0.12500000E+03 0.0000E+00 0.9000E+01
       24  1    1    2    0    0 -.27084627E+00 -.38599607E+02 0.21198460E+02 0.91687478E+02 0.80419002E+02 0.0000E+00 0.9000E+01
       -4  1    1    2    0  502 0.48356037E+02 0.88475925E+02 0.21429115E+03 0.23683200E+03 0.15500000E+01 0.0000E+00 0.9000E+01
#aMCatNLO 2  0  0  2  2 0.10082805D+03 0.00000000D+00  -5  5  0 0.00000000D+00 0.00000000D+00 0.00000000D+00 0.00000000D+00 0.00000000D+00
  <mgrwgt>
 0.2896547786D-01    1    2    0
 0.111654245791884D+03 0.000000000000000D+00 0.000000000000000D+00 0.111654245791884D+03
 0.111654245791884D+03 0.000000000000000D+00 0.000000000000000D+00 -.111654245791884D+03
 0.132159028168675D+03 -.191629762165847D+02 0.304199032960594D+01 0.382692482790808D+02
 0.911494634150924D+02 0.191629762165847D+02 -.304199032960594D+01 -.382692482790808D+02
 0.000000000000000D+00 0.000000000000000D+00 0.000000000000000D+00 0.000000000000000D+00
 0.239985038457481D+03 0.000000000000000D+00 0.000000000000000D+00 0.239985038457481D+03
 0.144142810793024D+03 0.000000000000000D+00 0.000000000000000D+00 -.144142810793024D+03
 0.147950559684882D+03 -.480851909872290D+02 -.498763185785171D+02 0.382692482790808D+02
 0.970657216740813D+02 -.270846266819774D+00 -.385996068398826D+02 -.382692482790808D+02
 0.139111567891541D+03 0.483560372540487D+02 0.884759254183996D+02 0.958422276644570D+02
0.326096741932D-04 0.000000000000D+00 0.000000000000D+00 0.267364704262D-02 0.194283460368D-06  5 -3 21 25 24 -4 2 0.70885822D-01 0.11550241D-01 0.27713388D+05 0.27713388D+05 0.27713388D+05 0.12185288D+01  1  2  1  4  5  2        4 0.289654778552D-01 0.100000000000D+01
  </mgrwgt>
  </event>
  <event>
  4     66 0.45252658E-03 0.60215528E+02 0.75467711E-02 0.12116323E+00
       -1 -1    0    0    0  501 0.00000000E+00 0.00000000E+00 0.12961690E+02 0.12965639E+02 0.32000000E+00 0.0000E+00 0.9000E+01
        2 -1    0    0  501    0 0.00000000E+00 0.00000000E+00 -.10583698E+04 0.10583699E+04 0.32000000E+00 0.0000E+00 0.9000E+01
       25  1    1    2    0    0 -.68925096E+01 0.46164796E+02 -.74540216E+03 0.75725034E+03 0.12500000E+03 0.0000E+00 0.9000E+01
       24  1    1    2    0    0 0.68925096E+01 -.46164796E+02 -.30000596E+03 0.31408516E+03 0.80419002E+02 0.0000E+00 0.9000E+01
#aMCatNLO 1  0  0  1  2 0.50405611D+02 0.00000000D+00  -5  5  0 0.00000000D+00 0.00000000D+00 0.00000000D+00 0.00000000D+00 0.00000000D+00
  <mgrwgt>
 0.2862332768D+00    9    2    0
 0.117134122732354D+03 0.000000000000000D+00 0.000000000000000D+00 0.117134122732354D+03
 0.117134122732354D+03 0.000000000000000D+00 0.000000000000000D+00 -.117134122732354D+03
 0.136679631402263D+03 -.689250955101696D+01 0.461647964862160D+02 -.296247619017241D+02
 0.975886140624457D+02 0.689250955101696D+01 -.461647964862160D+02 0.296247619017241D+02
 0.000000000000000D+00 0.000000000000000D+00 0.000000000000000D+00 0.000000000000000D+00
 0.214435655304497D+03 0.000000000000000D+00 0.000000000000000D+00 0.214435655304497D+03
 0.126527701494793D+03 0.000000000000000D+00 0.000000000000000D+00 -.126527701494793D+03
 0.129932979957859D+03 -.788950968346156D+01 0.178243765655359D+02 -.296247619017241D+02
 0.109696601801180D+03 0.611736471966202D+01 -.681988256754393D+02 0.296247619017241D+02
 0.101333775040250D+03 0.177214496379954D+01 0.503744491099035D+02 0.879079538097043D+02
0.178171600717D-03 0.000000000000D+00 0.000000000000D+00 0.268465313064D-02 0.000000000000D+00  5 -1 2 25 24 21 0 0.19944136D-02 0.16282643D+00 0.12815811D+05 0.12815811D+05 0.12815811D+05 0.12556901D+01  1  2  2  1  5  1       -1 0.318924400585D+00 0.100000000000D+01
-.988442602798D-05 0.000000000000D+00 -.684225860412D-06 0.268465313064D-02 0.000000000000D+00  5 -1 2 25 24 21 2 0.19944136D-02 0.16282643D+00 0.12815811D+05 0.12815811D+05 0.12815811D+05 0.12556901D+01  1  2  3  1  5  1       -1 -.278975223012D-01 0.100000000000D+01
0.122820672665D-04 0.000000000000D+00 0.000000000000D+00 0.268465313064D-02 0.000000000000D+00  5 -1 2 25 24 21 2 0.19944136D-02 0.16282643D+00 0.12815811D+05 0.12815811D+05 0.12815811D+05 0.12556901D+01  1  2 15  1  5  1       -1 0.346645565967D-01 0.100000000000D+01
0.172864221721D-03 0.000000000000D+00 0.000000000000D+00 0.268465313064D-02 0.000000000000D+00  5 -1 2 25 24 21 2 0.36711779D-02 0.16282643D+00 0.19956779D+05 0.19956779D+05 0.19956779D+05 0.12339295D+01  1  2 12  1  5  1       -1 0.197017615719D+00 0.100000000000D+01
-.211310368934D-03 0.000000000000D+00 0.000000000000D+00 0.268465313064D-02 0.000000000000D+00  5 -1 2 25 24 21 2 0.19944136D-02 0.16282643D+00 0.12815811D+05 0.12815811D+05 0.12815811D+05 0.12556901D+01  1  2  4  1  5  1       -1 -.596396362634D+00 0.100000000000D+01
-.231936556296D-03 0.000000000000D+00 -.524093601445D-04 0.268465313064D-02 0.000000000000D+00  5 -1 2 25 24 21 2 0.39488989D-02 0.16282643D+00 0.12815811D+05 0.12815811D+05 0.12815811D+05 0.12556901D+01  1  2  5  1  5  1       -1 -.243601361962D+00 0.100000000000D+01
0.223711960404D-03 0.000000000000D+00 0.421799686459D-04 0.268465313064D-02 0.000000000000D+00  5 -1 2 25 24 21 2 0.19944136D-02 0.16282643D+00 0.12815811D+05 0.12815811D+05 0.12815811D+05 0.12556901D+01  1  2  6  1  5  1       -1 0.631398260935D+00 0.100000000000D+01
0.115158887397D-04 0.000000000000D+00 0.000000000000D+00 0.268465313064D-02 0.000000000000D+00  5 21 2 25 24 1 2 0.36711779D-02 0.16282643D+00 0.19956779D+05 0.19956779D+05 0.19956779D+05 0.12339295D+01  1  2 12  3  5  1       -1 0.243741329438D+00 0.100000000000D+01
-.140330352588D-04 0.000000000000D+00 -.387560126107D-05 0.268465313064D-02 0.000000000000D+00  5 21 2 25 24 1 2 0.39488989D-02 0.16282643D+00 0.12815811D+05 0.12815811D+05 0.12815811D+05 0.12556901D+01  1  2  5  3  5  1       -1 -.271617639555D+00 0.100000000000D+01
  </mgrwgt>
  </event>
  <event>
  5     66 0.45252658E-03 0.13629655E+03 0.75467711E-02 0.12023927E+00
       -1 -1    0    0    0  502 0.00000000E+00 0.00000000E+00 0.37406604E+02 0.37407973E+02 0.32000000E+00 0.0000E+00 0.9000E+01
        2 -1    0    0  501    0 0.00000000E+00 0.00000000E+00 -.63288571E+03 0.63288579E+03 0.32000000E+00 0.0000E+00 0.9000E+01
       25  1    1    2    0    0 -.29694880E+02 0.70073016E+02 -.33460953E+03 0.36521302E+03 0.12500000E+03 0.0000E+00 0.9000E+01
       24  1    1    2    0    0 0.32620206E+02 -.93137211E+02 -.17686596E+03 0.21791604E+03 0.80419002E+02 0.0000E+00 0.9000E+01
       21  1    1    2  501  502 -.29253259E+01 0.23064196E+02 -.84003617E+02 0.87164700E+02 0.75000000E+00 0.0000E+00 0.9000E+01
#aMCatNLO 2  0  0  1  1 0.23248971D+02 0.00000000D+00  -5  5  0 0.00000000D+00 0.00000000D+00 0.00000000D+00 0.00000000D+00 0.00000000D+00
  <mgrwgt>
 0.1215832931D+00    1    2    0
 0.139545525388019D+03 0.000000000000000D+00 0.000000000000000D+00 0.139545525388019D+03
 0.139545525388019D+03 0.000000000000000D+00 0.000000000000000D+00 -.139545525388019D+03
 0.155951970560957D+03 -.312920524026919D+02 0.826656278492162D+02 -.297189930947841D+02
 0.123139080215082D+03 0.312920524026919D+02 -.826656278492162D+02 0.297189930947841D+02
 0.000000000000000D+00 -.000000000000000D+00 0.000000000000000D+00 -.000000000000000D+00
 0.146201507466832D+03 0.000000000000000D+00 0.000000000000000D+00 0.146201507466832D+03
 0.161920395374675D+03 0.000000000000000D+00 0.000000000000000D+00 -.161920395374675D+03
 0.149332622082234D+03 -.296948801313537D+02 0.700730159289004D+02 -.297189930947841D+02
 0.130725102807353D+03 0.326202060127343D+02 -.931372114610556D+02 0.297189930947841D+02
 0.280641779519210D+02 -.292532588138058D+01 0.230641955321553D+02 -.157188879078427D+02
0.108522344908D-03 0.000000000000D+00 0.000000000000D+00 0.240333917413D-02 0.361147020493D-04  5 -1 2 25 24 21 2 0.57547810D-02 0.97363884D-01 0.22036903D+05 0.22036903D+05 0.22036903D+05 0.12292157D+01  1  2  1  1  5  1       -1 0.121583293053D+00 0.100000000000D+01
  </mgrwgt>
  </event>
  <event>
  4     66 0.45252658E-03 0.11726112E+03 0.75467711E-02 0.12359304E+00
       -1 -1    0    0    0  501 0.00000000E+00 0.00000000E+00 0.10441178E+02 0.10446080E+02 0.32000000E+00 0.0000E+00 0.9000E+01
        2 -1    0    0  501    0 0.00000000E+00 0.00000000E+00 -.16640434E+04 0.16640434E+04 0.32000000E+00 0.0000E+00 0.9000E+01
       25  1    1    2    0    0 -.21267818E+01 0.55504404E+02 -.55737321E+03 0.57391215E+03 0.12500000E+03 0.0000E+00 0.9000E+01
       24  1    1    2    0    0 0.21267818E+01 -.55504404E+02 -.10962290E+04 0.11005773E+04 0.80419002E+02 0.0000E+00 0.9000E+01
#aMCatNLO 1  0  0  1  1 0.13921989D+02 0.00000000D+00  -5  5  0 0.00000000D+00 0.00000000D+00 0.00000000D+00 0.00000000D+00 0.00000000D+00
  <mgrwgt>
 0.1034488966D+00    4    2    0
 0.131828309337132D+03 0.000000000000000D+00 0.000000000000000D+00 0.131828309337132D+03
 0.131828309337132D+03 0.000000000000000D+00 0.000000000000000D+00 -.131828309337132D+03
 0.149195186170487D+03 -.212678183344665D+01 0.555044041982113D+02 0.595729929588968D+02
 0.114461432503777D+03 0.212678183344665D+01 -.555044041982113D+02 -.595729929588968D+02
 0.000000000000000D+00 0.000000000000000D+00 0.000000000000000D+00 -.000000000000000D+00
 0.136342924764619D+03 0.000000000000000D+00 0.000000000000000D+00 0.136342924764619D+03
 0.143200115321584D+03 0.000000000000000D+00 0.000000000000000D+00 -.143200115321584D+03
 0.148849376483324D+03 -.978632841186041D+01 0.537254424421866D+02 0.595729929588968D+02
 0.115174551144295D+03 -.377470986689114D+01 -.568750503495103D+02 -.595729929588968D+02
 0.155191124585838D+02 0.135610382787516D+02 0.314960790732370D+01 -.685719055696506D+01
0.305221984940D-03 0.000000000000D+00 0.000000000000D+00 0.212545823819D-02 0.000000000000D+00  5 -1 2 25 24 21 0 0.16067146D-02 0.25600705D+00 0.13750170D+05 0.13750170D+05 0.13750170D+05 0.12521530D+01  1  2  2  1  5  1       -1 0.354783855260D+00 0.100000000000D+01
-.166740823835D-04 0.000000000000D+00 -.117213278896D-05 0.212545823819D-02 0.000000000000D+00  5 -1 2 25 24 21 2 0.16067146D-02 0.25600705D+00 0.13750170D+05 0.13750170D+05 0.13750170D+05 0.12521530D+01  1  2  3  1  5  1       -1 -.303881859759D-01 0.100000000000D+01
0.210604990060D-04 0.000000000000D+00 0.000000000000D+00 0.212545823819D-02 0.000000000000D+00  5 -1 2 25 24 21 2 0.16067146D-02 0.25600705D+00 0.13750170D+05 0.13750170D+05 0.13750170D+05 0.12521530D+01  1  2 15  1  5  1       -1 0.383823436768D-01 0.100000000000D+01
-.142294609276D-03 0.000000000000D+00 0.000000000000D+00 0.212545823819D-02 0.000000000000D+00  5 -1 2 25 24 21 2 0.16067146D-02 0.25600705D+00 0.13750170D+05 0.13750170D+05 0.13750170D+05 0.12521530D+01  1  2  4  1  5  1       -1 -.259329116326D+00 0.100000000000D+01
  </mgrwgt>
  </event>
  <event>
  4     66 0.45252658E-03 0.79201332E+02 0.75467711E-02 0.12208493E+00
       -1 -1    0    0    0  501 0.00000000E+00 0.00000000E+00 0.98722164E+02 0.98722683E+02 0.32000000E+00 0.0000E+00 0.9000E+01
        2 -1    0    0  501    0 0.00000000E+00 0.00000000E+00 -.16507917E+03 0.16507948E+03 0.32000000E+00 0.0000E+00 0.9000E+01
       25  1    1    2    0    0 0.18316436E+01 0.74589154E+02 -.35371897E+02 0.14981011E+03 0.12500000E+03 0.0000E+00 0.9000E+01
       24  1    1    2    0    0 -.18316436E+01 -.74589154E+02 -.30985112E+02 0.11399206E+03 0.80419002E+02 0.0000E+00 0.9000E+01
#aMCatNLO 1  0  0  2  1 0.13480008D+02 0.00000000D+00  -5  5  0 0.00000000D+00 0.00000000D+00 0.00000000D+00 0.00000000D+00 0.00000000D+00
  <mgrwgt>
 0.3565307950D+00    9    2    0
 0.127660027464763D+03 0.000000000000000D+00 0.000000000000000D+00 0.127660027464763D+03
 0.127660027464763D+03 0.000000000000000D+00 0.000000000000000D+00 -.127660027464763D+03
 0.145593957582703D+03 0.183164360180487D+01 0.745891536306003D+02 0.238824767988981D+01
 0.109726097346822D+03 -.183164360180487D+01 -.745891536306003D+02 -.238824767988981D+01
 0.000000000000000D+00 0.000000000000000D+00 -.000000000000000D+00 -.000000000000000D+00
 0.131167664715381D+03 0.000000000000000D+00 0.000000000000000D+00 0.131167664715381D+03
 0.141480435847590D+03 0.000000000000000D+00 0.000000000000000D+00 -.141480435847590D+03
 0.147773921213471D+03 -.476455541241511D+01 0.786366776736326D+02 0.238824767988981D+01
 0.107901734794237D+03 -.672487355501681D+01 -.715865962727925D+02 -.238824767988981D+01
 0.169724445552622D+02 0.114894289674319D+02 -.705008140084006D+01 -.103127711322086D+02
0.335707968449D-03 0.000000000000D+00 0.000000000000D+00 0.265363887248D-02 0.000000000000D+00  5 -1 2 25 24 21 0 0.15188089D-01 0.25396860D-01 0.16291264D+05 0.16291264D+05 0.16291264D+05 0.12437547D+01  1  2  2  2  5  2        2 0.240756188290D+00 0.100000000000D+01
-.186504419687D-04 0.000000000000D+00 -.128920699278D-05 0.265363887248D-02 0.000000000000D+00  5 -1 2 25 24 21 2 0.15188089D-01 0.25396860D-01 0.16291264D+05 0.16291264D+05 0.16291264D+05 0.12437547D+01  1  2  3  2  5  2        2 -.206906619016D-01 0.100000000000D+01
0.231827831055D-04 0.000000000000D+00 0.000000000000D+00 0.265363887248D-02 0.000000000000D+00  5 -1 2 25 24 21 2 0.15188089D-01 0.25396860D-01 0.16291264D+05 0.16291264D+05 0.16291264D+05 0.12437547D+01  1  2 15  2  5  2        2 0.257188075209D-01 0.100000000000D+01
0.116183583107D-02 0.000000000000D+00 0.000000000000D+00 0.265363887248D-02 0.000000000000D+00  5 -1 2 25 24 21 2 0.15188089D-01 0.28469570D-01 0.18105039D+05 0.18105039D+05 0.18105039D+05 0.12386139D+01  1  2 12  2  5  2        2 0.113224111687D+01 0.100000000000D+01
-.116763192010D-02 0.000000000000D+00 0.000000000000D+00 0.265363887248D-02 0.000000000000D+00  5 -1 2 25 24 21 2 0.15188089D-01 0.25396860D-01 0.16291264D+05 0.16291264D+05 0.16291264D+05 0.12437547D+01  1  2  4  2  5  2        2 -.129536218632D+01 0.100000000000D+01
-.256906580467D-02 0.000000000000D+00 -.440803451747D-03 0.265363887248D-02 0.000000000000D+00  5 -1 2 25 24 21 2 0.15188089D-01 0.28827605D-01 0.16291264D+05 0.16291264D+05 0.16291264D+05 0.12437547D+01  1  2  5  2  5  2        2 -.248184619414D+01 0.100000000000D+01
0.260747471313D-02 0.000000000000D+00 0.437288442740D-03 0.265363887248D-02 0.000000000000D+00  5 -1 2 25 24 21 2 0.15188089D-01 0.25396860D-01 0.16291264D+05 0.16291264D+05 0.16291264D+05 0.12437547D+01  1  2  6  2  5  2        2 0.289271309477D+01 0.100000000000D+01
0.211431981290D-04 0.000000000000D+00 0.000000000000D+00 0.265363887248D-02 0.000000000000D+00  5 -1 21 25 24 -2 2 0.15188089D-01 0.28469570D-01 0.18105039D+05 0.18105039D+05 0.18105039D+05 0.12386139D+01  1  2 12  4  5  2        2 0.108067282650D+00 0.100000000000D+01
-.487630589975D-04 0.000000000000D+00 -.875334944581D-05 0.265363887248D-02 0.000000000000D+00  5 -1 21 25 24 -2 2 0.15188089D-01 0.28827605D-01 0.16291264D+05 0.16291264D+05 0.16291264D+05 0.12437547D+01  1  2  5  4  5  2        2 -.245066652756D+00 0.100000000000D+01
  </mgrwgt>
  </event>
  <event>
  4     66 0.45252658E-03 0.62948545E+02 0.75467711E-02 0.11586529E+00
       -1 -1    0    0    0  501 0.00000000E+00 0.00000000E+00 0.32110581E+03 0.32110597E+03 0.32000000E+00 0.0000E+00 0.9000E+01
        2 -1    0    0  501    0 0.00000000E+00 0.00000000E+00 -.49481152E+02 0.49482187E+02 0.32000000E+00 0.0000E+00 0.9000E+01
       25  1    1    2    0    0 -.14258459E+02 -.69916732E+02 0.14214895E+03 0.20229428E+03 0.12500000E+03 0.0000E+00 0.9000E+01
       24  1    1    2    0    0 0.14258459E+02 0.69916732E+02 0.12947571E+03 0.16829388E+03 0.80419002E+02 0.0000E+00 0.9000E+01
#aMCatNLO 1  0  0  1  2 0.10649799D+03 0.00000000D+00  -5  5  0 0.00000000D+00 0.00000000D+00 0.00000000D+00 0.00000000D+00 0.00000000D+00
  <mgrwgt>
 0.2202292299D+00    7    2    0
 0.126051207404963D+03 0.000000000000000D+00 0.000000000000000D+00 0.126051207404963D+03
 0.126051207404963D+03 0.000000000000000D+00 0.000000000000000D+00 -.126051207404963D+03
 0.144214032327790D+03 -.142584587514838D+02 -.699167322318002D+02 -.900189026260323D+01
 0.107888382482135D+03 0.142584587514838D+02 0.699167322318002D+02 0.900189026260323D+01
 0.000000000000000D+00 -.000000000000000D+00 -.000000000000000D+00 0.000000000000000D+00
 0.305870174271503D+03 0.000000000000000D+00 0.000000000000000D+00 0.305870174271503D+03
 0.153611539771635D+03 0.000000000000000D+00 0.000000000000000D+00 -.153611539771635D+03
 0.147617865011148D+03 0.445590649078013D+02 -.640272580756966D+02 -.900189026260323D+01
 0.126056117681491D+03 0.614090145982033D+02 0.746379779223495D+02 0.900189026260323D+01
 0.185807731350499D+03 -.105968079506005D+03 -.106107198466529D+02 0.152258634499867D+03
0.610715324427D-03 0.000000000000D+00 0.000000000000D+00 0.266696263926D-02 0.000000000000D+00  5 -1 2 25 24 21 0 0.49400986D-01 0.76125769D-02 0.15806146D+05 0.15806146D+05 0.15806146D+05 0.12452391D+01  1  2  2  1  5  1       -1 0.252920932882D+00 0.100000000000D+01
-.339283478659D-04 0.000000000000D+00 -.234530765084D-05 0.266696263926D-02 0.000000000000D+00  5 -1 2 25 24 21 2 0.49400986D-01 0.76125769D-02 0.15806146D+05 0.15806146D+05 0.15806146D+05 0.12452391D+01  1  2  3  1  5  1       -1 -.217878378702D-01 0.100000000000D+01
0.422122997005D-04 0.000000000000D+00 0.000000000000D+00 0.266696263926D-02 0.000000000000D+00  5 -1 2 25 24 21 2 0.49400986D-01 0.76125769D-02 0.15806146D+05 0.15806146D+05 0.15806146D+05 0.12452391D+01  1  2 15  1  5  1       -1 0.271075604870D-01 0.100000000000D+01
0.183630102625D-04 0.000000000000D+00 0.000000000000D+00 0.266696263926D-02 0.000000000000D+00  5 -1 2 25 24 21 2 0.11789629D+00 0.76125769D-02 0.36019373D+05 0.36019373D+05 0.36019373D+05 0.12066508D+01  1  2 12  1  5  1       -1 0.189692029873D-02 0.100000000000D+01
-.311041241316D-03 0.000000000000D+00 -.166766794349D-03 0.266696263926D-02 0.000000000000D+00  5 -1 2 25 24 21 2 0.13593228D+00 0.76125769D-02 0.15806146D+05 0.15806146D+05 0.15806146D+05 0.12452391D+01  1  2  5  1  5  1       -1 -.241814063830D-01 0.100000000000D+01
0.174622091480D-05 0.000000000000D+00 0.000000000000D+00 0.266696263926D-02 0.000000000000D+00  5 21 2 25 24 1 2 0.11789629D+00 0.76125769D-02 0.36019373D+05 0.36019373D+05 0.36019373D+05 0.12066508D+01  1  2 12  3  5  1       -1 0.153324547974D-02 0.100000000000D+01
-.257333670300D-04 0.000000000000D+00 -.188945921840D-04 0.266696263926D-02 0.000000000000D+00  5 21 2 25 24 1 2 0.13593228D+00 0.76125769D-02 0.15806146D+05 0.15806146D+05 0.15806146D+05 0.12452391D+01  1  2  5  3  5  1       -1 -.172601849495D-01 0.100000000000D+01
  </mgrwgt>
  </event>
  <event>
  5     66 0.45252658E-03 0.10822398E+03 0.75467711E-02 0.12030790E+00
       -1 -1    0    0    0  502 0.00000000E+00 0.00000000E+00 0.38575276E+03 0.38575290E+03 0.32000000E+00 0.0000E+00 0.9000E+01
        2 -1    0    0  501    0 0.00000000E+00 0.00000000E+00 -.80001730E+02 0.80002370E+02 0.32000000E+00 0.0000E+00 0.9000E+01
       25  1    1    2    0    0 0.66743305E+02 0.35858879E+01 0.78162979E+02 0.16187025E+03 0.12500000E+03 0.0000E+00 0.9000E+01
       24  1    1    2    0    0 -.56431849E+01 0.27907322E+02 0.23437678E+02 0.88471492E+02 0.80419002E+02 0.0000E+00 0.9000E+01
       21  1    1    2  501  502 -.61100120E+02 -.31493210E+02 0.20415038E+03 0.21541352E+03 0.75000000E+00 0.0000E+00 0.9000E+01
#aMCatNLO 2  0  0  1  2 0.68738977D+02 0.00000000D+00  -5  5  0 0.00000000D+00 0.00000000D+00 0.00000000D+00 0.00000000D+00 0.00000000D+00
  <mgrwgt>
 0.5580716901D-01    2    2    0
 0.109113757699035D+03 0.000000000000000D+00 0.000000000000000D+00 0.109113757699035D+03
 0.109113757699035D+03 0.000000000000000D+00 0.000000000000000D+00 -.109113757699035D+03
 0.130095951509299D+03 0.294976837394877D+02 -.156118511313838D+02 0.136423369466752D+02
 0.881315638887708D+02 -.294976837394877D+02 0.156118511313838D+02 -.136423369466752D+02
 0.000000000000000D+00 -.000000000000000D+00 -.000000000000000D+00 0.000000000000000D+00
 0.250775981170737D+03 0.000000000000000D+00 0.000000000000000D+00 0.250775981170737D+03
 0.123060471700125D+03 0.000000000000000D+00 0.000000000000000D+00 -.123060471700125D+03
 0.142403092176450D+03 0.667433046249808D+02 0.358588786565104D+01 0.136423369466752D+02
 0.863944064340420D+02 -.564318488549326D+01 0.279073219012757D+02 -.136423369466752D+02
 0.145038954260369D+03 -.611001197394876D+02 -.314932097669267D+02 0.127715509470612D+03
-.986781681077D-04 0.000000000000D+00 0.000000000000D+00 0.299660226533D-02 0.000000000000D+00  5 -1 2 25 24 21 2 0.58869423D-01 0.10913042D-01 0.21874052D+05 0.21874052D+05 0.21874052D+05 0.12295664D+01  1  2 13  1  5  1       -1 -.287934145731D-01 0.100000000000D+01
0.340526509470D-03 0.000000000000D+00 0.000000000000D+00 0.299660226533D-02 0.714444659608D-05  5 -1 2 25 24 21 2 0.59346198D-01 0.12307927D-01 0.21874052D+05 0.21874052D+05 0.21874052D+05 0.12295664D+01  1  2  1  1  5  1       -1 0.846005835835D-01 0.100000000000D+01
  </mgrwgt>
  </event>
  <event>
  4     66 0.45252658E-03 0.10715673E+03 0.75467711E-02 0.10635251E+00
       -1 -1    0    0    0  501 0.00000000E+00 0.00000000E+00 0.18183664E+02 0.18186480E+02 0.32000000E+00 0.0000E+00 0.9000E+01
        2 -1    0    0  501    0 0.00000000E+00 0.00000000E+00 -.63357146E+03 0.63357155E+03 0.32000000E+00 0.0000E+00 0.9000E+01
       25  1    1    2    0    0 0.23483601E+02 -.18478580E+02 -.38742281E+03 0.40818424E+03 0.12500000E+03 0.0000E+00 0.9000E+01
       24  1    1    2    0    0 -.23483601E+02 0.18478580E+02 -.22796499E+03 0.24357379E+03 0.80419002E+02 0.0000E+00 0.9000E+01
#aMCatNLO 1  0  0  1  2 0.31477309D+03 0.00000000D+00  -5  5  0 0.00000000D+00 0.00000000D+00 0.00000000D+00 0.00000000D+00 0.00000000D+00
  <mgrwgt>
 0.3810868226D+00    5    2    0
 0.107338690613988D+03 0.000000000000000D+00 0.000000000000000D+00 0.107338690613988D+03
 0.107338690613988D+03 0.000000000000000D+00 0.000000000000000D+00 -.107338690613988D+03
 0.128667868362585D+03 0.234836009041525D+02 -.184785799272284D+02 -.612232973785124D+01
 0.860095128653918D+02 -.234836009041525D+02 0.184785799272284D+02 0.612232973785124D+01
 0.000000000000000D+00 -.000000000000000D+00 -.000000000000000D+00 0.000000000000000D+00
 0.452747485254843D+03 0.000000000000000D+00 0.000000000000000D+00 0.452747485254843D+03
 0.284961439677156D+03 0.000000000000000D+00 0.000000000000000D+00 -.284961439677156D+03
 0.213526984974618D+03 0.805912671980273D+02 0.153089313939112D+03 -.612232973785124D+01
 0.167482827870231D+03 0.188208226183075D+02 0.145573264686858D+03 0.612232973785124D+01
 0.356699112087151D+03 -.994120898163348D+02 -.298662578625970D+03 0.167786045577687D+03
0.145945663190D-03 0.000000000000D+00 0.000000000000D+00 0.308003112432D-02 0.000000000000D+00  5 -1 2 25 24 21 0 0.27977096D-02 0.97472756D-01 0.11482565D+05 0.11482565D+05 0.11482565D+05 0.12612738D+01  1  2  2  1  5  1       -1 0.303984914741D+00 0.100000000000D+01
-.810806402230D-05 0.000000000000D+00 -.560469775024D-06 0.308003112432D-02 0.000000000000D+00  5 -1 2 25 24 21 2 0.27977096D-02 0.97472756D-01 0.11482565D+05 0.11482565D+05 0.11482565D+05 0.12612738D+01  1  2  3  1  5  1       -1 -.268656118878D-01 0.100000000000D+01
0.100606120256D-04 0.000000000000D+00 0.000000000000D+00 0.308003112432D-02 0.000000000000D+00  5 -1 2 25 24 21 2 0.27977096D-02 0.97472756D-01 0.11482565D+05 0.11482565D+05 0.11482565D+05 0.12612738D+01  1  2 15  1  5  1       -1 0.333352693431D-01 0.100000000000D+01
0.261805547781D-03 0.000000000000D+00 -.108533684005D-03 0.308003112432D-02 0.000000000000D+00  5 -1 2 25 24 21 2 0.32211228D-01 0.97472756D-01 0.11482565D+05 0.11482565D+05 0.11482565D+05 0.12612738D+01  1  2  5  1  5  1       -1 0.206939991426D-01 0.100000000000D+01
0.550308242590D-04 0.000000000000D+00 -.310357622977D-04 0.308003112432D-02 0.000000000000D+00  5 21 2 25 24 1 2 0.32211228D-01 0.97472756D-01 0.11482565D+05 0.11482565D+05 0.11482565D+05 0.12612738D+01  1  2  5  3  5  1       -1 0.499382512881D-01 0.100000000000D+01
  </mgrwgt>
  </event>
  <event>
  5     66 0.45252658E-03 0.12858253E+03 0.75467711E-02 0.12098831E+00
       -1 -1    0    0    0  501 0.00000000E+00 0.00000000E+00 0.10525017E+04 0.10525017E+04 0.32000000E+00 0.0000E+00 0.9000E+01
        2 -1    0    0  502    0 0.00000000E+00 0.00000000E+00 -.19424679E+02 0.19427315E+02 0.32000000E+00 0.0000E+00 0.9000E+01
       25  1    1    2    0    0 0.38827900E+02 0.82813569E+02 0.54633223E+03 0.56786407E+03 0.12500000E+03 0.0000E+00 0.9000E+01
       24  1    1    2    0    0 -.31899019E+02 -.57087753E+02 0.36469045E+03 0.37913441E+03 0.80419002E+02 0.0000E+00 0.9000E+01
       21  1    1    2  502  501 -.69288814E+01 -.25725816E+02 0.12205430E+03 0.12493055E+03 0.75000000E+00 0.0000E+00 0.9000E+01
#aMCatNLO 2  0  0  2  2 0.26642578D+02 0.00000000D+00  -5  5  0 0.00000000D+00 0.00000000D+00 0.00000000D+00 0.00000000D+00 0.00000000D+00
  <mgrwgt>
 0.1384623571D+00    1    2    0
 0.128582620324783D+03 0.000000000000000D+00 0.000000000000000D+00 0.128582620324783D+03
 0.128582620324783D+03 0.000000000000000D+00 0.000000000000000D+00 -.128582620324783D+03
 0.146387872742447D+03 0.347800306777745D+02 0.677844841736384D+02 0.149858018306165D+00
 0.110777367907120D+03 -.347800306777745D+02 -.677844841736384D+02 -.149858018306165D+00
 0.000000000000000D+00 -.000000000000000D+00 -.000000000000000D+00 0.000000000000000D+00
 0.146449401693818D+03 0.000000000000000D+00 0.000000000000000D+00 0.146449401693818D+03
 0.139600949283433D+03 0.000000000000000D+00 0.000000000000000D+00 -.139600949283433D+03
 0.154889365359496D+03 0.388279002388947D+02 0.828135689792462D+02 0.149858018306165D+00
 0.103652290832885D+03 -.318990188426841D+02 -.570877533275113D+02 -.149858018306165D+00
 0.275086947848697D+02 -.692888139621065D+01 -.257258156517348D+02 0.684845241038552D+01
0.838000091594D-03 0.000000000000D+00 0.000000000000D+00 0.264094758730D-02 0.304318385120D-04  5 -1 2 25 24 21 2 0.16191772D+00 0.29885112D-02 0.20332486D+05 0.20332486D+05 0.20332486D+05 0.12330385D+01  1  2  1  2  5  2        2 0.138462357143D+00 0.100000000000D+01
  </mgrwgt>
  </event>
  <event>
  4     66 0.45252658E-03 0.15131099E+03 0.75467711E-02 0.11412685E+00
       -1 -1    0    0    0  501 0.00000000E+00 0.00000000E+00 0.84955595E+01 0.85015841E+01 0.32000000E+00 0.0000E+00 0.9000E+01
        2 -1    0    0  501    0 0.00000000E+00 0.00000000E+00 -.29825200E+04 0.29825200E+04 0.32000000E+00 0.0000E+00 0.9000E+01
       25  1    1    2    0    0 -.44102872E+02 0.10066173E+03 -.11582700E+04 0.11701676E+04 0.12500000E+03 0.0000E+00 0.9000E+01
       24  1    1    2    0    0 0.44102872E+02 -.10066173E+03 -.18157545E+04 0.18208540E+04 0.80419002E+02 0.0000E+00 0.9000E+01
#aMCatNLO 1  0  0  1  2 0.10221985D+03 0.00000000D+00  -5  5  0 0.00000000D+00 0.00000000D+00 0.00000000D+00 0.00000000D+00 0.00000000D+00
  <mgrwgt>
 0.2969976297D+00    4    2    0
 0.159208076145571D+03 0.000000000000000D+00 0.000000000000000D+00 0.159208076145571D+03
 0.159208076145571D+03 0.000000000000000D+00 0.000000000000000D+00 -.159208076145571D+03
 0.173588288926448D+03 -.441028717842904D+02 0.100661725132845D+03 0.492955154762565D+02
 0.144827863364694D+03 0.441028717842904D+02 -.100661725132845D+03 -.492955154762565D+02
 0.000000000000000D+00 -.000000000000000D+00 -.000000000000000D+00 -.000000000000000D+00
 0.203385119931608D+03 0.000000000000000D+00 0.000000000000000D+00 0.203385119931608D+03
 0.239422786502787D+03 0.000000000000000D+00 0.000000000000000D+00 -.239422786502787D+03
 0.207217998366714D+03 -.223092436014609D+02 0.156161930863346D+03 0.492955154762565D+02
 0.127203508482205D+03 0.596712874589305D+02 -.610148033081788D+02 -.492955154762565D+02
 0.108386399585475D+03 -.373620438574696D+02 -.951471275551673D+02 -.360376665711792D+02
0.112315662851D-02 0.000000000000D+00 0.000000000000D+00 0.213536826916D-02 0.000000000000D+00  5 -1 2 25 24 21 0 0.13074739D-02 0.45884969D+00 0.22895015D+05 0.22895015D+05 0.22895015D+05 0.12274144D+01  1  2  2  1  5  1       -1 0.352225400099D+00 0.100000000000D+01
-.622012300114D-04 0.000000000000D+00 -.431321718742D-05 0.213536826916D-02 0.000000000000D+00  5 -1 2 25 24 21 2 0.13074739D-02 0.45884969D+00 0.22895015D+05 0.22895015D+05 0.22895015D+05 0.12274144D+01  1  2  3  1  5  1       -1 -.293874381690D-01 0.100000000000D+01
0.772394574421D-04 0.000000000000D+00 0.000000000000D+00 0.213536826916D-02 0.000000000000D+00  5 -1 2 25 24 21 2 0.13074739D-02 0.45884969D+00 0.22895015D+05 0.22895015D+05 0.22895015D+05 0.12274144D+01  1  2 15  1  5  1       -1 0.364923616361D-01 0.100000000000D+01
-.131932909752D-03 0.000000000000D+00 0.000000000000D+00 0.213536826916D-02 0.000000000000D+00  5 -1 2 25 24 21 2 0.13074739D-02 0.45884969D+00 0.22895015D+05 0.22895015D+05 0.22895015D+05 0.12274144D+01  1  2  4  1  5  1       -1 -.623326938566D-01 0.100000000000D+01
  </mgrwgt>
  </event>
  <event>
  4     66 0.45252658E-03 0.83701980E+02 0.75467711E-02 0.12455182E+00
       -1 -1    0    0    0  501 0.00000000E+00 0.00000000E+00 0.65564994E+01 0.65643038E+01 0.32000000E+00 0.0000E+00 0.9000E+01
        2 -1    0    0  501    0 0.00000000E+00 0.00000000E+00 -.28573010E+04 0.28573010E+04 0.32000000E+00 0.0000E+00 0.9000E+01
       25  1    1    2    0    0 0.17902769E+02 -.44353940E+02 -.23884421E+04 0.23921891E+04 0.12500000E+03 0.0000E+00 0.9000E+01
       24  1    1    2    0    0 -.17902769E+02 0.44353940E+02 -.46230243E+03 0.47167630E+03 0.80419002E+02 0.0000E+00 0.9000E+01
#aMCatNLO 1  0  0  2  1 0.93087173D+01 0.00000000D+00  -5  5  0 0.00000000D+00 0.00000000D+00 0.00000000D+00 0.00000000D+00 0.00000000D+00
  <mgrwgt>
 0.8339403164D+00   11    2    0
 0.136912722133701D+03 0.000000000000000D+00 0.000000000000000D+00 0.136912722133701D+03
 0.136912722133701D+03 0.000000000000000D+00 0.000000000000000D+00 -.136912722133701D+03
 0.153634659845024D+03 0.179027688474670D+02 -.443539404662713D+02 -.754375737839227D+02
 0.120190784422379D+03 -.179027688474670D+02 0.443539404662713D+02 0.754375737839227D+02
 0.000000000000000D+00 -.000000000000000D+00 -.000000000000000D+00 -.000000000000000D+00
 0.139047218407416D+03 0.000000000000000D+00 0.000000000000000D+00 0.139047218407416D+03
 0.147531359662084D+03 0.000000000000000D+00 0.000000000000000D+00 -.147531359662084D+03
 0.152323696456655D+03 0.186810870667504D+02 -.392134919360530D+02 -.754375737839227D+02
 0.121659927409439D+03 -.172875321281935D+02 0.484173076224940D+02 0.754375737839227D+02
 0.125949542034063D+02 -.139355493855689D+01 -.920381568644102D+01 -.848414125466738D+01
0.542014258733D-03 0.000000000000D+00 0.000000000000D+00 0.184474336275D-02 0.000000000000D+00  5 -1 2 25 24 21 0 0.10092939D-02 0.43958538D+00 0.12928461D+05 0.12928461D+05 0.12928461D+05 0.12552485D+01  1  2  2  2  5  2        2 0.290507469325D+00 0.100000000000D+01
-.288486820260D-04 0.000000000000D+00 -.208147746917D-05 0.184474336275D-02 0.000000000000D+00  5 -1 2 25 24 21 2 0.10092939D-02 0.43958538D+00 0.12928461D+05 0.12928461D+05 0.12928461D+05 0.12552485D+01  1  2  3  2  5  2        2 -.243630687496D-01 0.100000000000D+01
0.368889020269D-04 0.000000000000D+00 0.000000000000D+00 0.184474336275D-02 0.000000000000D+00  5 -1 2 25 24 21 2 0.10092939D-02 0.43958538D+00 0.12928461D+05 0.12928461D+05 0.12928461D+05 0.12552485D+01  1  2 15  2  5  2        2 0.311531339757D-01 0.100000000000D+01
0.196843657260D-02 0.000000000000D+00 0.000000000000D+00 0.184474336275D-02 0.000000000000D+00  5 -1 2 25 24 21 2 0.10092939D-02 0.47693439D+00 0.14052724D+05 0.14052724D+05 0.14052724D+05 0.12510653D+01  1  2 12  2  5  2        2 0.119865461398D+01 0.100000000000D+01
-.199498710781D-02 0.000000000000D+00 0.000000000000D+00 0.184474336275D-02 0.000000000000D+00  5 -1 2 25 24 21 2 0.10092939D-02 0.43958538D+00 0.12928461D+05 0.12928461D+05 0.12928461D+05 0.12552485D+01  1  2  4  2  5  2        2 -.168479128503D+01 0.100000000000D+01
-.441742513417D-02 0.000000000000D+00 -.637946175077D-03 0.184474336275D-02 0.000000000000D+00  5 -1 2 25 24 21 2 0.10092939D-02 0.47572691D+00 0.12928461D+05 0.12928461D+05 0.12928461D+05 0.12552485D+01  1  2  5  2  5  2        2 -.273789717746D+01 0.100000000000D+01
0.445590059066D-02 0.000000000000D+00 0.635960025337D-03 0.184474336275D-02 0.000000000000D+00  5 -1 2 25 24 21 2 0.10092939D-02 0.43958538D+00 0.12928461D+05 0.12928461D+05 0.12928461D+05 0.12552485D+01  1  2  6  2  5  2        2 0.376306315602D+01 0.100000000000D+01
0.777830636845D-07 0.000000000000D+00 0.000000000000D+00 0.184474336275D-02 0.178136666507D-03  5 -1 2 25 24 21 2 0.10250290D-02 0.47367861D+00 0.14052724D+05 0.14052724D+05 0.14052724D+05 0.12510653D+01  1  2 11  2  5  2        2 0.476766581465D-04 0.100000000000D+01
0.274258910748D-04 0.000000000000D+00 0.000000000000D+00 0.184474336275D-02 0.000000000000D+00  5 -1 21 25 24 -2 2 0.10092939D-02 0.47693439D+00 0.14052724D+05 0.14052724D+05 0.14052724D+05 0.12510653D+01  1  2 12  4  5  2        2 0.211308296618D-02 0.100000000000D+01
-.570045716660D-04 0.000000000000D+00 -.842735461816D-05 0.184474336275D-02 0.000000000000D+00  5 -1 21 25 24 -2 2 0.10092939D-02 0.47572691D+00 0.12928461D+05 0.12928461D+05 0.12928461D+05 0.12552485D+01  1  2  5  4  5  2        2 -.454737224739D-02 0.100000000000D+01
0.109703643075D-08 0.000000000000D+00 0.000000000000D+00 0.184474336275D-02 0.229627078122D-05  5 -1 21 25 24 -2 2 0.10250290D-02 0.47367861D+00 0.14052724D+05 0.14052724D+05 0.14052724D+05 0.12510653D+01  1  2 11  4  5  2        2 0.869814454615D-07 0.100000000000D+01
  </mgrwgt>
  </event>
  <event>
  4     66 0.45252658E-03 0.67162894E+02 0.75467711E-02 0.12393119E+00
       -1 -1    0    0    0  501 0.00000000E+00 0.00000000E+00 0.74124874E+02 0.74125565E+02 0.32000000E+00 0.0000E+00 0.9000E+01
        2 -1    0    0  501    0 0.00000000E+00 0.00000000E+00 -.23332307E+03 0.23332329E+03 0.32000000E+00 0.0000E+00 0.9000E+01
       25  1    1    2    0    0 -.22415789E+02 -.40027773E+02 -.12182474E+02 0.13370902E+03 0.12500000E+03 0.0000E+00 0.9000E+01
       24  1    1    2    0    0 0.22415789E+02 0.40027773E+02 -.14701572E+03 0.17373983E+03 0.80419002E+02 0.0000E+00 0.9000E+01
#aMCatNLO 1  0  0  1  2 0.17886757D+02 0.00000000D+00  -5  5  0 0.00000000D+00 0.00000000D+00 0.00000000D+00 0.00000000D+00 0.00000000D+00
  <mgrwgt>
 0.2973467227D+00    9    2    0
 0.131511151735230D+03 0.000000000000000D+00 0.000000000000000D+00 0.131511151735230D+03
 0.131511151735230D+03 0.000000000000000D+00 0.000000000000000D+00 -.131511151735230D+03
 0.148919911229761D+03 -.224157891724561D+02 -.400277729777107D+02 0.666892026260674D+02
 0.114102392240699D+03 0.224157891724561D+02 0.400277729777107D+02 -.666892026260674D+02
 0.000000000000000D+00 -.000000000000000D+00 -.000000000000000D+00 0.000000000000000D+00
 0.143662087570718D+03 0.000000000000000D+00 0.000000000000000D+00 0.143662087570718D+03
 0.138566203634232D+03 0.000000000000000D+00 0.000000000000000D+00 -.138566203634232D+03
 0.146182930630118D+03 -.189565688793783D+02 -.306210378176621D+02 0.666892026260674D+02
 0.117446863199120D+03 0.251300289887057D+02 0.474086660545149D+02 -.666892026260674D+02
 0.185984973757121D+02 -.617346010932741D+01 -.167876282368528D+02 0.509588393648602D+01
0.314690934345D-03 0.000000000000D+00 0.000000000000D+00 0.200698155692D-02 0.000000000000D+00  5 -1 2 25 24 21 0 0.11403897D-01 0.35895927D-01 0.12739352D+05 0.12739352D+05 0.12739352D+05 0.12559923D+01  1  2  2  1  5  1       -1 0.239964795636D+00 0.100000000000D+01
-.169861049291D-04 0.000000000000D+00 -.120849604791D-05 0.200698155692D-02 0.000000000000D+00  5 -1 2 25 24 21 2 0.11403897D-01 0.35895927D-01 0.12739352D+05 0.12739352D+05 0.12739352D+05 0.12559923D+01  1  2  3  1  5  1       -1 -.204329477926D-01 0.100000000000D+01
0.214735392412D-04 0.000000000000D+00 0.000000000000D+00 0.200698155692D-02 0.000000000000D+00  5 -1 2 25 24 21 2 0.11403897D-01 0.35895927D-01 0.12739352D+05 0.12739352D+05 0.12739352D+05 0.12559923D+01  1  2 15  1  5  1       -1 0.258309782065D-01 0.100000000000D+01
0.451628414212D-03 0.000000000000D+00 0.000000000000D+00 0.200698155692D-02 0.000000000000D+00  5 -1 2 25 24 21 2 0.12740784D-01 0.35895927D-01 0.14963123D+05 0.14963123D+05 0.14963123D+05 0.12479444D+01  1  2 12  1  5  1       -1 0.454783774325D+00 0.100000000000D+01
-.414477217791D-03 0.000000000000D+00 0.000000000000D+00 0.200698155692D-02 0.000000000000D+00  5 -1 2 25 24 21 2 0.11403897D-01 0.35895927D-01 0.12739352D+05 0.12739352D+05 0.12739352D+05 0.12559923D+01  1  2  4  1  5  1       -1 -.498583482657D+00 0.100000000000D+01
-.121681559358D-02 0.000000000000D+00 -.284140231970D-03 0.200698155692D-02 0.000000000000D+00  5 -1 2 25 24 21 2 0.13104781D-01 0.35895927D-01 0.12739352D+05 0.12739352D+05 0.12739352D+05 0.12559923D+01  1  2  5  1  5  1       -1 -.118207606929D+01 0.100000000000D+01
0.124697159948D-02 0.000000000000D+00 0.281416365870D-03 0.200698155692D-02 0.000000000000D+00  5 -1 2 25 24 21 2 0.11403897D-01 0.35895927D-01 0.12739352D+05 0.12739352D+05 0.12739352D+05 0.12559923D+01  1  2  6  1  5  1       -1 0.150000872462D+01 0.100000000000D+01
0.801315099802D-05 0.000000000000D+00 0.000000000000D+00 0.200698155692D-02 0.000000000000D+00  5 21 2 25 24 1 2 0.12740784D-01 0.35895927D-01 0.14963123D+05 0.14963123D+05 0.14963123D+05 0.12479444D+01  1  2 12  3  5  1       -1 0.115544400768D+00 0.100000000000D+01
-.243701884210D-04 0.000000000000D+00 -.609220230573D-05 0.200698155692D-02 0.000000000000D+00  5 21 2 25 24 1 2 0.13104781D-01 0.35895927D-01 0.12739352D+05 0.12739352D+05 0.12739352D+05 0.12559923D+01  1  2  5  3  5  1       -1 -.337693451154D+00 0.100000000000D+01
  </mgrwgt>
  </event>
  <event>
  4     66 0.45252658E-03 0.10914396E+03 0.75467711E-02 0.12022672E+00
       -1 -1    0    0    0  501 0.00000000E+00 0.00000000E+00 0.43342126E+01 0.43460095E+01 0.32000000E+00 0.0000E+00 0.9000E+01
        2 -1    0    0  501    0 0.00000000E+00 0.00000000E+00 -.27451985E+04 0.27451985E+04 0.32000000E+00 0.0000E+00 0.9000E+01
       25  1    1    2    0    0 0.35003984E+01 0.35972944E+02 -.16517360E+04 0.16568533E+04 0.12500000E+03 0.0000E+00 0.9000E+01
       24  1    1    2    0    0 -.35003984E+01 -.35972944E+02 -.10891283E+04 0.10926912E+04 0.80419002E+02 0.0000E+00 0.9000E+01
#aMCatNLO 1  0  0  2  2 0.68357299D+02 0.00000000D+00  -5  5  0 0.00000000D+00 0.00000000D+00 0.00000000D+00 0.00000000D+00 0.00000000D+00
  <mgrwgt>
 0.4502852164D+00    3    2    0
 0.109153642731445D+03 0.000000000000000D+00 0.000000000000000D+00 0.109153642731445D+03
 0.109153642731445D+03 0.000000000000000D+00 0.000000000000000D+00 -.109153642731445D+03
 0.130128169592084D+03 0.350039844201814D+01 0.359729441494723D+02 -.142654174573447D+01
 0.881791158708047D+02 -.350039844201814D+01 -.359729441494723D+02 0.142654174573447D+01
 0.000000000000000D+00 -.000000000000000D+00 0.000000000000000D+00 0.000000000000000D+00
 0.211110812866885D+03 0.000000000000000D+00 0.000000000000000D+00 0.211110812866885D+03
 0.126456181701778D+03 0.000000000000000D+00 0.000000000000000D+00 -.126456181701778D+03
 0.133599418427039D+03 0.414723403018788D+02 0.224012181047372D+02 -.142654174573447D+01
 0.951598243537000D+02 0.228970506498400D+02 -.454077776029926D+02 0.142654174573447D+01
 0.108807751787923D+03 -.643693909517189D+02 0.230065594982554D+02 0.846546311651070D+02
0.397639764905D-03 0.000000000000D+00 0.000000000000D+00 0.303473953907D-02 0.000000000000D+00  5 -1 2 25 24 21 0 0.66771083D-03 0.42233914D+00 0.11912405D+05 0.11912405D+05 0.11912405D+05 0.12593972D+01  1  2  2  2  5  2        2 0.440876991659D+00 0.100000000000D+01
-.220910978390D-04 0.000000000000D+00 -.152704139819D-05 0.303473953907D-02 0.000000000000D+00  5 -1 2 25 24 21 2 0.66771083D-03 0.42233914D+00 0.11912405D+05 0.11912405D+05 0.11912405D+05 0.12593972D+01  1  2  3  2  5  2        2 -.388481515609D-01 0.100000000000D+01
0.274411082068D-04 0.000000000000D+00 0.000000000000D+00 0.303473953907D-02 0.000000000000D+00  5 -1 2 25 24 21 2 0.66771083D-03 0.42233914D+00 0.11912405D+05 0.11912405D+05 0.11912405D+05 0.12593972D+01  1  2 15  2  5  2        2 0.482563763188D-01 0.100000000000D+01
  </mgrwgt>
  </event>
  <event>
  4     66 0.45252658E-03 0.12119343E+03 0.75467711E-02 0.12025160E+00
       -1 -1    0    0    0  501 0.00000000E+00 0.00000000E+00 0.63814866E+02 0.63815669E+02 0.32000000E+00 0.0000E+00 0.9000E+01
        2 -1    0    0  501    0 0.00000000E+00 0.00000000E+00 -.30560920E+03 0.30560937E+03 0.32000000E+00 0.0000E+00 0.9000E+01
       25  1    1    2    0    0 -.61347939E+02 0.69888806E+02 -.12346592E+03 0.19878845E+03 0.12500000E+03 0.0000E+00 0.9000E+01
       24  1    1    2    0    0 0.61347939E+02 -.69888806E+02 -.11832841E+03 0.17063658E+03 0.80419002E+02 0.0000E+00 0.9000E+01
#aMCatNLO 1  0  0  2  1 0.17413982D+02 0.00000000D+00  -5  5  0 0.00000000D+00 0.00000000D+00 0.00000000D+00 0.00000000D+00 0.00000000D+00
  <mgrwgt>
 0.5422349985D+00    9    2    0
 0.139651671567814D+03 0.000000000000000D+00 0.000000000000000D+00 0.139651671567814D+03
 0.139651671567814D+03 0.000000000000000D+00 0.000000000000000D+00 -.139651671567814D+03
 0.156045646560771D+03 -.613479387947302D+02 0.698888062494250D+02 0.878800189107352D+01
 0.123257696574858D+03 0.613479387947302D+02 -.698888062494250D+02 -.878800189107352D+01
 0.000000000000000D+00 -.000000000000000D+00 -.000000000000000D+00 -.000000000000000D+00
 0.148146512801847D+03 0.000000000000000D+00 0.000000000000000D+00 0.148146512801847D+03
 0.149141554400370D+03 0.000000000000000D+00 0.000000000000000D+00 -.149141554400370D+03
 0.156889820533808D+03 -.546555673550750D+02 0.769737342668774D+02 0.878800189107352D+01
 0.122955858853328D+03 0.666134096015453D+02 -.643144770328441D+02 -.878800189107352D+01
 0.174423878150810D+02 -.119578422464703D+02 -.126592572340332D+02 -.995041598523594D+00
0.326888758974D-03 0.000000000000D+00 0.000000000000D+00 0.249560398498D-02 0.000000000000D+00  5 -1 2 25 24 21 0 0.98177464D-02 0.47016875D-01 0.19424277D+05 0.19424277D+05 0.19424277D+05 0.12352250D+01  1  2  2  2  5  2        2 0.238794598073D+00 0.100000000000D+01
-.181603972434D-04 0.000000000000D+00 -.125533890625D-05 0.249560398498D-02 0.000000000000D+00  5 -1 2 25 24 21 2 0.98177464D-02 0.47016875D-01 0.19424277D+05 0.19424277D+05 0.19424277D+05 0.12352250D+01  1  2  3  2  5  2        2 -.202414683310D-01 0.100000000000D+01
0.225030913381D-04 0.000000000000D+00 0.000000000000D+00 0.249560398498D-02 0.000000000000D+00  5 -1 2 25 24 21 2 0.98177464D-02 0.47016875D-01 0.19424277D+05 0.19424277D+05 0.19424277D+05 0.12352250D+01  1  2 15  2  5  2        2 0.250818087604D-01 0.100000000000D+01
0.591299406446D-03 0.000000000000D+00 0.000000000000D+00 0.249560398498D-02 0.000000000000D+00  5 -1 2 25 24 21 2 0.98177464D-02 0.51551745D-01 0.22007558D+05 0.22007558D+05 0.22007558D+05 0.12292787D+01  1  2 12  2  5  2        2 0.594188543754D+00 0.100000000000D+01
-.479043882667D-03 0.000000000000D+00 0.000000000000D+00 0.249560398498D-02 0.000000000000D+00  5 -1 2 25 24 21 2 0.98177464D-02 0.47016875D-01 0.19424277D+05 0.19424277D+05 0.19424277D+05 0.12352250D+01  1  2  4  2  5  2        2 -.533939398473D+00 0.100000000000D+01
-.205277004255D-02 0.000000000000D+00 -.445214919606D-03 0.249560398498D-02 0.000000000000D+00  5 -1 2 25 24 21 2 0.98177464D-02 0.52951813D-01 0.19424277D+05 0.19424277D+05 0.19424277D+05 0.12352250D+01  1  2  5  2  5  2        2 -.201683576182D+01 0.100000000000D+01
0.209400952450D-02 0.000000000000D+00 0.442087572063D-03 0.249560398498D-02 0.000000000000D+00  5 -1 2 25 24 21 2 0.98177464D-02 0.47016875D-01 0.19424277D+05 0.19424277D+05 0.19424277D+05 0.12352250D+01  1  2  6  2  5  2        2 0.233397028198D+01 0.100000000000D+01
0.893971401782D-05 0.000000000000D+00 0.000000000000D+00 0.249560398498D-02 0.000000000000D+00  5 -1 21 25 24 -2 2 0.98177464D-02 0.51551745D-01 0.22007558D+05 0.22007558D+05 0.22007558D+05 0.12292787D+01  1  2 12  4  5  2        2 0.270717145874D-01 0.100000000000D+01
-.366177472490D-04 0.000000000000D+00 -.838075947431D-05 0.249560398498D-02 0.000000000000D+00  5 -1 21 25 24 -2 2 0.98177464D-02 0.52951813D-01 0.19424277D+05 0.19424277D+05 0.19424277D+05 0.12352250D+01  1  2  5  4  5  2        2 -.105855320052D+00 0.100000000000D+01
  </mgrwgt>
  </event>
  <event>
  4     66 0.45252658E-03 0.15106830E+03 0.75467711E-02 0.10490103E+00
       -1 -1    0    0    0  501 0.00000000E+00 0.00000000E+00 0.84942212E+02 0.84942814E+02 0.32000000E+00 0.0000E+00 0.9000E+01
        2 -1    0    0  501    0 0.00000000E+00 0.00000000E+00 -.30011815E+03 0.30011832E+03 0.32000000E+00 0.0000E+00 0.9000E+01
       25  1    1    2    0    0 0.51139547E+02 0.96901727E+02 -.55209003E+02 0.17515203E+03 0.12500000E+03 0.0000E+00 0.9000E+01
       24  1    1    2    0    0 -.51139547E+02 -.96901727E+02 -.15996694E+03 0.20990911E+03 0.80419002E+02 0.0000E+00 0.9000E+01
#aMCatNLO 1  0  0  2  2 0.32736764D+03 0.00000000D+00  -5  5  0 0.00000000D+00 0.00000000D+00 0.00000000D+00 0.00000000D+00 0.00000000D+00
  <mgrwgt>
 0.3568761645D+00    5    2    0
 0.159664799815890D+03 0.000000000000000D+00 0.000000000000000D+00 0.159664799815890D+03
 0.159664799815890D+03 0.000000000000000D+00 0.000000000000000D+00 -.159664799815890D+03
 0.174003877772003D+03 0.511395472203706D+02 0.969017268546653D+02 0.514504764057015D+02
 0.145325721859776D+03 -.511395472203706D+02 -.969017268546653D+02 -.514504764057015D+02
 0.000000000000000D+00 0.000000000000000D+00 0.000000000000000D+00 -.000000000000000D+00
 0.246640034591916D+03 0.000000000000000D+00 0.000000000000000D+00 0.246640034591916D+03
 0.171875060814767D+04 0.000000000000000D+00 0.000000000000000D+00 -.171875060814767D+04
 0.136993957052631D+03 -.450406053392520D+01 -.217923423539370D+02 0.514504764057015D+02
 0.320325364588418D+03 -.134453652668389D+03 -.274620077572793D+03 -.514504764057015D+02
 0.150807132109854D+04 0.138957713202314D+03 0.296412419926730D+03 -.147211057355576D+04
0.754167102004D-03 0.000000000000D+00 0.000000000000D+00 0.211535552309D-02 0.000000000000D+00  5 -1 2 25 24 21 0 0.13068092D-01 0.46172083D-01 0.22821631D+05 0.22821631D+05 0.22821631D+05 0.12275654D+01  1  2  2  2  5  2        2 0.363224462195D+00 0.100000000000D+01
-.417421356503D-04 0.000000000000D+00 -.289620024845D-05 0.211535552309D-02 0.000000000000D+00  5 -1 2 25 24 21 2 0.13068092D-01 0.46172083D-01 0.22821631D+05 0.22821631D+05 0.22821631D+05 0.12275654D+01  1  2  3  2  5  2        2 -.302950364852D-01 0.100000000000D+01
0.518610557546D-04 0.000000000000D+00 0.000000000000D+00 0.211535552309D-02 0.000000000000D+00  5 -1 2 25 24 21 2 0.13068092D-01 0.46172083D-01 0.22821631D+05 0.22821631D+05 0.22821631D+05 0.12275654D+01  1  2 15  2  5  2        2 0.376390079658D-01 0.100000000000D+01
-.187103791546D-02 0.000000000000D+00 -.742182134508D-03 0.211535552309D-02 0.000000000000D+00  5 -1 2 25 24 21 2 0.13068092D-01 0.54426371D+00 0.22821631D+05 0.22821631D+05 0.22821631D+05 0.12275654D+01  1  2  5  2  5  2        2 -.133316869439D-01 0.100000000000D+01
-.676904292075D-03 0.000000000000D+00 -.213620498526D-03 0.211535552309D-02 0.000000000000D+00  5 -1 21 25 24 -2 2 0.13068092D-01 0.54426371D+00 0.22821631D+05 0.22821631D+05 0.22821631D+05 0.12275654D+01  1  2  5  4  5  2        2 -.360582222671D-03 0.100000000000D+01
  </mgrwgt>
  </event>
  <event>
  5     66 -.45252658E-03 0.10525340E+03 0.75467711E-02 0.12603745E+00
       -1 -1    0    0    0  501 0.00000000E+00 0.00000000E+00 0.50326516E+01 0.50428149E+01 0.32000000E+00 0.0000E+00 0.9000E+01
        2 -1    0    0  502    0 0.00000000E+00 0.00000000E+00 -.24306129E+04 0.24306129E+04 0.32000000E+00 0.0000E+00 0.9000E+01
       25  1    1    2    0    0 0.14552897E+02 -.23689432E+02 -.15265250E+04 0.15318866E+04 0.12500000E+03 0.0000E+00 0.9000E+01
       24  1    1    2    0    0 -.71552677E+01 0.17738521E+02 -.80677737E+03 0.81100110E+03 0.80419002E+02 0.0000E+00 0.9000E+01
       21  1    1    2  502  501 -.73976297E+01 0.59509114E+01 -.92277833E+02 0.92767986E+02 0.75000000E+00 0.0000E+00 0.9000E+01
#aMCatNLO 2  0  0  2  1 0.94941178D+01 0.00000000D+00  -5  5  0 0.00000000D+00 0.00000000D+00 0.00000000D+00 0.00000000D+00 0.00000000D+00
  <mgrwgt>
 -.2611714082D+00    3    2    0
 0.105750542089716D+03 0.000000000000000D+00 0.000000000000000D+00 0.105750542089716D+03
 0.105750542089716D+03 0.000000000000000D+00 0.000000000000000D+00 -.105750542089716D+03
 0.127400038784164D+03 0.100808078707340D+02 -.200919273529325D+02 -.100230559274272D+02
 0.841010453952686D+02 -.100808078707340D+02 0.200919273529325D+02 0.100230559274272D+02
 0.000000000000000D+00 -.000000000000000D+00 0.000000000000000D+00 0.000000000000000D+00
 0.111255351411045D+03 0.000000000000000D+00 0.000000000000000D+00 0.111255351411045D+03
 0.110031403471495D+03 0.000000000000000D+00 0.000000000000000D+00 -.110031403471495D+03
 0.128446244289635D+03 0.145528974487801D+02 -.236894321973630D+02 -.100230559274272D+02
 0.832678244007801D+02 -.715526770141138D+01 0.177385207969950D+02 0.100230559274272D+02
 0.957268619212565D+01 -.739762974736873D+01 0.595091140036806D+01 0.122394793954962D+01
-.400070964349D-03 0.000000000000D+00 0.000000000000D+00 0.311497413916D-02 0.000000000000D+00  5 -1 2 25 24 21 2 0.73659167D-03 0.38282653D+00 0.12123230D+05 0.12123230D+05 0.12123230D+05 0.12585044D+01  1  2 13  2  5  2        2 -.840911922941D+00 0.100000000000D+01
-.679412344278D-05 0.000000000000D+00 0.000000000000D+00 0.311497413916D-02 0.000000000000D+00  5 -1 2 25 24 21 2 0.73659167D-03 0.35934507D+00 0.11078277D+05 0.11078277D+05 0.11078277D+05 0.12631124D+01  1  2  8  2  5  2        2 -.172618904950D-01 0.100000000000D+01
0.284388066150D-03 0.000000000000D+00 0.000000000000D+00 0.311497413916D-02 0.292500785246D-03  5 -1 2 25 24 21 2 0.77493471D-03 0.37389162D+00 0.12123230D+05 0.12123230D+05 0.12123230D+05 0.12585044D+01  1  2  1  2  5  2        2 0.597002405192D+00 0.100000000000D+01
  </mgrwgt>
  </event>
  <event>
  4     66 0.45252658E-03 0.11963111E+03 0.75467711E-02 0.11797864E+00
       -1 -1    0    0    0  501 0.00000000E+00 0.00000000E+00 0.49773219E+01 0.49875979E+01 0.32000000E+00 0.0000E+00 0.9000E+01
        2 -1    0    0  501    0 0.00000000E+00 0.00000000E+00 -.41999998E+04 0.41999998E+04 0.32000000E+00 0.0000E+00 0.9000E+01
       25  1    1    2    0    0 -.60055383E+02 0.50092245E+01 -.11553031E+04 0.11636073E+04 0.12500000E+03 0.0000E+00 0.9000E+01
       24  1    1    2    0    0 0.60055383E+02 -.50092245E+01 -.30397194E+04 0.30413801E+04 0.80419002E+02 0.0000E+00 0.9000E+01
#aMCatNLO 1  0  0  1  1 0.82377699D+02 0.00000000D+00  -5  5  0 0.00000000D+00 0.00000000D+00 0.00000000D+00 0.00000000D+00 0.00000000D+00
  <mgrwgt>
 0.1847807122D+00    4    2    0
 0.144659537348344D+03 0.000000000000000D+00 0.000000000000000D+00 0.144659537348344D+03
 0.144659537348344D+03 0.000000000000000D+00 0.000000000000000D+00 -.144659537348344D+03
 0.160485980964670D+03 -.600553826294930D+02 0.500922448664993D+01 0.806164299225661D+02
 0.128833093732018D+03 0.600553826294930D+02 -.500922448664993D+01 -.806164299225661D+02
 0.000000000000000D+00 -.000000000000000D+00 0.000000000000000D+00 -.000000000000000D+00
 0.180746492237477D+03 0.000000000000000D+00 0.000000000000000D+00 0.180746492237477D+03
 0.206330944709425D+03 0.000000000000000D+00 0.000000000000000D+00 -.206330944709425D+03
 0.153429289791949D+03 -.281293185448394D+02 -.250055919906892D+02 0.806164299225661D+02
 0.147388948033144D+03 0.881479395342051D+02 -.314200259446177D+02 -.806164299225661D+02
 0.862591991218081D+02 -.600186209893657D+02 0.564256179353069D+02 -.255844524719483D+02
0.204733698857D-02 0.000000000000D+00 0.000000000000D+00 0.176347724628D-02 0.000000000000D+00  5 -1 2 25 24 21 0 0.76653323D-03 0.64615461D+00 0.14311604D+05 0.14311604D+05 0.14311604D+05 0.12501552D+01  1  2  2  1  5  1       -1 0.211004515983D+00 0.100000000000D+01
-.108750164458D-03 0.000000000000D+00 -.786231311233D-05 0.176347724628D-02 0.000000000000D+00  5 -1 2 25 24 21 2 0.76653323D-03 0.64615461D+00 0.14311604D+05 0.14311604D+05 0.14311604D+05 0.12501552D+01  1  2  3  1  5  1       -1 -.175170196856D-01 0.100000000000D+01
0.139517443436D-03 0.000000000000D+00 0.000000000000D+00 0.176347724628D-02 0.000000000000D+00  5 -1 2 25 24 21 2 0.76653323D-03 0.64615461D+00 0.14311604D+05 0.14311604D+05 0.14311604D+05 0.12501552D+01  1  2 15  1  5  1       -1 0.224728837453D-01 0.100000000000D+01
-.193571398978D-03 0.000000000000D+00 0.000000000000D+00 0.176347724628D-02 0.000000000000D+00  5 -1 2 25 24 21 2 0.76653323D-03 0.64615461D+00 0.14311604D+05 0.14311604D+05 0.14311604D+05 0.12501552D+01  1  2  4  1  5  1       -1 -.311796678503D-01 0.100000000000D+01
  </mgrwgt>
  </event>
  <event>
  4     66 0.45252658E-03 0.16762403E+03 0.75467711E-02 0.11494388E+00
       -1 -1    0    0    0  501 0.00000000E+00 0.00000000E+00 0.16251079E+02 0.16254229E+02 0.32000000E+00 0.0000E+00 0.9000E+01
        2 -1    0    0  501    0 0.00000000E+00 0.00000000E+00 -.17447275E+04 0.17447275E+04 0.32000000E+00 0.0000E+00 0.9000E+01
       25  1    1    2    0    0 0.11819316E+03 0.57171950E+02 -.10178358E+04 0.10338535E+04 0.12500000E+03 0.0000E+00 0.9000E+01
       24  1    1    2    0    0 -.11819316E+03 -.57171950E+02 -.71064058E+03 0.72712826E+03 0.80419002E+02 0.0000E+00 0.9000E+01
#aMCatNLO 1  0  0  1  1 0.60130543D+02 0.00000000D+00  -5  5  0 0.00000000D+00 0.00000000D+00 0.00000000D+00 0.00000000D+00 0.00000000D+00
  <mgrwgt>
 0.4926822287D+00    3    2    0
 0.168393891202588D+03 0.000000000000000D+00 0.000000000000000D+00 0.168393891202588D+03
 0.168393891202588D+03 0.000000000000000D+00 0.000000000000000D+00 -.168393891202588D+03
 0.181989669499872D+03 0.118193162882216D+03 0.571719499853731D+02 -.160307263541105D+02
 0.154798112905303D+03 -.118193162882216D+03 -.571719499853731D+02 0.160307263541105D+02
 0.000000000000000D+00 -.000000000000000D+00 0.000000000000000D+00 -.000000000000000D+00
 0.174302925891450D+03 0.000000000000000D+00 0.000000000000000D+00 0.174302925891450D+03
 0.449516694422553D+03 0.000000000000000D+00 0.000000000000000D+00 -.449516694422553D+03
 0.193264506718118D+03 0.142423056381591D+03 0.344217718963363D+02 -.160307263541105D+02
 0.148849060070757D+03 -.985868823159421D+02 -.755808783844137D+02 0.160307263541105D+02
 0.281706053525128D+03 -.438361740656487D+02 0.411591064880773D+02 -.275213768531103D+03
0.856559835421D-03 0.000000000000D+00 0.000000000000D+00 0.226962267800D-02 0.000000000000D+00  5 -1 2 25 24 21 0 0.25004105D-02 0.26841985D+00 0.28097817D+05 0.28097817D+05 0.28097817D+05 0.12178956D+01  1  2  2  1  5  1       -1 0.483324241027D+00 0.100000000000D+01
-.475854426689D-04 0.000000000000D+00 -.328941530540D-05 0.226962267800D-02 0.000000000000D+00  5 -1 2 25 24 21 2 0.25004105D-02 0.26841985D+00 0.28097817D+05 0.28097817D+05 0.28097817D+05 0.12178956D+01  1  2  3  1  5  1       -1 -.398267704196D-01 0.100000000000D+01
0.587664644418D-04 0.000000000000D+00 0.000000000000D+00 0.226962267800D-02 0.000000000000D+00  5 -1 2 25 24 21 2 0.25004105D-02 0.26841985D+00 0.28097817D+05 0.28097817D+05 0.28097817D+05 0.12178956D+01  1  2 15  1  5  1       -1 0.491847581198D-01 0.100000000000D+01
  </mgrwgt>
  </event>
  <event>
  4     66 0.45252658E-03 0.81586071E+02 0.75467711E-02 0.12345494E+00
       -3 -1    0    0    0  501 0.00000000E+00 0.00000000E+00 0.42484112E+03 0.42484141E+03 0.50000000E+00 0.0000E+00 0.9000E+01
        4 -1    0    0  501    0 0.00000000E+00 0.00000000E+00 -.34792439E+02 0.34826948E+02 0.15500000E+01 0.0000E+00 0.9000E+01
       25  1    1    2    0    0 -.61313885E+02 0.15121285E+02 0.24499333E+03 0.28219635E+03 0.12500000E+03 0.0000E+00 0.9000E+01
       24  1    1    2    0    0 0.61313885E+02 -.15121285E+02 0.14505535E+03 0.17747201E+03 0.80419002E+02 0.0000E+00 0.9000E+01
#aMCatNLO 1  0  0  2  1 0.82299396D+01 0.00000000D+00  -5  5  0 0.00000000D+00 0.00000000D+00 0.00000000D+00 0.00000000D+00 0.00000000D+00
  <mgrwgt>
 0.1359523735D+00    8    2    0
 0.121611091034001D+03 0.000000000000000D+00 0.000000000000000D+00 0.121611091034001D+03
 0.121611091034001D+03 0.000000000000000D+00 0.000000000000000D+00 -.121611091034001D+03
 0.140437054948487D+03 -.613138854268837D+02 0.151212853120006D+02 0.104652084057748D+02
 0.102785127119515D+03 0.613138854268837D+02 -.151212853120006D+02 -.104652084057748D+02
 0.000000000000000D+00 0.000000000000000D+00 0.000000000000000D+00 0.000000000000000D+00
 0.125843838333883D+03 0.000000000000000D+00 0.000000000000000D+00 0.125843838333883D+03
 0.125748039829420D+03 0.000000000000000D+00 0.000000000000000D+00 -.125748039829420D+03
 0.140823282407785D+03 -.631023415536220D+02 0.107131121331036D+02 0.104652084057748D+02
 0.102538098580081D+03 0.600082922372583D+02 -.183393015635671D+02 -.104652084057748D+02
 0.823049717543604D+01 0.309404931636368D+01 0.762618943046347D+01 0.957985044631993D-01
0.528192888187D-03 0.000000000000D+00 0.000000000000D+00 0.273573344163D-02 0.000000000000D+00  5 -3 4 25 24 21 0 0.65362849D-01 0.53553602D-02 0.14677027D+05 0.14677027D+05 0.14677027D+05 0.12489016D+01  1  2  2  2  5  2        4 0.498286680783D-01 0.100000000000D+01
-.293435317627D-04 0.000000000000D+00 -.202839976702D-05 0.273573344163D-02 0.000000000000D+00  5 -3 4 25 24 21 2 0.65362849D-01 0.53553602D-02 0.14677027D+05 0.14677027D+05 0.14677027D+05 0.12489016D+01  1  2  3  2  5  2        4 -.431773107795D-02 0.100000000000D+01
0.364676682238D-04 0.000000000000D+00 0.000000000000D+00 0.273573344163D-02 0.000000000000D+00  5 -3 4 25 24 21 2 0.65362849D-01 0.53553602D-02 0.14677027D+05 0.14677027D+05 0.14677027D+05 0.12489016D+01  1  2 15  2  5  2        4 0.536600657697D-02 0.100000000000D+01
0.129118133920D-02 0.000000000000D+00 0.000000000000D+00 0.273573344163D-02 0.000000000000D+00  5 -3 4 25 24 21 2 0.65362849D-01 0.56275847D-02 0.15708421D+05 0.15708421D+05 0.15708421D+05 0.12455443D+01  1  2 12  2  5  2        4 0.175560592306D+00 0.100000000000D+01
-.983411479639D-03 0.000000000000D+00 0.000000000000D+00 0.273573344163D-02 0.000000000000D+00  5 -3 4 25 24 21 2 0.65362849D-01 0.53553602D-02 0.14677027D+05 0.14677027D+05 0.14677027D+05 0.12489016D+01  1  2  4  2  5  2        4 -.144703314597D+00 0.100000000000D+01
0.345067346412D-05 0.000000000000D+00 0.000000000000D+00 0.273573344163D-02 0.334576602938D-03  5 -3 4 25 24 21 2 0.67637842D-01 0.55375380D-02 0.15708421D+05 0.15708421D+05 0.15708421D+05 0.12455443D+01  1  2 11  2  5  2        4 0.448279103005D-03 0.100000000000D+01
0.142756221110D-04 0.000000000000D+00 0.000000000000D+00 0.273573344163D-02 0.000000000000D+00  5 -3 21 25 24 -4 2 0.65362849D-01 0.56275847D-02 0.15708421D+05 0.15708421D+05 0.15708421D+05 0.12455443D+01  1  2 12  4  5  2        4 0.536160460411D-01 0.100000000000D+01
0.428173967034D-07 0.000000000000D+00 0.000000000000D+00 0.273573344163D-02 0.204072888484D-05  5 -3 21 25 24 -4 2 0.67637842D-01 0.55375380D-02 0.15708421D+05 0.15708421D+05 0.15708421D+05 0.12455443D+01  1  2 11  4  5  2        4 0.153827115949D-03 0.100000000000D+01
  </mgrwgt>
  </event>
  <event>
  4     66 0.45252658E-03 0.84422118E+02 0.75467711E-02 0.12306088E+00
       -1 -1    0    0    0  501 0.00000000E+00 0.00000000E+00 0.93088054E+01 0.93143040E+01 0.32000000E+00 0.0000E+00 0.9000E+01
        2 -1    0    0  501    0 0.00000000E+00 0.00000000E+00 -.15299260E+04 0.15299260E+04 0.32000000E+00 0.0000E+00 0.9000E+01
       25  1    1    2    0    0 0.12075990E+02 -.54979192E+02 -.75364382E+03 0.76601080E+03 0.12500000E+03 0.0000E+00 0.9000E+01
       24  1    1    2    0    0 -.12075990E+02 0.54979192E+02 -.76697334E+03 0.77322950E+03 0.80419002E+02 0.0000E+00 0.9000E+01
#aMCatNLO 1  0  0  1  2 0.19725020D+02 0.00000000D+00  -5  5  0 0.00000000D+00 0.00000000D+00 0.00000000D+00 0.00000000D+00 0.00000000D+00
  <mgrwgt>
 0.2779213101D+00    9    2    0
 0.119356778763138D+03 0.000000000000000D+00 0.000000000000000D+00 0.119356778763138D+03
 0.119356778763138D+03 0.000000000000000D+00 0.000000000000000D+00 -.119356778763138D+03
 0.138538311937309D+03 0.120759898072949D+02 -.549791916689533D+02 0.199830635299455D+02
 0.100175245588967D+03 -.120759898072949D+02 0.549791916689533D+02 -.199830635299455D+02
 0.000000000000000D+00 0.000000000000000D+00 0.000000000000000D+00 0.000000000000000D+00
 0.150128610718944D+03 0.000000000000000D+00 0.000000000000000D+00 0.150128610718944D+03
 0.122966881483782D+03 0.000000000000000D+00 0.000000000000000D+00 -.122966881483782D+03
 0.139646543892476D+03 0.131131594862386D+01 -.589501046950229D+02 0.199830635299455D+02
 0.998805713631266D+02 -.198173731999874D+02 0.521235213014688D+02 -.199830635299455D+02
 0.335683769471234D+02 0.185060572513636D+02 0.682658339355413D+01 0.271617292351623D+02
0.181319667435D-03 0.000000000000D+00 0.000000000000D+00 0.272798810611D-02 0.000000000000D+00  5 -1 2 25 24 21 0 0.14325494D-02 0.23537365D+00 0.13835809D+05 0.13835809D+05 0.13835809D+05 0.12518424D+01  1  2  2  1  5  1       -1 0.290950501725D+00 0.100000000000D+01
-.100707007505D-04 0.000000000000D+00 -.696315265516D-06 0.272798810611D-02 0.000000000000D+00  5 -1 2 25 24 21 2 0.14325494D-02 0.23537365D+00 0.13835809D+05 0.13835809D+05 0.13835809D+05 0.12518424D+01  1  2  3  1  5  1       -1 -.253240524853D-01 0.100000000000D+01
0.125414257476D-04 0.000000000000D+00 0.000000000000D+00 0.272798810611D-02 0.000000000000D+00  5 -1 2 25 24 21 2 0.14325494D-02 0.23537365D+00 0.13835809D+05 0.13835809D+05 0.13835809D+05 0.12518424D+01  1  2 15  1  5  1       -1 0.315370034062D-01 0.100000000000D+01
0.433279419944D-03 0.000000000000D+00 0.000000000000D+00 0.272798810611D-02 0.000000000000D+00  5 -1 2 25 24 21 2 0.18196230D-02 0.23537365D+00 0.16357842D+05 0.16357842D+05 0.16357842D+05 0.12435548D+01  1  2 12  1  5  1       -1 0.766502009750D+00 0.100000000000D+01
-.437517202101D-03 0.000000000000D+00 0.000000000000D+00 0.272798810611D-02 0.000000000000D+00  5 -1 2 25 24 21 2 0.14325494D-02 0.23537365D+00 0.13835809D+05 0.13835809D+05 0.13835809D+05 0.12518424D+01  1  2  4  1  5  1       -1 -.110019241597D+01 0.100000000000D+01
-.603671611318D-03 0.000000000000D+00 -.957078252589D-04 0.272798810611D-02 0.000000000000D+00  5 -1 2 25 24 21 2 0.18597702D-02 0.23537365D+00 0.13835809D+05 0.13835809D+05 0.13835809D+05 0.12518424D+01  1  2  5  1  5  1       -1 -.104475062486D+01 0.100000000000D+01
0.610895499179D-03 0.000000000000D+00 0.925380661615D-04 0.272798810611D-02 0.000000000000D+00  5 -1 2 25 24 21 2 0.14325494D-02 0.23537365D+00 0.13835809D+05 0.13835809D+05 0.13835809D+05 0.12518424D+01  1  2  6  1  5  1       -1 0.153617410222D+01 0.100000000000D+01
0.141908148362D-04 0.000000000000D+00 0.000000000000D+00 0.272798810611D-02 0.000000000000D+00  5 21 2 25 24 1 2 0.18196230D-02 0.23537365D+00 0.16357842D+05 0.16357842D+05 0.16357842D+05 0.12435548D+01  1  2 12  3  5  1       -1 0.530927597347D+00 0.100000000000D+01
-.193668375820D-04 0.000000000000D+00 -.334324423326D-05 0.272798810611D-02 0.000000000000D+00  5 21 2 25 24 1 2 0.18597702D-02 0.23537365D+00 0.13835809D+05 0.13835809D+05 0.13835809D+05 0.12518424D+01  1  2  5  3  5  1       -1 -.707902811048D+00 0.100000000000D+01
  </mgrwgt>
  </event>
  <event>
  5     66 0.45252658E-03 0.10733124E+03 0.75467711E-02 0.12031829E+00
       21 -1    0    0  502  501 0.00000000E+00 0.00000000E+00 0.88217650E+02 0.88220838E+02 0.75000000E+00 0.0000E+00 0.9000E+01
        2 -1    0    0  501    0 0.00000000E+00 0.00000000E+00 -.48678981E+03 0.48678992E+03 0.32000000E+00 0.0000E+00 0.9000E+01
       25  1    1    2    0    0 0.19543670E+02 -.55220751E+02 -.18166256E+03 0.22816129E+03 0.12500000E+03 0.0000E+00 0.9000E+01
       24  1    1    2    0    0 -.31945316E+02 -.13656198E+02 -.25326291E+03 0.26798566E+03 0.80419002E+02 0.0000E+00 0.9000E+01
        1  1    1    2  502    0 0.12401646E+02 0.68876949E+02 0.36353311E+02 0.78863810E+02 0.32000000E+00 0.0000E+00 0.9000E+01
#aMCatNLO 2  0  0  1  2 0.69984533D+02 0.00000000D+00  -5  5  0 0.00000000D+00 0.00000000D+00 0.00000000D+00 0.00000000D+00 0.00000000D+00
  <mgrwgt>
 0.3129315620D+00    2    2    0
 0.114131272328418D+03 0.000000000000000D+00 0.000000000000000D+00 0.114131272328418D+03
 0.114131272328418D+03 0.000000000000000D+00 0.000000000000000D+00 -.114131272328418D+03
 0.134191033029406D+03 0.269101778174217D+02 -.143082320698409D+02 0.381228300414513D+02
 0.940715116274295D+02 -.269101778174217D+02 0.143082320698409D+02 -.381228300414513D+02
 0.000000000000000D+00 0.000000000000000D+00 0.000000000000000D+00 0.000000000000000D+00
 0.344035346027422D+03 0.000000000000000D+00 0.000000000000000D+00 0.344035346027422D+03
 0.124825332528325D+03 0.000000000000000D+00 0.000000000000000D+00 -.124825332528325D+03
 0.143211858874123D+03 0.195436698700522D+02 -.552207508082125D+02 0.381228300414513D+02
 0.955382703330500D+02 -.319453162621811D+02 -.136561979481938D+02 -.381228300414513D+02
 0.230110549348574D+03 0.124016463921290D+02 0.688769487564063D+02 0.219210013499097D+03
-.153496091540D-04 0.000000000000D+00 0.000000000000D+00 0.263127192396D-02 0.000000000000D+00  5 21 2 25 24 1 2 0.13292355D-01 0.68474859D-01 0.21849513D+05 0.21849513D+05 0.21849513D+05 0.12296195D+01  1  2 13  3  5  1       -1 -.100530173134D+00 0.100000000000D+01
0.722543005230D-04 0.000000000000D+00 0.000000000000D+00 0.263127192396D-02 0.110316694450D-05  5 21 2 25 24 1 2 0.13572188D-01 0.74890930D-01 0.21849513D+05 0.21849513D+05 0.21849513D+05 0.12296195D+01  1  2  1  3  5  1       -1 0.413461735182D+00 0.100000000000D+01
  </mgrwgt>
  </event>
  <event>
  4     66 0.45252658E-03 0.58184460E+02 0.75467711E-02 0.11982096E+00
       -1 -1    0    0    0  501 0.00000000E+00 0.00000000E+00 0.69796999E+01 0.69870316E+01 0.32000000E+00 0.0000E+00 0.9000E+01
        2 -1    0    0  501    0 0.00000000E+00 0.00000000E+00 -.27302689E+04 0.27302690E+04 0.32000000E+00 0.0000E+00 0.9000E+01
       25  1    1    2    0    0 -.82202220E+02 -.38030867E+02 -.14301968E+04 0.14385032E+04 0.12500000E+03 0.0000E+00 0.9000E+01
       24  1    1    2    0    0 0.82202220E+02 0.38030867E+02 -.12930925E+04 0.12987528E+04 0.80419002E+02 0.0000E+00 0.9000E+01
#aMCatNLO 1  0  0  1  2 0.26914453D+02 0.00000000D+00  -5  5  0 0.00000000D+00 0.00000000D+00 0.00000000D+00 0.00000000D+00 0.00000000D+00
  <mgrwgt>
 0.2942262209D+00    9    2    0
 0.138081562180730D+03 0.000000000000000D+00 0.000000000000000D+00 0.138081562180730D+03
 0.138081562180730D+03 0.000000000000000D+00 0.000000000000000D+00 -.138081562180730D+03
 0.154661951156999D+03 -.822022199726067D+02 -.380308670732653D+02 0.957952592359036D+01
 0.121501173204461D+03 0.822022199726067D+02 0.380308670732653D+02 -.957952592359036D+01
 0.000000000000000D+00 0.000000000000000D+00 -.000000000000000D+00 0.000000000000000D+00
 0.160837662420022D+03 0.000000000000000D+00 0.000000000000000D+00 0.160837662420022D+03
 0.146929504641131D+03 0.000000000000000D+00 0.000000000000000D+00 -.146929504641131D+03
 0.155505693656446D+03 -.887050841648309D+02 -.244266552348423D+02 0.957952592359036D+01
 0.121965852701181D+03 0.770977771616830D+02 0.487095340827896D+02 -.957952592359036D+01
 0.302956207035265D+02 0.116073070031479D+02 -.242828788479473D+02 0.139081577788912D+02
0.529626255244D-03 0.000000000000D+00 0.000000000000D+00 0.251048109144D-02 0.000000000000D+00  5 -1 2 25 24 21 0 0.10743654D-02 0.42004194D+00 0.18973401D+05 0.18973401D+05 0.18973401D+05 0.12363534D+01  1  2  2  1  5  1       -1 0.305667061129D+00 0.100000000000D+01
-.294234664816D-04 0.000000000000D+00 -.203390427393D-05 0.251048109144D-02 0.000000000000D+00  5 -1 2 25 24 21 2 0.10743654D-02 0.42004194D+00 0.18973401D+05 0.18973401D+05 0.18973401D+05 0.12363534D+01  1  2  3  1  5  1       -1 -.259572248316D-01 0.100000000000D+01
0.365259527939D-04 0.000000000000D+00 0.000000000000D+00 0.251048109144D-02 0.000000000000D+00  5 -1 2 25 24 21 2 0.10743654D-02 0.42004194D+00 0.18973401D+05 0.18973401D+05 0.18973401D+05 0.12363534D+01  1  2 15  1  5  1       -1 0.322230002862D-01 0.100000000000D+01
0.577877660399D-03 0.000000000000D+00 0.000000000000D+00 0.251048109144D-02 0.000000000000D+00  5 -1 2 25 24 21 2 0.12816059D-02 0.42004194D+00 0.23060529D+05 0.23060529D+05 0.23060529D+05 0.12270756D+01  1  2 12  1  5  1       -1 0.390086117967D+00 0.100000000000D+01
-.570764600111D-03 0.000000000000D+00 0.000000000000D+00 0.251048109144D-02 0.000000000000D+00  5 -1 2 25 24 21 2 0.10743654D-02 0.42004194D+00 0.18973401D+05 0.18973401D+05 0.18973401D+05 0.12363534D+01  1  2  4  1  5  1       -1 -.503525478898D+00 0.100000000000D+01
-.117864003390D-02 0.000000000000D+00 -.303282639544D-03 0.251048109144D-02 0.000000000000D+00  5 -1 2 25 24 21 2 0.13609187D-02 0.42004194D+00 0.18973401D+05 0.18973401D+05 0.18973401D+05 0.12363534D+01  1  2  5  1  5  1       -1 -.741460067237D+00 0.100000000000D+01
0.122425170717D-02 0.000000000000D+00 0.294999076214D-03 0.251048109144D-02 0.000000000000D+00  5 -1 2 25 24 21 2 0.10743654D-02 0.42004194D+00 0.18973401D+05 0.18973401D+05 0.18973401D+05 0.12363534D+01  1  2  6  1  5  1       -1 0.108002831119D+01 0.100000000000D+01
0.150003035204D-04 0.000000000000D+00 0.000000000000D+00 0.251048109144D-02 0.000000000000D+00  5 21 2 25 24 1 2 0.12816059D-02 0.42004194D+00 0.23060529D+05 0.23060529D+05 0.23060529D+05 0.12270756D+01  1  2 12  3  5  1       -1 0.225724888772D+00 0.100000000000D+01
-.336376095989D-04 0.000000000000D+00 -.984828759718D-05 0.251048109144D-02 0.000000000000D+00  5 21 2 25 24 1 2 0.13609187D-02 0.42004194D+00 0.18973401D+05 0.18973401D+05 0.18973401D+05 0.12363534D+01  1  2  5  3  5  1       -1 -.468560387516D+00 0.100000000000D+01
  </mgrwgt>
  </event>
  <event>
  5     66 0.45252658E-03 0.12407430E+03 0.75467711E-02 0.12086783E+00
       -1 -1    0    0    0  502 0.00000000E+00 0.00000000E+00 0.65862472E+03 0.65862480E+03 0.32000000E+00 0.0000E+00 0.9000E+01
        2 -1    0    0  501    0 0.00000000E+00 0.00000000E+00 -.41643497E+02 0.41644727E+02 0.32000000E+00 0.0000E+00 0.9000E+01
       25  1    1    2    0    0 0.31795903E+02 -.68503715E+02 0.48353578E+03 0.50510949E+03 0.12500000E+03 0.0000E+00 0.9000E+01
       24  1    1    2    0    0 0.45635363E+01 0.66698233E+02 0.86290195E+02 0.13558279E+03 0.80419002E+02 0.0000E+00 0.9000E+01
       21  1    1    2  501  502 -.36359439E+02 0.18054823E+01 0.47155242E+02 0.59577243E+02 0.75000000E+00 0.0000E+00 0.9000E+01
#aMCatNLO 2  0  0  1  2 0.36404239D+02 0.00000000D+00  -5  5  0 0.00000000D+00 0.00000000D+00 0.00000000D+00 0.00000000D+00 0.00000000D+00
  <mgrwgt>
 0.8290131379D-01    1    2    0
 0.145309739518520D+03 0.000000000000000D+00 0.000000000000000D+00 0.145309739518520D+03
 0.145309739518520D+03 0.000000000000000D+00 0.000000000000000D+00 -.145309739518520D+03
 0.161065366216313D+03 0.115289881206402D+02 -.674973311562375D+02 0.750216296416862D+02
 0.129554112820726D+03 -.115289881206402D+02 0.674973311562375D+02 -.750216296416862D+02
 0.000000000000000D+00 -.000000000000000D+00 0.000000000000000D+00 -.000000000000000D+00
 0.159354007267753D+03 0.000000000000000D+00 0.000000000000000D+00 0.159354007267753D+03
 0.172111594786337D+03 0.000000000000000D+00 0.000000000000000D+00 -.172111594786337D+03
 0.164185819577271D+03 0.317959031323029D+02 -.685037150829571D+02 0.750216296416862D+02
 0.128704860026131D+03 0.456353631064133D+01 0.666982328268340D+02 -.750216296416862D+02
 0.385749224506887D+02 -.363594394429442D+02 0.180548225612319D+01 -.127575875185845D+02
0.439402083171D-03 0.000000000000D+00 0.000000000000D+00 0.185647445304D-02 0.116007935298D-04  5 -1 2 25 24 21 2 0.10132472D+00 0.64066497D-02 0.20596055D+05 0.20596055D+05 0.20596055D+05 0.12324244D+01  1  2  1  1  5  1       -1 0.829013137908D-01 0.100000000000D+01
  </mgrwgt>
  </event>
  <event>
  4     66 0.45252658E-03 0.11653970E+03 0.75467711E-02 0.11846074E+00
       -1 -1    0    0    0  501 0.00000000E+00 0.00000000E+00 0.30871859E+02 0.30873517E+02 0.32000000E+00 0.0000E+00 0.9000E+01
        2 -1    0    0  501    0 0.00000000E+00 0.00000000E+00 -.44326684E+03 0.44326695E+03 0.32000000E+00 0.0000E+00 0.9000E+01
       25  1    1    2    0    0 -.20346066E+02 0.50073596E+02 -.26100726E+03 0.29439959E+03 0.12500000E+03 0.0000E+00 0.9000E+01
       24  1    1    2    0    0 0.20346066E+02 -.50073596E+02 -.15138772E+03 0.17974088E+03 0.80419002E+02 0.0000E+00 0.9000E+01
#aMCatNLO 1  0  0  2  2 0.80747023D+02 0.00000000D+00  -5  5  0 0.00000000D+00 0.00000000D+00 0.00000000D+00 0.00000000D+00 0.00000000D+00
  <mgrwgt>
 0.4064214790D+00    3    2    0
 0.116982441674200D+03 0.000000000000000D+00 0.000000000000000D+00 0.116982441674200D+03
 0.116982441674200D+03 0.000000000000000D+00 0.000000000000000D+00 -.116982441674200D+03
 0.136553293322036D+03 -.203460664523537D+02 0.500735957145948D+02 -.100236973827843D+02
 0.974115900263642D+02 0.203460664523537D+02 -.500735957145948D+02 0.100236973827843D+02
 0.000000000000000D+00 0.000000000000000D+00 -.000000000000000D+00 0.000000000000000D+00
 0.197736735926653D+03 0.000000000000000D+00 0.000000000000000D+00 0.197736735926653D+03
 0.145785706765858D+03 0.000000000000000D+00 0.000000000000000D+00 -.145785706765858D+03
 0.162167843291380D+03 -.236815160209432D+02 0.100060585084767D+03 -.100236973827843D+02
 0.853390219223804D+02 0.183055163369705D+02 -.194927235324688D+02 0.100236973827843D+02
 0.960155774787509D+02 0.537599968397273D+01 -.805678615522977D+02 0.519510291607947D+02
0.276584833108D-03 0.000000000000D+00 0.000000000000D+00 0.282583948163D-02 0.000000000000D+00  5 -1 2 25 24 21 0 0.47496532D-02 0.68195035D-01 0.13581501D+05 0.13581501D+05 0.13581501D+05 0.12527711D+01  1  2  2  2  5  2        2 0.397959852262D+00 0.100000000000D+01
-.153655554371D-04 0.000000000000D+00 -.106215858559D-05 0.282583948163D-02 0.000000000000D+00  5 -1 2 25 24 21 2 0.47496532D-02 0.68195035D-01 0.13581501D+05 0.13581501D+05 0.13581501D+05 0.12527711D+01  1  2  3  2  5  2        2 -.346978561125D-01 0.100000000000D+01
0.191126917003D-04 0.000000000000D+00 0.000000000000D+00 0.282583948163D-02 0.000000000000D+00  5 -1 2 25 24 21 2 0.47496532D-02 0.68195035D-01 0.13581501D+05 0.13581501D+05 0.13581501D+05 0.12527711D+01  1  2 15  2  5  2        2 0.431594828610D-01 0.100000000000D+01
  </mgrwgt>
  </event>
  <event>
  5     66 -.45252658E-03 0.14757934E+03 0.75467711E-02 0.11903776E+00
       -1 -1    0    0    0  502 0.00000000E+00 0.00000000E+00 0.35251956E+03 0.35251970E+03 0.32000000E+00 0.0000E+00 0.9000E+01
        2 -1    0    0  501    0 0.00000000E+00 0.00000000E+00 -.72295567E+02 0.72296275E+02 0.32000000E+00 0.0000E+00 0.9000E+01
       25  1    1    2    0    0 0.90899857E+02 -.72932057E+02 0.14160443E+03 0.22194297E+03 0.12500000E+03 0.0000E+00 0.9000E+01
       24  1    1    2    0    0 -.72603302E+02 0.62369346E+02 0.10549461E+03 0.16357721E+03 0.80419002E+02 0.0000E+00 0.9000E+01
       21  1    1    2  501  502 -.18296555E+02 0.10562711E+02 0.33124946E+02 0.39295793E+02 0.75000000E+00 0.0000E+00 0.9000E+01
#aMCatNLO 2  0  0  1  2 0.21126636D+02 0.00000000D+00  -5  5  0 0.00000000D+00 0.00000000D+00 0.00000000D+00 0.00000000D+00 0.00000000D+00
  <mgrwgt>
 -.1797259378D-01    2    2    0
 0.147581791834761D+03 0.000000000000000D+00 0.000000000000000D+00 0.147581791834761D+03
 0.147581791834761D+03 0.000000000000000D+00 0.000000000000000D+00 -.147581791834761D+03
 0.163094857389425D+03 0.805612001876019D+02 -.669634883082268D+02 -.846619633508969D+00
 0.132068726280097D+03 -.805612001876019D+02 0.669634883082268D+02 0.846619633508969D+00
 0.000000000000000D+00 -.000000000000000D+00 0.000000000000000D+00 0.000000000000000D+00
 0.164891122576274D+03 0.000000000000000D+00 0.000000000000000D+00 0.164891122576274D+03
 0.154549544249212D+03 0.000000000000000D+00 0.000000000000000D+00 -.154549544249212D+03
 0.170902269157994D+03 0.908998567492631D+02 -.729320566110074D+02 -.846619633508969D+00
 0.125016428957445D+03 -.726033020027354D+02 0.623693460635677D+02 0.846619633508969D+00
 0.235219687100471D+02 -.182965547465277D+02 0.105627105474396D+02 0.103415783270618D+02
-.123366981000D-02 0.000000000000D+00 0.000000000000D+00 0.242931854359D-02 0.000000000000D+00  5 -1 2 25 24 21 2 0.55278291D-01 0.10620609D-01 0.25128649D+05 0.25128649D+05 0.25128649D+05 0.12230587D+01  1  2 13  1  5  1       -1 -.415621789030D+00 0.100000000000D+01
0.120494932839D-02 0.000000000000D+00 0.000000000000D+00 0.242931854359D-02 0.436359049449D-04  5 -1 2 25 24 21 2 0.54231785D-01 0.11122038D-01 0.25128649D+05 0.25128649D+05 0.25128649D+05 0.12230587D+01  1  2  1  1  5  1       -1 0.397649195248D+00 0.100000000000D+01
  </mgrwgt>
  </event>
  <event>
  4     66 0.45252658E-03 0.40116613E+02 0.75467711E-02 0.12068044E+00
       -1 -1    0    0    0  501 0.00000000E+00 0.00000000E+00 0.28245746E+02 0.28247559E+02 0.32000000E+00 0.0000E+00 0.9000E+01
        2 -1    0    0  501    0 0.00000000E+00 0.00000000E+00 -.47669115E+03 0.47669125E+03 0.32000000E+00 0.0000E+00 0.9000E+01
       25  1    1    2    0    0 0.31750641E+02 -.40481134E+02 -.28998178E+03 0.31993946E+03 0.12500000E+03 0.0000E+00 0.9000E+01
       24  1    1    2    0    0 -.31750641E+02 0.40481134E+02 -.15846362E+03 0.18499935E+03 0.80419002E+02 0.0000E+00 0.9000E+01
#aMCatNLO 1  0  0  1  2 0.53207328D+02 0.00000000D+00  -5  5  0 0.00000000D+00 0.00000000D+00 0.00000000D+00 0.00000000D+00 0.00000000D+00
  <mgrwgt>
 0.3937444139D+00    9    2    0
 0.116038708144279D+03 0.000000000000000D+00 0.000000000000000D+00 0.116038708144279D+03
 0.116038708144279D+03 0.000000000000000D+00 0.000000000000000D+00 -.116038708144279D+03
 0.135768727962845D+03 0.317506405490232D+02 -.404811341778216D+02 -.127012634431736D+02
 0.963086883257139D+02 -.317506405490232D+02 0.404811341778216D+02 0.127012634431736D+02
 0.000000000000000D+00 0.000000000000000D+00 0.000000000000000D+00 0.000000000000000D+00
 0.151626445025902D+03 0.000000000000000D+00 0.000000000000000D+00 0.151626445025902D+03
 0.140774811957674D+03 0.000000000000000D+00 0.000000000000000D+00 -.140774811957674D+03
 0.134514068934999D+03 0.210087399640354D+01 -.479926971199581D+02 -.127012634431736D+02
 0.103584538664902D+03 -.536787380222845D+02 0.349258026011163D+02 0.127012634431736D+02
 0.543026493836744D+02 0.515778640258809D+02 0.130668945188419D+02 0.108516330682285D+02
0.199458737472D-03 0.000000000000D+00 0.000000000000D+00 0.283465982361D-02 0.000000000000D+00  5 -1 2 25 24 21 0 0.43456471D-02 0.73337247D-01 0.13298795D+05 0.13298795D+05 0.13298795D+05 0.12538268D+01  1  2  2  1  5  1       -1 0.302087132492D+00 0.100000000000D+01
-.110805214887D-04 0.000000000000D+00 -.765974070583D-06 0.283465982361D-02 0.000000000000D+00  5 -1 2 25 24 21 2 0.43456471D-02 0.73337247D-01 0.13298795D+05 0.13298795D+05 0.13298795D+05 0.12538268D+01  1  2  3  1  5  1       -1 -.263824097113D-01 0.100000000000D+01
0.138106400654D-04 0.000000000000D+00 0.000000000000D+00 0.283465982361D-02 0.000000000000D+00  5 -1 2 25 24 21 2 0.43456471D-02 0.73337247D-01 0.13298795D+05 0.13298795D+05 0.13298795D+05 0.12538268D+01  1  2 15  1  5  1       -1 0.328827451803D-01 0.100000000000D+01
0.618704548315D-04 0.000000000000D+00 0.000000000000D+00 0.283465982361D-02 0.000000000000D+00  5 -1 2 25 24 21 2 0.60232730D-02 0.73337247D-01 0.21013880D+05 0.21013880D+05 0.21013880D+05 0.12314687D+01  1  2 12  1  5  1       -1 0.891872536138D-01 0.100000000000D+01
-.807210109830D-04 0.000000000000D+00 0.000000000000D+00 0.283465982361D-02 0.000000000000D+00  5 -1 2 25 24 21 2 0.43456471D-02 0.73337247D-01 0.13298795D+05 0.13298795D+05 0.13298795D+05 0.12538268D+01  1  2  4  1  5  1       -1 -.192194454586D+00 0.100000000000D+01
-.134866789236D-03 0.000000000000D+00 -.700036145466D-04 0.283465982361D-02 0.000000000000D+00  5 -1 2 25 24 21 2 0.68869685D-02 0.73337247D-01 0.13298795D+05 0.13298795D+05 0.13298795D+05 0.12538268D+01  1  2  5  1  5  1       -1 -.162577981003D+00 0.100000000000D+01
0.156980339742D-03 0.000000000000D+00 0.631860698841D-04 0.283465982361D-02 0.000000000000D+00  5 -1 2 25 24 21 2 0.43456471D-02 0.73337247D-01 0.13298795D+05 0.13298795D+05 0.13298795D+05 0.12538268D+01  1  2  6  1  5  1       -1 0.373765769409D+00 0.100000000000D+01
0.254190314550D-05 0.000000000000D+00 0.000000000000D+00 0.283465982361D-02 0.000000000000D+00  5 21 2 25 24 1 2 0.60232730D-02 0.73337247D-01 0.21013880D+05 0.21013880D+05 0.21013880D+05 0.12314687D+01  1  2 12  3  5  1       -1 0.615731893861D-01 0.100000000000D+01
-.426618094544D-05 0.000000000000D+00 -.370193643435D-05 0.283465982361D-02 0.000000000000D+00  5 21 2 25 24 1 2 0.68869685D-02 0.73337247D-01 0.13298795D+05 0.13298795D+05 0.13298795D+05 0.12538268D+01  1  2  5  3  5  1       -1 -.845968308979D-01 0.100000000000D+01
  </mgrwgt>
  </event>
  <event>
  5     66 0.45252658E-03 0.11525073E+03 0.75467711E-02 0.11395904E+00
       -1 -1    0    0    0  501 0.00000000E+00 0.00000000E+00 0.68485292E+02 0.68486039E+02 0.32000000E+00 0.0000E+00 0.9000E+01
       21 -1    0    0  501  502 0.00000000E+00 0.00000000E+00 -.75878345E+03 0.75878382E+03 0.75000000E+00 0.0000E+00 0.9000E+01
       25  1    1    2    0    0 0.96930231E+01 0.14715426E+03 -.21612101E+03 0.28996831E+03 0.12500000E+03 0.0000E+00 0.9000E+01
       24  1    1    2    0    0 -.13804913E+02 0.28507632E+01 -.75055527E+02 0.11090199E+03 0.80419002E+02 0.0000E+00 0.9000E+01
       -2  1    1    2    0  502 0.41118900E+01 -.15000502E+03 -.39912163E+03 0.42639957E+03 0.32000000E+00 0.0000E+00 0.9000E+01
#aMCatNLO 2  0  0  2  2 0.15006137D+03 0.00000000D+00  -5  5  0 0.00000000D+00 0.00000000D+00 0.00000000D+00 0.00000000D+00 0.00000000D+00
  <mgrwgt>
 0.1555448714D-01    1    2    0
 0.115536580327673D+03 0.000000000000000D+00 0.000000000000000D+00 0.115536580327673D+03
 0.115536580327673D+03 0.000000000000000D+00 0.000000000000000D+00 -.115536580327673D+03
 0.135352347809403D+03 0.123621139351630D+02 0.497836987973397D+02 -.800122057109575D+01
 0.957208128459430D+02 -.123621139351630D+02 -.497836987973397D+02 0.800122057109575D+01
 0.000000000000000D+00 0.000000000000000D+00 -.000000000000000D+00 -.000000000000000D+00
 0.172019365860310D+03 0.000000000000000D+00 0.000000000000000D+00 0.172019365860310D+03
 0.302093310041511D+03 0.000000000000000D+00 0.000000000000000D+00 -.302093310041511D+03
 0.193487339250617D+03 0.969302305708936D+01 0.147154259957606D+03 -.800122057109575D+01
 0.820361990878551D+02 -.138049130793536D+02 0.285076317077135D+01 0.800122057109575D+01
 0.198589137563349D+03 0.411189002226425D+01 -.150005023128378D+03 -.130073944181202D+03
0.384873723169D-04 0.000000000000D+00 0.000000000000D+00 0.286329461158D-02 0.263902840423D-06  5 -1 21 25 24 -2 2 0.10536278D-01 0.11673592D+00 0.45162259D+05 0.45162259D+05 0.45162259D+05 0.11966835D+01  1  2  1  4  5  2        2 0.155544871436D-01 0.100000000000D+01
  </mgrwgt>
  </event>
  <event>
  5     66 0.45252658E-03 0.13488915E+03 0.75467711E-02 0.11842563E+00
       21 -1    0    0  502  501 0.00000000E+00 0.00000000E+00 0.10214024E+03 0.10214300E+03 0.75000000E+00 0.0000E+00 0.9000E+01
        2 -1    0    0  501    0 0.00000000E+00 0.00000000E+00 -.39863737E+03 0.39863750E+03 0.32000000E+00 0.0000E+00 0.9000E+01
       25  1    1    2    0    0 0.17622571E+02 0.75921967E+02 -.24690187E+03 0.28750693E+03 0.12500000E+03 0.0000E+00 0.9000E+01
       24  1    1    2    0    0 0.32124353E+02 -.93951053E+02 -.81435742E+02 0.15151822E+03 0.80419002E+02 0.0000E+00 0.9000E+01
        1  1    1    2  502    0 -.49746924E+02 0.18029086E+02 0.31840485E+02 0.61755350E+02 0.32000000E+00 0.0000E+00 0.9000E+01
#aMCatNLO 2  0  0  1  2 0.52913178D+02 0.00000000D+00  -5  5  0 0.00000000D+00 0.00000000D+00 0.00000000D+00 0.00000000D+00 0.00000000D+00
  <mgrwgt>
 0.9373244695D-01    2    2    0
 0.143298366321067D+03 0.000000000000000D+00 0.000000000000000D+00 0.143298366321067D+03
 0.143298366321067D+03 0.000000000000000D+00 0.000000000000000D+00 -.143298366321067D+03
 0.159275143099372D+03 -.941930506488782D+01 0.857223781906654D+02 -.480262613447725D+02
 0.127321589542763D+03 0.941930506488782D+01 -.857223781906654D+02 0.480262613447725D+02
 0.000000000000000D+00 -.000000000000000D+00 0.000000000000000D+00 0.000000000000000D+00
 0.268938804087682D+03 0.000000000000000D+00 0.000000000000000D+00 0.268938804087682D+03
 0.151400749951936D+03 0.000000000000000D+00 0.000000000000000D+00 -.151400749951936D+03
 0.154939413465898D+03 0.176225709801061D+02 0.759219669032044D+02 -.480262613447725D+02
 0.136500960544517D+03 0.321243534093061D+02 -.939510532909707D+02 0.480262613447725D+02
 0.128899180029204D+03 -.497469243894122D+02 0.180290863877663D+02 0.117538054135746D+03
-.404195785767D-04 0.000000000000D+00 0.000000000000D+00 0.221702803629D-02 0.000000000000D+00  5 21 2 25 24 1 2 0.15758351D-01 0.58046881D-01 0.26895108D+05 0.26895108D+05 0.26895108D+05 0.12199100D+01  1  2 13  3  5  1       -1 -.228915809573D+00 0.100000000000D+01
0.601257850412D-04 0.000000000000D+00 0.000000000000D+00 0.221702803629D-02 0.592788718542D-06  5 21 2 25 24 1 2 0.15714085D-01 0.61328971D-01 0.26895108D+05 0.26895108D+05 0.26895108D+05 0.12199100D+01  1  2  1  3  5  1       -1 0.322648256519D+00 0.100000000000D+01
  </mgrwgt>
  </event>
  <event>
  4     66 0.45252658E-03 0.17926752E+03 0.75467711E-02 0.11260150E+00
       -1 -1    0    0    0  501 0.00000000E+00 0.00000000E+00 0.49281424E+03 0.49281434E+03 0.32000000E+00 0.0000E+00 0.9000E+01
        2 -1    0    0  501    0 0.00000000E+00 0.00000000E+00 -.81806859E+02 0.81807485E+02 0.32000000E+00 0.0000E+00 0.9000E+01
       25  1    1    2    0    0 0.14095895E+03 0.37207702E+02 0.88027185E+02 0.21125251E+03 0.12500000E+03 0.0000E+00 0.9000E+01
       24  1    1    2    0    0 -.14095895E+03 -.37207702E+02 0.32298019E+03 0.36336932E+03 0.80419002E+02 0.0000E+00 0.9000E+01
#aMCatNLO 1  0  0  1  2 0.91673537D+02 0.00000000D+00  -5  5  0 0.00000000D+00 0.00000000D+00 0.00000000D+00 0.00000000D+00 0.00000000D+00
  <mgrwgt>
 0.2094763872D+00    4    2    0
 0.200787934479553D+03 0.000000000000000D+00 0.000000000000000D+00 0.200787934479553D+03
 0.200787934479553D+03 0.000000000000000D+00 0.000000000000000D+00 -.200787934479553D+03
 0.212190243175749D+03 0.140958947903634D+03 0.372077017970488D+02 -.902544249988117D+02
 0.189385625783358D+03 -.140958947903634D+03 -.372077017970488D+02 0.902544249988117D+02
 0.000000000000000D+00 -.000000000000000D+00 0.000000000000000D+00 -.000000000000000D+00
 0.242102893032012D+03 0.000000000000000D+00 0.000000000000000D+00 0.242102893032012D+03
 0.264073429202882D+03 0.000000000000000D+00 0.000000000000000D+00 -.264073429202882D+03
 0.216449806708959D+03 0.151596265624053D+03 -.991109687780497D+01 -.902544249988117D+02
 0.195456998236730D+03 -.131408526133287D+03 -.795120131360902D+02 0.902544249988117D+02
 0.942695172892050D+02 -.201877394907662D+02 0.894231100138952D+02 -.219705361708692D+02
0.312266732339D-02 0.000000000000D+00 0.000000000000D+00 0.174563575558D-02 0.000000000000D+00  5 -1 2 25 24 21 0 0.75817631D-01 0.12585727D-01 0.32136845D+05 0.32136845D+05 0.32136845D+05 0.12117746D+01  1  2  2  1  5  1       -1 0.310436666752D+00 0.100000000000D+01
-.170770505387D-03 0.000000000000D+00 -.119918647390D-04 0.174563575558D-02 0.000000000000D+00  5 -1 2 25 24 21 2 0.75817631D-01 0.12585727D-01 0.32136845D+05 0.32136845D+05 0.32136845D+05 0.12117746D+01  1  2  3  1  5  1       -1 -.249289432378D-01 0.100000000000D+01
0.214941681345D-03 0.000000000000D+00 0.000000000000D+00 0.174563575558D-02 0.000000000000D+00  5 -1 2 25 24 21 2 0.75817631D-01 0.12585727D-01 0.32136845D+05 0.32136845D+05 0.32136845D+05 0.12117746D+01  1  2 15  1  5  1       -1 0.313770165495D-01 0.100000000000D+01
-.735778429351D-03 0.000000000000D+00 0.000000000000D+00 0.174563575558D-02 0.000000000000D+00  5 -1 2 25 24 21 2 0.75817631D-01 0.12585727D-01 0.32136845D+05 0.32136845D+05 0.32136845D+05 0.12117746D+01  1  2  4  1  5  1       -1 -.107408352861D+00 0.100000000000D+01
  </mgrwgt>
  </event>
  <event>
  4     66 0.45252658E-03 0.19217432E+03 0.75467711E-02 0.11061518E+00
       -1 -1    0    0    0  501 0.00000000E+00 0.00000000E+00 0.39525616E+02 0.39526911E+02 0.32000000E+00 0.0000E+00 0.9000E+01
        2 -1    0    0  501    0 0.00000000E+00 0.00000000E+00 -.17308860E+04 0.17308861E+04 0.32000000E+00 0.0000E+00 0.9000E+01
       25  1    1    2    0    0 -.11670502E+02 0.21838641E+03 -.54209200E+03 0.59776046E+03 0.12500000E+03 0.0000E+00 0.9000E+01
       24  1    1    2    0    0 0.11670502E+02 -.21838641E+03 -.11492684E+04 0.11726525E+04 0.80419002E+02 0.0000E+00 0.9000E+01
#aMCatNLO 1  0  0  2  1 0.36948170D+02 0.00000000D+00  -5  5  0 0.00000000D+00 0.00000000D+00 0.00000000D+00 0.00000000D+00 0.00000000D+00
  <mgrwgt>
 0.5105384748D+00    9    2    0
 0.261563585549690D+03 0.000000000000000D+00 0.000000000000000D+00 0.261563585549690D+03
 0.261563585549690D+03 0.000000000000000D+00 0.000000000000000D+00 -.261563585549690D+03
 0.270316508884167D+03 -.116705018830898D+02 0.218386407182178D+03 0.980672805740069D+02
 0.252810662215213D+03 0.116705018830898D+02 -.218386407182178D+03 -.980672805740069D+02
 0.000000000000000D+00 0.000000000000000D+00 0.000000000000000D+00 -.000000000000000D+00
 0.267835729765676D+03 0.000000000000000D+00 0.000000000000000D+00 0.267835729765676D+03
 0.322937332255906D+03 0.000000000000000D+00 0.000000000000000D+00 -.322937332255906D+03
 0.258925340734765D+03 -.225325731864581D+02 0.203205373209052D+03 0.980672805740069D+02
 0.265505021099479D+03 0.103267739156104D+01 -.233254029617686D+03 -.980672805740069D+02
 0.663427001873367D+02 0.214998957948971D+02 0.300486564086332D+02 -.551016024902300D+02
0.198898213046D-02 0.000000000000D+00 0.000000000000D+00 0.176709699811D-02 0.000000000000D+00  5 -1 2 25 24 21 0 0.60809659D-02 0.26629026D+00 0.58785768D+05 0.58785768D+05 0.58785768D+05 0.11853814D+01  1  2  2  2  5  2        2 0.305519290354D+00 0.100000000000D+01
-.109726060278D-03 0.000000000000D+00 -.763821509198D-05 0.176709699811D-02 0.000000000000D+00  5 -1 2 25 24 21 2 0.60809659D-02 0.26629026D+00 0.58785768D+05 0.58785768D+05 0.58785768D+05 0.11853814D+01  1  2  3  2  5  2        2 -.236828405296D-01 0.100000000000D+01
0.135894019013D-03 0.000000000000D+00 0.000000000000D+00 0.176709699811D-02 0.000000000000D+00  5 -1 2 25 24 21 2 0.60809659D-02 0.26629026D+00 0.58785768D+05 0.58785768D+05 0.58785768D+05 0.11853814D+01  1  2 15  2  5  2        2 0.293308296410D-01 0.100000000000D+01
0.624842822849D-02 0.000000000000D+00 0.000000000000D+00 0.176709699811D-02 0.000000000000D+00  5 -1 2 25 24 21 2 0.60809659D-02 0.33145123D+00 0.68464299D+05 0.68464299D+05 0.68464299D+05 0.11789959D+01  1  2 12  2  5  2        2 0.797674493216D+00 0.100000000000D+01
-.630529235932D-02 0.000000000000D+00 0.000000000000D+00 0.176709699811D-02 0.000000000000D+00  5 -1 2 25 24 21 2 0.60809659D-02 0.26629026D+00 0.58785768D+05 0.58785768D+05 0.58785768D+05 0.11853814D+01  1  2  4  2  5  2        2 -.136090945997D+01 0.100000000000D+01
-.864725949441D-02 0.000000000000D+00 -.120982352996D-02 0.176709699811D-02 0.000000000000D+00  5 -1 2 25 24 21 2 0.60809659D-02 0.33140121D+00 0.58785768D+05 0.58785768D+05 0.58785768D+05 0.11853814D+01  1  2  5  2  5  2        2 -.111959074094D+01 0.100000000000D+01
0.873057151286D-02 0.000000000000D+00 0.118144548708D-02 0.176709699811D-02 0.000000000000D+00  5 -1 2 25 24 21 2 0.60809659D-02 0.26629026D+00 0.58785768D+05 0.58785768D+05 0.58785768D+05 0.11853814D+01  1  2  6  2  5  2        2 0.188437215687D+01 0.100000000000D+01
0.191517673987D-03 0.000000000000D+00 0.000000000000D+00 0.176709699811D-02 0.000000000000D+00  5 -1 21 25 24 -2 2 0.60809659D-02 0.33145123D+00 0.68464299D+05 0.68464299D+05 0.68464299D+05 0.11789959D+01  1  2 12  4  5  2        2 0.652477652845D-02 0.100000000000D+01
-.248672728678D-03 0.000000000000D+00 -.370624548538D-04 0.176709699811D-02 0.000000000000D+00  5 -1 21 25 24 -2 2 0.60809659D-02 0.33140121D+00 0.58785768D+05 0.58785768D+05 0.58785768D+05 0.11853814D+01  1  2  5  4  5  2        2 -.870003036526D-02 0.100000000000D+01
  </mgrwgt>
  </event>
  <event>
  4     66 0.45252658E-03 0.51868400E+02 0.75467711E-02 0.12305697E+00
       -1 -1    0    0    0  501 0.00000000E+00 0.00000000E+00 0.90802945E+01 0.90859314E+01 0.32000000E+00 0.0000E+00 0.9000E+01
        2 -1    0    0  501    0 0.00000000E+00 0.00000000E+00 -.14101871E+04 0.14101871E+04 0.32000000E+00 0.0000E+00 0.9000E+01
       25  1    1    2    0    0 0.74369900E+00 0.44051135E+02 -.92106481E+03 0.93055168E+03 0.12500000E+03 0.0000E+00 0.9000E+01
       24  1    1    2    0    0 -.74369900E+00 -.44051135E+02 -.48004198E+03 0.48872137E+03 0.80419002E+02 0.0000E+00 0.9000E+01
#aMCatNLO 1  0  0  1  2 0.29630628D+02 0.00000000D+00  -5  5  0 0.00000000D+00 0.00000000D+00 0.00000000D+00 0.00000000D+00 0.00000000D+00
  <mgrwgt>
 0.3595009927D+00    9    2    0
 0.113176587352064D+03 0.000000000000000D+00 0.000000000000000D+00 0.113176587352064D+03
 0.113176587352064D+03 0.000000000000000D+00 0.000000000000000D+00 -.113176587352064D+03
 0.133405559306179D+03 0.743698995616459D+00 0.440511348008910D+02 -.151982791246930D+02
 0.929476153979486D+02 -.743698995616459D+00 -.440511348008910D+02 0.151982791246930D+02
 0.000000000000000D+00 -.000000000000000D+00 0.000000000000000D+00 0.000000000000000D+00
 0.162469424567090D+03 0.000000000000000D+00 0.000000000000000D+00 0.162469424567090D+03
 0.118683979382325D+03 0.000000000000000D+00 0.000000000000000D+00 -.118683979382325D+03
 0.128850162369151D+03 0.318319076607951D+01 0.271338156319976D+02 -.151982791246930D+02
 0.994341643325234D+02 0.104582828501435D+01 -.564610984393937D+02 0.151982791246930D+02
 0.528690772477405D+02 -.422901905109386D+01 0.293272828073961D+02 0.437854451847649D+02
0.159531492951D-03 0.000000000000D+00 0.000000000000D+00 0.288505179332D-02 0.000000000000D+00  5 -1 2 25 24 21 0 0.13974048D-02 0.21695230D+00 0.12570180D+05 0.12570180D+05 0.12570180D+05 0.12566682D+01  1  2  2  1  5  1       -1 0.305121765601D+00 0.100000000000D+01
-.886190693061D-05 0.000000000000D+00 -.612642938540D-06 0.288505179332D-02 0.000000000000D+00  5 -1 2 25 24 21 2 0.13974048D-02 0.21695230D+00 0.12570180D+05 0.12570180D+05 0.12570180D+05 0.12566682D+01  1  2  3  1  5  1       -1 -.267667221265D-01 0.100000000000D+01
0.110413917182D-04 0.000000000000D+00 0.000000000000D+00 0.288505179332D-02 0.000000000000D+00  5 -1 2 25 24 21 2 0.13974048D-02 0.21695230D+00 0.12570180D+05 0.12570180D+05 0.12570180D+05 0.12566682D+01  1  2 15  1  5  1       -1 0.333496917002D-01 0.100000000000D+01
0.257280037127D-03 0.000000000000D+00 0.000000000000D+00 0.288505179332D-02 0.000000000000D+00  5 -1 2 25 24 21 2 0.20285276D-02 0.21695230D+00 0.16364434D+05 0.16364434D+05 0.16364434D+05 0.12435351D+01  1  2 12  1  5  1       -1 0.449440100450D+00 0.100000000000D+01
-.262344637716D-03 0.000000000000D+00 0.000000000000D+00 0.288505179332D-02 0.000000000000D+00  5 -1 2 25 24 21 2 0.13974048D-02 0.21695230D+00 0.12570180D+05 0.12570180D+05 0.12570180D+05 0.12566682D+01  1  2  4  1  5  1       -1 -.792392210178D+00 0.100000000000D+01
-.322467832911D-03 0.000000000000D+00 -.601978199491D-04 0.288505179332D-02 0.000000000000D+00  5 -1 2 25 24 21 2 0.21089581D-02 0.21695230D+00 0.12570180D+05 0.12570180D+05 0.12570180D+05 0.12566682D+01  1  2  5  1  5  1       -1 -.540456170766D+00 0.100000000000D+01
0.324160368031D-03 0.000000000000D+00 0.554358623547D-04 0.288505179332D-02 0.000000000000D+00  5 -1 2 25 24 21 2 0.13974048D-02 0.21695230D+00 0.12570180D+05 0.12570180D+05 0.12570180D+05 0.12566682D+01  1  2  6  1  5  1       -1 0.979101965689D+00 0.100000000000D+01
0.116308589210D-04 0.000000000000D+00 0.000000000000D+00 0.288505179332D-02 0.000000000000D+00  5 21 2 25 24 1 2 0.20285276D-02 0.21695230D+00 0.16364434D+05 0.16364434D+05 0.16364434D+05 0.12435351D+01  1  2 12  3  5  1       -1 0.421750327301D+00 0.100000000000D+01
-.135402453100D-04 0.000000000000D+00 -.292622991976D-05 0.288505179332D-02 0.000000000000D+00  5 21 2 25 24 1 2 0.21089581D-02 0.21695230D+00 0.12570180D+05 0.12570180D+05 0.12570180D+05 0.12566682D+01  1  2  5  3  5  1       -1 -.469647754986D+00 0.100000000000D+01
  </mgrwgt>
  </event>
  <event>
  4     66 0.45252658E-03 0.50510627E+02 0.75467711E-02 0.11794430E+00
       -1 -1    0    0    0  501 0.00000000E+00 0.00000000E+00 0.82560102E+02 0.82560723E+02 0.32000000E+00 0.0000E+00 0.9000E+01
        2 -1    0    0  501    0 0.00000000E+00 0.00000000E+00 -.19634009E+03 0.19634035E+03 0.32000000E+00 0.0000E+00 0.9000E+01
       25  1    1    2    0    0 0.19539670E+02 0.68320568E+02 -.42009353E+02 0.14979748E+03 0.12500000E+03 0.0000E+00 0.9000E+01
       24  1    1    2    0    0 -.19539670E+02 -.68320568E+02 -.71770638E+02 0.12910360E+03 0.80419002E+02 0.0000E+00 0.9000E+01
#aMCatNLO 1  0  0  2  1 0.74950195D+02 0.00000000D+00  -5  5  0 0.00000000D+00 0.00000000D+00 0.00000000D+00 0.00000000D+00 0.00000000D+00
  <mgrwgt>
 0.1613126220D+00    7    2    0
 0.127318424050740D+03 0.000000000000000D+00 0.000000000000000D+00 0.127318424050740D+03
 0.127318424050740D+03 0.000000000000000D+00 0.000000000000000D+00 -.127318424050740D+03
 0.145300472041650D+03 0.195396704780793D+02 0.683205681603804D+02 0.209219602183238D+02
 0.109336376059831D+03 -.195396704780793D+02 -.683205681603804D+02 -.209219602183238D+02
 0.000000000000000D+00 -.000000000000000D+00 0.000000000000000D+00 -.000000000000000D+00
 0.143611427160514D+03 0.000000000000000D+00 0.000000000000000D+00 0.143611427160514D+03
 0.261652547675616D+03 0.000000000000000D+00 0.000000000000000D+00 -.261652547675616D+03
 0.156194102287216D+03 0.629340576311482D+02 0.661299747467925D+02 0.209219602183238D+02
 0.109244131725035D+03 0.119208199803148D+02 -.699087261620894D+02 -.209219602183238D+02
 0.139825740823879D+03 -.748548776114631D+02 0.377875141529692D+01 -.118041120515102D+03
0.356869878021D-03 0.000000000000D+00 0.000000000000D+00 0.259636061235D-02 0.000000000000D+00  5 -1 2 25 24 21 0 0.12701622D-01 0.30206236D-01 0.15763085D+05 0.15763085D+05 0.15763085D+05 0.12453733D+01  1  2  2  2  5  2        2 0.279492628587D+00 0.100000000000D+01
-.198213943515D-04 0.000000000000D+00 -.137047429760D-05 0.259636061235D-02 0.000000000000D+00  5 -1 2 25 24 21 2 0.12701622D-01 0.30206236D-01 0.15763085D+05 0.15763085D+05 0.15763085D+05 0.12453733D+01  1  2  3  2  5  2        2 -.240765220379D-01 0.100000000000D+01
0.246640797162D-04 0.000000000000D+00 0.000000000000D+00 0.259636061235D-02 0.000000000000D+00  5 -1 2 25 24 21 2 0.12701622D-01 0.30206236D-01 0.15763085D+05 0.15763085D+05 0.15763085D+05 0.12453733D+01  1  2 15  2  5  2        2 0.299588035181D-01 0.100000000000D+01
0.191378179686D-03 0.000000000000D+00 0.000000000000D+00 0.259636061235D-02 0.000000000000D+00  5 -1 2 25 24 21 2 0.12701622D-01 0.62097370D-01 0.28385291D+05 0.28385291D+05 0.28385291D+05 0.12174283D+01  1  2 12  2  5  2        2 0.104560300668D+00 0.100000000000D+01
-.419404582911D-03 0.000000000000D+00 -.133530829542D-03 0.259636061235D-02 0.000000000000D+00  5 -1 2 25 24 21 2 0.12701622D-01 0.67819526D-01 0.15763085D+05 0.15763085D+05 0.15763085D+05 0.12453733D+01  1  2  5  2  5  2        2 -.215458813736D+00 0.100000000000D+01
0.149133317327D-04 0.000000000000D+00 0.000000000000D+00 0.259636061235D-02 0.000000000000D+00  5 -1 21 25 24 -2 2 0.12701622D-01 0.62097370D-01 0.28385291D+05 0.28385291D+05 0.28385291D+05 0.12174283D+01  1  2 12  4  5  2        2 0.200637349288D-01 0.100000000000D+01
-.283886834399D-04 0.000000000000D+00 -.117253809185D-04 0.259636061235D-02 0.000000000000D+00  5 -1 21 25 24 -2 2 0.12701622D-01 0.67819526D-01 0.15763085D+05 0.15763085D+05 0.15763085D+05 0.12453733D+01  1  2  5  4  5  2        2 -.332275099659D-01 0.100000000000D+01
  </mgrwgt>
  </event>
  <event>
  4     66 0.45252658E-03 0.10516231E+03 0.75467711E-02 0.11133937E+00
       -3 -1    0    0    0  501 0.00000000E+00 0.00000000E+00 0.82918527E+03 0.82918542E+03 0.50000000E+00 0.0000E+00 0.9000E+01
        4 -1    0    0  501    0 0.00000000E+00 0.00000000E+00 -.88046472E+02 0.88060115E+02 0.15500000E+01 0.0000E+00 0.9000E+01
       25  1    1    2    0    0 0.20450963E+03 -.81281308E+02 0.58018331E+03 0.63298382E+03 0.12500000E+03 0.0000E+00 0.9000E+01
       24  1    1    2    0    0 -.20450963E+03 0.81281308E+02 0.16095549E+03 0.28426172E+03 0.80419002E+02 0.0000E+00 0.9000E+01
#aMCatNLO 1  0  0  1  2 0.12146787D+02 0.00000000D+00  -5  5  0 0.00000000D+00 0.00000000D+00 0.00000000D+00 0.00000000D+00 0.00000000D+00
  <mgrwgt>
 0.4350552010D-01    9    2    0
 0.270209481362075D+03 0.000000000000000D+00 0.000000000000000D+00 0.270209481362075D+03
 0.270209481362075D+03 0.000000000000000D+00 0.000000000000000D+00 -.270209481362075D+03
 0.278682337310233D+03 0.204509629579331D+03 -.812813077933382D+02 0.116653356323014D+03
 0.261736625413917D+03 -.204509629579331D+03 0.812813077933382D+02 -.116653356323014D+03
 0.000000000000000D+00 -.000000000000000D+00 -.000000000000000D+00 0.000000000000000D+00
 0.276829871153655D+03 0.000000000000000D+00 0.000000000000000D+00 0.276829871153655D+03
 0.275907351844882D+03 0.000000000000000D+00 0.000000000000000D+00 -.275907351844882D+03
 0.277037894004372D+03 0.204661184391901D+03 -.750385819179565D+02 0.116653356323014D+03
 0.263517560788734D+03 -.204366383400308D+03 0.871817910123907D+02 -.116653356323014D+03
 0.121817682054311D+02 -.294800991593605D+00 -.121432090944342D+02 0.922519308772597D+00
0.617274559035D-02 0.000000000000D+00 0.000000000000D+00 0.166714199302D-02 0.000000000000D+00  5 -3 4 25 24 21 0 0.12756803D+00 0.13546672D-01 0.59388689D+05 0.59388689D+05 0.59388689D+05 0.11849506D+01  1  2  2  1  5  1       -3 0.301597636180D-01 0.100000000000D+01
-.338483805867D-03 0.000000000000D+00 -.237049683882D-04 0.166714199302D-02 0.000000000000D+00  5 -3 4 25 24 21 2 0.12756803D+00 0.13546672D-01 0.59388689D+05 0.59388689D+05 0.59388689D+05 0.11849506D+01  1  2  3  1  5  1       -3 -.232213753768D-02 0.100000000000D+01
0.421946492336D-03 0.000000000000D+00 0.000000000000D+00 0.166714199302D-02 0.000000000000D+00  5 -3 4 25 24 21 2 0.12756803D+00 0.13546672D-01 0.59388689D+05 0.59388689D+05 0.59388689D+05 0.11849506D+01  1  2 15  1  5  1       -3 0.289472574984D-02 0.100000000000D+01
0.857552783276D-02 0.000000000000D+00 0.000000000000D+00 0.166714199302D-02 0.000000000000D+00  5 -3 4 25 24 21 2 0.13200812D+00 0.13546672D-01 0.62429674D+05 0.62429674D+05 0.62429674D+05 0.11828490D+01  1  2 12  1  5  1       -3 0.540485476034D-01 0.100000000000D+01
-.690431595788D-02 0.000000000000D+00 0.000000000000D+00 0.166714199302D-02 0.000000000000D+00  5 -3 4 25 24 21 2 0.12756803D+00 0.13546672D-01 0.59388689D+05 0.59388689D+05 0.59388689D+05 0.11849506D+01  1  2  4  1  5  1       -3 -.473664352028D-01 0.100000000000D+01
-.106873859024D+00 0.000000000000D+00 -.161479585231D-01 0.166714199302D-02 0.000000000000D+00  5 -3 4 25 24 21 2 0.13277077D+00 0.13546672D-01 0.59388689D+05 0.59388689D+05 0.59388689D+05 0.11849506D+01  1  2  5  1  5  1       -3 -.665185812680D+00 0.100000000000D+01
0.107446398512D+00 0.000000000000D+00 0.161350652792D-01 0.166714199302D-02 0.000000000000D+00  5 -3 4 25 24 21 2 0.12756803D+00 0.13546672D-01 0.59388689D+05 0.59388689D+05 0.59388689D+05 0.11849506D+01  1  2  6  1  5  1       -3 0.737126299542D+00 0.100000000000D+01
0.136509137673D-03 0.000000000000D+00 0.000000000000D+00 0.166714199302D-02 0.000000000000D+00  5 21 4 25 24 3 2 0.13200812D+00 0.13546672D-01 0.62429674D+05 0.62429674D+05 0.62429674D+05 0.11828490D+01  1  2 12  3  5  1       -3 0.149394788922D-01 0.100000000000D+01
-.745922565176D-03 0.000000000000D+00 -.114094190232D-03 0.166714199302D-02 0.000000000000D+00  5 21 4 25 24 3 2 0.13277077D+00 0.13546672D-01 0.59388689D+05 0.59388689D+05 0.59388689D+05 0.11849506D+01  1  2  5  3  5  1       -3 -.807889098829D-01 0.100000000000D+01
  </mgrwgt>
  </event>
  <event>
  4     66 0.45252658E-03 0.13756060E+03 0.75467711E-02 0.10921103E+00
       -1 -1    0    0    0  501 0.00000000E+00 0.00000000E+00 0.55046884E+02 0.55047814E+02 0.32000000E+00 0.0000E+00 0.9000E+01
        2 -1    0    0  501    0 0.00000000E+00 0.00000000E+00 -.44077370E+03 0.44077382E+03 0.32000000E+00 0.0000E+00 0.9000E+01
       25  1    1    2    0    0 0.46122908E+02 0.77630427E+02 -.32670449E+03 0.36126808E+03 0.12500000E+03 0.0000E+00 0.9000E+01
       24  1    1    2    0    0 -.46122908E+02 -.77630427E+02 -.59022331E+02 0.13455355E+03 0.80419002E+02 0.0000E+00 0.9000E+01
#aMCatNLO 1  0  0  2  2 0.22177725D+03 0.00000000D+00  -5  5  0 0.00000000D+00 0.00000000D+00 0.00000000D+00 0.00000000D+00 0.00000000D+00
  <mgrwgt>
 0.4852722617D+00    3    2    0
 0.155767384505253D+03 0.000000000000000D+00 0.000000000000000D+00 0.155767384505253D+03
 0.155767384505253D+03 0.000000000000000D+00 0.000000000000000D+00 -.155767384505253D+03
 0.170465236810336D+03 0.461229079040246D+02 0.776304274539024D+02 -.726607945222546D+02
 0.141069532200169D+03 -.461229079040246D+02 -.776304274539024D+02 0.726607945222546D+02
 0.000000000000000D+00 0.000000000000000D+00 0.000000000000000D+00 0.000000000000000D+00
 0.398544046502552D+03 0.000000000000000D+00 0.000000000000000D+00 0.398544046502552D+03
 0.250511606749296D+03 0.000000000000000D+00 0.000000000000000D+00 -.250511606749296D+03
 0.145247718079444D+03 0.292903914723414D+01 -.135546772869895D+02 -.726607945222546D+02
 0.237164443045891D+03 -.978705110134408D+02 -.186873029365555D+03 0.726607945222546D+02
 0.266643492126513D+03 0.949414718662067D+02 0.200427706652545D+03 0.148032439753257D+03
0.767943412084D-03 0.000000000000D+00 0.000000000000D+00 0.189227432811D-02 0.000000000000D+00  5 -1 2 25 24 21 0 0.84688318D-02 0.67811419D-01 0.18922918D+05 0.18922918D+05 0.18922918D+05 0.12364817D+01  1  2  2  2  5  2        2 0.474833957803D+00 0.100000000000D+01
-.418620753742D-04 0.000000000000D+00 -.294910490655D-05 0.189227432811D-02 0.000000000000D+00  5 -1 2 25 24 21 2 0.84688318D-02 0.67811419D-01 0.18922918D+05 0.18922918D+05 0.18922918D+05 0.12364817D+01  1  2  3  2  5  2        2 -.395738827989D-01 0.100000000000D+01
0.529039300407D-04 0.000000000000D+00 0.000000000000D+00 0.189227432811D-02 0.000000000000D+00  5 -1 2 25 24 21 2 0.84688318D-02 0.67811419D-01 0.18922918D+05 0.18922918D+05 0.18922918D+05 0.12364817D+01  1  2 15  2  5  2        2 0.500121866466D-01 0.100000000000D+01
  </mgrwgt>
  </event>
  <event>
  4     66 0.45252658E-03 0.13243133E+03 0.75467711E-02 0.10751072E+00
       -1 -1    0    0    0  501 0.00000000E+00 0.00000000E+00 0.50608014E+02 0.50609026E+02 0.32000000E+00 0.0000E+00 0.9000E+01
        2 -1    0    0  501    0 0.00000000E+00 0.00000000E+00 -.99046424E+03 0.99046429E+03 0.32000000E+00 0.0000E+00 0.9000E+01
       25  1    1    2    0    0 0.14553507E+03 -.13215563E+03 -.54536297E+03 0.59303570E+03 0.12500000E+03 0.0000E+00 0.9000E+01
       24  1    1    2    0    0 -.14553507E+03 0.13215563E+03 -.39449325E+03 0.44803762E+03 0.80419002E+02 0.0000E+00 0.9000E+01
#aMCatNLO 1  0  0  1  2 0.16702312D+03 0.00000000D+00  -5  5  0 0.00000000D+00 0.00000000D+00 0.00000000D+00 0.00000000D+00 0.00000000D+00
  <mgrwgt>
 0.3541000332D+00    7    2    0
 0.223888324181725D+03 0.000000000000000D+00 0.000000000000000D+00 0.223888324181725D+03
 0.223888324181725D+03 0.000000000000000D+00 0.000000000000000D+00 -.223888324181725D+03
 0.234114163424458D+03 0.145535070359500D+03 -.132155626090387D+03 -.232136878596895D+02
 0.213662484938991D+03 -.145535070359500D+03 0.132155626090387D+03 0.232136878596895D+02
 0.000000000000000D+00 -.000000000000000D+00 0.000000000000000D+00 0.000000000000000D+00
 0.372320879071493D+03 0.000000000000000D+00 0.000000000000000D+00 0.372320879071493D+03
 0.291250543045885D+03 0.000000000000000D+00 0.000000000000000D+00 -.291250543045885D+03
 0.321878364986214D+03 0.231201397489101D+03 -.184357588238830D+03 -.232136878596895D+02
 0.156034440287508D+03 -.885728341478154D+02 0.974448990375678D+02 0.232136878596895D+02
 0.185658616843655D+03 -.142628563341285D+03 0.869126892012626D+02 0.810703360256080D+02
0.142978539716D-02 0.000000000000D+00 0.000000000000D+00 0.208399715393D-02 0.000000000000D+00  5 -1 2 25 24 21 0 0.77859301D-02 0.15237920D+00 0.49585968D+05 0.49585968D+05 0.49585968D+05 0.11926396D+01  1  2  2  1  5  1       -1 0.387201366090D+00 0.100000000000D+01
-.794296893411D-04 0.000000000000D+00 -.549075239622D-05 0.208399715393D-02 0.000000000000D+00  5 -1 2 25 24 21 2 0.77859301D-02 0.15237920D+00 0.49585968D+05 0.49585968D+05 0.49585968D+05 0.11926396D+01  1  2  3  1  5  1       -1 -.305961873659D-01 0.100000000000D+01
0.978048619074D-04 0.000000000000D+00 0.000000000000D+00 0.208399715393D-02 0.000000000000D+00  5 -1 2 25 24 21 2 0.77859301D-02 0.15237920D+00 0.49585968D+05 0.49585968D+05 0.49585968D+05 0.11926396D+01  1  2 15  1  5  1       -1 0.376742740031D-01 0.100000000000D+01
0.713714922033D-04 0.000000000000D+00 0.000000000000D+00 0.208399715393D-02 0.000000000000D+00  5 -1 2 25 24 21 2 0.13491076D-01 0.15237920D+00 0.10315701D+06 0.10315701D+06 0.10315701D+06 0.11623337D+01  1  2 12  1  5  1       -1 0.111167817215D-01 0.100000000000D+01
-.409860699705D-03 0.000000000000D+00 -.406212619518D-03 0.208399715393D-02 0.000000000000D+00  5 -1 2 25 24 21 2 0.16924325D-01 0.15237920D+00 0.49585968D+05 0.49585968D+05 0.49585968D+05 0.11926396D+01  1  2  5  1  5  1       -1 -.470472728537D-01 0.100000000000D+01
0.434615581977D-05 0.000000000000D+00 0.000000000000D+00 0.208399715393D-02 0.000000000000D+00  5 21 2 25 24 1 2 0.13491076D-01 0.15237920D+00 0.10315701D+06 0.10315701D+06 0.10315701D+06 0.11623337D+01  1  2 12  3  5  1       -1 0.919643563968D-02 0.100000000000D+01
-.895982230389D-05 0.000000000000D+00 -.341589206664D-04 0.208399715393D-02 0.000000000000D+00  5 21 2 25 24 1 2 0.16924325D-01 0.15237920D+00 0.49585968D+05 0.49585968D+05 0.49585968D+05 0.11926396D+01  1  2  5  3  5  1       -1 -.134453639872D-01 0.100000000000D+01
  </mgrwgt>
  </event>
  <event>
  4     66 0.45252658E-03 0.54816276E+02 0.75467711E-02 0.11997088E+00
       -1 -1    0    0    0  501 0.00000000E+00 0.00000000E+00 0.11601462E+02 0.11605874E+02 0.32000000E+00 0.0000E+00 0.9000E+01
        2 -1    0    0  501    0 0.00000000E+00 0.00000000E+00 -.16169780E+04 0.16169780E+04 0.32000000E+00 0.0000E+00 0.9000E+01
       25  1    1    2    0    0 -.49036429E+01 -.83174162E+02 -.10936462E+04 0.11039153E+04 0.12500000E+03 0.0000E+00 0.9000E+01
       24  1    1    2    0    0 0.49036429E+01 0.83174162E+02 -.51173037E+03 0.52466863E+03 0.80419002E+02 0.0000E+00 0.9000E+01
#aMCatNLO 1  0  0  1  2 0.33092583D+02 0.00000000D+00  -5  5  0 0.00000000D+00 0.00000000D+00 0.00000000D+00 0.00000000D+00 0.00000000D+00
  <mgrwgt>
 0.3484063765D+00    9    2    0
 0.136977833186058D+03 0.000000000000000D+00 0.000000000000000D+00 0.136977833186058D+03
 0.136977833186058D+03 0.000000000000000D+00 0.000000000000000D+00 -.136977833186058D+03
 0.153691822290394D+03 -.490364285260763D+01 -.831741623527956D+02 -.324682805616019D+02
 0.120263844081721D+03 0.490364285260763D+01 0.831741623527956D+02 0.324682805616019D+02
 0.000000000000000D+00 0.000000000000000D+00 -.000000000000000D+00 0.000000000000000D+00
 0.208473074689243D+03 0.000000000000000D+00 0.000000000000000D+00 0.208473074689243D+03
 0.141857000135063D+03 0.000000000000000D+00 0.000000000000000D+00 -.141857000135063D+03
 0.147882801558542D+03 -.173130636891058D+02 -.699313347496903D+02 -.324682805616019D+02
 0.128064342248266D+03 -.531475327901382D+01 0.940788177862950D+02 0.324682805616019D+02
 0.743829310174974D+02 0.226278169681196D+02 -.241474830366047D+02 0.666160745541790D+02
0.277747771890D-03 0.000000000000D+00 0.000000000000D+00 0.240605421563D-02 0.000000000000D+00  5 -1 2 25 24 21 0 0.17851821D-02 0.24876619D+00 0.17691825D+05 0.17691825D+05 0.17691825D+05 0.12397327D+01  1  2  2  1  5  1       -1 0.295006831127D+00 0.100000000000D+01
-.154142262459D-04 0.000000000000D+00 -.106662457672D-05 0.240605421563D-02 0.000000000000D+00  5 -1 2 25 24 21 2 0.17851821D-02 0.24876619D+00 0.17691825D+05 0.17691825D+05 0.17691825D+05 0.12397327D+01  1  2  3  1  5  1       -1 -.251628195267D-01 0.100000000000D+01
0.191998676761D-04 0.000000000000D+00 0.000000000000D+00 0.240605421563D-02 0.000000000000D+00  5 -1 2 25 24 21 2 0.17851821D-02 0.24876619D+00 0.17691825D+05 0.17691825D+05 0.17691825D+05 0.12397327D+01  1  2 15  1  5  1       -1 0.313426569433D-01 0.100000000000D+01
0.637394536207D-03 0.000000000000D+00 0.000000000000D+00 0.240605421563D-02 0.000000000000D+00  5 -1 2 25 24 21 2 0.27353247D-02 0.24876619D+00 0.22687472D+05 0.22687472D+05 0.22687472D+05 0.12278430D+01  1  2 12  1  5  1       -1 0.552578930443D+00 0.100000000000D+01
-.625950395072D-03 0.000000000000D+00 0.000000000000D+00 0.240605421563D-02 0.000000000000D+00  5 -1 2 25 24 21 2 0.17851821D-02 0.24876619D+00 0.17691825D+05 0.17691825D+05 0.17691825D+05 0.12397327D+01  1  2  4  1  5  1       -1 -.102182727648D+01 0.100000000000D+01
-.724137804794D-03 0.000000000000D+00 -.981611075689D-04 0.240605421563D-02 0.000000000000D+00  5 -1 2 25 24 21 2 0.28195337D-02 0.24876619D+00 0.17691825D+05 0.17691825D+05 0.17691825D+05 0.12397327D+01  1  2  5  1  5  1       -1 -.610599529339D+00 0.100000000000D+01
0.703649628104D-03 0.000000000000D+00 0.887308952772D-04 0.240605421563D-02 0.000000000000D+00  5 -1 2 25 24 21 2 0.17851821D-02 0.24876619D+00 0.17691825D+05 0.17691825D+05 0.17691825D+05 0.12397327D+01  1  2  6  1  5  1       -1 0.114866671344D+01 0.100000000000D+01
0.318263288803D-04 0.000000000000D+00 0.000000000000D+00 0.240605421563D-02 0.000000000000D+00  5 21 2 25 24 1 2 0.27353247D-02 0.24876619D+00 0.22687472D+05 0.22687472D+05 0.22687472D+05 0.12278430D+01  1  2 12  3  5  1       -1 0.540468837713D+00 0.100000000000D+01
-.340952938669D-04 0.000000000000D+00 -.516162247704D-05 0.240605421563D-02 0.000000000000D+00  5 21 2 25 24 1 2 0.28195337D-02 0.24876619D+00 0.17691825D+05 0.17691825D+05 0.17691825D+05 0.12397327D+01  1  2  5  3  5  1       -1 -.562067967789D+00 0.100000000000D+01
  </mgrwgt>
  </event>
  <event>
  4     66 0.45252658E-03 0.17847982E+03 0.75467711E-02 0.10006608E+00
       -1 -1    0    0    0  501 0.00000000E+00 0.00000000E+00 0.50665861E+03 0.50665871E+03 0.32000000E+00 0.0000E+00 0.9000E+01
        2 -1    0    0  501    0 0.00000000E+00 0.00000000E+00 -.62955807E+02 0.62956621E+02 0.32000000E+00 0.0000E+00 0.9000E+01
       25  1    1    2    0    0 0.11801587E+03 -.83938894E+02 0.22742829E+03 0.29719036E+03 0.12500000E+03 0.0000E+00 0.9000E+01
       24  1    1    2    0    0 -.11801587E+03 0.83938894E+02 0.21627452E+03 0.27242497E+03 0.80419002E+02 0.0000E+00 0.9000E+01
#aMCatNLO 1  0  0  2  2 0.49610321D+03 0.00000000D+00  -5  5  0 0.00000000D+00 0.00000000D+00 0.00000000D+00 0.00000000D+00 0.00000000D+00
  <mgrwgt>
 0.4003279980D+00    5    2    0
 0.178598326557182D+03 0.000000000000000D+00 0.000000000000000D+00 0.178598326557182D+03
 0.178598326557182D+03 0.000000000000000D+00 0.000000000000000D+00 -.178598326557182D+03
 0.191417293316505D+03 0.118015870990956D+03 -.839388937846257D+02 -.648818041336347D+01
 0.165779359797858D+03 -.118015870990956D+03 0.839388937846257D+02 0.648818041336347D+01
 0.000000000000000D+00 0.000000000000000D+00 -.000000000000000D+00 -.000000000000000D+00
 0.488224466591710D+03 0.000000000000000D+00 0.000000000000000D+00 0.488224466591710D+03
 0.642684419578389D+03 0.000000000000000D+00 0.000000000000000D+00 -.642684419578389D+03
 0.144563564791709D+03 -.509653305130392D+02 -.513231221371716D+02 -.648818041336347D+01
 0.466752915981783D+03 -.436147280479987D+03 0.145342773703964D+03 0.648818041336347D+01
 0.519592405396606D+03 0.487112610993026D+03 -.940196515667928D+02 -.154459952986679D+03
0.234242975577D-02 0.000000000000D+00 0.000000000000D+00 0.223732127794D-02 0.000000000000D+00  5 -1 2 25 24 21 0 0.77947549D-01 0.96855792D-02 0.31855047D+05 0.31855047D+05 0.31855047D+05 0.12121731D+01  1  2  2  2  5  2        2 0.303163251830D+00 0.100000000000D+01
-.130134916726D-03 0.000000000000D+00 -.899554703808D-05 0.223732127794D-02 0.000000000000D+00  5 -1 2 25 24 21 2 0.77947549D-01 0.96855792D-02 0.31855047D+05 0.31855047D+05 0.31855047D+05 0.12121731D+01  1  2  3  2  5  2        2 -.247476007729D-01 0.100000000000D+01
0.160798250545D-03 0.000000000000D+00 0.000000000000D+00 0.223732127794D-02 0.000000000000D+00  5 -1 2 25 24 21 2 0.77947549D-01 0.96855792D-02 0.31855047D+05 0.31855047D+05 0.31855047D+05 0.12121731D+01  1  2 15  2  5  2        2 0.305788101270D-01 0.100000000000D+01
0.450553093829D-02 0.000000000000D+00 -.196114103516D-02 0.223732127794D-02 0.000000000000D+00  5 -1 2 25 24 21 2 0.77947549D-01 0.90965551D-01 0.31855047D+05 0.31855047D+05 0.31855047D+05 0.12121731D+01  1  2  5  2  5  2        2 0.689200103071D-01 0.100000000000D+01
0.917009568385D-03 0.000000000000D+00 -.526123286389D-03 0.223732127794D-02 0.000000000000D+00  5 -1 21 25 24 -2 2 0.77947549D-01 0.90965551D-01 0.31855047D+05 0.31855047D+05 0.31855047D+05 0.12121731D+01  1  2  5  4  5  2        2 0.224135265302D-01 0.100000000000D+01
  </mgrwgt>
  </event>
  <event>
  4     66 0.45252658E-03 0.13545697E+03 0.75467711E-02 0.11415478E+00
       -1 -1    0    0    0  501 0.00000000E+00 0.00000000E+00 0.73493371E+02 0.73494068E+02 0.32000000E+00 0.0000E+00 0.9000E+01
        2 -1    0    0  501    0 0.00000000E+00 0.00000000E+00 -.28941807E+03 0.28941825E+03 0.32000000E+00 0.0000E+00 0.9000E+01
       25  1    1    2    0    0 -.86235303E+02 -.12313485E+02 -.18638312E+03 0.24073184E+03 0.12500000E+03 0.0000E+00 0.9000E+01
       24  1    1    2    0    0 0.86235303E+02 0.12313485E+02 -.29541583E+02 0.12218048E+03 0.80419002E+02 0.0000E+00 0.9000E+01
#aMCatNLO 1  0  0  1  2 0.12248792D+03 0.00000000D+00  -5  5  0 0.00000000D+00 0.00000000D+00 0.00000000D+00 0.00000000D+00 0.00000000D+00
  <mgrwgt>
 0.4129839408D+00    3    2    0
 0.145843986708357D+03 0.000000000000000D+00 0.000000000000000D+00 0.145843986708357D+03
 0.145843986708357D+03 0.000000000000000D+00 0.000000000000000D+00 -.145843986708357D+03
 0.161541898312938D+03 -.862353029384577D+02 -.123134853325576D+02 -.536901808213084D+02
 0.130146075103777D+03 0.862353029384577D+02 0.123134853325576D+02 0.536901808213084D+02
 0.000000000000000D+00 -.000000000000000D+00 -.000000000000000D+00 -.000000000000000D+00
 0.169711979049792D+03 0.000000000000000D+00 0.000000000000000D+00 0.169711979049792D+03
 0.483469024782016D+03 0.000000000000000D+00 0.000000000000000D+00 -.483469024782016D+03
 0.163327598913634D+03 -.739452660597846D+02 0.519650524642829D+02 -.536901808213084D+02
 0.153034796373113D+03 0.969482303862400D+02 0.683435297225815D+02 0.536901808213084D+02
 0.336818608545061D+03 -.230029643264554D+02 -.120308582186864D+03 -.313757045732224D+03
0.650000208079D-03 0.000000000000D+00 0.000000000000D+00 0.214348824579D-02 0.000000000000D+00  5 -1 2 25 24 21 0 0.11306740D-01 0.44525925D-01 0.18348592D+05 0.18348592D+05 0.18348592D+05 0.12379679D+01  1  2  2  1  5  1       -1 0.404510723363D+00 0.100000000000D+01
-.358714511629D-04 0.000000000000D+00 -.249617194801D-05 0.214348824579D-02 0.000000000000D+00  5 -1 2 25 24 21 2 0.11306740D-01 0.44525925D-01 0.18348592D+05 0.18348592D+05 0.18348592D+05 0.12379679D+01  1  2  3  1  5  1       -1 -.342124542597D-01 0.100000000000D+01
0.447555436133D-04 0.000000000000D+00 0.000000000000D+00 0.214348824579D-02 0.000000000000D+00  5 -1 2 25 24 21 2 0.11306740D-01 0.44525925D-01 0.18348592D+05 0.18348592D+05 0.18348592D+05 0.12379679D+01  1  2 15  1  5  1       -1 0.426856717278D-01 0.100000000000D+01
  </mgrwgt>
  </event>
  <event>
  4     66 0.45252658E-03 0.13972301E+03 0.75467711E-02 0.11561910E+00
       -3 -1    0    0    0  501 0.00000000E+00 0.00000000E+00 0.42735502E+03 0.42735531E+03 0.50000000E+00 0.0000E+00 0.9000E+01
        4 -1    0    0  501    0 0.00000000E+00 0.00000000E+00 -.48927274E+02 0.48951820E+02 0.15500000E+01 0.0000E+00 0.9000E+01
       25  1    1    2    0    0 -.18341899E+02 0.91697730E+02 0.14886664E+03 0.21571086E+03 0.12500000E+03 0.0000E+00 0.9000E+01
       24  1    1    2    0    0 0.18341899E+02 -.91697730E+02 0.22956111E+03 0.26059627E+03 0.80419002E+02 0.0000E+00 0.9000E+01
#aMCatNLO 1  0  0  1  2 0.91642297D+02 0.00000000D+00  -5  5  0 0.00000000D+00 0.00000000D+00 0.00000000D+00 0.00000000D+00 0.00000000D+00
  <mgrwgt>
 0.5097955287D-01    7    2    0
 0.144620991654387D+03 0.000000000000000D+00 0.000000000000000D+00 0.144620991654387D+03
 0.144620991654387D+03 0.000000000000000D+00 0.000000000000000D+00 -.144620991654387D+03
 0.160451653477525D+03 -.183418992177738D+02 0.916977304799770D+02 -.370787548547432D+02
 0.128790329831250D+03 0.183418992177738D+02 -.916977304799770D+02 0.370787548547432D+02
 0.000000000000000D+00 0.000000000000000D+00 -.000000000000000D+00 0.000000000000000D+00
 0.203175945936391D+03 0.000000000000000D+00 0.000000000000000D+00 0.203175945936391D+03
 0.192498884851930D+03 0.000000000000000D+00 0.000000000000000D+00 -.192498884851930D+03
 0.192276641790810D+03 -.584460332208996D+02 0.128664424444035D+03 -.370787548547432D+02
 0.111136007070359D+03 -.893699531678966D+01 -.665529275562080D+02 0.370787548547432D+02
 0.922621819271519D+02 0.673830285376893D+02 -.621114968878269D+02 0.106770610844603D+02
0.830189047176D-03 0.000000000000D+00 0.000000000000D+00 0.230921187730D-02 0.000000000000D+00  5 -3 4 25 24 21 0 0.65748837D-01 0.75291835D-02 0.19522519D+05 0.19522519D+05 0.19522519D+05 0.12349830D+01  1  2  2  1  5  1       -3 0.455407749222D-01 0.100000000000D+01
-.460550437514D-04 0.000000000000D+00 -.318814453495D-05 0.230921187730D-02 0.000000000000D+00  5 -3 4 25 24 21 2 0.65748837D-01 0.75291835D-02 0.19522519D+05 0.19522519D+05 0.19522519D+05 0.12349830D+01  1  2  3  1  5  1       -3 -.385320929120D-02 0.100000000000D+01
0.573360660588D-04 0.000000000000D+00 0.000000000000D+00 0.230921187730D-02 0.000000000000D+00  5 -3 4 25 24 21 2 0.65748837D-01 0.75291835D-02 0.19522519D+05 0.19522519D+05 0.19522519D+05 0.12349830D+01  1  2 15  1  5  1       -3 0.479703946545D-02 0.100000000000D+01
-.238049808882D-03 0.000000000000D+00 0.000000000000D+00 0.230921187730D-02 0.000000000000D+00  5 -3 4 25 24 21 2 0.65748837D-01 0.75291835D-02 0.19522519D+05 0.19522519D+05 0.19522519D+05 0.12349830D+01  1  2  4  1  5  1       -3 -.199165099116D-01 0.100000000000D+01
-.310180653591D-03 0.000000000000D+00 -.243750996680D-03 0.230921187730D-02 0.000000000000D+00  5 -3 4 25 24 21 2 0.11676246D+00 0.75291835D-02 0.19522519D+05 0.19522519D+05 0.19522519D+05 0.12349830D+01  1  2  5  1  5  1       -3 -.727754587343D-02 0.100000000000D+01
0.415131452956D-03 0.000000000000D+00 0.208424548703D-03 0.230921187730D-02 0.000000000000D+00  5 -3 4 25 24 21 2 0.65748837D-01 0.75291835D-02 0.19522519D+05 0.19522519D+05 0.19522519D+05 0.12349830D+01  1  2  6  1  5  1       -3 0.347320997073D-01 0.100000000000D+01
-.691265181554D-05 0.000000000000D+00 -.154021146095D-04 0.230921187730D-02 0.000000000000D+00  5 21 4 25 24 3 2 0.11676246D+00 0.75291835D-02 0.19522519D+05 0.19522519D+05 0.19522519D+05 0.12349830D+01  1  2  5  3  5  1       -3 -.304309615256D-02 0.100000000000D+01
  </mgrwgt>
  </event>
  <event>
  4     66 0.45252658E-03 0.13626227E+03 0.75467711E-02 0.12168022E+00
       -1 -1    0    0    0  501 0.00000000E+00 0.00000000E+00 0.12287184E+03 0.12287225E+03 0.32000000E+00 0.0000E+00 0.9000E+01
        2 -1    0    0  501    0 0.00000000E+00 0.00000000E+00 -.15113617E+03 0.15113651E+03 0.32000000E+00 0.0000E+00 0.9000E+01
       25  1    1    2    0    0 0.74683162E+02 -.47180750E+02 -.17624002E+02 0.15407532E+03 0.12500000E+03 0.0000E+00 0.9000E+01
       24  1    1    2    0    0 -.74683162E+02 0.47180750E+02 -.10640329E+02 0.11993344E+03 0.80419002E+02 0.0000E+00 0.9000E+01
#aMCatNLO 1  0  0  1  2 0.23647594D+01 0.00000000D+00  -5  5  0 0.00000000D+00 0.00000000D+00 0.00000000D+00 0.00000000D+00 0.00000000D+00
  <mgrwgt>
 0.3143494797D+00    6    2    0
 0.136273555508087D+03 0.000000000000000D+00 0.000000000000000D+00 0.136273555508087D+03
 0.136273555508087D+03 0.000000000000000D+00 0.000000000000000D+00 -.136273555508087D+03
 0.153073924463541D+03 0.746831624226097D+02 -.471807502595450D+02 -.174023164384993D+01
 0.119473186552633D+03 -.746831624226097D+02 0.471807502595450D+02 0.174023164384993D+01
 0.000000000000000D+00 0.000000000000000D+00 0.000000000000000D+00 -.000000000000000D+00
 0.136673756214901D+03 0.000000000000000D+00 0.000000000000000D+00 0.136673756214901D+03
 0.139817341519528D+03 0.000000000000000D+00 0.000000000000000D+00 -.139817341519528D+03
 0.153330377130043D+03 0.743798289964013D+02 -.484749129254833D+02 -.174023164384993D+01
 0.119226992629925D+03 -.749194702773344D+02 0.461725501179537D+02 0.174023164384993D+01
 0.393372797446029D+01 0.539641280933114D+00 0.230236280752961D+01 -.314358530462729D+01
0.459916040634D-03 0.000000000000D+00 0.000000000000D+00 0.254133137519D-02 0.000000000000D+00  5 -1 2 25 24 21 0 0.18903418D-01 0.23251776D-01 0.18567407D+05 0.18567407D+05 0.18567407D+05 0.12373956D+01  1  2  2  1  5  1       -1 0.258382433628D+00 0.100000000000D+01
-.255508909334D-04 0.000000000000D+00 -.176619869471D-05 0.254133137519D-02 0.000000000000D+00  5 -1 2 25 24 21 2 0.18903418D-01 0.23251776D-01 0.18567407D+05 0.18567407D+05 0.18567407D+05 0.12373956D+01  1  2  3  1  5  1       -1 -.219789824029D-01 0.100000000000D+01
0.316824911666D-04 0.000000000000D+00 0.000000000000D+00 0.254133137519D-02 0.000000000000D+00  5 -1 2 25 24 21 2 0.18903418D-01 0.23251776D-01 0.18567407D+05 0.18567407D+05 0.18567407D+05 0.12373956D+01  1  2 15  1  5  1       -1 0.272534103663D-01 0.100000000000D+01
-.383813845796D-03 0.000000000000D+00 0.000000000000D+00 0.254133137519D-02 0.000000000000D+00  5 -1 2 25 24 21 2 0.18903418D-01 0.23251776D-01 0.18567407D+05 0.18567407D+05 0.18567407D+05 0.12373956D+01  1  2  4  1  5  1       -1 -.330158262769D+00 0.100000000000D+01
0.383758725624D-03 0.000000000000D+00 0.000000000000D+00 0.254133137519D-02 0.370731960578D-02  5 -1 2 25 24 21 2 0.18958932D-01 0.23856437D-01 0.18892441D+05 0.18892441D+05 0.18892441D+05 0.12365592D+01  1  2 11  1  5  1       -1 0.319068588592D+00 0.100000000000D+01
0.572865228440D-05 0.000000000000D+00 0.000000000000D+00 0.254133137519D-02 0.205672429412D-05  5 21 2 25 24 1 2 0.18958932D-01 0.23856437D-01 0.18892441D+05 0.18892441D+05 0.18892441D+05 0.12365592D+01  1  2 11  3  5  1       -1 0.617822922531D-01 0.100000000000D+01
  </mgrwgt>
  </event>
  <event>
  4     66 0.45252658E-03 0.49517164E+02 0.75467711E-02 0.11725059E+00
       -1 -1    0    0    0  501 0.00000000E+00 0.00000000E+00 0.89791940E+02 0.89792510E+02 0.32000000E+00 0.0000E+00 0.9000E+01
        2 -1    0    0  501    0 0.00000000E+00 0.00000000E+00 -.19013916E+03 0.19013943E+03 0.32000000E+00 0.0000E+00 0.9000E+01
       25  1    1    2    0    0 -.38986657E+02 -.68895578E+02 -.65697270E+02 0.16188790E+03 0.12500000E+03 0.0000E+00 0.9000E+01
       24  1    1    2    0    0 0.38986657E+02 0.68895578E+02 -.34649947E+02 0.11804404E+03 0.80419002E+02 0.0000E+00 0.9000E+01
#aMCatNLO 1  0  0  1  2 0.78174777D+02 0.00000000D+00  -5  5  0 0.00000000D+00 0.00000000D+00 0.00000000D+00 0.00000000D+00 0.00000000D+00
  <mgrwgt>
 0.3597354880D+00    9    2    0
 0.130664001061081D+03 0.000000000000000D+00 0.000000000000000D+00 0.130664001061081D+03
 0.130664001061081D+03 0.000000000000000D+00 0.000000000000000D+00 -.130664001061081D+03
 0.148185628998505D+03 -.389866567572244D+02 -.688955784840017D+02 -.821099883884909D+01
 0.113142373123658D+03 0.389866567572244D+02 0.688955784840017D+02 0.821099883884909D+01
 0.000000000000000D+00 -.000000000000000D+00 -.000000000000000D+00 0.000000000000000D+00
 0.192106068383984D+03 0.000000000000000D+00 0.000000000000000D+00 0.192106068383984D+03
 0.163804344903090D+03 0.000000000000000D+00 0.000000000000000D+00 -.163804344903090D+03
 0.133640591354538D+03 -.374367898243655D+02 -.276744272443947D+02 -.821099883884909D+01
 0.139129679166793D+03 0.403739943564003D+02 0.105794006202913D+03 0.821099883884909D+01
 0.831401427657431D+02 -.293720453203478D+01 -.781195789585184D+02 0.283017234808935D+02
0.437444014137D-03 0.000000000000D+00 0.000000000000D+00 0.260269779387D-02 0.000000000000D+00  5 -1 2 25 24 21 0 0.13814209D-01 0.29252242D-01 0.17004421D+05 0.17004421D+05 0.17004421D+05 0.12416602D+01  1  2  2  1  5  1       -1 0.312230042658D+00 0.100000000000D+01
-.243023252781D-04 0.000000000000D+00 -.167990019594D-05 0.260269779387D-02 0.000000000000D+00  5 -1 2 25 24 21 2 0.13814209D-01 0.29252242D-01 0.17004421D+05 0.17004421D+05 0.17004421D+05 0.12416602D+01  1  2  3  1  5  1       -1 -.267427206393D-01 0.100000000000D+01
0.301307272989D-04 0.000000000000D+00 0.000000000000D+00 0.260269779387D-02 0.000000000000D+00  5 -1 2 25 24 21 2 0.13814209D-01 0.29252242D-01 0.17004421D+05 0.17004421D+05 0.17004421D+05 0.12416602D+01  1  2 15  1  5  1       -1 0.331564002042D-01 0.100000000000D+01
0.708739683464D-04 0.000000000000D+00 0.000000000000D+00 0.260269779387D-02 0.000000000000D+00  5 -1 2 25 24 21 2 0.21396052D-01 0.29252242D-01 0.30703811D+05 0.30703811D+05 0.30703811D+05 0.12138428D+01  1  2 12  1  5  1       -1 0.378046141344D-01 0.100000000000D+01
-.168119122053D-03 0.000000000000D+00 0.000000000000D+00 0.260269779387D-02 0.000000000000D+00  5 -1 2 25 24 21 2 0.13814209D-01 0.29252242D-01 0.17004421D+05 0.17004421D+05 0.17004421D+05 0.12416602D+01  1  2  4  1  5  1       -1 -.185001338915D+00 0.100000000000D+01
-.200027826990D-03 0.000000000000D+00 -.133051025744D-03 0.260269779387D-02 0.000000000000D+00  5 -1 2 25 24 21 2 0.25178397D-01 0.29252242D-01 0.17004421D+05 0.17004421D+05 0.17004421D+05 0.12416602D+01  1  2  5  1  5  1       -1 -.844711603285D-01 0.100000000000D+01
0.253641659822D-03 0.000000000000D+00 0.112217883329D-03 0.260269779387D-02 0.000000000000D+00  5 -1 2 25 24 21 2 0.13814209D-01 0.29252242D-01 0.17004421D+05 0.17004421D+05 0.17004421D+05 0.12416602D+01  1  2  6  1  5  1       -1 0.279111894582D+00 0.100000000000D+01
0.360555792377D-05 0.000000000000D+00 0.000000000000D+00 0.260269779387D-02 0.000000000000D+00  5 21 2 25 24 1 2 0.21396052D-01 0.29252242D-01 0.30703811D+05 0.30703811D+05 0.30703811D+05 0.12138428D+01  1  2 12  3  5  1       -1 0.239871375652D-01 0.100000000000D+01
-.592975123726D-05 0.000000000000D+00 -.873652091507D-05 0.260269779387D-02 0.000000000000D+00  5 21 2 25 24 1 2 0.25178397D-01 0.29252242D-01 0.17004421D+05 0.17004421D+05 0.17004421D+05 0.12416602D+01  1  2  5  3  5  1       -1 -.303393812899D-01 0.100000000000D+01
  </mgrwgt>
  </event>
  <event>
  4     66 0.45252658E-03 0.15182753E+03 0.75467711E-02 0.11007764E+00
       -1 -1    0    0    0  501 0.00000000E+00 0.00000000E+00 0.38118500E+02 0.38119843E+02 0.32000000E+00 0.0000E+00 0.9000E+01
        2 -1    0    0  501    0 0.00000000E+00 0.00000000E+00 -.61013472E+03 0.61013480E+03 0.32000000E+00 0.0000E+00 0.9000E+01
       25  1    1    2    0    0 0.13421300E+02 0.10978498E+03 -.28378596E+03 0.32922992E+03 0.12500000E+03 0.0000E+00 0.9000E+01
       24  1    1    2    0    0 -.13421300E+02 -.10978498E+03 -.28823026E+03 0.31902472E+03 0.80419002E+02 0.0000E+00 0.9000E+01
#aMCatNLO 1  0  0  1  2 0.18577649D+03 0.00000000D+00  -5  5  0 0.00000000D+00 0.00000000D+00 0.00000000D+00 0.00000000D+00 0.00000000D+00
  <mgrwgt>
 0.5750097750D+00    3    2    0
 0.152505353438870D+03 0.000000000000000D+00 0.000000000000000D+00 0.152505353438870D+03
 0.152505353438870D+03 0.000000000000000D+00 0.000000000000000D+00 -.152505353438870D+03
 0.167517587172193D+03 0.134213003940941D+02 0.109784981287231D+03 0.142922563469552D+02
 0.137493119705547D+03 -.134213003940941D+02 -.109784981287231D+03 -.142922563469552D+02
 0.000000000000000D+00 0.000000000000000D+00 0.000000000000000D+00 -.000000000000000D+00
 0.203779603930661D+03 0.000000000000000D+00 0.000000000000000D+00 0.203779603930661D+03
 0.520783091356223D+03 0.000000000000000D+00 0.000000000000000D+00 -.520783091356223D+03
 0.186616934243057D+03 -.859171109536126D+02 0.107772267305532D+03 0.142922563469552D+02
 0.170516701698945D+03 -.998212543311899D+02 -.111535546782975D+03 -.142922563469552D+02
 0.367429059344882D+03 0.185738365284803D+03 0.376327947744291D+01 -.317003487425562D+03
0.748686019929D-03 0.000000000000D+00 0.000000000000D+00 0.237054692862D-02 0.000000000000D+00  5 -1 2 25 24 21 0 0.58644944D-02 0.93866990D-01 0.23051597D+05 0.23051597D+05 0.23051597D+05 0.12270938D+01  1  2  2  1  5  1       -1 0.563647895071D+00 0.100000000000D+01
-.415926642874D-04 0.000000000000D+00 -.287515145008D-05 0.237054692862D-02 0.000000000000D+00  5 -1 2 25 24 21 2 0.58644944D-02 0.93866990D-01 0.23051597D+05 0.23051597D+05 0.23051597D+05 0.12270938D+01  1  2  3  1  5  1       -1 -.471498647789D-01 0.100000000000D+01
0.516154047309D-04 0.000000000000D+00 0.000000000000D+00 0.237054692862D-02 0.000000000000D+00  5 -1 2 25 24 21 2 0.58644944D-02 0.93866990D-01 0.23051597D+05 0.23051597D+05 0.23051597D+05 0.12270938D+01  1  2 15  1  5  1       -1 0.585117446853D-01 0.100000000000D+01
  </mgrwgt>
  </event>
  <event>
  4     66 0.45252658E-03 0.10550852E+03 0.75467711E-02 0.11306042E+00
       -1 -1    0    0    0  501 0.00000000E+00 0.00000000E+00 0.65679126E+01 0.65757035E+01 0.32000000E+00 0.0000E+00 0.9000E+01
        2 -1    0    0  501    0 0.00000000E+00 0.00000000E+00 -.18954156E+04 0.18954156E+04 0.32000000E+00 0.0000E+00 0.9000E+01
       25  1    1    2    0    0 -.17819809E+02 0.15467609E+02 -.81384043E+03 0.82372206E+03 0.12500000E+03 0.0000E+00 0.9000E+01
       24  1    1    2    0    0 0.17819809E+02 -.15467609E+02 -.10750073E+04 0.10782693E+04 0.80419002E+02 0.0000E+00 0.9000E+01
#aMCatNLO 1  0  0  1  2 0.17467289D+03 0.00000000D+00  -5  5  0 0.00000000D+00 0.00000000D+00 0.00000000D+00 0.00000000D+00 0.00000000D+00
  <mgrwgt>
 0.5875582677D+00    3    2    0
 0.111608058946400D+03 0.000000000000000D+00 0.000000000000000D+00 0.111608058946400D+03
 0.111608058946400D+03 0.000000000000000D+00 0.000000000000000D+00 -.111608058946400D+03
 0.132121326832431D+03 -.178198087571323D+02 0.154676094869925D+02 0.356966731864343D+02
 0.910947910603702D+02 0.178198087571323D+02 -.154676094869925D+02 -.356966731864343D+02
 0.000000000000000D+00 -.000000000000000D+00 0.000000000000000D+00 -.000000000000000D+00
 0.179686016415832D+03 0.000000000000000D+00 0.000000000000000D+00 0.179686016415832D+03
 0.342615333473422D+03 0.000000000000000D+00 0.000000000000000D+00 -.342615333473422D+03
 0.152623861971528D+03 0.798027559840261D+02 0.512941554945769D+01 0.356966731864343D+02
 0.130812293314300D+03 0.938988420917483D+02 -.235243513199781D+02 -.356966731864343D+02
 0.238865194603425D+03 -.173701598075774D+03 0.183949357705204D+02 -.162929317057590D+03
0.337223476762D-03 0.000000000000D+00 0.000000000000D+00 0.271277870112D-02 0.000000000000D+00  5 -1 2 25 24 21 0 0.10110495D-02 0.29160300D+00 0.11132047D+05 0.11132047D+05 0.11132047D+05 0.12628636D+01  1  2  2  1  5  1       -1 0.575633709240D+00 0.100000000000D+01
-.186626887328D-04 0.000000000000D+00 -.129502694375D-05 0.271277870112D-02 0.000000000000D+00  5 -1 2 25 24 21 2 0.10110495D-02 0.29160300D+00 0.11132047D+05 0.11132047D+05 0.11132047D+05 0.12628636D+01  1  2  3  1  5  1       -1 -.508060578556D-01 0.100000000000D+01
0.230429601414D-04 0.000000000000D+00 0.000000000000D+00 0.271277870112D-02 0.000000000000D+00  5 -1 2 25 24 21 2 0.10110495D-02 0.29160300D+00 0.11132047D+05 0.11132047D+05 0.11132047D+05 0.12628636D+01  1  2 15  1  5  1       -1 0.627306163045D-01 0.100000000000D+01
  </mgrwgt>
  </event>
  <event>
  4     66 0.45252658E-03 0.11443896E+03 0.75467711E-02 0.11538958E+00
       -1 -1    0    0    0  501 0.00000000E+00 0.00000000E+00 0.36518708E+02 0.36520110E+02 0.32000000E+00 0.0000E+00 0.9000E+01
        2 -1    0    0  501    0 0.00000000E+00 0.00000000E+00 -.10059229E+04 0.10059230E+04 0.32000000E+00 0.0000E+00 0.9000E+01
       25  1    1    2    0    0 0.99589348E+02 0.12410786E+03 -.57641564E+03 0.61090162E+03 0.12500000E+03 0.0000E+00 0.9000E+01
       24  1    1    2    0    0 -.99589348E+02 -.12410786E+03 -.39298859E+03 0.43154148E+03 0.80419002E+02 0.0000E+00 0.9000E+01
#aMCatNLO 1  0  0  2  1 0.95404806D+01 0.00000000D+00  -5  5  0 0.00000000D+00 0.00000000D+00 0.00000000D+00 0.00000000D+00 0.00000000D+00
  <mgrwgt>
 0.3739105963D+00   11    2    0
 0.191665759335578D+03 0.000000000000000D+00 0.000000000000000D+00 0.191665759335578D+03
 0.191665759335578D+03 0.000000000000000D+00 0.000000000000000D+00 -.191665759335578D+03
 0.203610751593683D+03 0.995893478121818D+02 0.124107862688512D+03 -.226172143682251D+02
 0.179720767077473D+03 -.995893478121818D+02 -.124107862688512D+03 0.226172143682251D+02
 0.000000000000000D+00 0.000000000000000D+00 -.000000000000000D+00 -.000000000000000D+00
 0.192125767467205D+03 0.000000000000000D+00 0.000000000000000D+00 0.192125767467205D+03
 0.248519996922387D+03 0.000000000000000D+00 0.000000000000000D+00 -.248519996922387D+03
 0.203992434537685D+03 0.959020805621578D+02 0.127589834652619D+03 -.226172143682251D+02
 0.179457789060290D+03 -.102838555306185D+03 -.121039560709693D+03 0.226172143682251D+02
 0.571955407916179D+02 0.693647474402725D+01 -.655027394292664D+01 -.563942294551820D+02
0.631462523111D-03 0.000000000000D+00 0.000000000000D+00 0.216121055071D-02 0.000000000000D+00  5 -1 2 25 24 21 0 0.56183746D-02 0.15475749D+00 0.36222202D+05 0.36222202D+05 0.36222202D+05 0.12064003D+01  1  2  2  2  5  2        2 0.273166012791D+00 0.100000000000D+01
-.350791377454D-04 0.000000000000D+00 -.242498235665D-05 0.216121055071D-02 0.000000000000D+00  5 -1 2 25 24 21 2 0.56183746D-02 0.15475749D+00 0.36222202D+05 0.36222202D+05 0.36222202D+05 0.12064003D+01  1  2  3  2  5  2        2 -.220856840507D-01 0.100000000000D+01
0.433959898217D-04 0.000000000000D+00 0.000000000000D+00 0.216121055071D-02 0.000000000000D+00  5 -1 2 25 24 21 2 0.56183746D-02 0.15475749D+00 0.36222202D+05 0.36222202D+05 0.36222202D+05 0.12064003D+01  1  2 15  2  5  2        2 0.273219406710D-01 0.100000000000D+01
0.212325693571D-01 0.000000000000D+00 0.000000000000D+00 0.216121055071D-02 0.000000000000D+00  5 -1 2 25 24 21 2 0.56183746D-02 0.20081093D+00 0.38083927D+05 0.38083927D+05 0.38083927D+05 0.12041712D+01  1  2 12  2  5  2        2 0.898399755502D+01 0.100000000000D+01
-.206294539061D-01 0.000000000000D+00 0.000000000000D+00 0.216121055071D-02 0.000000000000D+00  5 -1 2 25 24 21 2 0.56183746D-02 0.15475749D+00 0.36222202D+05 0.36222202D+05 0.36222202D+05 0.12064003D+01  1  2  4  2  5  2        2 -.129882212161D+02 0.100000000000D+01
-.219032649463D-01 0.000000000000D+00 -.382674178527D-03 0.216121055071D-02 0.000000000000D+00  5 -1 2 25 24 21 2 0.56183746D-02 0.20083416D+00 0.36222202D+05 0.36222202D+05 0.36222202D+05 0.12064003D+01  1  2  5  2  5  2        2 -.929818291417D+01 0.100000000000D+01
0.212885446002D-01 0.000000000000D+00 0.370035932102D-03 0.216121055071D-02 0.000000000000D+00  5 -1 2 25 24 21 2 0.56183746D-02 0.15475749D+00 0.36222202D+05 0.36222202D+05 0.36222202D+05 0.12064003D+01  1  2  6  2  5  2        2 0.134031820666D+02 0.100000000000D+01
0.142388393167D-06 0.000000000000D+00 0.000000000000D+00 0.216121055071D-02 0.189876963119D-03  5 -1 2 25 24 21 2 0.56318590D-02 0.20066354D+00 0.38083927D+05 0.38083927D+05 0.38083927D+05 0.12041712D+01  1  2 11  2  5  2        2 0.601042395994D-04 0.100000000000D+01
0.740664429055D-03 0.000000000000D+00 0.000000000000D+00 0.216121055071D-02 0.000000000000D+00  5 -1 21 25 24 -2 2 0.56183746D-02 0.20081093D+00 0.38083927D+05 0.38083927D+05 0.38083927D+05 0.12041712D+01  1  2 12  4  5  2        2 0.185956597776D+00 0.100000000000D+01
-.757446241945D-03 0.000000000000D+00 -.133533250770D-04 0.216121055071D-02 0.000000000000D+00  5 -1 21 25 24 -2 2 0.56183746D-02 0.20083416D+00 0.36222202D+05 0.36222202D+05 0.36222202D+05 0.12064003D+01  1  2  5  4  5  2        2 -.191285113990D+00 0.100000000000D+01
0.497613127012D-08 0.000000000000D+00 0.000000000000D+00 0.216121055071D-02 0.662996316981D-05  5 -1 21 25 24 -2 2 0.56318590D-02 0.20066354D+00 0.38083927D+05 0.38083927D+05 0.38083927D+05 0.12041712D+01  1  2 11  4  5  2        2 0.124757298439D-05 0.100000000000D+01
  </mgrwgt>
  </event>
  <event>
  4     66 0.45252658E-03 0.11151191E+03 0.75467711E-02 0.11847887E+00
       -1 -1    0    0    0  501 0.00000000E+00 0.00000000E+00 0.56355508E+01 0.56446287E+01 0.32000000E+00 0.0000E+00 0.9000E+01
        2 -1    0    0  501    0 0.00000000E+00 0.00000000E+00 -.22451779E+04 0.22451779E+04 0.32000000E+00 0.0000E+00 0.9000E+01
       25  1    1    2    0    0 -.42544598E+02 -.52530260E+00 -.11736975E+04 0.11811016E+04 0.12500000E+03 0.0000E+00 0.9000E+01
       24  1    1    2    0    0 0.42544598E+02 0.52530260E+00 -.10658449E+04 0.10697209E+04 0.80419002E+02 0.0000E+00 0.9000E+01
#aMCatNLO 1  0  0  2  2 0.87545790D+02 0.00000000D+00  -5  5  0 0.00000000D+00 0.00000000D+00 0.00000000D+00 0.00000000D+00 0.00000000D+00
  <mgrwgt>
 0.5618235866D+00    6    2    0
 0.112530245137294D+03 0.000000000000000D+00 0.000000000000000D+00 0.112530245137294D+03
 0.112530245137294D+03 0.000000000000000D+00 0.000000000000000D+00 -.112530245137294D+03
 0.132875406641333D+03 -.425445975317909D+02 -.525302600263391D+00 0.148510931629855D+02
 0.921850836332545D+02 0.425445975317909D+02 0.525302600263391D+00 -.148510931629855D+02
 0.000000000000000D+00 0.000000000000000D+00 -.000000000000000D+00 -.000000000000000D+00
 0.153198452799382D+03 0.000000000000000D+00 0.000000000000000D+00 0.153198452799382D+03
 0.179782730788700D+03 0.000000000000000D+00 0.000000000000000D+00 -.179782730788700D+03
 0.156283831965855D+03 -.878620224351996D+02 0.293146069288410D+02 0.148510931629855D+02
 0.852042415300495D+02 0.147439038362497D+02 0.188310687926160D+02 -.148510931629855D+02
 0.914931100921766D+02 0.731181185989499D+02 -.481456757214570D+02 -.265842779893182D+02
0.217032823111D-03 0.000000000000D+00 0.000000000000D+00 0.290229181707D-02 0.000000000000D+00  5 -1 2 25 24 21 0 0.86770787D-03 0.34541268D+00 0.12434907D+05 0.12434907D+05 0.12434907D+05 0.12572161D+01  1  2  2  2  5  2        2 0.306094751739D+00 0.100000000000D+01
-.120561675704D-04 0.000000000000D+00 -.833463186803D-06 0.290229181707D-02 0.000000000000D+00  5 -1 2 25 24 21 2 0.86770787D-03 0.34541268D+00 0.12434907D+05 0.12434907D+05 0.12434907D+05 0.12572161D+01  1  2  3  2  5  2        2 -.268756886275D-01 0.100000000000D+01
0.150175218321D-04 0.000000000000D+00 0.000000000000D+00 0.290229181707D-02 0.000000000000D+00  5 -1 2 25 24 21 2 0.86770787D-03 0.34541268D+00 0.12434907D+05 0.12434907D+05 0.12434907D+05 0.12572161D+01  1  2 15  2  5  2        2 0.334771591686D-01 0.100000000000D+01
-.990009312617D-04 0.000000000000D+00 -.617432809360D-04 0.290229181707D-02 0.000000000000D+00  5 -1 2 25 24 21 2 0.86770787D-03 0.59819371D+00 0.12434907D+05 0.12434907D+05 0.12434907D+05 0.12572161D+01  1  2  5  2  5  2        2 -.234027314571D-01 0.100000000000D+01
0.122271160405D-03 0.000000000000D+00 0.534747627500D-04 0.290229181707D-02 0.000000000000D+00  5 -1 2 25 24 21 2 0.86770787D-03 0.34541268D+00 0.12434907D+05 0.12434907D+05 0.12434907D+05 0.12572161D+01  1  2  6  2  5  2        2 0.272567680897D+00 0.100000000000D+01
-.294600900093D-05 0.000000000000D+00 -.375679482698D-05 0.290229181707D-02 0.000000000000D+00  5 -1 21 25 24 -2 2 0.86770787D-03 0.59819371D+00 0.12434907D+05 0.12434907D+05 0.12434907D+05 0.12572161D+01  1  2  5  4  5  2        2 -.375850938748D-04 0.100000000000D+01
  </mgrwgt>
  </event>
  <event>
  4     66 0.45252658E-03 0.13859429E+03 0.75467711E-02 0.11149255E+00
       -1 -1    0    0    0  501 0.00000000E+00 0.00000000E+00 0.10929246E+03 0.10929293E+03 0.32000000E+00 0.0000E+00 0.9000E+01
        2 -1    0    0  501    0 0.00000000E+00 0.00000000E+00 -.17873296E+03 0.17873324E+03 0.32000000E+00 0.0000E+00 0.9000E+01
       25  1    1    2    0    0 0.84724599E+02 0.35452637E+02 -.20318563E+02 0.15643846E+03 0.12500000E+03 0.0000E+00 0.9000E+01
       24  1    1    2    0    0 -.84724599E+02 -.35452637E+02 -.49121929E+02 0.13158772E+03 0.80419002E+02 0.0000E+00 0.9000E+01
#aMCatNLO 1  0  0  1  1 0.17004712D+03 0.00000000D+00  -5  5  0 0.00000000D+00 0.00000000D+00 0.00000000D+00 0.00000000D+00 0.00000000D+00
  <mgrwgt>
 0.4089718974D+00    3    2    0
 0.139765066403811D+03 0.000000000000000D+00 0.000000000000000D+00 0.139765066403811D+03
 0.139765066403811D+03 0.000000000000000D+00 0.000000000000000D+00 -.139765066403811D+03
 0.156145740561635D+03 0.847245992258387D+02 0.354526369414575D+02 0.179261015131429D+02
 0.123384392245988D+03 -.847245992258387D+02 -.354526369414575D+02 -.179261015131429D+02
 0.000000000000000D+00 -.000000000000000D+00 0.000000000000000D+00 -.000000000000000D+00
 0.216800739856426D+03 0.000000000000000D+00 0.000000000000000D+00 0.216800739856426D+03
 0.299463430300506D+03 0.000000000000000D+00 0.000000000000000D+00 -.299463430300506D+03
 0.227489361114089D+03 0.188997581425792D+03 0.921837945834458D+01 0.179261015131429D+02
 0.997003681684265D+02 -.240896021930706D+02 -.507079225493351D+02 -.179261015131429D+02
 0.189074440874415D+03 -.164907979232722D+03 0.414895430909905D+02 -.826626904440800D+02
0.711608721260D-03 0.000000000000D+00 0.000000000000D+00 0.246625870177D-02 0.000000000000D+00  5 -1 2 25 24 21 0 0.16814283D-01 0.27497436D-01 0.19208376D+05 0.19208376D+05 0.19208376D+05 0.12357617D+01  1  2  2  1  5  1       -1 0.400702350432D+00 0.100000000000D+01
-.395304164723D-04 0.000000000000D+00 -.273276486052D-05 0.246625870177D-02 0.000000000000D+00  5 -1 2 25 24 21 2 0.16814283D-01 0.27497436D-01 0.19208376D+05 0.19208376D+05 0.19208376D+05 0.12357617D+01  1  2  3  1  5  1       -1 -.339923704331D-01 0.100000000000D+01
0.491472402900D-04 0.000000000000D+00 0.000000000000D+00 0.246625870177D-02 0.000000000000D+00  5 -1 2 25 24 21 2 0.16814283D-01 0.27497436D-01 0.19208376D+05 0.19208376D+05 0.19208376D+05 0.12357617D+01  1  2 15  1  5  1       -1 0.422619174497D-01 0.100000000000D+01
  </mgrwgt>
  </event>
  <event>
  4     66 0.45252658E-03 0.10373259E+03 0.75467711E-02 0.11147084E+00
       -1 -1    0    0    0  501 0.00000000E+00 0.00000000E+00 0.14344676E+03 0.14344712E+03 0.32000000E+00 0.0000E+00 0.9000E+01
        2 -1    0    0  501    0 0.00000000E+00 0.00000000E+00 -.77625573E+02 0.77626233E+02 0.32000000E+00 0.0000E+00 0.9000E+01
       25  1    1    2    0    0 -.13413905E+02 -.46392157E+01 0.59508054E+02 0.13916775E+03 0.12500000E+03 0.0000E+00 0.9000E+01
       24  1    1    2    0    0 0.13413905E+02 0.46392157E+01 0.63131333E+01 0.81905597E+02 0.80419002E+02 0.0000E+00 0.9000E+01
#aMCatNLO 1  0  0  2  1 0.20431891D+03 0.00000000D+00  -5  5  0 0.00000000D+00 0.00000000D+00 0.00000000D+00 0.00000000D+00 0.00000000D+00
  <mgrwgt>
 0.3963524486D+00    5    2    0
 0.105523691111558D+03 0.000000000000000D+00 0.000000000000000D+00 0.105523691111558D+03
 0.105523691111558D+03 0.000000000000000D+00 0.000000000000000D+00 -.105523691111558D+03
 0.127219729103510D+03 -.134139048323930D+02 -.463921565614534D+01 0.189315690953935D+02
 0.838276531196055D+02 0.134139048323930D+02 0.463921565614534D+01 -.189315690953935D+02
 0.000000000000000D+00 -.000000000000000D+00 -.000000000000000D+00 -.000000000000000D+00
 0.216502078788136D+03 0.000000000000000D+00 0.000000000000000D+00 0.216502078788136D+03
 0.296762214160803D+03 0.000000000000000D+00 0.000000000000000D+00 -.296762214160803D+03
 0.163330350106924D+03 0.979437844365765D+02 0.331724893229018D+02 0.189315690953935D+02
 0.130416503874562D+03 0.955262013668905D+02 0.325205945900707D+02 -.189315690953935D+02
 0.219517438967453D+03 -.193469985803467D+03 -.656930839129726D+02 -.802601353726677D+02
0.333224227634D-03 0.000000000000D+00 0.000000000000D+00 0.306210608090D-02 0.000000000000D+00  5 -1 2 25 24 21 0 0.22068811D-01 0.11942474D-01 0.10760449D+05 0.10760449D+05 0.10760449D+05 0.12646117D+01  1  2  2  2  5  2        2 0.308355878086D+00 0.100000000000D+01
-.185058606148D-04 0.000000000000D+00 -.127966877407D-05 0.306210608090D-02 0.000000000000D+00  5 -1 2 25 24 21 2 0.22068811D-01 0.11942474D-01 0.10760449D+05 0.10760449D+05 0.10760449D+05 0.12646117D+01  1  2  3  2  5  2        2 -.273866783125D-01 0.100000000000D+01
0.227907731609D-04 0.000000000000D+00 0.000000000000D+00 0.306210608090D-02 0.000000000000D+00  5 -1 2 25 24 21 2 0.22068811D-01 0.11942474D-01 0.10760449D+05 0.10760449D+05 0.10760449D+05 0.12646117D+01  1  2 15  2  5  2        2 0.337278868594D-01 0.100000000000D+01
0.250336947175D-03 0.000000000000D+00 -.181048806377D-03 0.306210608090D-02 0.000000000000D+00  5 -1 2 25 24 21 2 0.22068811D-01 0.65283860D-01 0.10760449D+05 0.10760449D+05 0.10760449D+05 0.12646117D+01  1  2  5  2  5  2        2 0.575042182781D-01 0.100000000000D+01
0.437696967003D-04 0.000000000000D+00 -.376312192190D-04 0.306210608090D-02 0.000000000000D+00  5 -1 21 25 24 -2 2 0.22068811D-01 0.65283860D-01 0.10760449D+05 0.10760449D+05 0.10760449D+05 0.12646117D+01  1  2  5  4  5  2        2 0.241511437246D-01 0.100000000000D+01
  </mgrwgt>
  </event>
  <event>
  4     66 0.45252658E-03 0.10334291E+03 0.75467711E-02 0.12191688E+00
       -1 -1    0    0    0  501 0.00000000E+00 0.00000000E+00 0.11534069E+02 0.11538507E+02 0.32000000E+00 0.0000E+00 0.9000E+01
        2 -1    0    0  501    0 0.00000000E+00 0.00000000E+00 -.98127431E+03 0.98127436E+03 0.32000000E+00 0.0000E+00 0.9000E+01
       25  1    1    2    0    0 0.43863157E+01 0.10256841E+02 -.69842627E+03 0.70961165E+03 0.12500000E+03 0.0000E+00 0.9000E+01
       24  1    1    2    0    0 -.43863157E+01 -.10256841E+02 -.27131397E+03 0.28320122E+03 0.80419002E+02 0.0000E+00 0.9000E+01
#aMCatNLO 1  0  0  1  1 0.57044149D+02 0.00000000D+00  -5  5  0 0.00000000D+00 0.00000000D+00 0.00000000D+00 0.00000000D+00 0.00000000D+00
  <mgrwgt>
 0.4634858920D+00    4    2    0
 0.106396967629690D+03 0.000000000000000D+00 0.000000000000000D+00 0.106396967629690D+03
 0.106396967629690D+03 0.000000000000000D+00 0.000000000000000D+00 -.106396967629690D+03
 0.127914930616903D+03 0.438631566569985D+01 0.102568414550564D+02 -.247545331802851D+02
 0.848790046424774D+02 -.438631566569985D+01 -.102568414550564D+02 0.247545331802851D+02
 0.000000000000000D+00 -.000000000000000D+00 0.000000000000000D+00 -.000000000000000D+00
 0.122999565217047D+03 0.000000000000000D+00 0.000000000000000D+00 0.122999565217047D+03
 0.173481769367248D+03 0.000000000000000D+00 0.000000000000000D+00 -.173481769367248D+03
 0.130897384025310D+03 0.244158192619550D+02 -.173264538051870D+02 -.247545331802851D+02
 0.894098874043755D+02 0.910191419254967D+01 -.288319311935603D+02 0.247545331802851D+02
 0.761740631546091D+02 -.335177334545047D+02 0.461583849987473D+02 -.504822041502010D+02
0.226760295872D-03 0.000000000000D+00 0.000000000000D+00 0.297782860614D-02 0.000000000000D+00  5 -1 2 25 24 21 0 0.17748176D-02 0.15096562D+00 0.10679756D+05 0.10679756D+05 0.10679756D+05 0.12650003D+01  1  2  2  1  5  1       -1 0.528451377829D+00 0.100000000000D+01
-.125848017698D-04 0.000000000000D+00 -.870819243504D-06 0.297782860614D-02 0.000000000000D+00  5 -1 2 25 24 21 2 0.17748176D-02 0.15096562D+00 0.10679756D+05 0.10679756D+05 0.10679756D+05 0.12650003D+01  1  2  3  1  5  1       -1 -.469316345978D-01 0.100000000000D+01
0.154852292592D-04 0.000000000000D+00 0.000000000000D+00 0.297782860614D-02 0.000000000000D+00  5 -1 2 25 24 21 2 0.17748176D-02 0.15096562D+00 0.10679756D+05 0.10679756D+05 0.10679756D+05 0.12650003D+01  1  2 15  1  5  1       -1 0.577479990984D-01 0.100000000000D+01
-.203210387295D-04 0.000000000000D+00 0.000000000000D+00 0.297782860614D-02 0.000000000000D+00  5 -1 2 25 24 21 2 0.17748176D-02 0.15096562D+00 0.10679756D+05 0.10679756D+05 0.10679756D+05 0.12650003D+01  1  2  4  1  5  1       -1 -.757818503422D-01 0.100000000000D+01
  </mgrwgt>
  </event>
  <event>
  4     66 0.45252658E-03 0.10786215E+03 0.75467711E-02 0.12353848E+00
       -1 -1    0    0    0  501 0.00000000E+00 0.00000000E+00 0.71173431E+01 0.71245332E+01 0.32000000E+00 0.0000E+00 0.9000E+01
        2 -1    0    0  501    0 0.00000000E+00 0.00000000E+00 -.17975860E+04 0.17975860E+04 0.32000000E+00 0.0000E+00 0.9000E+01
       25  1    1    2    0    0 -.31035455E+02 -.86870606E+01 -.13228919E+04 0.13291752E+04 0.12500000E+03 0.0000E+00 0.9000E+01
       24  1    1    2    0    0 0.31035455E+02 0.86870606E+01 -.46757670E+03 0.47553533E+03 0.80419002E+02 0.0000E+00 0.9000E+01
#aMCatNLO 1  0  0  1  1 0.31442120D+02 0.00000000D+00  -5  5  0 0.00000000D+00 0.00000000D+00 0.00000000D+00 0.00000000D+00 0.00000000D+00
  <mgrwgt>
 0.1761572092D+00    4    2    0
 0.113139515124606D+03 0.000000000000000D+00 0.000000000000000D+00 0.113139515124606D+03
 0.113139515124606D+03 0.000000000000000D+00 0.000000000000000D+00 -.113139515124606D+03
 0.133375115470656D+03 -.310354546099862D+02 -.868706062777476D+01 -.335448500013276D+02
 0.929039147785563D+02 0.310354546099862D+02 0.868706062777476D+01 0.335448500013276D+02
 0.000000000000000D+00 -.000000000000000D+00 -.000000000000000D+00 -.000000000000000D+00
 0.128295320646945D+03 0.000000000000000D+00 0.000000000000000D+00 0.128295320646945D+03
 0.131793919478050D+03 0.000000000000000D+00 0.000000000000000D+00 -.131793919478050D+03
 0.130179094157769D+03 -.135798450099403D+02 -.345360733605876D+01 -.335448500013276D+02
 0.982739785422572D+02 0.436974670083927D+02 0.124833216570095D+02 0.335448500013276D+02
 0.316361674249687D+02 -.301176219984524D+02 -.902971432095070D+01 -.349859883110477D+01
0.246137154137D-03 0.000000000000D+00 0.000000000000D+00 0.271232584081D-02 0.000000000000D+00  5 -1 2 25 24 21 0 0.10955311D-02 0.27655225D+00 0.11634244D+05 0.11634244D+05 0.11634244D+05 0.12606027D+01  1  2  2  1  5  1       -1 0.420641101638D+00 0.100000000000D+01
-.136363500917D-04 0.000000000000D+00 -.945231481287D-06 0.271232584081D-02 0.000000000000D+00  5 -1 2 25 24 21 2 0.10955311D-02 0.27655225D+00 0.11634244D+05 0.11634244D+05 0.11634244D+05 0.12606027D+01  1  2  3  1  5  1       -1 -.370330196643D-01 0.100000000000D+01
0.170028415500D-04 0.000000000000D+00 0.000000000000D+00 0.271232584081D-02 0.000000000000D+00  5 -1 2 25 24 21 2 0.10955311D-02 0.27655225D+00 0.11634244D+05 0.11634244D+05 0.11634244D+05 0.12606027D+01  1  2 15  1  5  1       -1 0.461755939995D-01 0.100000000000D+01
-.933906909394D-04 0.000000000000D+00 0.000000000000D+00 0.271232584081D-02 0.000000000000D+00  5 -1 2 25 24 21 2 0.10955311D-02 0.27655225D+00 0.11634244D+05 0.11634244D+05 0.11634244D+05 0.12606027D+01  1  2  4  1  5  1       -1 -.253626466815D+00 0.100000000000D+01
  </mgrwgt>
  </event>
  <event>
  4     66 0.45252658E-03 0.47141892E+02 0.75467711E-02 0.11910087E+00
       -1 -1    0    0    0  501 0.00000000E+00 0.00000000E+00 0.15180528E+02 0.15183900E+02 0.32000000E+00 0.0000E+00 0.9000E+01
        2 -1    0    0  501    0 0.00000000E+00 0.00000000E+00 -.16559424E+04 0.16559425E+04 0.32000000E+00 0.0000E+00 0.9000E+01
       25  1    1    2    0    0 -.56786365E+02 -.21172162E+02 -.14384170E+04 0.14451095E+04 0.12500000E+03 0.0000E+00 0.9000E+01
       24  1    1    2    0    0 0.56786365E+02 0.21172162E+02 -.20234486E+03 0.22601684E+03 0.80419002E+02 0.0000E+00 0.9000E+01
#aMCatNLO 1  0  0  2  1 0.66502895D+02 0.00000000D+00  -5  5  0 0.00000000D+00 0.00000000D+00 0.00000000D+00 0.00000000D+00 0.00000000D+00
  <mgrwgt>
 0.3797889056D+00    9    2    0
 0.158558895315606D+03 0.000000000000000D+00 0.000000000000000D+00 0.158558895315606D+03
 0.158558895315606D+03 0.000000000000000D+00 0.000000000000000D+00 -.158558895315606D+03
 0.172997984379959D+03 -.567863652994336D+02 -.211721620734800D+02 -.103103592899288D+03
 0.144119806251254D+03 0.567863652994336D+02 0.211721620734800D+02 0.103103592899288D+03
 0.000000000000000D+00 -.000000000000000D+00 -.000000000000000D+00 -.000000000000000D+00
 0.184905066704879D+03 0.000000000000000D+00 0.000000000000000D+00 0.184905066704879D+03
 0.210296131589972D+03 0.000000000000000D+00 0.000000000000000D+00 -.210296131589972D+03
 0.171483114340971D+03 -.542379946047713D+02 0.144688484887089D+02 -.103103592899288D+03
 0.152532823866580D+03 0.589809149333431D+02 0.518647009750010D+02 0.103103592899288D+03
 0.711852600873007D+02 -.474292032857184D+01 -.663335494637099D+02 -.253910648850933D+02
0.439543246479D-03 0.000000000000D+00 0.000000000000D+00 0.143105198927D-02 0.000000000000D+00  5 -1 2 25 24 21 0 0.23357276D-02 0.25476064D+00 0.14353893D+05 0.14353893D+05 0.14353893D+05 0.12500083D+01  1  2  2  2  5  2        2 0.301598040942D+00 0.100000000000D+01
-.220874145358D-04 0.000000000000D+00 -.168796180088D-05 0.143105198927D-02 0.000000000000D+00  5 -1 2 25 24 21 2 0.23357276D-02 0.25476064D+00 0.14353893D+05 0.14353893D+05 0.14353893D+05 0.12500083D+01  1  2  3  2  5  2        2 -.236808667283D-01 0.100000000000D+01
0.299181882338D-04 0.000000000000D+00 0.000000000000D+00 0.143105198927D-02 0.000000000000D+00  5 -1 2 25 24 21 2 0.23357276D-02 0.25476064D+00 0.14353893D+05 0.14353893D+05 0.14353893D+05 0.12500083D+01  1  2 15  2  5  2        2 0.320765758785D-01 0.100000000000D+01
0.144500906733D-03 0.000000000000D+00 0.000000000000D+00 0.143105198927D-02 0.000000000000D+00  5 -1 2 25 24 21 2 0.23357276D-02 0.35351652D+00 0.24954269D+05 0.24954269D+05 0.24954269D+05 0.12233829D+01  1  2 12  2  5  2        2 0.696602093227D-01 0.100000000000D+01
-.278173739193D-03 0.000000000000D+00 0.000000000000D+00 0.143105198927D-02 0.000000000000D+00  5 -1 2 25 24 21 2 0.23357276D-02 0.25476064D+00 0.14353893D+05 0.14353893D+05 0.14353893D+05 0.12500083D+01  1  2  4  2  5  2        2 -.298242025315D+00 0.100000000000D+01
-.414675980647D-03 0.000000000000D+00 -.187663140262D-03 0.143105198927D-02 0.000000000000D+00  5 -1 2 25 24 21 2 0.23357276D-02 0.36122696D+00 0.14353893D+05 0.14353893D+05 0.14353893D+05 0.12500083D+01  1  2  5  2  5  2        2 -.196791643064D+00 0.100000000000D+01
0.462601724694D-03 0.000000000000D+00 0.176776200770D-03 0.143105198927D-02 0.000000000000D+00  5 -1 2 25 24 21 2 0.23357276D-02 0.25476064D+00 0.14353893D+05 0.14353893D+05 0.14353893D+05 0.12500083D+01  1  2  6  2  5  2        2 0.495975197686D+00 0.100000000000D+01
0.595176750224D-05 0.000000000000D+00 0.000000000000D+00 0.143105198927D-02 0.000000000000D+00  5 -1 21 25 24 -2 2 0.23357276D-02 0.35351652D+00 0.24954269D+05 0.24954269D+05 0.24954269D+05 0.12233829D+01  1  2 12  4  5  2        2 0.735895830304D-03 0.100000000000D+01
-.125941260794D-04 0.000000000000D+00 -.809312994746D-05 0.143105198927D-02 0.000000000000D+00  5 -1 21 25 24 -2 2 0.23357276D-02 0.36122696D+00 0.14353893D+05 0.14353893D+05 0.14353893D+05 0.12500083D+01  1  2  5  4  5  2        2 -.154247891916D-02 0.100000000000D+01
  </mgrwgt>
  </event>
  <event>
  4     66 0.45252658E-03 0.13609345E+03 0.75467711E-02 0.11786803E+00
       -1 -1    0    0    0  501 0.00000000E+00 0.00000000E+00 0.13427686E+02 0.13431499E+02 0.32000000E+00 0.0000E+00 0.9000E+01
        2 -1    0    0  501    0 0.00000000E+00 0.00000000E+00 -.13958722E+04 0.13958722E+04 0.32000000E+00 0.0000E+00 0.9000E+01
       25  1    1    2    0    0 0.75996409E+02 0.44529363E+02 -.85219014E+03 0.86580099E+03 0.12500000E+03 0.0000E+00 0.9000E+01
       24  1    1    2    0    0 -.75996409E+02 -.44529363E+02 -.53025438E+03 0.54350275E+03 0.80419002E+02 0.0000E+00 0.9000E+01
#aMCatNLO 1  0  0  1  1 0.59723080D+02 0.00000000D+00  -5  5  0 0.00000000D+00 0.00000000D+00 0.00000000D+00 0.00000000D+00 0.00000000D+00
  <mgrwgt>
 0.3709797639D+00    4    2    0
 0.136916202176105D+03 0.000000000000000D+00 0.000000000000000D+00 0.136916202176105D+03
 0.136916202176105D+03 0.000000000000000D+00 0.000000000000000D+00 -.136916202176105D+03
 0.153637714860649D+03 0.759964091647200D+02 0.445293634495312D+02 -.148737692751418D+02
 0.120194689491561D+03 -.759964091647200D+02 -.445293634495312D+02 0.148737692751418D+02
 0.000000000000000D+00 0.000000000000000D+00 -.000000000000000D+00 -.000000000000000D+00
 0.157182931234854D+03 0.000000000000000D+00 0.000000000000000D+00 0.157182931234854D+03
 0.192440270676414D+03 0.000000000000000D+00 0.000000000000000D+00 -.192440270676414D+03
 0.143826656093641D+03 0.450722210061239D+02 0.529940834830038D+02 -.148737692751418D+02
 0.136442914020930D+03 -.102676275106752D+03 -.372264200522247D+02 0.148737692751418D+02
 0.693536317966967D+02 0.576040541006284D+02 -.157676634307790D+02 -.352573394415594D+02
0.408046737177D-03 0.000000000000D+00 0.000000000000D+00 0.250755306460D-02 0.000000000000D+00  5 -1 2 25 24 21 0 0.20660940D-02 0.21474987D+00 0.18521426D+05 0.18521426D+05 0.18521426D+05 0.12375152D+01  1  2  2  1  5  1       -1 0.458147794142D+00 0.100000000000D+01
-.226682618716D-04 0.000000000000D+00 -.156700691193D-05 0.250755306460D-02 0.000000000000D+00  5 -1 2 25 24 21 2 0.20660940D-02 0.21474987D+00 0.18521426D+05 0.18521426D+05 0.18521426D+05 0.12375152D+01  1  2  3  1  5  1       -1 -.389775904108D-01 0.100000000000D+01
0.281687788399D-04 0.000000000000D+00 0.000000000000D+00 0.250755306460D-02 0.000000000000D+00  5 -1 2 25 24 21 2 0.20660940D-02 0.21474987D+00 0.18521426D+05 0.18521426D+05 0.18521426D+05 0.12375152D+01  1  2 15  1  5  1       -1 0.484356114384D-01 0.100000000000D+01
-.561949727985D-04 0.000000000000D+00 0.000000000000D+00 0.250755306460D-02 0.000000000000D+00  5 -1 2 25 24 21 2 0.20660940D-02 0.21474987D+00 0.18521426D+05 0.18521426D+05 0.18521426D+05 0.12375152D+01  1  2  4  1  5  1       -1 -.966260512295D-01 0.100000000000D+01
  </mgrwgt>
  </event>
  <event>
  4     66 0.45252658E-03 0.92689777E+02 0.75467711E-02 0.12576158E+00
       -1 -1    0    0    0  501 0.00000000E+00 0.00000000E+00 0.14830198E+02 0.14833650E+02 0.32000000E+00 0.0000E+00 0.9000E+01
        2 -1    0    0  501    0 0.00000000E+00 0.00000000E+00 -.12446351E+04 0.12446352E+04 0.32000000E+00 0.0000E+00 0.9000E+01
       25  1    1    2    0    0 -.32432307E+02 0.25256905E+02 -.10504300E+04 0.10586396E+04 0.12500000E+03 0.0000E+00 0.9000E+01
       24  1    1    2    0    0 0.32432307E+02 -.25256905E+02 -.17937494E+03 0.20082915E+03 0.80419002E+02 0.0000E+00 0.9000E+01
#aMCatNLO 1  0  0  2  2 0.12917760D+01 0.00000000D+00  -5  5  0 0.00000000D+00 0.00000000D+00 0.00000000D+00 0.00000000D+00 0.00000000D+00
  <mgrwgt>
 0.7764269861D+00   10    2    0
 0.135868998600326D+03 0.000000000000000D+00 0.000000000000000D+00 0.135868998600326D+03
 0.135868998600326D+03 0.000000000000000D+00 0.000000000000000D+00 -.135868998600326D+03
 0.152719391515505D+03 -.324323074671029D+02 0.252569053095534D+02 -.775141710360737D+02
 0.119018605685148D+03 0.324323074671029D+02 -.252569053095534D+02 0.775141710360737D+02
 0.000000000000000D+00 -.000000000000000D+00 0.000000000000000D+00 -.000000000000000D+00
 0.136374387752364D+03 0.000000000000000D+00 0.000000000000000D+00 0.136374387752364D+03
 0.136698494556471D+03 0.000000000000000D+00 0.000000000000000D+00 -.136698494556471D+03
 0.152565490668006D+03 -.317067405579573D+02 0.252480659566251D+02 -.775141710360737D+02
 0.119175576908983D+03 0.329984207171439D+02 -.252638020888187D+02 0.775141710360737D+02
 0.133181473184571D+01 -.129168015918656D+01 0.157361321935907D-01 -.324106804107246D+00
0.187412133624D-03 0.000000000000D+00 0.000000000000D+00 0.180485536376D-02 0.000000000000D+00  5 -1 2 25 24 21 0 0.22818376D-02 0.19148259D+00 0.12310079D+05 0.12310079D+05 0.12310079D+05 0.12577277D+01  1  2  2  2  5  2        2 0.217352847777D+00 0.100000000000D+01
-.989214326174D-05 0.000000000000D+00 -.719711939864D-06 0.180485536376D-02 0.000000000000D+00  5 -1 2 25 24 21 2 0.22818376D-02 0.19148259D+00 0.12310079D+05 0.12310079D+05 0.12310079D+05 0.12577277D+01  1  2  3  2  5  2        2 -.181481036467D-01 0.100000000000D+01
0.127759700696D-04 0.000000000000D+00 0.000000000000D+00 0.180485536376D-02 0.000000000000D+00  5 -1 2 25 24 21 2 0.22818376D-02 0.19148259D+00 0.12310079D+05 0.12310079D+05 0.12310079D+05 0.12577277D+01  1  2 15  2  5  2        2 0.234387657837D-01 0.100000000000D+01
-.414860941713D-02 0.000000000000D+00 0.000000000000D+00 0.180485536376D-02 0.000000000000D+00  5 -1 2 25 24 21 2 0.22818376D-02 0.19148259D+00 0.12310079D+05 0.12310079D+05 0.12310079D+05 0.12577277D+01  1  2  4  2  5  2        2 -.761102945031D+01 0.100000000000D+01
-.282014228202D-01 0.000000000000D+00 -.288312960968D-02 0.180485536376D-02 0.000000000000D+00  5 -1 2 25 24 21 2 0.22818376D-02 0.19309685D+00 0.12310079D+05 0.12310079D+05 0.12310079D+05 0.12577277D+01  1  2  5  2  5  2        2 -.510668099726D+02 0.100000000000D+01
0.282247335765D-01 0.000000000000D+00 0.288302801800D-02 0.180485536376D-02 0.000000000000D+00  5 -1 2 25 24 21 2 0.22818376D-02 0.19148259D+00 0.12310079D+05 0.12310079D+05 0.12310079D+05 0.12577277D+01  1  2  6  2  5  2        2 0.517810323601D+02 0.100000000000D+01
0.414873025777D-02 0.000000000000D+00 0.000000000000D+00 0.180485536376D-02 0.911669013209D-02  5 -1 2 25 24 21 2 0.22903253D-02 0.19265162D+00 0.12456957D+05 0.12456957D+05 0.12456957D+05 0.12571263D+01  1  2 11  2  5  2        2 0.749469621054D+01 0.100000000000D+01
0.469928464598D-09 0.000000000000D+00 0.000000000000D+00 0.180485536376D-02 0.000000000000D+00  5 -1 21 25 24 -2 2 0.22818376D-02 0.19300599D+00 0.12456957D+05 0.12456957D+05 0.12456957D+05 0.12571263D+01  1  2 12  4  5  2        2 0.563144281854D-06 0.100000000000D+01
-.437613840900D-04 0.000000000000D+00 -.448158689665D-05 0.180485536376D-02 0.000000000000D+00  5 -1 21 25 24 -2 2 0.22818376D-02 0.19309685D+00 0.12310079D+05 0.12310079D+05 0.12310079D+05 0.12577277D+01  1  2  5  4  5  2        2 -.524360130752D-01 0.100000000000D+01
0.695198843224D-05 0.000000000000D+00 0.000000000000D+00 0.180485536376D-02 0.103471682736D-04  5 -1 21 25 24 -2 2 0.22903253D-02 0.19265162D+00 0.12456957D+05 0.12456957D+05 0.12456957D+05 0.12571263D+01  1  2 11  4  5  2        2 0.832977828424D-02 0.100000000000D+01
  </mgrwgt>
  </event>
  <event>
  4     66 0.45252658E-03 0.10557786E+03 0.75467711E-02 0.11657589E+00
       -3 -1    0    0    0  501 0.00000000E+00 0.00000000E+00 0.42502287E+03 0.42502316E+03 0.50000000E+00 0.0000E+00 0.9000E+01
        4 -1    0    0  501    0 0.00000000E+00 0.00000000E+00 -.42022451E+02 0.42051027E+02 0.15500000E+01 0.0000E+00 0.9000E+01
       25  1    1    2    0    0 0.15130127E+02 -.18490297E+02 0.74707083E+02 0.14757019E+03 0.12500000E+03 0.0000E+00 0.9000E+01
       24  1    1    2    0    0 -.15130127E+02 0.18490297E+02 0.30829334E+03 0.31950400E+03 0.80419002E+02 0.0000E+00 0.9000E+01
#aMCatNLO 1  0  0  2  2 0.12011301D+03 0.00000000D+00  -5  5  0 0.00000000D+00 0.00000000D+00 0.00000000D+00 0.00000000D+00 0.00000000D+00
  <mgrwgt>
 0.7803353709D-01    5    2    0
 0.133668413870884D+03 0.000000000000000D+00 0.000000000000000D+00 0.133668413870884D+03
 0.133668413870884D+03 0.000000000000000D+00 0.000000000000000D+00 -.133668413870884D+03
 0.150796215010343D+03 0.151301268305389D+02 -.184902974196853D+02 -.808930567160671D+02
 0.116540612731425D+03 -.151301268305389D+02 0.184902974196853D+02 0.808930567160671D+02
 0.000000000000000D+00 0.000000000000000D+00 -.000000000000000D+00 -.000000000000000D+00
 0.193629852634902D+03 0.000000000000000D+00 0.000000000000000D+00 0.193629852634902D+03
 0.223134157304526D+03 0.000000000000000D+00 0.000000000000000D+00 -.223134157304526D+03
 0.154618184097427D+03 -.220857703950327D+02 0.353597931947417D+02 -.808930567160671D+02
 0.138462203877161D+03 -.462031824653116D+02 0.634519129211894D+02 0.808930567160671D+02
 0.123683621964840D+03 0.682889528603443D+02 -.988117061159312D+02 -.295043046696242D+02
0.898390108618D-03 0.000000000000D+00 0.000000000000D+00 0.173311739050D-02 0.000000000000D+00  5 -3 4 25 24 21 0 0.65390355D-01 0.64672133D-02 0.11146685D+05 0.11146685D+05 0.11146685D+05 0.12627961D+01  1  2  2  2  5  2        4 0.608041528947D-01 0.100000000000D+01
-.465331841689D-04 0.000000000000D+00 -.345005456864D-05 0.173311739050D-02 0.000000000000D+00  5 -3 4 25 24 21 2 0.65390355D-01 0.64672133D-02 0.11146685D+05 0.11146685D+05 0.11146685D+05 0.12627961D+01  1  2  3  2  5  2        4 -.502224027027D-02 0.100000000000D+01
0.614240844036D-04 0.000000000000D+00 0.000000000000D+00 0.173311739050D-02 0.000000000000D+00  5 -3 4 25 24 21 2 0.65390355D-01 0.64672133D-02 0.11146685D+05 0.11146685D+05 0.11146685D+05 0.12627961D+01  1  2 15  2  5  2        4 0.662938751701D-02 0.100000000000D+01
0.186559087184D-04 0.000000000000D+00 -.342756147640D-03 0.173311739050D-02 0.000000000000D+00  5 -3 4 25 24 21 2 0.65390355D-01 0.15562642D-01 0.11146685D+05 0.11146685D+05 0.11146685D+05 0.12627961D+01  1  2  5  2  5  2        4 0.461117832150D-03 0.100000000000D+01
0.233133638236D-04 0.000000000000D+00 -.329424563495D-04 0.173311739050D-02 0.000000000000D+00  5 -3 21 25 24 -4 2 0.65390355D-01 0.15562642D-01 0.11146685D+05 0.11146685D+05 0.11146685D+05 0.12627961D+01  1  2  5  4  5  2        4 0.151611191169D-01 0.100000000000D+01
  </mgrwgt>
  </event>
  <event>
  4     66 0.45252658E-03 0.70643703E+02 0.75467711E-02 0.11631967E+00
       -1 -1    0    0    0  501 0.00000000E+00 0.00000000E+00 0.26421794E+02 0.26423732E+02 0.32000000E+00 0.0000E+00 0.9000E+01
        2 -1    0    0  501    0 0.00000000E+00 0.00000000E+00 -.58508539E+03 0.58508547E+03 0.32000000E+00 0.0000E+00 0.9000E+01
       25  1    1    2    0    0 0.48034198E+02 0.46875122E+02 -.28197255E+03 0.31565500E+03 0.12500000E+03 0.0000E+00 0.9000E+01
       24  1    1    2    0    0 -.48034198E+02 -.46875122E+02 -.27669104E+03 0.29585421E+03 0.80419002E+02 0.0000E+00 0.9000E+01
#aMCatNLO 1  0  0  2  1 0.10270847D+03 0.00000000D+00  -5  5  0 0.00000000D+00 0.00000000D+00 0.00000000D+00 0.00000000D+00 0.00000000D+00
  <mgrwgt>
 0.2519862310D+00    7    2    0
 0.124336739855304D+03 0.000000000000000D+00 0.000000000000000D+00 0.124336739855304D+03
 0.124336739855304D+03 0.000000000000000D+00 0.000000000000000D+00 -.124336739855304D+03
 0.142750010253673D+03 0.480341979649593D+02 0.468751216107838D+02 0.157481499631221D+02
 0.105923469456935D+03 -.480341979649593D+02 -.468751216107838D+02 -.157481499631221D+02
 0.000000000000000D+00 -.000000000000000D+00 -.000000000000000D+00 -.000000000000000D+00
 0.165958044696305D+03 0.000000000000000D+00 0.000000000000000D+00 0.165958044696305D+03
 0.218424530709620D+03 0.000000000000000D+00 0.000000000000000D+00 -.218424530709620D+03
 0.178150716027214D+03 0.639426838279521D+02 0.108517310041424D+03 0.157481499631221D+02
 0.908985917022801D+02 -.382768471051929D+02 -.906734622213119D+01 -.157481499631221D+02
 0.115333267676431D+03 -.256658367227591D+02 -.994499638192925D+02 -.524664860133151D+02
0.232098282493D-03 0.000000000000D+00 0.000000000000D+00 0.266850711190D-02 0.000000000000D+00  5 -1 2 25 24 21 0 0.40650472D-02 0.90013292D-01 0.15205965D+05 0.15205965D+05 0.15205965D+05 0.12471479D+01  1  2  2  2  5  2        2 0.310856202828D+00 0.100000000000D+01
-.128932762677D-04 0.000000000000D+00 -.891318517653D-06 0.266850711190D-02 0.000000000000D+00  5 -1 2 25 24 21 2 0.40650472D-02 0.90013292D-01 0.15205965D+05 0.15205965D+05 0.15205965D+05 0.12471479D+01  1  2  3  2  5  2        2 -.268588133176D-01 0.100000000000D+01
0.160340022531D-04 0.000000000000D+00 0.000000000000D+00 0.266850711190D-02 0.000000000000D+00  5 -1 2 25 24 21 2 0.40650472D-02 0.90013292D-01 0.15205965D+05 0.15205965D+05 0.15205965D+05 0.12471479D+01  1  2 15  2  5  2        2 0.334014616849D-01 0.100000000000D+01
0.574084115500D-05 0.000000000000D+00 0.000000000000D+00 0.266850711190D-02 0.000000000000D+00  5 -1 2 25 24 21 2 0.40650472D-02 0.16396870D+00 0.34166896D+05 0.34166896D+05 0.34166896D+05 0.12090145D+01  1  2 12  2  5  2        2 0.540914786789D-02 0.100000000000D+01
-.894018261647D-04 0.000000000000D+00 -.823094392954D-04 0.266850711190D-02 0.000000000000D+00  5 -1 2 25 24 21 2 0.40650472D-02 0.19168185D+00 0.15205965D+05 0.15205965D+05 0.15205965D+05 0.12471479D+01  1  2  5  2  5  2        2 -.699687460040D-01 0.100000000000D+01
0.376645132102D-06 0.000000000000D+00 0.000000000000D+00 0.266850711190D-02 0.000000000000D+00  5 -1 21 25 24 -2 2 0.40650472D-02 0.16396870D+00 0.34166896D+05 0.34166896D+05 0.34166896D+05 0.12090145D+01  1  2 12  4  5  2        2 0.275141020627D-03 0.100000000000D+01
-.218123132771D-05 0.000000000000D+00 -.673153085915D-05 0.266850711190D-02 0.000000000000D+00  5 -1 21 25 24 -2 2 0.40650472D-02 0.19168185D+00 0.15205965D+05 0.15205965D+05 0.15205965D+05 0.12471479D+01  1  2  5  4  5  2        2 -.112816309851D-02 0.100000000000D+01
  </mgrwgt>
  </event>
  <event>
  4     66 0.45252658E-03 0.11876499E+03 0.75467711E-02 0.11666476E+00
       -1 -1    0    0    0  501 0.00000000E+00 0.00000000E+00 0.82899330E+02 0.82899948E+02 0.32000000E+00 0.0000E+00 0.9000E+01
        2 -1    0    0  501    0 0.00000000E+00 0.00000000E+00 -.23779786E+03 0.23779808E+03 0.32000000E+00 0.0000E+00 0.9000E+01
       25  1    1    2    0    0 -.18829573E+02 -.55462320E+02 -.17116051E+03 0.21988984E+03 0.12500000E+03 0.0000E+00 0.9000E+01
       24  1    1    2    0    0 0.18829573E+02 0.55462320E+02 0.16261981E+02 0.10080818E+03 0.80419002E+02 0.0000E+00 0.9000E+01
#aMCatNLO 1  0  0  1  1 0.10576993D+03 0.00000000D+00  -5  5  0 0.00000000D+00 0.00000000D+00 0.00000000D+00 0.00000000D+00 0.00000000D+00
  <mgrwgt>
 0.3521425921D+00    3    2    0
 0.140404476719229D+03 0.000000000000000D+00 0.000000000000000D+00 0.140404476719229D+03
 0.140404476719229D+03 0.000000000000000D+00 0.000000000000000D+00 -.140404476719229D+03
 0.156710552315278D+03 -.188295728927445D+02 -.554623199103184D+02 -.741793465986439D+02
 0.124098401123181D+03 0.188295728927445D+02 0.554623199103184D+02 0.741793465986439D+02
 0.000000000000000D+00 0.000000000000000D+00 0.000000000000000D+00 -.000000000000000D+00
 0.173050923084784D+03 0.000000000000000D+00 0.000000000000000D+00 0.173050923084784D+03
 0.271546198356879D+03 0.000000000000000D+00 0.000000000000000D+00 -.271546198356879D+03
 0.188494768719519D+03 -.560329161293446D+02 -.106127351247758D+03 -.741793465986439D+02
 0.111573469024908D+03 -.656917081737064D+01 0.208732740328870D+02 0.741793465986439D+02
 0.144528883697236D+03 0.626020869467153D+02 0.852540772148715D+02 -.984952752720952D+02
0.545348346042D-03 0.000000000000D+00 0.000000000000D+00 0.186845886456D-02 0.000000000000D+00  5 -1 2 25 24 21 0 0.12753807D-01 0.36584351D-01 0.14105123D+05 0.14105123D+05 0.14105123D+05 0.12508796D+01  1  2  2  1  5  1       -1 0.344344828527D+00 0.100000000000D+01
-.292650967277D-04 0.000000000000D+00 -.209428124232D-05 0.186845886456D-02 0.000000000000D+00  5 -1 2 25 24 21 2 0.12753807D-01 0.36584351D-01 0.14105123D+05 0.14105123D+05 0.14105123D+05 0.12508796D+01  1  2  3  1  5  1       -1 -.289134898410D-01 0.100000000000D+01
0.371576862065D-04 0.000000000000D+00 0.000000000000D+00 0.186845886456D-02 0.000000000000D+00  5 -1 2 25 24 21 2 0.12753807D-01 0.36584351D-01 0.14105123D+05 0.14105123D+05 0.14105123D+05 0.12508796D+01  1  2 15  1  5  1       -1 0.367112534309D-01 0.100000000000D+01
  </mgrwgt>
  </event>
  <event>
  4     66 0.45252658E-03 0.79810310E+02 0.75467711E-02 0.12116947E+00
       -1 -1    0    0    0  501 0.00000000E+00 0.00000000E+00 0.30262517E+02 0.30264209E+02 0.32000000E+00 0.0000E+00 0.9000E+01
        2 -1    0    0  501    0 0.00000000E+00 0.00000000E+00 -.55091009E+03 0.55091018E+03 0.32000000E+00 0.0000E+00 0.9000E+01
       25  1    1    2    0    0 -.56559888E+01 0.42094134E+02 -.44081833E+03 0.46016270E+03 0.12500000E+03 0.0000E+00 0.9000E+01
       24  1    1    2    0    0 0.56559888E+01 -.42094134E+02 -.79829237E+02 0.12101169E+03 0.80419002E+02 0.0000E+00 0.9000E+01
#aMCatNLO 1  0  0  2  1 0.53961210D+02 0.00000000D+00  -5  5  0 0.00000000D+00 0.00000000D+00 0.00000000D+00 0.00000000D+00 0.00000000D+00
  <mgrwgt>
 0.3773636633D+00    9    2    0
 0.129121820914370D+03 0.000000000000000D+00 0.000000000000000D+00 0.129121820914370D+03
 0.129121820914370D+03 0.000000000000000D+00 0.000000000000000D+00 -.129121820914370D+03
 0.146852720271232D+03 -.565598875206921D+01 0.420941337891596D+02 -.643180778851279D+02
 0.111390921557509D+03 0.565598875206921D+01 -.420941337891596D+02 0.643180778851279D+02
 0.000000000000000D+00 -.000000000000000D+00 -.000000000000000D+00 -.000000000000000D+00
 0.145216070206387D+03 0.000000000000000D+00 0.000000000000000D+00 0.145216070206387D+03
 0.186621241412588D+03 0.000000000000000D+00 0.000000000000000D+00 -.186621241412588D+03
 0.157167902559794D+03 0.945615854906949D+01 0.696456424889766D+02 -.643180778851279D+02
 0.106653231463118D+03 0.164944487483543D+02 -.223341407895038D+02 0.643180778851279D+02
 0.680161775960626D+02 -.259506072974238D+02 -.473115016994728D+02 -.414051712062008D+02
0.307614681888D-03 0.000000000000D+00 0.000000000000D+00 0.205611367609D-02 0.000000000000D+00  5 -1 2 25 24 21 0 0.46559092D-02 0.84755535D-01 0.12428269D+05 0.12428269D+05 0.12428269D+05 0.12572431D+01  1  2  2  2  5  2        2 0.358408755919D+00 0.100000000000D+01
-.166413604723D-04 0.000000000000D+00 -.118132137526D-05 0.205611367609D-02 0.000000000000D+00  5 -1 2 25 24 21 2 0.46559092D-02 0.84755535D-01 0.12428269D+05 0.12428269D+05 0.12428269D+05 0.12572431D+01  1  2  3  2  5  2        2 -.306477737836D-01 0.100000000000D+01
0.209571683866D-04 0.000000000000D+00 0.000000000000D+00 0.205611367609D-02 0.000000000000D+00  5 -1 2 25 24 21 2 0.46559092D-02 0.84755535D-01 0.12428269D+05 0.12428269D+05 0.12428269D+05 0.12572431D+01  1  2 15  2  5  2        2 0.385960364795D-01 0.100000000000D+01
0.194115776241D-03 0.000000000000D+00 0.000000000000D+00 0.205611367609D-02 0.000000000000D+00  5 -1 2 25 24 21 2 0.46559092D-02 0.12591861D+00 0.19943513D+05 0.19943513D+05 0.19943513D+05 0.12339613D+01  1  2 12  2  5  2        2 0.219682269552D+00 0.100000000000D+01
-.291872322659D-03 0.000000000000D+00 0.000000000000D+00 0.205611367609D-02 0.000000000000D+00  5 -1 2 25 24 21 2 0.46559092D-02 0.84755535D-01 0.12428269D+05 0.12428269D+05 0.12428269D+05 0.12572431D+01  1  2  4  2  5  2        2 -.537530386018D+00 0.100000000000D+01
-.358689391158D-03 0.000000000000D+00 -.136998764618D-03 0.205611367609D-02 0.000000000000D+00  5 -1 2 25 24 21 2 0.46559092D-02 0.13242366D+00 0.12428269D+05 0.12428269D+05 0.12428269D+05 0.12572431D+01  1  2  5  2  5  2        2 -.390649389553D+00 0.100000000000D+01
0.392667930939D-03 0.000000000000D+00 0.124405663068D-03 0.205611367609D-02 0.000000000000D+00  5 -1 2 25 24 21 2 0.46559092D-02 0.84755535D-01 0.12428269D+05 0.12428269D+05 0.12428269D+05 0.12572431D+01  1  2  6  2  5  2        2 0.723161903711D+00 0.100000000000D+01
0.916973223392D-05 0.000000000000D+00 0.000000000000D+00 0.205611367609D-02 0.000000000000D+00  5 -1 21 25 24 -2 2 0.46559092D-02 0.12591861D+00 0.19943513D+05 0.19943513D+05 0.19943513D+05 0.12339613D+01  1  2 12  4  5  2        2 0.114298897645D-01 0.100000000000D+01
-.131264110772D-04 0.000000000000D+00 -.707402028246D-05 0.205611367609D-02 0.000000000000D+00  5 -1 21 25 24 -2 2 0.46559092D-02 0.13242366D+00 0.12428269D+05 0.12428269D+05 0.12428269D+05 0.12572431D+01  1  2  5  4  5  2        2 -.150876427319D-01 0.100000000000D+01
  </mgrwgt>
  </event>
  <event>
  4     66 0.45252658E-03 0.11530601E+03 0.75467711E-02 0.11354902E+00
       -1 -1    0    0    0  501 0.00000000E+00 0.00000000E+00 0.32326603E+02 0.32328187E+02 0.32000000E+00 0.0000E+00 0.9000E+01
        2 -1    0    0  501    0 0.00000000E+00 0.00000000E+00 -.44215783E+03 0.44215794E+03 0.32000000E+00 0.0000E+00 0.9000E+01
       25  1    1    2    0    0 0.37807821E+02 0.34844992E+02 -.17590751E+03 0.22183791E+03 0.12500000E+03 0.0000E+00 0.9000E+01
       24  1    1    2    0    0 -.37807821E+02 -.34844992E+02 -.23392372E+03 0.25264823E+03 0.80419002E+02 0.0000E+00 0.9000E+01
#aMCatNLO 1  0  0  1  1 0.15683355D+03 0.00000000D+00  -5  5  0 0.00000000D+00 0.00000000D+00 0.00000000D+00 0.00000000D+00 0.00000000D+00
  <mgrwgt>
 0.4243927483D+00    3    2    0
 0.119556948630575D+03 0.000000000000000D+00 0.000000000000000D+00 0.119556948630575D+03
 0.119556948630575D+03 0.000000000000000D+00 0.000000000000000D+00 -.119556948630575D+03
 0.138706366858717D+03 0.378078212383107D+02 0.348449923524137D+02 0.311584879016482D+02
 0.100407530402433D+03 -.378078212383107D+02 -.348449923524137D+02 -.311584879016482D+02
 0.000000000000000D+00 -.000000000000000D+00 0.000000000000000D+00 -.000000000000000D+00
 0.192467616252281D+03 0.000000000000000D+00 0.000000000000000D+00 0.192467616252281D+03
 0.267234386190491D+03 0.000000000000000D+00 0.000000000000000D+00 -.267234386190491D+03
 0.166479531190657D+03 0.100766317463598D+03 -.310762321070130D+02 0.311584879016482D+02
 0.119478889296152D+03 0.755377119786986D+01 -.823412302886275D+02 -.311584879016482D+02
 0.173743581955962D+03 -.108320088661468D+03 0.113417462395641D+03 -.747667699382100D+02
0.308427631773D-03 0.000000000000D+00 0.000000000000D+00 0.262797812410D-02 0.000000000000D+00  5 -1 2 25 24 21 0 0.49734543D-02 0.68024412D-01 0.13295476D+05 0.13295476D+05 0.13295476D+05 0.12538393D+01  1  2  2  1  5  1       -1 0.415459005940D+00 0.100000000000D+01
-.171075624702D-04 0.000000000000D+00 -.118444331687D-05 0.262797812410D-02 0.000000000000D+00  5 -1 2 25 24 21 2 0.49734543D-02 0.68024412D-01 0.13295476D+05 0.13295476D+05 0.13295476D+05 0.12538393D+01  1  2  3  1  5  1       -1 -.362282053846D-01 0.100000000000D+01
0.213262245254D-04 0.000000000000D+00 0.000000000000D+00 0.262797812410D-02 0.000000000000D+00  5 -1 2 25 24 21 2 0.49734543D-02 0.68024412D-01 0.13295476D+05 0.13295476D+05 0.13295476D+05 0.12538393D+01  1  2 15  1  5  1       -1 0.451619477369D-01 0.100000000000D+01
  </mgrwgt>
  </event>
  <event>
  5     66 0.45252658E-03 0.11077161E+03 0.75467711E-02 0.11552400E+00
       21 -1    0    0  502  501 0.00000000E+00 0.00000000E+00 0.12402815E+03 0.12403042E+03 0.75000000E+00 0.0000E+00 0.9000E+01
        2 -1    0    0  501    0 0.00000000E+00 0.00000000E+00 -.74228895E+03 0.74228902E+03 0.32000000E+00 0.0000E+00 0.9000E+01
       25  1    1    2    0    0 0.19746867E+02 0.33852531E+02 -.31852074E+03 0.34440731E+03 0.12500000E+03 0.0000E+00 0.9000E+01
       24  1    1    2    0    0 -.12650604E+02 0.96179087E+02 -.35779298E+03 0.37933295E+03 0.80419002E+02 0.0000E+00 0.9000E+01
        1  1    1    2  502    0 -.70962620E+01 -.13003162E+03 0.58052917E+02 0.14257918E+03 0.32000000E+00 0.0000E+00 0.9000E+01
#aMCatNLO 2  0  0  1  1 0.13022511D+03 0.00000000D+00  -5  5  0 0.00000000D+00 0.00000000D+00 0.00000000D+00 0.00000000D+00 0.00000000D+00
  <mgrwgt>
 0.2884905934D+00    1    2    0
 0.111176814194910D+03 0.000000000000000D+00 0.000000000000000D+00 0.111176814194910D+03
 0.111176814194910D+03 0.000000000000000D+00 0.000000000000000D+00 -.111176814194910D+03
 0.131769651181529D+03 0.158575063042876D+02 -.374159479586587D+02 0.931811701290457D+01
 0.905839772082916D+02 -.158575063042876D+02 0.374159479586587D+02 -.931811701290457D+01
 0.000000000000000D+00 -.000000000000000D+00 -.000000000000000D+00 0.000000000000000D+00
 0.673885152304425D+03 0.000000000000000D+00 0.000000000000000D+00 0.673885152304425D+03
 0.136619240419431D+03 0.000000000000000D+00 0.000000000000000D+00 -.136619240419431D+03
 0.131330727132172D+03 0.197468665307853D+02 0.338525308745778D+02 0.931811701290457D+01
 0.126350693449273D+03 -.126506044928508D+02 0.961790865107429D+02 -.931811701290457D+01
 0.552822972142410D+03 -.709626203793447D+01 -.130031617385321D+03 0.537265911884995D+03
0.160150653107D-03 0.000000000000D+00 0.000000000000D+00 0.296254373459D-02 0.113153907934D-05  5 21 2 25 24 1 2 0.19081427D-01 0.11419844D+00 0.37487054D+05 0.37487054D+05 0.37487054D+05 0.12048724D+01  1  2  1  3  5  1       -1 0.288490593398D+00 0.100000000000D+01
  </mgrwgt>
  </event>
  <event>
  4     66 0.45252658E-03 0.94543186E+02 0.75467711E-02 0.11917646E+00
       -1 -1    0    0    0  501 0.00000000E+00 0.00000000E+00 0.66448646E+01 0.66525653E+01 0.32000000E+00 0.0000E+00 0.9000E+01
        2 -1    0    0  501    0 0.00000000E+00 0.00000000E+00 -.31594878E+04 0.31594878E+04 0.32000000E+00 0.0000E+00 0.9000E+01
       25  1    1    2    0    0 0.37080014E+02 0.72793587E+02 -.10987169E+04 0.11088181E+04 0.12500000E+03 0.0000E+00 0.9000E+01
       24  1    1    2    0    0 -.37080014E+02 -.72793587E+02 -.20541261E+04 0.20573223E+04 0.80419002E+02 0.0000E+00 0.9000E+01
#aMCatNLO 1  0  0  1  2 0.47197009D+02 0.00000000D+00  -5  5  0 0.00000000D+00 0.00000000D+00 0.00000000D+00 0.00000000D+00 0.00000000D+00
  <mgrwgt>
 0.3653736213D+00    9    2    0
 0.144936486532341D+03 0.000000000000000D+00 0.000000000000000D+00 0.144936486532341D+03
 0.144936486532341D+03 0.000000000000000D+00 0.000000000000000D+00 -.144936486532341D+03
 0.160732688483853D+03 0.370800135097992D+02 0.727935865663129D+02 0.594656497498606D+02
 0.129140284580830D+03 -.370800135097992D+02 -.727935865663129D+02 -.594656497498606D+02
 0.000000000000000D+00 0.000000000000000D+00 -.000000000000000D+00 0.000000000000000D+00
 0.222266915898533D+03 0.000000000000000D+00 0.000000000000000D+00 0.222266915898533D+03
 0.154228731928322D+03 0.000000000000000D+00 0.000000000000000D+00 -.154228731928322D+03
 0.173632917709897D+03 0.329242027666721D+02 0.995149410111757D+02 0.594656497498606D+02
 0.120057222062528D+03 -.401772748790468D+02 -.528785750386778D+02 -.594656497498606D+02
 0.828055080544303D+02 0.725307211237473D+01 -.466363659724979D+02 0.680381839702109D+02
0.946721969487D-03 0.000000000000D+00 0.000000000000D+00 0.207801134141D-02 0.000000000000D+00  5 -1 2 25 24 21 0 0.10228805D-02 0.48607564D+00 0.17419031D+05 0.17419031D+05 0.17419031D+05 0.12404874D+01  1  2  2  1  5  1       -1 0.332723960121D+00 0.100000000000D+01
-.520349787160D-04 0.000000000000D+00 -.363566164045D-05 0.207801134141D-02 0.000000000000D+00  5 -1 2 25 24 21 2 0.10228805D-02 0.48607564D+00 0.17419031D+05 0.17419031D+05 0.17419031D+05 0.12404874D+01  1  2  3  1  5  1       -1 -.281411415151D-01 0.100000000000D+01
0.652092051503D-04 0.000000000000D+00 0.000000000000D+00 0.207801134141D-02 0.000000000000D+00  5 -1 2 25 24 21 2 0.10228805D-02 0.48607564D+00 0.17419031D+05 0.17419031D+05 0.17419031D+05 0.12404874D+01  1  2 15  1  5  1       -1 0.352659214148D-01 0.100000000000D+01
0.108925994075D-02 0.000000000000D+00 0.000000000000D+00 0.207801134141D-02 0.000000000000D+00  5 -1 2 25 24 21 2 0.15872226D-02 0.48607564D+00 0.24747247D+05 0.24747247D+05 0.24747247D+05 0.12237711D+01  1  2 12  1  5  1       -1 0.304081443629D+00 0.100000000000D+01
-.120349767560D-02 0.000000000000D+00 0.000000000000D+00 0.207801134141D-02 0.000000000000D+00  5 -1 2 25 24 21 2 0.10228805D-02 0.48607564D+00 0.17419031D+05 0.17419031D+05 0.17419031D+05 0.12404874D+01  1  2  4  1  5  1       -1 -.650865998946D+00 0.100000000000D+01
-.135416875251D-02 0.000000000000D+00 -.312313179480D-03 0.207801134141D-02 0.000000000000D+00  5 -1 2 25 24 21 2 0.17171522D-02 0.48607564D+00 0.17419031D+05 0.17419031D+05 0.17419031D+05 0.12404874D+01  1  2  5  1  5  1       -1 -.348976520545D+00 0.100000000000D+01
0.136618535619D-02 0.000000000000D+00 0.274630327511D-03 0.207801134141D-02 0.000000000000D+00  5 -1 2 25 24 21 2 0.10228805D-02 0.48607564D+00 0.17419031D+05 0.17419031D+05 0.17419031D+05 0.12404874D+01  1  2  6  1  5  1       -1 0.738849450752D+00 0.100000000000D+01
0.555901709585D-04 0.000000000000D+00 0.000000000000D+00 0.207801134141D-02 0.000000000000D+00  5 21 2 25 24 1 2 0.15872226D-02 0.48607564D+00 0.24747247D+05 0.24747247D+05 0.24747247D+05 0.12237711D+01  1  2 12  3  5  1       -1 0.333802425534D+00 0.100000000000D+01
-.638969940717D-04 0.000000000000D+00 -.181152664740D-04 0.207801134141D-02 0.000000000000D+00  5 21 2 25 24 1 2 0.17171522D-02 0.48607564D+00 0.17419031D+05 0.17419031D+05 0.17419031D+05 0.12404874D+01  1  2  5  3  5  1       -1 -.351365919095D+00 0.100000000000D+01
  </mgrwgt>
  </event>
  <event>
  4     66 0.45252658E-03 0.13189466E+03 0.75467711E-02 0.11308268E+00
       -1 -1    0    0    0  501 0.00000000E+00 0.00000000E+00 0.83325004E+02 0.83325619E+02 0.32000000E+00 0.0000E+00 0.9000E+01
        2 -1    0    0  501    0 0.00000000E+00 0.00000000E+00 -.21322517E+03 0.21322541E+03 0.32000000E+00 0.0000E+00 0.9000E+01
       25  1    1    2    0    0 -.70580663E+02 0.40862792E+02 -.52078043E+02 0.15807758E+03 0.12500000E+03 0.0000E+00 0.9000E+01
       24  1    1    2    0    0 0.70580663E+02 -.40862792E+02 -.77822118E+02 0.13847345E+03 0.80419002E+02 0.0000E+00 0.9000E+01
#aMCatNLO 1  0  0  1  2 0.14653084D+03 0.00000000D+00  -5  5  0 0.00000000D+00 0.00000000D+00 0.00000000D+00 0.00000000D+00 0.00000000D+00
  <mgrwgt>
 0.2834406044D+00    5    2    0
 0.133293340277213D+03 0.000000000000000D+00 0.000000000000000D+00 0.133293340277213D+03
 0.133293340277213D+03 0.000000000000000D+00 0.000000000000000D+00 -.133293340277213D+03
 0.150469337267355D+03 -.705806625213316D+02 0.408627922253476D+02 0.190951236517319D+02
 0.116117343287071D+03 0.705806625213316D+02 -.408627922253476D+02 -.190951236517319D+02
 0.000000000000000D+00 -.000000000000000D+00 0.000000000000000D+00 0.000000000000000D+00
 0.294828195190738D+03 0.000000000000000D+00 0.000000000000000D+00 0.294828195190738D+03
 0.189710885930473D+03 0.000000000000000D+00 0.000000000000000D+00 -.189710885930473D+03
 0.135709468621631D+03 -.414759842664726D+02 -.265928346630792D+02 0.190951236517319D+02
 0.168493992113202D+03 0.995259274188449D+02 -.107948948341413D+03 -.190951236517319D+02
 0.180335620386378D+03 -.580499431523723D+02 0.134541783004492D+03 0.105117309260266D+03
0.394871243704D-03 0.000000000000D+00 0.000000000000D+00 0.253043591763D-02 0.000000000000D+00  5 -1 2 25 24 21 0 0.12819297D-01 0.32803937D-01 0.17396201D+05 0.17396201D+05 0.17396201D+05 0.12405512D+01  1  2  2  1  5  1       -1 0.279918864124D+00 0.100000000000D+01
-.219343233205D-04 0.000000000000D+00 -.151640954781D-05 0.253043591763D-02 0.000000000000D+00  5 -1 2 25 24 21 2 0.12819297D-01 0.32803937D-01 0.17396201D+05 0.17396201D+05 0.17396201D+05 0.12405512D+01  1  2  3  1  5  1       -1 -.239293144062D-01 0.100000000000D+01
0.272826896506D-04 0.000000000000D+00 0.000000000000D+00 0.253043591763D-02 0.000000000000D+00  5 -1 2 25 24 21 2 0.12819297D-01 0.32803937D-01 0.17396201D+05 0.17396201D+05 0.17396201D+05 0.12405512D+01  1  2 15  1  5  1       -1 0.297641303519D-01 0.100000000000D+01
-.305357684835D-04 0.000000000000D+00 -.115200421743D-03 0.253043591763D-02 0.000000000000D+00  5 -1 2 25 24 21 2 0.39310347D-01 0.32803937D-01 0.17396201D+05 0.17396201D+05 0.17396201D+05 0.12405512D+01  1  2  5  1  5  1       -1 -.535810220809D-02 0.100000000000D+01
0.160226608467D-05 0.000000000000D+00 -.147484586945D-04 0.253043591763D-02 0.000000000000D+00  5 21 2 25 24 1 2 0.39310347D-01 0.32803937D-01 0.17396201D+05 0.17396201D+05 0.17396201D+05 0.12405512D+01  1  2  5  3  5  1       -1 0.304502652439D-02 0.100000000000D+01
  </mgrwgt>
  </event>
  <event>
  4     66 0.45252658E-03 0.15126688E+03 0.75467711E-02 0.11466521E+00
       -1 -1    0    0    0  501 0.00000000E+00 0.00000000E+00 0.13765395E+03 0.13765432E+03 0.32000000E+00 0.0000E+00 0.9000E+01
        2 -1    0    0  501    0 0.00000000E+00 0.00000000E+00 -.24506074E+03 0.24506095E+03 0.32000000E+00 0.0000E+00 0.9000E+01
       25  1    1    2    0    0 -.14269923E+03 0.39385878E+02 -.25598517E+02 0.19543439E+03 0.12500000E+03 0.0000E+00 0.9000E+01
       24  1    1    2    0    0 0.14269923E+03 -.39385878E+02 -.81808273E+02 0.18728088E+03 0.80419002E+02 0.0000E+00 0.9000E+01
#aMCatNLO 1  0  0  1  2 0.42659691D+02 0.00000000D+00  -5  5  0 0.00000000D+00 0.00000000D+00 0.00000000D+00 0.00000000D+00 0.00000000D+00
  <mgrwgt>
 0.5056407254D+00    9    2    0
 0.183667333046942D+03 0.000000000000000D+00 0.000000000000000D+00 0.183667333046942D+03
 0.183667333046942D+03 0.000000000000000D+00 0.000000000000000D+00 -.183667333046942D+03
 0.196132511113323D+03 -.142699228076078D+03 0.393858775995423D+02 0.304736749970077D+02
 0.171202154980562D+03 0.142699228076078D+03 -.393858775995423D+02 -.304736749970077D+02
 0.000000000000000D+00 -.000000000000000D+00 -.000000000000000D+00 0.000000000000000D+00
 0.206873764927069D+03 0.000000000000000D+00 0.000000000000000D+00 0.206873764927069D+03
 0.205608165574257D+03 0.000000000000000D+00 0.000000000000000D+00 -.205608165574257D+03
 0.182514326309382D+03 -.121460354393438D+03 0.447796466150078D+02 0.304736749970077D+02
 0.187289143374611D+03 0.162807547094179D+03 -.342792213006453D+02 -.304736749970077D+02
 0.426784608173323D+02 -.413471927007412D+02 -.105004253143624D+02 0.126559935281260D+01
0.116464213894D-02 0.000000000000D+00 0.000000000000D+00 0.216164575876D-02 0.000000000000D+00  5 -1 2 25 24 21 0 0.21177575D-01 0.37701697D-01 0.32800624D+05 0.32800624D+05 0.32800624D+05 0.12108512D+01  1  2  2  1  5  1       -1 0.326054940220D+00 0.100000000000D+01
-.646868674727D-04 0.000000000000D+00 -.447253247086D-05 0.216164575876D-02 0.000000000000D+00  5 -1 2 25 24 21 2 0.21177575D-01 0.37701697D-01 0.32800624D+05 0.32800624D+05 0.32800624D+05 0.12108512D+01  1  2  3  1  5  1       -1 -.265519231278D-01 0.100000000000D+01
0.798656308180D-04 0.000000000000D+00 0.000000000000D+00 0.216164575876D-02 0.000000000000D+00  5 -1 2 25 24 21 2 0.21177575D-01 0.37701697D-01 0.32800624D+05 0.32800624D+05 0.32800624D+05 0.12108512D+01  1  2 15  1  5  1       -1 0.327823277410D-01 0.100000000000D+01
0.819412474625D-03 0.000000000000D+00 0.000000000000D+00 0.216164575876D-02 0.000000000000D+00  5 -1 2 25 24 21 2 0.24970019D-01 0.37701697D-01 0.41494778D+05 0.41494778D+05 0.41494778D+05 0.12003856D+01  1  2 12  1  5  1       -1 0.253163190431D+00 0.100000000000D+01
-.686730043792D-03 0.000000000000D+00 0.000000000000D+00 0.216164575876D-02 0.000000000000D+00  5 -1 2 25 24 21 2 0.21177575D-01 0.37701697D-01 0.32800624D+05 0.32800624D+05 0.32800624D+05 0.12108512D+01  1  2  4  1  5  1       -1 -.281881068673D+00 0.100000000000D+01
-.219691911890D-02 0.000000000000D+00 -.676957300223D-03 0.216164575876D-02 0.000000000000D+00  5 -1 2 25 24 21 2 0.26565260D-01 0.37701697D-01 0.32800624D+05 0.32800624D+05 0.32800624D+05 0.12108512D+01  1  2  5  1  5  1       -1 -.621060013875D+00 0.100000000000D+01
0.230784658072D-02 0.000000000000D+00 0.659932440222D-03 0.216164575876D-02 0.000000000000D+00  5 -1 2 25 24 21 2 0.21177575D-01 0.37701697D-01 0.32800624D+05 0.32800624D+05 0.32800624D+05 0.12108512D+01  1  2  6  1  5  1       -1 0.947298383678D+00 0.100000000000D+01
0.201513426954D-04 0.000000000000D+00 0.000000000000D+00 0.216164575876D-02 0.000000000000D+00  5 21 2 25 24 1 2 0.24970019D-01 0.37701697D-01 0.41494778D+05 0.41494778D+05 0.41494778D+05 0.12003856D+01  1  2 12  3  5  1       -1 0.741921124288D-01 0.100000000000D+01
-.594824211784D-04 0.000000000000D+00 -.213003750563D-04 0.216164575876D-02 0.000000000000D+00  5 21 2 25 24 1 2 0.26565260D-01 0.37701697D-01 0.32800624D+05 0.32800624D+05 0.32800624D+05 0.12108512D+01  1  2  5  3  5  1       -1 -.198357223408D+00 0.100000000000D+01
  </mgrwgt>
  </event>
  <event>
  4     66 0.45252658E-03 0.12666087E+03 0.75467711E-02 0.11209535E+00
       -1 -1    0    0    0  501 0.00000000E+00 0.00000000E+00 0.23246095E+04 0.23246095E+04 0.32000000E+00 0.0000E+00 0.9000E+01
        2 -1    0    0  501    0 0.00000000E+00 0.00000000E+00 -.75170409E+01 0.75238490E+01 0.32000000E+00 0.0000E+00 0.9000E+01
       25  1    1    2    0    0 0.63350082E+02 0.36198828E+02 0.16416938E+04 0.16480617E+04 0.12500000E+03 0.0000E+00 0.9000E+01
       24  1    1    2    0    0 -.63350082E+02 -.36198828E+02 0.67539862E+03 0.68407171E+03 0.80419002E+02 0.0000E+00 0.9000E+01
#aMCatNLO 1  0  0  2  2 0.17100313D+03 0.00000000D+00  -5  5  0 0.00000000D+00 0.00000000D+00 0.00000000D+00 0.00000000D+00 0.00000000D+00
  <mgrwgt>
 0.1618703338D+00    3    2    0
 0.132220077855524D+03 0.000000000000000D+00 0.000000000000000D+00 0.132220077855524D+03
 0.132220077855524D+03 0.000000000000000D+00 0.000000000000000D+00 -.132220077855524D+03
 0.149535496576643D+03 0.633500816514742D+02 0.361988284009111D+02 0.375802702701310D+02
 0.114904659134404D+03 -.633500816514742D+02 -.361988284009111D+02 -.375802702701310D+02
 0.000000000000000D+00 0.000000000000000D+00 0.000000000000000D+00 0.000000000000000D+00
 0.264188417970782D+03 0.000000000000000D+00 0.000000000000000D+00 0.264188417970782D+03
 0.225951313663442D+03 0.000000000000000D+00 0.000000000000000D+00 -.225951313663442D+03
 0.131058082296926D+03 -.117236388775439D+02 0.122495438315143D+01 0.375802702701310D+02
 0.183855662099863D+03 -.143284372919084D+03 -.734370498823111D+02 -.375802702701310D+02
 0.175225987237435D+03 0.155008011796628D+03 0.722120954991597D+02 0.382371043073400D+02
0.702714851737D-02 0.000000000000D+00 0.000000000000D+00 0.240517995602D-02 0.000000000000D+00  5 -1 2 25 24 21 0 0.35763276D+00 0.11569932D-02 0.16042976D+05 0.16042976D+05 0.16042976D+05 0.12445081D+01  1  2  2  2  5  2        2 0.158502921625D+00 0.100000000000D+01
-.389521334951D-03 0.000000000000D+00 -.269861005974D-04 0.240517995602D-02 0.000000000000D+00  5 -1 2 25 24 21 2 0.35763276D+00 0.11569932D-02 0.16042976D+05 0.16042976D+05 0.16042976D+05 0.12445081D+01  1  2  3  2  5  2        2 -.136077036754D-01 0.100000000000D+01
0.485913710457D-03 0.000000000000D+00 0.000000000000D+00 0.240517995602D-02 0.000000000000D+00  5 -1 2 25 24 21 2 0.35763276D+00 0.11569932D-02 0.16042976D+05 0.16042976D+05 0.16042976D+05 0.12445081D+01  1  2 15  2  5  2        2 0.169751158420D-01 0.100000000000D+01
  </mgrwgt>
  </event>
  <event>
  4     66 0.45252658E-03 0.55776010E+02 0.75467711E-02 0.12344057E+00
       -1 -1    0    0    0  501 0.00000000E+00 0.00000000E+00 0.60514654E+02 0.60515500E+02 0.32000000E+00 0.0000E+00 0.9000E+01
        2 -1    0    0  501    0 0.00000000E+00 0.00000000E+00 -.23077626E+03 0.23077648E+03 0.32000000E+00 0.0000E+00 0.9000E+01
       25  1    1    2    0    0 -.16843124E+02 0.14573604E+02 -.33887427E+02 0.13141324E+03 0.12500000E+03 0.0000E+00 0.9000E+01
       24  1    1    2    0    0 0.16843124E+02 -.14573604E+02 -.13637418E+03 0.15987874E+03 0.80419002E+02 0.0000E+00 0.9000E+01
#aMCatNLO 1  0  0  1  2 0.37063999D+02 0.00000000D+00  -5  5  0 0.00000000D+00 0.00000000D+00 0.00000000D+00 0.00000000D+00 0.00000000D+00
  <mgrwgt>
 0.3533523447D+00    9    2    0
 0.118175720356871D+03 0.000000000000000D+00 0.000000000000000D+00 0.118175720356871D+03
 0.118175720356871D+03 0.000000000000000D+00 0.000000000000000D+00 -.118175720356871D+03
 0.137548955438439D+03 -.168431243272661D+02 0.145736035641702D+02 0.529021207916695D+02
 0.988024852753020D+02 0.168431243272661D+02 -.145736035641702D+02 -.529021207916695D+02
 0.000000000000000D+00 -.000000000000000D+00 -.000000000000000D+00 0.000000000000000D+00
 0.149635465199572D+03 0.000000000000000D+00 0.000000000000000D+00 0.149635465199572D+03
 0.131061886254708D+03 0.000000000000000D+00 0.000000000000000D+00 -.131061886254708D+03
 0.137874055577578D+03 0.240122731113782D+01 0.240801770041848D+02 0.529021207916695D+02
 0.101365873317804D+03 0.308292842542732D+02 -.766453959630205D+01 -.529021207916695D+02
 0.414574225588989D+02 -.332305115654111D+02 -.164156374078827D+02 0.185735789448641D+02
0.265005564794D-03 0.000000000000D+00 0.000000000000D+00 0.233293729737D-02 0.000000000000D+00  5 -1 2 25 24 21 0 0.93100289D-02 0.35504122D-01 0.11068638D+05 0.11068638D+05 0.11068638D+05 0.12631572D+01  1  2  2  1  5  1       -1 0.276776566832D+00 0.100000000000D+01
-.144806768788D-04 0.000000000000D+00 -.101769114638D-05 0.233293729737D-02 0.000000000000D+00  5 -1 2 25 24 21 2 0.93100289D-02 0.35504122D-01 0.11068638D+05 0.11068638D+05 0.11068638D+05 0.12631572D+01  1  2  3  1  5  1       -1 -.241311476934D-01 0.100000000000D+01
0.181322120297D-04 0.000000000000D+00 0.000000000000D+00 0.233293729737D-02 0.000000000000D+00  5 -1 2 25 24 21 2 0.93100289D-02 0.35504122D-01 0.11068638D+05 0.11068638D+05 0.11068638D+05 0.12631572D+01  1  2 15  1  5  1       -1 0.302162039909D-01 0.100000000000D+01
0.178539280228D-03 0.000000000000D+00 0.000000000000D+00 0.233293729737D-02 0.000000000000D+00  5 -1 2 25 24 21 2 0.12191304D-01 0.35504122D-01 0.15731575D+05 0.15731575D+05 0.15731575D+05 0.12454718D+01  1  2 12  1  5  1       -1 0.194262676098D+00 0.100000000000D+01
-.198588658856D-03 0.000000000000D+00 0.000000000000D+00 0.233293729737D-02 0.000000000000D+00  5 -1 2 25 24 21 2 0.93100289D-02 0.35504122D-01 0.11068638D+05 0.11068638D+05 0.11068638D+05 0.12631572D+01  1  2  4  1  5  1       -1 -.330935652885D+00 0.100000000000D+01
-.324380534278D-03 0.000000000000D+00 -.114167608344D-03 0.233293729737D-02 0.000000000000D+00  5 -1 2 25 24 21 2 0.13027741D-01 0.35504122D-01 0.11068638D+05 0.11068638D+05 0.11068638D+05 0.12631572D+01  1  2  5  1  5  1       -1 -.323858895262D+00 0.100000000000D+01
0.349008343631D-03 0.000000000000D+00 0.108013307465D-03 0.233293729737D-02 0.000000000000D+00  5 -1 2 25 24 21 2 0.93100289D-02 0.35504122D-01 0.11068638D+05 0.11068638D+05 0.11068638D+05 0.12631572D+01  1  2  6  1  5  1       -1 0.581600705331D+00 0.100000000000D+01
0.638695906254D-05 0.000000000000D+00 0.000000000000D+00 0.233293729737D-02 0.000000000000D+00  5 21 2 25 24 1 2 0.12191304D-01 0.35504122D-01 0.15731575D+05 0.15731575D+05 0.15731575D+05 0.12454718D+01  1  2 12  3  5  1       -1 0.100448973834D+00 0.100000000000D+01
-.105657259828D-04 0.000000000000D+00 -.478875457027D-05 0.233293729737D-02 0.000000000000D+00  5 21 2 25 24 1 2 0.13027741D-01 0.35504122D-01 0.11068638D+05 0.11068638D+05 0.11068638D+05 0.12631572D+01  1  2  5  3  5  1       -1 -.151027085585D+00 0.100000000000D+01
  </mgrwgt>
  </event>
  <event>
  4     66 0.45252658E-03 0.68954703E+02 0.75467711E-02 0.11866336E+00
       -1 -1    0    0    0  501 0.00000000E+00 0.00000000E+00 0.36684065E+02 0.36685460E+02 0.32000000E+00 0.0000E+00 0.9000E+01
        2 -1    0    0  501    0 0.00000000E+00 0.00000000E+00 -.50941113E+03 0.50941123E+03 0.32000000E+00 0.0000E+00 0.9000E+01
       25  1    1    2    0    0 0.56559184E+01 0.88743110E+02 -.25765610E+03 0.29986496E+03 0.12500000E+03 0.0000E+00 0.9000E+01
       24  1    1    2    0    0 -.56559184E+01 -.88743110E+02 -.21507096E+03 0.24623173E+03 0.80419002E+02 0.0000E+00 0.9000E+01
#aMCatNLO 1  0  0  1  2 0.46462955D+02 0.00000000D+00  -5  5  0 0.00000000D+00 0.00000000D+00 0.00000000D+00 0.00000000D+00 0.00000000D+00
  <mgrwgt>
 0.1887789166D+00    7    2    0
 0.136702887720538D+03 0.000000000000000D+00 0.000000000000000D+00 0.136702887720538D+03
 0.136702887720538D+03 0.000000000000000D+00 0.000000000000000D+00 -.136702887720538D+03
 0.153450493053409D+03 0.565591835052149D+01 0.887431099643828D+02 0.383729589632741D+01
 0.119955282387666D+03 -.565591835052149D+01 -.887431099643828D+02 -.383729589632741D+01
 0.000000000000000D+00 0.000000000000000D+00 0.000000000000000D+00 0.000000000000000D+00
 0.409126789756321D+03 0.000000000000000D+00 0.000000000000000D+00 0.409126789756321D+03
 0.140658298007129D+03 0.000000000000000D+00 0.000000000000000D+00 -.140658298007129D+03
 0.141233909217546D+03 -.329083625051297D+01 0.655474078041721D+02 0.383729589632741D+01
 0.136091755388981D+03 -.134296247145358D+02 -.108897521875911D+03 -.383729589632741D+01
 0.272459423156922D+03 0.167204609650487D+02 0.433501140717390D+02 0.268468491749193D+03
0.278185178143D-03 0.000000000000D+00 0.000000000000D+00 0.253499272129D-02 0.000000000000D+00  5 -1 2 25 24 21 0 0.56438174D-02 0.78371058D-01 0.18672730D+05 0.18672730D+05 0.18672730D+05 0.12371228D+01  1  2  2  1  5  1       -1 0.269830258899D+00 0.100000000000D+01
-.154547291105D-04 0.000000000000D+00 -.106830433191D-05 0.253499272129D-02 0.000000000000D+00  5 -1 2 25 24 21 2 0.56438174D-02 0.78371058D-01 0.18672730D+05 0.18672730D+05 0.18672730D+05 0.12371228D+01  1  2  3  1  5  1       -1 -.229426545841D-01 0.100000000000D+01
0.191981614285D-04 0.000000000000D+00 0.000000000000D+00 0.253499272129D-02 0.000000000000D+00  5 -1 2 25 24 21 2 0.56438174D-02 0.78371058D-01 0.18672730D+05 0.18672730D+05 0.18672730D+05 0.12371228D+01  1  2 15  1  5  1       -1 0.284998063153D-01 0.100000000000D+01
0.168441205510D-02 0.000000000000D+00 0.000000000000D+00 0.253499272129D-02 0.000000000000D+00  5 -1 2 25 24 21 2 0.16774549D-01 0.78371058D-01 0.26192569D+05 0.26192569D+05 0.26192569D+05 0.12211338D+01  1  2 12  1  5  1       -1 0.463286239813D+00 0.100000000000D+01
-.182640439014D-02 0.000000000000D+00 -.816271595277D-04 0.253499272129D-02 0.000000000000D+00  5 -1 2 25 24 21 2 0.17227185D-01 0.78371058D-01 0.18672730D+05 0.18672730D+05 0.18672730D+05 0.12371228D+01  1  2  5  1  5  1       -1 -.492453449385D+00 0.100000000000D+01
0.208398358038D-03 0.000000000000D+00 0.000000000000D+00 0.253499272129D-02 0.000000000000D+00  5 21 2 25 24 1 2 0.16774549D-01 0.78371058D-01 0.26192569D+05 0.26192569D+05 0.26192569D+05 0.12211338D+01  1  2 12  3  5  1       -1 0.761493170682D+00 0.100000000000D+01
-.228717006444D-03 0.000000000000D+00 -.103982456119D-04 0.253499272129D-02 0.000000000000D+00  5 21 2 25 24 1 2 0.17227185D-01 0.78371058D-01 0.18672730D+05 0.18672730D+05 0.18672730D+05 0.12371228D+01  1  2  5  3  5  1       -1 -.818934455140D+00 0.100000000000D+01
  </mgrwgt>
  </event>
  <event>
  5     66 0.45252658E-03 0.10571221E+03 0.75467711E-02 0.11922699E+00
       21 -1    0    0  502  501 0.00000000E+00 0.00000000E+00 0.27806532E+02 0.27816645E+02 0.75000000E+00 0.0000E+00 0.9000E+01
        2 -1    0    0  501    0 0.00000000E+00 0.00000000E+00 -.17727209E+04 0.17727209E+04 0.32000000E+00 0.0000E+00 0.9000E+01
       25  1    1    2    0    0 -.43666308E+02 -.51942072E+02 -.76930052E+03 0.78233817E+03 0.12500000E+03 0.0000E+00 0.9000E+01
       24  1    1    2    0    0 -.28989364E+02 0.62967946E+01 -.89927666E+03 0.90335251E+03 0.80419002E+02 0.0000E+00 0.9000E+01
        1  1    1    2  502    0 0.72655672E+02 0.45645277E+02 -.76337166E+02 0.11484687E+03 0.32000000E+00 0.0000E+00 0.9000E+01
#aMCatNLO 2  0  0  1  2 0.85804067D+02 0.00000000D+00  -5  5  0 0.00000000D+00 0.00000000D+00 0.00000000D+00 0.00000000D+00 0.00000000D+00
  <mgrwgt>
 0.5082337986D+00    2    2    0
 0.111849158320568D+03 0.000000000000000D+00 0.000000000000000D+00 0.111849158320568D+03
 0.111849158320568D+03 0.000000000000000D+00 0.000000000000000D+00 -.111849158320568D+03
 0.132318208296301D+03 0.877919345395963D-01 -.244539493877648D+02 0.358483597764263D+02
 0.913801083448349D+02 -.877919345395963D-01 0.244539493877648D+02 -.358483597764263D+02
 0.000000000000000D+00 0.000000000000000D+00 0.000000000000000D+00 0.000000000000000D+00
 0.389363401951529D+03 0.000000000000000D+00 0.000000000000000D+00 0.389363401951529D+03
 0.126622794257213D+03 0.000000000000000D+00 0.000000000000000D+00 -.126622794257213D+03
 0.146679344675167D+03 -.436663075222573D+02 -.519420719941743D+02 0.358483597764263D+02
 0.929104606637732D+02 -.289893640073848D+02 0.629679459497108D+01 -.358483597764263D+02
 0.276396390869801D+03 0.726556715296421D+02 0.456452773992033D+02 0.262740607694316D+03
-.359682807385D-05 0.000000000000D+00 0.000000000000D+00 0.270587002178D-02 0.000000000000D+00  5 21 2 25 24 1 2 0.41214944D-02 0.24090664D+00 0.24609985D+05 0.24609985D+05 0.24609985D+05 0.12240304D+01  1  2 13  3  5  1       -1 -.327207973021D-01 0.100000000000D+01
0.809700925679D-04 0.000000000000D+00 0.000000000000D+00 0.270587002178D-02 0.102973263046D-05  5 21 2 25 24 1 2 0.42787052D-02 0.27272688D+00 0.24609985D+05 0.24609985D+05 0.24609985D+05 0.12240304D+01  1  2  1  3  5  1       -1 0.540954595870D+00 0.100000000000D+01
  </mgrwgt>
  </event>
  <event>
  5     66 0.45252658E-03 0.12343937E+03 0.75467711E-02 0.11361164E+00
       -3 -1    0    0    0  501 0.00000000E+00 0.00000000E+00 0.15405875E+03 0.15405956E+03 0.50000000E+00 0.0000E+00 0.9000E+01
        4 -1    0    0  502    0 0.00000000E+00 0.00000000E+00 -.37870444E+03 0.37870761E+03 0.15500000E+01 0.0000E+00 0.9000E+01
       25  1    1    2    0    0 0.74833256E+02 0.94236266E+01 -.15878782E+03 0.21570209E+03 0.12500000E+03 0.0000E+00 0.9000E+01
       24  1    1    2    0    0 0.28225684E+02 -.11327665E+03 0.26258897E+02 0.14417016E+03 0.80419002E+02 0.0000E+00 0.9000E+01
       21  1    1    2  502  501 -.10305894E+03 0.10385302E+03 -.92116764E+02 0.17289493E+03 0.75000000E+00 0.0000E+00 0.9000E+01
#aMCatNLO 2  0  0  2  2 0.14630993D+03 0.00000000D+00  -5  5  0 0.00000000D+00 0.00000000D+00 0.00000000D+00 0.00000000D+00 0.00000000D+00
  <mgrwgt>
 0.3238080085D-02    1    2    0
 0.150447269003365D+03 0.000000000000000D+00 0.000000000000000D+00 0.150447269003365D+03
 0.150447269003365D+03 0.000000000000000D+00 0.000000000000000D+00 -.150447269003365D+03
 0.165664866681101D+03 0.205405850756522D+02 0.641346283245023D+02 -.853503477842643D+02
 0.135229671325629D+03 -.205405850756522D+02 -.641346283245023D+02 0.853503477842643D+02
 0.000000000000000D+00 -.000000000000000D+00 0.000000000000000D+00 -.000000000000000D+00
 0.226729856293443D+03 0.000000000000000D+00 0.000000000000000D+00 0.226729856293443D+03
 0.257325327772842D+03 0.000000000000000D+00 0.000000000000000D+00 -.257325327772842D+03
 0.169110918713558D+03 0.748332561358068D+02 0.942362655039769D+01 -.853503477842643D+02
 0.165469591950208D+03 0.282256844734425D+02 -.113276647085393D+03 0.853503477842643D+02
 0.149474673402519D+03 -.103058940609249D+03 0.103853020534995D+03 -.305954714793985D+02
0.231152380429D-03 0.000000000000D+00 0.000000000000D+00 0.169779647361D-02 0.793446362831D-06  5 -3 4 25 24 21 2 0.23701560D-01 0.58262298D-01 0.47102255D+05 0.47102255D+05 0.47102255D+05 0.11948582D+01  1  2  1  2  5  2        4 0.323808008492D-02 0.100000000000D+01
  </mgrwgt>
  </event>
  <event>
  4     66 0.45252658E-03 0.13009466E+03 0.75467711E-02 0.12057576E+00
       -1 -1    0    0    0  501 0.00000000E+00 0.00000000E+00 0.29304990E+02 0.29306737E+02 0.32000000E+00 0.0000E+00 0.9000E+01
        2 -1    0    0  501    0 0.00000000E+00 0.00000000E+00 -.61699683E+03 0.61699691E+03 0.32000000E+00 0.0000E+00 0.9000E+01
       25  1    1    2    0    0 0.15728740E+02 -.77076708E+02 -.41209436E+03 0.43776132E+03 0.12500000E+03 0.0000E+00 0.9000E+01
       24  1    1    2    0    0 -.15728740E+02 0.77076708E+02 -.17559748E+03 0.20854233E+03 0.80419002E+02 0.0000E+00 0.9000E+01
#aMCatNLO 1  0  0  2  2 0.29719677D+02 0.00000000D+00  -5  5  0 0.00000000D+00 0.00000000D+00 0.00000000D+00 0.00000000D+00 0.00000000D+00
  <mgrwgt>
 0.2878377184D+00    4    2    0
 0.134468127497958D+03 0.000000000000000D+00 0.000000000000000D+00 0.134468127497958D+03
 0.134468127497958D+03 0.000000000000000D+00 0.000000000000000D+00 -.134468127497958D+03
 0.151494065569730D+03 0.157287397933290D+02 -.770767079383017D+02 -.337229853475814D+02
 0.117442189426186D+03 -.157287397933290D+02 0.770767079383017D+02 0.337229853475814D+02
 0.000000000000000D+00 -.000000000000000D+00 0.000000000000000D+00 0.000000000000000D+00
 0.172139064066261D+03 0.000000000000000D+00 0.000000000000000D+00 0.172139064066261D+03
 0.141278580094935D+03 0.000000000000000D+00 0.000000000000000D+00 -.141278580094935D+03
 0.154634460084063D+03 0.325651627149178D+02 -.780326001238426D+02 -.337229853475814D+02
 0.115938946696774D+03 -.289326978511816D+01 0.763479708701172D+02 0.337229853475814D+02
 0.428442373803579D+02 -.296718929297997D+02 0.168462925372540D+01 0.308604839713257D+02
0.357355344160D-03 0.000000000000D+00 0.000000000000D+00 0.241918009607D-02 0.000000000000D+00  5 -1 2 25 24 21 0 0.45086008D-02 0.94922730D-01 0.16924620D+05 0.16924620D+05 0.16924620D+05 0.12418897D+01  1  2  2  2  5  2        2 0.388527830151D+00 0.100000000000D+01
-.198266844320D-04 0.000000000000D+00 -.137233861540D-05 0.241918009607D-02 0.000000000000D+00  5 -1 2 25 24 21 2 0.45086008D-02 0.94922730D-01 0.16924620D+05 0.16924620D+05 0.16924620D+05 0.12418897D+01  1  2  3  2  5  2        2 -.332458903190D-01 0.100000000000D+01
0.247178528084D-04 0.000000000000D+00 0.000000000000D+00 0.241918009607D-02 0.000000000000D+00  5 -1 2 25 24 21 2 0.45086008D-02 0.94922730D-01 0.16924620D+05 0.16924620D+05 0.16924620D+05 0.12418897D+01  1  2 15  2  5  2        2 0.414475262471D-01 0.100000000000D+01
-.649392240230D-04 0.000000000000D+00 0.000000000000D+00 0.241918009607D-02 0.000000000000D+00  5 -1 2 25 24 21 2 0.45086008D-02 0.94922730D-01 0.16924620D+05 0.16924620D+05 0.16924620D+05 0.12418897D+01  1  2  4  2  5  2        2 -.108891747718D+00 0.100000000000D+01
  </mgrwgt>
  </event>
  <event>
  4     66 0.45252658E-03 0.11115263E+03 0.75467711E-02 0.11138326E+00
       -1 -1    0    0    0  501 0.00000000E+00 0.00000000E+00 0.13084469E+03 0.13084508E+03 0.32000000E+00 0.0000E+00 0.9000E+01
        2 -1    0    0  501    0 0.00000000E+00 0.00000000E+00 -.98430542E+02 0.98431062E+02 0.32000000E+00 0.0000E+00 0.9000E+01
       25  1    1    2    0    0 -.39365318E+02 0.13543308E+02 0.41834083E+02 0.13823220E+03 0.12500000E+03 0.0000E+00 0.9000E+01
       24  1    1    2    0    0 0.39365318E+02 -.13543308E+02 -.94199334E+01 0.91043949E+02 0.80419002E+02 0.0000E+00 0.9000E+01
#aMCatNLO 1  0  0  1  2 0.19980028D+03 0.00000000D+00  -5  5  0 0.00000000D+00 0.00000000D+00 0.00000000D+00 0.00000000D+00 0.00000000D+00
  <mgrwgt>
 0.3766987249D+00    3    2    0
 0.113486643848371D+03 0.000000000000000D+00 0.000000000000000D+00 0.113486643848371D+03
 0.113486643848371D+03 0.000000000000000D+00 0.000000000000000D+00 -.113486643848371D+03
 0.133660348292978D+03 -.393653180733851D+02 0.135433083925085D+02 0.225175317600907D+02
 0.933129394037644D+02 0.393653180733851D+02 -.135433083925085D+02 -.225175317600907D+02
 0.000000000000000D+00 0.000000000000000D+00 -.000000000000000D+00 -.000000000000000D+00
 0.193477622423147D+03 0.000000000000000D+00 0.000000000000000D+00 0.193477622423147D+03
 0.387212041442136D+03 0.000000000000000D+00 0.000000000000000D+00 -.387212041442136D+03
 0.203737855771923D+03 -.941446553103753D+02 0.128506258658732D+03 0.225175317600907D+02
 0.986477003938322D+02 0.819894997476235D+01 0.518641573860541D+02 -.225175317600907D+02
 0.278304107699528D+03 0.859457053356129D+02 -.180370416044786D+03 -.193734419018989D+03
0.452201886395D-03 0.000000000000D+00 0.000000000000D+00 0.282473228463D-02 0.000000000000D+00  5 -1 2 25 24 21 0 0.20130023D-01 0.15143230D-01 0.12354908D+05 0.12354908D+05 0.12354908D+05 0.12575433D+01  1  2  2  1  5  1       -1 0.368752436532D+00 0.100000000000D+01
-.251091363569D-04 0.000000000000D+00 -.173657431125D-05 0.282473228463D-02 0.000000000000D+00  5 -1 2 25 24 21 2 0.20130023D-01 0.15143230D-01 0.12354908D+05 0.12354908D+05 0.12354908D+05 0.12575433D+01  1  2  3  1  5  1       -1 -.323802487850D-01 0.100000000000D+01
0.312710543554D-04 0.000000000000D+00 0.000000000000D+00 0.282473228463D-02 0.000000000000D+00  5 -1 2 25 24 21 2 0.20130023D-01 0.15143230D-01 0.12354908D+05 0.12354908D+05 0.12354908D+05 0.12575433D+01  1  2 15  1  5  1       -1 0.403265371379D-01 0.100000000000D+01
  </mgrwgt>
  </event>
  <event>
  4     66 0.45252658E-03 0.10504869E+03 0.75467711E-02 0.10605468E+00
       -3 -1    0    0    0  501 0.00000000E+00 0.00000000E+00 0.33509951E+03 0.33509988E+03 0.50000000E+00 0.0000E+00 0.9000E+01
        4 -1    0    0  501    0 0.00000000E+00 0.00000000E+00 -.50392026E+02 0.50415859E+02 0.15500000E+01 0.0000E+00 0.9000E+01
       25  1    1    2    0    0 -.56915207E+01 -.20777647E+02 0.27353655E+03 0.30151508E+03 0.12500000E+03 0.0000E+00 0.9000E+01
       24  1    1    2    0    0 0.56915207E+01 0.20777647E+02 0.11170933E+02 0.84000653E+02 0.80419002E+02 0.0000E+00 0.9000E+01
#aMCatNLO 1  0  0  2  2 0.32388533D+03 0.00000000D+00  -5  5  0 0.00000000D+00 0.00000000D+00 0.00000000D+00 0.00000000D+00 0.00000000D+00
  <mgrwgt>
 0.8703868512D-01    5    2    0
 0.129965413796345D+03 0.000000000000000D+00 0.000000000000000D+00 0.129965413796345D+03
 0.129965413796345D+03 0.000000000000000D+00 0.000000000000000D+00 -.129965413796345D+03
 0.147581223607061D+03 -.569152069920704D+01 -.207776466456054D+02 0.754394694663087D+02
 0.112349603985630D+03 0.569152069920704D+01 0.207776466456054D+02 -.754394694663087D+02
 0.000000000000000D+00 0.000000000000000D+00 -.000000000000000D+00 -.000000000000000D+00
 0.334867113524840D+03 0.000000000000000D+00 0.000000000000000D+00 0.334867113524840D+03
 0.413783826072184D+03 0.000000000000000D+00 0.000000000000000D+00 -.413783826072184D+03
 0.235526529681554D+03 -.182444421791354D+03 0.295070430185175D+02 0.754394694663087D+02
 0.179763416596982D+03 -.129079502313396D+03 0.591188508127274D+02 -.754394694663087D+02
 0.333360993318488D+03 0.311523924104749D+03 -.886258938312449D+02 -.789167125473441D+02
0.745373822696D-03 0.000000000000D+00 0.000000000000D+00 0.183989740222D-02 0.000000000000D+00  5 -3 4 25 24 21 0 0.51555632D-01 0.77544814D-02 0.11035227D+05 0.11035227D+05 0.11035227D+05 0.12633126D+01  1  2  2  2  5  2        4 0.607858513852D-01 0.100000000000D+01
-.391287496530D-04 0.000000000000D+00 -.286243174059D-05 0.183989740222D-02 0.000000000000D+00  5 -3 4 25 24 21 2 0.51555632D-01 0.77544814D-02 0.11035227D+05 0.11035227D+05 0.11035227D+05 0.12633126D+01  1  2  3  2  5  2        4 -.509267577055D-02 0.100000000000D+01
0.509098230144D-04 0.000000000000D+00 0.000000000000D+00 0.183989740222D-02 0.000000000000D+00  5 -3 4 25 24 21 2 0.51555632D-01 0.77544814D-02 0.11035227D+05 0.11035227D+05 0.11035227D+05 0.12633126D+01  1  2 15  2  5  2        4 0.662600324437D-02 0.100000000000D+01
0.135140588063D-02 0.000000000000D+00 -.539291839412D-03 0.183989740222D-02 0.000000000000D+00  5 -3 4 25 24 21 2 0.51555632D-01 0.61088166D-01 0.11035227D+05 0.11035227D+05 0.11035227D+05 0.12633126D+01  1  2  5  2  5  2        4 0.404967007510D-02 0.100000000000D+01
0.275975808852D-03 0.000000000000D+00 -.135248236434D-03 0.183989740222D-02 0.000000000000D+00  5 -3 21 25 24 -4 2 0.51555632D-01 0.61088166D-01 0.11035227D+05 0.11035227D+05 0.11035227D+05 0.12633126D+01  1  2  5  4  5  2        4 0.206698361887D-01 0.100000000000D+01
  </mgrwgt>
  </event>
  <event>
  4     66 0.45252658E-03 0.13976609E+03 0.75467711E-02 0.10373619E+00
       -1 -1    0    0    0  501 0.00000000E+00 0.00000000E+00 0.49813709E+02 0.49814737E+02 0.32000000E+00 0.0000E+00 0.9000E+01
        2 -1    0    0  501    0 0.00000000E+00 0.00000000E+00 -.39310997E+03 0.39311010E+03 0.32000000E+00 0.0000E+00 0.9000E+01
       25  1    1    2    0    0 0.59003387E+02 0.72631767E+02 -.18083106E+03 0.23891766E+03 0.12500000E+03 0.0000E+00 0.9000E+01
       24  1    1    2    0    0 -.59003387E+02 -.72631767E+02 -.16246519E+03 0.20400718E+03 0.80419002E+02 0.0000E+00 0.9000E+01
#aMCatNLO 1  0  0  2  2 0.37256231D+03 0.00000000D+00  -5  5  0 0.00000000D+00 0.00000000D+00 0.00000000D+00 0.00000000D+00 0.00000000D+00
  <mgrwgt>
 0.4241173451D+00    5    2    0
 0.139937565338031D+03 0.000000000000000D+00 0.000000000000000D+00 0.139937565338031D+03
 0.139937565338031D+03 0.000000000000000D+00 0.000000000000000D+00 -.139937565338031D+03
 0.156298047284941D+03 0.590033873195980D+02 0.726317671988217D+02 0.687795489046613D+01
 0.123577083391121D+03 -.590033873195980D+02 -.726317671988217D+02 -.687795489046613D+01
 0.000000000000000D+00 -.000000000000000D+00 -.000000000000000D+00 -.000000000000000D+00
 0.281757182915751D+03 0.000000000000000D+00 0.000000000000000D+00 0.281757182915751D+03
 0.944509380785142D+03 0.000000000000000D+00 0.000000000000000D+00 -.944509380785142D+03
 0.384299165527074D+03 0.247269285744075D+03 0.266216909096595D+03 0.687795489046613D+01
 0.816759055015213D+02 0.124770743667996D+02 0.868295394992046D+00 -.687795489046613D+01
 0.760291492672297D+03 -.259746360110875D+03 -.267085204491587D+03 -.662752197869391D+03
0.504337861560D-03 0.000000000000D+00 0.000000000000D+00 0.249609959990D-02 0.000000000000D+00  5 -1 2 25 24 21 0 0.76637367D-02 0.60478546D-01 0.19534559D+05 0.19534559D+05 0.19534559D+05 0.12349535D+01  1  2  2  2  5  2        2 0.410396797164D+00 0.100000000000D+01
-.280187188691D-04 0.000000000000D+00 -.193679018360D-05 0.249609959990D-02 0.000000000000D+00  5 -1 2 25 24 21 2 0.76637367D-02 0.60478546D-01 0.19534559D+05 0.19534559D+05 0.19534559D+05 0.12349535D+01  1  2  3  2  5  2        2 -.347721748627D-01 0.100000000000D+01
0.347221000676D-04 0.000000000000D+00 0.000000000000D+00 0.249609959990D-02 0.000000000000D+00  5 -1 2 25 24 21 2 0.76637367D-02 0.60478546D-01 0.19534559D+05 0.19534559D+05 0.19534559D+05 0.12349535D+01  1  2 15  2  5  2        2 0.430912969572D-01 0.100000000000D+01
0.257612169849D-03 0.000000000000D+00 -.371458075868D-03 0.249609959990D-02 0.000000000000D+00  5 -1 2 25 24 21 2 0.76637367D-02 0.51974148D+00 0.19534559D+05 0.19534559D+05 0.19534559D+05 0.12349535D+01  1  2  5  2  5  2        2 0.536828767643D-02 0.100000000000D+01
0.175588845751D-04 0.000000000000D+00 -.964692168673D-04 0.249609959990D-02 0.000000000000D+00  5 -1 21 25 24 -2 2 0.76637367D-02 0.51974148D+00 0.19534559D+05 0.19534559D+05 0.19534559D+05 0.12349535D+01  1  2  5  4  5  2        2 0.331381217855D-04 0.100000000000D+01
  </mgrwgt>
  </event>
  <event>
  4     66 0.45252658E-03 0.10542054E+03 0.75467711E-02 0.11917894E+00
       -1 -1    0    0    0  501 0.00000000E+00 0.00000000E+00 0.61232530E+01 0.61316088E+01 0.32000000E+00 0.0000E+00 0.9000E+01
        2 -1    0    0  501    0 0.00000000E+00 0.00000000E+00 -.19351780E+04 0.19351781E+04 0.32000000E+00 0.0000E+00 0.9000E+01
       25  1    1    2    0    0 -.90492980E+01 -.21380645E+02 -.13890442E+04 0.13948504E+04 0.12500000E+03 0.0000E+00 0.9000E+01
       24  1    1    2    0    0 0.90492980E+01 0.21380645E+02 -.54001060E+03 0.54645923E+03 0.80419002E+02 0.0000E+00 0.9000E+01
#aMCatNLO 1  0  0  2  1 0.86629422D+02 0.00000000D+00  -5  5  0 0.00000000D+00 0.00000000D+00 0.00000000D+00 0.00000000D+00 0.00000000D+00
  <mgrwgt>
 0.7326815286D+00    6    2    0
 0.108893162878546D+03 0.000000000000000D+00 0.000000000000000D+00 0.108893162878546D+03
 0.108893162878546D+03 0.000000000000000D+00 0.000000000000000D+00 -.108893162878546D+03
 0.129917862234197D+03 -.904929798823724D+01 -.213806450402567D+02 -.267325485333239D+02
 0.878684635228955D+02 0.904929798823724D+01 0.213806450402567D+02 0.267325485333239D+02
 0.000000000000000D+00 -.000000000000000D+00 0.000000000000000D+00 -.000000000000000D+00
 0.158818581670943D+03 0.000000000000000D+00 0.000000000000000D+00 0.158818581670943D+03
 0.162262592054596D+03 0.000000000000000D+00 0.000000000000000D+00 -.162262592054596D+03
 0.139562317410670D+03 0.390362437860086D+02 -.401768958610461D+02 -.267325485333239D+02
 0.948210020063692D+02 0.416480662464408D+02 0.863804919914755D+01 0.267325485333239D+02
 0.866978543084999D+02 -.806843100324494D+02 0.315388466618986D+02 -.344401038365375D+01
0.230750242194D-03 0.000000000000D+00 0.000000000000D+00 0.288932570219D-02 0.000000000000D+00  5 -1 2 25 24 21 0 0.94268371D-03 0.29772034D+00 0.11113490D+05 0.11113490D+05 0.11113490D+05 0.12629493D+01  1  2  2  2  5  2        2 0.415262641205D+00 0.100000000000D+01
-.128030858605D-04 0.000000000000D+00 -.886141687961D-06 0.288932570219D-02 0.000000000000D+00  5 -1 2 25 24 21 2 0.94268371D-03 0.29772034D+00 0.11113490D+05 0.11113490D+05 0.11113490D+05 0.12629493D+01  1  2  3  2  5  2        2 -.367508329813D-01 0.100000000000D+01
0.157595198833D-04 0.000000000000D+00 0.000000000000D+00 0.288932570219D-02 0.000000000000D+00  5 -1 2 25 24 21 2 0.94268371D-03 0.29772034D+00 0.11113490D+05 0.11113490D+05 0.11113490D+05 0.12629493D+01  1  2 15  2  5  2        2 0.452371787089D-01 0.100000000000D+01
-.953513881080D-04 0.000000000000D+00 -.709185355655D-04 0.288932570219D-02 0.000000000000D+00  5 -1 2 25 24 21 2 0.94268371D-03 0.51156373D+00 0.11113490D+05 0.11113490D+05 0.11113490D+05 0.12629493D+01  1  2  5  2  5  2        2 -.478442334399D-01 0.100000000000D+01
0.124332376383D-03 0.000000000000D+00 0.616615825969D-04 0.288932570219D-02 0.000000000000D+00  5 -1 2 25 24 21 2 0.94268371D-03 0.29772034D+00 0.11113490D+05 0.11113490D+05 0.11113490D+05 0.12629493D+01  1  2  6  2  5  2        2 0.356891959359D+00 0.100000000000D+01
-.224875310955D-05 0.000000000000D+00 -.426377648098D-05 0.288932570219D-02 0.000000000000D+00  5 -1 21 25 24 -2 2 0.94268371D-03 0.51156373D+00 0.11113490D+05 0.11113490D+05 0.11113490D+05 0.12629493D+01  1  2  5  4  5  2        2 -.115184257650D-03 0.100000000000D+01
  </mgrwgt>
  </event>
  <event>
  4     66 0.45252658E-03 0.14328611E+03 0.75467711E-02 0.10011340E+00
       -1 -1    0    0    0  501 0.00000000E+00 0.00000000E+00 0.62867352E+02 0.62868166E+02 0.32000000E+00 0.0000E+00 0.9000E+01
        2 -1    0    0  501    0 0.00000000E+00 0.00000000E+00 -.64226979E+03 0.64226987E+03 0.32000000E+00 0.0000E+00 0.9000E+01
       25  1    1    2    0    0 -.92715133E+02 0.33823180E+02 -.55252890E+03 0.57502460E+03 0.12500000E+03 0.0000E+00 0.9000E+01
       24  1    1    2    0    0 0.92715133E+02 -.33823180E+02 -.26873536E+02 0.13011344E+03 0.80419002E+02 0.0000E+00 0.9000E+01
#aMCatNLO 1  0  0  1  1 0.51867524D+03 0.00000000D+00  -5  5  0 0.00000000D+00 0.00000000D+00 0.00000000D+00 0.00000000D+00 0.00000000D+00
  <mgrwgt>
 0.3434549211D+00    5    2    0
 0.200943066465549D+03 0.000000000000000D+00 0.000000000000000D+00 0.200943066465549D+03
 0.200943066465549D+03 0.000000000000000D+00 0.000000000000000D+00 -.200943066465549D+03
 0.212336572355935D+03 -.927151328802223D+02 0.338231795887660D+02 -.140434029413729D+03
 0.189549560575164D+03 0.927151328802223D+02 -.338231795887660D+02 0.140434029413729D+03
 0.000000000000000D+00 -.000000000000000D+00 0.000000000000000D+00 0.000000000000000D+00
 0.123966796644563D+04 0.000000000000000D+00 0.000000000000000D+00 0.123966796644563D+04
 0.401855046135938D+03 0.000000000000000D+00 0.000000000000000D+00 -.401855046135938D+03
 0.229717524248486D+03 0.648174937117532D+02 -.114987463831518D+03 -.140434029413729D+03
 0.426435255434913D+03 0.312230587554716D+03 -.241184897332585D+03 0.140434029413729D+03
 0.985370232898169D+03 -.377048081266469D+03 0.356172361164103D+03 0.837812920309691D+03
0.930372776606D-03 0.000000000000D+00 0.000000000000D+00 0.115581430567D-02 0.000000000000D+00  5 -1 2 25 24 21 0 0.96719691D-02 0.98810805D-01 0.20530910D+05 0.20530910D+05 0.20530910D+05 0.12325754D+01  1  2  2  1  5  1       -1 0.309647302906D+00 0.100000000000D+01
-.445002185538D-04 0.000000000000D+00 -.357287643495D-05 0.115581430567D-02 0.000000000000D+00  5 -1 2 25 24 21 2 0.96719691D-02 0.98810805D-01 0.20530910D+05 0.20530910D+05 0.20530910D+05 0.12325754D+01  1  2  3  1  5  1       -1 -.225008756818D-01 0.100000000000D+01
0.631081880471D-04 0.000000000000D+00 0.000000000000D+00 0.115581430567D-02 0.000000000000D+00  5 -1 2 25 24 21 2 0.96719691D-02 0.98810805D-01 0.20530910D+05 0.20530910D+05 0.20530910D+05 0.12325754D+01  1  2 15  1  5  1       -1 0.319097195452D-01 0.100000000000D+01
0.132372348539D-02 0.000000000000D+00 -.681240902068D-03 0.115581430567D-02 0.000000000000D+00  5 -1 2 25 24 21 2 0.11028849D+00 0.98810805D-01 0.20530910D+05 0.20530910D+05 0.20530910D+05 0.12325754D+01  1  2  5  1  5  1       -1 0.913200481720D-02 0.100000000000D+01
0.254044621547D-03 0.000000000000D+00 -.194274882022D-03 0.115581430567D-02 0.000000000000D+00  5 21 2 25 24 1 2 0.11028849D+00 0.98810805D-01 0.20530910D+05 0.20530910D+05 0.20530910D+05 0.12325754D+01  1  2  5  3  5  1       -1 0.152667695478D-01 0.100000000000D+01
  </mgrwgt>
  </event>
  <event>
  4     66 0.45252658E-03 0.12684867E+03 0.75467711E-02 0.12244571E+00
       -1 -1    0    0    0  501 0.00000000E+00 0.00000000E+00 0.12520940E+02 0.12525028E+02 0.32000000E+00 0.0000E+00 0.9000E+01
        2 -1    0    0  501    0 0.00000000E+00 0.00000000E+00 -.13260530E+04 0.13260530E+04 0.32000000E+00 0.0000E+00 0.9000E+01
       25  1    1    2    0    0 -.22976399E+02 0.69586742E+02 -.86408373E+03 0.87614835E+03 0.12500000E+03 0.0000E+00 0.9000E+01
       24  1    1    2    0    0 0.22976399E+02 -.69586742E+02 -.44944829E+03 0.46242968E+03 0.80419002E+02 0.0000E+00 0.9000E+01
#aMCatNLO 1  0  0  1  2 0.10201713D+02 0.00000000D+00  -5  5  0 0.00000000D+00 0.00000000D+00 0.00000000D+00 0.00000000D+00 0.00000000D+00
  <mgrwgt>
 0.4024976077D+00    4    2    0
 0.128865012911067D+03 0.000000000000000D+00 0.000000000000000D+00 0.128865012911067D+03
 0.128865012911067D+03 0.000000000000000D+00 0.000000000000000D+00 -.128865012911067D+03
 0.146631247202972D+03 -.229763988227239D+02 0.695867415322714D+02 -.224831749617148D+02
 0.111098778619162D+03 0.229763988227239D+02 -.695867415322714D+02 0.224831749617148D+02
 0.000000000000000D+00 -.000000000000000D+00 -.000000000000000D+00 -.000000000000000D+00
 0.129778087074604D+03 0.000000000000000D+00 0.000000000000000D+00 0.129778087074604D+03
 0.161002381861256D+03 0.000000000000000D+00 0.000000000000000D+00 -.161002381861256D+03
 0.148842431439272D+03 -.204644779320991D+02 0.748650878805458D+02 -.224831749617148D+02
 0.109089422252388D+03 0.248482926041934D+02 -.656532961189808D+02 0.224831749617148D+02
 0.328486152442000D+02 -.438381467209435D+01 -.921179176156495D+01 -.312242947866526D+02
0.313235748472D-03 0.000000000000D+00 0.000000000000D+00 0.256603004248D-02 0.000000000000D+00  5 -1 2 25 24 21 0 0.19266159D-02 0.20400847D+00 0.16090584D+05 0.16090584D+05 0.16090584D+05 0.12443626D+01  1  2  2  1  5  1       -1 0.422139565697D+00 0.100000000000D+01
-.173967236615D-04 0.000000000000D+00 -.120290775100D-05 0.256603004248D-02 0.000000000000D+00  5 -1 2 25 24 21 2 0.19266159D-02 0.20400847D+00 0.16090584D+05 0.16090584D+05 0.16090584D+05 0.12443626D+01  1  2  3  1  5  1       -1 -.363033011132D-01 0.100000000000D+01
0.216087990843D-04 0.000000000000D+00 0.000000000000D+00 0.256603004248D-02 0.000000000000D+00  5 -1 2 25 24 21 2 0.19266159D-02 0.20400847D+00 0.16090584D+05 0.16090584D+05 0.16090584D+05 0.12443626D+01  1  2 15  1  5  1       -1 0.450930160825D-01 0.100000000000D+01
-.136246000213D-04 0.000000000000D+00 0.000000000000D+00 0.256603004248D-02 0.000000000000D+00  5 -1 2 25 24 21 2 0.19266159D-02 0.20400847D+00 0.16090584D+05 0.16090584D+05 0.16090584D+05 0.12443626D+01  1  2  4  1  5  1       -1 -.284316729256D-01 0.100000000000D+01
  </mgrwgt>
  </event>
  <event>
  4     66 0.45252658E-03 0.14444192E+03 0.75467711E-02 0.10144795E+00
       -1 -1    0    0    0  501 0.00000000E+00 0.00000000E+00 0.37584981E+02 0.37586343E+02 0.32000000E+00 0.0000E+00 0.9000E+01
        2 -1    0    0  501    0 0.00000000E+00 0.00000000E+00 -.64056119E+03 0.64056127E+03 0.32000000E+00 0.0000E+00 0.9000E+01
       25  1    1    2    0    0 -.24174521E+02 0.97386773E+02 -.20694731E+03 0.26176474E+03 0.12500000E+03 0.0000E+00 0.9000E+01
       24  1    1    2    0    0 0.24174521E+02 -.97386773E+02 -.39602890E+03 0.41638287E+03 0.80419002E+02 0.0000E+00 0.9000E+01
#aMCatNLO 1  0  0  2  2 0.45559684D+03 0.00000000D+00  -5  5  0 0.00000000D+00 0.00000000D+00 0.00000000D+00 0.00000000D+00 0.00000000D+00
  <mgrwgt>
 0.5193959113D+00    3    2    0
 0.155164330242639D+03 0.000000000000000D+00 0.000000000000000D+00 0.155164330242639D+03
 0.155164330242639D+03 0.000000000000000D+00 0.000000000000000D+00 -.155164330242639D+03
 0.169919306517323D+03 -.241745207010009D+02 0.973867734885056D+02 0.563824407568829D+02
 0.140409353967955D+03 0.241745207010009D+02 -.973867734885056D+02 -.563824407568829D+02
 0.000000000000000D+00 0.000000000000000D+00 0.000000000000000D+00 0.000000000000000D+00
 0.653944497798894D+03 0.000000000000000D+00 0.000000000000000D+00 0.653944497798894D+03
 0.412787211270179D+03 0.000000000000000D+00 0.000000000000000D+00 -.412787211270179D+03
 0.219395405052374D+03 -.162008918449863D+03 -.555290417268092D+02 0.563824407568829D+02
 0.331850784503789D+03 -.143026177943529D+03 -.282882060262881D+03 -.563824407568829D+02
 0.515485519512910D+03 0.305035096393391D+03 0.338411101989690D+03 0.241157286528715D+03
0.702051363454D-03 0.000000000000D+00 0.000000000000D+00 0.208248104600D-02 0.000000000000D+00  5 -1 2 25 24 21 0 0.57824157D-02 0.98547987D-01 0.20863467D+05 0.20863467D+05 0.20863467D+05 0.12318103D+01  1  2  2  2  5  2        2 0.508912182350D+00 0.100000000000D+01
-.387596934624D-04 0.000000000000D+00 -.269606209003D-05 0.208248104600D-02 0.000000000000D+00  5 -1 2 25 24 21 2 0.57824157D-02 0.98547987D-01 0.20863467D+05 0.20863467D+05 0.20863467D+05 0.12318103D+01  1  2  3  2  5  2        2 -.426326107150D-01 0.100000000000D+01
0.482910384361D-04 0.000000000000D+00 0.000000000000D+00 0.208248104600D-02 0.000000000000D+00  5 -1 2 25 24 21 2 0.57824157D-02 0.98547987D-01 0.20863467D+05 0.20863467D+05 0.20863467D+05 0.12318103D+01  1  2 15  2  5  2        2 0.531163396498D-01 0.100000000000D+01
  </mgrwgt>
  </event>
  <event>
  5     66 -.45252658E-03 0.15847176E+03 0.75467711E-02 0.11821553E+00
       -1 -1    0    0    0  501 0.00000000E+00 0.00000000E+00 0.73510663E+02 0.73511359E+02 0.32000000E+00 0.0000E+00 0.9000E+01
        2 -1    0    0  502    0 0.00000000E+00 0.00000000E+00 -.72077429E+03 0.72077436E+03 0.32000000E+00 0.0000E+00 0.9000E+01
       25  1    1    2    0    0 -.10445188E+03 -.68003559E+02 -.63636185E+02 0.18764126E+03 0.12500000E+03 0.0000E+00 0.9000E+01
       24  1    1    2    0    0 0.89992049E+02 0.71755570E+02 -.56765377E+03 0.58476101E+03 0.80419002E+02 0.0000E+00 0.9000E+01
       21  1    1    2  502  501 0.14459831E+02 -.37520104E+01 -.15973675E+02 0.21883443E+02 0.75000000E+00 0.0000E+00 0.9000E+01
#aMCatNLO 2  0  0  2  1 0.14938684D+02 0.00000000D+00  -5  5  0 0.00000000D+00 0.00000000D+00 0.00000000D+00 0.00000000D+00 0.00000000D+00
  <mgrwgt>
 -.2855782075D+00    3    2    0
 0.222404535891565D+03 0.000000000000000D+00 0.000000000000000D+00 0.222404535891565D+03
 0.222404535891565D+03 0.000000000000000D+00 0.000000000000000D+00 -.222404535891565D+03
 0.232698597576186D+03 -.968457592718909D+02 -.699771812655749D+02 0.155716827372958D+03
 0.212110474206943D+03 0.968457592718909D+02 0.699771812655749D+02 -.155716827372958D+03
 0.000000000000000D+00 0.000000000000000D+00 -.000000000000000D+00 0.000000000000000D+00
 0.231840190413345D+03 0.000000000000000D+00 0.000000000000000D+00 0.231840190413345D+03
 0.228522354492106D+03 0.000000000000000D+00 0.000000000000000D+00 -.228522354492106D+03
 0.235387785268413D+03 -.104451879179108D+03 -.680035591893685D+02 0.155716827372958D+03
 0.209672069830520D+03 0.899920486699633D+02 0.717555695519678D+02 -.155716827372958D+03
 0.153026898065178D+02 0.144598305091446D+02 -.375201036259934D+01 0.331783592123880D+01
-.195366628811D-02 0.000000000000D+00 0.000000000000D+00 0.111509793272D-02 0.000000000000D+00  5 -1 2 25 24 21 2 0.10848678D-01 0.11309573D+00 0.27534189D+05 0.27534189D+05 0.27534189D+05 0.12188274D+01  1  2 13  2  5  2        2 -.692838760942D+00 0.100000000000D+01
-.314409252419D-03 0.000000000000D+00 0.000000000000D+00 0.111509793272D-02 0.000000000000D+00  5 -1 2 25 24 21 2 0.10848678D-01 0.10791548D+00 0.25113298D+05 0.25113298D+05 0.25113298D+05 0.12230872D+01  1  2  8  2  5  2        2 -.118692117207D+00 0.100000000000D+01
0.154387301711D-02 0.000000000000D+00 0.000000000000D+00 0.111509793272D-02 0.396844703691D-04  5 -1 2 25 24 21 2 0.11308940D-01 0.11088398D+00 0.27534189D+05 0.27534189D+05 0.27534189D+05 0.12188274D+01  1  2  1  2  5  2        2 0.525952670599D+00 0.100000000000D+01
  </mgrwgt>
  </event>
  <event>
  4     66 0.45252658E-03 0.14757622E+03 0.75467711E-02 0.11183865E+00
       -1 -1    0    0    0  501 0.00000000E+00 0.00000000E+00 0.10666917E+02 0.10671716E+02 0.32000000E+00 0.0000E+00 0.9000E+01
        2 -1    0    0  501    0 0.00000000E+00 0.00000000E+00 -.21781706E+04 0.21781706E+04 0.32000000E+00 0.0000E+00 0.9000E+01
       25  1    1    2    0    0 -.88775541E+02 0.55607631E+02 -.91754415E+03 0.93192573E+03 0.12500000E+03 0.0000E+00 0.9000E+01
       24  1    1    2    0    0 0.88775541E+02 -.55607631E+02 -.12499595E+04 0.12569166E+04 0.80419002E+02 0.0000E+00 0.9000E+01
#aMCatNLO 1  0  0  2  1 0.15309151D+03 0.00000000D+00  -5  5  0 0.00000000D+00 0.00000000D+00 0.00000000D+00 0.00000000D+00 0.00000000D+00
  <mgrwgt>
 0.4810808028D+00    3    2    0
 0.152445542045916D+03 0.000000000000000D+00 0.000000000000000D+00 0.152445542045916D+03
 0.152445542045916D+03 0.000000000000000D+00 0.000000000000000D+00 -.152445542045916D+03
 0.167463665768535D+03 -.887755414483586D+02 0.556076314055767D+02 0.380233339233680D+02
 0.137427418323296D+03 0.887755414483586D+02 -.556076314055767D+02 -.380233339233680D+02
 0.000000000000000D+00 0.000000000000000D+00 -.000000000000000D+00 0.000000000000000D+00
 0.407682125287369D+03 0.000000000000000D+00 0.000000000000000D+00 0.407682125287369D+03
 0.195296335393846D+03 0.000000000000000D+00 0.000000000000000D+00 -.195296335393846D+03
 0.232754571720638D+03 -.132616501192417D+03 0.139702470793080D+03 0.380233339233680D+02
 0.108413397190445D+03 0.618454910738401D+02 -.395095522504598D+01 -.380233339233680D+02
 0.261810491770131D+03 0.707710101185772D+02 -.135751515568034D+03 0.212385789893523D+03
0.761116338934D-03 0.000000000000D+00 0.000000000000D+00 0.225393799650D-02 0.000000000000D+00  5 -1 2 25 24 21 0 0.16414351D-02 0.33510354D+00 0.21778740D+05 0.21778740D+05 0.21778740D+05 0.12297730D+01  1  2  2  2  5  2        2 0.471412043366D+00 0.100000000000D+01
-.422300623982D-04 0.000000000000D+00 -.292288714804D-05 0.225393799650D-02 0.000000000000D+00  5 -1 2 25 24 21 2 0.16414351D-02 0.33510354D+00 0.21778740D+05 0.21778740D+05 0.21778740D+05 0.12297730D+01  1  2  3  2  5  2        2 -.395568127964D-01 0.100000000000D+01
0.525522366659D-04 0.000000000000D+00 0.000000000000D+00 0.225393799650D-02 0.000000000000D+00  5 -1 2 25 24 21 2 0.16414351D-02 0.33510354D+00 0.21778740D+05 0.21778740D+05 0.21778740D+05 0.12297730D+01  1  2 15  2  5  2        2 0.492255722529D-01 0.100000000000D+01
  </mgrwgt>
  </event>
  <event>
  5     66 0.45252658E-03 0.11243111E+03 0.75467711E-02 0.12326737E+00
       -1 -1    0    0    0  502 0.00000000E+00 0.00000000E+00 0.51396797E+02 0.51397793E+02 0.32000000E+00 0.0000E+00 0.9000E+01
        2 -1    0    0  501    0 0.00000000E+00 0.00000000E+00 -.34881157E+03 0.34881172E+03 0.32000000E+00 0.0000E+00 0.9000E+01
       25  1    1    2    0    0 0.52570728E+02 0.29417120E+02 -.20704589E+03 0.24924295E+03 0.12500000E+03 0.0000E+00 0.9000E+01
       24  1    1    2    0    0 -.32347813E+02 -.11740721E+02 -.45327017E+02 0.98518932E+02 0.80419002E+02 0.0000E+00 0.9000E+01
       21  1    1    2  501  502 -.20222915E+02 -.17676399E+02 -.45041867E+02 0.52447628E+02 0.75000000E+00 0.0000E+00 0.9000E+01
#aMCatNLO 2  0  0  1  1 0.26859289D+02 0.00000000D+00  -5  5  0 0.00000000D+00 0.00000000D+00 0.00000000D+00 0.00000000D+00 0.00000000D+00
  <mgrwgt>
 0.1381746529D+00    1    2    0
 0.118874747529421D+03 0.000000000000000D+00 0.000000000000000D+00 0.118874747529421D+03
 0.118874747529421D+03 0.000000000000000D+00 0.000000000000000D+00 -.118874747529421D+03
 0.138134060873837D+03 0.406148329226767D+02 0.189667384297699D+02 -.380357325878774D+02
 0.996154341850062D+02 -.406148329226767D+02 -.189667384297699D+02 0.380357325878774D+02
 0.000000000000000D+00 -.000000000000000D+00 -.000000000000000D+00 -.000000000000000D+00
 0.128914006827659D+03 0.000000000000000D+00 0.000000000000000D+00 0.128914006827659D+03
 0.139059351882286D+03 0.000000000000000D+00 0.000000000000000D+00 -.139059351882286D+03
 0.143877605559956D+03 0.525707282757635D+02 0.294171201297055D+02 -.380357325878774D+02
 0.953842672808148D+02 -.323478131426427D+02 -.117407206644030D+02 0.380357325878774D+02
 0.287114858691745D+02 -.202229151331208D+02 -.176763994653025D+02 -.101453450546275D+02
0.101849650142D-03 0.000000000000D+00 0.000000000000D+00 0.255749331217D-02 0.297912108326D-04  5 -1 2 25 24 21 2 0.79069946D-02 0.53661419D-01 0.16013734D+05 0.16013734D+05 0.16013734D+05 0.12445977D+01  1  2  1  1  5  1       -1 0.138174652918D+00 0.100000000000D+01
  </mgrwgt>
  </event>
  <event>
  4     66 0.45252658E-03 0.95643048E+02 0.75467711E-02 0.11396552E+00
       -1 -1    0    0    0  501 0.00000000E+00 0.00000000E+00 0.14318353E+03 0.14318388E+03 0.32000000E+00 0.0000E+00 0.9000E+01
        2 -1    0    0  501    0 0.00000000E+00 0.00000000E+00 -.23414285E+03 0.23414307E+03 0.32000000E+00 0.0000E+00 0.9000E+01
       25  1    1    2    0    0 -.11061271E+03 -.81213858E+02 -.11214354E+03 0.21686870E+03 0.12500000E+03 0.0000E+00 0.9000E+01
       24  1    1    2    0    0 0.11061271E+03 0.81213858E+02 0.21184214E+02 0.16045825E+03 0.80419002E+02 0.0000E+00 0.9000E+01
#aMCatNLO 1  0  0  1  2 0.72526818D+02 0.00000000D+00  -5  5  0 0.00000000D+00 0.00000000D+00 0.00000000D+00 0.00000000D+00 0.00000000D+00
  <mgrwgt>
 0.4322763425D+00    9    2    0
 0.183099720714994D+03 0.000000000000000D+00 0.000000000000000D+00 0.183099720714994D+03
 0.183099720714994D+03 0.000000000000000D+00 0.000000000000000D+00 -.183099720714994D+03
 0.195603541051078D+03 -.110612710105424D+03 -.812138583680450D+02 -.616837324083848D+02
 0.170595900378910D+03 0.110612710105424D+03 0.812138583680450D+02 0.616837324083848D+02
 0.000000000000000D+00 -.000000000000000D+00 0.000000000000000D+00 0.000000000000000D+00
 0.224497949806235D+03 0.000000000000000D+00 0.000000000000000D+00 0.224497949806235D+03
 0.221407127462086D+03 0.000000000000000D+00 0.000000000000000D+00 -.221407127462086D+03
 0.188965428943106D+03 -.783274115896286D+02 -.100711802116195D+03 -.616837324083848D+02
 0.184347000794271D+03 0.140410843638173D+03 0.632179791867769D+02 0.616837324083848D+02
 0.725926475309442D+02 -.620834320485443D+02 0.374938229294186D+02 0.309082234414851D+01
0.111297738810D-02 0.000000000000D+00 0.000000000000D+00 0.198385646991D-02 0.000000000000D+00  5 -1 2 25 24 21 0 0.22028279D-01 0.36022021D-01 0.29700490D+05 0.29700490D+05 0.29700490D+05 0.12153560D+01  1  2  2  1  5  1       -1 0.306377551228D+00 0.100000000000D+01
-.615562529741D-04 0.000000000000D+00 -.427412622400D-05 0.198385646991D-02 0.000000000000D+00  5 -1 2 25 24 21 2 0.22028279D-01 0.36022021D-01 0.29700490D+05 0.29700490D+05 0.29700490D+05 0.12153560D+01  1  2  3  1  5  1       -1 -.250293634661D-01 0.100000000000D+01
0.765027785417D-04 0.000000000000D+00 0.000000000000D+00 0.198385646991D-02 0.000000000000D+00  5 -1 2 25 24 21 2 0.22028279D-01 0.36022021D-01 0.29700490D+05 0.29700490D+05 0.29700490D+05 0.12153560D+01  1  2 15  1  5  1       -1 0.311067642648D-01 0.100000000000D+01
0.385571679858D-03 0.000000000000D+00 0.000000000000D+00 0.198385646991D-02 0.000000000000D+00  5 -1 2 25 24 21 2 0.28848078D-01 0.36022021D-01 0.45126912D+05 0.45126912D+05 0.45126912D+05 0.11967176D+01  1  2 12  1  5  1       -1 0.977839087065D-01 0.100000000000D+01
-.422910656496D-03 0.000000000000D+00 0.000000000000D+00 0.198385646991D-02 0.000000000000D+00  5 -1 2 25 24 21 2 0.22028279D-01 0.36022021D-01 0.29700490D+05 0.29700490D+05 0.29700490D+05 0.12153560D+01  1  2  4  1  5  1       -1 -.171959533333D+00 0.100000000000D+01
-.885930642820D-03 0.000000000000D+00 -.430833790821D-03 0.198385646991D-02 0.000000000000D+00  5 -1 2 25 24 21 2 0.32334188D-01 0.36022021D-01 0.29700490D+05 0.29700490D+05 0.29700490D+05 0.12153560D+01  1  2  5  1  5  1       -1 -.190035071054D+00 0.100000000000D+01
0.100615928462D-02 0.000000000000D+00 0.400940100663D-03 0.198385646991D-02 0.000000000000D+00  5 -1 2 25 24 21 2 0.22028279D-01 0.36022021D-01 0.29700490D+05 0.29700490D+05 0.29700490D+05 0.12153560D+01  1  2  6  1  5  1       -1 0.409114025348D+00 0.100000000000D+01
0.137964097722D-04 0.000000000000D+00 0.000000000000D+00 0.198385646991D-02 0.000000000000D+00  5 21 2 25 24 1 2 0.28848078D-01 0.36022021D-01 0.45126912D+05 0.45126912D+05 0.45126912D+05 0.11967176D+01  1  2 12  3  5  1       -1 0.401111347414D-01 0.100000000000D+01
-.270206705020D-04 0.000000000000D+00 -.198969092087D-04 0.198385646991D-02 0.000000000000D+00  5 21 2 25 24 1 2 0.32334188D-01 0.36022021D-01 0.29700490D+05 0.29700490D+05 0.29700490D+05 0.12153560D+01  1  2  5  3  5  1       -1 -.651930739237D-01 0.100000000000D+01
  </mgrwgt>
  </event>
  <event>
  4     66 0.45252658E-03 0.10897410E+03 0.75467711E-02 0.11848368E+00
       -1 -1    0    0    0  501 0.00000000E+00 0.00000000E+00 0.78324445E+02 0.78325098E+02 0.32000000E+00 0.0000E+00 0.9000E+01
        2 -1    0    0  501    0 0.00000000E+00 0.00000000E+00 -.15166494E+03 0.15166527E+03 0.32000000E+00 0.0000E+00 0.9000E+01
       25  1    1    2    0    0 -.35635752E+02 0.84958873E+00 -.45763945E+02 0.13780409E+03 0.12500000E+03 0.0000E+00 0.9000E+01
       24  1    1    2    0    0 0.35635752E+02 -.84958873E+00 -.27576546E+02 0.92186281E+02 0.80419002E+02 0.0000E+00 0.9000E+01
#aMCatNLO 1  0  0  1  2 0.90820123D+02 0.00000000D+00  -5  5  0 0.00000000D+00 0.00000000D+00 0.00000000D+00 0.00000000D+00 0.00000000D+00
  <mgrwgt>
 0.2960970008D+00    3    2    0
 0.108991677867613D+03 0.000000000000000D+00 0.000000000000000D+00 0.108991677867613D+03
 0.108991677867613D+03 0.000000000000000D+00 0.000000000000000D+00 -.108991677867613D+03
 0.129997373496854D+03 -.356357519652193D+02 0.849588731280131D+00 -.192054600092921D+01
 0.879859822383723D+02 0.356357519652193D+02 -.849588731280131D+00 0.192054600092921D+01
 0.000000000000000D+00 -.000000000000000D+00 0.000000000000000D+00 -.000000000000000D+00
 0.139802384819739D+03 0.000000000000000D+00 0.000000000000000D+00 0.139802384819739D+03
 0.212971527553987D+03 0.000000000000000D+00 0.000000000000000D+00 -.212971527553987D+03
 0.129436359929520D+03 0.335999826076770D+01 -.333735402160199D+02 -.192054600092921D+01
 0.106709861965826D+03 0.649006837470350D+02 -.265328369877936D+02 0.192054600092921D+01
 0.116627690478379D+03 -.682606820078026D+02 0.599063772038135D+02 -.731691427342478D+02
0.260346552030D-03 0.000000000000D+00 0.000000000000D+00 0.303897748906D-02 0.000000000000D+00  5 -1 2 25 24 21 0 0.12049991D-01 0.23333143D-01 0.11875355D+05 0.11875355D+05 0.11875355D+05 0.12595559D+01  1  2  2  1  5  1       -1 0.289867588490D+00 0.100000000000D+01
-.144636968776D-04 0.000000000000D+00 -.999799310617D-06 0.303897748906D-02 0.000000000000D+00  5 -1 2 25 24 21 2 0.12049991D-01 0.23333143D-01 0.11875355D+05 0.11875355D+05 0.11875355D+05 0.12595559D+01  1  2  3  1  5  1       -1 -.255483018009D-01 0.100000000000D+01
0.179903630548D-04 0.000000000000D+00 0.000000000000D+00 0.303897748906D-02 0.000000000000D+00  5 -1 2 25 24 21 2 0.12049991D-01 0.23333143D-01 0.11875355D+05 0.11875355D+05 0.11875355D+05 0.12595559D+01  1  2 15  1  5  1       -1 0.317777141432D-01 0.100000000000D+01
  </mgrwgt>
  </event>
  <event>
  5     66 0.45252658E-03 0.14466824E+03 0.75467711E-02 0.11735424E+00
       21 -1    0    0  502  501 0.00000000E+00 0.00000000E+00 0.10599454E+02 0.10625955E+02 0.75000000E+00 0.0000E+00 0.9000E+01
        2 -1    0    0  501    0 0.00000000E+00 0.00000000E+00 -.30503310E+04 0.30503310E+04 0.32000000E+00 0.0000E+00 0.9000E+01
       25  1    1    2    0    0 0.97099581E+02 0.55192783E+02 -.16660984E+04 0.16745099E+04 0.12500000E+03 0.0000E+00 0.9000E+01
       24  1    1    2    0    0 -.51000348E+02 -.83511055E+02 -.76503882E+03 0.77545260E+03 0.80419002E+02 0.0000E+00 0.9000E+01
        1  1    1    2  502    0 -.46099233E+02 0.28318272E+02 -.60859430E+03 0.61099443E+03 0.32000000E+00 0.0000E+00 0.9000E+01
#aMCatNLO 2  0  0  1  1 0.54102346D+02 0.00000000D+00  -5  5  0 0.00000000D+00 0.00000000D+00 0.00000000D+00 0.00000000D+00 0.00000000D+00
  <mgrwgt>
 0.8727911908D-01    1    2    0
 0.149131736738978D+03 0.000000000000000D+00 0.000000000000000D+00 0.149131736738978D+03
 0.149131736738978D+03 0.000000000000000D+00 0.000000000000000D+00 -.149131736738978D+03
 0.164483573051423D+03 0.713487044482671D+02 0.710112744303484D+02 -.360084306946894D+02
 0.133779900426533D+03 -.713487044482671D+02 -.710112744303484D+02 0.360084306946894D+02
 0.000000000000000D+00 -.000000000000000D+00 0.000000000000000D+00 -.000000000000000D+00
 0.170888641251748D+03 0.000000000000000D+00 0.000000000000000D+00 0.170888641251748D+03
 0.189434841867754D+03 0.000000000000000D+00 0.000000000000000D+00 -.189434841867754D+03
 0.171453139343710D+03 0.970995810825704D+02 0.551927827103207D+02 -.360084306946894D+02
 0.131677465203603D+03 -.510003482794168D+02 -.835110548511962D+02 0.360084306946894D+02
 0.571928785721892D+02 -.460992328031536D+02 0.283182721408755D+02 -.185462006160062D+02
0.133934512552D-04 0.000000000000D+00 0.000000000000D+00 0.228780862154D-02 0.170815042877D-06  5 21 2 25 24 1 2 0.16327209D-02 0.46928254D+00 0.30343899D+05 0.30343899D+05 0.30343899D+05 0.12143792D+01  1  2  1  3  5  1       -1 0.872791190761D-01 0.100000000000D+01
  </mgrwgt>
  </event>
  <event>
  4     66 0.45252658E-03 0.21930296E+03 0.75467711E-02 0.10165853E+00
       -1 -1    0    0    0  501 0.00000000E+00 0.00000000E+00 0.22655697E+03 0.22655719E+03 0.32000000E+00 0.0000E+00 0.9000E+01
        2 -1    0    0  501    0 0.00000000E+00 0.00000000E+00 -.21278726E+03 0.21278750E+03 0.32000000E+00 0.0000E+00 0.9000E+01
       25  1    1    2    0    0 -.93595722E+02 0.16851263E+03 -.34935524E+01 0.22976917E+03 0.12500000E+03 0.0000E+00 0.9000E+01
       24  1    1    2    0    0 0.93595722E+02 -.16851263E+03 0.17263262E+02 0.20957553E+03 0.80419002E+02 0.0000E+00 0.9000E+01
#aMCatNLO 1  0  0  1  1 0.39121428D+03 0.00000000D+00  -5  5  0 0.00000000D+00 0.00000000D+00 0.00000000D+00 0.00000000D+00 0.00000000D+00
  <mgrwgt>
 0.5165118637D+00    3    2    0
 0.219564429921332D+03 0.000000000000000D+00 0.000000000000000D+00 0.219564429921332D+03
 0.219564429921332D+03 0.000000000000000D+00 0.000000000000000D+00 -.219564429921332D+03
 0.229991647172449D+03 -.935957221126845D+02 0.168512629067174D+03 -.107001129045671D+02
 0.209137212670215D+03 0.935957221126845D+02 -.168512629067174D+03 0.107001129045671D+02
 0.000000000000000D+00 -.000000000000000D+00 -.000000000000000D+00 -.000000000000000D+00
 0.342661977096624D+03 0.000000000000000D+00 0.000000000000000D+00 0.342661977096624D+03
 0.108129778132913D+04 0.000000000000000D+00 0.000000000000000D+00 -.108129778132913D+04
 0.451806980915610D+03 -.750397315769405D+02 0.427503326621874D+03 -.107001129045671D+02
 0.136311007657372D+03 0.102997521475297D+03 -.372893149303256D+02 0.107001129045671D+02
 0.835841769852771D+03 -.279577898983563D+02 -.390214011691548D+03 -.738635804232505D+03
0.356700297959D-02 0.000000000000D+00 0.000000000000D+00 0.210992713553D-02 0.000000000000D+00  5 -1 2 25 24 21 0 0.34854954D-01 0.32736537D-01 0.48093787D+05 0.48093787D+05 0.48093787D+05 0.11939572D+01  1  2  2  1  5  1       -1 0.507363875735D+00 0.100000000000D+01
-.198166490095D-03 0.000000000000D+00 -.136982306551D-04 0.210992713553D-02 0.000000000000D+00  5 -1 2 25 24 21 2 0.34854954D-01 0.32736537D-01 0.48093787D+05 0.48093787D+05 0.48093787D+05 0.11939572D+01  1  2  3  1  5  1       -1 -.401812842840D-01 0.100000000000D+01
0.243282635782D-03 0.000000000000D+00 0.000000000000D+00 0.210992713553D-02 0.000000000000D+00  5 -1 2 25 24 21 2 0.34854954D-01 0.32736537D-01 0.48093787D+05 0.48093787D+05 0.48093787D+05 0.11939572D+01  1  2 15  1  5  1       -1 0.493292722953D-01 0.100000000000D+01
  </mgrwgt>
  </event>
  <event>
  4     66 0.45252658E-03 0.56126284E+02 0.75467711E-02 0.11891880E+00
       -1 -1    0    0    0  501 0.00000000E+00 0.00000000E+00 0.17328763E+03 0.17328793E+03 0.32000000E+00 0.0000E+00 0.9000E+01
        2 -1    0    0  501    0 0.00000000E+00 0.00000000E+00 -.72944229E+02 0.72944931E+02 0.32000000E+00 0.0000E+00 0.9000E+01
       25  1    1    2    0    0 0.19494900E+02 0.19002976E+02 0.20267464E+02 0.12952581E+03 0.12500000E+03 0.0000E+00 0.9000E+01
       24  1    1    2    0    0 -.19494900E+02 -.19002976E+02 0.80075939E+02 0.11670705E+03 0.80419002E+02 0.0000E+00 0.9000E+01
#aMCatNLO 1  0  0  1  2 0.88483338D+02 0.00000000D+00  -5  5  0 0.00000000D+00 0.00000000D+00 0.00000000D+00 0.00000000D+00 0.00000000D+00
  <mgrwgt>
 0.2231405608D+00    7    2    0
 0.112429780390490D+03 0.000000000000000D+00 0.000000000000000D+00 0.112429780390490D+03
 0.112429780390490D+03 0.000000000000000D+00 0.000000000000000D+00 -.112429780390490D+03
 0.132793121877555D+03 0.194948999307372D+02 0.190029761322765D+02 -.356068672139795D+02
 0.920664389034236D+02 -.194948999307372D+02 -.190029761322765D+02 0.356068672139795D+02
 0.000000000000000D+00 0.000000000000000D+00 -.000000000000000D+00 0.000000000000000D+00
 0.265372571087539D+03 0.000000000000000D+00 0.000000000000000D+00 0.265372571087539D+03
 0.134361973197218D+03 0.000000000000000D+00 0.000000000000000D+00 -.134361973197218D+03
 0.138445145100291D+03 -.281027052234316D+02 0.385285240850392D+02 -.356068672139795D+02
 0.103197407403202D+03 -.537603137344103D+02 -.494657606387356D+01 0.356068672139795D+02
 0.158091991781265D+03 0.818630189578419D+02 -.335819480211656D+02 0.131010597890320D+03
0.387683345911D-03 0.000000000000D+00 0.000000000000D+00 0.269806885952D-02 0.000000000000D+00  5 -1 2 25 24 21 0 0.26659712D-01 0.11222266D-01 0.11324417D+05 0.11324417D+05 0.11324417D+05 0.12619842D+01  1  2  2  1  5  1       -1 0.284824745773D+00 0.100000000000D+01
-.214588325578D-04 0.000000000000D+00 -.148880612767D-05 0.269806885952D-02 0.000000000000D+00  5 -1 2 25 24 21 2 0.26659712D-01 0.11222266D-01 0.11324417D+05 0.11324417D+05 0.11324417D+05 0.12619842D+01  1  2  3  1  5  1       -1 -.251081375431D-01 0.100000000000D+01
0.265398106900D-04 0.000000000000D+00 0.000000000000D+00 0.269806885952D-02 0.000000000000D+00  5 -1 2 25 24 21 2 0.26659712D-01 0.11222266D-01 0.11324417D+05 0.11324417D+05 0.11324417D+05 0.12619842D+01  1  2 15  1  5  1       -1 0.310531905861D-01 0.100000000000D+01
0.157653713148D-04 0.000000000000D+00 0.000000000000D+00 0.269806885952D-02 0.000000000000D+00  5 -1 2 25 24 21 2 0.62127024D-01 0.11222266D-01 0.25461188D+05 0.25461188D+05 0.25461188D+05 0.12224474D+01  1  2 12  1  5  1       -1 0.397609328996D-02 0.100000000000D+01
-.213489734840D-03 0.000000000000D+00 -.108072800148D-03 0.269806885952D-02 0.000000000000D+00  5 -1 2 25 24 21 2 0.72181252D-01 0.11222266D-01 0.11324417D+05 0.11324417D+05 0.11324417D+05 0.12619842D+01  1  2  5  1  5  1       -1 -.422867615560D-01 0.100000000000D+01
0.145375693280D-05 0.000000000000D+00 0.000000000000D+00 0.269806885952D-02 0.000000000000D+00  5 21 2 25 24 1 2 0.62127024D-01 0.11222266D-01 0.25461188D+05 0.25461188D+05 0.25461188D+05 0.12224474D+01  1  2 12  3  5  1       -1 0.352742645553D-02 0.100000000000D+01
-.174582064140D-04 0.000000000000D+00 -.120132347514D-04 0.269806885952D-02 0.000000000000D+00  5 21 2 25 24 1 2 0.72181252D-01 0.11222266D-01 0.11324417D+05 0.11324417D+05 0.11324417D+05 0.12619842D+01  1  2  5  3  5  1       -1 -.328459962092D-01 0.100000000000D+01
  </mgrwgt>
  </event>
  <event>
  4     66 0.45252658E-03 0.67372215E+02 0.75467711E-02 0.12344798E+00
       -1 -1    0    0    0  501 0.00000000E+00 0.00000000E+00 0.11474765E+03 0.11474810E+03 0.32000000E+00 0.0000E+00 0.9000E+01
        2 -1    0    0  501    0 0.00000000E+00 0.00000000E+00 -.10528110E+03 0.10528159E+03 0.32000000E+00 0.0000E+00 0.9000E+01
       25  1    1    2    0    0 0.31557353E+02 0.21101060E+02 0.38081745E+00 0.13063792E+03 0.12500000E+03 0.0000E+00 0.9000E+01
       24  1    1    2    0    0 -.31557353E+02 -.21101060E+02 0.90857343E+01 0.89391766E+02 0.80419002E+02 0.0000E+00 0.9000E+01
#aMCatNLO 1  0  0  2  1 0.29252675D+02 0.00000000D+00  -5  5  0 0.00000000D+00 0.00000000D+00 0.00000000D+00 0.00000000D+00 0.00000000D+00
  <mgrwgt>
 0.3096603828D+00    9    2    0
 0.109912973760907D+03 0.000000000000000D+00 0.000000000000000D+00 0.109912973760907D+03
 0.109912973760907D+03 0.000000000000000D+00 0.000000000000000D+00 -.109912973760907D+03
 0.130742598627464D+03 0.315573527865662D+02 0.211010600727855D+02 -.524460148828951D+01
 0.890833488943506D+02 -.315573527865662D+02 -.211010600727855D+02 0.524460148828951D+01
 0.000000000000000D+00 -.000000000000000D+00 -.000000000000000D+00 -.000000000000000D+00
 0.116468864535502D+03 0.000000000000000D+00 0.000000000000000D+00 0.116468864535502D+03
 0.149172624963912D+03 0.000000000000000D+00 0.000000000000000D+00 -.149172624963912D+03
 0.134987280454957D+03 0.327769299480149D+02 0.386617757356956D+02 -.524460148828951D+01
 0.867764817178788D+02 -.307502375544684D+02 -.947939188638247D+01 0.524460148828951D+01
 0.438777273265785D+02 -.202669239354648D+01 -.291823838493132D+02 -.327037604284104D+02
0.249708695301D-03 0.000000000000D+00 0.000000000000D+00 0.300826815106D-02 0.000000000000D+00  5 -1 2 25 24 21 0 0.17653557D-01 0.16197164D-01 0.12052329D+05 0.12052329D+05 0.12052329D+05 0.12588027D+01  1  2  2  2  5  2        2 0.231815477318D+00 0.100000000000D+01
-.138726817164D-04 0.000000000000D+00 -.958947139764D-06 0.300826815106D-02 0.000000000000D+00  5 -1 2 25 24 21 2 0.17653557D-01 0.16197164D-01 0.12052329D+05 0.12052329D+05 0.12052329D+05 0.12588027D+01  1  2  3  2  5  2        2 -.204072512854D-01 0.100000000000D+01
0.172612649039D-04 0.000000000000D+00 0.000000000000D+00 0.300826815106D-02 0.000000000000D+00  5 -1 2 25 24 21 2 0.17653557D-01 0.16197164D-01 0.12052329D+05 0.12052329D+05 0.12052329D+05 0.12588027D+01  1  2 15  2  5  2        2 0.253919881965D-01 0.100000000000D+01
0.436697640068D-03 0.000000000000D+00 0.000000000000D+00 0.300826815106D-02 0.000000000000D+00  5 -1 2 25 24 21 2 0.17653557D-01 0.22335581D-01 0.15719628D+05 0.15719628D+05 0.15719628D+05 0.12455092D+01  1  2 12  2  5  2        2 0.441351072448D+00 0.100000000000D+01
-.453999493057D-03 0.000000000000D+00 0.000000000000D+00 0.300826815106D-02 0.000000000000D+00  5 -1 2 25 24 21 2 0.17653557D-01 0.16197164D-01 0.12052329D+05 0.12052329D+05 0.12052329D+05 0.12588027D+01  1  2  4  2  5  2        2 -.667850811231D+00 0.100000000000D+01
-.619352578512D-03 0.000000000000D+00 -.138568049522D-03 0.300826815106D-02 0.000000000000D+00  5 -1 2 25 24 21 2 0.17653557D-01 0.23143467D-01 0.12052329D+05 0.12052329D+05 0.12052329D+05 0.12588027D+01  1  2  5  2  5  2        2 -.609124235202D+00 0.100000000000D+01
0.636235546494D-03 0.000000000000D+00 0.130189188811D-03 0.300826815106D-02 0.000000000000D+00  5 -1 2 25 24 21 2 0.17653557D-01 0.16197164D-01 0.12052329D+05 0.12052329D+05 0.12052329D+05 0.12588027D+01  1  2  6  2  5  2        2 0.935927093220D+00 0.100000000000D+01
0.177386131944D-04 0.000000000000D+00 0.000000000000D+00 0.300826815106D-02 0.000000000000D+00  5 -1 21 25 24 -2 2 0.17653557D-01 0.22335581D-01 0.15719628D+05 0.15719628D+05 0.15719628D+05 0.12455092D+01  1  2 12  4  5  2        2 0.114270018659D+00 0.100000000000D+01
-.231027806342D-04 0.000000000000D+00 -.607064024263D-05 0.300826815106D-02 0.000000000000D+00  5 -1 21 25 24 -2 2 0.17653557D-01 0.23143467D-01 0.12052329D+05 0.12052329D+05 0.12052329D+05 0.12588027D+01  1  2  5  4  5  2        2 -.141712969312D+00 0.100000000000D+01
  </mgrwgt>
  </event>
  <event>
  4     66 0.45252658E-03 0.10574581E+03 0.75467711E-02 0.10962709E+00
       -1 -1    0    0    0  501 0.00000000E+00 0.00000000E+00 0.49302294E+03 0.49302304E+03 0.32000000E+00 0.0000E+00 0.9000E+01
        2 -1    0    0  501    0 0.00000000E+00 0.00000000E+00 -.22698102E+02 0.22700358E+02 0.32000000E+00 0.0000E+00 0.9000E+01
       25  1    1    2    0    0 -.19748688E+02 0.14656057E+02 0.29047476E+03 0.31718353E+03 0.12500000E+03 0.0000E+00 0.9000E+01
       24  1    1    2    0    0 0.19748688E+02 -.14656057E+02 0.17985008E+03 0.19853987E+03 0.80419002E+02 0.0000E+00 0.9000E+01
#aMCatNLO 1  0  0  2  1 0.23884752D+03 0.00000000D+00  -5  5  0 0.00000000D+00 0.00000000D+00 0.00000000D+00 0.00000000D+00 0.00000000D+00
  <mgrwgt>
 0.3835483006D+00    3    2    0
 0.105788909278619D+03 0.000000000000000D+00 0.000000000000000D+00 0.105788909278619D+03
 0.105788909278619D+03 0.000000000000000D+00 0.000000000000000D+00 -.105788909278619D+03
 0.127430554201695D+03 -.197486884221555D+02 0.146560570843302D+02 0.295557786171105D+01
 0.841472643555433D+02 0.197486884221555D+02 -.146560570843302D+02 -.295557786171105D+01
 0.000000000000000D+00 0.000000000000000D+00 0.000000000000000D+00 0.000000000000000D+00
 0.635359720740972D+03 0.000000000000000D+00 0.000000000000000D+00 0.635359720740972D+03
 0.189514660674918D+03 0.000000000000000D+00 0.000000000000000D+00 -.189514660674918D+03
 0.178333964956863D+03 -.357260210761284D+02 -.122036547946946D+03 0.295557786171105D+01
 0.140748014491215D+03 0.799707416576325D+01 -.115195915696431D+03 -.295557786171105D+01
 0.505792401967811D+03 0.277289469103651D+02 0.237232463643377D+03 0.445845060066054D+03
0.756691324326D-03 0.000000000000D+00 0.000000000000D+00 0.313499193573D-02 0.000000000000D+00  5 -1 2 25 24 21 0 0.75849864D-01 0.34921972D-02 0.11182176D+05 0.11182176D+05 0.11182176D+05 0.12626328D+01  1  2  2  2  5  2        2 0.375506910910D+00 0.100000000000D+01
-.420383984192D-04 0.000000000000D+00 -.290589392682D-05 0.313499193573D-02 0.000000000000D+00  5 -1 2 25 24 21 2 0.75849864D-01 0.34921972D-02 0.11182176D+05 0.11182176D+05 0.11182176D+05 0.12626328D+01  1  2  3  2  5  2        2 -.332582550917D-01 0.100000000000D+01
0.522027062545D-04 0.000000000000D+00 0.000000000000D+00 0.313499193573D-02 0.000000000000D+00  5 -1 2 25 24 21 2 0.75849864D-01 0.34921972D-02 0.11182176D+05 0.11182176D+05 0.11182176D+05 0.12626328D+01  1  2 15  2  5  2        2 0.412996447623D-01 0.100000000000D+01
  </mgrwgt>
  </event>
  <event>
  4     66 0.45252658E-03 0.12173091E+03 0.75467711E-02 0.10987975E+00
       -1 -1    0    0    0  501 0.00000000E+00 0.00000000E+00 0.75657118E+02 0.75657795E+02 0.32000000E+00 0.0000E+00 0.9000E+01
        2 -1    0    0  501    0 0.00000000E+00 0.00000000E+00 -.20754954E+03 0.20754979E+03 0.32000000E+00 0.0000E+00 0.9000E+01
       25  1    1    2    0    0 -.62260071E+02 -.15802188E+02 -.42337736E+02 0.14677707E+03 0.12500000E+03 0.0000E+00 0.9000E+01
       24  1    1    2    0    0 0.62260071E+02 0.15802188E+02 -.89554684E+02 0.13643051E+03 0.80419002E+02 0.0000E+00 0.9000E+01
#aMCatNLO 1  0  0  2  1 0.22069002D+03 0.00000000D+00  -5  5  0 0.00000000D+00 0.00000000D+00 0.00000000D+00 0.00000000D+00 0.00000000D+00
  <mgrwgt>
 0.3195737104D+00    3    2    0
 0.125310537258098D+03 0.000000000000000D+00 0.000000000000000D+00 0.125310537258098D+03
 0.125310537258098D+03 0.000000000000000D+00 0.000000000000000D+00 -.125310537258098D+03
 0.143580716777733D+03 -.622600710408972D+02 -.158021879228123D+02 0.294006231437736D+02
 0.107040357738463D+03 0.622600710408972D+02 0.158021879228123D+02 -.294006231437736D+02
 0.000000000000000D+00 0.000000000000000D+00 -.000000000000000D+00 0.000000000000000D+00
 0.288408586839745D+03 0.000000000000000D+00 0.000000000000000D+00 0.288408586839745D+03
 0.267233592103155D+03 0.000000000000000D+00 0.000000000000000D+00 -.267233592103155D+03
 0.221226330143556D+03 -.161613870131668D+03 0.795779459938980D+02 0.294006231437736D+02
 0.112712297694223D+03 0.241127874979529D+01 0.732573217548205D+02 -.294006231437736D+02
 0.221703551105120D+03 0.159202591381873D+03 -.152835267748719D+03 0.211749947365901D+02
0.371709634764D-03 0.000000000000D+00 0.000000000000D+00 0.256089836475D-02 0.000000000000D+00  5 -1 2 25 24 21 0 0.11639628D-01 0.31930769D-01 0.14818414D+05 0.14818414D+05 0.14818414D+05 0.12484260D+01  1  2  2  2  5  2        2 0.312991293378D+00 0.100000000000D+01
-.206294455829D-04 0.000000000000D+00 -.142746287089D-05 0.256089836475D-02 0.000000000000D+00  5 -1 2 25 24 21 2 0.11639628D-01 0.31930769D-01 0.14818414D+05 0.14818414D+05 0.14818414D+05 0.12484260D+01  1  2  3  2  5  2        2 -.270733253500D-01 0.100000000000D+01
0.256451432115D-04 0.000000000000D+00 0.000000000000D+00 0.256089836475D-02 0.000000000000D+00  5 -1 2 25 24 21 2 0.11639628D-01 0.31930769D-01 0.14818414D+05 0.14818414D+05 0.14818414D+05 0.12484260D+01  1  2 15  2  5  2        2 0.336557423717D-01 0.100000000000D+01
  </mgrwgt>
  </event>
  <event>
  4     66 0.45252658E-03 0.13940026E+03 0.75467711E-02 0.12117812E+00
       -1 -1    0    0    0  501 0.00000000E+00 0.00000000E+00 0.81293935E+01 0.81356892E+01 0.32000000E+00 0.0000E+00 0.9000E+01
        2 -1    0    0  501    0 0.00000000E+00 0.00000000E+00 -.30481567E+04 0.30481567E+04 0.32000000E+00 0.0000E+00 0.9000E+01
       25  1    1    2    0    0 0.62759697E+01 -.92826019E+02 -.23668974E+04 0.23720212E+04 0.12500000E+03 0.0000E+00 0.9000E+01
       24  1    1    2    0    0 -.62759697E+01 0.92826019E+02 -.67312989E+03 0.68427124E+03 0.80419002E+02 0.0000E+00 0.9000E+01
#aMCatNLO 1  0  0  2  1 0.35455918D+01 0.00000000D+00  -5  5  0 0.00000000D+00 0.00000000D+00 0.00000000D+00 0.00000000D+00 0.00000000D+00
  <mgrwgt>
 0.3052790710D+00    6    2    0
 0.157446218702916D+03 0.000000000000000D+00 0.000000000000000D+00 0.157446218702916D+03
 0.157446218702916D+03 0.000000000000000D+00 0.000000000000000D+00 -.157446218702916D+03
 0.171987349193495D+03 0.627596974607766D+01 -.928260194986606D+02 -.727914183842147D+02
 0.142905088212337D+03 -.627596974607766D+01 0.928260194986606D+02 0.727914183842147D+02
 0.000000000000000D+00 0.000000000000000D+00 0.000000000000000D+00 0.000000000000000D+00
 0.161199133318357D+03 0.000000000000000D+00 0.000000000000000D+00 0.161199133318357D+03
 0.158295862444793D+03 0.000000000000000D+00 0.000000000000000D+00 -.158295862444793D+03
 0.172920783415972D+03 0.547342704696729D+01 -.945941242528793D+02 -.727914183842147D+02
 0.141991614492898D+03 -.693887603079432D+01 0.913655517193035D+02 0.727914183842147D+02
 0.458259785427952D+01 0.146544898382703D+01 0.322857253357585D+01 0.290327087356437D+01
0.114666164502D-02 0.000000000000D+00 0.000000000000D+00 0.189051689547D-02 0.000000000000D+00  5 -1 2 25 24 21 0 0.12511615D-02 0.46894767D+00 0.19432433D+05 0.19432433D+05 0.19432433D+05 0.12352049D+01  1  2  2  2  5  2        2 0.351323342921D+00 0.100000000000D+01
-.625556093572D-04 0.000000000000D+00 -.440348263984D-05 0.189051689547D-02 0.000000000000D+00  5 -1 2 25 24 21 2 0.12511615D-02 0.46894767D+00 0.19432433D+05 0.19432433D+05 0.19432433D+05 0.12352049D+01  1  2  3  2  5  2        2 -.292425993181D-01 0.100000000000D+01
0.788428761625D-04 0.000000000000D+00 0.000000000000D+00 0.189051689547D-02 0.000000000000D+00  5 -1 2 25 24 21 2 0.12511615D-02 0.46894767D+00 0.19432433D+05 0.19432433D+05 0.19432433D+05 0.12352049D+01  1  2 15  2  5  2        2 0.368563372717D-01 0.100000000000D+01
-.186820958142D-02 0.000000000000D+00 0.000000000000D+00 0.189051689547D-02 0.000000000000D+00  5 -1 2 25 24 21 2 0.12511615D-02 0.46894767D+00 0.19432433D+05 0.19432433D+05 0.19432433D+05 0.12352049D+01  1  2  4  2  5  2        2 -.873323828079D+00 0.100000000000D+01
0.185588899229D-02 0.000000000000D+00 0.000000000000D+00 0.189051689547D-02 0.122154638522D-02  5 -1 2 25 24 21 2 0.12809844D-02 0.47147831D+00 0.19925167D+05 0.19925167D+05 0.19925167D+05 0.12340053D+01  1  2 11  2  5  2        2 0.818606625053D+00 0.100000000000D+01
0.189855907634D-04 0.000000000000D+00 0.000000000000D+00 0.189051689547D-02 0.123014352430D-05  5 -1 21 25 24 -2 2 0.12809844D-02 0.47147831D+00 0.19925167D+05 0.19925167D+05 0.19925167D+05 0.12340053D+01  1  2 11  4  5  2        2 0.105919312194D-02 0.100000000000D+01
  </mgrwgt>
  </event>
  <event>
  4     66 0.45252658E-03 0.79786492E+02 0.75467711E-02 0.12061753E+00
       -1 -1    0    0    0  501 0.00000000E+00 0.00000000E+00 0.18692665E+03 0.18692692E+03 0.32000000E+00 0.0000E+00 0.9000E+01
        2 -1    0    0  501    0 0.00000000E+00 0.00000000E+00 -.83417822E+02 0.83418436E+02 0.32000000E+00 0.0000E+00 0.9000E+01
       25  1    1    2    0    0 -.55426733E+02 -.29037751E+02 0.25676619E+02 0.14212531E+03 0.12500000E+03 0.0000E+00 0.9000E+01
       24  1    1    2    0    0 0.55426733E+02 0.29037751E+02 0.77832210E+02 0.12822006E+03 0.80419002E+02 0.0000E+00 0.9000E+01
#aMCatNLO 1  0  0  1  2 0.45163690D+02 0.00000000D+00  -5  5  0 0.00000000D+00 0.00000000D+00 0.00000000D+00 0.00000000D+00 0.00000000D+00
  <mgrwgt>
 0.3171532137D+00    9    2    0
 0.124872471349120D+03 0.000000000000000D+00 0.000000000000000D+00 0.124872471349120D+03
 0.124872471349120D+03 0.000000000000000D+00 0.000000000000000D+00 -.124872471349120D+03
 0.143206744601441D+03 -.554267331053928D+02 -.290377505398950D+02 -.311104162651138D+02
 0.106538198096799D+03 0.554267331053928D+02 0.290377505398950D+02 0.311104162651138D+02
 0.000000000000000D+00 0.000000000000000D+00 -.000000000000000D+00 0.000000000000000D+00
 0.159875503434442D+03 0.000000000000000D+00 0.000000000000000D+00 0.159875503434442D+03
 0.142361094665331D+03 0.000000000000000D+00 0.000000000000000D+00 -.142361094665331D+03
 0.150805354674128D+03 -.771439304538329D+02 -.140787425693912D+02 -.311104162651138D+02
 0.102990420033962D+03 0.399499062628799D+02 0.396983331362901D+02 0.311104162651138D+02
 0.484408233916831D+02 0.371940241909530D+02 -.256195905668989D+02 0.175144087691108D+02
0.411280308096D-03 0.000000000000D+00 0.000000000000D+00 0.255116026278D-02 0.000000000000D+00  5 -1 2 25 24 21 0 0.28758015D-01 0.12833579D-01 0.14602471D+05 0.14602471D+05 0.14602471D+05 0.12491545D+01  1  2  2  1  5  1       -1 0.229147403440D+00 0.100000000000D+01
-.228189817771D-04 0.000000000000D+00 -.157942467568D-05 0.255116026278D-02 0.000000000000D+00  5 -1 2 25 24 21 2 0.28758015D-01 0.12833579D-01 0.14602471D+05 0.14602471D+05 0.14602471D+05 0.12491545D+01  1  2  3  1  5  1       -1 -.198383536199D-01 0.100000000000D+01
0.284912067558D-04 0.000000000000D+00 0.000000000000D+00 0.255116026278D-02 0.000000000000D+00  5 -1 2 25 24 21 2 0.28758015D-01 0.12833579D-01 0.14602471D+05 0.14602471D+05 0.14602471D+05 0.12491545D+01  1  2 15  1  5  1       -1 0.247696694008D-01 0.100000000000D+01
0.217903267558D-03 0.000000000000D+00 0.000000000000D+00 0.255116026278D-02 0.000000000000D+00  5 -1 2 25 24 21 2 0.38383399D-01 0.12833579D-01 0.21156351D+05 0.21156351D+05 0.21156351D+05 0.12311477D+01  1  2 12  1  5  1       -1 0.113783305407D+00 0.100000000000D+01
-.245122935475D-03 0.000000000000D+00 0.000000000000D+00 0.255116026278D-02 0.000000000000D+00  5 -1 2 25 24 21 2 0.28758015D-01 0.12833579D-01 0.14602471D+05 0.14602471D+05 0.14602471D+05 0.12491545D+01  1  2  4  1  5  1       -1 -.213104840602D+00 0.100000000000D+01
-.429558699002D-03 0.000000000000D+00 -.163459356180D-03 0.255116026278D-02 0.000000000000D+00  5 -1 2 25 24 21 2 0.41456857D-01 0.12833579D-01 0.14602471D+05 0.14602471D+05 0.14602471D+05 0.12491545D+01  1  2  5  1  5  1       -1 -.199887956842D+00 0.100000000000D+01
0.468042393667D-03 0.000000000000D+00 0.153104793005D-03 0.255116026278D-02 0.000000000000D+00  5 -1 2 25 24 21 2 0.28758015D-01 0.12833579D-01 0.14602471D+05 0.14602471D+05 0.14602471D+05 0.12491545D+01  1  2  6  1  5  1       -1 0.406906434538D+00 0.100000000000D+01
0.819249613950D-05 0.000000000000D+00 0.000000000000D+00 0.255116026278D-02 0.000000000000D+00  5 21 2 25 24 1 2 0.38383399D-01 0.12833579D-01 0.21156351D+05 0.21156351D+05 0.21156351D+05 0.12311477D+01  1  2 12  3  5  1       -1 0.464201856201D-01 0.100000000000D+01
-.142302993718D-04 0.000000000000D+00 -.728927457203D-05 0.255116026278D-02 0.000000000000D+00  5 21 2 25 24 1 2 0.41456857D-01 0.12833579D-01 0.14602471D+05 0.14602471D+05 0.14602471D+05 0.12491545D+01  1  2  5  3  5  1       -1 -.710426335960D-01 0.100000000000D+01
  </mgrwgt>
  </event>
  <event>
  4     66 0.45252658E-03 0.14120723E+03 0.75467711E-02 0.95965719E-01
       -3 -1    0    0    0  501 0.00000000E+00 0.00000000E+00 0.15303168E+03 0.15303250E+03 0.50000000E+00 0.0000E+00 0.9000E+01
        4 -1    0    0  501    0 0.00000000E+00 0.00000000E+00 -.17178689E+03 0.17179389E+03 0.15500000E+01 0.0000E+00 0.9000E+01
       25  1    1    2    0    0 -.34567297E+02 -.89226397E+02 -.89618133E+02 0.18114264E+03 0.12500000E+03 0.0000E+00 0.9000E+01
       24  1    1    2    0    0 0.34567297E+02 0.89226397E+02 0.70862923E+02 0.14368374E+03 0.80419002E+02 0.0000E+00 0.9000E+01
#aMCatNLO 1  0  0  1  1 0.75233793D+03 0.00000000D+00  -5  5  0 0.00000000D+00 0.00000000D+00 0.00000000D+00 0.00000000D+00 0.00000000D+00
  <mgrwgt>
 0.4644519588D-01    5    2    0
 0.162142239593290D+03 0.000000000000000D+00 0.000000000000000D+00 0.162142239593290D+03
 0.162142239593290D+03 0.000000000000000D+00 0.000000000000000D+00 -.162142239593290D+03
 0.176262224719622D+03 -.345672968312705D+02 -.892263968935270D+02 -.792913863561989D+02
 0.148022254466958D+03 0.345672968312705D+02 0.892263968935270D+02 0.792913863561989D+02
 0.000000000000000D+00 0.000000000000000D+00 0.000000000000000D+00 0.000000000000000D+00
 0.850478500900208D+03 0.000000000000000D+00 0.000000000000000D+00 0.850478500900208D+03
 0.730601477392060D+03 0.000000000000000D+00 0.000000000000000D+00 -.730601477392060D+03
 0.614581243763892D+03 -.491760189115402D+03 -.337594279627586D+03 -.792913863561989D+02
 0.204670108476663D+03 -.169326960283758D+03 -.215381967734757D+02 0.792913863561989D+02
 0.761828626051712D+03 0.661087149399160D+03 0.359132476401062D+03 0.119877023508148D+03
0.988976983290D-03 0.000000000000D+00 0.000000000000D+00 0.180945051034D-02 0.000000000000D+00  5 -3 4 25 24 21 0 0.23543937D-01 0.26429354D-01 0.19939482D+05 0.19939482D+05 0.19939482D+05 0.12339710D+01  1  2  2  1  5  1       -3 0.442044368542D-01 0.100000000000D+01
-.536664425158D-04 0.000000000000D+00 -.379793201945D-05 0.180945051034D-02 0.000000000000D+00  5 -3 4 25 24 21 2 0.23543937D-01 0.26429354D-01 0.19939482D+05 0.19939482D+05 0.19939482D+05 0.12339710D+01  1  2  3  1  5  1       -3 -.365251801906D-02 0.100000000000D+01
0.680671298113D-04 0.000000000000D+00 0.000000000000D+00 0.180945051034D-02 0.000000000000D+00  5 -3 4 25 24 21 2 0.23543937D-01 0.26429354D-01 0.19939482D+05 0.19939482D+05 0.19939482D+05 0.12339710D+01  1  2 15  1  5  1       -3 0.463262341393D-02 0.100000000000D+01
0.318514119629D-02 0.000000000000D+00 -.946844100476D-03 0.180945051034D-02 0.000000000000D+00  5 -3 4 25 24 21 2 0.36646294D+00 0.26429354D-01 0.19939482D+05 0.19939482D+05 0.19939482D+05 0.12339710D+01  1  2  5  1  5  1       -3 0.273014726196D-03 0.100000000000D+01
0.765192390154D-03 0.000000000000D+00 -.291103682939D-03 0.180945051034D-02 0.000000000000D+00  5 21 4 25 24 3 2 0.36646294D+00 0.26429354D-01 0.19939482D+05 0.19939482D+05 0.19939482D+05 0.12339710D+01  1  2  5  3  5  1       -3 0.987638909400D-03 0.100000000000D+01
  </mgrwgt>
  </event>
  <event>
  4     66 0.45252658E-03 0.11881281E+03 0.75467711E-02 0.11448632E+00
       -1 -1    0    0    0  501 0.00000000E+00 0.00000000E+00 0.26169003E+02 0.26170959E+02 0.32000000E+00 0.0000E+00 0.9000E+01
        2 -1    0    0  501    0 0.00000000E+00 0.00000000E+00 -.13161031E+04 0.13161032E+04 0.32000000E+00 0.0000E+00 0.9000E+01
       25  1    1    2    0    0 -.11875124E+03 -.97175376E+02 -.68096717E+03 0.70914469E+03 0.12500000E+03 0.0000E+00 0.9000E+01
       24  1    1    2    0    0 0.11875124E+03 0.97175376E+02 -.60896695E+03 0.63312942E+03 0.80419002E+02 0.0000E+00 0.9000E+01
#aMCatNLO 1  0  0  2  1 0.38620926D+02 0.00000000D+00  -5  5  0 0.00000000D+00 0.00000000D+00 0.00000000D+00 0.00000000D+00 0.00000000D+00
  <mgrwgt>
 0.4282888473D+00    9    2    0
 0.185586759893181D+03 0.000000000000000D+00 0.000000000000000D+00 0.185586759893181D+03
 0.185586759893181D+03 0.000000000000000D+00 0.000000000000000D+00 -.185586759893181D+03
 0.197923017138715D+03 -.118751236149526D+03 -.971753756548200D+02 0.190026119150914D+01
 0.173250502647647D+03 0.118751236149526D+03 0.971753756548200D+02 -.190026119150914D+01
 0.000000000000000D+00 0.000000000000000D+00 0.000000000000000D+00 -.000000000000000D+00
 0.189877064216190D+03 0.000000000000000D+00 0.000000000000000D+00 0.189877064216190D+03
 0.299986383916210D+03 0.000000000000000D+00 0.000000000000000D+00 -.299986383916210D+03
 0.214821356918041D+03 -.133416291167133D+03 -.112781637010283D+03 0.190026119150914D+01
 0.158356024162189D+03 0.106969057480278D+03 0.846370142624972D+02 -.190026119150914D+01
 0.116686067052170D+03 0.264472336868544D+02 0.281446227477859D+02 -.110109319700020D+03
0.727691815105D-03 0.000000000000D+00 0.000000000000D+00 0.221164232001D-02 0.000000000000D+00  5 -1 2 25 24 21 0 0.40261539D-02 0.20247756D+00 0.34438818D+05 0.34438818D+05 0.34438818D+05 0.12086587D+01  1  2  2  2  5  2        2 0.343823971303D+00 0.100000000000D+01
-.404273229251D-04 0.000000000000D+00 -.279452817566D-05 0.221164232001D-02 0.000000000000D+00  5 -1 2 25 24 21 2 0.40261539D-02 0.20247756D+00 0.34438818D+05 0.34438818D+05 0.34438818D+05 0.12086587D+01  1  2  3  2  5  2        2 -.279042923953D-01 0.100000000000D+01
0.499327212274D-04 0.000000000000D+00 0.000000000000D+00 0.221164232001D-02 0.000000000000D+00  5 -1 2 25 24 21 2 0.40261539D-02 0.20247756D+00 0.34438818D+05 0.34438818D+05 0.34438818D+05 0.12086587D+01  1  2 15  2  5  2        2 0.344652366866D-01 0.100000000000D+01
0.304388210630D-02 0.000000000000D+00 0.000000000000D+00 0.221164232001D-02 0.000000000000D+00  5 -1 2 25 24 21 2 0.40261539D-02 0.32840578D+00 0.42390383D+05 0.42390383D+05 0.42390383D+05 0.11994489D+01  1  2 12  2  5  2        2 0.769740258212D+00 0.100000000000D+01
-.283203006787D-02 0.000000000000D+00 0.000000000000D+00 0.221164232001D-02 0.000000000000D+00  5 -1 2 25 24 21 2 0.40261539D-02 0.20247756D+00 0.34438818D+05 0.34438818D+05 0.34438818D+05 0.12086587D+01  1  2  4  2  5  2        2 -.195476201163D+01 0.100000000000D+01
-.323116350104D-02 0.000000000000D+00 -.268515575258D-03 0.221164232001D-02 0.000000000000D+00  5 -1 2 25 24 21 2 0.40261539D-02 0.32938655D+00 0.34438818D+05 0.34438818D+05 0.34438818D+05 0.12086587D+01  1  2  5  2  5  2        2 -.825123188185D+00 0.100000000000D+01
0.302544344365D-02 0.000000000000D+00 0.239586510568D-03 0.221164232001D-02 0.000000000000D+00  5 -1 2 25 24 21 2 0.40261539D-02 0.20247756D+00 0.34438818D+05 0.34438818D+05 0.34438818D+05 0.12086587D+01  1  2  6  2  5  2        2 0.208826240197D+01 0.100000000000D+01
0.167185668724D-03 0.000000000000D+00 0.000000000000D+00 0.221164232001D-02 0.000000000000D+00  5 -1 21 25 24 -2 2 0.40261539D-02 0.32840578D+00 0.42390383D+05 0.42390383D+05 0.42390383D+05 0.11994489D+01  1  2 12  4  5  2        2 0.119346227743D-01 0.100000000000D+01
-.166585948064D-03 0.000000000000D+00 -.148192676574D-04 0.221164232001D-02 0.000000000000D+00  5 -1 21 25 24 -2 2 0.40261539D-02 0.32938655D+00 0.34438818D+05 0.34438818D+05 0.34438818D+05 0.12086587D+01  1  2  5  4  5  2        2 -.121481514028D-01 0.100000000000D+01
  </mgrwgt>
  </event>
  <event>
  4     66 0.45252658E-03 0.10689178E+03 0.75467711E-02 0.11425016E+00
       -1 -1    0    0    0  501 0.00000000E+00 0.00000000E+00 0.35954960E+02 0.35956384E+02 0.32000000E+00 0.0000E+00 0.9000E+01
        2 -1    0    0  501    0 0.00000000E+00 0.00000000E+00 -.34056294E+03 0.34056309E+03 0.32000000E+00 0.0000E+00 0.9000E+01
       25  1    1    2    0    0 -.27230862E+02 -.98473828E+01 -.22855717E+03 0.26211042E+03 0.12500000E+03 0.0000E+00 0.9000E+01
       24  1    1    2    0    0 0.27230862E+02 0.98473828E+01 -.76050813E+02 0.11440906E+03 0.80419002E+02 0.0000E+00 0.9000E+01
#aMCatNLO 1  0  0  1  1 0.15426154D+03 0.00000000D+00  -5  5  0 0.00000000D+00 0.00000000D+00 0.00000000D+00 0.00000000D+00 0.00000000D+00
  <mgrwgt>
 0.3661846237D+00    5    2    0
 0.110658136618805D+03 0.000000000000000D+00 0.000000000000000D+00 0.110658136618805D+03
 0.110658136618805D+03 0.000000000000000D+00 0.000000000000000D+00 -.110658136618805D+03
 0.131347496492034D+03 -.272308615868229D+02 -.984738278662094D+01 -.280833414005143D+02
 0.899687767455761D+02 0.272308615868229D+02 0.984738278662094D+01 0.280833414005143D+02
 0.000000000000000D+00 0.000000000000000D+00 -.000000000000000D+00 0.000000000000000D+00
 0.220670937559601D+03 0.000000000000000D+00 0.000000000000000D+00 0.220670937559601D+03
 0.204236637614304D+03 0.000000000000000D+00 0.000000000000000D+00 -.204236637614304D+03
 0.170684785918974D+03 -.101472270622088D+03 0.492239817038989D+02 -.280833414005143D+02
 0.990882981822335D+02 -.192405404722001D+02 0.468230970825347D+02 0.280833414005143D+02
 0.155134491072697D+03 0.120712811094288D+03 -.960470787864336D+02 0.164342999452975D+02
0.199325784294D-03 0.000000000000D+00 0.000000000000D+00 0.283171795926D-02 0.000000000000D+00  5 -1 2 25 24 21 0 0.55316534D-02 0.52394420D-01 0.11425853D+05 0.11425853D+05 0.11425853D+05 0.12615273D+01  1  2  2  1  5  1       -1 0.300791592345D+00 0.100000000000D+01
-.110575094600D-04 0.000000000000D+00 -.765463495372D-06 0.283171795926D-02 0.000000000000D+00  5 -1 2 25 24 21 2 0.55316534D-02 0.52394420D-01 0.11425853D+05 0.11425853D+05 0.11425853D+05 0.12615273D+01  1  2  3  1  5  1       -1 -.265553976742D-01 0.100000000000D+01
0.137883530853D-04 0.000000000000D+00 0.000000000000D+00 0.283171795926D-02 0.000000000000D+00  5 -1 2 25 24 21 2 0.55316534D-02 0.52394420D-01 0.11425853D+05 0.11425853D+05 0.11425853D+05 0.12615273D+01  1  2 15  1  5  1       -1 0.331137134249D-01 0.100000000000D+01
0.524862658644D-04 0.000000000000D+00 -.628895682901D-04 0.283171795926D-02 0.000000000000D+00  5 -1 2 25 24 21 2 0.20189575D-01 0.52394420D-01 0.11425853D+05 0.11425853D+05 0.11425853D+05 0.12615273D+01  1  2  5  1  5  1       -1 0.174740961553D-01 0.100000000000D+01
0.963793201616D-05 0.000000000000D+00 -.959035342106D-05 0.283171795926D-02 0.000000000000D+00  5 21 2 25 24 1 2 0.20189575D-01 0.52394420D-01 0.11425853D+05 0.11425853D+05 0.11425853D+05 0.12615273D+01  1  2  5  3  5  1       -1 0.413606194329D-01 0.100000000000D+01
  </mgrwgt>
  </event>
  <event>
  4     66 0.45252658E-03 0.12054379E+03 0.75467711E-02 0.10423093E+00
       -1 -1    0    0    0  501 0.00000000E+00 0.00000000E+00 0.45219901E+02 0.45221033E+02 0.32000000E+00 0.0000E+00 0.9000E+01
        2 -1    0    0  501    0 0.00000000E+00 0.00000000E+00 -.32133376E+03 0.32133392E+03 0.32000000E+00 0.0000E+00 0.9000E+01
       25  1    1    2    0    0 0.49821923E+02 -.36921462E+02 -.15930642E+03 0.21177572E+03 0.12500000E+03 0.0000E+00 0.9000E+01
       24  1    1    2    0    0 -.49821923E+02 0.36921462E+02 -.11680744E+03 0.15477923E+03 0.80419002E+02 0.0000E+00 0.9000E+01
#aMCatNLO 1  0  0  1  2 0.36833227D+03 0.00000000D+00  -5  5  0 0.00000000D+00 0.00000000D+00 0.00000000D+00 0.00000000D+00 0.00000000D+00
  <mgrwgt>
 0.4722130468D+00    3    2    0
 0.120544255663376D+03 0.000000000000000D+00 0.000000000000000D+00 0.120544255663376D+03
 0.120544255663376D+03 0.000000000000000D+00 0.000000000000000D+00 -.120544255663376D+03
 0.139536832280223D+03 0.498219234493797D+02 -.369214619379661D+02 0.330386086905850D+00
 0.101551679046530D+03 -.498219234493797D+02 0.369214619379661D+02 -.330386086905850D+00
 0.000000000000000D+00 0.000000000000000D+00 0.000000000000000D+00 -.000000000000000D+00
 0.357023891087225D+03 0.000000000000000D+00 0.000000000000000D+00 0.357023891087225D+03
 0.467834144102863D+03 0.000000000000000D+00 0.000000000000000D+00 -.467834144102863D+03
 0.229995523031568D+03 -.106985415219891D+03 -.160707661266742D+03 0.330386086905850D+00
 0.210222978428899D+03 -.182120363898514D+03 -.675170245468002D+02 -.330386086905850D+00
 0.384639533729620D+03 0.289105779118405D+03 0.228224685813542D+03 -.110810253015638D+03
0.401109855141D-03 0.000000000000D+00 0.000000000000D+00 0.277299158545D-02 0.000000000000D+00  5 -1 2 25 24 21 0 0.69570072D-02 0.49436063D-01 0.14530806D+05 0.14530806D+05 0.14530806D+05 0.12493990D+01  1  2  2  1  5  1       -1 0.462507625285D+00 0.100000000000D+01
-.222838808408D-04 0.000000000000D+00 -.154036745839D-05 0.277299158545D-02 0.000000000000D+00  5 -1 2 25 24 21 2 0.69570072D-02 0.49436063D-01 0.14530806D+05 0.14530806D+05 0.14530806D+05 0.12493990D+01  1  2  3  1  5  1       -1 -.401096342158D-01 0.100000000000D+01
0.276759633391D-04 0.000000000000D+00 0.000000000000D+00 0.277299158545D-02 0.000000000000D+00  5 -1 2 25 24 21 2 0.69570072D-02 0.49436063D-01 0.14530806D+05 0.14530806D+05 0.14530806D+05 0.12493990D+01  1  2 15  1  5  1       -1 0.498150557361D-01 0.100000000000D+01
  </mgrwgt>
  </event>
  <event>
  4     66 0.45252658E-03 0.54328059E+02 0.75467711E-02 0.11436570E+00
       -1 -1    0    0    0  501 0.00000000E+00 0.00000000E+00 0.17883439E+02 0.17886302E+02 0.32000000E+00 0.0000E+00 0.9000E+01
        2 -1    0    0  501    0 0.00000000E+00 0.00000000E+00 -.22933235E+04 0.22933236E+04 0.32000000E+00 0.0000E+00 0.9000E+01
       25  1    1    2    0    0 -.50537484E+02 -.14404411E+03 -.73087556E+03 0.75703819E+03 0.12500000E+03 0.0000E+00 0.9000E+01
       24  1    1    2    0    0 0.50537484E+02 0.14404411E+03 -.15445645E+04 0.15541717E+04 0.80419002E+02 0.0000E+00 0.9000E+01
#aMCatNLO 1  0  0  1  2 0.43041874D+02 0.00000000D+00  -5  5  0 0.00000000D+00 0.00000000D+00 0.00000000D+00 0.00000000D+00 0.00000000D+00
  <mgrwgt>
 0.3100378986D+00    9    2    0
 0.202523692035944D+03 0.000000000000000D+00 0.000000000000000D+00 0.202523692035944D+03
 0.202523692035944D+03 0.000000000000000D+00 0.000000000000000D+00 -.202523692035944D+03
 0.213828275654739D+03 -.505374842806257D+02 -.144044110238260D+03 0.824305068389898D+02
 0.191219108417150D+03 0.505374842806257D+02 0.144044110238260D+03 -.824305068389898D+02
 0.000000000000000D+00 -.000000000000000D+00 0.000000000000000D+00 0.000000000000000D+00
 0.234057103899930D+03 0.000000000000000D+00 0.000000000000000D+00 0.234057103899930D+03
 0.218902573604163D+03 0.000000000000000D+00 0.000000000000000D+00 -.218902573604163D+03
 0.230097770784707D+03 -.495417886180098D+02 -.167543447627436D+03 0.824305068389898D+02
 0.177230090089037D+03 0.513638905520968D+02 0.124540158857363D+03 -.824305068389898D+02
 0.456318166303487D+02 -.182210193408698D+01 0.430032887700727D+02 0.151545302957664D+02
0.103924199416D-02 0.000000000000D+00 0.000000000000D+00 0.181608117506D-02 0.000000000000D+00  5 -1 2 25 24 21 0 0.27515202D-02 0.35281923D+00 0.34195569D+05 0.34195569D+05 0.34195569D+05 0.12089768D+01  1  2  2  1  5  1       -1 0.264624397961D+00 0.100000000000D+01
-.571552341011D-04 0.000000000000D+00 -.399096289628D-05 0.181608117506D-02 0.000000000000D+00  5 -1 2 25 24 21 2 0.27515202D-02 0.35281923D+00 0.34195569D+05 0.34195569D+05 0.34195569D+05 0.12089768D+01  1  2  3  1  5  1       -1 -.212718447515D-01 0.100000000000D+01
0.714310105096D-04 0.000000000000D+00 0.000000000000D+00 0.181608117506D-02 0.000000000000D+00  5 -1 2 25 24 21 2 0.27515202D-02 0.35281923D+00 0.34195569D+05 0.34195569D+05 0.34195569D+05 0.12089768D+01  1  2 15  1  5  1       -1 0.265849556896D-01 0.100000000000D+01
0.927652128737D-03 0.000000000000D+00 0.000000000000D+00 0.181608117506D-02 0.000000000000D+00  5 -1 2 25 24 21 2 0.32775573D-02 0.35281923D+00 0.43006839D+05 0.43006839D+05 0.43006839D+05 0.11988168D+01  1  2 12  1  5  1       -1 0.261974526889D+00 0.100000000000D+01
-.896182086555D-03 0.000000000000D+00 0.000000000000D+00 0.181608117506D-02 0.000000000000D+00  5 -1 2 25 24 21 2 0.27515202D-02 0.35281923D+00 0.34195569D+05 0.34195569D+05 0.34195569D+05 0.12089768D+01  1  2  4  1  5  1       -1 -.333538065483D+00 0.100000000000D+01
-.196460239829D-02 0.000000000000D+00 -.583686286149D-03 0.181608117506D-02 0.000000000000D+00  5 -1 2 25 24 21 2 0.35032224D-02 0.35281923D+00 0.34195569D+05 0.34195569D+05 0.34195569D+05 0.12089768D+01  1  2  5  1  5  1       -1 -.512787376758D+00 0.100000000000D+01
0.206176962756D-02 0.000000000000D+00 0.567065392638D-03 0.181608117506D-02 0.000000000000D+00  5 -1 2 25 24 21 2 0.27515202D-02 0.35281923D+00 0.34195569D+05 0.34195569D+05 0.34195569D+05 0.12089768D+01  1  2  6  1  5  1       -1 0.767342556122D+00 0.100000000000D+01
0.239250470238D-04 0.000000000000D+00 0.000000000000D+00 0.181608117506D-02 0.000000000000D+00  5 21 2 25 24 1 2 0.32775573D-02 0.35281923D+00 0.43006839D+05 0.43006839D+05 0.43006839D+05 0.11988168D+01  1  2 12  3  5  1       -1 0.126520119098D+00 0.100000000000D+01
-.555722526711D-04 0.000000000000D+00 -.192565622684D-04 0.181608117506D-02 0.000000000000D+00  5 21 2 25 24 1 2 0.35032224D-02 0.35281923D+00 0.34195569D+05 0.34195569D+05 0.34195569D+05 0.12089768D+01  1  2  5  3  5  1       -1 -.269411370181D+00 0.100000000000D+01
  </mgrwgt>
  </event>
  <event>
  4     66 0.45252658E-03 0.10933064E+03 0.75467711E-02 0.11710204E+00
       -1 -1    0    0    0  501 0.00000000E+00 0.00000000E+00 0.55821010E+02 0.55821927E+02 0.32000000E+00 0.0000E+00 0.9000E+01
        2 -1    0    0  501    0 0.00000000E+00 0.00000000E+00 -.29575776E+03 0.29575793E+03 0.32000000E+00 0.0000E+00 0.9000E+01
       25  1    1    2    0    0 -.28215013E+02 -.23441429E+02 -.45488719E+02 0.13798482E+03 0.12500000E+03 0.0000E+00 0.9000E+01
       24  1    1    2    0    0 0.28215013E+02 0.23441429E+02 -.19444803E+03 0.21359504E+03 0.80419002E+02 0.0000E+00 0.9000E+01
#aMCatNLO 1  0  0  2  1 0.11015131D+03 0.00000000D+00  -5  5  0 0.00000000D+00 0.00000000D+00 0.00000000D+00 0.00000000D+00 0.00000000D+00
  <mgrwgt>
 0.3837064235D+00    3    2    0
 0.128490032846992D+03 0.000000000000000D+00 0.000000000000000D+00 0.128490032846992D+03
 0.128490032846992D+03 0.000000000000000D+00 0.000000000000000D+00 -.128490032846992D+03
 0.146308115391447D+03 -.282150134274664D+02 -.234414292118431D+02 0.665993771982207D+02
 0.110671950302538D+03 0.282150134274664D+02 0.234414292118431D+02 -.665993771982207D+02
 0.000000000000000D+00 0.000000000000000D+00 0.000000000000000D+00 0.000000000000000D+00
 0.224713303707947D+03 0.000000000000000D+00 0.000000000000000D+00 0.224713303707947D+03
 0.175517438547749D+03 0.000000000000000D+00 0.000000000000000D+00 -.175517438547749D+03
 0.170948999736943D+03 -.380978224042146D+02 -.878159404432215D+02 0.665993771982207D+02
 0.108643675728736D+03 0.213831589651768D+02 -.210598145993589D+02 -.665993771982207D+02
 0.120638066790017D+03 0.167146634390378D+02 0.108875755042580D+03 0.491958651601981D+02
0.411828012261D-03 0.000000000000D+00 0.000000000000D+00 0.201608000944D-02 0.000000000000D+00  5 -1 2 25 24 21 0 0.85879316D-02 0.45501278D-01 0.11953188D+05 0.11953188D+05 0.11953188D+05 0.12592231D+01  1  2  2  2  5  2        2 0.375066360338D+00 0.100000000000D+01
-.221540071380D-04 0.000000000000D+00 -.158152800389D-05 0.201608000944D-02 0.000000000000D+00  5 -1 2 25 24 21 2 0.85879316D-02 0.45501278D-01 0.11953188D+05 0.11953188D+05 0.11953188D+05 0.12592231D+01  1  2  3  2  5  2        2 -.319926257317D-01 0.100000000000D+01
0.281370115235D-04 0.000000000000D+00 0.000000000000D+00 0.201608000944D-02 0.000000000000D+00  5 -1 2 25 24 21 2 0.85879316D-02 0.45501278D-01 0.11953188D+05 0.11953188D+05 0.11953188D+05 0.12592231D+01  1  2 15  2  5  2        2 0.406326888527D-01 0.100000000000D+01
  </mgrwgt>
  </event>
  <event>
  4     66 0.45252658E-03 0.73016073E+02 0.75467711E-02 0.11825902E+00
       -1 -1    0    0    0  501 0.00000000E+00 0.00000000E+00 0.78231627E+02 0.78232281E+02 0.32000000E+00 0.0000E+00 0.9000E+01
        2 -1    0    0  501    0 0.00000000E+00 0.00000000E+00 -.23058503E+03 0.23058525E+03 0.32000000E+00 0.0000E+00 0.9000E+01
       25  1    1    2    0    0 0.96145915E+01 0.84086365E+02 -.98473900E+02 0.18023614E+03 0.12500000E+03 0.0000E+00 0.9000E+01
       24  1    1    2    0    0 -.96145915E+01 -.84086365E+02 -.53879499E+02 0.12858139E+03 0.80419002E+02 0.0000E+00 0.9000E+01
#aMCatNLO 1  0  0  2  1 0.57282171D+02 0.00000000D+00  -5  5  0 0.00000000D+00 0.00000000D+00 0.00000000D+00 0.00000000D+00 0.00000000D+00
  <mgrwgt>
 0.4046541410D+00    9    2    0
 0.134310003391175D+03 0.000000000000000D+00 0.000000000000000D+00 0.134310003391175D+03
 0.134310003391175D+03 0.000000000000000D+00 0.000000000000000D+00 -.134310003391175D+03
 0.151355986218972D+03 0.961459149324898D+01 0.840863653981067D+02 -.109853242497267D+02
 0.117264020563377D+03 -.961459149324898D+01 -.840863653981067D+02 0.109853242497267D+02
 0.000000000000000D+00 -.000000000000000D+00 0.000000000000000D+00 -.000000000000000D+00
 0.152862839324105D+03 0.000000000000000D+00 0.000000000000000D+00 0.152862839324105D+03
 0.190140807811847D+03 0.000000000000000D+00 0.000000000000000D+00 -.190140807811847D+03
 0.137099243828514D+03 0.124662865571050D+02 0.538062915369097D+02 -.109853242497267D+02
 0.137560464065291D+03 -.709537308682384D+01 -.110836111675639D+03 0.109853242497267D+02
 0.683439392421462D+02 -.537091347028116D+01 0.570298201387295D+02 -.372779684877421D+02
0.457267592646D-03 0.000000000000D+00 0.000000000000D+00 0.254966342625D-02 0.000000000000D+00  5 -1 2 25 24 21 0 0.12035702D-01 0.35474687D-01 0.17916510D+05 0.17916510D+05 0.17916510D+05 0.12391208D+01  1  2  2  2  5  2        2 0.328895157454D+00 0.100000000000D+01
-.254033956451D-04 0.000000000000D+00 -.175602795708D-05 0.254966342625D-02 0.000000000000D+00  5 -1 2 25 24 21 2 0.12035702D-01 0.35474687D-01 0.17916510D+05 0.17916510D+05 0.17916510D+05 0.12391208D+01  1  2  3  2  5  2        2 -.280547300440D-01 0.100000000000D+01
0.315805387481D-04 0.000000000000D+00 0.000000000000D+00 0.254966342625D-02 0.000000000000D+00  5 -1 2 25 24 21 2 0.12035702D-01 0.35474687D-01 0.17916510D+05 0.17916510D+05 0.17916510D+05 0.12391208D+01  1  2 15  2  5  2        2 0.348765771946D-01 0.100000000000D+01
0.310931824360D-03 0.000000000000D+00 0.000000000000D+00 0.254966342625D-02 0.000000000000D+00  5 -1 2 25 24 21 2 0.12035702D-01 0.51866734D-01 0.27400466D+05 0.27400466D+05 0.27400466D+05 0.12190516D+01  1  2 12  2  5  2        2 0.224454290035D+00 0.100000000000D+01
-.398884305018D-03 0.000000000000D+00 0.000000000000D+00 0.254966342625D-02 0.000000000000D+00  5 -1 2 25 24 21 2 0.12035702D-01 0.35474687D-01 0.17916510D+05 0.17916510D+05 0.17916510D+05 0.12391208D+01  1  2  4  2  5  2        2 -.440515577224D+00 0.100000000000D+01
-.553256679362D-03 0.000000000000D+00 -.211420025410D-03 0.254966342625D-02 0.000000000000D+00  5 -1 2 25 24 21 2 0.12035702D-01 0.56055936D-01 0.17916510D+05 0.17916510D+05 0.17916510D+05 0.12391208D+01  1  2  5  2  5  2        2 -.375885482845D+00 0.100000000000D+01
0.605815060794D-03 0.000000000000D+00 0.191069965153D-03 0.254966342625D-02 0.000000000000D+00  5 -1 2 25 24 21 2 0.12035702D-01 0.35474687D-01 0.17916510D+05 0.17916510D+05 0.17916510D+05 0.12391208D+01  1  2  6  2  5  2        2 0.669043549319D+00 0.100000000000D+01
0.142520968210D-04 0.000000000000D+00 0.000000000000D+00 0.254966342625D-02 0.000000000000D+00  5 -1 21 25 24 -2 2 0.12035702D-01 0.51866734D-01 0.27400466D+05 0.27400466D+05 0.27400466D+05 0.12190516D+01  1  2 12  4  5  2        2 0.306230806009D-01 0.100000000000D+01
-.205273796888D-04 0.000000000000D+00 -.111260310933D-04 0.254966342625D-02 0.000000000000D+00  5 -1 21 25 24 -2 2 0.12035702D-01 0.56055936D-01 0.17916510D+05 0.17916510D+05 0.17916510D+05 0.12391208D+01  1  2  5  4  5  2        2 -.387827234504D-01 0.100000000000D+01
  </mgrwgt>
  </event>
  <event>
  4     66 0.45252658E-03 0.17330832E+03 0.75467711E-02 0.86109549E-01
       -1 -1    0    0    0  501 0.00000000E+00 0.00000000E+00 0.40586422E+02 0.40587684E+02 0.32000000E+00 0.0000E+00 0.9000E+01
        2 -1    0    0  501    0 0.00000000E+00 0.00000000E+00 -.77852740E+03 0.77852746E+03 0.32000000E+00 0.0000E+00 0.9000E+01
       25  1    1    2    0    0 -.66582411E+02 0.12137116E+03 -.48652375E+03 0.52105137E+03 0.12500000E+03 0.0000E+00 0.9000E+01
       24  1    1    2    0    0 0.66582411E+02 -.12137116E+03 -.25141723E+03 0.29806377E+03 0.80419002E+02 0.0000E+00 0.9000E+01
#aMCatNLO 1  0  0  2  1 0.19774457D+04 0.00000000D+00  -5  5  0 0.00000000D+00 0.00000000D+00 0.00000000D+00 0.00000000D+00 0.00000000D+00
  <mgrwgt>
 0.6256046291D+00    3    2    0
 0.177758784066169D+03 0.000000000000000D+00 0.000000000000000D+00 0.177758784066169D+03
 0.177758784066169D+03 0.000000000000000D+00 0.000000000000000D+00 -.177758784066169D+03
 0.190638293922375D+03 -.665824109795090D+02 0.121371158185344D+03 -.394180620850100D+02
 0.164879274209964D+03 0.665824109795090D+02 -.121371158185344D+03 0.394180620850100D+02
 0.000000000000000D+00 0.000000000000000D+00 -.000000000000000D+00 0.000000000000000D+00
 0.430538220583231D+04 0.000000000000000D+00 0.000000000000000D+00 0.430538220583231D+04
 0.130073686499022D+04 0.000000000000000D+00 0.000000000000000D+00 -.130073686499022D+04
 0.184021082951054D+04 -.673424913383943D+03 0.170754092175361D+04 -.394180620850100D+02
 0.168939339140936D+03 -.331666645857936D+02 0.139353769582030D+03 0.394180620850100D+02
 0.359696890217105D+04 0.706591577969737D+03 -.184689469133564D+04 0.300464534084210D+04
0.118997257729D-02 0.000000000000D+00 0.000000000000D+00 0.214015527821D-02 0.000000000000D+00  5 -1 2 25 24 21 0 0.62441671D-02 0.11977355D+00 0.30035773D+05 0.30035773D+05 0.30035773D+05 0.12148441D+01  1  2  2  2  5  2        2 0.613704702278D+00 0.100000000000D+01
-.660579122850D-04 0.000000000000D+00 -.456980802376D-05 0.214015527821D-02 0.000000000000D+00  5 -1 2 25 24 21 2 0.62441671D-02 0.11977355D+00 0.30035773D+05 0.30035773D+05 0.30035773D+05 0.12148441D+01  1  2  3  2  5  2        2 -.502792079050D-01 0.100000000000D+01
0.816922939016D-04 0.000000000000D+00 0.000000000000D+00 0.214015527821D-02 0.000000000000D+00  5 -1 2 25 24 21 2 0.62441671D-02 0.11977355D+00 0.30035773D+05 0.30035773D+05 0.30035773D+05 0.12148441D+01  1  2 15  2  5  2        2 0.621791347507D-01 0.100000000000D+01
  </mgrwgt>
  </event>
  <event>
  4     66 -.45252658E-03 0.67183389E+02 0.75467711E-02 0.12539184E+00
       -1 -1    0    0    0  501 0.00000000E+00 0.00000000E+00 0.98572706E+01 0.98624634E+01 0.32000000E+00 0.0000E+00 0.9000E+01
        2 -1    0    0  501    0 0.00000000E+00 0.00000000E+00 -.12984172E+04 0.12984172E+04 0.32000000E+00 0.0000E+00 0.9000E+01
       25  1    1    2    0    0 -.86888277E+01 0.45697148E+02 -.76738900E+03 0.77889319E+03 0.12500000E+03 0.0000E+00 0.9000E+01
       24  1    1    2    0    0 0.86888277E+01 -.45697148E+02 -.52117089E+03 0.52938647E+03 0.80419002E+02 0.0000E+00 0.9000E+01
#aMCatNLO 1  0  0  1  2 0.10628759D+01 0.00000000D+00  -5  5  0 0.00000000D+00 0.00000000D+00 0.00000000D+00 0.00000000D+00 0.00000000D+00
  <mgrwgt>
 -.2950297054D-01   11    2    0
 0.113147125073257D+03 0.000000000000000D+00 0.000000000000000D+00 0.113147125073257D+03
 0.113147125073257D+03 0.000000000000000D+00 0.000000000000000D+00 -.113147125073257D+03
 0.133381364431306D+03 -.868882774349020D+01 0.456971480433702D+02 -.136503139272338D+01
 0.929128857152085D+02 0.868882774349020D+01 -.456971480433702D+02 0.136503139272338D+01
 0.000000000000000D+00 -.000000000000000D+00 -.000000000000000D+00 0.000000000000000D+00
 0.125305243907186D+03 0.000000000000000D+00 0.000000000000000D+00 0.125305243907186D+03
 0.113171604940255D+03 0.000000000000000D+00 0.000000000000000D+00 -.113171604940255D+03
 0.133585956182951D+03 -.857085489142075D+01 0.463129012807498D+02 -.136503139272338D+01
 0.927107900476354D+02 0.877085484100525D+01 -.452690118242169D+02 0.136503139272338D+01
 0.121801026168546D+02 -.199999949584504D+00 -.104388945653296D+01 0.121336389669305D+02
0.573815019390D-04 0.000000000000D+00 0.000000000000D+00 0.293020384885D-02 0.000000000000D+00  5 -1 2 25 24 21 0 0.15169056D-02 0.19975689D+00 0.12800347D+05 0.12800347D+05 0.12800347D+05 0.12557510D+01  1  2  2  1  5  1       -1 0.111913327838D+00 0.100000000000D+01
-.318786119692D-05 0.000000000000D+00 -.220360076342D-06 0.293020384885D-02 0.000000000000D+00  5 -1 2 25 24 21 2 0.15169056D-02 0.19975689D+00 0.12800347D+05 0.12800347D+05 0.12800347D+05 0.12557510D+01  1  2  3  1  5  1       -1 -.980429515888D-02 0.100000000000D+01
0.395510360536D-05 0.000000000000D+00 0.000000000000D+00 0.293020384885D-02 0.000000000000D+00  5 -1 2 25 24 21 2 0.15169056D-02 0.19975689D+00 0.12800347D+05 0.12800347D+05 0.12800347D+05 0.12557510D+01  1  2 15  1  5  1       -1 0.121639559365D-01 0.100000000000D+01
0.259369069114D-06 0.000000000000D+00 0.000000000000D+00 0.293020384885D-02 0.000000000000D+00  5 -1 2 25 24 21 2 0.16800572D-02 0.19975689D+00 0.12921164D+05 0.12921164D+05 0.12921164D+05 0.12552770D+01  1  2 12  1  5  1       -1 0.689004622270D-03 0.100000000000D+01
-.164293001542D-01 0.000000000000D+00 0.000000000000D+00 0.293020384885D-02 0.000000000000D+00  5 -1 2 25 24 21 2 0.15169056D-02 0.19975689D+00 0.12800347D+05 0.12800347D+05 0.12800347D+05 0.12557510D+01  1  2  4  1  5  1       -1 -.505284571740D+02 0.100000000000D+01
-.167507265747D-01 0.000000000000D+00 -.696005940455D-04 0.293020384885D-02 0.000000000000D+00  5 -1 2 25 24 21 2 0.16801354D-02 0.19975689D+00 0.12800347D+05 0.12800347D+05 0.12800347D+05 0.12557510D+01  1  2  5  1  5  1       -1 -.445148111727D+02 0.100000000000D+01
0.166710594968D-01 0.000000000000D+00 0.692386723575D-04 0.293020384885D-02 0.000000000000D+00  5 -1 2 25 24 21 2 0.15169056D-02 0.19975689D+00 0.12800347D+05 0.12800347D+05 0.12800347D+05 0.12557510D+01  1  2  6  1  5  1       -1 0.512719901593D+02 0.100000000000D+01
0.165145815845D-01 0.000000000000D+00 0.000000000000D+00 0.293020384885D-02 0.219111869499D-01  5 -1 2 25 24 21 2 0.16799033D-02 0.19980011D+00 0.12921164D+05 0.12921164D+05 0.12921164D+05 0.12552770D+01  1  2 11  1  5  1       -1 0.438609673734D+02 0.100000000000D+01
0.429445733176D-08 0.000000000000D+00 0.000000000000D+00 0.293020384885D-02 0.000000000000D+00  5 21 2 25 24 1 2 0.16800572D-02 0.19975689D+00 0.12921164D+05 0.12921164D+05 0.12921164D+05 0.12552770D+01  1  2 12  3  5  1       -1 0.245364554103D-03 0.100000000000D+01
-.276990774507D-03 0.000000000000D+00 -.115191196257D-05 0.293020384885D-02 0.000000000000D+00  5 21 2 25 24 1 2 0.16801354D-02 0.19975689D+00 0.12800347D+05 0.12800347D+05 0.12800347D+05 0.12557510D+01  1  2  5  3  5  1       -1 -.158340374618D+02 0.100000000000D+01
0.273084867877D-03 0.000000000000D+00 0.000000000000D+00 0.293020384885D-02 0.362287790539D-03  5 21 2 25 24 1 2 0.16799033D-02 0.19980011D+00 0.12921164D+05 0.12921164D+05 0.12921164D+05 0.12552770D+01  1  2 11  3  5  1       -1 0.155996379474D+02 0.100000000000D+01
  </mgrwgt>
  </event>
  <event>
  4     66 0.45252658E-03 0.18867505E+03 0.75467711E-02 0.11168182E+00
       -1 -1    0    0    0  501 0.00000000E+00 0.00000000E+00 0.36492205E+02 0.36493608E+02 0.32000000E+00 0.0000E+00 0.9000E+01
        2 -1    0    0  501    0 0.00000000E+00 0.00000000E+00 -.10978552E+04 0.10978552E+04 0.32000000E+00 0.0000E+00 0.9000E+01
       25  1    1    2    0    0 0.12737668E+03 -.92057532E+02 -.37199702E+03 0.42273654E+03 0.12500000E+03 0.0000E+00 0.9000E+01
       24  1    1    2    0    0 -.12737668E+03 0.92057532E+02 -.68936594E+03 0.71161227E+03 0.80419002E+02 0.0000E+00 0.9000E+01
#aMCatNLO 1  0  0  2  2 0.98887121D+02 0.00000000D+00  -5  5  0 0.00000000D+00 0.00000000D+00 0.00000000D+00 0.00000000D+00 0.00000000D+00
  <mgrwgt>
 0.4311777711D+00    7    2    0
 0.200159879252149D+03 0.000000000000000D+00 0.000000000000000D+00 0.200159879252149D+03
 0.200159879252149D+03 0.000000000000000D+00 0.000000000000000D+00 -.200159879252149D+03
 0.211597965745613D+03 0.127376676269676D+03 -.920575317883975D+02 0.667030156079910D+02
 0.188721792758685D+03 -.127376676269676D+03 0.920575317883975D+02 -.667030156079910D+02
 0.000000000000000D+00 -.000000000000000D+00 -.000000000000000D+00 -.000000000000000D+00
 0.253797695347728D+03 0.000000000000000D+00 0.000000000000000D+00 0.253797695347728D+03
 0.257511628007436D+03 0.000000000000000D+00 0.000000000000000D+00 -.257511628007436D+03
 0.212562935315204D+03 0.151502156540636D+03 -.464306551983929D+02 0.667030156079910D+02
 0.199789549415599D+03 -.105278876361131D+03 0.133849594703365D+03 -.667030156079910D+02
 0.989568386243613D+02 -.462232801795048D+02 -.874189395049725D+02 -.371393265970791D+01
0.945772461676D-03 0.000000000000D+00 0.000000000000D+00 0.193465842634D-02 0.000000000000D+00  5 -1 2 25 24 21 0 0.56142968D-02 0.16890091D+00 0.35598273D+05 0.35598273D+05 0.35598273D+05 0.12071760D+01  1  2  2  2  5  2        2 0.361239621633D+00 0.100000000000D+01
-.523198516904D-04 0.000000000000D+00 -.363201528044D-05 0.193465842634D-02 0.000000000000D+00  5 -1 2 25 24 21 2 0.56142968D-02 0.16890091D+00 0.35598273D+05 0.35598273D+05 0.35598273D+05 0.12071760D+01  1  2  3  2  5  2        2 -.291216802913D-01 0.100000000000D+01
0.648822047652D-04 0.000000000000D+00 0.000000000000D+00 0.193465842634D-02 0.000000000000D+00  5 -1 2 25 24 21 2 0.56142968D-02 0.16890091D+00 0.35598273D+05 0.35598273D+05 0.35598273D+05 0.12071760D+01  1  2 15  2  5  2        2 0.361139942625D-01 0.100000000000D+01
-.394465666845D-03 0.000000000000D+00 0.000000000000D+00 0.193465842634D-02 0.000000000000D+00  5 -1 2 25 24 21 2 0.56142968D-02 0.16890091D+00 0.35598273D+05 0.35598273D+05 0.35598273D+05 0.12071760D+01  1  2  4  2  5  2        2 -.219562989278D+00 0.100000000000D+01
-.794942571208D-03 0.000000000000D+00 -.408009129131D-03 0.193465842634D-02 0.000000000000D+00  5 -1 2 25 24 21 2 0.56142968D-02 0.25270974D+00 0.35598273D+05 0.35598273D+05 0.35598273D+05 0.12071760D+01  1  2  5  2  5  2        2 -.223887418981D+00 0.100000000000D+01
0.915068238959D-03 0.000000000000D+00 0.376990272363D-03 0.193465842634D-02 0.000000000000D+00  5 -1 2 25 24 21 2 0.56142968D-02 0.16890091D+00 0.35598273D+05 0.35598273D+05 0.35598273D+05 0.12071760D+01  1  2  6  2  5  2        2 0.509334866952D+00 0.100000000000D+01
-.239780539708D-04 0.000000000000D+00 -.195255119927D-04 0.193465842634D-02 0.000000000000D+00  5 -1 21 25 24 -2 2 0.56142968D-02 0.25270974D+00 0.35598273D+05 0.35598273D+05 0.35598273D+05 0.12071760D+01  1  2  5  4  5  2        2 -.293862315046D-02 0.100000000000D+01
  </mgrwgt>
  </event>
  <event>
  4     66 0.45252658E-03 0.64322668E+02 0.75467711E-02 0.11289648E+00
       -1 -1    0    0    0  501 0.00000000E+00 0.00000000E+00 0.16680147E+02 0.16683217E+02 0.32000000E+00 0.0000E+00 0.9000E+01
        2 -1    0    0  501    0 0.00000000E+00 0.00000000E+00 -.13482231E+04 0.13482231E+04 0.32000000E+00 0.0000E+00 0.9000E+01
       25  1    1    2    0    0 -.97948693E+02 0.94379939E+01 -.53030818E+03 0.55365584E+03 0.12500000E+03 0.0000E+00 0.9000E+01
       24  1    1    2    0    0 0.97948693E+02 -.94379939E+01 -.80123476E+03 0.81125050E+03 0.80419002E+02 0.0000E+00 0.9000E+01
#aMCatNLO 1  0  0  1  2 0.13634335D+03 0.00000000D+00  -5  5  0 0.00000000D+00 0.00000000D+00 0.00000000D+00 0.00000000D+00 0.00000000D+00
  <mgrwgt>
 0.2807077994D+00    7    2    0
 0.149968931633292D+03 0.000000000000000D+00 0.000000000000000D+00 0.149968931633292D+03
 0.149968931633292D+03 0.000000000000000D+00 0.000000000000000D+00 -.149968931633292D+03
 0.165235067001954D+03 -.979486934438498D+02 0.943799389933864D+01 0.446610019025430D+02
 0.134702796264631D+03 0.979486934438498D+02 -.943799389933864D+01 -.446610019025430D+02
 0.000000000000000D+00 -.000000000000000D+00 0.000000000000000D+00 0.000000000000000D+00
 0.296930881990276D+03 0.000000000000000D+00 0.000000000000000D+00 0.296930881990276D+03
 0.199891914756731D+03 0.000000000000000D+00 0.000000000000000D+00 -.199891914756731D+03
 0.171495789886837D+03 -.885194296440048D+02 -.628928567761968D+02 0.446610019025430D+02
 0.157976865323667D+03 0.106144419144381D+03 -.723065088127224D+02 -.446610019025430D+02
 0.167350141536503D+03 -.176249895003765D+02 0.135199365588919D+03 0.970389672335448D+02
0.335258255851D-03 0.000000000000D+00 0.000000000000D+00 0.221431526675D-02 0.000000000000D+00  5 -1 2 25 24 21 0 0.25664155D-02 0.20741918D+00 0.20473108D+05 0.20473108D+05 0.20473108D+05 0.12327098D+01  1  2  2  1  5  1       -1 0.292151667233D+00 0.100000000000D+01
-.185754459327D-04 0.000000000000D+00 -.128747997799D-05 0.221431526675D-02 0.000000000000D+00  5 -1 2 25 24 21 2 0.25664155D-02 0.20741918D+00 0.20473108D+05 0.20473108D+05 0.20473108D+05 0.12327098D+01  1  2  3  1  5  1       -1 -.245974343192D-01 0.100000000000D+01
0.231562678916D-04 0.000000000000D+00 0.000000000000D+00 0.221431526675D-02 0.000000000000D+00  5 -1 2 25 24 21 2 0.25664155D-02 0.20741918D+00 0.20473108D+05 0.20473108D+05 0.20473108D+05 0.12327098D+01  1  2 15  1  5  1       -1 0.306633165420D-01 0.100000000000D+01
0.420964806751D-06 0.000000000000D+00 0.000000000000D+00 0.221431526675D-02 0.000000000000D+00  5 -1 2 25 24 21 2 0.51598177D-02 0.20741918D+00 0.51405175D+05 0.51405175D+05 0.51405175D+05 0.11910915D+01  1  2 12  1  5  1       -1 0.187824822726D-03 0.100000000000D+01
-.531460566164D-04 0.000000000000D+00 -.957693794240D-04 0.221431526675D-02 0.000000000000D+00  5 -1 2 25 24 21 2 0.69475349D-02 0.20741918D+00 0.20473108D+05 0.20473108D+05 0.20473108D+05 0.12327098D+01  1  2  5  1  5  1       -1 -.162138086705D-01 0.100000000000D+01
0.318047203871D-07 0.000000000000D+00 0.000000000000D+00 0.221431526675D-02 0.000000000000D+00  5 21 2 25 24 1 2 0.51598177D-02 0.20741918D+00 0.51405175D+05 0.51405175D+05 0.51405175D+05 0.11910915D+01  1  2 12  3  5  1       -1 0.242144568303D-03 0.100000000000D+01
-.346822072580D-06 0.000000000000D+00 -.106437051805D-04 0.221431526675D-02 0.000000000000D+00  5 21 2 25 24 1 2 0.69475349D-02 0.20741918D+00 0.20473108D+05 0.20473108D+05 0.20473108D+05 0.12327098D+01  1  2  5  3  5  1       -1 -.172591076291D-02 0.100000000000D+01
  </mgrwgt>
  </event>
  <event>
  4     66 0.45252658E-03 0.11263758E+03 0.75467711E-02 0.11366041E+00
       -1 -1    0    0    0  501 0.00000000E+00 0.00000000E+00 0.62781327E+01 0.62862827E+01 0.32000000E+00 0.0000E+00 0.9000E+01
        2 -1    0    0  501    0 0.00000000E+00 0.00000000E+00 -.20358343E+04 0.20358343E+04 0.32000000E+00 0.0000E+00 0.9000E+01
       25  1    1    2    0    0 -.45203581E+02 -.33001264E+01 -.12862903E+04 0.12931442E+04 0.12500000E+03 0.0000E+00 0.9000E+01
       24  1    1    2    0    0 0.45203581E+02 0.33001264E+01 -.74326589E+03 0.74897641E+03 0.80419002E+02 0.0000E+00 0.9000E+01
#aMCatNLO 1  0  0  2  2 0.15774238D+03 0.00000000D+00  -5  5  0 0.00000000D+00 0.00000000D+00 0.00000000D+00 0.00000000D+00 0.00000000D+00
  <mgrwgt>
 0.3350277009D+00    5    2    0
 0.113091048545761D+03 0.000000000000000D+00 0.000000000000000D+00 0.113091048545761D+03
 0.113091048545761D+03 0.000000000000000D+00 0.000000000000000D+00 -.113091048545761D+03
 0.133335321110631D+03 -.452035812796325D+02 -.330012640591822D+01 -.995255047089344D+01
 0.928467759808901D+02 0.452035812796325D+02 0.330012640591822D+01 0.995255047089344D+01
 0.000000000000000D+00 -.000000000000000D+00 0.000000000000000D+00 -.000000000000000D+00
 0.207665616212511D+03 0.000000000000000D+00 0.000000000000000D+00 0.207665616212511D+03
 0.227014312885574D+03 0.000000000000000D+00 0.000000000000000D+00 -.227014312885574D+03
 0.136397272735142D+03 0.282327908975205D+02 -.456406865290813D+02 -.995255047089344D+01
 0.139358051693920D+03 0.108422786283123D+03 -.331496119326215D+02 0.995255047089344D+01
 0.158924604669023D+03 -.136655577180643D+03 0.787902984617028D+02 -.193486966730626D+02
0.212414323145D-03 0.000000000000D+00 0.000000000000D+00 0.291267880277D-02 0.000000000000D+00  5 -1 2 25 24 21 0 0.96649543D-03 0.31320591D+00 0.12687226D+05 0.12687226D+05 0.12687226D+05 0.12561994D+01  1  2  2  2  5  2        2 0.329181825742D+00 0.100000000000D+01
-.118005641158D-04 0.000000000000D+00 -.815726930853D-06 0.291267880277D-02 0.000000000000D+00  5 -1 2 25 24 21 2 0.96649543D-03 0.31320591D+00 0.12687226D+05 0.12687226D+05 0.12687226D+05 0.12561994D+01  1  2  3  2  5  2        2 -.288583845319D-01 0.100000000000D+01
0.146571652668D-04 0.000000000000D+00 0.000000000000D+00 0.291267880277D-02 0.000000000000D+00  5 -1 2 25 24 21 2 0.96649543D-03 0.31320591D+00 0.12687226D+05 0.12687226D+05 0.12687226D+05 0.12561994D+01  1  2 15  2  5  2        2 0.358442280613D-01 0.100000000000D+01
-.245912090958D-04 0.000000000000D+00 -.561626434751D-04 0.291267880277D-02 0.000000000000D+00  5 -1 2 25 24 21 2 0.96649543D-03 0.71675116D+00 0.12687226D+05 0.12687226D+05 0.12687226D+05 0.12561994D+01  1  2  5  2  5  2        2 -.114141677257D-02 0.100000000000D+01
0.133868730911D-05 0.000000000000D+00 -.505735677903D-05 0.291267880277D-02 0.000000000000D+00  5 -1 21 25 24 -2 2 0.96649543D-03 0.71675116D+00 0.12687226D+05 0.12687226D+05 0.12687226D+05 0.12561994D+01  1  2  5  4  5  2        2 0.144839883218D-05 0.100000000000D+01
  </mgrwgt>
  </event>
  <event>
  5     66 0.45252658E-03 0.13727478E+03 0.75467711E-02 0.12103227E+00
       -1 -1    0    0    0  501 0.00000000E+00 0.00000000E+00 0.19827874E+03 0.19827899E+03 0.32000000E+00 0.0000E+00 0.9000E+01
        2 -1    0    0  502    0 0.00000000E+00 0.00000000E+00 -.11325819E+03 0.11325865E+03 0.32000000E+00 0.0000E+00 0.9000E+01
       25  1    1    2    0    0 0.92031101E+02 0.24949207E+02 -.19560759E+01 0.15722917E+03 0.12500000E+03 0.0000E+00 0.9000E+01
       24  1    1    2    0    0 -.82906406E+02 -.21187949E+02 0.78244519E+02 0.14110926E+03 0.80419002E+02 0.0000E+00 0.9000E+01
       21  1    1    2  502  501 -.91246949E+01 -.37612580E+01 0.87320997E+01 0.13199211E+02 0.75000000E+00 0.0000E+00 0.9000E+01
#aMCatNLO 2  0  0  2  2 0.98695045D+01 0.00000000D+00  -5  5  0 0.00000000D+00 0.00000000D+00 0.00000000D+00 0.00000000D+00 0.00000000D+00
  <mgrwgt>
 0.3162197131D+00    2    2    0
 0.144125365750345D+03 0.000000000000000D+00 0.000000000000000D+00 0.144125365750345D+03
 0.144125365750345D+03 0.000000000000000D+00 0.000000000000000D+00 -.144125365750345D+03
 0.160010466887734D+03 0.869176523980664D+02 0.228414108990065D+02 -.436112504221362D+02
 0.128240264612957D+03 -.869176523980664D+02 -.228414108990065D+02 0.436112504221362D+02
 0.000000000000000D+00 -.000000000000000D+00 -.000000000000000D+00 0.000000000000000D+00
 0.152639361591155D+03 0.000000000000000D+00 0.000000000000000D+00 0.152639361591155D+03
 0.147098684681888D+03 0.000000000000000D+00 0.000000000000000D+00 -.147098684681888D+03
 0.163153693404662D+03 0.920311010406618D+02 0.249492073910938D+02 -.436112504221362D+02
 0.125265951087431D+03 -.829064061837902D+02 -.211879493527382D+02 0.436112504221362D+02
 0.113184017809493D+02 -.912469485687168D+01 -.376125803835561D+01 0.554067690926666D+01
-.666675178682D-04 0.000000000000D+00 0.000000000000D+00 0.225602868313D-02 0.000000000000D+00  5 -1 2 25 24 21 2 0.28800575D-01 0.17070765D-01 0.18844366D+05 0.18844366D+05 0.18844366D+05 0.12366819D+01  1  2  8  2  5  2        2 -.408940511259D-01 0.100000000000D+01
0.658750502632D-03 0.000000000000D+00 0.000000000000D+00 0.225602868313D-02 0.188070331369D-03  5 -1 2 25 24 21 2 0.30501927D-01 0.17422936D-01 0.20237297D+05 0.20237297D+05 0.20237297D+05 0.12332625D+01  1  2  1  2  5  2        2 0.357113764250D+00 0.100000000000D+01
  </mgrwgt>
  </event>
  <event>
  4     66 0.45252658E-03 0.15013143E+03 0.75467711E-02 0.11113682E+00
       -1 -1    0    0    0  501 0.00000000E+00 0.00000000E+00 0.14604945E+02 0.14608451E+02 0.32000000E+00 0.0000E+00 0.9000E+01
        2 -1    0    0  501    0 0.00000000E+00 0.00000000E+00 -.15625826E+04 0.15625826E+04 0.32000000E+00 0.0000E+00 0.9000E+01
       25  1    1    2    0    0 0.87541539E+02 -.63736699E+02 -.76398921E+03 0.78168433E+03 0.12500000E+03 0.0000E+00 0.9000E+01
       24  1    1    2    0    0 -.87541539E+02 0.63736699E+02 -.78398843E+03 0.79550673E+03 0.80419002E+02 0.0000E+00 0.9000E+01
#aMCatNLO 1  0  0  1  1 0.16428917D+03 0.00000000D+00  -5  5  0 0.00000000D+00 0.00000000D+00 0.00000000D+00 0.00000000D+00 0.00000000D+00
  <mgrwgt>
 0.5771225263D+00    3    2    0
 0.151076878530668D+03 0.000000000000000D+00 0.000000000000000D+00 0.151076878530668D+03
 0.151076878530668D+03 0.000000000000000D+00 0.000000000000000D+00 -.151076878530668D+03
 0.166231057208927D+03 0.875415385691167D+02 -.637366985557169D+02 0.167891829154078D+02
 0.135922699852409D+03 -.875415385691167D+02 0.637366985557169D+02 -.167891829154078D+02
 0.000000000000000D+00 -.000000000000000D+00 0.000000000000000D+00 -.000000000000000D+00
 0.193299837028223D+03 0.000000000000000D+00 0.000000000000000D+00 0.193299837028223D+03
 0.488242470742327D+03 0.000000000000000D+00 0.000000000000000D+00 -.488242470742327D+03
 0.247400048615000D+03 0.181038806579933D+03 -.111914511587421D+03 0.167891829154078D+02
 0.965299229071087D+02 -.349978955404529D+02 0.366617062730901D+02 -.167891829154078D+02
 0.337612336248441D+03 -.146040911039480D+03 0.752528053143305D+02 -.294942633714104D+03
0.693003849025D-03 0.000000000000D+00 0.000000000000D+00 0.237365979789D-02 0.000000000000D+00  5 -1 2 25 24 21 0 0.22471868D-02 0.24039759D+00 0.22539445D+05 0.22539445D+05 0.22539445D+05 0.12281515D+01  1  2  2  1  5  1       -1 0.565777310850D+00 0.100000000000D+01
-.384983690181D-04 0.000000000000D+00 -.266131725236D-05 0.237365979789D-02 0.000000000000D+00  5 -1 2 25 24 21 2 0.22471868D-02 0.24039759D+00 0.22539445D+05 0.22539445D+05 0.22539445D+05 0.12281515D+01  1  2  3  1  5  1       -1 -.474084845030D-01 0.100000000000D+01
0.477113252098D-04 0.000000000000D+00 0.000000000000D+00 0.237365979789D-02 0.000000000000D+00  5 -1 2 25 24 21 2 0.22471868D-02 0.24039759D+00 0.22539445D+05 0.22539445D+05 0.22539445D+05 0.12281515D+01  1  2 15  1  5  1       -1 0.587536999494D-01 0.100000000000D+01
  </mgrwgt>
  </event>
  <event>
  4     66 0.45252658E-03 0.10964804E+03 0.75467711E-02 0.12397509E+00
       -1 -1    0    0    0  501 0.00000000E+00 0.00000000E+00 0.13395395E+03 0.13395433E+03 0.32000000E+00 0.0000E+00 0.9000E+01
        2 -1    0    0  501    0 0.00000000E+00 0.00000000E+00 -.10326758E+03 0.10326807E+03 0.32000000E+00 0.0000E+00 0.9000E+01
       25  1    1    2    0    0 0.32614173E+02 0.18678112E+02 0.60111577E+02 0.14370441E+03 0.12500000E+03 0.0000E+00 0.9000E+01
       24  1    1    2    0    0 -.32614173E+02 -.18678112E+02 -.29425208E+02 0.93517993E+02 0.80419002E+02 0.0000E+00 0.9000E+01
#aMCatNLO 1  0  0  1  2 0.23713325D+02 0.00000000D+00  -5  5  0 0.00000000D+00 0.00000000D+00 0.00000000D+00 0.00000000D+00 0.00000000D+00
  <mgrwgt>
 0.3725729762D+00    4    2    0
 0.117614641753643D+03 0.000000000000000D+00 0.000000000000000D+00 0.117614641753643D+03
 0.117614641753643D+03 0.000000000000000D+00 0.000000000000000D+00 -.117614641753643D+03
 0.137080296516277D+03 0.326141729012030D+02 0.186781120663916D+02 0.418742349016222D+02
 0.981489869910078D+02 -.326141729012030D+02 -.186781120663916D+02 -.418742349016222D+02
 0.000000000000000D+00 -.000000000000000D+00 -.000000000000000D+00 -.000000000000000D+00
 0.120163594845204D+03 0.000000000000000D+00 0.000000000000000D+00 0.120163594845204D+03
 0.190198742136834D+03 0.000000000000000D+00 0.000000000000000D+00 -.190198742136834D+03
 0.140879490816539D+03 0.385691452213011D+02 0.313209262479461D+02 0.418742349016222D+02
 0.955420344354692D+02 -.284645630518289D+02 -.986820608672436D+01 -.418742349016222D+02
 0.739408117300294D+02 -.101045821694721D+02 -.214527201612217D+02 -.700351472916303D+02
0.517804491085D-03 0.000000000000D+00 0.000000000000D+00 0.252227912701D-02 0.000000000000D+00  5 -1 2 25 24 21 0 0.20608367D-01 0.15887387D-01 0.12022692D+05 0.12022692D+05 0.12022692D+05 0.12589280D+01  1  2  2  1  5  1       -1 0.384289990247D+00 0.100000000000D+01
-.285948556322D-04 0.000000000000D+00 -.198850558682D-05 0.252227912701D-02 0.000000000000D+00  5 -1 2 25 24 21 2 0.20608367D-01 0.15887387D-01 0.12022692D+05 0.12022692D+05 0.12022692D+05 0.12589280D+01  1  2  3  1  5  1       -1 -.336343412645D-01 0.100000000000D+01
0.357463400793D-04 0.000000000000D+00 0.000000000000D+00 0.252227912701D-02 0.000000000000D+00  5 -1 2 25 24 21 2 0.20608367D-01 0.15887387D-01 0.12022692D+05 0.12022692D+05 0.12022692D+05 0.12589280D+01  1  2 15  1  5  1       -1 0.420461853925D-01 0.100000000000D+01
-.171129200752D-04 0.000000000000D+00 0.000000000000D+00 0.252227912701D-02 0.000000000000D+00  5 -1 2 25 24 21 2 0.20608367D-01 0.15887387D-01 0.12022692D+05 0.12022692D+05 0.12022692D+05 0.12589280D+01  1  2  4  1  5  1       -1 -.201288581850D-01 0.100000000000D+01
  </mgrwgt>
  </event>
  <event>
  4     66 0.45252658E-03 0.17280652E+03 0.75467711E-02 0.10865046E+00
       -1 -1    0    0    0  501 0.00000000E+00 0.00000000E+00 0.43663523E+02 0.43664696E+02 0.32000000E+00 0.0000E+00 0.9000E+01
        2 -1    0    0  501    0 0.00000000E+00 0.00000000E+00 -.70595372E+03 0.70595380E+03 0.32000000E+00 0.0000E+00 0.9000E+01
       25  1    1    2    0    0 -.53247723E+02 0.12710701E+03 -.28968787E+03 0.34428995E+03 0.12500000E+03 0.0000E+00 0.9000E+01
       24  1    1    2    0    0 0.53247723E+02 -.12710701E+03 -.37260233E+03 0.40532854E+03 0.80419002E+02 0.0000E+00 0.9000E+01
#aMCatNLO 1  0  0  1  1 0.19744589D+03 0.00000000D+00  -5  5  0 0.00000000D+00 0.00000000D+00 0.00000000D+00 0.00000000D+00 0.00000000D+00
  <mgrwgt>
 0.5090545042D+00    3    2    0
 0.175570195583478D+03 0.000000000000000D+00 0.000000000000000D+00 0.175570195583478D+03
 0.175570195583478D+03 0.000000000000000D+00 0.000000000000000D+00 -.175570195583478D+03
 0.188610256305622D+03 -.532477225211821D+02 0.127107005339202D+03 0.309405562923480D+02
 0.162530134861333D+03 0.532477225211821D+02 -.127107005339202D+03 -.309405562923480D+02
 0.000000000000000D+00 -.000000000000000D+00 -.000000000000000D+00 -.000000000000000D+00
 0.276492951249748D+03 0.000000000000000D+00 0.000000000000000D+00 0.276492951249748D+03
 0.331250763641672D+03 0.000000000000000D+00 0.000000000000000D+00 -.331250763641672D+03
 0.264555775228986D+03 0.398111383184521D+01 0.231066204616745D+03 0.309405562923480D+02
 0.138289673669189D+03 0.912372592387583D+02 -.580970084606762D+02 -.309405562923480D+02
 0.204898265993245D+03 -.952183730706035D+02 -.172969196156069D+03 -.547578123919240D+02
0.959095637231D-03 0.000000000000D+00 0.000000000000D+00 0.218795908000D-02 0.000000000000D+00  5 -1 2 25 24 21 0 0.67175609D-02 0.10860836D+00 0.29862093D+05 0.29862093D+05 0.29862093D+05 0.12151085D+01  1  2  2  1  5  1       -1 0.499407483148D+00 0.100000000000D+01
-.532667820358D-04 0.000000000000D+00 -.368317978265D-05 0.218795908000D-02 0.000000000000D+00  5 -1 2 25 24 21 2 0.67175609D-02 0.10860836D+00 0.29862093D+05 0.29862093D+05 0.29862093D+05 0.12151085D+01  1  2  3  1  5  1       -1 -.409524308598D-01 0.100000000000D+01
0.658146517385D-04 0.000000000000D+00 0.000000000000D+00 0.218795908000D-02 0.000000000000D+00  5 -1 2 25 24 21 2 0.67175609D-02 0.10860836D+00 0.29862093D+05 0.29862093D+05 0.29862093D+05 0.12151085D+01  1  2 15  1  5  1       -1 0.505994518887D-01 0.100000000000D+01
  </mgrwgt>
  </event>
  <event>
  4     66 0.45252658E-03 0.13163136E+03 0.75467711E-02 0.11077974E+00
       -1 -1    0    0    0  501 0.00000000E+00 0.00000000E+00 0.92358716E+01 0.92414136E+01 0.32000000E+00 0.0000E+00 0.9000E+01
        2 -1    0    0  501    0 0.00000000E+00 0.00000000E+00 -.18754710E+04 0.18754710E+04 0.32000000E+00 0.0000E+00 0.9000E+01
       25  1    1    2    0    0 -.59672975E+02 -.54975953E+02 -.10578664E+04 0.10683116E+04 0.12500000E+03 0.0000E+00 0.9000E+01
       24  1    1    2    0    0 0.59672975E+02 0.54975953E+02 -.80836871E+03 0.81640088E+03 0.80419002E+02 0.0000E+00 0.9000E+01
#aMCatNLO 1  0  0  1  1 0.19199304D+03 0.00000000D+00  -5  5  0 0.00000000D+00 0.00000000D+00 0.00000000D+00 0.00000000D+00 0.00000000D+00
  <mgrwgt>
 0.4797733471D+00    5    2    0
 0.131631522388466D+03 0.000000000000000D+00 0.000000000000000D+00 0.131631522388466D+03
 0.131631522388466D+03 0.000000000000000D+00 0.000000000000000D+00 -.131631522388466D+03
 0.149024362415423D+03 -.596729752954135D+02 -.549759528822517D+02 -.203020700415138D+00
 0.114238682361510D+03 0.596729752954135D+02 0.549759528822517D+02 0.203020700415138D+00
 0.000000000000000D+00 0.000000000000000D+00 0.000000000000000D+00 0.000000000000000D+00
 0.272896829681911D+03 0.000000000000000D+00 0.000000000000000D+00 0.272896829681911D+03
 0.246709404918631D+03 0.000000000000000D+00 0.000000000000000D+00 -.246709404918631D+03
 0.233998323826490D+03 -.903340623889842D+02 -.175982759122890D+03 -.203020700415138D+00
 0.918371512092909D+02 0.431765396847986D+02 -.101287507279943D+02 0.203020700415138D+00
 0.193770759564760D+03 0.471575227041856D+02 0.186111509850885D+03 0.261874247632800D+02
0.335323351959D-03 0.000000000000D+00 0.000000000000D+00 0.259890310846D-02 0.000000000000D+00  5 -1 2 25 24 21 0 0.14213317D-02 0.28853443D+00 0.17326816D+05 0.17326816D+05 0.17326816D+05 0.12407455D+01  1  2  2  1  5  1       -1 0.364247286382D+00 0.100000000000D+01
-.186290751088D-04 0.000000000000D+00 -.128772996419D-05 0.259890310846D-02 0.000000000000D+00  5 -1 2 25 24 21 2 0.14213317D-02 0.28853443D+00 0.17326816D+05 0.17326816D+05 0.17326816D+05 0.12407455D+01  1  2  3  1  5  1       -1 -.311522380955D-01 0.100000000000D+01
0.230766681224D-04 0.000000000000D+00 0.000000000000D+00 0.259890310846D-02 0.000000000000D+00  5 -1 2 25 24 21 2 0.14213317D-02 0.28853443D+00 0.17326816D+05 0.17326816D+05 0.17326816D+05 0.12407455D+01  1  2 15  1  5  1       -1 0.385896699435D-01 0.100000000000D+01
0.174253614508D-03 0.000000000000D+00 -.127317921402D-03 0.259890310846D-02 0.000000000000D+00  5 -1 2 25 24 21 2 0.70694658D-02 0.28853443D+00 0.17326816D+05 0.17326816D+05 0.17326816D+05 0.12407455D+01  1  2  5  1  5  1       -1 0.280145698566D-01 0.100000000000D+01
0.305696590844D-04 0.000000000000D+00 -.248847250569D-04 0.259890310846D-02 0.000000000000D+00  5 21 2 25 24 1 2 0.70694658D-02 0.28853443D+00 0.17326816D+05 0.17326816D+05 0.17326816D+05 0.12407455D+01  1  2  5  3  5  1       -1 0.800740589779D-01 0.100000000000D+01
  </mgrwgt>
  </event>
  <event>
  5     66 -.45252658E-03 0.11752531E+03 0.75467711E-02 0.12351917E+00
       -3 -1    0    0    0  501 0.00000000E+00 0.00000000E+00 0.41759528E+03 0.41759558E+03 0.50000000E+00 0.0000E+00 0.9000E+01
        4 -1    0    0  502    0 0.00000000E+00 0.00000000E+00 -.53425576E+02 0.53448056E+02 0.15500000E+01 0.0000E+00 0.9000E+01
       25  1    1    2    0    0 -.48417645E+02 -.61361486E+01 0.31829588E+03 0.34542609E+03 0.12500000E+03 0.0000E+00 0.9000E+01
       24  1    1    2    0    0 0.62022520E+02 0.25759718E+01 0.33795173E+02 0.10706427E+03 0.80419002E+02 0.0000E+00 0.9000E+01
       21  1    1    2  502  501 -.13604875E+02 0.35601768E+01 0.12078655E+02 0.18553271E+02 0.75000000E+00 0.0000E+00 0.9000E+01
#aMCatNLO 2  0  0  2  1 0.14062983D+02 0.00000000D+00  -5  5  0 0.00000000D+00 0.00000000D+00 0.00000000D+00 0.00000000D+00 0.00000000D+00
  <mgrwgt>
 -.1852116390D-01    3    2    0
 0.141934540414655D+03 0.000000000000000D+00 0.000000000000000D+00 0.141934540414655D+03
 0.141934540414655D+03 0.000000000000000D+00 0.000000000000000D+00 -.141934540414655D+03
 0.158064835441636D+03 -.559302093690624D+02 -.417023138286554D+01 0.788283772085768D+02
 0.125804245387674D+03 0.559302093690624D+02 0.417023138286554D+01 -.788283772085768D+02
 0.000000000000000D+00 -.000000000000000D+00 0.000000000000000D+00 -.000000000000000D+00
 0.147509382053021D+03 0.000000000000000D+00 0.000000000000000D+00 0.147509382053021D+03
 0.151263189863205D+03 0.000000000000000D+00 0.000000000000000D+00 -.151263189863205D+03
 0.155630439469087D+03 -.484176446740782D+02 -.613614864700791D+01 0.788283772085768D+02
 0.128586770661664D+03 0.620225197057015D+02 0.257597182496675D+01 -.788283772085768D+02
 0.145553617854756D+02 -.136048750316233D+02 0.356017682204117D+01 -.375380781018392D+01
-.168260496920D-02 0.000000000000D+00 0.000000000000D+00 0.178968157981D-02 0.000000000000D+00  5 -3 4 25 24 21 2 0.61815070D-01 0.83639992D-02 0.15605434D+05 0.15605434D+05 0.15605434D+05 0.12458682D+01  1  2 13  2  5  2        4 -.134286576500D+00 0.100000000000D+01
-.132414790510D-05 0.000000000000D+00 0.000000000000D+00 0.178968157981D-02 0.000000000000D+00  5 -3 4 25 24 21 2 0.61815070D-01 0.77135645D-02 0.13812199D+05 0.13812199D+05 0.13812199D+05 0.12519278D+01  1  2  8  2  5  2        4 -.120676029901D-03 0.100000000000D+01
0.152832135592D-02 0.000000000000D+00 0.000000000000D+00 0.178968157981D-02 0.752091117647D-04  5 -3 4 25 24 21 2 0.64243014D-01 0.82205386D-02 0.15605434D+05 0.15605434D+05 0.15605434D+05 0.12458682D+01  1  2  1  2  5  2        4 0.115886088631D+00 0.100000000000D+01
  </mgrwgt>
  </event>
  <event>
  4     66 0.45252658E-03 0.64192913E+02 0.75467711E-02 0.12687930E+00
       -1 -1    0    0    0  501 0.00000000E+00 0.00000000E+00 0.16886493E+02 0.16889525E+02 0.32000000E+00 0.0000E+00 0.9000E+01
        2 -1    0    0  501    0 0.00000000E+00 0.00000000E+00 -.71752051E+03 0.71752059E+03 0.32000000E+00 0.0000E+00 0.9000E+01
       25  1    1    2    0    0 -.10928478E+01 0.33609478E+01 -.54533373E+03 0.55948760E+03 0.12500000E+03 0.0000E+00 0.9000E+01
       24  1    1    2    0    0 0.10928478E+01 -.33609478E+01 -.15530029E+03 0.17492251E+03 0.80419002E+02 0.0000E+00 0.9000E+01
#aMCatNLO 1  0  0  2  1 0.57261517D+01 0.00000000D+00  -5  5  0 0.00000000D+00 0.00000000D+00 0.00000000D+00 0.00000000D+00 0.00000000D+00
  <mgrwgt>
 0.6235485844D+00    8    2    0
 0.110079718865177D+03 0.000000000000000D+00 0.000000000000000D+00 0.110079718865177D+03
 0.110079718865177D+03 0.000000000000000D+00 0.000000000000000D+00 -.110079718865177D+03
 0.130877791707382D+03 -.109284783222860D+01 0.336094777502875D+01 -.386200216969118D+02
 0.892816460229724D+02 0.109284783222860D+01 -.336094777502875D+01 0.386200216969118D+02
 0.000000000000000D+00 0.000000000000000D+00 0.000000000000000D+00 0.000000000000000D+00
 0.113901336856475D+03 0.000000000000000D+00 0.000000000000000D+00 0.113901336856475D+03
 0.112283001570797D+03 0.000000000000000D+00 0.000000000000000D+00 -.112283001570797D+03
 0.130924159877273D+03 -.435334301864636D+01 0.238284877022707D+01 -.386200216969118D+02
 0.893097313266177D+02 -.113133851420422D+01 -.402816987705847D+01 0.386200216969118D+02
 0.595044722338124D+01 0.548468153285058D+01 0.164532110683140D+01 0.161833528567736D+01
0.177219523397D-03 0.000000000000D+00 0.000000000000D+00 0.269858237922D-02 0.000000000000D+00  5 -1 2 25 24 21 0 0.25981607D-02 0.11038801D+00 0.10562348D+05 0.10562348D+05 0.10562348D+05 0.12655717D+01  1  2  2  2  5  2        2 0.354100816533D+00 0.100000000000D+01
-.978906490161D-05 0.000000000000D+00 -.680569632817D-06 0.269858237922D-02 0.000000000000D+00  5 -1 2 25 24 21 2 0.25981607D-02 0.11038801D+00 0.10562348D+05 0.10562348D+05 0.10562348D+05 0.12655717D+01  1  2  3  2  5  2        2 -.313278133401D-01 0.100000000000D+01
0.121156706392D-04 0.000000000000D+00 0.000000000000D+00 0.269858237922D-02 0.000000000000D+00  5 -1 2 25 24 21 2 0.25981607D-02 0.11038801D+00 0.10562348D+05 0.10562348D+05 0.10562348D+05 0.12655717D+01  1  2 15  2  5  2        2 0.387736185316D-01 0.100000000000D+01
0.228635897397D-03 0.000000000000D+00 0.000000000000D+00 0.269858237922D-02 0.000000000000D+00  5 -1 2 25 24 21 2 0.25981607D-02 0.11446269D+00 0.11167460D+05 0.11167460D+05 0.11167460D+05 0.12627004D+01  1  2 12  2  5  2        2 0.699326940718D+00 0.100000000000D+01
-.242375930228D-03 0.000000000000D+00 0.000000000000D+00 0.269858237922D-02 0.000000000000D+00  5 -1 2 25 24 21 2 0.25981607D-02 0.11038801D+00 0.10562348D+05 0.10562348D+05 0.10562348D+05 0.12655717D+01  1  2  4  2  5  2        2 -.775672444369D+00 0.100000000000D+01
0.108772918882D-03 0.000000000000D+00 0.000000000000D+00 0.269858237922D-02 0.700456634853D-03  5 -1 2 25 24 21 2 0.26883606D-02 0.11259746D+00 0.11167460D+05 0.11167460D+05 0.11167460D+05 0.12627004D+01  1  2 11  2  5  2        2 0.323007581483D+00 0.100000000000D+01
0.267683058398D-05 0.000000000000D+00 0.000000000000D+00 0.269858237922D-02 0.000000000000D+00  5 -1 21 25 24 -2 2 0.25981607D-02 0.11446269D+00 0.11167460D+05 0.11167460D+05 0.11167460D+05 0.12627004D+01  1  2 12  4  5  2        2 0.103457547013D-01 0.100000000000D+01
0.130520098552D-05 0.000000000000D+00 0.000000000000D+00 0.269858237922D-02 0.257797939397D-05  5 -1 21 25 24 -2 2 0.26883606D-02 0.11259746D+00 0.11167460D+05 0.11167460D+05 0.11167460D+05 0.12627004D+01  1  2 11  4  5  2        2 0.499413010624D-02 0.100000000000D+01
  </mgrwgt>
  </event>
  <event>
  4     66 0.45252658E-03 0.10280520E+03 0.75467711E-02 0.11299030E+00
       -1 -1    0    0    0  501 0.00000000E+00 0.00000000E+00 0.44649788E+02 0.44650935E+02 0.32000000E+00 0.0000E+00 0.9000E+01
        2 -1    0    0  501    0 0.00000000E+00 0.00000000E+00 -.23721990E+03 0.23722012E+03 0.32000000E+00 0.0000E+00 0.9000E+01
       25  1    1    2    0    0 0.35505557E+01 -.24772273E+01 -.11067103E+03 0.16700844E+03 0.12500000E+03 0.0000E+00 0.9000E+01
       24  1    1    2    0    0 -.35505557E+01 0.24772273E+01 -.81899079E+02 0.11486261E+03 0.80419002E+02 0.0000E+00 0.9000E+01
#aMCatNLO 1  0  0  1  1 0.17853876D+03 0.00000000D+00  -5  5  0 0.00000000D+00 0.00000000D+00 0.00000000D+00 0.00000000D+00 0.00000000D+00
  <mgrwgt>
 0.1689576297D+00    3    2    0
 0.102917492572902D+03 0.000000000000000D+00 0.000000000000000D+00 0.102917492572902D+03
 0.102917492572902D+03 0.000000000000000D+00 0.000000000000000D+00 -.102917492572902D+03
 0.125162943313801D+03 0.355055567952050D+01 -.247722730989542D+01 0.469247037236710D+01
 0.806720418320024D+02 -.355055567952050D+01 0.247722730989542D+01 -.469247037236710D+01
 0.000000000000000D+00 0.000000000000000D+00 0.000000000000000D+00 -.000000000000000D+00
 0.165116450006809D+03 0.000000000000000D+00 0.000000000000000D+00 0.165116450006809D+03
 0.412197765064317D+03 0.000000000000000D+00 0.000000000000000D+00 -.412197765064317D+03
 0.165387822246695D+03 -.653881237896703D+02 -.862003813017996D+02 0.469247037236710D+01
 0.107089937324716D+03 -.481006461692692D+02 -.516270014793056D+02 -.469247037236710D+01
 0.304836455499715D+03 0.113488769958939D+03 0.137827382781105D+03 -.247081315057508D+03
0.103645893787D-03 0.000000000000D+00 0.000000000000D+00 0.323041009347D-02 0.000000000000D+00  5 -1 2 25 24 21 0 0.68693030D-02 0.36495474D-01 0.10568909D+05 0.10568909D+05 0.10568909D+05 0.12655396D+01  1  2  2  1  5  1       -1 0.165443120564D+00 0.100000000000D+01
-.575809686683D-05 0.000000000000D+00 -.398027522732D-06 0.323041009347D-02 0.000000000000D+00  5 -1 2 25 24 21 2 0.68693030D-02 0.36495474D-01 0.10568909D+05 0.10568909D+05 0.10568909D+05 0.12655396D+01  1  2  3  1  5  1       -1 -.147206520197D-01 0.100000000000D+01
0.713282429771D-05 0.000000000000D+00 0.000000000000D+00 0.323041009347D-02 0.000000000000D+00  5 -1 2 25 24 21 2 0.68693030D-02 0.36495474D-01 0.10568909D+05 0.10568909D+05 0.10568909D+05 0.12655396D+01  1  2 15  1  5  1       -1 0.182351611709D-01 0.100000000000D+01
  </mgrwgt>
  </event>
  <event>
  4     66 0.45252658E-03 0.11088824E+03 0.75467711E-02 0.10562911E+00
       -1 -1    0    0    0  501 0.00000000E+00 0.00000000E+00 0.51522434E+02 0.51523428E+02 0.32000000E+00 0.0000E+00 0.9000E+01
        2 -1    0    0  501    0 0.00000000E+00 0.00000000E+00 -.24364272E+03 0.24364293E+03 0.32000000E+00 0.0000E+00 0.9000E+01
       25  1    1    2    0    0 -.12541992E+02 -.38975212E+02 -.13433622E+03 0.18800955E+03 0.12500000E+03 0.0000E+00 0.9000E+01
       24  1    1    2    0    0 0.12541992E+02 0.38975212E+02 -.57784068E+02 0.10715682E+03 0.80419002E+02 0.0000E+00 0.9000E+01
#aMCatNLO 1  0  0  1  1 0.33222593D+03 0.00000000D+00  -5  5  0 0.00000000D+00 0.00000000D+00 0.00000000D+00 0.00000000D+00 0.00000000D+00
  <mgrwgt>
 0.3661411002D+00    3    2    0
 0.112041259366292D+03 0.000000000000000D+00 0.000000000000000D+00 0.112041259366292D+03
 0.112041259366292D+03 0.000000000000000D+00 0.000000000000000D+00 -.112041259366292D+03
 0.132475214003687D+03 -.125419920627499D+02 -.389752120105180D+02 -.157579697028438D+02
 0.916073047288980D+02 0.125419920627499D+02 0.389752120105180D+02 0.157579697028438D+02
 0.000000000000000D+00 -.000000000000000D+00 -.000000000000000D+00 -.000000000000000D+00
 0.308767248008088D+03 0.000000000000000D+00 0.000000000000000D+00 0.308767248008088D+03
 0.454917696627589D+03 0.000000000000000D+00 0.000000000000000D+00 -.454917696627589D+03
 0.176835750313171D+03 0.598055404278601D+02 0.108723807483908D+03 -.157579697028438D+02
 0.223897379580497D+03 0.863382296110275D+02 0.189631793555618D+03 0.157579697028438D+02
 0.362951814742009D+03 -.146143770038888D+03 -.298355601039526D+03 -.146150448619501D+03
0.284186231267D-03 0.000000000000D+00 0.000000000000D+00 0.290852591094D-02 0.000000000000D+00  5 -1 2 25 24 21 0 0.79266209D-02 0.37483589D-01 0.12296202D+05 0.12296202D+05 0.12296202D+05 0.12577849D+01  1  2  2  1  5  1       -1 0.358558240481D+00 0.100000000000D+01
-.157860698760D-04 0.000000000000D+00 -.109134995602D-05 0.290852591094D-02 0.000000000000D+00  5 -1 2 25 24 21 2 0.79266209D-02 0.37483589D-01 0.12296202D+05 0.12296202D+05 0.12296202D+05 0.12577849D+01  1  2  3  1  5  1       -1 -.315096402626D-01 0.100000000000D+01
0.195850200464D-04 0.000000000000D+00 0.000000000000D+00 0.290852591094D-02 0.000000000000D+00  5 -1 2 25 24 21 2 0.79266209D-02 0.37483589D-01 0.12296202D+05 0.12296202D+05 0.12296202D+05 0.12577849D+01  1  2 15  1  5  1       -1 0.390924999729D-01 0.100000000000D+01
  </mgrwgt>
  </event>
  <event>
  4     66 0.45252658E-03 0.19607171E+03 0.75467711E-02 0.10309513E+00
       -1 -1    0    0    0  501 0.00000000E+00 0.00000000E+00 0.17850162E+03 0.17850191E+03 0.32000000E+00 0.0000E+00 0.9000E+01
        2 -1    0    0  501    0 0.00000000E+00 0.00000000E+00 -.22929568E+03 0.22929591E+03 0.32000000E+00 0.0000E+00 0.9000E+01
       25  1    1    2    0    0 -.16048988E+03 -.42158607E+02 -.76981381E+02 0.22155244E+03 0.12500000E+03 0.0000E+00 0.9000E+01
       24  1    1    2    0    0 0.16048988E+03 0.42158607E+02 0.26187315E+02 0.18624538E+03 0.80419002E+02 0.0000E+00 0.9000E+01
#aMCatNLO 1  0  0  2  1 0.35181080D+03 0.00000000D+00  -5  5  0 0.00000000D+00 0.00000000D+00 0.00000000D+00 0.00000000D+00 0.00000000D+00
  <mgrwgt>
 0.4925612054D+00    3    2    0
 0.202311035116449D+03 0.000000000000000D+00 0.000000000000000D+00 0.202311035116449D+03
 0.202311035116449D+03 0.000000000000000D+00 0.000000000000000D+00 -.202311035116449D+03
 0.213627501418396D+03 -.160489878057261D+03 -.421586074055698D+02 -.497730873570784D+02
 0.190994568814502D+03 0.160489878057261D+03 0.421586074055698D+02 0.497730873570784D+02
 0.000000000000000D+00 -.000000000000000D+00 0.000000000000000D+00 0.000000000000000D+00
 0.678717985304251D+03 0.000000000000000D+00 0.000000000000000D+00 0.678717985304251D+03
 0.343445087135986D+03 0.000000000000000D+00 0.000000000000000D+00 -.343445087135986D+03
 0.271625424341546D+03 -.100591227354619D+03 -.213446517664170D+03 -.497730873570784D+02
 0.264555386572048D+03 0.216722053499728D+03 -.118644544382458D+03 0.497730873570784D+02
 0.485982261526644D+03 -.116130826145109D+03 0.332091062046629D+03 0.335272898168265D+03
0.246082279056D-02 0.000000000000D+00 0.000000000000D+00 0.203277143560D-02 0.000000000000D+00  5 -1 2 25 24 21 0 0.27461827D-01 0.35276298D-01 0.38444115D+05 0.38444115D+05 0.38444115D+05 0.12037539D+01  1  2  2  2  5  2        2 0.483335819133D+00 0.100000000000D+01
-.136549261909D-03 0.000000000000D+00 -.945020746527D-05 0.203277143560D-02 0.000000000000D+00  5 -1 2 25 24 21 2 0.27461827D-01 0.35276298D-01 0.38444115D+05 0.38444115D+05 0.38444115D+05 0.12037539D+01  1  2  3  2  5  2        2 -.388627404996D-01 0.100000000000D+01
0.168963849069D-03 0.000000000000D+00 0.000000000000D+00 0.203277143560D-02 0.000000000000D+00  5 -1 2 25 24 21 2 0.27461827D-01 0.35276298D-01 0.38444115D+05 0.38444115D+05 0.38444115D+05 0.12037539D+01  1  2 15  2  5  2        2 0.480881267930D-01 0.100000000000D+01
  </mgrwgt>
  </event>
  <event>
  4     66 0.45252658E-03 0.98204532E+02 0.75467711E-02 0.12116952E+00
       -1 -1    0    0    0  501 0.00000000E+00 0.00000000E+00 0.78572848E+03 0.78572855E+03 0.32000000E+00 0.0000E+00 0.9000E+01
        2 -1    0    0  501    0 0.00000000E+00 0.00000000E+00 -.21510717E+02 0.21513097E+02 0.32000000E+00 0.0000E+00 0.9000E+01
       25  1    1    2    0    0 -.67621957E+02 -.29128974E+02 0.51862217E+03 0.53853057E+03 0.12500000E+03 0.0000E+00 0.9000E+01
       24  1    1    2    0    0 0.67621957E+02 0.29128974E+02 0.24559560E+03 0.26871107E+03 0.80419002E+02 0.0000E+00 0.9000E+01
#aMCatNLO 1  0  0  2  1 0.26886529D+02 0.00000000D+00  -5  5  0 0.00000000D+00 0.00000000D+00 0.00000000D+00 0.00000000D+00 0.00000000D+00
  <mgrwgt>
 0.3655761985D+00    9    2    0
 0.130009885087437D+03 0.000000000000000D+00 0.000000000000000D+00 0.130009885087437D+03
 0.130009885087437D+03 0.000000000000000D+00 0.000000000000000D+00 -.130009885087437D+03
 0.147619669219372D+03 -.676219573543013D+02 -.291289744349036D+02 0.273009243869232D+02
 0.112400100955503D+03 0.676219573543013D+02 0.291289744349036D+02 -.273009243869232D+02
 0.000000000000000D+00 -.000000000000000D+00 0.000000000000000D+00 -.000000000000000D+00
 0.143927121599545D+03 0.000000000000000D+00 0.000000000000000D+00 0.143927121599545D+03
 0.144369174569558D+03 0.000000000000000D+00 0.000000000000000D+00 -.144369174569558D+03
 0.145951707282013D+03 -.574700983286351D+02 -.403577524677830D+02 0.273009243869232D+02
 0.115454425676734D+03 0.755012917100452D+02 0.204137926830882D+02 -.273009243869232D+02
 0.268901632103569D+02 -.180311933814101D+02 0.199439597846948D+02 -.442052970012472D+00
0.132618745610D-02 0.000000000000D+00 0.000000000000D+00 0.251852450189D-02 0.000000000000D+00  5 -1 2 25 24 21 0 0.12088149D+00 0.33095292D-02 0.16142631D+05 0.16142631D+05 0.16142631D+05 0.12442041D+01  1  2  2  2  5  2        2 0.260735480547D+00 0.100000000000D+01
-.736296885860D-04 0.000000000000D+00 -.509290902460D-05 0.251852450189D-02 0.000000000000D+00  5 -1 2 25 24 21 2 0.12088149D+00 0.33095292D-02 0.16142631D+05 0.16142631D+05 0.16142631D+05 0.12442041D+01  1  2  3  2  5  2        2 -.224094635670D-01 0.100000000000D+01
0.916829009672D-04 0.000000000000D+00 0.000000000000D+00 0.251852450189D-02 0.000000000000D+00  5 -1 2 25 24 21 2 0.12088149D+00 0.33095292D-02 0.16142631D+05 0.16142631D+05 0.16142631D+05 0.12442041D+01  1  2 15  2  5  2        2 0.279040244281D-01 0.100000000000D+01
0.139384485905D-02 0.000000000000D+00 0.000000000000D+00 0.251852450189D-02 0.000000000000D+00  5 -1 2 25 24 21 2 0.12088149D+00 0.38337856D-02 0.19943408D+05 0.19943408D+05 0.19943408D+05 0.12339615D+01  1  2 12  2  5  2        2 0.344609202634D+00 0.100000000000D+01
-.113993271190D-02 0.000000000000D+00 0.000000000000D+00 0.251852450189D-02 0.000000000000D+00  5 -1 2 25 24 21 2 0.12088149D+00 0.33095292D-02 0.16142631D+05 0.16142631D+05 0.16142631D+05 0.12442041D+01  1  2  4  2  5  2        2 -.346942667648D+00 0.100000000000D+01
-.385249645454D-02 0.000000000000D+00 -.113919093333D-02 0.251852450189D-02 0.000000000000D+00  5 -1 2 25 24 21 2 0.12088149D+00 0.40787932D-02 0.16142631D+05 0.16142631D+05 0.16142631D+05 0.12442041D+01  1  2  5  2  5  2        2 -.888364544354D+00 0.100000000000D+01
0.402675352321D-02 0.000000000000D+00 0.111475646506D-02 0.251852450189D-02 0.000000000000D+00  5 -1 2 25 24 21 2 0.12088149D+00 0.33095292D-02 0.16142631D+05 0.16142631D+05 0.16142631D+05 0.12442041D+01  1  2  6  2  5  2        2 0.122555708308D+01 0.100000000000D+01
0.312863478066D-04 0.000000000000D+00 0.000000000000D+00 0.251852450189D-02 0.000000000000D+00  5 -1 21 25 24 -2 2 0.12088149D+00 0.38337856D-02 0.19943408D+05 0.19943408D+05 0.19943408D+05 0.12339615D+01  1  2 12  4  5  2        2 0.122451671113D+00 0.100000000000D+01
-.998673383521D-04 0.000000000000D+00 -.337141051037D-04 0.251852450189D-02 0.000000000000D+00  5 -1 21 25 24 -2 2 0.12088149D+00 0.40787932D-02 0.16142631D+05 0.16142631D+05 0.16142631D+05 0.12442041D+01  1  2  5  4  5  2        2 -.357964587683D+00 0.100000000000D+01
  </mgrwgt>
  </event>
  <event>
  5     66 0.45252658E-03 0.11528630E+03 0.75467711E-02 0.12296857E+00
       -1 -1    0    0    0  502 0.00000000E+00 0.00000000E+00 0.15286654E+02 0.15290003E+02 0.32000000E+00 0.0000E+00 0.9000E+01
        2 -1    0    0  501    0 0.00000000E+00 0.00000000E+00 -.11584273E+04 0.11584274E+04 0.32000000E+00 0.0000E+00 0.9000E+01
       25  1    1    2    0    0 -.22408246E+02 -.61998645E+02 -.50207102E+03 0.52158055E+03 0.12500000E+03 0.0000E+00 0.9000E+01
       24  1    1    2    0    0 0.18982202E+02 0.37118109E+02 -.42083391E+03 0.43047238E+03 0.80419002E+02 0.0000E+00 0.9000E+01
       21  1    1    2  501  502 0.34260432E+01 0.24880536E+02 -.22023574E+03 0.22166444E+03 0.75000000E+00 0.0000E+00 0.9000E+01
#aMCatNLO 2  0  0  1  1 0.25115311D+02 0.00000000D+00  -5  5  0 0.00000000D+00 0.00000000D+00 0.00000000D+00 0.00000000D+00 0.00000000D+00
  <mgrwgt>
 0.7576160201D-01    1    2    0
 0.116211555260238D+03 0.000000000000000D+00 0.000000000000000D+00 0.116211555260238D+03
 0.116211555260238D+03 0.000000000000000D+00 0.000000000000000D+00 -.116211555260238D+03
 0.135912229657724D+03 -.203655159125472D+02 -.471639787350362D+02 0.144200916096471D+02
 0.965108808627520D+02 0.203655159125472D+02 0.471639787350362D+02 -.144200916096471D+02
 0.000000000000000D+00 0.000000000000000D+00 0.000000000000000D+00 -.000000000000000D+00
 0.122613264293736D+03 0.000000000000000D+00 0.000000000000000D+00 0.122613264293736D+03
 0.144432047159356D+03 0.000000000000000D+00 0.000000000000000D+00 -.144432047159356D+03
 0.142052456974623D+03 -.224082455867611D+02 -.619986453095553D+02 0.144200916096471D+02
 0.917236776969769D+02 0.189822023587968D+02 0.371181094274405D+02 -.144200916096471D+02
 0.332691767814916D+02 0.342604322796425D+01 0.248805358821148D+02 -.218187828656196D+02
0.392613917929D-04 0.000000000000D+00 0.000000000000D+00 0.282255976814D-02 0.376872647888D-04  5 -1 2 25 24 21 2 0.23519753D-02 0.17821389D+00 0.16514440D+05 0.16514440D+05 0.16514440D+05 0.12430884D+01  1  2  1  1  5  1       -1 0.757616020050D-01 0.100000000000D+01
  </mgrwgt>
  </event>
  <event>
  4     66 0.45252658E-03 0.73662510E+02 0.75467711E-02 0.11984481E+00
       -1 -1    0    0    0  501 0.00000000E+00 0.00000000E+00 0.71898837E+01 0.71970013E+01 0.32000000E+00 0.0000E+00 0.9000E+01
        2 -1    0    0  501    0 0.00000000E+00 0.00000000E+00 -.27582247E+04 0.27582247E+04 0.32000000E+00 0.0000E+00 0.9000E+01
       25  1    1    2    0    0 -.63725660E+02 0.67337055E+02 -.13227844E+04 0.13319080E+04 0.12500000E+03 0.0000E+00 0.9000E+01
       24  1    1    2    0    0 0.63725660E+02 -.67337055E+02 -.14282504E+04 0.14335137E+04 0.80419002E+02 0.0000E+00 0.9000E+01
#aMCatNLO 1  0  0  1  2 0.23983119D+02 0.00000000D+00  -5  5  0 0.00000000D+00 0.00000000D+00 0.00000000D+00 0.00000000D+00 0.00000000D+00
  <mgrwgt>
 0.3637689685D+00    9    2    0
 0.140858730274243D+03 0.000000000000000D+00 0.000000000000000D+00 0.140858730274243D+03
 0.140858730274243D+03 0.000000000000000D+00 0.000000000000000D+00 -.140858730274243D+03
 0.157112220611334D+03 -.637256600311191D+02 0.673370547188341D+02 0.215409187551377D+02
 0.124605239937151D+03 0.637256600311191D+02 -.673370547188341D+02 -.215409187551377D+02
 0.000000000000000D+00 0.000000000000000D+00 -.000000000000000D+00 0.000000000000000D+00
 0.153706967031834D+03 0.000000000000000D+00 0.000000000000000D+00 0.153706967031834D+03
 0.153022401194558D+03 0.000000000000000D+00 0.000000000000000D+00 -.153022401194558D+03
 0.165063189172859D+03 -.690111134577704D+02 0.799644387113313D+02 0.215409187551377D+02
 0.117673291658746D+03 0.597509560154237D+02 -.578411591331063D+02 -.215409187551377D+02
 0.239928873947868D+02 0.926015744234672D+01 -.221232795782250D+02 0.684565837276040D+00
0.632770495945D-03 0.000000000000D+00 0.000000000000D+00 0.243948599731D-02 0.000000000000D+00  5 -1 2 25 24 21 0 0.11066849D-02 0.42434281D+00 0.19370755D+05 0.19370755D+05 0.19370755D+05 0.12353574D+01  1  2  2  1  5  1       -1 0.337818413671D+00 0.100000000000D+01
-.351477640435D-04 0.000000000000D+00 -.243000531673D-05 0.243948599731D-02 0.000000000000D+00  5 -1 2 25 24 21 2 0.11066849D-02 0.42434281D+00 0.19370755D+05 0.19370755D+05 0.19370755D+05 0.12353574D+01  1  2  3  1  5  1       -1 -.286365080642D-01 0.100000000000D+01
0.435651802532D-04 0.000000000000D+00 0.000000000000D+00 0.243948599731D-02 0.000000000000D+00  5 -1 2 25 24 21 2 0.11066849D-02 0.42434281D+00 0.19370755D+05 0.19370755D+05 0.19370755D+05 0.12353574D+01  1  2 15  1  5  1       -1 0.354945661436D-01 0.100000000000D+01
0.505187229682D-03 0.000000000000D+00 0.000000000000D+00 0.243948599731D-02 0.000000000000D+00  5 -1 2 25 24 21 2 0.12513168D-02 0.42434281D+00 0.23000695D+05 0.23000695D+05 0.23000695D+05 0.12271978D+01  1  2 12  1  5  1       -1 0.340601393471D+00 0.100000000000D+01
-.408263170648D-03 0.000000000000D+00 0.000000000000D+00 0.243948599731D-02 0.000000000000D+00  5 -1 2 25 24 21 2 0.11066849D-02 0.42434281D+00 0.19370755D+05 0.19370755D+05 0.19370755D+05 0.12353574D+01  1  2  4  1  5  1       -1 -.332630877006D+00 0.100000000000D+01
-.136793904508D-02 0.000000000000D+00 -.401150816757D-03 0.243948599731D-02 0.000000000000D+00  5 -1 2 25 24 21 2 0.13647065D-02 0.42434281D+00 0.19370755D+05 0.19370755D+05 0.19370755D+05 0.12353574D+01  1  2  5  1  5  1       -1 -.825750801157D+00 0.100000000000D+01
0.142916002525D-02 0.000000000000D+00 0.392499968569D-03 0.243948599731D-02 0.000000000000D+00  5 -1 2 25 24 21 2 0.11066849D-02 0.42434281D+00 0.19370755D+05 0.19370755D+05 0.19370755D+05 0.12353574D+01  1  2  6  1  5  1       -1 0.116440273520D+01 0.100000000000D+01
0.977449507826D-05 0.000000000000D+00 0.000000000000D+00 0.243948599731D-02 0.000000000000D+00  5 21 2 25 24 1 2 0.12513168D-02 0.42434281D+00 0.23000695D+05 0.23000695D+05 0.23000695D+05 0.12271978D+01  1  2 12  3  5  1       -1 0.147471201830D+00 0.100000000000D+01
-.355636848389D-04 0.000000000000D+00 -.118968128683D-04 0.243948599731D-02 0.000000000000D+00  5 21 2 25 24 1 2 0.13647065D-02 0.42434281D+00 0.19370755D+05 0.19370755D+05 0.19370755D+05 0.12353574D+01  1  2  5  3  5  1       -1 -.475001155592D+00 0.100000000000D+01
  </mgrwgt>
  </event>
  <event>
  5     66 0.45252658E-03 0.10677228E+03 0.75467711E-02 0.11392234E+00
       21 -1    0    0  502  501 0.00000000E+00 0.00000000E+00 0.15098113E+03 0.15098299E+03 0.75000000E+00 0.0000E+00 0.9000E+01
        2 -1    0    0  501    0 0.00000000E+00 0.00000000E+00 -.38001898E+03 0.38001912E+03 0.32000000E+00 0.0000E+00 0.9000E+01
       25  1    1    2    0    0 0.48171662E+02 0.69380522E+02 -.18083410E+03 0.23549976E+03 0.12500000E+03 0.0000E+00 0.9000E+01
       24  1    1    2    0    0 -.21916543E+01 0.83210674E+02 -.69053929E+02 0.13477567E+03 0.80419002E+02 0.0000E+00 0.9000E+01
        1  1    1    2  502    0 -.45980007E+02 -.15259120E+03 0.20850171E+02 0.16072668E+03 0.32000000E+00 0.0000E+00 0.9000E+01
#aMCatNLO 2  0  0  1  2 0.15936823D+03 0.00000000D+00  -5  5  0 0.00000000D+00 0.00000000D+00 0.00000000D+00 0.00000000D+00 0.00000000D+00
  <mgrwgt>
 0.1131347982D+00    1    2    0
 0.110974808053762D+03 0.000000000000000D+00 0.000000000000000D+00 0.110974808053762D+03
 0.110974808053762D+03 0.000000000000000D+00 0.000000000000000D+00 -.110974808053762D+03
 0.131605129939953D+03 0.216751531180146D+02 -.185519114434966D+02 -.296803730706879D+02
 0.903444861675712D+02 -.216751531180146D+02 0.185519114434966D+02 0.296803730706879D+02
 0.000000000000000D+00 -.000000000000000D+00 -.000000000000000D+00 0.000000000000000D+00
 0.342679289348331D+03 0.000000000000000D+00 0.000000000000000D+00 0.342679289348331D+03
 0.167433987917616D+03 0.000000000000000D+00 0.000000000000000D+00 -.167433987917616D+03
 0.153753342550022D+03 0.481716615932906D+02 0.693805218993824D+02 -.296803730706879D+02
 0.119486234308125D+03 -.219165429303101D+01 0.832106744391027D+02 0.296803730706879D+02
 0.236873700407800D+03 -.459800073002596D+02 -.152591196338485D+03 0.175245301430715D+03
0.432637550868D-04 0.000000000000D+00 0.000000000000D+00 0.280570436866D-02 0.360719783709D-06  5 21 2 25 24 1 2 0.23228006D-01 0.58464579D-01 0.45362800D+05 0.45362800D+05 0.45362800D+05 0.11964908D+01  1  2  1  3  5  1       -1 0.113134798204D+00 0.100000000000D+01
  </mgrwgt>
  </event>
  <event>
  4     66 0.45252658E-03 0.17031637E+03 0.75467711E-02 0.10193342E+00
       -1 -1    0    0    0  501 0.00000000E+00 0.00000000E+00 0.21164018E+03 0.21164042E+03 0.32000000E+00 0.0000E+00 0.9000E+01
        2 -1    0    0  501    0 0.00000000E+00 0.00000000E+00 -.16704827E+03 0.16704858E+03 0.32000000E+00 0.0000E+00 0.9000E+01
       25  1    1    2    0    0 0.42687642E+02 0.12774983E+03 0.10375797E+03 0.21102836E+03 0.12500000E+03 0.0000E+00 0.9000E+01
       24  1    1    2    0    0 -.42687642E+02 -.12774983E+03 -.59166055E+02 0.16766064E+03 0.80419002E+02 0.0000E+00 0.9000E+01
#aMCatNLO 1  0  0  1  2 0.42097190D+03 0.00000000D+00  -5  5  0 0.00000000D+00 0.00000000D+00 0.00000000D+00 0.00000000D+00 0.00000000D+00
  <mgrwgt>
 0.3762408913D+00    5    2    0
 0.188027206779736D+03 0.000000000000000D+00 0.000000000000000D+00 0.188027206779736D+03
 0.188027206779736D+03 0.000000000000000D+00 0.000000000000000D+00 -.188027206779736D+03
 0.200203349002012D+03 0.426876423345570D+02 0.127749827043413D+03 0.794614864819205D+02
 0.175851064557460D+03 -.426876423345570D+02 -.127749827043413D+03 -.794614864819205D+02
 0.000000000000000D+00 -.000000000000000D+00 0.000000000000000D+00 0.000000000000000D+00
 0.857842272603625D+03 0.000000000000000D+00 0.000000000000000D+00 0.857842272603625D+03
 0.359208689091340D+03 0.000000000000000D+00 0.000000000000000D+00 -.359208689091340D+03
 0.178860269744536D+03 0.943713400312571D+02 -.338514171029301D+02 0.794614864819205D+02
 0.385616715179891D+03 0.338660799412422D+02 -.367113055974935D+03 -.794614864819205D+02
 0.652573976770539D+03 -.128237419972499D+03 0.400964473077865D+03 0.498633583512285D+03
0.173557243478D-02 0.000000000000D+00 0.000000000000D+00 0.183084919088D-02 0.000000000000D+00  5 -1 2 25 24 21 0 0.32560070D-01 0.25699776D-01 0.29007665D+05 0.29007665D+05 0.29007665D+05 0.12164346D+01  1  2  2  1  5  1       -1 0.359798427325D+00 0.100000000000D+01
-.952733333960D-04 0.000000000000D+00 -.666505513627D-05 0.183084919088D-02 0.000000000000D+00  5 -1 2 25 24 21 2 0.32560070D-01 0.25699776D-01 0.29007665D+05 0.29007665D+05 0.29007665D+05 0.12164346D+01  1  2  3  1  5  1       -1 -.292257329367D-01 0.100000000000D+01
0.119113760595D-03 0.000000000000D+00 0.000000000000D+00 0.183084919088D-02 0.000000000000D+00  5 -1 2 25 24 21 2 0.32560070D-01 0.25699776D-01 0.29007665D+05 0.29007665D+05 0.29007665D+05 0.12164346D+01  1  2 15  1  5  1       -1 0.365389436074D-01 0.100000000000D+01
0.100319735471D-02 0.000000000000D+00 -.831241719573D-03 0.183084919088D-02 0.000000000000D+00  5 -1 2 25 24 21 2 0.23136460D+00 0.25699776D-01 0.29007665D+05 0.29007665D+05 0.29007665D+05 0.12164346D+01  1  2  5  1  5  1       -1 0.382362614704D-02 0.100000000000D+01
0.159670789621D-03 0.000000000000D+00 -.199124818370D-03 0.183084919088D-02 0.000000000000D+00  5 21 2 25 24 1 2 0.23136460D+00 0.25699776D-01 0.29007665D+05 0.29007665D+05 0.29007665D+05 0.12164346D+01  1  2  5  3  5  1       -1 0.530562710806D-02 0.100000000000D+01
  </mgrwgt>
  </event>
  <event>
  5     66 0.45252658E-03 0.10828173E+03 0.75467711E-02 0.12239057E+00
       21 -1    0    0  502  501 0.00000000E+00 0.00000000E+00 0.28208682E+02 0.28218650E+02 0.75000000E+00 0.0000E+00 0.9000E+01
        2 -1    0    0  501    0 0.00000000E+00 0.00000000E+00 -.69681978E+03 0.69681985E+03 0.32000000E+00 0.0000E+00 0.9000E+01
       25  1    1    2    0    0 -.43810066E+02 -.35077849E+02 -.33033792E+03 0.35762819E+03 0.12500000E+03 0.0000E+00 0.9000E+01
       24  1    1    2    0    0 0.13381000E+01 0.23848801E+02 -.29110434E+03 0.30295133E+03 0.80419002E+02 0.0000E+00 0.9000E+01
        1  1    1    2  502    0 0.42471966E+02 0.11229048E+02 -.47168835E+02 0.64458985E+02 0.32000000E+00 0.0000E+00 0.9000E+01
#aMCatNLO 2  0  0  1  2 0.43931303D+02 0.00000000D+00  -5  5  0 0.00000000D+00 0.00000000D+00 0.00000000D+00 0.00000000D+00 0.00000000D+00
  <mgrwgt>
 0.8907417366D-01    2    2    0
 0.109823556501247D+03 0.000000000000000D+00 0.000000000000000D+00 0.109823556501247D+03
 0.109823556501247D+03 0.000000000000000D+00 0.000000000000000D+00 -.109823556501247D+03
 0.130670140643524D+03 -.180702113388573D+02 -.282725588329665D+02 0.179948752427998D+02
 0.889769723589704D+02 0.180702113388573D+02 0.282725588329665D+02 -.179948752427998D+02
 0.000000000000000D+00 0.000000000000000D+00 0.000000000000000D+00 0.000000000000000D+00
 0.161477175770880D+03 0.000000000000000D+00 0.000000000000000D+00 0.161477175770880D+03
 0.121750181256271D+03 0.000000000000000D+00 0.000000000000000D+00 -.121750181256271D+03
 0.138197658875231D+03 -.438100659921465D+02 -.350778491551957D+02 0.179948752427998D+02
 0.857996930359203D+02 0.133809997370577D+01 0.238488013146164D+02 -.179948752427998D+02
 0.592300051159996D+02 0.424719660184407D+02 0.112290478405793D+02 0.397269945146085D+02
-.538208880239D-05 0.000000000000D+00 0.000000000000D+00 0.294857493171D-02 0.000000000000D+00  5 21 2 25 24 1 2 0.44409475D-02 0.96701824D-01 0.17535562D+05 0.17535562D+05 0.17535562D+05 0.12401634D+01  1  2 13  3  5  1       -1 -.161693876480D+00 0.100000000000D+01
0.906110832189D-05 0.000000000000D+00 0.000000000000D+00 0.294857493171D-02 0.735405779235D-06  5 21 2 25 24 1 2 0.43405550D-02 0.10720345D+00 0.17535562D+05 0.17535562D+05 0.17535562D+05 0.12401634D+01  1  2  1  3  5  1       -1 0.250768050142D+00 0.100000000000D+01
  </mgrwgt>
  </event>
  <event>
  4     66 0.45252658E-03 0.10613224E+03 0.75467711E-02 0.10540167E+00
       -1 -1    0    0    0  501 0.00000000E+00 0.00000000E+00 0.20638021E+02 0.20640502E+02 0.32000000E+00 0.0000E+00 0.9000E+01
        2 -1    0    0  501    0 0.00000000E+00 0.00000000E+00 -.56658151E+03 0.56658161E+03 0.32000000E+00 0.0000E+00 0.9000E+01
       25  1    1    2    0    0 0.32729471E+01 -.25933927E+02 -.38157410E+03 0.40237679E+03 0.12500000E+03 0.0000E+00 0.9000E+01
       24  1    1    2    0    0 -.32729471E+01 0.25933927E+02 -.16436939E+03 0.18484532E+03 0.80419002E+02 0.0000E+00 0.9000E+01
#aMCatNLO 1  0  0  1  2 0.34156066D+03 0.00000000D+00  -5  5  0 0.00000000D+00 0.00000000D+00 0.00000000D+00 0.00000000D+00 0.00000000D+00
  <mgrwgt>
 0.4554793729D+00    5    2    0
 0.108138227561804D+03 0.000000000000000D+00 0.000000000000000D+00 0.108138227561804D+03
 0.108138227561804D+03 0.000000000000000D+00 0.000000000000000D+00 -.108138227561804D+03
 0.129309704689066D+03 0.327294708957181D+01 -.259339266599951D+02 -.203154865094652D+02
 0.869667504345422D+02 -.327294708957181D+01 0.259339266599951D+02 0.203154865094652D+02
 0.000000000000000D+00 -.000000000000000D+00 0.000000000000000D+00 0.000000000000000D+00
 0.425278579509568D+03 0.000000000000000D+00 0.000000000000000D+00 0.425278579509568D+03
 0.332844589195770D+03 0.000000000000000D+00 0.000000000000000D+00 -.332844589195770D+03
 0.267402840262424D+03 0.189865442213925D+03 -.139347313720810D+03 -.203154865094652D+02
 0.136873289729835D+03 0.102009510282967D+03 -.380581437646373D+02 0.203154865094652D+02
 0.353847038713079D+03 -.291874952496892D+03 0.177405457485447D+03 0.924339903137980D+02
0.183475959763D-03 0.000000000000D+00 0.000000000000D+00 0.297432014264D-02 0.000000000000D+00  5 -1 2 25 24 21 0 0.31752780D-02 0.87166585D-01 0.11264053D+05 0.11264053D+05 0.11264053D+05 0.12622583D+01  1  2  2  1  5  1       -1 0.360580654193D+00 0.100000000000D+01
-.101887637387D-04 0.000000000000D+00 -.704595995821D-06 0.297432014264D-02 0.000000000000D+00  5 -1 2 25 24 21 2 0.31752780D-02 0.87166585D-01 0.11264053D+05 0.11264053D+05 0.11264053D+05 0.12622583D+01  1  2  3  1  5  1       -1 -.319037127237D-01 0.100000000000D+01
0.126626010811D-04 0.000000000000D+00 0.000000000000D+00 0.297432014264D-02 0.000000000000D+00  5 -1 2 25 24 21 2 0.31752780D-02 0.87166585D-01 0.11264053D+05 0.11264053D+05 0.11264053D+05 0.12622583D+01  1  2 15  1  5  1       -1 0.396499514157D-01 0.100000000000D+01
0.403624311263D-03 0.000000000000D+00 -.146351898781D-03 0.297432014264D-02 0.000000000000D+00  5 -1 2 25 24 21 2 0.39553776D-01 0.87166585D-01 0.11264053D+05 0.11264053D+05 0.11264053D+05 0.12622583D+01  1  2  5  1  5  1       -1 0.255088432583D-01 0.100000000000D+01
0.893704045315D-04 0.000000000000D+00 -.427470765970D-04 0.297432014264D-02 0.000000000000D+00  5 21 2 25 24 1 2 0.39553776D-01 0.87166585D-01 0.11264053D+05 0.11264053D+05 0.11264053D+05 0.12622583D+01  1  2  5  3  5  1       -1 0.616436368008D-01 0.100000000000D+01
  </mgrwgt>
  </event>
  <event>
  4     66 0.45252658E-03 0.11645150E+03 0.75467711E-02 0.11358712E+00
       -1 -1    0    0    0  501 0.00000000E+00 0.00000000E+00 0.38724055E+02 0.38725377E+02 0.32000000E+00 0.0000E+00 0.9000E+01
        2 -1    0    0  501    0 0.00000000E+00 0.00000000E+00 -.49725764E+03 0.49725774E+03 0.32000000E+00 0.0000E+00 0.9000E+01
       25  1    1    2    0    0 0.32429746E+02 -.43007844E+02 -.40079969E+03 0.42328094E+03 0.12500000E+03 0.0000E+00 0.9000E+01
       24  1    1    2    0    0 -.32429746E+02 0.43007844E+02 -.57733898E+02 0.11270218E+03 0.80419002E+02 0.0000E+00 0.9000E+01
#aMCatNLO 1  0  0  1  2 0.15824130D+03 0.00000000D+00  -5  5  0 0.00000000D+00 0.00000000D+00 0.00000000D+00 0.00000000D+00 0.00000000D+00
  <mgrwgt>
 0.9518705038D-01    5    2    0
 0.138766762082540D+03 0.000000000000000D+00 0.000000000000000D+00 0.138766762082540D+03
 0.138766762082540D+03 0.000000000000000D+00 0.000000000000000D+00 -.138766762082540D+03
 0.155265280726691D+03 0.324297460499201D+02 -.430078441825013D+02 -.747057180478824D+02
 0.122268243438388D+03 -.324297460499201D+02 0.430078441825013D+02 0.747057180478824D+02
 0.000000000000000D+00 -.000000000000000D+00 0.000000000000000D+00 0.000000000000000D+00
 0.104068586924886D+04 0.000000000000000D+00 0.000000000000000D+00 0.104068586924886D+04
 0.166844269792695D+03 0.000000000000000D+00 0.000000000000000D+00 -.166844269792695D+03
 0.209395066947404D+03 0.862732699053205D+02 -.123277218709305D+03 -.747057180478824D+02
 0.110081328648608D+03 0.187757528966021D+01 -.813715949544763D+01 0.747057180478824D+02
 0.888053743445545D+03 -.881508451949807D+02 0.131414378204753D+03 0.873841599456169D+03
0.366011668677D-03 0.000000000000D+00 0.000000000000D+00 0.185883713101D-02 0.000000000000D+00  5 -1 2 25 24 21 0 0.59576566D-02 0.76501285D-01 0.13560952D+05 0.13560952D+05 0.13560952D+05 0.12528470D+01  1  2  2  1  5  1       -1 0.332779403602D+00 0.100000000000D+01
-.195740663268D-04 0.000000000000D+00 -.140558118080D-05 0.185883713101D-02 0.000000000000D+00  5 -1 2 25 24 21 2 0.59576566D-02 0.76501285D-01 0.13560952D+05 0.13560952D+05 0.13560952D+05 0.12528470D+01  1  2  3  1  5  1       -1 -.279343559339D-01 0.100000000000D+01
0.249785509803D-04 0.000000000000D+00 0.000000000000D+00 0.185883713101D-02 0.000000000000D+00  5 -1 2 25 24 21 2 0.59576566D-02 0.76501285D-01 0.13560952D+05 0.13560952D+05 0.13560952D+05 0.12528470D+01  1  2 15  1  5  1       -1 0.356471528270D-01 0.100000000000D+01
-.142063870634D-02 0.000000000000D+00 -.211724613497D-03 0.185883713101D-02 0.000000000000D+00  5 -1 2 25 24 21 2 0.51544103D-01 0.76501285D-01 0.13560952D+05 0.13560952D+05 0.13560952D+05 0.12528470D+01  1  2  5  1  5  1       -1 -.635907024117D-01 0.100000000000D+01
-.398277780650D-03 0.000000000000D+00 -.551269885706D-04 0.185883713101D-02 0.000000000000D+00  5 21 2 25 24 1 2 0.51544103D-01 0.76501285D-01 0.13560952D+05 0.13560952D+05 0.13560952D+05 0.12528470D+01  1  2  5  3  5  1       -1 -.181714447702D+00 0.100000000000D+01
  </mgrwgt>
  </event>
  <event>
  4     66 0.45252658E-03 0.18449804E+03 0.75467711E-02 0.11150554E+00
       -1 -1    0    0    0  501 0.00000000E+00 0.00000000E+00 0.39584889E+02 0.39586182E+02 0.32000000E+00 0.0000E+00 0.9000E+01
        2 -1    0    0  501    0 0.00000000E+00 0.00000000E+00 -.88960766E+03 0.88960772E+03 0.32000000E+00 0.0000E+00 0.9000E+01
       25  1    1    2    0    0 0.11763332E+03 -.96487339E+02 -.53736169E+03 0.57230236E+03 0.12500000E+03 0.0000E+00 0.9000E+01
       24  1    1    2    0    0 -.11763332E+03 0.96487339E+02 -.31266108E+03 0.35689154E+03 0.80419002E+02 0.0000E+00 0.9000E+01
#aMCatNLO 1  0  0  2  2 0.10983048D+03 0.00000000D+00  -5  5  0 0.00000000D+00 0.00000000D+00 0.00000000D+00 0.00000000D+00 0.00000000D+00
  <mgrwgt>
 0.4296657754D+00    7    2    0
 0.187658328060423D+03 0.000000000000000D+00 0.000000000000000D+00 0.187658328060423D+03
 0.187658328060423D+03 0.000000000000000D+00 0.000000000000000D+00 -.187658328060423D+03
 0.199858404843960D+03 0.117633319676720D+03 -.964873386339597D+02 -.342195495578545D+02
 0.175458251276886D+03 -.117633319676720D+03 0.964873386339597D+02 0.342195495578545D+02
 0.000000000000000D+00 -.000000000000000D+00 0.000000000000000D+00 -.000000000000000D+00
 0.244621001539946D+03 0.000000000000000D+00 0.000000000000000D+00 0.244621001539946D+03
 0.256956736918256D+03 0.000000000000000D+00 0.000000000000000D+00 -.256956736918256D+03
 0.240530252902545D+03 0.125467693982879D+03 -.159112170358017D+03 -.342195495578545D+02
 0.150526426483899D+03 -.111834155827407D+03 0.501311593130535D+02 0.342195495578545D+02
 0.110521059071757D+03 -.136335381554715D+02 0.108981011044964D+03 -.123357353783102D+02
0.837040696650D-03 0.000000000000D+00 0.000000000000D+00 0.213489263541D-02 0.000000000000D+00  5 -1 2 25 24 21 0 0.60900868D-02 0.13686282D+00 0.34039528D+05 0.34039528D+05 0.34039528D+05 0.12091822D+01  1  2  2  2  5  2        2 0.378729516191D+00 0.100000000000D+01
-.464859515207D-04 0.000000000000D+00 -.321445667301D-05 0.213489263541D-02 0.000000000000D+00  5 -1 2 25 24 21 2 0.60900868D-02 0.13686282D+00 0.34039528D+05 0.34039528D+05 0.34039528D+05 0.12091822D+01  1  2  3  2  5  2        2 -.307530230077D-01 0.100000000000D+01
0.575001599769D-04 0.000000000000D+00 0.000000000000D+00 0.213489263541D-02 0.000000000000D+00  5 -1 2 25 24 21 2 0.60900868D-02 0.13686282D+00 0.34039528D+05 0.34039528D+05 0.34039528D+05 0.12091822D+01  1  2 15  2  5  2        2 0.380395298981D-01 0.100000000000D+01
-.337252439988D-03 0.000000000000D+00 0.000000000000D+00 0.213489263541D-02 0.000000000000D+00  5 -1 2 25 24 21 2 0.60900868D-02 0.13686282D+00 0.34039528D+05 0.34039528D+05 0.34039528D+05 0.12091822D+01  1  2  4  2  5  2        2 -.223111105765D+00 0.100000000000D+01
-.552048044482D-03 0.000000000000D+00 -.332508844775D-03 0.213489263541D-02 0.000000000000D+00  5 -1 2 25 24 21 2 0.60900868D-02 0.22369046D+00 0.34039528D+05 0.34039528D+05 0.34039528D+05 0.12091822D+01  1  2  5  2  5  2        2 -.173505601568D+00 0.100000000000D+01
0.669431781917D-03 0.000000000000D+00 0.296056339479D-03 0.213489263541D-02 0.000000000000D+00  5 -1 2 25 24 21 2 0.60900868D-02 0.13686282D+00 0.34039528D+05 0.34039528D+05 0.34039528D+05 0.12091822D+01  1  2  6  2  5  2        2 0.442866077124D+00 0.100000000000D+01
-.159965434667D-04 0.000000000000D+00 -.184893251345D-04 0.213489263541D-02 0.000000000000D+00  5 -1 21 25 24 -2 2 0.60900868D-02 0.22369046D+00 0.34039528D+05 0.34039528D+05 0.34039528D+05 0.12091822D+01  1  2  5  4  5  2        2 -.259961743082D-02 0.100000000000D+01
  </mgrwgt>
  </event>
  <event>
  4     66 0.45252658E-03 0.16706558E+03 0.75467711E-02 0.11174480E+00
       -1 -1    0    0    0  501 0.00000000E+00 0.00000000E+00 0.15021695E+02 0.15025103E+02 0.32000000E+00 0.0000E+00 0.9000E+01
        2 -1    0    0  501    0 0.00000000E+00 0.00000000E+00 -.18701052E+04 0.18701052E+04 0.32000000E+00 0.0000E+00 0.9000E+01
       25  1    1    2    0    0 -.12680645E+03 0.31188466E+02 -.92700332E+03 0.94446426E+03 0.12500000E+03 0.0000E+00 0.9000E+01
       24  1    1    2    0    0 0.12680645E+03 -.31188466E+02 -.92808019E+03 0.94066607E+03 0.80419002E+02 0.0000E+00 0.9000E+01
#aMCatNLO 1  0  0  2  2 0.12897108D+03 0.00000000D+00  -5  5  0 0.00000000D+00 0.00000000D+00 0.00000000D+00 0.00000000D+00 0.00000000D+00
  <mgrwgt>
 0.5679321668D+00    6    2    0
 0.167616790904872D+03 0.000000000000000D+00 0.000000000000000D+00 0.167616790904872D+03
 0.167616790904872D+03 0.000000000000000D+00 0.000000000000000D+00 -.167616790904872D+03
 0.181275601570843D+03 -.126806454199200D+03 0.311884664544151D+02 0.135368555624652D+02
 0.153957980238900D+03 0.126806454199200D+03 -.311884664544151D+02 -.135368555624652D+02
 0.000000000000000D+00 -.000000000000000D+00 -.000000000000000D+00 -.000000000000000D+00
 0.232335244019685D+03 0.000000000000000D+00 0.000000000000000D+00 0.232335244019685D+03
 0.258437424502032D+03 0.000000000000000D+00 0.000000000000000D+00 -.258437424502032D+03
 0.149853785064697D+03 -.671716734558617D+02 0.462155463544070D+02 0.135368555624652D+02
 0.209332927366686D+03 0.192233367350080D+03 -.147018551300677D+02 -.135368555624652D+02
 0.131585956090334D+03 -.125061693894219D+03 -.315136912243393D+02 -.261021804823469D+02
0.589280344243D-03 0.000000000000D+00 0.000000000000D+00 0.227918170265D-02 0.000000000000D+00  5 -1 2 25 24 21 0 0.23112943D-02 0.28770876D+00 0.27910909D+05 0.27910909D+05 0.27910909D+05 0.12182022D+01  1  2  2  2  5  2        2 0.321280517093D+00 0.100000000000D+01
-.327373650285D-04 0.000000000000D+00 -.226299168297D-05 0.227918170265D-02 0.000000000000D+00  5 -1 2 25 24 21 2 0.23112943D-02 0.28770876D+00 0.27910909D+05 0.27910909D+05 0.27910909D+05 0.12182022D+01  1  2  3  2  5  2        2 -.264877422441D-01 0.100000000000D+01
0.406165680972D-04 0.000000000000D+00 0.000000000000D+00 0.227918170265D-02 0.000000000000D+00  5 -1 2 25 24 21 2 0.23112943D-02 0.28770876D+00 0.27910909D+05 0.27910909D+05 0.27910909D+05 0.12182022D+01  1  2 15  2  5  2        2 0.328627910542D-01 0.100000000000D+01
-.274185832883D-03 0.000000000000D+00 -.182165614304D-03 0.227918170265D-02 0.000000000000D+00  5 -1 2 25 24 21 2 0.23112943D-02 0.49907182D+00 0.27910909D+05 0.27910909D+05 0.27910909D+05 0.12182022D+01  1  2  5  2  5  2        2 -.390164693142D-01 0.100000000000D+01
0.345325846115D-03 0.000000000000D+00 0.157642022786D-03 0.227918170265D-02 0.000000000000D+00  5 -1 2 25 24 21 2 0.23112943D-02 0.28770876D+00 0.27910909D+05 0.27910909D+05 0.27910909D+05 0.12182022D+01  1  2  6  2  5  2        2 0.279402511295D+00 0.100000000000D+01
-.761681682411D-05 0.000000000000D+00 -.111113116259D-04 0.227918170265D-02 0.000000000000D+00  5 -1 21 25 24 -2 2 0.23112943D-02 0.49907182D+00 0.27910909D+05 0.27910909D+05 0.27910909D+05 0.12182022D+01  1  2  5  4  5  2        2 -.109441113465D-03 0.100000000000D+01
  </mgrwgt>
  </event>
  <event>
  4     66 0.45252658E-03 0.14010229E+03 0.75467711E-02 0.11388539E+00
       -1 -1    0    0    0  501 0.00000000E+00 0.00000000E+00 0.10579864E+02 0.10584702E+02 0.32000000E+00 0.0000E+00 0.9000E+01
        2 -1    0    0  501    0 0.00000000E+00 0.00000000E+00 -.30438720E+04 0.30438720E+04 0.32000000E+00 0.0000E+00 0.9000E+01
       25  1    1    2    0    0 -.79969208E+02 0.49542976E+02 -.67388953E+03 0.69181043E+03 0.12500000E+03 0.0000E+00 0.9000E+01
       24  1    1    2    0    0 0.79969208E+02 -.49542976E+02 -.23594026E+04 0.23626463E+04 0.80419002E+02 0.0000E+00 0.9000E+01
#aMCatNLO 1  0  0  1  1 0.12688351D+03 0.00000000D+00  -5  5  0 0.00000000D+00 0.00000000D+00 0.00000000D+00 0.00000000D+00 0.00000000D+00
  <mgrwgt>
 0.4021266046D+00    3    2    0
 0.179474691985563D+03 0.000000000000000D+00 0.000000000000000D+00 0.179474691985563D+03
 0.179474691985563D+03 0.000000000000000D+00 0.000000000000000D+00 -.179474691985563D+03
 0.192231064408208D+03 -.799692081078321D+02 0.495429759860638D+02 0.111705870072093D+03
 0.166718319562918D+03 0.799692081078321D+02 -.495429759860638D+02 -.111705870072093D+03
 0.000000000000000D+00 0.000000000000000D+00 -.000000000000000D+00 -.000000000000000D+00
 0.214439259079195D+03 0.000000000000000D+00 0.000000000000000D+00 0.214439259079195D+03
 0.357491405994244D+03 0.000000000000000D+00 0.000000000000000D+00 -.357491405994244D+03
 0.235658062686561D+03 -.150998177002116D+03 0.680519775073265D+02 0.111705870072093D+03
 0.145057167114654D+03 0.282149335938253D+02 -.360566483563143D+02 -.111705870072093D+03
 0.191215435272223D+03 0.122783243408290D+03 -.319953291510123D+02 -.143052146915048D+03
0.185761521275D-02 0.000000000000D+00 0.000000000000D+00 0.142187624329D-02 0.000000000000D+00  5 -1 2 25 24 21 0 0.16280448D-02 0.46828837D+00 0.19628652D+05 0.19628652D+05 0.19628652D+05 0.12347231D+01  1  2  2  1  5  1       -1 0.392308759285D+00 0.100000000000D+01
-.955045561978D-04 0.000000000000D+00 -.713373153829D-05 0.142187624329D-02 0.000000000000D+00  5 -1 2 25 24 21 2 0.16280448D-02 0.46828837D+00 0.19628652D+05 0.19628652D+05 0.19628652D+05 0.12347231D+01  1  2  3  1  5  1       -1 -.307493197642D-01 0.100000000000D+01
0.125997879953D-03 0.000000000000D+00 0.000000000000D+00 0.142187624329D-02 0.000000000000D+00  5 -1 2 25 24 21 2 0.16280448D-02 0.46828837D+00 0.19628652D+05 0.19628652D+05 0.19628652D+05 0.12347231D+01  1  2 15  1  5  1       -1 0.405671651127D-01 0.100000000000D+01
  </mgrwgt>
  </event>
  <event>
  4     66 -.45252658E-03 0.58718595E+02 0.75467711E-02 0.12592047E+00
       -1 -1    0    0    0  501 0.00000000E+00 0.00000000E+00 0.43271758E+01 0.43389918E+01 0.32000000E+00 0.0000E+00 0.9000E+01
        2 -1    0    0  501    0 0.00000000E+00 0.00000000E+00 -.27192719E+04 0.27192719E+04 0.32000000E+00 0.0000E+00 0.9000E+01
       25  1    1    2    0    0 -.17510756E+02 0.28407221E+02 -.15177608E+04 0.15232651E+04 0.12500000E+03 0.0000E+00 0.9000E+01
       24  1    1    2    0    0 0.17510756E+02 -.28407221E+02 -.11971839E+04 0.12003458E+04 0.80419002E+02 0.0000E+00 0.9000E+01
#aMCatNLO 1  0  0  1  2 0.49799739D+01 0.00000000D+00  -5  5  0 0.00000000D+00 0.00000000D+00 0.00000000D+00 0.00000000D+00 0.00000000D+00
  <mgrwgt>
 -.3221395435D+00   11    2    0
 0.108548993907812D+03 0.000000000000000D+00 0.000000000000000D+00 0.108548993907812D+03
 0.108548993907812D+03 0.000000000000000D+00 0.000000000000000D+00 -.108548993907812D+03
 0.129640354859086D+03 -.175107555307708D+02 0.284072205641954D+02 0.824771899063826D+01
 0.874576329565370D+02 0.175107555307708D+02 -.284072205641954D+02 -.824771899063826D+01
 0.000000000000000D+00 0.000000000000000D+00 -.000000000000000D+00 0.000000000000000D+00
 0.113512588139548D+03 0.000000000000000D+00 0.000000000000000D+00 0.113512588139548D+03
 0.109833878265698D+03 0.000000000000000D+00 0.000000000000000D+00 -.109833878265698D+03
 0.130400762117115D+03 -.197972334110914D+02 0.303216662049196D+02 0.824771899063826D+01
 0.867543355752834D+02 0.159789523406946D+02 -.271246566850830D+02 -.824771899063826D+01
 0.619136871284843D+01 0.381828107039682D+01 -.319700951983661D+01 0.367870987385005D+01
0.220653796433D-03 0.000000000000D+00 0.000000000000D+00 0.303776281199D-02 0.000000000000D+00  5 -1 2 25 24 21 0 0.66662972D-03 0.41835043D+00 0.11712174D+05 0.11712174D+05 0.11712174D+05 0.12602617D+01  1  2  2  1  5  1       -1 0.253298051409D+00 0.100000000000D+01
-.122584092448D-04 0.000000000000D+00 -.847368677782D-06 0.303776281199D-02 0.000000000000D+00  5 -1 2 25 24 21 2 0.66662972D-03 0.41835043D+00 0.11712174D+05 0.11712174D+05 0.11712174D+05 0.12602617D+01  1  2  3  1  5  1       -1 -.223499233528D-01 0.100000000000D+01
0.152170676444D-04 0.000000000000D+00 0.000000000000D+00 0.303776281199D-02 0.000000000000D+00  5 -1 2 25 24 21 2 0.66662972D-03 0.41835043D+00 0.11712174D+05 0.11712174D+05 0.11712174D+05 0.12602617D+01  1  2 15  1  5  1       -1 0.277442438667D-01 0.100000000000D+01
0.275545751382D-03 0.000000000000D+00 0.000000000000D+00 0.303776281199D-02 0.000000000000D+00  5 -1 2 25 24 21 2 0.70094026D-03 0.41835043D+00 0.12263462D+05 0.12263462D+05 0.12263462D+05 0.12579202D+01  1  2 12  1  5  1       -1 0.466551523470D+00 0.100000000000D+01
-.100499642048D-02 0.000000000000D+00 0.000000000000D+00 0.303776281199D-02 0.000000000000D+00  5 -1 2 25 24 21 2 0.66662972D-03 0.41835043D+00 0.11712174D+05 0.11712174D+05 0.11712174D+05 0.12602617D+01  1  2  4  1  5  1       -1 -.183234158031D+01 0.100000000000D+01
-.327508152657D-02 0.000000000000D+00 -.446676173535D-03 0.303776281199D-02 0.000000000000D+00  5 -1 2 25 24 21 2 0.70772192D-03 0.41835043D+00 0.11712174D+05 0.11712174D+05 0.11712174D+05 0.12602617D+01  1  2  5  1  5  1       -1 -.548807872393D+01 0.100000000000D+01
0.329669847130D-02 0.000000000000D+00 0.445878256694D-03 0.303776281199D-02 0.000000000000D+00  5 -1 2 25 24 21 2 0.66662972D-03 0.41835043D+00 0.11712174D+05 0.11712174D+05 0.11712174D+05 0.12602617D+01  1  2  6  1  5  1       -1 0.601064597203D+01 0.100000000000D+01
0.729624069580D-03 0.000000000000D+00 0.000000000000D+00 0.303776281199D-02 0.103482219971D-02  5 -1 2 25 24 21 2 0.69711254D-03 0.42330240D+00 0.12263462D+05 0.12263462D+05 0.12263462D+05 0.12579202D+01  1  2 11  1  5  1       -1 0.119545694959D+01 0.100000000000D+01
0.403203035864D-05 0.000000000000D+00 0.000000000000D+00 0.303776281199D-02 0.000000000000D+00  5 21 2 25 24 1 2 0.70094026D-03 0.41835043D+00 0.12263462D+05 0.12263462D+05 0.12263462D+05 0.12579202D+01  1  2 12  3  5  1       -1 0.168226797599D+00 0.100000000000D+01
-.330966463429D-04 0.000000000000D+00 -.458968983483D-05 0.303776281199D-02 0.000000000000D+00  5 21 2 25 24 1 2 0.70772192D-03 0.41835043D+00 0.11712174D+05 0.11712174D+05 0.11712174D+05 0.12602617D+01  1  2  5  3  5  1       -1 -.136567364909D+01 0.100000000000D+01
0.654322101491D-05 0.000000000000D+00 0.000000000000D+00 0.303776281199D-02 0.817674565392D-05  5 21 2 25 24 1 2 0.69711254D-03 0.42330240D+00 0.12263462D+05 0.12263462D+05 0.12263462D+05 0.12579202D+01  1  2 11  3  5  1       -1 0.264380795170D+00 0.100000000000D+01
  </mgrwgt>
  </event>
  <event>
  5     66 0.45252658E-03 0.11906173E+03 0.75467711E-02 0.12177377E+00
       -1 -1    0    0    0  501 0.00000000E+00 0.00000000E+00 0.63675732E+03 0.63675740E+03 0.32000000E+00 0.0000E+00 0.9000E+01
       21 -1    0    0  501  502 0.00000000E+00 0.00000000E+00 -.34800305E+02 0.34808386E+02 0.75000000E+00 0.0000E+00 0.9000E+01
       25  1    1    2    0    0 0.36921203E+02 -.44876824E+02 0.17198636E+03 0.22041191E+03 0.12500000E+03 0.0000E+00 0.9000E+01
       24  1    1    2    0    0 -.60103484E+02 0.21296465E+02 0.30122015E+03 0.31822439E+03 0.80419002E+02 0.0000E+00 0.9000E+01
       -2  1    1    2    0  502 0.23182280E+02 0.23580359E+02 0.12875051E+03 0.13292948E+03 0.32000000E+00 0.0000E+00 0.9000E+01
#aMCatNLO 2  0  0  2  2 0.33067378D+02 0.00000000D+00  -5  5  0 0.00000000D+00 0.00000000D+00 0.00000000D+00 0.00000000D+00 0.00000000D+00
  <mgrwgt>
 0.1090898233D+00    1    2    0
 0.127584499838695D+03 0.000000000000000D+00 0.000000000000000D+00 0.127584499838695D+03
 0.127584499838695D+03 0.000000000000000D+00 0.000000000000000D+00 -.127584499838695D+03
 0.145529046506212D+03 0.500685446328984D+02 -.315037206281172D+02 -.453250460775976D+02
 0.109639953171177D+03 -.500685446328984D+02 0.315037206281172D+02 0.453250460775976D+02
 0.000000000000000D+00 0.000000000000000D+00 0.000000000000000D+00 0.000000000000000D+00
 0.161922089523483D+03 0.000000000000000D+00 0.000000000000000D+00 0.161922089523483D+03
 0.136867653057109D+03 0.000000000000000D+00 0.000000000000000D+00 -.136867653057109D+03
 0.145108457387046D+03 0.369212034827502D+02 -.448768240486912D+02 -.453250460775976D+02
 0.112194224012091D+03 -.601034835761601D+02 0.212964646685445D+02 0.453250460775976D+02
 0.414870611814544D+02 0.231822800934098D+02 0.235803593801467D+02 0.250544364663738D+02
0.301350836521D-04 0.000000000000D+00 0.000000000000D+00 0.236049768806D-02 0.262309188054D-06  5 -1 21 25 24 -2 2 0.97962866D-01 0.53544975D-02 0.18706963D+05 0.18706963D+05 0.18706963D+05 0.12370345D+01  1  2  1  4  5  2        2 0.109089823311D+00 0.100000000000D+01
  </mgrwgt>
  </event>
  <event>
  4     66 0.45252658E-03 0.71134855E+02 0.75467711E-02 0.11786374E+00
       -3 -1    0    0    0  501 0.00000000E+00 0.00000000E+00 0.23897857E+02 0.23903087E+02 0.50000000E+00 0.0000E+00 0.9000E+01
        4 -1    0    0  501    0 0.00000000E+00 0.00000000E+00 -.66808283E+03 0.66808463E+03 0.15500000E+01 0.0000E+00 0.9000E+01
       25  1    1    2    0    0 0.24059124E+02 -.33040606E+02 -.20445150E+03 0.24309656E+03 0.12500000E+03 0.0000E+00 0.9000E+01
       24  1    1    2    0    0 -.24059124E+02 0.33040606E+02 -.43973347E+03 0.44889115E+03 0.80419002E+02 0.0000E+00 0.9000E+01
#aMCatNLO 1  0  0  1  2 0.96090419D+02 0.00000000D+00  -5  5  0 0.00000000D+00 0.00000000D+00 0.00000000D+00 0.00000000D+00 0.00000000D+00
  <mgrwgt>
 0.1340566205D-01    7    2    0
 0.126365262761107D+03 0.000000000000000D+00 0.000000000000000D+00 0.126365262761107D+03
 0.126365262761107D+03 0.000000000000000D+00 0.000000000000000D+00 -.126365262761107D+03
 0.144482947648413D+03 0.240591242500144D+02 -.330406064596638D+02 0.598314217303430D+02
 0.108247577873801D+03 -.240591242500144D+02 0.330406064596638D+02 -.598314217303430D+02
 0.000000000000000D+00 0.000000000000000D+00 -.000000000000000D+00 0.000000000000000D+00
 0.208481186752719D+03 0.000000000000000D+00 0.000000000000000D+00 0.208481186752719D+03
 0.166686476460464D+03 0.000000000000000D+00 0.000000000000000D+00 -.166686476460464D+03
 0.140662796362294D+03 0.153315326367042D+02 0.186055733906689D+02 0.598314217303430D+02
 0.129718577268888D+03 -.313426677133075D+02 0.761415227627668D+02 -.598314217303430D+02
 0.104786289582002D+03 0.160111350766033D+02 -.947470961534357D+02 0.417947102922541D+02
0.247257580141D-03 0.000000000000D+00 0.000000000000D+00 0.214766254520D-02 0.000000000000D+00  5 -3 4 25 24 21 0 0.36771340D-02 0.10278251D+00 0.12290146D+05 0.12290146D+05 0.12290146D+05 0.12578099D+01  1  2  2  1  5  1       -3 0.138508190552D-01 0.100000000000D+01
-.134503527928D-04 0.000000000000D+00 -.949534212159D-06 0.214766254520D-02 0.000000000000D+00  5 -3 4 25 24 21 2 0.36771340D-02 0.10278251D+00 0.12290146D+05 0.12290146D+05 0.12290146D+05 0.12578099D+01  1  2  3  1  5  1       -3 -.119203642905D-02 0.100000000000D+01
0.169310983378D-04 0.000000000000D+00 0.000000000000D+00 0.214766254520D-02 0.000000000000D+00  5 -3 4 25 24 21 2 0.36771340D-02 0.10278251D+00 0.12290146D+05 0.12290146D+05 0.12290146D+05 0.12578099D+01  1  2 15  1  5  1       -3 0.150051722161D-02 0.100000000000D+01
0.267785278043D-05 0.000000000000D+00 0.000000000000D+00 0.214766254520D-02 0.000000000000D+00  5 -3 4 25 24 21 2 0.63461636D-02 0.10278251D+00 0.28643900D+05 0.28643900D+05 0.28643900D+05 0.12170125D+01  1  2 12  1  5  1       -3 0.100529181967D-03 0.100000000000D+01
-.478820885775D-04 0.000000000000D+00 -.704885123472D-04 0.214766254520D-02 0.000000000000D+00  5 -3 4 25 24 21 2 0.80218157D-02 0.10278251D+00 0.12290146D+05 0.12290146D+05 0.12290146D+05 0.12578099D+01  1  2  5  1  5  1       -3 -.123458299661D-02 0.100000000000D+01
0.162081298381D-06 0.000000000000D+00 0.000000000000D+00 0.214766254520D-02 0.000000000000D+00  5 21 4 25 24 3 2 0.63461636D-02 0.10278251D+00 0.28643900D+05 0.28643900D+05 0.28643900D+05 0.12170125D+01  1  2 12  3  5  1       -3 0.143838306224D-03 0.100000000000D+01
0.384483350674D-06 0.000000000000D+00 -.595624446334D-05 0.214766254520D-02 0.000000000000D+00  5 21 4 25 24 3 2 0.80218157D-02 0.10278251D+00 0.12290146D+05 0.12290146D+05 0.12290146D+05 0.12578099D+01  1  2  5  3  5  1       -3 0.236577715540D-03 0.100000000000D+01
  </mgrwgt>
  </event>
  <event>
  4     66 0.45252658E-03 0.12493739E+03 0.75467711E-02 0.10317391E+00
       -1 -1    0    0    0  501 0.00000000E+00 0.00000000E+00 0.23065032E+02 0.23067252E+02 0.32000000E+00 0.0000E+00 0.9000E+01
        2 -1    0    0  501    0 0.00000000E+00 0.00000000E+00 -.13774262E+04 0.13774262E+04 0.32000000E+00 0.0000E+00 0.9000E+01
       25  1    1    2    0    0 0.57797266E+02 -.39478052E+02 -.22918192E+03 0.27027466E+03 0.12500000E+03 0.0000E+00 0.9000E+01
       24  1    1    2    0    0 -.57797266E+02 0.39478052E+02 -.11251792E+04 0.11302188E+04 0.80419002E+02 0.0000E+00 0.9000E+01
#aMCatNLO 1  0  0  2  2 0.40894086D+03 0.00000000D+00  -5  5  0 0.00000000D+00 0.00000000D+00 0.00000000D+00 0.00000000D+00 0.00000000D+00
  <mgrwgt>
 0.4256964400D+00    3    2    0
 0.178246906882232D+03 0.000000000000000D+00 0.000000000000000D+00 0.178246906882232D+03
 0.178246906882232D+03 0.000000000000000D+00 0.000000000000000D+00 -.178246906882232D+03
 0.191091146658690D+03 0.577972663162325D+02 -.394780515967289D+02 0.126458632682112D+03
 0.165402667105774D+03 -.577972663162325D+02 0.394780515967289D+02 -.126458632682112D+03
 0.000000000000000D+00 -.000000000000000D+00 0.000000000000000D+00 0.000000000000000D+00
 0.152728808627125D+04 0.000000000000000D+00 0.000000000000000D+00 0.152728808627125D+04
 0.304542464634725D+03 0.000000000000000D+00 0.000000000000000D+00 -.304542464634725D+03
 0.371066828406918D+03 0.265173690979312D+03 -.189094471036432D+03 0.126458632682112D+03
 0.171446274202525D+03 0.664641196258702D+02 -.501731402852692D+02 -.126458632682112D+03
 0.128931744829653D+04 -.331637810605182D+03 0.239267611321701D+03 0.122274562163652D+04
0.789795226379D-03 0.000000000000D+00 0.000000000000D+00 0.118183542473D-02 0.000000000000D+00  5 -1 2 25 24 21 0 0.35486401D-02 0.21191190D+00 0.15609352D+05 0.15609352D+05 0.15609352D+05 0.12458559D+01  1  2  2  2  5  2        2 0.412337031351D+00 0.100000000000D+01
-.371407207731D-04 0.000000000000D+00 -.303302162715D-05 0.118183542473D-02 0.000000000000D+00  5 -1 2 25 24 21 2 0.35486401D-02 0.21191190D+00 0.15609352D+05 0.15609352D+05 0.15609352D+05 0.12458559D+01  1  2  3  2  5  2        2 -.300970378889D-01 0.100000000000D+01
0.536266642989D-04 0.000000000000D+00 0.000000000000D+00 0.118183542473D-02 0.000000000000D+00  5 -1 2 25 24 21 2 0.35486401D-02 0.21191190D+00 0.15609352D+05 0.15609352D+05 0.15609352D+05 0.12458559D+01  1  2 15  2  5  2        2 0.434564465542D-01 0.100000000000D+01
  </mgrwgt>
  </event>
  <event>
  4     66 0.45252658E-03 0.13440415E+03 0.75467711E-02 0.87456698E-01
       -1 -1    0    0    0  501 0.00000000E+00 0.00000000E+00 0.30301131E+02 0.30302821E+02 0.32000000E+00 0.0000E+00 0.9000E+01
        2 -1    0    0  501    0 0.00000000E+00 0.00000000E+00 -.59793743E+03 0.59793751E+03 0.32000000E+00 0.0000E+00 0.9000E+01
       25  1    1    2    0    0 -.77689148E+02 0.35678035E+02 -.30262873E+03 0.33840461E+03 0.12500000E+03 0.0000E+00 0.9000E+01
       24  1    1    2    0    0 0.77689148E+02 -.35678035E+02 -.26500756E+03 0.28983573E+03 0.80419002E+02 0.0000E+00 0.9000E+01
#aMCatNLO 1  0  0  1  2 0.17173447D+04 0.00000000D+00  -5  5  0 0.00000000D+00 0.00000000D+00 0.00000000D+00 0.00000000D+00 0.00000000D+00
  <mgrwgt>
 0.4079742794D+00    5    2    0
 0.134605862256190D+03 0.000000000000000D+00 0.000000000000000D+00 0.134605862256190D+03
 0.134605862256190D+03 0.000000000000000D+00 0.000000000000000D+00 -.134605862256190D+03
 0.151614378624147D+03 -.776891484845982D+02 0.356780347852959D+02 0.730710935893872D+01
 0.117597345888233D+03 0.776891484845982D+02 -.356780347852959D+02 -.730710935893872D+01
 0.000000000000000D+00 0.000000000000000D+00 -.000000000000000D+00 0.000000000000000D+00
 0.295227805352148D+04 0.000000000000000D+00 0.000000000000000D+00 0.295227805352148D+04
 0.122310788876251D+04 0.000000000000000D+00 0.000000000000000D+00 -.122310788876251D+04
 0.125527814194282D+04 -.198755176434923D+03 0.123310226649397D+04 0.730710935893872D+01
 0.483039400627218D+03 0.260031070289740D+02 0.475531587995570D+03 -.730710935893872D+01
 0.243706839971396D+04 0.172752069405949D+03 -.170863385448954D+04 0.172917016475897D+04
0.371787404555D-03 0.000000000000D+00 0.000000000000D+00 0.255464503420D-02 0.000000000000D+00  5 -1 2 25 24 21 0 0.46618491D-02 0.91990510D-01 0.18064475D+05 0.18064475D+05 0.18064475D+05 0.12387225D+01  1  2  2  1  5  1       -1 0.399678191169D+00 0.100000000000D+01
-.206547993286D-04 0.000000000000D+00 -.142776152736D-05 0.255464503420D-02 0.000000000000D+00  5 -1 2 25 24 21 2 0.46618491D-02 0.91990510D-01 0.18064475D+05 0.18064475D+05 0.18064475D+05 0.12387225D+01  1  2  3  1  5  1       -1 -.340709932492D-01 0.100000000000D+01
0.256602828767D-04 0.000000000000D+00 0.000000000000D+00 0.255464503420D-02 0.000000000000D+00  5 -1 2 25 24 21 2 0.46618491D-02 0.91990510D-01 0.18064475D+05 0.18064475D+05 0.18064475D+05 0.12387225D+01  1  2 15  1  5  1       -1 0.423277568935D-01 0.100000000000D+01
0.178133427876D-01 0.000000000000D+00 -.353561338250D-02 0.255464503420D-02 0.000000000000D+00  5 -1 2 25 24 21 2 0.75402624D+00 0.91990510D-01 0.18064475D+05 0.18064475D+05 0.18064475D+05 0.12387225D+01  1  2  5  1  5  1       -1 0.304605055121D-04 0.100000000000D+01
0.528773938037D-02 0.000000000000D+00 -.130141563938D-02 0.255464503420D-02 0.000000000000D+00  5 21 2 25 24 1 2 0.75402624D+00 0.91990510D-01 0.18064475D+05 0.18064475D+05 0.18064475D+05 0.12387225D+01  1  2  5  3  5  1       -1 0.886410943649D-05 0.100000000000D+01
  </mgrwgt>
  </event>
  <event>
  5     66 0.45252658E-03 0.11522596E+03 0.75467711E-02 0.12239963E+00
       21 -1    0    0  502  501 0.00000000E+00 0.00000000E+00 0.54985687E+02 0.54990802E+02 0.75000000E+00 0.0000E+00 0.9000E+01
        2 -1    0    0  501    0 0.00000000E+00 0.00000000E+00 -.15256246E+04 0.15256246E+04 0.32000000E+00 0.0000E+00 0.9000E+01
       25  1    1    2    0    0 0.55300507E+02 -.21016130E+02 -.46472094E+02 0.14589201E+03 0.12500000E+03 0.0000E+00 0.9000E+01
       24  1    1    2    0    0 -.28574958E+02 0.39387379E+02 -.43565448E+03 0.44567918E+03 0.80419002E+02 0.0000E+00 0.9000E+01
        1  1    1    2  502    0 -.26725548E+02 -.18371249E+02 -.98851233E+03 0.98904423E+03 0.32000000E+00 0.0000E+00 0.9000E+01
#aMCatNLO 2  0  0  1  2 0.32430814D+02 0.00000000D+00  -5  5  0 0.00000000D+00 0.00000000D+00 0.00000000D+00 0.00000000D+00 0.00000000D+00
  <mgrwgt>
 0.8125985956D-01    1    2    0
 0.170630221465195D+03 0.000000000000000D+00 0.000000000000000D+00 0.170630221465195D+03
 0.170630221465195D+03 0.000000000000000D+00 0.000000000000000D+00 -.170630221465195D+03
 0.184047809461905D+03 0.408271537470309D+02 -.309651709071262D+02 0.124991591218508D+03
 0.157212633468485D+03 -.408271537470309D+02 0.309651709071262D+02 -.124991591218508D+03
 0.000000000000000D+00 -.000000000000000D+00 -.000000000000000D+00 -.000000000000000D+00
 0.172231900017786D+03 0.000000000000000D+00 0.000000000000000D+00 0.172231900017786D+03
 0.487084601193405D+03 0.000000000000000D+00 0.000000000000000D+00 -.487084601193405D+03
 0.186407407638748D+03 0.553005065643773D+02 -.210161300192701D+02 0.124991591218508D+03
 0.156390561478089D+03 -.285749584057635D+02 0.393873792201975D+02 -.124991591218508D+03
 0.316518532094355D+03 -.267255481586137D+02 -.183712492009274D+02 -.314852701175620D+03
0.279965027807D-04 0.000000000000D+00 0.000000000000D+00 0.113638933174D-02 0.323335508891D-07  5 21 2 25 24 1 2 0.84597285D-02 0.23471176D+00 0.17518985D+05 0.17518985D+05 0.17518985D+05 0.12402093D+01  1  2  1  3  5  1       -1 0.812598595627D-01 0.100000000000D+01
  </mgrwgt>
  </event>
  <event>
  5     66 -.45252658E-03 0.11446458E+03 0.75467711E-02 0.12381409E+00
       -1 -1    0    0    0  502 0.00000000E+00 0.00000000E+00 0.18414245E+03 0.18414272E+03 0.32000000E+00 0.0000E+00 0.9000E+01
        2 -1    0    0  501    0 0.00000000E+00 0.00000000E+00 -.11290622E+03 0.11290668E+03 0.32000000E+00 0.0000E+00 0.9000E+01
       25  1    1    2    0    0 0.13967828E+02 -.38519151E+02 0.10741163E+03 0.16982662E+03 0.12500000E+03 0.0000E+00 0.9000E+01
       24  1    1    2    0    0 -.24613564E+02 0.50846915E+02 -.45652410E+02 0.10836325E+03 0.80419002E+02 0.0000E+00 0.9000E+01
       21  1    1    2  501  502 0.10645735E+02 -.12327763E+02 0.94770064E+01 0.18859522E+02 0.75000000E+00 0.0000E+00 0.9000E+01
#aMCatNLO 2  0  0  1  2 0.16288199D+02 0.00000000D+00  -5  5  0 0.00000000D+00 0.00000000D+00 0.00000000D+00 0.00000000D+00 0.00000000D+00
  <mgrwgt>
 -.3676292967D-01    2    2    0
 0.135379192017586D+03 0.000000000000000D+00 0.000000000000000D+00 0.135379192017586D+03
 0.135379192017586D+03 0.000000000000000D+00 0.000000000000000D+00 -.135379192017586D+03
 0.152290550235103D+03 0.198996629816894D+02 -.453882166576584D+02 0.714935304259270D+02
 0.118467833800069D+03 -.198996629816894D+02 0.453882166576584D+02 -.714935304259270D+02
 0.000000000000000D+00 0.000000000000000D+00 -.000000000000000D+00 0.000000000000000D+00
 0.146920506656527D+03 0.000000000000000D+00 0.000000000000000D+00 0.146920506656527D+03
 0.141495306776243D+03 0.000000000000000D+00 0.000000000000000D+00 -.141495306776243D+03
 0.149716900032024D+03 0.139678284468971D+02 -.385191514822726D+02 0.714935304259270D+02
 0.121530971760129D+03 -.246135639198010D+02 0.508469145670959D+02 -.714935304259270D+02
 0.171679416406164D+02 0.106457354729039D+02 -.123277630848233D+02 0.542519988028413D+01
-.696495391874D-03 0.000000000000D+00 0.000000000000D+00 0.191586583933D-02 0.000000000000D+00  5 -1 2 25 24 21 2 0.28878421D-01 0.16618469D-01 0.15142487D+05 0.15142487D+05 0.15142487D+05 0.12473547D+01  1  2 13  1  5  1       -1 -.443552109887D+00 0.100000000000D+01
0.650869733871D-03 0.000000000000D+00 0.000000000000D+00 0.191586583933D-02 0.601637551371D-04  5 -1 2 25 24 21 2 0.28328045D-01 0.17369253D-01 0.15142487D+05 0.15142487D+05 0.15142487D+05 0.12473547D+01  1  2  1  1  5  1       -1 0.406789180214D+00 0.100000000000D+01
  </mgrwgt>
  </event>
  <event>
  5     66 0.45252658E-03 0.10668429E+03 0.75467711E-02 0.12355503E+00
       21 -1    0    0  502  501 0.00000000E+00 0.00000000E+00 0.97764952E+01 0.98052210E+01 0.75000000E+00 0.0000E+00 0.9000E+01
        2 -1    0    0  501    0 0.00000000E+00 0.00000000E+00 -.16081122E+04 0.16081122E+04 0.32000000E+00 0.0000E+00 0.9000E+01
       25  1    1    2    0    0 0.32819616E+02 -.34757093E+02 -.90941125E+03 0.91920564E+03 0.12500000E+03 0.0000E+00 0.9000E+01
       24  1    1    2    0    0 -.52997650E+01 0.15769207E+02 -.44605925E+03 0.45355576E+03 0.80419002E+02 0.0000E+00 0.9000E+01
        1  1    1    2  502    0 -.27519851E+02 0.18987886E+02 -.24286516E+03 0.24515601E+03 0.32000000E+00 0.0000E+00 0.9000E+01
#aMCatNLO 2  0  0  1  1 0.33434742D+02 0.00000000D+00  -5  5  0 0.00000000D+00 0.00000000D+00 0.00000000D+00 0.00000000D+00 0.00000000D+00
  <mgrwgt>
 0.1478794814D+00    1    2    0
 0.107302949321180D+03 0.000000000000000D+00 0.000000000000000D+00 0.107302949321180D+03
 0.107302949321180D+03 0.000000000000000D+00 0.000000000000000D+00 -.107302949321180D+03
 0.128639231556579D+03 0.160615860754739D+02 -.231945460900936D+02 -.112734369152324D+02
 0.859666670857815D+02 -.160615860754739D+02 0.231945460900936D+02 0.112734369152324D+02
 0.000000000000000D+00 -.000000000000000D+00 0.000000000000000D+00 -.000000000000000D+00
 0.122984599140126D+03 0.000000000000000D+00 0.000000000000000D+00 0.122984599140126D+03
 0.128022321386941D+03 0.000000000000000D+00 0.000000000000000D+00 -.128022321386941D+03
 0.134302915291864D+03 0.328196157189884D+02 -.347570928023304D+02 -.112734369152324D+02
 0.828918676451719D+02 -.529976502663008D+01 0.157692066418999D+02 0.112734369152324D+02
 0.338121375900314D+02 -.275198506923583D+02 0.189878861604305D+02 -.503772224681473D+01
0.319286456899D-05 0.000000000000D+00 0.000000000000D+00 0.306113338332D-02 0.580665317423D-06  5 21 2 25 24 1 2 0.15062792D-02 0.24740259D+00 0.15548264D+05 0.15548264D+05 0.15548264D+05 0.12460491D+01  1  2  1  3  5  1       -1 0.147879481365D+00 0.100000000000D+01
  </mgrwgt>
  </event>
  <event>
  4     66 0.45252658E-03 0.37423824E+02 0.75467711E-02 0.12044917E+00
       -1 -1    0    0    0  501 0.00000000E+00 0.00000000E+00 0.73268720E+03 0.73268727E+03 0.32000000E+00 0.0000E+00 0.9000E+01
        2 -1    0    0  501    0 0.00000000E+00 0.00000000E+00 -.20491370E+02 0.20493869E+02 0.32000000E+00 0.0000E+00 0.9000E+01
       25  1    1    2    0    0 -.38630748E+01 -.65065551E+02 0.38481687E+03 0.40982615E+03 0.12500000E+03 0.0000E+00 0.9000E+01
       24  1    1    2    0    0 0.38630748E+01 0.65065551E+02 0.32737896E+03 0.34335499E+03 0.80419002E+02 0.0000E+00 0.9000E+01
#aMCatNLO 1  0  0  1  2 0.44952308D+02 0.00000000D+00  -5  5  0 0.00000000D+00 0.00000000D+00 0.00000000D+00 0.00000000D+00 0.00000000D+00
  <mgrwgt>
 0.2993226333D+00    9    2    0
 0.122534614660167D+03 0.000000000000000D+00 0.000000000000000D+00 0.122534614660167D+03
 0.122534614660167D+03 0.000000000000000D+00 0.000000000000000D+00 -.122534614660167D+03
 0.141218690321211D+03 -.386307479075762D+01 -.650655505729870D+02 -.832281670067585D+01
 0.103850538999124D+03 0.386307479075762D+01 0.650655505729870D+02 0.832281670067585D+01
 0.000000000000000D+00 -.000000000000000D+00 -.000000000000000D+00 0.000000000000000D+00
 0.190591335658864D+03 0.000000000000000D+00 0.000000000000000D+00 0.190591335658864D+03
 0.132231693648426D+03 0.000000000000000D+00 0.000000000000000D+00 -.132231693648426D+03
 0.131736567138221D+03 0.106191918490961D+01 -.407323725208186D+02 -.832281670067585D+01
 0.117421288700626D+03 0.785553285347918D+01 0.847912991497367D+02 0.832281670067585D+01
 0.736651734684433D+02 -.891745203838880D+01 -.440589266289181D+02 0.583596420104381D+02
0.971800152143D-03 0.000000000000D+00 0.000000000000D+00 0.272605896140D-02 0.000000000000D+00  5 -1 2 25 24 21 0 0.11272130D+00 0.31527161D-02 0.14943806D+05 0.14943806D+05 0.14943806D+05 0.12480084D+01  1  2  2  1  5  1       -1 0.239257332835D+00 0.100000000000D+01
-.539885294164D-04 0.000000000000D+00 -.373196846509D-05 0.272605896140D-02 0.000000000000D+00  5 -1 2 25 24 21 2 0.11272130D+00 0.31527161D-02 0.14943806D+05 0.14943806D+05 0.14943806D+05 0.12480084D+01  1  2  3  1  5  1       -1 -.207025962092D-01 0.100000000000D+01
0.670526544938D-04 0.000000000000D+00 0.000000000000D+00 0.272605896140D-02 0.000000000000D+00  5 -1 2 25 24 21 2 0.11272130D+00 0.31527161D-02 0.14943806D+05 0.14943806D+05 0.14943806D+05 0.12480084D+01  1  2 15  1  5  1       -1 0.257122030503D-01 0.100000000000D+01
0.906694656639D-03 0.000000000000D+00 0.000000000000D+00 0.272605896140D-02 0.000000000000D+00  5 -1 2 25 24 21 2 0.17776191D+00 0.31527161D-02 0.21543144D+05 0.21543144D+05 0.21543144D+05 0.12302881D+01  1  2 12  1  5  1       -1 0.107351367723D+00 0.100000000000D+01
-.101528870597D-02 0.000000000000D+00 0.000000000000D+00 0.272605896140D-02 0.000000000000D+00  5 -1 2 25 24 21 2 0.11272130D+00 0.31527161D-02 0.14943806D+05 0.14943806D+05 0.14943806D+05 0.12480084D+01  1  2  4  1  5  1       -1 -.389325516784D+00 0.100000000000D+01
-.123158719539D-02 0.000000000000D+00 -.297190084236D-03 0.272605896140D-02 0.000000000000D+00  5 -1 2 25 24 21 2 0.18193229D+00 0.31527161D-02 0.14943806D+05 0.14943806D+05 0.14943806D+05 0.12480084D+01  1  2  5  1  5  1       -1 -.139871775938D+00 0.100000000000D+01
0.125801302262D-02 0.000000000000D+00 0.266111069202D-03 0.272605896140D-02 0.000000000000D+00  5 -1 2 25 24 21 2 0.11272130D+00 0.31527161D-02 0.14943806D+05 0.14943806D+05 0.14943806D+05 0.12480084D+01  1  2  6  1  5  1       -1 0.482401278843D+00 0.100000000000D+01
0.475556396786D-04 0.000000000000D+00 0.000000000000D+00 0.272605896140D-02 0.000000000000D+00  5 21 2 25 24 1 2 0.17776191D+00 0.31527161D-02 0.21543144D+05 0.21543144D+05 0.21543144D+05 0.12302881D+01  1  2 12  3  5  1       -1 0.481395896475D-01 0.100000000000D+01
-.543619740963D-04 0.000000000000D+00 -.161941713679D-04 0.272605896140D-02 0.000000000000D+00  5 21 2 25 24 1 2 0.18193229D+00 0.31527161D-02 0.14943806D+05 0.14943806D+05 0.14943806D+05 0.12480084D+01  1  2  5  3  5  1       -1 -.536392498801D-01 0.100000000000D+01
  </mgrwgt>
  </event>
  <event>
  4     66 0.45252658E-03 0.66201627E+02 0.75467711E-02 0.11733310E+00
       -1 -1    0    0    0  501 0.00000000E+00 0.00000000E+00 0.37135051E+03 0.37135065E+03 0.32000000E+00 0.0000E+00 0.9000E+01
        2 -1    0    0  501    0 0.00000000E+00 0.00000000E+00 -.89963539E+02 0.89964108E+02 0.32000000E+00 0.0000E+00 0.9000E+01
       25  1    1    2    0    0 0.10311147E+03 -.14374146E+02 0.28672096E+03 0.32965512E+03 0.12500000E+03 0.0000E+00 0.9000E+01
       24  1    1    2    0    0 -.10311147E+03 0.14374146E+02 -.53339845E+01 0.13165964E+03 0.80419002E+02 0.0000E+00 0.9000E+01
#aMCatNLO 1  0  0  2  1 0.51231383D+02 0.00000000D+00  -5  5  0 0.00000000D+00 0.00000000D+00 0.00000000D+00 0.00000000D+00 0.00000000D+00
  <mgrwgt>
 0.3022407471D+00    9    2    0
 0.182779017862449D+03 0.000000000000000D+00 0.000000000000000D+00 0.182779017862449D+03
 0.182779017862449D+03 0.000000000000000D+00 0.000000000000000D+00 -.182779017862449D+03
 0.195304777318769D+03 0.103111474560792D+03 -.143741455287848D+02 0.108075731770598D+03
 0.170253258406130D+03 -.103111474560792D+03 0.143741455287848D+02 -.108075731770598D+03
 0.000000000000000D+00 -.000000000000000D+00 -.000000000000000D+00 -.000000000000000D+00
 0.204733048370200D+03 0.000000000000000D+00 0.000000000000000D+00 0.204733048370200D+03
 0.217100476094559D+03 0.000000000000000D+00 0.000000000000000D+00 -.217100476094559D+03
 0.205928536116619D+03 0.122761873239901D+03 0.554262284609420D+01 0.108075731770598D+03
 0.163201972147318D+03 -.867805070100017D+02 0.309264864435039D+02 -.108075731770598D+03
 0.527030162008212D+02 -.359813662298989D+02 -.364691092895981D+02 -.123674277243598D+02
0.137119767652D-02 0.000000000000D+00 0.000000000000D+00 0.149045568571D-02 0.000000000000D+00  5 -1 2 25 24 21 0 0.57130903D-01 0.13840599D-01 0.21642512D+05 0.21642512D+05 0.21642512D+05 0.12300701D+01  1  2  2  2  5  2        2 0.210460766572D+00 0.100000000000D+01
-.718133893472D-04 0.000000000000D+00 -.526576012246D-05 0.149045568571D-02 0.000000000000D+00  5 -1 2 25 24 21 2 0.57130903D-01 0.13840599D-01 0.21642512D+05 0.21642512D+05 0.21642512D+05 0.12300701D+01  1  2  3  2  5  2        2 -.166777034669D-01 0.100000000000D+01
0.939858407740D-04 0.000000000000D+00 0.000000000000D+00 0.149045568571D-02 0.000000000000D+00  5 -1 2 25 24 21 2 0.57130903D-01 0.13840599D-01 0.21642512D+05 0.21642512D+05 0.21642512D+05 0.12300701D+01  1  2 15  2  5  2        2 0.218269600803D-01 0.100000000000D+01
0.115093555989D-02 0.000000000000D+00 0.000000000000D+00 0.149045568571D-02 0.000000000000D+00  5 -1 2 25 24 21 2 0.57130903D-01 0.17141815D-01 0.30416922D+05 0.30416922D+05 0.30416922D+05 0.12142698D+01  1  2 12  2  5  2        2 0.203554200055D+00 0.100000000000D+01
-.119428862475D-02 0.000000000000D+00 0.000000000000D+00 0.149045568571D-02 0.000000000000D+00  5 -1 2 25 24 21 2 0.57130903D-01 0.13840599D-01 0.21642512D+05 0.21642512D+05 0.21642512D+05 0.12300701D+01  1  2  4  2  5  2        2 -.277357630916D+00 0.100000000000D+01
-.238976229103D-02 0.000000000000D+00 -.911227216364D-03 0.149045568571D-02 0.000000000000D+00  5 -1 2 25 24 21 2 0.57130903D-01 0.18343102D-01 0.21642512D+05 0.21642512D+05 0.21642512D+05 0.12300701D+01  1  2  5  2  5  2        2 -.399749953877D+00 0.100000000000D+01
0.257844572654D-02 0.000000000000D+00 0.876242787069D-03 0.149045568571D-02 0.000000000000D+00  5 -1 2 25 24 21 2 0.57130903D-01 0.13840599D-01 0.21642512D+05 0.21642512D+05 0.21642512D+05 0.12300701D+01  1  2  6  2  5  2        2 0.598809687490D+00 0.100000000000D+01
0.346685559832D-04 0.000000000000D+00 0.000000000000D+00 0.149045568571D-02 0.000000000000D+00  5 -1 21 25 24 -2 2 0.57130903D-01 0.17141815D-01 0.30416922D+05 0.30416922D+05 0.30416922D+05 0.12142698D+01  1  2 12  4  5  2        2 0.466249278797D-01 0.100000000000D+01
-.697419419190D-04 0.000000000000D+00 -.336493293479D-04 0.149045568571D-02 0.000000000000D+00  5 -1 21 25 24 -2 2 0.57130903D-01 0.18343102D-01 0.21642512D+05 0.21642512D+05 0.21642512D+05 0.12300701D+01  1  2  5  4  5  2        2 -.852505067294D-01 0.100000000000D+01
  </mgrwgt>
  </event>
  <event>
  4     66 0.45252658E-03 0.13630894E+03 0.75467711E-02 0.10801205E+00
       -1 -1    0    0    0  501 0.00000000E+00 0.00000000E+00 0.22572699E+02 0.22574967E+02 0.32000000E+00 0.0000E+00 0.9000E+01
        2 -1    0    0  501    0 0.00000000E+00 0.00000000E+00 -.24376995E+04 0.24376995E+04 0.32000000E+00 0.0000E+00 0.9000E+01
       25  1    1    2    0    0 0.84908726E+02 -.24629907E+02 -.25922533E+03 0.30106294E+03 0.12500000E+03 0.0000E+00 0.9000E+01
       24  1    1    2    0    0 -.84908726E+02 0.24629907E+02 -.21559015E+04 0.21592115E+04 0.80419002E+02 0.0000E+00 0.9000E+01
#aMCatNLO 1  0  0  1  2 0.25049896D+03 0.00000000D+00  -5  5  0 0.00000000D+00 0.00000000D+00 0.00000000D+00 0.00000000D+00 0.00000000D+00
  <mgrwgt>
 0.3220667540D+00    3    2    0
 0.234581058194371D+03 0.000000000000000D+00 0.000000000000000D+00 0.234581058194371D+03
 0.234581058194371D+03 0.000000000000000D+00 0.000000000000000D+00 -.234581058194371D+03
 0.244340780607723D+03 0.849087263000348D+02 -.246299069984204D+02 0.190423982069870D+03
 0.224821335781019D+03 -.849087263000348D+02 0.246299069984204D+02 -.190423982069870D+03
 0.000000000000000D+00 0.000000000000000D+00 0.000000000000000D+00 -.000000000000000D+00
 0.309802004004121D+03 0.000000000000000D+00 0.000000000000000D+00 0.309802004004121D+03
 0.623450082570506D+03 0.000000000000000D+00 0.000000000000000D+00 -.623450082570506D+03
 0.254134148418565D+03 -.350123445084336D+01 -.112630430179428D+03 0.190423982069870D+03
 0.277714344417617D+03 -.174038905523019D+03 -.640874992329996D+02 -.190423982069870D+03
 0.401403593738445D+03 0.177540139973862D+03 0.176717929412427D+03 -.313648078566384D+03
0.200883664791D-02 0.000000000000D+00 0.000000000000D+00 0.759184558408D-03 0.000000000000D+00  5 -1 2 25 24 21 0 0.34728990D-02 0.37503087D+00 0.18580126D+05 0.18580126D+05 0.18580126D+05 0.12373625D+01  1  2  2  1  5  1       -1 0.307023877941D+00 0.100000000000D+01
-.716115238205D-04 0.000000000000D+00 -.771446166680D-05 0.759184558408D-03 0.000000000000D+00  5 -1 2 25 24 21 2 0.34728990D-02 0.37503087D+00 0.18580126D+05 0.18580126D+05 0.18580126D+05 0.12373625D+01  1  2  3  1  5  1       -1 -.167573122433D-01 0.100000000000D+01
0.135896491777D-03 0.000000000000D+00 0.000000000000D+00 0.759184558408D-03 0.000000000000D+00  5 -1 2 25 24 21 2 0.34728990D-02 0.37503087D+00 0.18580126D+05 0.18580126D+05 0.18580126D+05 0.12373625D+01  1  2 15  1  5  1       -1 0.318001883494D-01 0.100000000000D+01
  </mgrwgt>
  </event>
  <event>
  4     66 0.45252658E-03 0.92716752E+02 0.75467711E-02 0.11686011E+00
       -1 -1    0    0    0  501 0.00000000E+00 0.00000000E+00 0.15621886E+03 0.15621919E+03 0.32000000E+00 0.0000E+00 0.9000E+01
        2 -1    0    0  501    0 0.00000000E+00 0.00000000E+00 -.26218382E+03 0.26218401E+03 0.32000000E+00 0.0000E+00 0.9000E+01
       25  1    1    2    0    0 -.91791312E+02 -.58446017E+02 0.83503840E+02 0.18557875E+03 0.12500000E+03 0.0000E+00 0.9000E+01
       24  1    1    2    0    0 0.91791312E+02 0.58446017E+02 -.18946880E+03 0.23282445E+03 0.80419002E+02 0.0000E+00 0.9000E+01
#aMCatNLO 1  0  0  2  1 0.52154721D+02 0.00000000D+00  -5  5  0 0.00000000D+00 0.00000000D+00 0.00000000D+00 0.00000000D+00 0.00000000D+00
  <mgrwgt>
 0.3652355685D+00    9    2    0
 0.202381240052778D+03 0.000000000000000D+00 0.000000000000000D+00 0.202381240052778D+03
 0.202381240052778D+03 0.000000000000000D+00 0.000000000000000D+00 -.202381240052778D+03
 0.213693780734959D+03 -.917913123436233D+02 -.584460171799641D+02 0.134901630749355D+03
 0.191068699370596D+03 0.917913123436233D+02 0.584460171799641D+02 -.134901630749355D+03
 0.000000000000000D+00 -.000000000000000D+00 0.000000000000000D+00 -.000000000000000D+00
 0.229848836597050D+03 0.000000000000000D+00 0.000000000000000D+00 0.229848836597050D+03
 0.230417772511654D+03 0.000000000000000D+00 0.000000000000000D+00 -.230417772511654D+03
 0.203969945665671D+03 -.650186578859204D+02 -.596058963755698D+02 0.134901630749355D+03
 0.204138839154762D+03 0.117124503136135D+03 0.573485002712479D+02 -.134901630749355D+03
 0.521578242882704D+02 -.521058452502150D+02 0.225739610432192D+01 -.568935914604389D+00
0.105809910884D-02 0.000000000000D+00 0.000000000000D+00 0.124357998079D-02 0.000000000000D+00  5 -1 2 25 24 21 0 0.24033711D-01 0.40336012D-01 0.22656339D+05 0.22656339D+05 0.22656339D+05 0.12279077D+01  1  2  2  2  5  2        2 0.222718142231D+00 0.100000000000D+01
-.525188419156D-04 0.000000000000D+00 -.406337918183D-05 0.124357998079D-02 0.000000000000D+00  5 -1 2 25 24 21 2 0.24033711D-01 0.40336012D-01 0.22656339D+05 0.22656339D+05 0.22656339D+05 0.12279077D+01  1  2  3  2  5  2        2 -.166677065703D-01 0.100000000000D+01
0.718942973717D-04 0.000000000000D+00 0.000000000000D+00 0.124357998079D-02 0.000000000000D+00  5 -1 2 25 24 21 2 0.24033711D-01 0.40336012D-01 0.22656339D+05 0.22656339D+05 0.22656339D+05 0.12279077D+01  1  2 15  2  5  2        2 0.228168217150D-01 0.100000000000D+01
0.815972849961D-03 0.000000000000D+00 0.000000000000D+00 0.124357998079D-02 0.000000000000D+00  5 -1 2 25 24 21 2 0.24033711D-01 0.48306768D-01 0.32104678D+05 0.32104678D+05 0.32104678D+05 0.12118199D+01  1  2 12  2  5  2        2 0.209089219074D+00 0.100000000000D+01
-.752185487637D-03 0.000000000000D+00 0.000000000000D+00 0.124357998079D-02 0.000000000000D+00  5 -1 2 25 24 21 2 0.24033711D-01 0.40336012D-01 0.22656339D+05 0.22656339D+05 0.22656339D+05 0.12279077D+01  1  2  4  2  5  2        2 -.238718268283D+00 0.100000000000D+01
-.190746273372D-02 0.000000000000D+00 -.763853743436D-03 0.124357998079D-02 0.000000000000D+00  5 -1 2 25 24 21 2 0.24033711D-01 0.51571261D-01 0.22656339D+05 0.22656339D+05 0.22656339D+05 0.12279077D+01  1  2  5  2  5  2        2 -.466132449633D+00 0.100000000000D+01
0.205529038544D-02 0.000000000000D+00 0.741359894264D-03 0.124357998079D-02 0.000000000000D+00  5 -1 2 25 24 21 2 0.24033711D-01 0.40336012D-01 0.22656339D+05 0.22656339D+05 0.22656339D+05 0.12279077D+01  1  2  6  2  5  2        2 0.652279749738D+00 0.100000000000D+01
0.215509496586D-04 0.000000000000D+00 0.000000000000D+00 0.124357998079D-02 0.000000000000D+00  5 -1 21 25 24 -2 2 0.24033711D-01 0.48306768D-01 0.32104678D+05 0.32104678D+05 0.32104678D+05 0.12118199D+01  1  2 12  4  5  2        2 0.175792197471D-01 0.100000000000D+01
-.512930624377D-04 0.000000000000D+00 -.255236144640D-04 0.124357998079D-02 0.000000000000D+00  5 -1 21 25 24 -2 2 0.24033711D-01 0.51571261D-01 0.22656339D+05 0.22656339D+05 0.22656339D+05 0.12279077D+01  1  2  5  4  5  2        2 -.377291595304D-01 0.100000000000D+01
  </mgrwgt>
  </event>
  <event>
  4     66 0.45252658E-03 0.10128759E+03 0.75467711E-02 0.11921461E+00
       -1 -1    0    0    0  501 0.00000000E+00 0.00000000E+00 0.15389656E+02 0.15392982E+02 0.32000000E+00 0.0000E+00 0.9000E+01
        2 -1    0    0  501    0 0.00000000E+00 0.00000000E+00 -.23530855E+04 0.23530855E+04 0.32000000E+00 0.0000E+00 0.9000E+01
       25  1    1    2    0    0 -.17522076E+02 -.11513836E+03 -.19173204E+04 0.19249172E+04 0.12500000E+03 0.0000E+00 0.9000E+01
       24  1    1    2    0    0 0.17522076E+02 0.11513836E+03 -.42037546E+03 0.44356128E+03 0.80419002E+02 0.0000E+00 0.9000E+01
#aMCatNLO 1  0  0  2  1 0.15839136D+01 0.00000000D+00  -5  5  0 0.00000000D+00 0.00000000D+00 0.00000000D+00 0.00000000D+00 0.00000000D+00
  <mgrwgt>
 0.4782097442D+00   11    2    0
 0.190308016988977D+03 0.000000000000000D+00 0.000000000000000D+00 0.190308016988977D+03
 0.190308016988977D+03 0.000000000000000D+00 0.000000000000000D+00 -.190308016988977D+03
 0.202338230154090D+03 -.175220762536709D+02 -.115138362483081D+03 -.108406151626025D+03
 0.178277803823864D+03 0.175220762536709D+02 0.115138362483081D+03 0.108406151626025D+03
 0.000000000000000D+00 -.000000000000000D+00 0.000000000000000D+00 -.000000000000000D+00
 0.190387207627524D+03 0.000000000000000D+00 0.000000000000000D+00 0.190387207627524D+03
 0.198398043509502D+03 0.000000000000000D+00 0.000000000000000D+00 -.198398043509502D+03
 0.202359341551117D+03 -.166953256944354D+02 -.115298202512413D+03 -.108406151626025D+03
 0.178259988099007D+03 0.182504419258907D+02 0.114997543720866D+03 0.108406151626025D+03
 0.816592148690228D+01 -.155511623145530D+01 0.300658791546889D+00 -.801083588197775D+01
0.534699495198D-03 0.000000000000D+00 0.000000000000D+00 0.152044917360D-02 0.000000000000D+00  5 -1 2 25 24 21 0 0.23678969D-02 0.36201341D+00 0.24395112D+05 0.24395112D+05 0.24395112D+05 0.12244397D+01  1  2  2  2  5  2        2 0.157915044775D+00 0.100000000000D+01
-.282956475490D-04 0.000000000000D+00 -.205338685117D-05 0.152044917360D-02 0.000000000000D+00  5 -1 2 25 24 21 2 0.23678969D-02 0.36201341D+00 0.24395112D+05 0.24395112D+05 0.24395112D+05 0.12244397D+01  1  2  3  2  5  2        2 -.125287630135D-01 0.100000000000D+01
0.366978955338D-04 0.000000000000D+00 0.000000000000D+00 0.152044917360D-02 0.000000000000D+00  5 -1 2 25 24 21 2 0.23678969D-02 0.36201341D+00 0.24395112D+05 0.24395112D+05 0.24395112D+05 0.12244397D+01  1  2 15  2  5  2        2 0.162491151843D-01 0.100000000000D+01
0.609996987338D-05 0.000000000000D+00 0.000000000000D+00 0.152044917360D-02 0.000000000000D+00  5 -1 2 25 24 21 2 0.23678969D-02 0.37747627D+00 0.24643532D+05 0.24643532D+05 0.24643532D+05 0.12239669D+01  1  2 12  2  5  2        2 0.238664357184D-02 0.100000000000D+01
-.676513999036D-01 0.000000000000D+00 0.000000000000D+00 0.152044917360D-02 0.000000000000D+00  5 -1 2 25 24 21 2 0.23678969D-02 0.36201341D+00 0.24395112D+05 0.24395112D+05 0.24395112D+05 0.12244397D+01  1  2  4  2  5  2        2 -.299547255618D+02 0.100000000000D+01
-.740958440483D-01 0.000000000000D+00 -.132783519766D-02 0.152044917360D-02 0.000000000000D+00  5 -1 2 25 24 21 2 0.23678969D-02 0.37745083D+00 0.24395112D+05 0.24395112D+05 0.24395112D+05 0.12244397D+01  1  2  5  2  5  2        2 -.290209762751D+02 0.100000000000D+01
0.740878428602D-01 0.000000000000D+00 0.132667828725D-02 0.152044917360D-02 0.000000000000D+00  5 -1 2 25 24 21 2 0.23678969D-02 0.36201341D+00 0.24395112D+05 0.24395112D+05 0.24395112D+05 0.12244397D+01  1  2  6  2  5  2        2 0.328046574573D+02 0.100000000000D+01
0.677048758663D-01 0.000000000000D+00 0.000000000000D+00 0.152044917360D-02 0.484651397493D-02  5 -1 2 25 24 21 2 0.23688823D-02 0.37740266D+00 0.24643532D+05 0.24643532D+05 0.24643532D+05 0.12239669D+01  1  2 11  2  5  2        2 0.264894374236D+02 0.100000000000D+01
0.136767818731D-06 0.000000000000D+00 0.000000000000D+00 0.152044917360D-02 0.000000000000D+00  5 -1 21 25 24 -2 2 0.23678969D-02 0.37747627D+00 0.24643532D+05 0.24643532D+05 0.24643532D+05 0.12239669D+01  1  2 12  4  5  2        2 0.119795404108D-04 0.100000000000D+01
-.544748876876D-03 0.000000000000D+00 -.977539661256D-05 0.152044917360D-02 0.000000000000D+00  5 -1 21 25 24 -2 2 0.23678969D-02 0.37745083D+00 0.24395112D+05 0.24395112D+05 0.24395112D+05 0.12244397D+01  1  2  5  4  5  2        2 -.478180443054D-01 0.100000000000D+01
0.497574510791D-03 0.000000000000D+00 0.000000000000D+00 0.152044917360D-02 0.355823149848D-04  5 -1 21 25 24 -2 2 0.23688823D-02 0.37740266D+00 0.24643532D+05 0.24643532D+05 0.24643532D+05 0.12239669D+01  1  2 11  4  5  2        2 0.436007243749D-01 0.100000000000D+01
  </mgrwgt>
  </event>
  <event>
  4     66 0.45252658E-03 0.16562624E+03 0.75467711E-02 0.11818183E+00
       -1 -1    0    0    0  501 0.00000000E+00 0.00000000E+00 0.30168796E+02 0.30170493E+02 0.32000000E+00 0.0000E+00 0.9000E+01
        2 -1    0    0  501    0 0.00000000E+00 0.00000000E+00 -.10398786E+04 0.10398786E+04 0.32000000E+00 0.0000E+00 0.9000E+01
       25  1    1    2    0    0 0.12079483E+03 -.44560366E+02 -.73073999E+03 0.75245130E+03 0.12500000E+03 0.0000E+00 0.9000E+01
       24  1    1    2    0    0 -.12079483E+03 0.44560366E+02 -.27896979E+03 0.31759782E+03 0.80419002E+02 0.0000E+00 0.9000E+01
#aMCatNLO 1  0  0  1  2 0.12480975D+01 0.00000000D+00  -5  5  0 0.00000000D+00 0.00000000D+00 0.00000000D+00 0.00000000D+00 0.00000000D+00
  <mgrwgt>
 0.3566038037D+00    6    2    0
 0.177123740167018D+03 0.000000000000000D+00 0.000000000000000D+00 0.177123740167018D+03
 0.177123740167018D+03 0.000000000000000D+00 0.000000000000000D+00 -.177123740167018D+03
 0.190049427086505D+03 0.120794834289691D+03 -.445603656982990D+02 -.625840758793214D+02
 0.164198053247532D+03 -.120794834289691D+03 0.445603656982990D+02 0.625840758793214D+02
 0.000000000000000D+00 -.000000000000000D+00 0.000000000000000D+00 -.000000000000000D+00
 0.177492492595818D+03 0.000000000000000D+00 0.000000000000000D+00 0.177492492595818D+03
 0.178184090386425D+03 0.000000000000000D+00 0.000000000000000D+00 -.178184090386425D+03
 0.190377094044250D+03 0.121086339796250D+03 -.451638096025088D+02 -.625840758793214D+02
 0.163872584954178D+03 -.120543446985537D+03 0.440399702585051D+02 0.625840758793214D+02
 0.142690398381483D+01 -.542892810712589D+00 0.112383934400371D+01 -.691597790607022D+00
0.512195680199D-03 0.000000000000D+00 0.000000000000D+00 0.198332901768D-02 0.000000000000D+00  5 -1 2 25 24 21 0 0.46414876D-02 0.15998145D+00 0.27432052D+05 0.27432052D+05 0.27432052D+05 0.12189985D+01  1  2  2  1  5  1       -1 0.279927981922D+00 0.100000000000D+01
-.282994742041D-04 0.000000000000D+00 -.196696627618D-05 0.198332901768D-02 0.000000000000D+00  5 -1 2 25 24 21 2 0.46414876D-02 0.15998145D+00 0.27432052D+05 0.27432052D+05 0.27432052D+05 0.12189985D+01  1  2  3  1  5  1       -1 -.229823853259D-01 0.100000000000D+01
0.351944776270D-04 0.000000000000D+00 0.000000000000D+00 0.198332901768D-02 0.000000000000D+00  5 -1 2 25 24 21 2 0.46414876D-02 0.15998145D+00 0.27432052D+05 0.27432052D+05 0.27432052D+05 0.12189985D+01  1  2 15  1  5  1       -1 0.285819107569D-01 0.100000000000D+01
-.312689564162D-02 0.000000000000D+00 0.000000000000D+00 0.198332901768D-02 0.000000000000D+00  5 -1 2 25 24 21 2 0.46414876D-02 0.15998145D+00 0.27432052D+05 0.27432052D+05 0.27432052D+05 0.12189985D+01  1  2  4  1  5  1       -1 -.253939419480D+01 0.100000000000D+01
0.312696879793D-02 0.000000000000D+00 0.000000000000D+00 0.198332901768D-02 0.100847973063D-01  5 -1 2 25 24 21 2 0.46511507D-02 0.16093918D+00 0.27638308D+05 0.27638308D+05 0.27638308D+05 0.12186536D+01  1  2 11  1  5  1       -1 0.250916791072D+01 0.100000000000D+01
0.715708568811D-05 0.000000000000D+00 0.000000000000D+00 0.198332901768D-02 0.393767804935D-05  5 21 2 25 24 1 2 0.46511507D-02 0.16093918D+00 0.27638308D+05 0.27638308D+05 0.27638308D+05 0.12186536D+01  1  2 11  3  5  1       -1 0.101302580380D+00 0.100000000000D+01
  </mgrwgt>
  </event>
  <event>
  5     66 0.45252658E-03 0.13044323E+03 0.75467711E-02 0.11298490E+00
       21 -1    0    0  502  501 0.00000000E+00 0.00000000E+00 0.15802292E+03 0.15802470E+03 0.75000000E+00 0.0000E+00 0.9000E+01
        2 -1    0    0  501    0 0.00000000E+00 0.00000000E+00 -.36471689E+03 0.36471703E+03 0.32000000E+00 0.0000E+00 0.9000E+01
       25  1    1    2    0    0 0.17075619E+03 -.21344729E+02 -.18457727E+02 0.21349230E+03 0.12500000E+03 0.0000E+00 0.9000E+01
       24  1    1    2    0    0 -.20616285E+02 0.29078282E+02 -.35270569E+02 0.94772394E+02 0.80419002E+02 0.0000E+00 0.9000E+01
        1  1    1    2  502    0 -.15013991E+03 -.77335529E+01 -.15296567E+03 0.21447703E+03 0.32000000E+00 0.0000E+00 0.9000E+01
#aMCatNLO 2  0  0  1  2 0.15033895D+03 0.00000000D+00  -5  5  0 0.00000000D+00 0.00000000D+00 0.00000000D+00 0.00000000D+00 0.00000000D+00
  <mgrwgt>
 0.7357535665D-01    1    2    0
 0.131850855481525D+03 0.000000000000000D+00 0.000000000000000D+00 0.131850855481525D+03
 0.131850855481525D+03 0.000000000000000D+00 0.000000000000000D+00 -.131850855481525D+03
 0.149214762625292D+03 0.747408214697138D+02 -.262903821177038D+02 0.190439176499914D+02
 0.114486948337759D+03 -.747408214697138D+02 0.262903821177038D+02 -.190439176499914D+02
 0.000000000000000D+00 -.000000000000000D+00 -.000000000000000D+00 -.000000000000000D+00
 0.188450623896571D+03 0.000000000000000D+00 0.000000000000000D+00 0.188450623896571D+03
 0.305831072174007D+03 0.000000000000000D+00 0.000000000000000D+00 -.305831072174007D+03
 0.213543778336161D+03 0.170756191760161D+03 -.213447286745628D+02 0.190439176499914D+02
 0.900025801300329D+02 -.206162852304956D+02 0.290782815779690D+02 -.190439176499914D+02
 0.190735337604385D+03 -.150139906529666D+03 -.773355290340621D+01 -.117380448277437D+03
0.296539871318D-04 0.000000000000D+00 0.000000000000D+00 0.254793039370D-02 0.950946181993D-07  5 21 2 25 24 1 2 0.24311351D-01 0.56110402D-01 0.50849481D+05 0.50849481D+05 0.50849481D+05 0.11915578D+01  1  2  1  3  5  1       -1 0.735753566467D-01 0.100000000000D+01
  </mgrwgt>
  </event>
  <event>
  5     66 0.45252658E-03 0.12218676E+03 0.75467711E-02 0.11659297E+00
       -1 -1    0    0    0  501 0.00000000E+00 0.00000000E+00 0.51893536E+02 0.51894522E+02 0.32000000E+00 0.0000E+00 0.9000E+01
        2 -1    0    0  502    0 0.00000000E+00 0.00000000E+00 -.79790831E+03 0.79790838E+03 0.32000000E+00 0.0000E+00 0.9000E+01
       25  1    1    2    0    0 0.11579641E+03 0.24050497E+02 -.17426539E+03 0.24490949E+03 0.12500000E+03 0.0000E+00 0.9000E+01
       24  1    1    2    0    0 -.15038785E+02 -.37803324E+02 -.34138257E+03 0.35307864E+03 0.80419002E+02 0.0000E+00 0.9000E+01
       21  1    1    2  502  501 -.10075762E+03 0.13752827E+02 -.23036682E+03 0.25181476E+03 0.75000000E+00 0.0000E+00 0.9000E+01
#aMCatNLO 2  0  0  2  1 0.10169188D+03 0.00000000D+00  -5  5  0 0.00000000D+00 0.00000000D+00 0.00000000D+00 0.00000000D+00 0.00000000D+00
  <mgrwgt>
 0.7246317914D-01    1    2    0
 0.142614656567914D+03 0.000000000000000D+00 0.000000000000000D+00 0.142614656567914D+03
 0.142614656567914D+03 0.000000000000000D+00 0.000000000000000D+00 -.142614656567914D+03
 0.158668027704541D+03 0.565871193399560D+02 0.321322192620007D+02 0.729106400037283D+02
 0.126561285431286D+03 -.565871193399560D+02 -.321322192620007D+02 -.729106400037283D+02
 0.000000000000000D+00 -.000000000000000D+00 0.000000000000000D+00 -.000000000000000D+00
 0.190844871740839D+03 0.000000000000000D+00 0.000000000000000D+00 0.190844871740839D+03
 0.216962483489372D+03 0.000000000000000D+00 0.000000000000000D+00 -.216962483489372D+03
 0.186890866120414D+03 0.115796407585816D+03 0.240504969533868D+02 0.729106400037283D+02
 0.115924258767322D+03 -.150387849215034D+02 -.378033244399764D+02 -.729106400037283D+02
 0.104992230342474D+03 -.100757622664313D+03 0.137528274865896D+02 -.261176117485329D+02
0.143104307120D-03 0.000000000000D+00 0.000000000000D+00 0.188956486855D-02 0.162194054750D-05  5 -1 2 25 24 21 2 0.79836484D-02 0.12275439D+00 0.33105566D+05 0.33105566D+05 0.33105566D+05 0.12104340D+01  1  2  1  2  5  2        2 0.724631791420D-01 0.100000000000D+01
  </mgrwgt>
  </event>
  <event>
  5     66 0.45252658E-03 0.11322202E+03 0.75467711E-02 0.12135871E+00
       -1 -1    0    0    0  501 0.00000000E+00 0.00000000E+00 0.12792052E+03 0.12792092E+03 0.32000000E+00 0.0000E+00 0.9000E+01
       21 -1    0    0  501  502 0.00000000E+00 0.00000000E+00 -.22374152E+03 0.22374278E+03 0.75000000E+00 0.0000E+00 0.9000E+01
       25  1    1    2    0    0 0.53314347E+02 -.20688106E+01 -.12487559E+03 0.18456872E+03 0.12500000E+03 0.0000E+00 0.9000E+01
       24  1    1    2    0    0 -.31643956E+02 -.40878399E+02 -.20776009E+02 0.97832724E+02 0.80419002E+02 0.0000E+00 0.9000E+01
       -2  1    1    2    0  502 -.21670392E+02 0.42947209E+02 0.49830601E+02 0.69262254E+02 0.32000000E+00 0.0000E+00 0.9000E+01
#aMCatNLO 2  0  0  2  2 0.48104767D+02 0.00000000D+00  -5  5  0 0.00000000D+00 0.00000000D+00 0.00000000D+00 0.00000000D+00 0.00000000D+00
  <mgrwgt>
 0.3472476616D-01    1    2    0
 0.118556019909684D+03 0.000000000000000D+00 0.000000000000000D+00 0.118556019909684D+03
 0.118556019909684D+03 0.000000000000000D+00 0.000000000000000D+00 -.118556019909684D+03
 0.137867110254582D+03 0.407331932548422D+02 0.228650006212259D+02 -.346459060179411D+02
 0.992449295647870D+02 -.407331932548422D+02 -.228650006212259D+02 0.346459060179411D+02
 0.000000000000000D+00 -.000000000000000D+00 0.000000000000000D+00 0.000000000000000D+00
 0.226322455489255D+03 0.000000000000000D+00 0.000000000000000D+00 0.226322455489255D+03
 0.126462585879057D+03 0.000000000000000D+00 0.000000000000000D+00 -.126462585879057D+03
 0.140257044086618D+03 0.533143473635385D+02 -.206881060306576D+01 -.346459060179411D+02
 0.101685486441139D+03 -.316439556268375D+02 -.408783985361873D+02 0.346459060179411D+02
 0.110842510840555D+03 -.216703917367011D+02 0.429472091392530D+02 0.998598696101980D+02
0.148957042378D-04 0.000000000000D+00 0.000000000000D+00 0.260460006937D-02 0.180112141983D-06  5 -1 21 25 24 -2 2 0.19680173D-01 0.34421840D-01 0.19546368D+05 0.19546368D+05 0.19546368D+05 0.12349245D+01  1  2  1  4  5  2        2 0.347247661602D-01 0.100000000000D+01
  </mgrwgt>
  </event>
  <event>
  4     66 0.45252658E-03 0.63537465E+02 0.75467711E-02 0.12101248E+00
       -3 -1    0    0    0  501 0.00000000E+00 0.00000000E+00 0.26904542E+03 0.26904588E+03 0.50000000E+00 0.0000E+00 0.9000E+01
        4 -1    0    0  501    0 0.00000000E+00 0.00000000E+00 -.82509390E+02 0.82523948E+02 0.15500000E+01 0.0000E+00 0.9000E+01
       25  1    1    2    0    0 0.68056816E+02 -.15305202E+02 0.75854021E+01 0.14334754E+03 0.12500000E+03 0.0000E+00 0.9000E+01
       24  1    1    2    0    0 -.68056816E+02 0.15305202E+02 0.17895063E+03 0.20822229E+03 0.80419002E+02 0.0000E+00 0.9000E+01
#aMCatNLO 1  0  0  2  1 0.32880185D+02 0.00000000D+00  -5  5  0 0.00000000D+00 0.00000000D+00 0.00000000D+00 0.00000000D+00 0.00000000D+00
  <mgrwgt>
 0.5101235843D-01    9    2    0
 0.149001389664818D+03 0.000000000000000D+00 0.000000000000000D+00 0.149001389664818D+03
 0.149001389664818D+03 0.000000000000000D+00 0.000000000000000D+00 -.149001389664818D+03
 0.164366655831513D+03 0.680568157581908D+02 -.153052017998851D+02 -.807800605097290D+02
 0.133636123498123D+03 -.680568157581908D+02 0.153052017998851D+02 0.807800605097290D+02
 0.000000000000000D+00 0.000000000000000D+00 0.000000000000000D+00 -.000000000000000D+00
 0.164567012215591D+03 0.000000000000000D+00 0.000000000000000D+00 0.164567012215591D+03
 0.168340171469345D+03 0.000000000000000D+00 0.000000000000000D+00 -.168340171469345D+03
 0.163623093579927D+03 0.602200926048850D+02 -.315537481667264D+02 -.807800605097290D+02
 0.136188118808011D+03 -.745037790879841D+02 0.193816298273807D+01 0.807800605097290D+02
 0.330959712969981D+02 0.142836864830991D+02 0.296155851839883D+02 -.377315925375423D+01
0.758825704595D-03 0.000000000000D+00 0.000000000000D+00 0.176898720876D-02 0.000000000000D+00  5 -3 4 25 24 21 0 0.41392758D-01 0.12694908D-01 0.15575563D+05 0.15575563D+05 0.15575563D+05 0.12459626D+01  1  2  2  2  5  2        4 0.429944299583D-01 0.100000000000D+01
-.405470503444D-04 0.000000000000D+00 -.291409050904D-05 0.176898720876D-02 0.000000000000D+00  5 -3 4 25 24 21 2 0.41392758D-01 0.12694908D-01 0.15575563D+05 0.15575563D+05 0.15575563D+05 0.12459626D+01  1  2  3  2  5  2        4 -.356647729326D-02 0.100000000000D+01
0.516461035957D-04 0.000000000000D+00 0.000000000000D+00 0.176898720876D-02 0.000000000000D+00  5 -3 4 25 24 21 2 0.41392758D-01 0.12694908D-01 0.15575563D+05 0.15575563D+05 0.15575563D+05 0.12459626D+01  1  2 15  2  5  2        4 0.454273872439D-02 0.100000000000D+01
0.791727916014D-03 0.000000000000D+00 0.000000000000D+00 0.176898720876D-02 0.000000000000D+00  5 -3 4 25 24 21 2 0.41392758D-01 0.14929850D-01 0.20280094D+05 0.20280094D+05 0.20280094D+05 0.12331617D+01  1  2 12  2  5  2        4 0.526772022381D-01 0.100000000000D+01
-.707557931681D-03 0.000000000000D+00 0.000000000000D+00 0.176898720876D-02 0.000000000000D+00  5 -3 4 25 24 21 2 0.41392758D-01 0.12694908D-01 0.15575563D+05 0.15575563D+05 0.15575563D+05 0.12459626D+01  1  2  4  2  5  2        4 -.622360757583D-01 0.100000000000D+01
-.191450865448D-02 0.000000000000D+00 -.621459018382D-03 0.176898720876D-02 0.000000000000D+00  5 -3 4 25 24 21 2 0.41392758D-01 0.15796588D-01 0.15575563D+05 0.15575563D+05 0.15575563D+05 0.12459626D+01  1  2  5  2  5  2        4 -.115281903436D+00 0.100000000000D+01
0.201654256390D-02 0.000000000000D+00 0.606901431720D-03 0.176898720876D-02 0.000000000000D+00  5 -3 4 25 24 21 2 0.41392758D-01 0.12694908D-01 0.15575563D+05 0.15575563D+05 0.15575563D+05 0.12459626D+01  1  2  6  2  5  2        4 0.177373032168D+00 0.100000000000D+01
0.192279465490D-04 0.000000000000D+00 0.000000000000D+00 0.176898720876D-02 0.000000000000D+00  5 -3 21 25 24 -4 2 0.41392758D-01 0.14929850D-01 0.20280094D+05 0.20280094D+05 0.20280094D+05 0.12331617D+01  1  2 12  4  5  2        4 0.326736080242D-01 0.100000000000D+01
-.502912338920D-04 0.000000000000D+00 -.190283068024D-04 0.176898720876D-02 0.000000000000D+00  5 -3 21 25 24 -4 2 0.41392758D-01 0.15796588D-01 0.15575563D+05 0.15575563D+05 0.15575563D+05 0.12459626D+01  1  2  5  4  5  2        4 -.781641961987D-01 0.100000000000D+01
  </mgrwgt>
  </event>
  <event>
  4     66 0.45252658E-03 0.85612124E+02 0.75467711E-02 0.12254747E+00
       -1 -1    0    0    0  501 0.00000000E+00 0.00000000E+00 0.80913574E+02 0.80914207E+02 0.32000000E+00 0.0000E+00 0.9000E+01
        2 -1    0    0  501    0 0.00000000E+00 0.00000000E+00 -.26659401E+03 0.26659420E+03 0.32000000E+00 0.0000E+00 0.9000E+01
       25  1    1    2    0    0 0.20291887E+01 -.33492942E+02 -.21886165E+03 0.25426623E+03 0.12500000E+03 0.0000E+00 0.9000E+01
       24  1    1    2    0    0 -.20291887E+01 0.33492942E+02 0.33181214E+02 0.93242177E+02 0.80419002E+02 0.0000E+00 0.9000E+01
#aMCatNLO 1  0  0  1  2 0.42873796D+02 0.00000000D+00  -5  5  0 0.00000000D+00 0.00000000D+00 0.00000000D+00 0.00000000D+00 0.00000000D+00
  <mgrwgt>
 0.3239231017D+00    9    2    0
 0.146871430879034D+03 0.000000000000000D+00 0.000000000000000D+00 0.146871430879034D+03
 0.146871430879034D+03 0.000000000000000D+00 0.000000000000000D+00 -.146871430879034D+03
 0.162459527200456D+03 0.202918866579813D+01 -.334929417539560D+02 -.981947209590223D+02
 0.131283334557613D+03 -.202918866579813D+01 0.334929417539560D+02 0.981947209590223D+02
 0.000000000000000D+00 0.000000000000000D+00 0.000000000000000D+00 0.000000000000000D+00
 0.173519254871356D+03 0.000000000000000D+00 0.000000000000000D+00 0.173519254871356D+03
 0.166742111090167D+03 0.000000000000000D+00 0.000000000000000D+00 -.166742111090167D+03
 0.167793308326164D+03 -.130599264098298D+02 -.521232138014228D+02 -.981947209590223D+02
 0.129061927870170D+03 -.139242557222344D+02 0.188063061114051D+02 0.981947209590223D+02
 0.434061297651896D+02 0.269841821320643D+02 0.333169076900177D+02 0.677714378118867D+01
0.422287911633D-03 0.000000000000D+00 0.000000000000D+00 0.144474545966D-02 0.000000000000D+00  5 -1 2 25 24 21 0 0.12448306D-01 0.41014526D-01 0.11724960D+05 0.11724960D+05 0.11724960D+05 0.12602060D+01  1  2  2  1  5  1       -1 0.243778392105D+00 0.100000000000D+01
-.208100811959D-04 0.000000000000D+00 -.162169677163D-05 0.144474545966D-02 0.000000000000D+00  5 -1 2 25 24 21 2 0.12448306D-01 0.41014526D-01 0.11724960D+05 0.11724960D+05 0.11724960D+05 0.12602060D+01  1  2  3  1  5  1       -1 -.190784645815D-01 0.100000000000D+01
0.287449770028D-04 0.000000000000D+00 0.000000000000D+00 0.144474545966D-02 0.000000000000D+00  5 -1 2 25 24 21 2 0.12448306D-01 0.41014526D-01 0.11724960D+05 0.11724960D+05 0.11724960D+05 0.12602060D+01  1  2 15  1  5  1       -1 0.263530939875D-01 0.100000000000D+01
0.219519061580D-03 0.000000000000D+00 0.000000000000D+00 0.144474545966D-02 0.000000000000D+00  5 -1 2 25 24 21 2 0.15418170D-01 0.41014526D-01 0.17251288D+05 0.17251288D+05 0.17251288D+05 0.12409581D+01  1  2 12  1  5  1       -1 0.141568355076D+00 0.100000000000D+01
-.238639601848D-03 0.000000000000D+00 0.000000000000D+00 0.144474545966D-02 0.000000000000D+00  5 -1 2 25 24 21 2 0.12448306D-01 0.41014526D-01 0.11724960D+05 0.11724960D+05 0.11724960D+05 0.12602060D+01  1  2  4  1  5  1       -1 -.218782288677D+00 0.100000000000D+01
-.463470792125D-03 0.000000000000D+00 -.202835886529D-03 0.144474545966D-02 0.000000000000D+00  5 -1 2 25 24 21 2 0.16633134D-01 0.41014526D-01 0.11724960D+05 0.11724960D+05 0.11724960D+05 0.12602060D+01  1  2  5  1  5  1       -1 -.270888456215D+00 0.100000000000D+01
0.508960936447D-03 0.000000000000D+00 0.194605938291D-03 0.144474545966D-02 0.000000000000D+00  5 -1 2 25 24 21 2 0.12448306D-01 0.41014526D-01 0.11724960D+05 0.11724960D+05 0.11724960D+05 0.12602060D+01  1  2  6  1  5  1       -1 0.466610058267D+00 0.100000000000D+01
0.661348203124D-05 0.000000000000D+00 0.000000000000D+00 0.144474545966D-02 0.000000000000D+00  5 21 2 25 24 1 2 0.15418170D-01 0.41014526D-01 0.17251288D+05 0.17251288D+05 0.17251288D+05 0.12409581D+01  1  2 12  3  5  1       -1 0.582476760176D-01 0.100000000000D+01
-.131641075554D-04 0.000000000000D+00 -.764712139966D-05 0.144474545966D-02 0.000000000000D+00  5 21 2 25 24 1 2 0.16633134D-01 0.41014526D-01 0.11724960D+05 0.11724960D+05 0.11724960D+05 0.12602060D+01  1  2  5  3  5  1       -1 -.103885264287D+00 0.100000000000D+01
  </mgrwgt>
  </event>
  <event>
  4     66 0.45252658E-03 0.13828188E+03 0.75467711E-02 0.10756812E+00
       -3 -1    0    0    0  501 0.00000000E+00 0.00000000E+00 0.83954803E+02 0.83956292E+02 0.50000000E+00 0.0000E+00 0.9000E+01
        4 -1    0    0  501    0 0.00000000E+00 0.00000000E+00 -.22899967E+03 0.22900492E+03 0.15500000E+01 0.0000E+00 0.9000E+01
       25  1    1    2    0    0 0.48858530E+02 -.77218697E+02 -.92628273E+02 0.18042971E+03 0.12500000E+03 0.0000E+00 0.9000E+01
       24  1    1    2    0    0 -.48858530E+02 0.77218697E+02 -.52416596E+02 0.13253150E+03 0.80419002E+02 0.0000E+00 0.9000E+01
#aMCatNLO 1  0  0  1  1 0.26019154D+03 0.00000000D+00  -5  5  0 0.00000000D+00 0.00000000D+00 0.00000000D+00 0.00000000D+00 0.00000000D+00
  <mgrwgt>
 0.4807751393D-01    3    2    0
 0.138660290753915D+03 0.000000000000000D+00 0.000000000000000D+00 0.138660290753915D+03
 0.138660290753915D+03 0.000000000000000D+00 0.000000000000000D+00 -.138660290753915D+03
 0.155171477907492D+03 0.488585300384406D+02 -.772186969691674D+02 -.101638790263424D+02
 0.122149103600337D+03 -.488585300384406D+02 0.772186969691674D+02 0.101638790263424D+02
 0.000000000000000D+00 0.000000000000000D+00 -.000000000000000D+00 -.000000000000000D+00
 0.292310213956157D+03 0.000000000000000D+00 0.000000000000000D+00 0.292310213956157D+03
 0.355782774042830D+03 0.000000000000000D+00 0.000000000000000D+00 -.355782774042830D+03
 0.131343802828385D+03 0.212462218888487D+02 0.327335937533516D+02 -.101638790263424D+02
 0.248927600554018D+03 -.846202676879255D+02 0.219622039474120D+03 0.101638790263424D+02
 0.267821584616584D+03 0.633740457990767D+02 -.252355633227472D+03 -.634725600866734D+02
0.642427651897D-03 0.000000000000D+00 0.000000000000D+00 0.250293836026D-02 0.000000000000D+00  5 -3 4 25 24 21 0 0.12916642D-01 0.35231237D-01 0.19121878D+05 0.19121878D+05 0.19121878D+05 0.12359786D+01  1  2  2  1  5  1       -3 0.471132645071D-01 0.100000000000D+01
-.356901010286D-04 0.000000000000D+00 -.246709133837D-05 0.250293836026D-02 0.000000000000D+00  5 -3 4 25 24 21 2 0.12916642D-01 0.35231237D-01 0.19121878D+05 0.19121878D+05 0.19121878D+05 0.12359786D+01  1  2  3  1  5  1       -3 -.399842194497D-02 0.100000000000D+01
0.442970364157D-04 0.000000000000D+00 0.000000000000D+00 0.250293836026D-02 0.000000000000D+00  5 -3 4 25 24 21 2 0.12916642D-01 0.35231237D-01 0.19121878D+05 0.19121878D+05 0.19121878D+05 0.12359786D+01  1  2 15  1  5  1       -3 0.496267136816D-02 0.100000000000D+01
  </mgrwgt>
  </event>
  <event>
  4     66 0.45252658E-03 0.41360062E+02 0.75467711E-02 0.12285176E+00
       -1 -1    0    0    0  501 0.00000000E+00 0.00000000E+00 0.23763718E+02 0.23765873E+02 0.32000000E+00 0.0000E+00 0.9000E+01
        2 -1    0    0  501    0 0.00000000E+00 0.00000000E+00 -.52374773E+03 0.52374783E+03 0.32000000E+00 0.0000E+00 0.9000E+01
       25  1    1    2    0    0 -.13428084E+01 -.36250756E+02 -.24078419E+03 0.27371143E+03 0.12500000E+03 0.0000E+00 0.9000E+01
       24  1    1    2    0    0 0.13428084E+01 0.36250756E+02 -.25919982E+03 0.27380227E+03 0.80419002E+02 0.0000E+00 0.9000E+01
#aMCatNLO 1  0  0  2  1 0.37035461D+02 0.00000000D+00  -5  5  0 0.00000000D+00 0.00000000D+00 0.00000000D+00 0.00000000D+00 0.00000000D+00
  <mgrwgt>
 0.2974772582D+00    9    2    0
 0.111565273094841D+03 0.000000000000000D+00 0.000000000000000D+00 0.111565273094841D+03
 0.111565273094841D+03 0.000000000000000D+00 0.000000000000000D+00 -.111565273094841D+03
 0.132086407923787D+03 -.134280835744709D+01 -.362507557635792D+02 0.224921926564187D+02
 0.910441382658954D+02 0.134280835744709D+01 0.362507557635792D+02 -.224921926564187D+02
 0.000000000000000D+00 -.000000000000000D+00 -.000000000000000D+00 -.000000000000000D+00
 0.117603476368993D+03 0.000000000000000D+00 0.000000000000000D+00 0.117603476368993D+03
 0.189092945117155D+03 0.000000000000000D+00 0.000000000000000D+00 -.189092945117155D+03
 0.131269179971403D+03 0.185311374629936D+02 -.275190084159776D+02 0.224921926564187D+02
 0.949140776961255D+02 0.153760154689128D+02 0.424163365738004D+02 -.224921926564187D+02
 0.805131638186198D+02 -.339071529319064D+02 -.148973281578228D+02 -.714894687481615D+02
0.158406438597D-03 0.000000000000D+00 0.000000000000D+00 0.286827661202D-02 0.000000000000D+00  5 -1 2 25 24 21 0 0.36561299D-02 0.80576748D-01 0.11922388D+05 0.11922388D+05 0.11922388D+05 0.12593545D+01  1  2  2  2  5  2        2 0.277379619500D+00 0.100000000000D+01
-.879540096760D-05 0.000000000000D+00 -.608322433587D-06 0.286827661202D-02 0.000000000000D+00  5 -1 2 25 24 21 2 0.36561299D-02 0.80576748D-01 0.11922388D+05 0.11922388D+05 0.11922388D+05 0.12593545D+01  1  2  3  2  5  2        2 -.244260567584D-01 0.100000000000D+01
0.109379115203D-04 0.000000000000D+00 0.000000000000D+00 0.286827661202D-02 0.000000000000D+00  5 -1 2 25 24 21 2 0.36561299D-02 0.80576748D-01 0.11922388D+05 0.11922388D+05 0.11922388D+05 0.12593545D+01  1  2 15  2  5  2        2 0.303761077635D-01 0.100000000000D+01
0.324728084321D-03 0.000000000000D+00 0.000000000000D+00 0.286827661202D-02 0.000000000000D+00  5 -1 2 25 24 21 2 0.36561299D-02 0.13743413D+00 0.16715112D+05 0.16715112D+05 0.16715112D+05 0.12424978D+01  1  2 12  2  5  2        2 0.473072754549D+00 0.100000000000D+01
-.333312744753D-03 0.000000000000D+00 0.000000000000D+00 0.286827661202D-02 0.000000000000D+00  5 -1 2 25 24 21 2 0.36561299D-02 0.80576748D-01 0.11922388D+05 0.11922388D+05 0.11922388D+05 0.12593545D+01  1  2  4  2  5  2        2 -.925656039065D+00 0.100000000000D+01
-.380584638872D-03 0.000000000000D+00 -.631281418444D-04 0.286827661202D-02 0.000000000000D+00  5 -1 2 25 24 21 2 0.36561299D-02 0.13997932D+00 0.11922388D+05 0.11922388D+05 0.11922388D+05 0.12593545D+01  1  2  5  2  5  2        2 -.550758828789D+00 0.100000000000D+01
0.366637134459D-03 0.000000000000D+00 0.545890377666D-04 0.286827661202D-02 0.000000000000D+00  5 -1 2 25 24 21 2 0.36561299D-02 0.80576748D-01 0.11922388D+05 0.11922388D+05 0.11922388D+05 0.12593545D+01  1  2  6  2  5  2        2 0.101820252300D+01 0.100000000000D+01
0.193039072319D-04 0.000000000000D+00 0.000000000000D+00 0.286827661202D-02 0.000000000000D+00  5 -1 21 25 24 -2 2 0.36561299D-02 0.13743413D+00 0.16715112D+05 0.16715112D+05 0.16715112D+05 0.12424978D+01  1  2 12  4  5  2        2 0.280308149457D-01 0.100000000000D+01
-.201016944279D-04 0.000000000000D+00 -.385920243222D-05 0.286827661202D-02 0.000000000000D+00  5 -1 21 25 24 -2 2 0.36561299D-02 0.13997932D+00 0.11922388D+05 0.11922388D+05 0.11922388D+05 0.12593545D+01  1  2  5  4  5  2        2 -.287436369834D-01 0.100000000000D+01
  </mgrwgt>
  </event>
  <event>
  4     66 0.45252658E-03 0.69443182E+02 0.75467711E-02 0.12062971E+00
       -3 -1    0    0    0  501 0.00000000E+00 0.00000000E+00 0.58035150E+02 0.58037304E+02 0.50000000E+00 0.0000E+00 0.9000E+01
        4 -1    0    0  501    0 0.00000000E+00 0.00000000E+00 -.21505573E+03 0.21506132E+03 0.15500000E+01 0.0000E+00 0.9000E+01
       25  1    1    2    0    0 -.34705889E+02 -.25513923E+02 -.93479296E+02 0.16192232E+03 0.12500000E+03 0.0000E+00 0.9000E+01
       24  1    1    2    0    0 0.34705889E+02 0.25513923E+02 -.63541288E+02 0.11117630E+03 0.80419002E+02 0.0000E+00 0.9000E+01
#aMCatNLO 1  0  0  2  1 0.59488282D+02 0.00000000D+00  -5  5  0 0.00000000D+00 0.00000000D+00 0.00000000D+00 0.00000000D+00 0.00000000D+00
  <mgrwgt>
 0.2112077166D-01    7    2    0
 0.111722193422713D+03 0.000000000000000D+00 0.000000000000000D+00 0.111722193422713D+03
 0.111722193422713D+03 0.000000000000000D+00 0.000000000000000D+00 -.111722193422713D+03
 0.132214505122547D+03 -.347058894228008D+02 -.255139229097392D+02 -.465125712140980D+00
 0.912298817228786D+02 0.347058894228008D+02 0.255139229097392D+02 0.465125712140980D+00
 0.000000000000000D+00 0.000000000000000D+00 -.000000000000000D+00 -.000000000000000D+00
 0.124961668916049D+03 0.000000000000000D+00 0.000000000000000D+00 0.124961668916049D+03
 0.210257741328265D+03 0.000000000000000D+00 0.000000000000000D+00 -.210257741328265D+03
 0.131123663133476D+03 -.386292700273222D+02 0.871654683744442D+01 -.465125712140980D+00
 0.100104037755532D+03 0.318552742095180D+02 0.503847951638072D+02 0.465125712140980D+00
 0.103991709355306D+03 0.677399581780420D+01 -.591013420012516D+02 -.852960724122155D+02
0.198742695805D-03 0.000000000000D+00 0.000000000000D+00 0.296603089702D-02 0.000000000000D+00  5 -3 4 25 24 21 0 0.89290799D-02 0.33086093D-01 0.12481625D+05 0.12481625D+05 0.12481625D+05 0.12570261D+01  1  2  2  2  5  2        4 0.291182167732D-01 0.100000000000D+01
-.110412608770D-04 0.000000000000D+00 -.763224282045D-06 0.296603089702D-02 0.000000000000D+00  5 -3 4 25 24 21 2 0.89290799D-02 0.33086093D-01 0.12481625D+05 0.12481625D+05 0.12481625D+05 0.12570261D+01  1  2  3  2  5  2        4 -.255611782901D-02 0.100000000000D+01
0.137335068575D-04 0.000000000000D+00 0.000000000000D+00 0.296603089702D-02 0.000000000000D+00  5 -3 4 25 24 21 2 0.89290799D-02 0.33086093D-01 0.12481625D+05 0.12481625D+05 0.12481625D+05 0.12570261D+01  1  2 15  2  5  2        4 0.317938885099D-02 0.100000000000D+01
0.140671919072D-03 0.000000000000D+00 0.000000000000D+00 0.296603089702D-02 0.000000000000D+00  5 -3 4 25 24 21 2 0.89290799D-02 0.62672047D-01 0.21128669D+05 0.21128669D+05 0.21128669D+05 0.12312098D+01  1  2 12  2  5  2        4 0.910006801166D-02 0.100000000000D+01
-.245084328225D-03 0.000000000000D+00 -.757963013747D-04 0.296603089702D-02 0.000000000000D+00  5 -3 4 25 24 21 2 0.89290799D-02 0.67635055D-01 0.12481625D+05 0.12481625D+05 0.12481625D+05 0.12570261D+01  1  2  5  2  5  2        4 -.134416717050D-01 0.100000000000D+01
0.976793671044D-05 0.000000000000D+00 0.000000000000D+00 0.296603089702D-02 0.000000000000D+00  5 -3 21 25 24 -4 2 0.89290799D-02 0.62672047D-01 0.21128669D+05 0.21128669D+05 0.21128669D+05 0.12312098D+01  1  2 12  4  5  2        4 0.151602872180D-01 0.100000000000D+01
-.143287024654D-04 0.000000000000D+00 -.586054806521D-05 0.296603089702D-02 0.000000000000D+00  5 -3 21 25 24 -4 2 0.89290799D-02 0.67635055D-01 0.12481625D+05 0.12481625D+05 0.12481625D+05 0.12570261D+01  1  2  5  4  5  2        4 -.194393996551D-01 0.100000000000D+01
  </mgrwgt>
  </event>
  <event>
  4     66 0.45252658E-03 0.11120313E+03 0.75467711E-02 0.10841791E+00
       -1 -1    0    0    0  501 0.00000000E+00 0.00000000E+00 0.18703017E+03 0.18703045E+03 0.32000000E+00 0.0000E+00 0.9000E+01
        2 -1    0    0  501    0 0.00000000E+00 0.00000000E+00 -.12240886E+03 0.12240928E+03 0.32000000E+00 0.0000E+00 0.9000E+01
       25  1    1    2    0    0 -.41000692E+02 0.79268328E+01 -.68402455E+02 0.14848497E+03 0.12500000E+03 0.0000E+00 0.9000E+01
       24  1    1    2    0    0 0.41000692E+02 -.79268328E+01 0.13302377E+03 0.16095475E+03 0.80419002E+02 0.0000E+00 0.9000E+01
#aMCatNLO 1  0  0  1  1 0.26085200D+03 0.00000000D+00  -5  5  0 0.00000000D+00 0.00000000D+00 0.00000000D+00 0.00000000D+00 0.00000000D+00
  <mgrwgt>
 0.3347551841D+00    3    2    0
 0.151308482785855D+03 0.000000000000000D+00 0.000000000000000D+00 0.151308482785855D+03
 0.151308482785855D+03 0.000000000000000D+00 0.000000000000000D+00 -.151308482785855D+03
 0.166439465327314D+03 -.410006916494378D+02 0.792683279215733D+01 -.101652369498182D+03
 0.136177500244397D+03 0.410006916494378D+02 -.792683279215733D+01 0.101652369498182D+03
 0.000000000000000D+00 -.000000000000000D+00 0.000000000000000D+00 -.000000000000000D+00
 0.303969911165030D+03 0.000000000000000D+00 0.000000000000000D+00 0.303969911165030D+03
 0.363004591465139D+03 0.000000000000000D+00 0.000000000000000D+00 -.363004591465139D+03
 0.183923531468654D+03 0.886268305914385D+02 -.386601896301423D+01 -.101652369498182D+03
 0.215602177108522D+03 0.171152358255112D+03 -.197673685320685D+02 0.101652369498182D+03
 0.267448794052994D+03 -.259779188846550D+03 0.236333874950828D+02 -.590346803001092D+02
0.915666683450D-03 0.000000000000D+00 0.000000000000D+00 0.140787191248D-02 0.000000000000D+00  5 -1 2 25 24 21 0 0.28773926D-01 0.18832185D-01 0.12366135D+05 0.12366135D+05 0.12366135D+05 0.12574972D+01  1  2  2  1  5  1       -1 0.324999436324D+00 0.100000000000D+01
-.450043824904D-04 0.000000000000D+00 -.351640116502D-05 0.140787191248D-02 0.000000000000D+00  5 -1 2 25 24 21 2 0.28773926D-01 0.18832185D-01 0.12366135D+05 0.12366135D+05 0.12366135D+05 0.12574972D+01  1  2  3  1  5  1       -1 -.252588785335D-01 0.100000000000D+01
0.623864450365D-04 0.000000000000D+00 0.000000000000D+00 0.140787191248D-02 0.000000000000D+00  5 -1 2 25 24 21 2 0.28773926D-01 0.18832185D-01 0.12366135D+05 0.12366135D+05 0.12366135D+05 0.12574972D+01  1  2 15  1  5  1       -1 0.350146263566D-01 0.100000000000D+01
  </mgrwgt>
  </event>
  <event>
  5     66 0.45252658E-03 0.14420982E+03 0.75467711E-02 0.11484434E+00
       21 -1    0    0  502  501 0.00000000E+00 0.00000000E+00 0.26070333E+03 0.26070441E+03 0.75000000E+00 0.0000E+00 0.9000E+01
        2 -1    0    0  501    0 0.00000000E+00 0.00000000E+00 -.66704046E+03 0.66704054E+03 0.32000000E+00 0.0000E+00 0.9000E+01
       25  1    1    2    0    0 0.64379500E+02 -.30925404E+02 -.33105249E+03 0.36100118E+03 0.12500000E+03 0.0000E+00 0.9000E+01
       24  1    1    2    0    0 -.13368994E+03 -.38843780E+02 -.28943473E+03 0.33109140E+03 0.80419002E+02 0.0000E+00 0.9000E+01
        1  1    1    2  502    0 0.69310441E+02 0.69769183E+02 0.21415009E+03 0.23565237E+03 0.32000000E+00 0.0000E+00 0.9000E+01
#aMCatNLO 2  0  0  1  2 0.98344680D+02 0.00000000D+00  -5  5  0 0.00000000D+00 0.00000000D+00 0.00000000D+00 0.00000000D+00 0.00000000D+00
  <mgrwgt>
 0.5729759166D+00    2    2    0
 0.145186155795915D+03 0.000000000000000D+00 0.000000000000000D+00 0.145186155795915D+03
 0.145186155795915D+03 0.000000000000000D+00 0.000000000000000D+00 -.145186155795915D+03
 0.160955193820626D+03 0.998955326762689D+02 0.482569765912788D+01 -.167083694974205D+02
 0.129417117771204D+03 -.998955326762689D+02 -.482569765912788D+01 0.167083694974205D+02
 0.000000000000000D+00 0.000000000000000D+00 0.000000000000000D+00 0.000000000000000D+00
 0.111618852604443D+04 0.000000000000000D+00 0.000000000000000D+00 0.111618852604443D+04
 0.155798188970358D+03 0.000000000000000D+00 0.000000000000000D+00 -.155798188970358D+03
 0.144931950320448D+03 0.643794998796469D+02 -.309254039209369D+02 -.167083694974205D+02
 0.161642274772374D+03 -.133689940611815D+03 -.388437795169857D+02 0.167083694974205D+02
 0.965412489921968D+03 0.693104407321680D+02 0.697691834379226D+02 0.960390337074073D+03
-.300045757561D-03 0.000000000000D+00 0.000000000000D+00 0.242102051556D-02 0.000000000000D+00  5 21 2 25 24 1 2 0.38332372D-01 0.95631711D-01 0.40619725D+05 0.40619725D+05 0.40619725D+05 0.12013228D+01  1  2 13  3  5  1       -1 -.172426779609D+00 0.100000000000D+01
0.154417016696D-02 0.000000000000D+00 0.000000000000D+00 0.242102051556D-02 0.203607616527D-05  5 21 2 25 24 1 2 0.40108287D-01 0.10262168D+00 0.40619725D+05 0.40619725D+05 0.40619725D+05 0.12013228D+01  1  2  1  3  5  1       -1 0.745402696217D+00 0.100000000000D+01
  </mgrwgt>
  </event>
  <event>
  4     66 0.45252658E-03 0.72006005E+02 0.75467711E-02 0.12237209E+00
       -3 -1    0    0    0  501 0.00000000E+00 0.00000000E+00 0.28512019E+02 0.28516403E+02 0.50000000E+00 0.0000E+00 0.9000E+01
        4 -1    0    0  501    0 0.00000000E+00 0.00000000E+00 -.48082195E+03 0.48082445E+03 0.15500000E+01 0.0000E+00 0.9000E+01
       25  1    1    2    0    0 0.19419168E+02 0.40340403E+02 -.33414799E+03 0.35956130E+03 0.12500000E+03 0.0000E+00 0.9000E+01
       24  1    1    2    0    0 -.19419168E+02 -.40340403E+02 -.11816194E+03 0.14977954E+03 0.80419002E+02 0.0000E+00 0.9000E+01
#aMCatNLO 1  0  0  2  1 0.37158868D+02 0.00000000D+00  -5  5  0 0.00000000D+00 0.00000000D+00 0.00000000D+00 0.00000000D+00 0.00000000D+00
  <mgrwgt>
 0.2765841654D-01    9    2    0
 0.117093796135650D+03 0.000000000000000D+00 0.000000000000000D+00 0.117093796135650D+03
 0.117093796135650D+03 0.000000000000000D+00 0.000000000000000D+00 -.117093796135650D+03
 0.136646036194168D+03 0.194191680962119D+02 0.403404032240240D+02 -.322906640648984D+02
 0.975415560771328D+02 -.194191680962119D+02 -.403404032240240D+02 0.322906640648984D+02
 0.000000000000000D+00 -.000000000000000D+00 0.000000000000000D+00 -.000000000000000D+00
 0.135905758337507D+03 0.000000000000000D+00 0.000000000000000D+00 0.135905758337507D+03
 0.138457943869984D+03 0.000000000000000D+00 0.000000000000000D+00 -.138457943869984D+03
 0.135746267531363D+03 0.339960074529198D+02 0.245689568399873D+02 -.322906640648984D+02
 0.101371023795750D+03 -.877453282870097D+01 -.518573919409177D+02 0.322906640648984D+02
 0.372464108803787D+02 -.252214746242188D+02 0.272884351009304D+02 -.255218553247681D+01
0.193548951133D-03 0.000000000000D+00 0.000000000000D+00 0.265601804486D-02 0.000000000000D+00  5 -3 4 25 24 21 0 0.43869938D-02 0.73973137D-01 0.12635740D+05 0.12635740D+05 0.12635740D+05 0.12564050D+01  1  2  2  2  5  2        4 0.172394434648D-01 0.100000000000D+01
-.107309212120D-04 0.000000000000D+00 -.743278934960D-06 0.265601804486D-02 0.000000000000D+00  5 -3 4 25 24 21 2 0.43869938D-02 0.73973137D-01 0.12635740D+05 0.12635740D+05 0.12635740D+05 0.12564050D+01  1  2  3  2  5  2        4 -.150878987994D-02 0.100000000000D+01
0.133837423315D-04 0.000000000000D+00 0.000000000000D+00 0.265601804486D-02 0.000000000000D+00  5 -3 4 25 24 21 2 0.43869938D-02 0.73973137D-01 0.12635740D+05 0.12635740D+05 0.12635740D+05 0.12564050D+01  1  2 15  2  5  2        4 0.188178205640D-02 0.100000000000D+01
0.130808164114D-03 0.000000000000D+00 0.000000000000D+00 0.265601804486D-02 0.000000000000D+00  5 -3 4 25 24 21 2 0.43869938D-02 0.92443876D-01 0.17569398D+05 0.17569398D+05 0.17569398D+05 0.12400698D+01  1  2 12  2  5  2        4 0.112676870112D-01 0.100000000000D+01
-.123190962710D-03 0.000000000000D+00 0.000000000000D+00 0.265601804486D-02 0.000000000000D+00  5 -3 4 25 24 21 2 0.43869938D-02 0.73973137D-01 0.12635740D+05 0.12635740D+05 0.12635740D+05 0.12564050D+01  1  2  4  2  5  2        4 -.173209060214D-01 0.100000000000D+01
-.318114579769D-03 0.000000000000D+00 -.117574801251D-03 0.265601804486D-02 0.000000000000D+00  5 -3 4 25 24 21 2 0.43869938D-02 0.99006250D-01 0.12635740D+05 0.12635740D+05 0.12635740D+05 0.12564050D+01  1  2  5  2  5  2        4 -.233532408961D-01 0.100000000000D+01
0.342553925309D-03 0.000000000000D+00 0.112751063070D-03 0.265601804486D-02 0.000000000000D+00  5 -3 4 25 24 21 2 0.43869938D-02 0.73973137D-01 0.12635740D+05 0.12635740D+05 0.12635740D+05 0.12564050D+01  1  2  6  2  5  2        4 0.481637955984D-01 0.100000000000D+01
0.406447256279D-05 0.000000000000D+00 0.000000000000D+00 0.265601804486D-02 0.000000000000D+00  5 -3 21 25 24 -4 2 0.43869938D-02 0.92443876D-01 0.17569398D+05 0.17569398D+05 0.17569398D+05 0.12400698D+01  1  2 12  4  5  2        4 0.840430943851D-02 0.100000000000D+01
-.952277852645D-05 0.000000000000D+00 -.445116292688D-05 0.265601804486D-02 0.000000000000D+00  5 -3 21 25 24 -4 2 0.43869938D-02 0.99006250D-01 0.12635740D+05 0.12635740D+05 0.12635740D+05 0.12564050D+01  1  2  5  4  5  2        4 -.171156642347D-01 0.100000000000D+01
  </mgrwgt>
  </event>
  <event>
  5     66 0.45252658E-03 0.11684518E+03 0.75467711E-02 0.12388775E+00
       -1 -1    0    0    0  502 0.00000000E+00 0.00000000E+00 0.47314745E+02 0.47315827E+02 0.32000000E+00 0.0000E+00 0.9000E+01
        2 -1    0    0  501    0 0.00000000E+00 0.00000000E+00 -.54132129E+03 0.54132138E+03 0.32000000E+00 0.0000E+00 0.9000E+01
       25  1    1    2    0    0 0.39009841E+02 0.34265502E+02 -.73884186E+02 0.15420689E+03 0.12500000E+03 0.0000E+00 0.9000E+01
       24  1    1    2    0    0 -.49075266E+02 -.29695357E+02 -.39061731E+03 0.40291351E+03 0.80419002E+02 0.0000E+00 0.9000E+01
       21  1    1    2  501  502 0.10065425E+02 -.45701459E+01 -.29505044E+02 0.31516807E+02 0.75000000E+00 0.0000E+00 0.9000E+01
#aMCatNLO 2  0  0  1  2 0.11054366D+02 0.00000000D+00  -5  5  0 0.00000000D+00 0.00000000D+00 0.00000000D+00 0.00000000D+00 0.00000000D+00
  <mgrwgt>
 0.2315582465D+00    2    2    0
 0.153703692961784D+03 0.000000000000000D+00 0.000000000000000D+00 0.153703692961784D+03
 0.153703692961784D+03 0.000000000000000D+00 0.000000000000000D+00 -.153703692961784D+03
 0.168598884920357D+03 0.445141414534942D+02 0.317663079895914D+02 0.990453274201087D+02
 0.138808501003211D+03 -.445141414534942D+02 -.317663079895914D+02 -.990453274201087D+02
 0.000000000000000D+00 0.000000000000000D+00 -.000000000000000D+00 -.000000000000000D+00
 0.157132650108786D+03 0.000000000000000D+00 0.000000000000000D+00 0.157132650108786D+03
 0.162978212581607D+03 0.000000000000000D+00 0.000000000000000D+00 -.162978212581607D+03
 0.167722596191556D+03 0.390098414897205D+02 0.342655024248292D+02 0.990453274201087D+02
 0.139883482960153D+03 -.490752663396062D+02 -.296953565500227D+02 -.990453274201087D+02
 0.125047835386845D+02 0.100654248498857D+02 -.457014587480651D+01 -.584556247282067D+01
-.204844156197D-04 0.000000000000D+00 0.000000000000D+00 0.147328458157D-02 0.000000000000D+00  5 -1 2 25 24 21 2 0.71199290D-02 0.78535538D-01 0.13652796D+05 0.13652796D+05 0.13652796D+05 0.12525088D+01  1  2  8  1  5  1       -1 -.217797496788D-01 0.100000000000D+01
0.263973818625D-03 0.000000000000D+00 0.000000000000D+00 0.147328458157D-02 0.100419864696D-03  5 -1 2 25 24 21 2 0.72787667D-02 0.83274393D-01 0.15029371D+05 0.15029371D+05 0.15029371D+05 0.12477257D+01  1  2  1  1  5  1       -1 0.253337996143D+00 0.100000000000D+01
  </mgrwgt>
  </event>
  <event>
  4     66 0.45252658E-03 0.80042071E+02 0.75467711E-02 0.12308842E+00
       -1 -1    0    0    0  501 0.00000000E+00 0.00000000E+00 0.57742164E+02 0.57743051E+02 0.32000000E+00 0.0000E+00 0.9000E+01
        2 -1    0    0  501    0 0.00000000E+00 0.00000000E+00 -.26458763E+03 0.26458783E+03 0.32000000E+00 0.0000E+00 0.9000E+01
       25  1    1    2    0    0 -.36956016E+02 -.55692215E+02 -.13244840E+03 0.19399729E+03 0.12500000E+03 0.0000E+00 0.9000E+01
       24  1    1    2    0    0 0.36956016E+02 0.55692215E+02 -.74397071E+02 0.12833359E+03 0.80419002E+02 0.0000E+00 0.9000E+01
#aMCatNLO 1  0  0  2  1 0.89490992D+01 0.00000000D+00  -5  5  0 0.00000000D+00 0.00000000D+00 0.00000000D+00 0.00000000D+00 0.00000000D+00
  <mgrwgt>
 0.3132984556D+00   11    2    0
 0.123604355710455D+03 0.000000000000000D+00 0.000000000000000D+00 0.123604355710455D+03
 0.123604355710455D+03 0.000000000000000D+00 0.000000000000000D+00 -.123604355710455D+03
 0.142126728957320D+03 -.369560164329404D+02 -.556922152860294D+02 -.103748296395798D+02
 0.105081982463589D+03 0.369560164329404D+02 0.556922152860294D+02 0.103748296395798D+02
 0.000000000000000D+00 -.000000000000000D+00 -.000000000000000D+00 -.000000000000000D+00
 0.124973232160930D+03 0.000000000000000D+00 0.000000000000000D+00 0.124973232160930D+03
 0.139231094170561D+03 0.000000000000000D+00 0.000000000000000D+00 -.139231094170561D+03
 0.139890093513219D+03 -.330913314314566D+02 -.523599556644219D+02 -.103748296395798D+02
 0.107480546174141D+03 0.398689179013963D+02 0.582038155694498D+02 0.103748296395798D+02
 0.168336866441311D+02 -.677758646993969D+01 -.584385990502786D+01 -.142578620096316D+02
0.229077365044D-03 0.000000000000D+00 0.000000000000D+00 0.270196109997D-02 0.000000000000D+00  5 -1 2 25 24 21 0 0.88834930D-02 0.40705873D-01 0.15167909D+05 0.15167909D+05 0.15167909D+05 0.12472718D+01  1  2  2  2  5  2        2 0.224959667658D+00 0.100000000000D+01
-.127263178236D-04 0.000000000000D+00 -.879717399223D-06 0.270196109997D-02 0.000000000000D+00  5 -1 2 25 24 21 2 0.88834930D-02 0.40705873D-01 0.15167909D+05 0.15167909D+05 0.15167909D+05 0.12472718D+01  1  2  3  2  5  2        2 -.194422910054D-01 0.100000000000D+01
0.158098507432D-04 0.000000000000D+00 0.000000000000D+00 0.270196109997D-02 0.000000000000D+00  5 -1 2 25 24 21 2 0.88834930D-02 0.40705873D-01 0.15167909D+05 0.15167909D+05 0.15167909D+05 0.12472718D+01  1  2 15  2  5  2        2 0.241530757883D-01 0.100000000000D+01
0.182091425496D-02 0.000000000000D+00 0.000000000000D+00 0.270196109997D-02 0.000000000000D+00  5 -1 2 25 24 21 2 0.88834930D-02 0.46059766D-01 0.16311452D+05 0.16311452D+05 0.16311452D+05 0.12436940D+01  1  2 12  2  5  2        2 0.243367675083D+01 0.100000000000D+01
-.184939347785D-02 0.000000000000D+00 0.000000000000D+00 0.270196109997D-02 0.000000000000D+00  5 -1 2 25 24 21 2 0.88834930D-02 0.40705873D-01 0.15167909D+05 0.15167909D+05 0.15167909D+05 0.12472718D+01  1  2  4  2  5  2        2 -.282536132431D+01 0.100000000000D+01
-.277021159632D-02 0.000000000000D+00 -.296514565687D-03 0.270196109997D-02 0.000000000000D+00  5 -1 2 25 24 21 2 0.88834930D-02 0.46195054D-01 0.15167909D+05 0.15167909D+05 0.15167909D+05 0.12472718D+01  1  2  5  2  5  2        2 -.370259031713D+01 0.100000000000D+01
0.278774257869D-02 0.000000000000D+00 0.294157818931D-03 0.270196109997D-02 0.000000000000D+00  5 -1 2 25 24 21 2 0.88834930D-02 0.40705873D-01 0.15167909D+05 0.15167909D+05 0.15167909D+05 0.12472718D+01  1  2  6  2  5  2        2 0.425889901653D+01 0.100000000000D+01
0.445417639318D-06 0.000000000000D+00 0.000000000000D+00 0.270196109997D-02 0.280145110380D-03  5 -1 2 25 24 21 2 0.89818747D-02 0.45852132D-01 0.16311452D+05 0.16311452D+05 0.16311452D+05 0.12436940D+01  1  2 11  2  5  2        2 0.588261930944D-03 0.100000000000D+01
0.354091554191D-04 0.000000000000D+00 0.000000000000D+00 0.270196109997D-02 0.000000000000D+00  5 -1 21 25 24 -2 2 0.88834930D-02 0.46059766D-01 0.16311452D+05 0.16311452D+05 0.16311452D+05 0.12436940D+01  1  2 12  4  5  2        2 0.160873190557D+00 0.100000000000D+01
-.534241545187D-04 0.000000000000D+00 -.588006050890D-05 0.270196109997D-02 0.000000000000D+00  5 -1 21 25 24 -2 2 0.88834930D-02 0.46195054D-01 0.15167909D+05 0.15167909D+05 0.15167909D+05 0.12472718D+01  1  2  5  4  5  2        2 -.242496920188D+00 0.100000000000D+01
0.872503804159D-08 0.000000000000D+00 0.000000000000D+00 0.270196109997D-02 0.533792700573D-05  5 -1 21 25 24 -2 2 0.89818747D-02 0.45852132D-01 0.16311452D+05 0.16311452D+05 0.16311452D+05 0.12436940D+01  1  2 11  4  5  2        2 0.393449348499D-04 0.100000000000D+01
  </mgrwgt>
  </event>
  <event>
  4     66 0.45252658E-03 0.21897183E+02 0.75467711E-02 0.12447007E+00
       -3 -1    0    0    0  501 0.00000000E+00 0.00000000E+00 0.16775154E+04 0.16775155E+04 0.50000000E+00 0.0000E+00 0.9000E+01
        4 -1    0    0  501    0 0.00000000E+00 0.00000000E+00 -.69125271E+01 0.70841747E+01 0.15500000E+01 0.0000E+00 0.9000E+01
       25  1    1    2    0    0 -.22776408E+02 0.24486194E+02 0.96130722E+03 0.96997676E+03 0.12500000E+03 0.0000E+00 0.9000E+01
       24  1    1    2    0    0 0.22776408E+02 -.24486194E+02 0.70929565E+03 0.71462289E+03 0.80419002E+02 0.0000E+00 0.9000E+01
#aMCatNLO 1  0  0  2  1 0.20596403D+02 0.00000000D+00  -5  5  0 0.00000000D+00 0.00000000D+00 0.00000000D+00 0.00000000D+00 0.00000000D+00
  <mgrwgt>
 0.2403034625D-01    9    2    0
 0.108353609943285D+03 0.000000000000000D+00 0.000000000000000D+00 0.108353609943285D+03
 0.108353609943285D+03 0.000000000000000D+00 0.000000000000000D+00 -.108353609943285D+03
 0.129483002979712D+03 -.227764079993227D+02 0.244861942133378D+02 -.474442749330813D+01
 0.872242169068585D+02 0.227764079993227D+02 -.244861942133378D+02 0.474442749330813D+01
 0.000000000000000D+00 -.000000000000000D+00 -.000000000000000D+00 -.000000000000000D+00
 0.117186437824908D+03 0.000000000000000D+00 0.000000000000000D+00 0.117186437824908D+03
 0.121551148866683D+03 0.000000000000000D+00 0.000000000000000D+00 -.121551148866683D+03
 0.128620689715285D+03 -.110050300627479D+02 0.278327422995699D+02 -.474442749330813D+01
 0.890630968810935D+02 0.308163727683420D+02 -.222004695635893D+02 0.474442749330813D+01
 0.210538000952122D+02 -.198113427055940D+02 -.563227273598062D+01 -.436471104177485D+01
0.140839375640D-02 0.000000000000D+00 0.000000000000D+00 0.305326137028D-02 0.000000000000D+00  5 -3 4 25 24 21 0 0.25809250D+00 0.10766751D-02 0.11717104D+05 0.11717104D+05 0.11717104D+05 0.12602402D+01  1  2  2  2  5  2        4 0.535256669842D-01 0.100000000000D+01
-.782440029008D-04 0.000000000000D+00 -.540860286315D-05 0.305326137028D-02 0.000000000000D+00  5 -3 4 25 24 21 2 0.25809250D+00 0.10766751D-02 0.11717104D+05 0.11717104D+05 0.11717104D+05 0.12602402D+01  1  2  3  2  5  2        4 -.472275837021D-02 0.100000000000D+01
0.972459891388D-04 0.000000000000D+00 0.000000000000D+00 0.305326137028D-02 0.000000000000D+00  5 -3 4 25 24 21 2 0.25809250D+00 0.10766751D-02 0.11717104D+05 0.11717104D+05 0.11717104D+05 0.12602402D+01  1  2 15  2  5  2        4 0.586970620301D-02 0.100000000000D+01
0.179024484778D-02 0.000000000000D+00 0.000000000000D+00 0.305326137028D-02 0.000000000000D+00  5 -3 4 25 24 21 2 0.25809250D+00 0.12472327D-02 0.14168879D+05 0.14168879D+05 0.14168879D+05 0.12506546D+01  1  2 12  2  5  2        4 0.864470202195D-01 0.100000000000D+01
-.161329741620D-02 0.000000000000D+00 0.000000000000D+00 0.305326137028D-02 0.000000000000D+00  5 -3 4 25 24 21 2 0.25809250D+00 0.10766751D-02 0.11717104D+05 0.11717104D+05 0.11717104D+05 0.12602402D+01  1  2  4  2  5  2        4 -.973776084242D-01 0.100000000000D+01
-.458530536922D-02 0.000000000000D+00 -.123989913990D-02 0.305326137028D-02 0.000000000000D+00  5 -3 4 25 24 21 2 0.25809250D+00 0.13198339D-02 0.11717104D+05 0.11717104D+05 0.11717104D+05 0.12602402D+01  1  2  5  2  5  2        4 -.203650894168D+00 0.100000000000D+01
0.476394402777D-02 0.000000000000D+00 0.121463002253D-02 0.305326137028D-02 0.000000000000D+00  5 -3 4 25 24 21 2 0.25809250D+00 0.10766751D-02 0.11717104D+05 0.11717104D+05 0.11717104D+05 0.12602402D+01  1  2  6  2  5  2        4 0.287548638851D+00 0.100000000000D+01
0.401845834498D-04 0.000000000000D+00 0.000000000000D+00 0.305326137028D-02 0.000000000000D+00  5 -3 21 25 24 -4 2 0.25809250D+00 0.12472327D-02 0.14168879D+05 0.14168879D+05 0.14168879D+05 0.12506546D+01  1  2 12  4  5  2        4 0.602185895614D-01 0.100000000000D+01
-.118308520247D-03 0.000000000000D+00 -.359737800563D-04 0.305326137028D-02 0.000000000000D+00  5 -3 21 25 24 -4 2 0.25809250D+00 0.13198339D-02 0.11717104D+05 0.11717104D+05 0.11717104D+05 0.12602402D+01  1  2  5  4  5  2        4 -.163828014608D+00 0.100000000000D+01
  </mgrwgt>
  </event>
  <event>
  4     66 0.45252658E-03 0.10898036E+03 0.75467711E-02 0.11819637E+00
       -1 -1    0    0    0  501 0.00000000E+00 0.00000000E+00 0.83654610E+02 0.83655222E+02 0.32000000E+00 0.0000E+00 0.9000E+01
        2 -1    0    0  501    0 0.00000000E+00 0.00000000E+00 -.14362219E+03 0.14362255E+03 0.32000000E+00 0.0000E+00 0.9000E+01
       25  1    1    2    0    0 -.32573829E+02 0.14521999E+02 -.23742021E+02 0.13213866E+03 0.12500000E+03 0.0000E+00 0.9000E+01
       24  1    1    2    0    0 0.32573829E+02 -.14521999E+02 -.36225563E+02 0.95139110E+02 0.80419002E+02 0.0000E+00 0.9000E+01
#aMCatNLO 1  0  0  2  1 0.94596932D+02 0.00000000D+00  -5  5  0 0.00000000D+00 0.00000000D+00 0.00000000D+00 0.00000000D+00 0.00000000D+00
  <mgrwgt>
 0.3136110847D+00    3    2    0
 0.109611900556824D+03 0.000000000000000D+00 0.000000000000000D+00 0.109611900556824D+03
 0.109611900556824D+03 0.000000000000000D+00 0.000000000000000D+00 -.109611900556824D+03
 0.130498738571466D+03 -.325738290915267D+02 0.145219993712215D+02 0.115316070572157D+02
 0.887250625421832D+02 0.325738290915267D+02 -.145219993712215D+02 -.115316070572157D+02
 0.000000000000000D+00 -.000000000000000D+00 0.000000000000000D+00 0.000000000000000D+00
 0.175600771630225D+03 0.000000000000000D+00 0.000000000000000D+00 0.175600771630225D+03
 0.159174496660944D+03 0.000000000000000D+00 0.000000000000000D+00 -.159174496660944D+03
 0.134513926481991D+03 -.272004719991359D+02 -.399518807980873D+02 0.115316070572157D+02
 0.104248831503067D+03 0.364865388558135D+02 -.541881669406297D+02 -.115316070572157D+02
 0.960125103061108D+02 -.928606685667763D+01 0.941400477387170D+02 0.164262749692810D+02
0.287239336997D-03 0.000000000000D+00 0.000000000000D+00 0.299430640561D-02 0.000000000000D+00  5 -1 2 25 24 21 0 0.12870015D-01 0.22095797D-01 0.11876720D+05 0.11876720D+05 0.11876720D+05 0.12595501D+01  1  2  2  2  5  2        2 0.306991449805D+00 0.100000000000D+01
-.159570931434D-04 0.000000000000D+00 -.110307468592D-05 0.299430640561D-02 0.000000000000D+00  5 -1 2 25 24 21 2 0.12870015D-01 0.22095797D-01 0.11876720D+05 0.11876720D+05 0.11876720D+05 0.12595501D+01  1  2  3  2  5  2        2 -.270562126858D-01 0.100000000000D+01
0.198611920408D-04 0.000000000000D+00 0.000000000000D+00 0.299430640561D-02 0.000000000000D+00  5 -1 2 25 24 21 2 0.12870015D-01 0.22095797D-01 0.11876720D+05 0.11876720D+05 0.11876720D+05 0.12595501D+01  1  2 15  2  5  2        2 0.336758475507D-01 0.100000000000D+01
  </mgrwgt>
  </event>
  <event>
  4     66 0.45252658E-03 0.11176758E+03 0.75467711E-02 0.12544562E+00
       -1 -1    0    0    0  501 0.00000000E+00 0.00000000E+00 0.18850327E+02 0.18853043E+02 0.32000000E+00 0.0000E+00 0.9000E+01
        2 -1    0    0  501    0 0.00000000E+00 0.00000000E+00 -.15937913E+04 0.15937913E+04 0.32000000E+00 0.0000E+00 0.9000E+01
       25  1    1    2    0    0 0.30196594E+01 0.43085486E+02 -.14594700E+04 0.14654498E+04 0.12500000E+03 0.0000E+00 0.9000E+01
       24  1    1    2    0    0 -.30196594E+01 -.43085486E+02 -.11547098E+03 0.14719456E+03 0.80419002E+02 0.0000E+00 0.9000E+01
#aMCatNLO 1  0  0  2  1 0.32190921D+01 0.00000000D+00  -5  5  0 0.00000000D+00 0.00000000D+00 0.00000000D+00 0.00000000D+00 0.00000000D+00
  <mgrwgt>
 0.2566279623D+00    8    2    0
 0.173336964591248D+03 0.000000000000000D+00 0.000000000000000D+00 0.173336964591248D+03
 0.173336964591248D+03 0.000000000000000D+00 0.000000000000000D+00 -.173336964591248D+03
 0.186545030261523D+03 0.301965944999321D+01 0.430854855758183D+02 -.131562042036351D+03
 0.160128898920972D+03 -.301965944999321D+01 -.430854855758183D+02 0.131562042036351D+03
 0.000000000000000D+00 0.000000000000000D+00 -.000000000000000D+00 0.000000000000000D+00
 0.184631336110007D+03 0.000000000000000D+00 0.000000000000000D+00 0.184631336110007D+03
 0.173573963417051D+03 0.000000000000000D+00 0.000000000000000D+00 -.173573963417051D+03
 0.186671459207201D+03 0.140394045393464D+01 0.437114599272678D+02 -.131562042036351D+03
 0.160017415330886D+03 -.440562844131831D+01 -.425485227483772D+02 0.131562042036351D+03
 0.115164249889709D+02 0.300168798738367D+01 -.116293717889064D+01 0.110573726929567D+02
0.467987948291D-03 0.000000000000D+00 0.000000000000D+00 0.104356973248D-02 0.000000000000D+00  5 -1 2 25 24 21 0 0.29002617D-02 0.24519887D+00 0.12491992D+05 0.12491992D+05 0.12491992D+05 0.12569841D+01  1  2  2  2  5  2        2 0.252171416888D+00 0.100000000000D+01
-.199122578920D-04 0.000000000000D+00 -.179719694549D-05 0.104356973248D-02 0.000000000000D+00  5 -1 2 25 24 21 2 0.29002617D-02 0.24519887D+00 0.12491992D+05 0.12491992D+05 0.12491992D+05 0.12569841D+01  1  2  3  2  5  2        2 -.169527923494D-01 0.100000000000D+01
0.317798423044D-04 0.000000000000D+00 0.000000000000D+00 0.104356973248D-02 0.000000000000D+00  5 -1 2 25 24 21 2 0.29002617D-02 0.24519887D+00 0.12491992D+05 0.12491992D+05 0.12491992D+05 0.12569841D+01  1  2 15  2  5  2        2 0.270565533253D-01 0.100000000000D+01
-.904546686289D-04 0.000000000000D+00 0.000000000000D+00 0.104356973248D-02 0.000000000000D+00  5 -1 2 25 24 21 2 0.29002617D-02 0.24519887D+00 0.12491992D+05 0.12491992D+05 0.12491992D+05 0.12569841D+01  1  2  4  2  5  2        2 -.770108152783D-01 0.100000000000D+01
0.264538929413D-05 0.000000000000D+00 0.000000000000D+00 0.104356973248D-02 0.000000000000D+00  5 -1 2 25 24 21 2 0.29002617D-02 0.25734721D+00 0.12491992D+05 0.12491992D+05 0.12491992D+05 0.12569841D+01  1  2  5  2  5  2        2 0.205286381529D-02 0.100000000000D+01
-.264229937299D-05 0.000000000000D+00 0.000000000000D+00 0.104356973248D-02 0.000000000000D+00  5 -1 2 25 24 21 2 0.29002617D-02 0.24519887D+00 0.12491992D+05 0.12491992D+05 0.12491992D+05 0.12569841D+01  1  2  6  2  5  2        2 -.224958680417D-02 0.100000000000D+01
0.889431618254D-04 0.000000000000D+00 0.000000000000D+00 0.104356973248D-02 0.848341873021D-03  5 -1 2 25 24 21 2 0.30892383D-02 0.24553413D+00 0.12852396D+05 0.12852396D+05 0.12852396D+05 0.12555462D+01  1  2 11  2  5  2        2 0.687960744058D-01 0.100000000000D+01
0.739798642180D-05 0.000000000000D+00 0.000000000000D+00 0.104356973248D-02 0.223774168578D-06  5 -1 21 25 24 -2 2 0.30892383D-02 0.24553413D+00 0.12852396D+05 0.12852396D+05 0.12852396D+05 0.12555462D+01  1  2 11  4  5  2        2 0.276424834035D-02 0.100000000000D+01
  </mgrwgt>
  </event>
  <event>
  4     66 0.45252658E-03 0.11504284E+03 0.75467711E-02 0.11831398E+00
       -1 -1    0    0    0  501 0.00000000E+00 0.00000000E+00 0.28358992E+02 0.28360797E+02 0.32000000E+00 0.0000E+00 0.9000E+01
        2 -1    0    0  501    0 0.00000000E+00 0.00000000E+00 -.12526816E+04 0.12526816E+04 0.32000000E+00 0.0000E+00 0.9000E+01
       25  1    1    2    0    0 0.12590814E+02 0.12257614E+03 -.98185774E+03 0.99742321E+03 0.12500000E+03 0.0000E+00 0.9000E+01
       24  1    1    2    0    0 -.12590814E+02 -.12257614E+03 -.24246485E+03 0.28361921E+03 0.80419002E+02 0.0000E+00 0.9000E+01
#aMCatNLO 1  0  0  2  1 0.72070072D+01 0.00000000D+00  -5  5  0 0.00000000D+00 0.00000000D+00 0.00000000D+00 0.00000000D+00 0.00000000D+00
  <mgrwgt>
 0.8064363463D+00   11    2    0
 0.188483341059080D+03 0.000000000000000D+00 0.000000000000000D+00 0.188483341059080D+03
 0.188483341059080D+03 0.000000000000000D+00 0.000000000000000D+00 -.188483341059080D+03
 0.200630016720404D+03 0.125908142600440D+02 0.122576135350047D+03 -.971800702209340D+02
 0.176336665397756D+03 -.125908142600440D+02 -.122576135350047D+03 0.971800702209340D+02
 0.000000000000000D+00 -.000000000000000D+00 0.000000000000000D+00 -.000000000000000D+00
 0.190655006248644D+03 0.000000000000000D+00 0.000000000000000D+00 0.190655006248644D+03
 0.194593540938991D+03 0.000000000000000D+00 0.000000000000000D+00 -.194593540938991D+03
 0.198835901290090D+03 0.146779586539783D+02 0.119378838675239D+03 -.971800702209340D+02
 0.178199667828306D+03 -.107384196326772D+02 -.125413818837459D+03 0.971800702209340D+02
 0.821297806923906D+01 -.393953902130103D+01 0.603498016221954D+01 -.393853469034676D+01
0.558987351097D-03 0.000000000000D+00 0.000000000000D+00 0.164776224194D-02 0.000000000000D+00  5 -1 2 25 24 21 0 0.43630639D-02 0.19272039D+00 0.26028165D+05 0.26028165D+05 0.26028165D+05 0.12214255D+01  1  2  2  2  5  2        2 0.253203637902D+00 0.100000000000D+01
-.301413531036D-04 0.000000000000D+00 -.214665861296D-05 0.164776224194D-02 0.000000000000D+00  5 -1 2 25 24 21 2 0.43630639D-02 0.19272039D+00 0.26028165D+05 0.26028165D+05 0.26028165D+05 0.12214255D+01  1  2  3  2  5  2        2 -.203687631868D-01 0.100000000000D+01
0.384019205507D-04 0.000000000000D+00 0.000000000000D+00 0.164776224194D-02 0.000000000000D+00  5 -1 2 25 24 21 2 0.43630639D-02 0.19272039D+00 0.26028165D+05 0.26028165D+05 0.26028165D+05 0.12214255D+01  1  2 15  2  5  2        2 0.259510454931D-01 0.100000000000D+01
0.141902605570D-02 0.000000000000D+00 0.000000000000D+00 0.164776224194D-02 0.000000000000D+00  5 -1 2 25 24 21 2 0.43630639D-02 0.20005332D+00 0.27232580D+05 0.27232580D+05 0.27232580D+05 0.12193348D+01  1  2 12  2  5  2        2 0.900468622601D+00 0.100000000000D+01
-.150381655387D-02 0.000000000000D+00 0.000000000000D+00 0.164776224194D-02 0.000000000000D+00  5 -1 2 25 24 21 2 0.43630639D-02 0.19272039D+00 0.26028165D+05 0.26028165D+05 0.26028165D+05 0.12214255D+01  1  2  4  2  5  2        2 -.101624114740D+01 0.100000000000D+01
-.142154650976D-01 0.000000000000D+00 -.191649922444D-02 0.164776224194D-02 0.000000000000D+00  5 -1 2 25 24 21 2 0.43630639D-02 0.20022469D+00 0.26028165D+05 0.26028165D+05 0.26028165D+05 0.12214255D+01  1  2  5  2  5  2        2 -.903474142009D+01 0.100000000000D+01
0.142796525693D-01 0.000000000000D+00 0.191510177205D-02 0.164776224194D-02 0.000000000000D+00  5 -1 2 25 24 21 2 0.43630639D-02 0.19272039D+00 0.26028165D+05 0.26028165D+05 0.26028165D+05 0.12214255D+01  1  2  6  2  5  2        2 0.964982761639D+01 0.100000000000D+01
0.118386862101D-03 0.000000000000D+00 0.000000000000D+00 0.164776224194D-02 0.251633219709D-03  5 -1 2 25 24 21 2 0.44133342D-02 0.19896794D+00 0.27232580D+05 0.27232580D+05 0.27232580D+05 0.12193348D+01  1  2 11  2  5  2        2 0.745173734593D-01 0.100000000000D+01
0.267076234123D-04 0.000000000000D+00 0.000000000000D+00 0.164776224194D-02 0.000000000000D+00  5 -1 21 25 24 -2 2 0.43630639D-02 0.20005332D+00 0.27232580D+05 0.27232580D+05 0.27232580D+05 0.12193348D+01  1  2 12  4  5  2        2 0.102896090481D-01 0.100000000000D+01
-.952296978409D-04 0.000000000000D+00 -.129733983340D-04 0.164776224194D-02 0.000000000000D+00  5 -1 21 25 24 -2 2 0.43630639D-02 0.20022469D+00 0.26028165D+05 0.26028165D+05 0.26028165D+05 0.12214255D+01  1  2  5  4  5  2        2 -.367922777604D-01 0.100000000000D+01
0.836760554679D-06 0.000000000000D+00 0.000000000000D+00 0.164776224194D-02 0.146367323372D-05  5 -1 21 25 24 -2 2 0.44133342D-02 0.19896794D+00 0.27232580D+05 0.27232580D+05 0.27232580D+05 0.12193348D+01  1  2 11  4  5  2        2 0.322049878893D-03 0.100000000000D+01
  </mgrwgt>
  </event>
  <event>
  4     66 0.45252658E-03 0.79171483E+02 0.75467711E-02 0.12356257E+00
       -3 -1    0    0    0  501 0.00000000E+00 0.00000000E+00 0.14857617E+03 0.14857701E+03 0.50000000E+00 0.0000E+00 0.9000E+01
        4 -1    0    0  501    0 0.00000000E+00 0.00000000E+00 -.79193383E+02 0.79208550E+02 0.15500000E+01 0.0000E+00 0.9000E+01
       25  1    1    2    0    0 0.33618926E+02 -.29119523E+01 0.47060953E+02 0.13776228E+03 0.12500000E+03 0.0000E+00 0.9000E+01
       24  1    1    2    0    0 -.33618926E+02 0.29119523E+01 0.22321836E+02 0.90023286E+02 0.80419002E+02 0.0000E+00 0.9000E+01
#aMCatNLO 1  0  0  1  2 0.30466960D+02 0.00000000D+00  -5  5  0 0.00000000D+00 0.00000000D+00 0.00000000D+00 0.00000000D+00 0.00000000D+00
  <mgrwgt>
 0.6905473767D-01    6    2    0
 0.108480748599619D+03 0.000000000000000D+00 0.000000000000000D+00 0.108480748599619D+03
 0.108480748599619D+03 0.000000000000000D+00 0.000000000000000D+00 -.108480748599619D+03
 0.129585378139531D+03 0.336189264302661D+02 -.291195229998825D+01 0.535336782262451D+01
 0.873761190597059D+02 -.336189264302661D+02 0.291195229998825D+01 -.535336782262451D+01
 0.000000000000000D+00 0.000000000000000D+00 -.000000000000000D+00 -.000000000000000D+00
 0.123842492874685D+03 0.000000000000000D+00 0.000000000000000D+00 0.123842492874685D+03
 0.125775981909456D+03 0.000000000000000D+00 0.000000000000000D+00 -.125775981909456D+03
 0.126133806566142D+03 0.157520492940372D+02 -.281985014830820D+01 0.535336782262451D+01
 0.929564188974039D+02 -.462186040925127D+02 0.297690251005126D+01 -.535336782262451D+01
 0.305282493205952D+02 0.304665547984756D+02 -.157052361743066D+00 -.193348903477083D+01
0.303411221872D-03 0.000000000000D+00 0.000000000000D+00 0.304824389422D-02 0.000000000000D+00  5 -3 4 25 24 21 0 0.22859104D-01 0.12184829D-01 0.11738284D+05 0.11738284D+05 0.11738284D+05 0.12601480D+01  1  2  2  1  5  1       -3 0.538528906425D-01 0.100000000000D+01
-.168561460790D-04 0.000000000000D+00 -.116517898200D-05 0.304824389422D-02 0.000000000000D+00  5 -3 4 25 24 21 2 0.22859104D-01 0.12184829D-01 0.11738284D+05 0.11738284D+05 0.11738284D+05 0.12601480D+01  1  2  3  1  5  1       -3 -.475093178492D-02 0.100000000000D+01
0.209722373470D-04 0.000000000000D+00 0.000000000000D+00 0.304824389422D-02 0.000000000000D+00  5 -3 4 25 24 21 2 0.22859104D-01 0.12184829D-01 0.11738284D+05 0.11738284D+05 0.11738284D+05 0.12601480D+01  1  2 15  1  5  1       -3 0.591105870498D-02 0.100000000000D+01
0.162874210447D-03 0.000000000000D+00 0.000000000000D+00 0.304824389422D-02 0.000000000000D+00  5 -3 4 25 24 21 2 0.27666151D-01 0.12184829D-01 0.15536283D+05 0.15536283D+05 0.15536283D+05 0.12460871D+01  1  2 12  1  5  1       -3 0.327442203162D-01 0.100000000000D+01
-.133911059110D-03 0.000000000000D+00 0.000000000000D+00 0.304824389422D-02 0.000000000000D+00  5 -3 4 25 24 21 2 0.22859104D-01 0.12184829D-01 0.11738284D+05 0.11738284D+05 0.11738284D+05 0.12601480D+01  1  2  4  1  5  1       -3 -.377430466071D-01 0.100000000000D+01
0.449597529629D-05 0.000000000000D+00 0.000000000000D+00 0.304824389422D-02 0.000000000000D+00  5 21 4 25 24 3 2 0.27666151D-01 0.12184829D-01 0.15536283D+05 0.15536283D+05 0.15536283D+05 0.12460871D+01  1  2 12  3  5  1       -3 0.190405463967D-01 0.100000000000D+01
  </mgrwgt>
  </event>
  <event>
  4     66 0.45252658E-03 0.69037460E+02 0.75467711E-02 0.12457978E+00
       -1 -1    0    0    0  501 0.00000000E+00 0.00000000E+00 0.11137933E+03 0.11137979E+03 0.32000000E+00 0.0000E+00 0.9000E+01
        2 -1    0    0  501    0 0.00000000E+00 0.00000000E+00 -.11905192E+03 0.11905235E+03 0.32000000E+00 0.0000E+00 0.9000E+01
       25  1    1    2    0    0 -.12381782E+02 -.31872902E+02 0.33469964E+02 0.13384479E+03 0.12500000E+03 0.0000E+00 0.9000E+01
       24  1    1    2    0    0 0.12381782E+02 0.31872902E+02 -.41142555E+02 0.96587350E+02 0.80419002E+02 0.0000E+00 0.9000E+01
#aMCatNLO 1  0  0  2  1 0.18948459D+02 0.00000000D+00  -5  5  0 0.00000000D+00 0.00000000D+00 0.00000000D+00 0.00000000D+00 0.00000000D+00
  <mgrwgt>
 0.2878522117D+00    9    2    0
 0.115152186565120D+03 0.000000000000000D+00 0.000000000000000D+00 0.115152186565120D+03
 0.115152186565120D+03 0.000000000000000D+00 0.000000000000000D+00 -.115152186565120D+03
 0.135034101791390D+03 -.123817821214452D+02 -.318729020217240D+02 0.379475721860866D+02
 0.952702713388502D+02 0.123817821214452D+02 0.318729020217240D+02 -.379475721860866D+02
 0.000000000000000D+00 -.000000000000000D+00 0.000000000000000D+00 -.000000000000000D+00
 0.120187245420074D+03 0.000000000000000D+00 0.000000000000000D+00 0.120187245420074D+03
 0.134861482085140D+03 0.000000000000000D+00 0.000000000000000D+00 -.134861482085140D+03
 0.135457806455199D+03 -.198110627923588D+01 -.357753310641027D+02 0.379475721860866D+02
 0.956247510157654D+02 0.197218806119023D+02 0.291188296943438D+02 -.379475721860866D+02
 0.239661700342501D+02 -.177407743326665D+02 0.665650136975888D+01 -.146742366650667D+02
0.240223689890D-03 0.000000000000D+00 0.000000000000D+00 0.261652147066D-02 0.000000000000D+00  5 -1 2 25 24 21 0 0.17135350D-01 0.18315749D-01 0.11769965D+05 0.11769965D+05 0.11769965D+05 0.12600105D+01  1  2  2  2  5  2        2 0.202872454714D+00 0.100000000000D+01
-.132881184904D-04 0.000000000000D+00 -.922522221528D-06 0.261652147066D-02 0.000000000000D+00  5 -1 2 25 24 21 2 0.17135350D-01 0.18315749D-01 0.11769965D+05 0.11769965D+05 0.11769965D+05 0.12600105D+01  1  2  3  2  5  2        2 -.178163633303D-01 0.100000000000D+01
0.165738091630D-04 0.000000000000D+00 0.000000000000D+00 0.261652147066D-02 0.000000000000D+00  5 -1 2 25 24 21 2 0.17135350D-01 0.18315749D-01 0.11769965D+05 0.11769965D+05 0.11769965D+05 0.12600105D+01  1  2 15  2  5  2        2 0.222217318448D-01 0.100000000000D+01
0.543798882278D-03 0.000000000000D+00 0.000000000000D+00 0.261652147066D-02 0.000000000000D+00  5 -1 2 25 24 21 2 0.17135350D-01 0.21802718D-01 0.14013251D+05 0.14013251D+05 0.14013251D+05 0.12512057D+01  1  2 12  2  5  2        2 0.594849368318D+00 0.100000000000D+01
-.549752407479D-03 0.000000000000D+00 0.000000000000D+00 0.261652147066D-02 0.000000000000D+00  5 -1 2 25 24 21 2 0.17135350D-01 0.18315749D-01 0.11769965D+05 0.11769965D+05 0.11769965D+05 0.12600105D+01  1  2  4  2  5  2        2 -.737093715748D+00 0.100000000000D+01
-.101959577554D-02 0.000000000000D+00 -.213864689023D-03 0.261652147066D-02 0.000000000000D+00  5 -1 2 25 24 21 2 0.17135350D-01 0.22303779D-01 0.11769965D+05 0.11769965D+05 0.11769965D+05 0.12600105D+01  1  2  5  2  5  2        2 -.109601753486D+01 0.100000000000D+01
0.104545845577D-02 0.000000000000D+00 0.209781026397D-03 0.261652147066D-02 0.000000000000D+00  5 -1 2 25 24 21 2 0.17135350D-01 0.18315749D-01 0.11769965D+05 0.11769965D+05 0.11769965D+05 0.12600105D+01  1  2  6  2  5  2        2 0.140172348014D+01 0.100000000000D+01
0.139827169391D-04 0.000000000000D+00 0.000000000000D+00 0.261652147066D-02 0.000000000000D+00  5 -1 21 25 24 -2 2 0.17135350D-01 0.21802718D-01 0.14013251D+05 0.14013251D+05 0.14013251D+05 0.12512057D+01  1  2 12  4  5  2        2 0.994922881801D-01 0.100000000000D+01
-.264406599424D-04 0.000000000000D+00 -.604937147463D-05 0.261652147066D-02 0.000000000000D+00  5 -1 21 25 24 -2 2 0.17135350D-01 0.22303779D-01 0.11769965D+05 0.11769965D+05 0.11769965D+05 0.12600105D+01  1  2  5  4  5  2        2 -.182379497598D+00 0.100000000000D+01
  </mgrwgt>
  </event>
  <event>
  4     66 0.45252658E-03 0.60193278E+02 0.75467711E-02 0.12109679E+00
       -1 -1    0    0    0  501 0.00000000E+00 0.00000000E+00 0.49843244E+02 0.49844271E+02 0.32000000E+00 0.0000E+00 0.9000E+01
        2 -1    0    0  501    0 0.00000000E+00 0.00000000E+00 -.52616108E+03 0.52616118E+03 0.32000000E+00 0.0000E+00 0.9000E+01
       25  1    1    2    0    0 -.29011466E+02 0.87170958E+02 -.11080469E+03 0.19063871E+03 0.12500000E+03 0.0000E+00 0.9000E+01
       24  1    1    2    0    0 0.29011466E+02 -.87170958E+02 -.36551315E+03 0.38536674E+03 0.80419002E+02 0.0000E+00 0.9000E+01
#aMCatNLO 1  0  0  1  2 0.61725530D+01 0.00000000D+00  -5  5  0 0.00000000D+00 0.00000000D+00 0.00000000D+00 0.00000000D+00 0.00000000D+00
  <mgrwgt>
 0.8529894272D-01   11    2    0
 0.161944123770917D+03 0.000000000000000D+00 0.000000000000000D+00 0.161944123770917D+03
 0.161944123770917D+03 0.000000000000000D+00 0.000000000000000D+00 -.161944123770917D+03
 0.176081382709969D+03 -.290114660374221D+02 0.871709581737599D+02 0.833019341100955D+02
 0.147806864831865D+03 0.290114660374221D+02 -.871709581737599D+02 -.833019341100955D+02
 0.000000000000000D+00 -.000000000000000D+00 0.000000000000000D+00 0.000000000000000D+00
 0.166160952444589D+03 0.000000000000000D+00 0.000000000000000D+00 0.166160952444589D+03
 0.164248223071576D+03 0.000000000000000D+00 0.000000000000000D+00 -.164248223071576D+03
 0.175152457715757D+03 -.257771104799884D+02 0.863117129518917D+02 0.833019341100955D+02
 0.148794601703700D+03 0.317427364653214D+02 -.878965528163801D+02 -.833019341100955D+02
 0.646211609670824D+01 -.596562598533302D+01 0.158483986448836D+01 0.191272937301220D+01
0.324619752826D-03 0.000000000000D+00 0.000000000000D+00 0.175566830597D-02 0.000000000000D+00  5 -1 2 25 24 21 0 0.76682779D-02 0.80947946D-01 0.19213746D+05 0.19213746D+05 0.19213746D+05 0.12357482D+01  1  2  2  1  5  1       -1 0.192228757553D+00 0.100000000000D+01
-.175038103677D-04 0.000000000000D+00 -.124662532520D-05 0.175566830597D-02 0.000000000000D+00  5 -1 2 25 24 21 2 0.76682779D-02 0.80947946D-01 0.19213746D+05 0.19213746D+05 0.19213746D+05 0.12357482D+01  1  2  3  1  5  1       -1 -.158283632794D-01 0.100000000000D+01
0.223710355925D-04 0.000000000000D+00 0.000000000000D+00 0.175566830597D-02 0.000000000000D+00  5 -1 2 25 24 21 2 0.76682779D-02 0.80947946D-01 0.19213746D+05 0.19213746D+05 0.19213746D+05 0.12357482D+01  1  2 15  1  5  1       -1 0.202297026107D-01 0.100000000000D+01
0.398547367645D-03 0.000000000000D+00 0.000000000000D+00 0.175566830597D-02 0.000000000000D+00  5 -1 2 25 24 21 2 0.79213966D-02 0.80947946D-01 0.20098530D+05 0.20098530D+05 0.20098530D+05 0.12335911D+01  1  2 12  1  5  1       -1 0.342372875331D+00 0.100000000000D+01
-.623031363388D-03 0.000000000000D+00 0.000000000000D+00 0.175566830597D-02 0.000000000000D+00  5 -1 2 25 24 21 2 0.76682779D-02 0.80947946D-01 0.19213746D+05 0.19213746D+05 0.19213746D+05 0.12357482D+01  1  2  4  1  5  1       -1 -.563395429165D+00 0.100000000000D+01
-.667540454007D-02 0.000000000000D+00 -.973220892213D-03 0.175566830597D-02 0.000000000000D+00  5 -1 2 25 24 21 2 0.79785756D-02 0.80947946D-01 0.19213746D+05 0.19213746D+05 0.19213746D+05 0.12357482D+01  1  2  5  1  5  1       -1 -.568600314224D+01 0.100000000000D+01
0.670949578863D-02 0.000000000000D+00 0.972455694438D-03 0.175566830597D-02 0.000000000000D+00  5 -1 2 25 24 21 2 0.76682779D-02 0.80947946D-01 0.19213746D+05 0.19213746D+05 0.19213746D+05 0.12357482D+01  1  2  6  1  5  1       -1 0.606726961346D+01 0.100000000000D+01
0.259258712701D-03 0.000000000000D+00 0.000000000000D+00 0.175566830597D-02 0.374141283161D-03  5 -1 2 25 24 21 2 0.78679506D-02 0.82099652D-01 0.20098530D+05 0.20098530D+05 0.20098530D+05 0.12335911D+01  1  2 11  1  5  1       -1 0.221500005054D+00 0.100000000000D+01
0.794719036951D-05 0.000000000000D+00 0.000000000000D+00 0.175566830597D-02 0.000000000000D+00  5 21 2 25 24 1 2 0.79213966D-02 0.80947946D-01 0.20098530D+05 0.20098530D+05 0.20098530D+05 0.12335911D+01  1  2 12  3  5  1       -1 0.108286702499D+00 0.100000000000D+01
-.462783223901D-04 0.000000000000D+00 -.682664459635D-05 0.175566830597D-02 0.000000000000D+00  5 21 2 25 24 1 2 0.79785756D-02 0.80947946D-01 0.19213746D+05 0.19213746D+05 0.19213746D+05 0.12357482D+01  1  2  5  3  5  1       -1 -.624704578421D+00 0.100000000000D+01
0.172000996312D-05 0.000000000000D+00 0.000000000000D+00 0.175566830597D-02 0.176368038771D-05  5 21 2 25 24 1 2 0.78679506D-02 0.82099652D-01 0.20098530D+05 0.20098530D+05 0.20098530D+05 0.12335911D+01  1  2 11  3  5  1       -1 0.233427993203D-01 0.100000000000D+01
  </mgrwgt>
  </event>
  <event>
  4     66 0.45252658E-03 0.11865165E+03 0.75467711E-02 0.11865258E+00
       -1 -1    0    0    0  501 0.00000000E+00 0.00000000E+00 0.49275833E+01 0.49379629E+01 0.32000000E+00 0.0000E+00 0.9000E+01
        2 -1    0    0  501    0 0.00000000E+00 0.00000000E+00 -.41004981E+04 0.41004981E+04 0.32000000E+00 0.0000E+00 0.9000E+01
       25  1    1    2    0    0 -.97055869E+02 0.39764433E+01 -.22497989E+04 0.22553616E+04 0.12500000E+03 0.0000E+00 0.9000E+01
       24  1    1    2    0    0 0.97055869E+02 -.39764433E+01 -.18457716E+04 0.18500745E+04 0.80419002E+02 0.0000E+00 0.9000E+01
#aMCatNLO 1  0  0  1  2 0.37059999D+02 0.00000000D+00  -5  5  0 0.00000000D+00 0.00000000D+00 0.00000000D+00 0.00000000D+00 0.00000000D+00
  <mgrwgt>
 0.2115473508D+00    9    2    0
 0.142221229175108D+03 0.000000000000000D+00 0.000000000000000D+00 0.142221229175108D+03
 0.142221229175108D+03 0.000000000000000D+00 0.000000000000000D+00 -.142221229175108D+03
 0.158319008843349D+03 -.970558688925887D+02 0.397644326381072D+01 0.206271025954844D+01
 0.126123449506866D+03 0.970558688925887D+02 -.397644326381072D+01 -.206271025954844D+01
 0.000000000000000D+00 0.000000000000000D+00 0.000000000000000D+00 0.000000000000000D+00
 0.227533621723963D+03 0.000000000000000D+00 0.000000000000000D+00 0.227533621723963D+03
 0.147505553324013D+03 0.000000000000000D+00 0.000000000000000D+00 -.147505553324013D+03
 0.163604572048744D+03 -.104376263079419D+03 -.155819423440651D+02 0.206271025954844D+01
 0.123241999610910D+03 0.913854132550748D+02 -.191265779560605D+02 -.206271025954844D+01
 0.881926033883220D+02 0.129908498243446D+02 0.347085203001257D+02 0.800280683999493D+02
0.144849179332D-02 0.000000000000D+00 0.000000000000D+00 0.247798813918D-02 0.000000000000D+00  5 -1 2 25 24 21 0 0.75888913D-03 0.63084667D+00 0.20222568D+05 0.20222568D+05 0.20222568D+05 0.12332973D+01  1  2  2  1  5  1       -1 0.179569564725D+00 0.100000000000D+01
-.804717651845D-04 0.000000000000D+00 -.556258988298D-05 0.247798813918D-02 0.000000000000D+00  5 -1 2 25 24 21 2 0.75888913D-03 0.63084667D+00 0.20222568D+05 0.20222568D+05 0.20222568D+05 0.12332973D+01  1  2  3  1  5  1       -1 -.151738488883D-01 0.100000000000D+01
0.996950372993D-04 0.000000000000D+00 0.000000000000D+00 0.247798813918D-02 0.000000000000D+00  5 -1 2 25 24 21 2 0.75888913D-03 0.63084667D+00 0.20222568D+05 0.20222568D+05 0.20222568D+05 0.12332973D+01  1  2 15  1  5  1       -1 0.187986112574D-01 0.100000000000D+01
0.317524630177D-02 0.000000000000D+00 0.000000000000D+00 0.247798813918D-02 0.000000000000D+00  5 -1 2 25 24 21 2 0.12211179D-02 0.63084667D+00 0.26223965D+05 0.26223965D+05 0.26223965D+05 0.12210783D+01  1  2 12  1  5  1       -1 0.294809443989D+00 0.100000000000D+01
-.307699204397D-02 0.000000000000D+00 0.000000000000D+00 0.247798813918D-02 0.000000000000D+00  5 -1 2 25 24 21 2 0.75888913D-03 0.63084667D+00 0.20222568D+05 0.20222568D+05 0.20222568D+05 0.12332973D+01  1  2  4  1  5  1       -1 -.580201169922D+00 0.100000000000D+01
-.353755590264D-02 0.000000000000D+00 -.467869287051D-03 0.247798813918D-02 0.000000000000D+00  5 -1 2 25 24 21 2 0.13029819D-02 0.63084667D+00 0.20222568D+05 0.20222568D+05 0.20222568D+05 0.12332973D+01  1  2  5  1  5  1       -1 -.308355501035D+00 0.100000000000D+01
0.334992485968D-02 0.000000000000D+00 0.406951779939D-03 0.247798813918D-02 0.000000000000D+00  5 -1 2 25 24 21 2 0.75888913D-03 0.63084667D+00 0.20222568D+05 0.20222568D+05 0.20222568D+05 0.12332973D+01  1  2  6  1  5  1       -1 0.631665696552D+00 0.100000000000D+01
0.172166432789D-03 0.000000000000D+00 0.000000000000D+00 0.247798813918D-02 0.000000000000D+00  5 21 2 25 24 1 2 0.12211179D-02 0.63084667D+00 0.26223965D+05 0.26223965D+05 0.26223965D+05 0.12210783D+01  1  2 12  3  5  1       -1 0.358373658531D+00 0.100000000000D+01
-.189486346801D-03 0.000000000000D+00 -.280965810484D-04 0.247798813918D-02 0.000000000000D+00  5 21 2 25 24 1 2 0.13029819D-02 0.63084667D+00 0.20222568D+05 0.20222568D+05 0.20222568D+05 0.12332973D+01  1  2  5  3  5  1       -1 -.367939104420D+00 0.100000000000D+01
  </mgrwgt>
  </event>
  <event>
  4     66 0.45252658E-03 0.73145140E+02 0.75467711E-02 0.12077777E+00
       -1 -1    0    0    0  501 0.00000000E+00 0.00000000E+00 0.21342546E+02 0.21344944E+02 0.32000000E+00 0.0000E+00 0.9000E+01
        2 -1    0    0  501    0 0.00000000E+00 0.00000000E+00 -.66306132E+03 0.66306140E+03 0.32000000E+00 0.0000E+00 0.9000E+01
       25  1    1    2    0    0 0.47422373E+02 0.18157443E+01 -.47341779E+03 0.49193656E+03 0.12500000E+03 0.0000E+00 0.9000E+01
       24  1    1    2    0    0 -.47422373E+02 -.18157443E+01 -.16830099E+03 0.19246978E+03 0.80419002E+02 0.0000E+00 0.9000E+01
#aMCatNLO 1  0  0  1  2 0.54611350D+02 0.00000000D+00  -5  5  0 0.00000000D+00 0.00000000D+00 0.00000000D+00 0.00000000D+00 0.00000000D+00
  <mgrwgt>
 0.3522260766D+00    9    2    0
 0.118963287496674D+03 0.000000000000000D+00 0.000000000000000D+00 0.118963287496674D+03
 0.118963287496674D+03 0.000000000000000D+00 0.000000000000000D+00 -.118963287496674D+03
 0.138208266847731D+03 0.474223732204587D+02 0.181574429711596D+01 -.349906646956098D+02
 0.997183081456164D+02 -.474223732204587D+02 -.181574429711596D+01 0.349906646956098D+02
 0.000000000000000D+00 0.000000000000000D+00 -.000000000000000D+00 0.000000000000000D+00
 0.194121555817853D+03 0.000000000000000D+00 0.000000000000000D+00 0.194121555817853D+03
 0.132403054564665D+03 0.000000000000000D+00 0.000000000000000D+00 -.132403054564665D+03
 0.131242702134452D+03 0.175647585273986D+02 0.817187283222291D+01 -.349906646956098D+02
 0.112870908000209D+03 -.709791892436419D+02 0.319906187747179D+01 0.349906646956098D+02
 0.824110002478569D+02 0.534144307162433D+02 -.113709347096947D+02 0.617185012531881D+02
0.224707001246D-03 0.000000000000D+00 0.000000000000D+00 0.259419483946D-02 0.000000000000D+00  5 -1 2 25 24 21 0 0.32836590D-02 0.10200962D+00 0.12891702D+05 0.12891702D+05 0.12891702D+05 0.12553921D+01  1  2  2  1  5  1       -1 0.353928275729D+00 0.100000000000D+01
-.124506973051D-04 0.000000000000D+00 -.862934051498D-06 0.259419483946D-02 0.000000000000D+00  5 -1 2 25 24 21 2 0.32836590D-02 0.10200962D+00 0.12891702D+05 0.12891702D+05 0.12891702D+05 0.12553921D+01  1  2  3  1  5  1       -1 -.309065920394D-01 0.100000000000D+01
0.155250668271D-04 0.000000000000D+00 0.000000000000D+00 0.259419483946D-02 0.000000000000D+00  5 -1 2 25 24 21 2 0.32836590D-02 0.10200962D+00 0.12891702D+05 0.12891702D+05 0.12891702D+05 0.12553921D+01  1  2 15  1  5  1       -1 0.385381553380D-01 0.100000000000D+01
0.129040041994D-03 0.000000000000D+00 0.000000000000D+00 0.259419483946D-02 0.000000000000D+00  5 -1 2 25 24 21 2 0.54458378D-02 0.10200962D+00 0.20795647D+05 0.20795647D+05 0.20795647D+05 0.12319652D+01  1  2 12  1  5  1       -1 0.149085778081D+00 0.100000000000D+01
-.185932605273D-03 0.000000000000D+00 0.000000000000D+00 0.259419483946D-02 0.000000000000D+00  5 -1 2 25 24 21 2 0.32836590D-02 0.10200962D+00 0.12891702D+05 0.12891702D+05 0.12891702D+05 0.12553921D+01  1  2  4  1  5  1       -1 -.461543882817D+00 0.100000000000D+01
-.203738530413D-03 0.000000000000D+00 -.692872953137D-04 0.259419483946D-02 0.000000000000D+00  5 -1 2 25 24 21 2 0.59583159D-02 0.10200962D+00 0.12891702D+05 0.12891702D+05 0.12891702D+05 0.12553921D+01  1  2  5  1  5  1       -1 -.211077216340D+00 0.100000000000D+01
0.216204600136D-03 0.000000000000D+00 0.585780371866D-04 0.259419483946D-02 0.000000000000D+00  5 -1 2 25 24 21 2 0.32836590D-02 0.10200962D+00 0.12891702D+05 0.12891702D+05 0.12891702D+05 0.12553921D+01  1  2  6  1  5  1       -1 0.536688605441D+00 0.100000000000D+01
0.734367699539D-05 0.000000000000D+00 0.000000000000D+00 0.259419483946D-02 0.000000000000D+00  5 21 2 25 24 1 2 0.54458378D-02 0.10200962D+00 0.20795647D+05 0.20795647D+05 0.20795647D+05 0.12319652D+01  1  2 12  3  5  1       -1 0.145598366986D+00 0.100000000000D+01
-.956290604356D-05 0.000000000000D+00 -.451990845734D-05 0.259419483946D-02 0.000000000000D+00  5 21 2 25 24 1 2 0.59583159D-02 0.10200962D+00 0.12891702D+05 0.12891702D+05 0.12891702D+05 0.12553921D+01  1  2  5  3  5  1       -1 -.168085413764D+00 0.100000000000D+01
  </mgrwgt>
  </event>
  <event>
  5     66 0.45252658E-03 0.12029518E+03 0.75467711E-02 0.12335613E+00
       -1 -1    0    0    0  501 0.00000000E+00 0.00000000E+00 0.28469821E+03 0.28469839E+03 0.32000000E+00 0.0000E+00 0.9000E+01
        2 -1    0    0  502    0 0.00000000E+00 0.00000000E+00 -.75704051E+02 0.75704727E+02 0.32000000E+00 0.0000E+00 0.9000E+01
       25  1    1    2    0    0 -.55732512E+02 0.57303261E+01 0.19762039E+03 0.24045326E+03 0.12500000E+03 0.0000E+00 0.9000E+01
       24  1    1    2    0    0 0.66014475E+02 -.21351362E+01 -.16284548E+00 0.10406590E+03 0.80419002E+02 0.0000E+00 0.9000E+01
       21  1    1    2  502  501 -.10281963E+02 -.35951900E+01 0.11536613E+02 0.15883957E+02 0.75000000E+00 0.0000E+00 0.9000E+01
#aMCatNLO 2  0  0  2  2 0.10892390D+02 0.00000000D+00  -5  5  0 0.00000000D+00 0.00000000D+00 0.00000000D+00 0.00000000D+00 0.00000000D+00
  <mgrwgt>
 0.3630754764D+00    2    2    0
 0.141054355841020D+03 0.000000000000000D+00 0.000000000000000D+00 0.141054355841020D+03
 0.141054355841020D+03 0.000000000000000D+00 0.000000000000000D+00 -.141054355841020D+03
 0.157285304525708D+03 -.614251459026117D+02 0.373984054793787D+01 0.729837794531337D+02
 0.124823407156332D+03 0.614251459026117D+02 -.373984054793787D+01 -.729837794531337D+02
 0.000000000000000D+00 -.000000000000000D+00 -.000000000000000D+00 0.000000000000000D+00
 0.148288625183989D+03 0.000000000000000D+00 0.000000000000000D+00 0.148288625183989D+03
 0.145319975970498D+03 0.000000000000000D+00 0.000000000000000D+00 -.145319975970498D+03
 0.155211409498854D+03 -.557325123952089D+02 0.573032612293682D+01 0.729837794531337D+02
 0.127107504778138D+03 0.660144752826192D+02 -.213513616675043D+01 -.729837794531337D+02
 0.112896868774961D+02 -.102819628874103D+02 -.359518995618639D+01 0.296864921349111D+01
-.716983127249D-04 0.000000000000D+00 0.000000000000D+00 0.188849699622D-02 0.000000000000D+00  5 -1 2 25 24 21 2 0.41659475D-01 0.11304009D-01 0.14470930D+05 0.14470930D+05 0.14470930D+05 0.12496043D+01  1  2  8  2  5  2        2 -.385258799635D-01 0.100000000000D+01
0.850462335148D-03 0.000000000000D+00 0.000000000000D+00 0.188849699622D-02 0.131791907462D-03  5 -1 2 25 24 21 2 0.43796069D-01 0.11645853D-01 0.15868407D+05 0.15868407D+05 0.15868407D+05 0.12450457D+01  1  2  1  2  5  2        2 0.401601356375D+00 0.100000000000D+01
  </mgrwgt>
  </event>
  <event>
  4     66 0.45252658E-03 0.69037343E+02 0.75467711E-02 0.12681112E+00
       -1 -1    0    0    0  501 0.00000000E+00 0.00000000E+00 0.54536952E+02 0.54537891E+02 0.32000000E+00 0.0000E+00 0.9000E+01
        2 -1    0    0  501    0 0.00000000E+00 0.00000000E+00 -.19583501E+03 0.19583527E+03 0.32000000E+00 0.0000E+00 0.9000E+01
       25  1    1    2    0    0 -.27373021E+01 -.95784596E+01 -.91947573E+02 0.15549468E+03 0.12500000E+03 0.0000E+00 0.9000E+01
       24  1    1    2    0    0 0.27373021E+01 0.95784596E+01 -.49350483E+02 0.94878480E+02 0.80419002E+02 0.0000E+00 0.9000E+01
#aMCatNLO 1  0  0  1  2 0.55474055D+01 0.00000000D+00  -5  5  0 0.00000000D+00 0.00000000D+00 0.00000000D+00 0.00000000D+00 0.00000000D+00
  <mgrwgt>
 0.5134733367D-01   11    2    0
 0.103345995178950D+03 0.000000000000000D+00 0.000000000000000D+00 0.103345995178950D+03
 0.103345995178950D+03 0.000000000000000D+00 0.000000000000000D+00 -.103345995178950D+03
 0.125499209799827D+03 -.273730207932703D+01 -.957845955005122D+01 -.508054626545414D+01
 0.811927805580731D+02 0.273730207932703D+01 0.957845955005122D+01 0.508054626545414D+01
 0.000000000000000D+00 0.000000000000000D+00 -.000000000000000D+00 0.000000000000000D+00
 0.112942712816955D+03 0.000000000000000D+00 0.000000000000000D+00 0.112942712816955D+03
 0.104188003806148D+03 0.000000000000000D+00 0.000000000000000D+00 -.104188003806148D+03
 0.125471430614875D+03 -.559953799484280D+01 -.780468605597396D+01 -.508054626545414D+01
 0.812949897377269D+02 0.884183598200219D+00 0.107268667883886D+02 0.508054626545414D+01
 0.103642962705012D+02 0.471535439664258D+01 -.292218073241462D+01 0.875470901080628D+01
0.741985871893D-04 0.000000000000D+00 0.000000000000D+00 0.321399793011D-02 0.000000000000D+00  5 -1 2 25 24 21 0 0.83903927D-02 0.30128555D-01 0.10653336D+05 0.10653336D+05 0.10653336D+05 0.12651283D+01  1  2  2  1  5  1       -1 0.107797448456D+00 0.100000000000D+01
-.412213567010D-05 0.000000000000D+00 -.284942111744D-06 0.321399793011D-02 0.000000000000D+00  5 -1 2 25 24 21 2 0.83903927D-02 0.30128555D-01 0.10653336D+05 0.10653336D+05 0.10653336D+05 0.12651283D+01  1  2  3  1  5  1       -1 -.958526803035D-02 0.100000000000D+01
0.513032466099D-05 0.000000000000D+00 0.000000000000D+00 0.321399793011D-02 0.000000000000D+00  5 -1 2 25 24 21 2 0.83903927D-02 0.30128555D-01 0.10653336D+05 0.10653336D+05 0.10653336D+05 0.12651283D+01  1  2 15  1  5  1       -1 0.119296260225D-01 0.100000000000D+01
0.363831674994D-03 0.000000000000D+00 0.000000000000D+00 0.321399793011D-02 0.000000000000D+00  5 -1 2 25 24 21 2 0.92017897D-02 0.30128555D-01 0.11241514D+05 0.11241514D+05 0.11241514D+05 0.12623611D+01  1  2 12  1  5  1       -1 0.734874560960D+00 0.100000000000D+01
-.595848122140D-03 0.000000000000D+00 0.000000000000D+00 0.321399793011D-02 0.000000000000D+00  5 -1 2 25 24 21 2 0.83903927D-02 0.30128555D-01 0.10653336D+05 0.10653336D+05 0.10653336D+05 0.12651283D+01  1  2  4  1  5  1       -1 -.138553517234D+01 0.100000000000D+01
-.943156087331D-03 0.000000000000D+00 -.946786772390D-04 0.321399793011D-02 0.000000000000D+00  5 -1 2 25 24 21 2 0.92370603D-02 0.30128555D-01 0.10653336D+05 0.10653336D+05 0.10653336D+05 0.12651283D+01  1  2  5  1  5  1       -1 -.189775205269D+01 0.100000000000D+01
0.948308388000D-03 0.000000000000D+00 0.942428360828D-04 0.321399793011D-02 0.000000000000D+00  5 -1 2 25 24 21 2 0.83903927D-02 0.30128555D-01 0.10653336D+05 0.10653336D+05 0.10653336D+05 0.12651283D+01  1  2  6  1  5  1       -1 0.220511666813D+01 0.100000000000D+01
0.226593397522D-03 0.000000000000D+00 0.000000000000D+00 0.321399793011D-02 0.891166642848D-03  5 -1 2 25 24 21 2 0.91695252D-02 0.30374027D-01 0.11241514D+05 0.11241514D+05 0.11241514D+05 0.12623611D+01  1  2 11  1  5  1       -1 0.456118753878D+00 0.100000000000D+01
0.555041404519D-05 0.000000000000D+00 0.000000000000D+00 0.321399793011D-02 0.000000000000D+00  5 21 2 25 24 1 2 0.92017897D-02 0.30128555D-01 0.11241514D+05 0.11241514D+05 0.11241514D+05 0.12623611D+01  1  2 12  3  5  1       -1 0.173633959186D+00 0.100000000000D+01
-.145149296903D-04 0.000000000000D+00 -.148619991363D-05 0.321399793011D-02 0.000000000000D+00  5 21 2 25 24 1 2 0.92370603D-02 0.30128555D-01 0.10653336D+05 0.10653336D+05 0.10653336D+05 0.12651283D+01  1  2  5  3  5  1       -1 -.452336256853D+00 0.100000000000D+01
0.343212996996D-05 0.000000000000D+00 0.000000000000D+00 0.321399793011D-02 0.131360271745D-04  5 21 2 25 24 1 2 0.91695252D-02 0.30374027D-01 0.11241514D+05 0.11241514D+05 0.11241514D+05 0.12623611D+01  1  2 11  3  5  1       -1 0.107085066953D+00 0.100000000000D+01
  </mgrwgt>
  </event>
  <event>
  4     66 0.45252658E-03 0.58272189E+02 0.75467711E-02 0.11965076E+00
       -1 -1    0    0    0  501 0.00000000E+00 0.00000000E+00 0.28492023E+03 0.28492041E+03 0.32000000E+00 0.0000E+00 0.9000E+01
        2 -1    0    0  501    0 0.00000000E+00 0.00000000E+00 -.44426992E+02 0.44428144E+02 0.32000000E+00 0.0000E+00 0.9000E+01
       25  1    1    2    0    0 0.73982708E+01 -.43361803E+02 0.15598475E+03 0.20467346E+03 0.12500000E+03 0.0000E+00 0.9000E+01
       24  1    1    2    0    0 -.73982708E+01 0.43361803E+02 0.84508490E+02 0.12467510E+03 0.80419002E+02 0.0000E+00 0.9000E+01
#aMCatNLO 1  0  0  2  1 0.71317367D+02 0.00000000D+00  -5  5  0 0.00000000D+00 0.00000000D+00 0.00000000D+00 0.00000000D+00 0.00000000D+00
  <mgrwgt>
 0.1879114650D+00    7    2    0
 0.112509414067812D+03 0.000000000000000D+00 0.000000000000000D+00 0.112509414067812D+03
 0.112509414067812D+03 0.000000000000000D+00 0.000000000000000D+00 -.112509414067812D+03
 0.132858342469727D+03 0.739827078736456D+01 -.433618030128354D+02 0.955817935782140D+01
 0.921604856658966D+02 -.739827078736456D+01 0.433618030128354D+02 -.955817935782140D+01
 0.000000000000000D+00 0.000000000000000D+00 0.000000000000000D+00 -.000000000000000D+00
 0.135764760927862D+03 0.000000000000000D+00 0.000000000000000D+00 0.135764760927862D+03
 0.189702698274382D+03 0.000000000000000D+00 0.000000000000000D+00 -.189702698274382D+03
 0.145754850359239D+03 -.270502990451171D+02 -.692560389581845D+02 0.955817935782140D+01
 0.902952286663533D+02 -.299576419093496D+02 0.264044175117231D+02 -.955817935782140D+01
 0.894173801766517D+02 0.570079409544666D+02 0.428516214464614D+02 -.539379373465195D+02
0.461090765460D-03 0.000000000000D+00 0.000000000000D+00 0.292823097369D-02 0.000000000000D+00  5 -1 2 25 24 21 0 0.43833985D-01 0.68350243D-02 0.12563896D+05 0.12563896D+05 0.12563896D+05 0.12566935D+01  1  2  2  2  5  2        2 0.269055574360D+00 0.100000000000D+01
-.256157166771D-04 0.000000000000D+00 -.177070994735D-05 0.292823097369D-02 0.000000000000D+00  5 -1 2 25 24 21 2 0.43833985D-01 0.68350243D-02 0.12563896D+05 0.12563896D+05 0.12563896D+05 0.12566935D+01  1  2  3  2  5  2        2 -.236059137992D-01 0.100000000000D+01
0.319443806219D-04 0.000000000000D+00 0.000000000000D+00 0.292823097369D-02 0.000000000000D+00  5 -1 2 25 24 21 2 0.43833985D-01 0.68350243D-02 0.12563896D+05 0.12563896D+05 0.12563896D+05 0.12566935D+01  1  2 15  2  5  2        2 0.294380323157D-01 0.100000000000D+01
0.106497118666D-03 0.000000000000D+00 0.000000000000D+00 0.292823097369D-02 0.000000000000D+00  5 -1 2 25 24 21 2 0.43833985D-01 0.11829751D-01 0.23492673D+05 0.23492673D+05 0.23492673D+05 0.12262038D+01  1  2 12  2  5  2        2 0.482517632334D-01 0.100000000000D+01
-.308462946578D-03 0.000000000000D+00 -.181341586701D-03 0.292823097369D-02 0.000000000000D+00  5 -1 2 25 24 21 2 0.43833985D-01 0.13818400D-01 0.12563896D+05 0.12563896D+05 0.12563896D+05 0.12566935D+01  1  2  5  2  5  2        2 -.120202996226D+00 0.100000000000D+01
0.647379384888D-05 0.000000000000D+00 0.000000000000D+00 0.292823097369D-02 0.000000000000D+00  5 -1 21 25 24 -2 2 0.43833985D-01 0.11829751D-01 0.23492673D+05 0.23492673D+05 0.23492673D+05 0.12262038D+01  1  2 12  4  5  2        2 0.282283926957D-01 0.100000000000D+01
-.125152431590D-04 0.000000000000D+00 -.138071915518D-04 0.292823097369D-02 0.000000000000D+00  5 -1 21 25 24 -2 2 0.43833985D-01 0.13818400D-01 0.12563896D+05 0.12563896D+05 0.12563896D+05 0.12566935D+01  1  2  5  4  5  2        2 -.432533876068D-01 0.100000000000D+01
  </mgrwgt>
  </event>
  <event>
  4     66 0.45252658E-03 0.10618330E+03 0.75467711E-02 0.12367055E+00
       -1 -1    0    0    0  501 0.00000000E+00 0.00000000E+00 0.27483938E+03 0.27483957E+03 0.32000000E+00 0.0000E+00 0.9000E+01
        2 -1    0    0  501    0 0.00000000E+00 0.00000000E+00 -.66394028E+02 0.66394799E+02 0.32000000E+00 0.0000E+00 0.9000E+01
       25  1    1    2    0    0 0.17165777E+02 0.19975207E+02 0.13181828E+02 0.12842287E+03 0.12500000E+03 0.0000E+00 0.9000E+01
       24  1    1    2    0    0 -.17165777E+02 -.19975207E+02 0.19526352E+03 0.21281150E+03 0.80419002E+02 0.0000E+00 0.9000E+01
#aMCatNLO 1  0  0  1  1 0.32530662D+02 0.00000000D+00  -5  5  0 0.00000000D+00 0.00000000D+00 0.00000000D+00 0.00000000D+00 0.00000000D+00
  <mgrwgt>
 0.2290903517D+00    4    2    0
 0.135084628034963D+03 0.000000000000000D+00 0.000000000000000D+00 0.135084628034963D+03
 0.135084628034963D+03 0.000000000000000D+00 0.000000000000000D+00 -.135084628034963D+03
 0.152032862965253D+03 0.171657772189125D+02 0.199752073951395D+02 -.824337224890591D+02
 0.118136393104673D+03 -.171657772189125D+02 -.199752073951395D+02 0.824337224890591D+02
 0.000000000000000D+00 0.000000000000000D+00 0.000000000000000D+00 -.000000000000000D+00
 0.145990824294648D+03 0.000000000000000D+00 0.000000000000000D+00 0.145990824294648D+03
 0.162701660605051D+03 0.000000000000000D+00 0.000000000000000D+00 -.162701660605051D+03
 0.150201360234665D+03 0.984979925600616D+00 0.117966023704579D+02 -.824337224890591D+02
 0.121919331597731D+03 -.300177070215125D+02 -.264712320195778D+02 0.824337224890591D+02
 0.365717930673027D+02 0.290327270959119D+02 0.146746296491199D+02 -.167108363104030D+02
0.988648215567D-03 0.000000000000D+00 0.000000000000D+00 0.170532134916D-02 0.000000000000D+00  5 -1 2 25 24 21 0 0.42283055D-01 0.10214539D-01 0.11274893D+05 0.11274893D+05 0.11274893D+05 0.12622090D+01  1  2  2  1  5  1       -1 0.371985531817D+00 0.100000000000D+01
-.510547497448D-04 0.000000000000D+00 -.379666946483D-05 0.170532134916D-02 0.000000000000D+00  5 -1 2 25 24 21 2 0.42283055D-01 0.10214539D-01 0.11274893D+05 0.11274893D+05 0.11274893D+05 0.12622090D+01  1  2  3  1  5  1       -1 -.306043343661D-01 0.100000000000D+01
0.675380072255D-04 0.000000000000D+00 0.000000000000D+00 0.170532134916D-02 0.000000000000D+00  5 -1 2 25 24 21 2 0.42283055D-01 0.10214539D-01 0.11274893D+05 0.11274893D+05 0.11274893D+05 0.12622090D+01  1  2 15  1  5  1       -1 0.404850825022D-01 0.100000000000D+01
-.254863794525D-03 0.000000000000D+00 0.000000000000D+00 0.170532134916D-02 0.000000000000D+00  5 -1 2 25 24 21 2 0.42283055D-01 0.10214539D-01 0.11274893D+05 0.11274893D+05 0.11274893D+05 0.12622090D+01  1  2  4  1  5  1       -1 -.152775928282D+00 0.100000000000D+01
  </mgrwgt>
  </event>
  <event>
  4     66 0.45252658E-03 0.94126354E+02 0.75467711E-02 0.11567369E+00
       -1 -1    0    0    0  501 0.00000000E+00 0.00000000E+00 0.94210685E+02 0.94211229E+02 0.32000000E+00 0.0000E+00 0.9000E+01
        2 -1    0    0  501    0 0.00000000E+00 0.00000000E+00 -.28170263E+03 0.28170281E+03 0.32000000E+00 0.0000E+00 0.9000E+01
       25  1    1    2    0    0 0.10114331E+03 0.51996422E+02 -.41249257E+02 0.17395430E+03 0.12500000E+03 0.0000E+00 0.9000E+01
       24  1    1    2    0    0 -.10114331E+03 -.51996422E+02 -.14624269E+03 0.20195974E+03 0.80419002E+02 0.0000E+00 0.9000E+01
#aMCatNLO 1  0  0  1  2 0.68059995D+02 0.00000000D+00  -5  5  0 0.00000000D+00 0.00000000D+00 0.00000000D+00 0.00000000D+00 0.00000000D+00
  <mgrwgt>
 0.3234540975D+00    9    2    0
 0.162909589640485D+03 0.000000000000000D+00 0.000000000000000D+00 0.162909589640485D+03
 0.162909589640485D+03 0.000000000000000D+00 0.000000000000000D+00 -.162909589640485D+03
 0.176963065660281D+03 0.101143311071800D+03 0.519964223142207D+02 0.525102780400105D+02
 0.148856113620689D+03 -.101143311071800D+03 -.519964223142207D+02 -.525102780400105D+02
 0.000000000000000D+00 0.000000000000000D+00 0.000000000000000D+00 0.000000000000000D+00
 0.253182544060054D+03 0.000000000000000D+00 0.000000000000000D+00 0.253182544060054D+03
 0.179774032891406D+03 0.000000000000000D+00 0.000000000000000D+00 -.179774032891406D+03
 0.157140816706311D+03 0.690419283745148D+02 0.392952809077081D+02 0.525102780400105D+02
 0.175710952898711D+03 -.132328377044312D+03 -.643350164621231D+02 -.525102780400105D+02
 0.100104807346438D+03 0.632864486697973D+02 0.250397355544150D+02 0.734085111686476D+02
0.676470223035D-03 0.000000000000D+00 0.000000000000D+00 0.209635710551D-02 0.000000000000D+00  5 -1 2 25 24 21 0 0.14494007D-01 0.43338922D-01 0.23759092D+05 0.23759092D+05 0.23759092D+05 0.12256752D+01  1  2  2  1  5  1       -1 0.296758457100D+00 0.100000000000D+01
-.374417657520D-04 0.000000000000D+00 -.259782377515D-05 0.209635710551D-02 0.000000000000D+00  5 -1 2 25 24 21 2 0.14494007D-01 0.43338922D-01 0.23759092D+05 0.23759092D+05 0.23759092D+05 0.12256752D+01  1  2  3  1  5  1       -1 -.246752507538D-01 0.100000000000D+01
0.466849835266D-04 0.000000000000D+00 0.000000000000D+00 0.209635710551D-02 0.000000000000D+00  5 -1 2 25 24 21 2 0.14494007D-01 0.43338922D-01 0.23759092D+05 0.23759092D+05 0.23759092D+05 0.12256752D+01  1  2 15  1  5  1       -1 0.307668095193D-01 0.100000000000D+01
0.451341670324D-03 0.000000000000D+00 0.000000000000D+00 0.209635710551D-02 0.000000000000D+00  5 -1 2 25 24 21 2 0.22936767D-01 0.43338922D-01 0.36835018D+05 0.36835018D+05 0.36835018D+05 0.12056527D+01  1  2 12  1  5  1       -1 0.139093011068D+00 0.100000000000D+01
-.590527352107D-03 0.000000000000D+00 0.000000000000D+00 0.209635710551D-02 0.000000000000D+00  5 -1 2 25 24 21 2 0.14494007D-01 0.43338922D-01 0.23759092D+05 0.23759092D+05 0.23759092D+05 0.12256752D+01  1  2  4  1  5  1       -1 -.389175301901D+00 0.100000000000D+01
-.680240233721D-03 0.000000000000D+00 -.217654016510D-03 0.209635710551D-02 0.000000000000D+00  5 -1 2 25 24 21 2 0.24619038D-01 0.43338922D-01 0.23759092D+05 0.23759092D+05 0.23759092D+05 0.12256752D+01  1  2  5  1  5  1       -1 -.191685756673D+00 0.100000000000D+01
0.719528924318D-03 0.000000000000D+00 0.190315369510D-03 0.209635710551D-02 0.000000000000D+00  5 -1 2 25 24 21 2 0.14494007D-01 0.43338922D-01 0.23759092D+05 0.23759092D+05 0.23759092D+05 0.12256752D+01  1  2  6  1  5  1       -1 0.474191221369D+00 0.100000000000D+01
0.238104033733D-04 0.000000000000D+00 0.000000000000D+00 0.209635710551D-02 0.000000000000D+00  5 21 2 25 24 1 2 0.22936767D-01 0.43338922D-01 0.36835018D+05 0.36835018D+05 0.36835018D+05 0.12056527D+01  1  2 12  3  5  1       -1 0.895898292376D-01 0.100000000000D+01
-.297239670577D-04 0.000000000000D+00 -.128564007077D-04 0.209635710551D-02 0.000000000000D+00  5 21 2 25 24 1 2 0.24619038D-01 0.43338922D-01 0.23759092D+05 0.23759092D+05 0.23759092D+05 0.12256752D+01  1  2  5  3  5  1       -1 -.101408921454D+00 0.100000000000D+01
  </mgrwgt>
  </event>
  <event>
  4     66 0.45252658E-03 0.13265236E+03 0.75467711E-02 0.10240039E+00
       -1 -1    0    0    0  501 0.00000000E+00 0.00000000E+00 0.31935239E+02 0.31936842E+02 0.32000000E+00 0.0000E+00 0.9000E+01
        2 -1    0    0  501    0 0.00000000E+00 0.00000000E+00 -.58556294E+03 0.58556303E+03 0.32000000E+00 0.0000E+00 0.9000E+01
       25  1    1    2    0    0 -.80815298E+02 -.17812943E+02 -.38511978E+03 0.41326826E+03 0.12500000E+03 0.0000E+00 0.9000E+01
       24  1    1    2    0    0 0.80815298E+02 0.17812943E+02 -.16850793E+03 0.20423161E+03 0.80419002E+02 0.0000E+00 0.9000E+01
#aMCatNLO 1  0  0  1  2 0.42462359D+03 0.00000000D+00  -5  5  0 0.00000000D+00 0.00000000D+00 0.00000000D+00 0.00000000D+00 0.00000000D+00
  <mgrwgt>
 0.5194968367D+00    3    2    0
 0.136750189340108D+03 0.000000000000000D+00 0.000000000000000D+00 0.136750189340108D+03
 0.136750189340108D+03 0.000000000000000D+00 0.000000000000000D+00 -.136750189340108D+03
 0.153492001709474D+03 -.808152981558428D+02 -.178129425624106D+02 -.329602980877251D+02
 0.120008376970742D+03 0.808152981558428D+02 0.178129425624106D+02 0.329602980877251D+02
 0.000000000000000D+00 0.000000000000000D+00 -.000000000000000D+00 -.000000000000000D+00
 0.333080288452682D+03 0.000000000000000D+00 0.000000000000000D+00 0.333080288452682D+03
 0.812221173587709D+03 0.000000000000000D+00 0.000000000000000D+00 -.812221173587709D+03
 0.261182723025444D+03 -.904666118659374D+02 0.208136555401621D+03 -.329602980877251D+02
 0.243899103300427D+03 0.723455626160357D+02 0.216100196566591D+03 0.329602980877251D+02
 0.640219635714520D+03 0.181210492499017D+02 -.424236751968212D+03 -.479140885135027D+03
0.499987716012D-03 0.000000000000D+00 0.000000000000D+00 0.240421704061D-02 0.000000000000D+00  5 -1 2 25 24 21 0 0.49132437D-02 0.90086737D-01 0.17596649D+05 0.17596649D+05 0.17596649D+05 0.12399945D+01  1  2  2  1  5  1       -1 0.508885533285D+00 0.100000000000D+01
-.277458345596D-04 0.000000000000D+00 -.192008447928D-05 0.240421704061D-02 0.000000000000D+00  5 -1 2 25 24 21 2 0.49132437D-02 0.90086737D-01 0.17596649D+05 0.17596649D+05 0.17596649D+05 0.12399945D+01  1  2  3  1  5  1       -1 -.434208252657D-01 0.100000000000D+01
0.345264396693D-04 0.000000000000D+00 0.000000000000D+00 0.240421704061D-02 0.000000000000D+00  5 -1 2 25 24 21 2 0.49132437D-02 0.90086737D-01 0.17596649D+05 0.17596649D+05 0.17596649D+05 0.12399945D+01  1  2 15  1  5  1       -1 0.540321287042D-01 0.100000000000D+01
  </mgrwgt>
  </event>
  <event>
  4     66 0.45252658E-03 0.13038912E+03 0.75467711E-02 0.12264974E+00
       -1 -1    0    0    0  501 0.00000000E+00 0.00000000E+00 0.19609406E+03 0.19609433E+03 0.32000000E+00 0.0000E+00 0.9000E+01
        2 -1    0    0  501    0 0.00000000E+00 0.00000000E+00 -.88040801E+02 0.88041382E+02 0.32000000E+00 0.0000E+00 0.9000E+01
       25  1    1    2    0    0 0.22508948E+02 -.75874006E+02 0.78571073E+02 0.16751696E+03 0.12500000E+03 0.0000E+00 0.9000E+01
       24  1    1    2    0    0 -.22508948E+02 0.75874006E+02 0.29482191E+02 0.11661875E+03 0.80419002E+02 0.0000E+00 0.9000E+01
#aMCatNLO 1  0  0  1  2 0.51657364D+00 0.00000000D+00  -5  5  0 0.00000000D+00 0.00000000D+00 0.00000000D+00 0.00000000D+00 0.00000000D+00
  <mgrwgt>
 0.1994448693D+00    6    2    0
 0.131394056984179D+03 0.000000000000000D+00 0.000000000000000D+00 0.131394056984179D+03
 0.131394056984179D+03 0.000000000000000D+00 0.000000000000000D+00 -.131394056984179D+03
 0.148818330683887D+03 0.225089477837013D+02 -.758740059318592D+02 0.160741420007879D+02
 0.113969783284471D+03 -.225089477837013D+02 0.758740059318592D+02 -.160741420007879D+02
 0.000000000000000D+00 -.000000000000000D+00 -.000000000000000D+00 -.000000000000000D+00
 0.131552073774389D+03 0.000000000000000D+00 0.000000000000000D+00 0.131552073774389D+03
 0.131817173699784D+03 0.000000000000000D+00 0.000000000000000D+00 -.131817173699784D+03
 0.148679195759566D+03 0.225587951723956D+02 -.755858847339885D+02 0.160741420007879D+02
 0.114109425933561D+03 -.224707318256364D+02 0.760948966927166D+02 -.160741420007879D+02
 0.580625781046042D+00 -.880633467592243D-01 -.509011958728122D+00 -.265099925395409D+00
0.350427663119D-03 0.000000000000D+00 0.000000000000D+00 0.256749246645D-02 0.000000000000D+00  5 -1 2 25 24 21 0 0.30168382D-01 0.13544803D-01 0.17001322D+05 0.17001322D+05 0.17001322D+05 0.12416691D+01  1  2  2  1  5  1       -1 0.169890431514D+00 0.100000000000D+01
-.194668082082D-04 0.000000000000D+00 -.134573449610D-05 0.256749246645D-02 0.000000000000D+00  5 -1 2 25 24 21 2 0.30168382D-01 0.13544803D-01 0.17001322D+05 0.17001322D+05 0.17001322D+05 0.12416691D+01  1  2  3  1  5  1       -1 -.145504709840D-01 0.100000000000D+01
0.241640622463D-04 0.000000000000D+00 0.000000000000D+00 0.256749246645D-02 0.000000000000D+00  5 -1 2 25 24 21 2 0.30168382D-01 0.13544803D-01 0.17001322D+05 0.17001322D+05 0.17001322D+05 0.12416691D+01  1  2 15  1  5  1       -1 0.180614347669D-01 0.100000000000D+01
-.438221299233D-02 0.000000000000D+00 0.000000000000D+00 0.256749246645D-02 0.000000000000D+00  5 -1 2 25 24 21 2 0.30168382D-01 0.13544803D-01 0.17001322D+05 0.17001322D+05 0.17001322D+05 0.12416691D+01  1  2  4  1  5  1       -1 -.327548626919D+01 0.100000000000D+01
0.438223665630D-02 0.000000000000D+00 0.000000000000D+00 0.256749246645D-02 0.790901266552D-01  5 -1 2 25 24 21 2 0.30204663D-01 0.13588421D-01 0.17068888D+05 0.17068888D+05 0.17068888D+05 0.12414758D+01  1  2 11  1  5  1       -1 0.325587868122D+01 0.100000000000D+01
0.530843549173D-05 0.000000000000D+00 0.000000000000D+00 0.256749246645D-02 0.178243045742D-04  5 21 2 25 24 1 2 0.30204663D-01 0.13588421D-01 0.17068888D+05 0.17068888D+05 0.17068888D+05 0.12414758D+01  1  2 11  3  5  1       -1 0.456510619769D-01 0.100000000000D+01
  </mgrwgt>
  </event>
  <event>
  4     66 0.45252658E-03 0.16324410E+03 0.75467711E-02 0.11283577E+00
       -1 -1    0    0    0  501 0.00000000E+00 0.00000000E+00 0.81168521E+01 0.81231575E+01 0.32000000E+00 0.0000E+00 0.9000E+01
        2 -1    0    0  501    0 0.00000000E+00 0.00000000E+00 -.38938129E+04 0.38938129E+04 0.32000000E+00 0.0000E+00 0.9000E+01
       25  1    1    2    0    0 0.12520668E+03 0.11068320E+02 -.28545610E+04 0.28600599E+04 0.12500000E+03 0.0000E+00 0.9000E+01
       24  1    1    2    0    0 -.12520668E+03 -.11068320E+02 -.10311351E+04 0.10418762E+04 0.80419002E+02 0.0000E+00 0.9000E+01
#aMCatNLO 1  0  0  1  2 0.11105441D+03 0.00000000D+00  -5  5  0 0.00000000D+00 0.00000000D+00 0.00000000D+00 0.00000000D+00 0.00000000D+00
  <mgrwgt>
 0.3849573902D+00    4    2    0
 0.177814034100331D+03 0.000000000000000D+00 0.000000000000000D+00 0.177814034100331D+03
 0.177814034100331D+03 0.000000000000000D+00 0.000000000000000D+00 -.177814034100331D+03
 0.190689542060043D+03 0.125206677146885D+03 0.110683196233501D+02 -.702729090732703D+02
 0.164938526140619D+03 -.125206677146885D+03 -.110683196233501D+02 0.702729090732703D+02
 0.000000000000000D+00 -.000000000000000D+00 -.000000000000000D+00 -.000000000000000D+00
 0.221237460368458D+03 0.000000000000000D+00 0.000000000000000D+00 0.221237460368458D+03
 0.274488809715394D+03 0.000000000000000D+00 0.000000000000000D+00 -.274488809715394D+03
 0.216954733703292D+03 0.147395434824136D+03 0.691423207569007D+02 -.702729090732703D+02
 0.155609899066354D+03 -.107758691847880D+03 0.345977934944388D+02 0.702729090732703D+02
 0.123161637314207D+03 -.396367429762561D+02 -.103740114251339D+03 -.532513493469359D+02
0.492639215699D-02 0.000000000000D+00 0.000000000000D+00 0.191448022566D-02 0.000000000000D+00  5 -1 2 25 24 21 0 0.12492325D-02 0.59904863D+00 0.26648636D+05 0.26648636D+05 0.26648636D+05 0.12203352D+01  1  2  2  1  5  1       -1 0.424870567201D+00 0.100000000000D+01
-.271256332352D-03 0.000000000000D+00 -.189186430317D-04 0.191448022566D-02 0.000000000000D+00  5 -1 2 25 24 21 2 0.12492325D-02 0.59904863D+00 0.26648636D+05 0.26648636D+05 0.26648636D+05 0.12203352D+01  1  2  3  1  5  1       -1 -.348390138293D-01 0.100000000000D+01
0.337203940944D-03 0.000000000000D+00 0.000000000000D+00 0.191448022566D-02 0.000000000000D+00  5 -1 2 25 24 21 2 0.12492325D-02 0.59904863D+00 0.26648636D+05 0.26648636D+05 0.26648636D+05 0.12203352D+01  1  2 15  1  5  1       -1 0.433090452118D-01 0.100000000000D+01
-.376711342047D-03 0.000000000000D+00 0.000000000000D+00 0.191448022566D-02 0.000000000000D+00  5 -1 2 25 24 21 2 0.12492325D-02 0.59904863D+00 0.26648636D+05 0.26648636D+05 0.26648636D+05 0.12203352D+01  1  2  4  1  5  1       -1 -.483832083897D-01 0.100000000000D+01
  </mgrwgt>
  </event>
  <event>
  5     66 0.45252658E-03 0.12572828E+03 0.75467711E-02 0.11612605E+00
       -1 -1    0    0    0  501 0.00000000E+00 0.00000000E+00 0.65031848E+03 0.65031856E+03 0.32000000E+00 0.0000E+00 0.9000E+01
        2 -1    0    0  502    0 0.00000000E+00 0.00000000E+00 -.12687497E+03 0.12687537E+03 0.32000000E+00 0.0000E+00 0.9000E+01
       25  1    1    2    0    0 -.13305562E+03 -.66608154E+01 0.16100722E+03 0.24350870E+03 0.12500000E+03 0.0000E+00 0.9000E+01
       24  1    1    2    0    0 0.26753714E+02 0.36149044E+01 0.40891699E+03 0.41762322E+03 0.80419002E+02 0.0000E+00 0.9000E+01
       21  1    1    2  502  501 0.10630190E+03 0.30459110E+01 -.46480700E+02 0.11606201E+03 0.75000000E+00 0.0000E+00 0.9000E+01
#aMCatNLO 2  0  0  2  1 0.10634553D+03 0.00000000D+00  -5  5  0 0.00000000D+00 0.00000000D+00 0.00000000D+00 0.00000000D+00 0.00000000D+00
  <mgrwgt>
 0.2189555082D+00    2    2    0
 0.158880802133833D+03 0.000000000000000D+00 0.000000000000000D+00 0.158880802133833D+03
 0.158880802133833D+03 0.000000000000000D+00 0.000000000000000D+00 -.158880802133833D+03
 0.173290636302966D+03 -.711981886108876D+02 -.488838973692818D+01 -.964964570054004D+02
 0.144470967964700D+03 0.711981886108876D+02 0.488838973692818D+01 0.964964570054004D+02
 0.000000000000000D+00 0.000000000000000D+00 0.000000000000000D+00 -.000000000000000D+00
 0.177011725743789D+03 0.000000000000000D+00 0.000000000000000D+00 0.177011725743789D+03
 0.466121205680615D+03 0.000000000000000D+00 0.000000000000000D+00 -.466121205680615D+03
 0.206602831896540D+03 -.133055617960247D+03 -.666081543742935D+01 -.964964570054004D+02
 0.128481947765865D+03 0.267537137413217D+02 0.361490439599698D+01 0.964964570054004D+02
 0.308048151761999D+03 0.106301904218926D+03 0.304591104143237D+01 -.289109479936826D+03
-.147952752853D-03 0.000000000000D+00 0.000000000000D+00 0.154627489800D-02 0.000000000000D+00  5 -1 2 25 24 21 2 0.89801010D-01 0.19074575D-01 0.34942502D+05 0.34942502D+05 0.34942502D+05 0.12080079D+01  1  2 13  2  5  2        2 -.925723582295D-02 0.100000000000D+01
0.473676336529D-02 0.000000000000D+00 0.000000000000D+00 0.154627489800D-02 0.213107842817D-05  5 -1 2 25 24 21 2 0.10004879D+00 0.19519215D-01 0.34942502D+05 0.34942502D+05 0.34942502D+05 0.12080079D+01  1  2  1  2  5  2        2 0.228212744038D+00 0.100000000000D+01
  </mgrwgt>
  </event>
  <event>
  4     66 0.45252658E-03 0.15111477E+03 0.75467711E-02 0.11571158E+00
       -1 -1    0    0    0  501 0.00000000E+00 0.00000000E+00 0.11697820E+02 0.11702196E+02 0.32000000E+00 0.0000E+00 0.9000E+01
        2 -1    0    0  501    0 0.00000000E+00 0.00000000E+00 -.22686830E+04 0.22686830E+04 0.32000000E+00 0.0000E+00 0.9000E+01
       25  1    1    2    0    0 0.10192851E+03 -.40369288E+02 -.16501352E+04 0.16584903E+04 0.12500000E+03 0.0000E+00 0.9000E+01
       24  1    1    2    0    0 -.10192851E+03 0.40369288E+02 -.60685003E+03 0.62189491E+03 0.80419002E+02 0.0000E+00 0.9000E+01
#aMCatNLO 1  0  0  1  1 0.72249980D+02 0.00000000D+00  -5  5  0 0.00000000D+00 0.00000000D+00 0.00000000D+00 0.00000000D+00 0.00000000D+00
  <mgrwgt>
 0.5713285669D+00    3    2    0
 0.162922251441323D+03 0.000000000000000D+00 0.000000000000000D+00 0.162922251441323D+03
 0.162922251441323D+03 0.000000000000000D+00 0.000000000000000D+00 -.162922251441323D+03
 0.176974635269519D+03 0.101928506831141D+03 -.403692883617062D+02 -.606293788614299D+02
 0.148869867613127D+03 -.101928506831141D+03 0.403692883617062D+02 0.606293788614299D+02
 0.000000000000000D+00 0.000000000000000D+00 0.000000000000000D+00 -.000000000000000D+00
 0.172612359931073D+03 0.000000000000000D+00 0.000000000000000D+00 0.172612359931073D+03
 0.394505881483009D+03 0.000000000000000D+00 0.000000000000000D+00 -.394505881483009D+03
 0.181209609655793D+03 0.873866096636658D+02 -.768087332402516D+02 -.606293788614299D+02
 0.152548835455050D+03 -.114165783725565D+03 0.970481785126892D+01 0.606293788614299D+02
 0.233359796303239D+03 0.267791740618990D+02 0.671039153889827D+02 -.221893521551937D+03
0.115056246098D-02 0.000000000000D+00 0.000000000000D+00 0.202189072986D-02 0.000000000000D+00  5 -1 2 25 24 21 0 0.18000029D-02 0.34902849D+00 0.22835674D+05 0.22835674D+05 0.22835674D+05 0.12275365D+01  1  2  2  1  5  1       -1 0.559847402517D+00 0.100000000000D+01
-.634802493172D-04 0.000000000000D+00 -.441846280023D-05 0.202189072986D-02 0.000000000000D+00  5 -1 2 25 24 21 2 0.18000029D-02 0.34902849D+00 0.22835674D+05 0.22835674D+05 0.22835674D+05 0.12275365D+01  1  2  3  1  5  1       -1 -.465443440897D-01 0.100000000000D+01
0.791390192273D-04 0.000000000000D+00 0.000000000000D+00 0.202189072986D-02 0.000000000000D+00  5 -1 2 25 24 21 2 0.18000029D-02 0.34902849D+00 0.22835674D+05 0.22835674D+05 0.22835674D+05 0.12275365D+01  1  2 15  1  5  1       -1 0.580255084291D-01 0.100000000000D+01
  </mgrwgt>
  </event>
  <event>
  4     66 0.45252658E-03 0.73879379E+02 0.75467711E-02 0.11310750E+00
       -1 -1    0    0    0  501 0.00000000E+00 0.00000000E+00 0.49174100E+02 0.49175142E+02 0.32000000E+00 0.0000E+00 0.9000E+01
        2 -1    0    0  501    0 0.00000000E+00 0.00000000E+00 -.49143219E+03 0.49143229E+03 0.32000000E+00 0.0000E+00 0.9000E+01
       25  1    1    2    0    0 0.10915296E+03 0.17232745E+02 -.18374440E+03 0.24819013E+03 0.12500000E+03 0.0000E+00 0.9000E+01
       24  1    1    2    0    0 -.10915296E+03 -.17232745E+02 -.25851369E+03 0.29241731E+03 0.80419002E+02 0.0000E+00 0.9000E+01
#aMCatNLO 1  0  0  1  2 0.12091202D+03 0.00000000D+00  -5  5  0 0.00000000D+00 0.00000000D+00 0.00000000D+00 0.00000000D+00 0.00000000D+00
  <mgrwgt>
 0.2898108921D+00    7    2    0
 0.155454319648784D+03 0.000000000000000D+00 0.000000000000000D+00 0.155454319648784D+03
 0.155454319648784D+03 0.000000000000000D+00 0.000000000000000D+00 -.155454319648784D+03
 0.170181771523906D+03 0.109152961707794D+03 0.172327449421542D+02 0.335484546766373D+02
 0.140726867773661D+03 -.109152961707794D+03 -.172327449421542D+02 -.335484546766373D+02
 0.000000000000000D+00 0.000000000000000D+00 -.000000000000000D+00 0.000000000000000D+00
 0.325683314514587D+03 0.000000000000000D+00 0.000000000000000D+00 0.325683314514587D+03
 0.189799517105314D+03 0.000000000000000D+00 0.000000000000000D+00 -.189799517105314D+03
 0.183167608646941D+03 0.996838186428598D+02 0.828432878815535D+02 0.335484546766373D+02
 0.150424806260068D+03 -.116955315439638D+03 0.368288170219046D+02 -.335484546766373D+02
 0.181890416712892D+03 0.172714967967781D+02 -.119672104903458D+03 0.135883797409273D+03
0.560053076255D-03 0.000000000000D+00 0.000000000000D+00 0.226676357020D-02 0.000000000000D+00  5 -1 2 25 24 21 0 0.75653343D-02 0.75605040D-01 0.23029846D+05 0.23029846D+05 0.23029846D+05 0.12271382D+01  1  2  2  1  5  1       -1 0.366740020237D+00 0.100000000000D+01
-.310921263412D-04 0.000000000000D+00 -.215075127818D-05 0.226676357020D-02 0.000000000000D+00  5 -1 2 25 24 21 2 0.75653343D-02 0.75605040D-01 0.23029846D+05 0.23029846D+05 0.23029846D+05 0.12271382D+01  1  2  3  1  5  1       -1 -.306596011955D-01 0.100000000000D+01
0.387004076703D-04 0.000000000000D+00 0.000000000000D+00 0.226676357020D-02 0.000000000000D+00  5 -1 2 25 24 21 2 0.75653343D-02 0.75605040D-01 0.23029846D+05 0.23029846D+05 0.23029846D+05 0.12271382D+01  1  2 15  1  5  1       -1 0.381620430926D-01 0.100000000000D+01
0.277283643238D-04 0.000000000000D+00 0.000000000000D+00 0.226676357020D-02 0.000000000000D+00  5 -1 2 25 24 21 2 0.15863896D-01 0.75605040D-01 0.50090273D+05 0.50090273D+05 0.50090273D+05 0.11922042D+01  1  2 12  1  5  1       -1 0.832266889577D-02 0.100000000000D+01
-.241297343775D-03 0.000000000000D+00 -.157846064327D-03 0.226676357020D-02 0.000000000000D+00  5 -1 2 25 24 21 2 0.19167891D-01 0.75605040D-01 0.23029846D+05 0.23029846D+05 0.23029846D+05 0.12271382D+01  1  2  5  1  5  1       -1 -.562951086687D-01 0.100000000000D+01
0.222049914785D-05 0.000000000000D+00 0.000000000000D+00 0.226676357020D-02 0.000000000000D+00  5 21 2 25 24 1 2 0.15863896D-01 0.75605040D-01 0.50090273D+05 0.50090273D+05 0.50090273D+05 0.11922042D+01  1  2 12  3  5  1       -1 0.884916351868D-02 0.100000000000D+01
-.150654850120D-04 0.000000000000D+00 -.161879208451D-04 0.226676357020D-02 0.000000000000D+00  5 21 2 25 24 1 2 0.19167891D-01 0.75605040D-01 0.23029846D+05 0.23029846D+05 0.23029846D+05 0.12271382D+01  1  2  5  3  5  1       -1 -.453082937745D-01 0.100000000000D+01
  </mgrwgt>
  </event>
  <event>
  4     66 0.45252658E-03 0.77771754E+02 0.75467711E-02 0.12174637E+00
       -1 -1    0    0    0  501 0.00000000E+00 0.00000000E+00 0.20207577E+02 0.20210111E+02 0.32000000E+00 0.0000E+00 0.9000E+01
        2 -1    0    0  501    0 0.00000000E+00 0.00000000E+00 -.87909692E+03 0.87909698E+03 0.32000000E+00 0.0000E+00 0.9000E+01
       25  1    1    2    0    0 0.17892955E+02 -.64384186E+02 -.65511123E+03 0.67026950E+03 0.12500000E+03 0.0000E+00 0.9000E+01
       24  1    1    2    0    0 -.17892955E+02 0.64384186E+02 -.20377811E+03 0.22903759E+03 0.80419002E+02 0.0000E+00 0.9000E+01
#aMCatNLO 1  0  0  1  2 0.26097568D+02 0.00000000D+00  -5  5  0 0.00000000D+00 0.00000000D+00 0.00000000D+00 0.00000000D+00 0.00000000D+00
  <mgrwgt>
 0.3383917079D+00    9    2    0
 0.133287600036106D+03 0.000000000000000D+00 0.000000000000000D+00 0.133287600036106D+03
 0.133287600036106D+03 0.000000000000000D+00 0.000000000000000D+00 -.133287600036106D+03
 0.150464336737698D+03 0.178929554252492D+02 -.643841856696871D+02 -.504879729412543D+02
 0.116110863334513D+03 -.178929554252492D+02 0.643841856696871D+02 0.504879729412543D+02
 0.000000000000000D+00 0.000000000000000D+00 -.000000000000000D+00 0.000000000000000D+00
 0.173665155974888D+03 0.000000000000000D+00 0.000000000000000D+00 0.173665155974888D+03
 0.138209393432848D+03 0.000000000000000D+00 0.000000000000000D+00 -.138209393432848D+03
 0.147310718532859D+03 0.429658355624623D+01 -.592279642795068D+02 -.504879729412543D+02
 0.120538904146606D+03 -.286983542806466D+02 0.684819721412860D+02 0.504879729412543D+02
 0.440249267282709D+02 0.244017707244004D+02 -.925400786177918D+01 0.354557625420403D+02
0.247710563526D-03 0.000000000000D+00 0.000000000000D+00 0.224825385567D-02 0.000000000000D+00  5 -1 2 25 24 21 0 0.31090574D-02 0.13524588D+00 0.15165976D+05 0.15165976D+05 0.15165976D+05 0.12472781D+01  1  2  2  1  5  1       -1 0.301385406772D+00 0.100000000000D+01
-.136569962402D-04 0.000000000000D+00 -.951273787630D-06 0.224825385567D-02 0.000000000000D+00  5 -1 2 25 24 21 2 0.31090574D-02 0.13524588D+00 0.15165976D+05 0.15165976D+05 0.15165976D+05 0.12472781D+01  1  2  3  1  5  1       -1 -.258499353679D-01 0.100000000000D+01
0.171251938229D-04 0.000000000000D+00 0.000000000000D+00 0.224825385567D-02 0.000000000000D+00  5 -1 2 25 24 21 2 0.31090574D-02 0.13524588D+00 0.15165976D+05 0.15165976D+05 0.15165976D+05 0.12472781D+01  1  2 15  1  5  1       -1 0.324145328664D-01 0.100000000000D+01
0.497763362912D-03 0.000000000000D+00 0.000000000000D+00 0.224825385567D-02 0.000000000000D+00  5 -1 2 25 24 21 2 0.40957175D-02 0.13524588D+00 0.18761067D+05 0.18761067D+05 0.18761067D+05 0.12368953D+01  1  2 12  1  5  1       -1 0.623184604543D+00 0.100000000000D+01
-.506036311935D-03 0.000000000000D+00 0.000000000000D+00 0.224825385567D-02 0.000000000000D+00  5 -1 2 25 24 21 2 0.31090574D-02 0.13524588D+00 0.15165976D+05 0.15165976D+05 0.15165976D+05 0.12472781D+01  1  2  4  1  5  1       -1 -.957824526508D+00 0.100000000000D+01
-.664406713072D-03 0.000000000000D+00 -.116730724772D-03 0.224825385567D-02 0.000000000000D+00  5 -1 2 25 24 21 2 0.41996198D-02 0.13524588D+00 0.15165976D+05 0.15165976D+05 0.15165976D+05 0.12472781D+01  1  2  5  1  5  1       -1 -.810740744928D+00 0.100000000000D+01
0.673897403986D-03 0.000000000000D+00 0.111645910004D-03 0.224825385567D-02 0.000000000000D+00  5 -1 2 25 24 21 2 0.31090574D-02 0.13524588D+00 0.15165976D+05 0.15165976D+05 0.15165976D+05 0.12472781D+01  1  2  6  1  5  1       -1 0.127555166826D+01 0.100000000000D+01
0.180943273797D-04 0.000000000000D+00 0.000000000000D+00 0.224825385567D-02 0.000000000000D+00  5 21 2 25 24 1 2 0.40957175D-02 0.13524588D+00 0.18761067D+05 0.18761067D+05 0.18761067D+05 0.12368953D+01  1  2 12  3  5  1       -1 0.412236054531D+00 0.100000000000D+01
-.230980982940D-04 0.000000000000D+00 -.451958250725D-05 0.224825385567D-02 0.000000000000D+00  5 21 2 25 24 1 2 0.41996198D-02 0.13524588D+00 0.15165976D+05 0.15165976D+05 0.15165976D+05 0.12472781D+01  1  2  5  3  5  1       -1 -.511965352230D+00 0.100000000000D+01
  </mgrwgt>
  </event>
  <event>
  5     66 0.45252658E-03 0.12935861E+03 0.75467711E-02 0.11588298E+00
       -1 -1    0    0    0  502 0.00000000E+00 0.00000000E+00 0.90285268E+02 0.90285835E+02 0.32000000E+00 0.0000E+00 0.9000E+01
        2 -1    0    0  501    0 0.00000000E+00 0.00000000E+00 -.61559595E+03 0.61559603E+03 0.32000000E+00 0.0000E+00 0.9000E+01
       25  1    1    2    0    0 0.26660698E+02 -.11891212E+02 -.33170703E+03 0.35567787E+03 0.12500000E+03 0.0000E+00 0.9000E+01
       24  1    1    2    0    0 -.12587265E+03 -.82025958E+01 -.19885262E+03 0.24883888E+03 0.80419002E+02 0.0000E+00 0.9000E+01
       21  1    1    2  501  502 0.99211952E+02 0.20093808E+02 0.52489729E+01 0.10136512E+03 0.75000000E+00 0.0000E+00 0.9000E+01
#aMCatNLO 2  0  0  1  2 0.10122634D+03 0.00000000D+00  -5  5  0 0.00000000D+00 0.00000000D+00 0.00000000D+00 0.00000000D+00 0.00000000D+00
  <mgrwgt>
 0.1044593528D+00    2    2    0
 0.135738888494820D+03 0.000000000000000D+00 0.000000000000000D+00 0.135738888494820D+03
 0.135738888494820D+03 0.000000000000000D+00 0.000000000000000D+00 -.135738888494820D+03
 0.152605433055443D+03 0.774480555049783D+02 -.160503777400612D+01 -.407754920299093D+02
 0.118872343934197D+03 -.774480555049783D+02 0.160503777400612D+01 0.407754920299093D+02
 0.000000000000000D+00 0.000000000000000D+00 0.000000000000000D+00 0.000000000000000D+00
 0.353703559052162D+03 0.000000000000000D+00 0.000000000000000D+00 0.353703559052162D+03
 0.157134561752991D+03 0.000000000000000D+00 0.000000000000000D+00 -.157134561752991D+03
 0.134684202743444D+03 0.266606976970214D+02 -.118912117407754D+02 -.407754920299093D+02
 0.155051807855385D+03 -.125872649279455D+03 -.820259580515928D+01 0.407754920299093D+02
 0.221102110206324D+03 0.992119515824339D+02 0.200938075459347D+02 0.196568997299171D+03
-.310800555481D-04 0.000000000000D+00 0.000000000000D+00 0.234224625313D-02 0.000000000000D+00  5 -1 2 25 24 21 2 0.13614689D-01 0.81811349D-01 0.35945137D+05 0.35945137D+05 0.35945137D+05 0.12067429D+01  1  2 13  1  5  1       -1 -.111012989221D-01 0.100000000000D+01
0.394531870339D-03 0.000000000000D+00 0.000000000000D+00 0.234224625313D-02 0.284855463916D-05  5 -1 2 25 24 21 2 0.13890039D-01 0.94706761D-01 0.35945137D+05 0.35945137D+05 0.35945137D+05 0.12067429D+01  1  2  1  1  5  1       -1 0.115560651693D+00 0.100000000000D+01
  </mgrwgt>
  </event>
  <event>
  4     66 0.45252658E-03 0.12177573E+03 0.75467711E-02 0.11293529E+00
       -1 -1    0    0    0  501 0.00000000E+00 0.00000000E+00 0.12811597E+02 0.12815592E+02 0.32000000E+00 0.0000E+00 0.9000E+01
        2 -1    0    0  501    0 0.00000000E+00 0.00000000E+00 -.12283370E+04 0.12283370E+04 0.32000000E+00 0.0000E+00 0.9000E+01
       25  1    1    2    0    0 0.34749162E+02 -.54121860E+02 -.54862340E+03 0.56634735E+03 0.12500000E+03 0.0000E+00 0.9000E+01
       24  1    1    2    0    0 -.34749162E+02 0.54121860E+02 -.66690195E+03 0.67480524E+03 0.80419002E+02 0.0000E+00 0.9000E+01
#aMCatNLO 1  0  0  1  2 0.16059444D+03 0.00000000D+00  -5  5  0 0.00000000D+00 0.00000000D+00 0.00000000D+00 0.00000000D+00 0.00000000D+00
  <mgrwgt>
 0.3635061001D+00    5    2    0
 0.125457017396122D+03 0.000000000000000D+00 0.000000000000000D+00 0.125457017396122D+03
 0.125457017396122D+03 0.000000000000000D+00 0.000000000000000D+00 -.125457017396122D+03
 0.143705865160282D+03 0.347491617066585D+02 -.541218597124893D+02 0.298277679924480D+02
 0.107208169631963D+03 -.347491617066585D+02 0.541218597124893D+02 -.298277679924480D+02
 0.000000000000000D+00 0.000000000000000D+00 -.000000000000000D+00 0.000000000000000D+00
 0.315030249028110D+03 0.000000000000000D+00 0.000000000000000D+00 0.315030249028110D+03
 0.187776617978813D+03 0.000000000000000D+00 0.000000000000000D+00 -.187776617978813D+03
 0.131009549053246D+03 0.113742412533644D+02 0.227910692077829D+02 0.298277679924480D+02
 0.166897193483034D+03 -.580721742757829D+02 0.130863990729362D+03 -.298277679924480D+02
 0.204900124470642D+03 0.466979330224185D+02 -.153655059937145D+03 0.127253631049297D+03
0.224000384852D-03 0.000000000000D+00 0.000000000000D+00 0.255514836004D-02 0.000000000000D+00  5 -1 2 25 24 21 0 0.19713255D-02 0.18897523D+00 0.14829329D+05 0.14829329D+05 0.14829329D+05 0.12483895D+01  1  2  2  1  5  1       -1 0.329027951068D+00 0.100000000000D+01
-.124310453114D-04 0.000000000000D+00 -.860220458488D-06 0.255514836004D-02 0.000000000000D+00  5 -1 2 25 24 21 2 0.19713255D-02 0.18897523D+00 0.14829329D+05 0.14829329D+05 0.14829329D+05 0.12483895D+01  1  2  3  1  5  1       -1 -.284571816143D-01 0.100000000000D+01
0.155033726003D-04 0.000000000000D+00 0.000000000000D+00 0.255514836004D-02 0.000000000000D+00  5 -1 2 25 24 21 2 0.19713255D-02 0.18897523D+00 0.14829329D+05 0.14829329D+05 0.14829329D+05 0.12483895D+01  1  2 15  1  5  1       -1 0.354903613227D-01 0.100000000000D+01
0.192032318512D-04 0.000000000000D+00 -.732994573108D-04 0.255514836004D-02 0.000000000000D+00  5 -1 2 25 24 21 2 0.76769409D-02 0.18897523D+00 0.14829329D+05 0.14829329D+05 0.14829329D+05 0.12483895D+01  1  2  5  1  5  1       -1 0.599853918696D-02 0.100000000000D+01
0.427908720825D-05 0.000000000000D+00 -.118499937866D-04 0.255514836004D-02 0.000000000000D+00  5 21 2 25 24 1 2 0.76769409D-02 0.18897523D+00 0.14829329D+05 0.14829329D+05 0.14829329D+05 0.12483895D+01  1  2  5  3  5  1       -1 0.214464301627D-01 0.100000000000D+01
  </mgrwgt>
  </event>
  <event>
  4     66 0.45252658E-03 0.17284516E+03 0.75467711E-02 0.11679973E+00
       -1 -1    0    0    0  501 0.00000000E+00 0.00000000E+00 0.84098707E+02 0.84099316E+02 0.32000000E+00 0.0000E+00 0.9000E+01
        2 -1    0    0  501    0 0.00000000E+00 0.00000000E+00 -.37372420E+03 0.37372434E+03 0.32000000E+00 0.0000E+00 0.9000E+01
       25  1    1    2    0    0 0.95127333E+02 0.99777646E+02 -.10459582E+03 0.21347148E+03 0.12500000E+03 0.0000E+00 0.9000E+01
       24  1    1    2    0    0 -.95127333E+02 -.99777646E+02 -.18502967E+03 0.24435217E+03 0.80419002E+02 0.0000E+00 0.9000E+01
#aMCatNLO 1  0  0  1  1 0.13642080D+02 0.00000000D+00  -5  5  0 0.00000000D+00 0.00000000D+00 0.00000000D+00 0.00000000D+00 0.00000000D+00
  <mgrwgt>
 0.3535840305D+00    4    2    0
 0.177284778495587D+03 0.000000000000000D+00 0.000000000000000D+00 0.177284778495587D+03
 0.177284778495587D+03 0.000000000000000D+00 0.000000000000000D+00 -.177284778495587D+03
 0.190198724243413D+03 0.951273330023161D+02 0.997776460460789D+02 0.393162379837112D+02
 0.164370832747761D+03 -.951273330023161D+02 -.997776460460789D+02 -.393162379837112D+02
 0.000000000000000D+00 -.000000000000000D+00 0.000000000000000D+00 -.000000000000000D+00
 0.179192204480841D+03 0.000000000000000D+00 0.000000000000000D+00 0.179192204480841D+03
 0.203609595581484D+03 0.000000000000000D+00 0.000000000000000D+00 -.203609595581484D+03
 0.190667168283605D+03 0.100730525384288D+03 0.950608423479507D+02 0.393162379837112D+02
 0.164164731466452D+03 -.902940097598535D+02 -.103846368908004D+03 -.393162379837112D+02
 0.279699003122683D+02 -.104365156244349D+02 0.878552656005342D+01 -.244173911006428D+02
0.109607786562D-02 0.000000000000D+00 0.000000000000D+00 0.214216776151D-02 0.000000000000D+00  5 -1 2 25 24 21 0 0.12938320D-01 0.57496088D-01 0.29875449D+05 0.29875449D+05 0.29875449D+05 0.12150881D+01  1  2  2  1  5  1       -1 0.426898530793D+00 0.100000000000D+01
-.608455946914D-04 0.000000000000D+00 -.420922760790D-05 0.214216776151D-02 0.000000000000D+00  5 -1 2 25 24 21 2 0.12938320D-01 0.57496088D-01 0.29875449D+05 0.29875449D+05 0.29875449D+05 0.12150881D+01  1  2  3  1  5  1       -1 -.349887083901D-01 0.100000000000D+01
0.752520777580D-04 0.000000000000D+00 0.000000000000D+00 0.214216776151D-02 0.000000000000D+00  5 -1 2 25 24 21 2 0.12938320D-01 0.57496088D-01 0.29875449D+05 0.29875449D+05 0.29875449D+05 0.12150881D+01  1  2 15  1  5  1       -1 0.432730260551D-01 0.100000000000D+01
-.141900882699D-03 0.000000000000D+00 0.000000000000D+00 0.214216776151D-02 0.000000000000D+00  5 -1 2 25 24 21 2 0.12938320D-01 0.57496088D-01 0.29875449D+05 0.29875449D+05 0.29875449D+05 0.12150881D+01  1  2  4  1  5  1       -1 -.815988179629D-01 0.100000000000D+01
  </mgrwgt>
  </event>
  <event>
  4     66 0.45252658E-03 0.82414113E+02 0.75467711E-02 0.11569734E+00
       -1 -1    0    0    0  501 0.00000000E+00 0.00000000E+00 0.98002553E+01 0.98054782E+01 0.32000000E+00 0.0000E+00 0.9000E+01
        2 -1    0    0  501    0 0.00000000E+00 0.00000000E+00 -.27758894E+04 0.27758894E+04 0.32000000E+00 0.0000E+00 0.9000E+01
       25  1    1    2    0    0 -.40647778E+02 0.12126550E+03 -.14924690E+04 0.15031455E+04 0.12500000E+03 0.0000E+00 0.9000E+01
       24  1    1    2    0    0 0.40647778E+02 -.12126550E+03 -.12736201E+04 0.12825494E+04 0.80419002E+02 0.0000E+00 0.9000E+01
#aMCatNLO 1  0  0  2  1 0.49682854D+02 0.00000000D+00  -5  5  0 0.00000000D+00 0.00000000D+00 0.00000000D+00 0.00000000D+00 0.00000000D+00
  <mgrwgt>
 0.7868914109D+00    9    2    0
 0.164959769105325D+03 0.000000000000000D+00 0.000000000000000D+00 0.164959769105325D+03
 0.164959769105325D+03 0.000000000000000D+00 0.000000000000000D+00 -.164959769105325D+03
 0.178838583460028D+03 -.406477783115564D+02 0.121265502089763D+03 0.821617454533637D+00
 0.151080954750623D+03 0.406477783115564D+02 -.121265502089763D+03 -.821617454533637D+00
 0.000000000000000D+00 0.000000000000000D+00 0.000000000000000D+00 -.000000000000000D+00
 0.180050694037738D+03 0.000000000000000D+00 0.000000000000000D+00 0.180050694037738D+03
 0.213460051568407D+03 0.000000000000000D+00 0.000000000000000D+00 -.213460051568407D+03
 0.179382162735461D+03 -.653519855201664D+02 0.110821492685226D+03 0.821617454533637D+00
 0.154257294842188D+03 0.195905406535826D+02 -.130167709971859D+03 -.821617454533637D+00
 0.598712880284953D+02 0.457614448665837D+02 0.193462172866325D+02 -.334093575306690D+02
0.133619239513D-02 0.000000000000D+00 0.000000000000D+00 0.230779572730D-02 0.000000000000D+00  5 -1 2 25 24 21 0 0.15081348D-02 0.42706031D+00 0.27211046D+05 0.27211046D+05 0.27211046D+05 0.12193712D+01  1  2  2  2  5  2        2 0.446676886275D+00 0.100000000000D+01
-.742329108264D-04 0.000000000000D+00 -.513133062483D-05 0.230779572730D-02 0.000000000000D+00  5 -1 2 25 24 21 2 0.15081348D-02 0.42706031D+00 0.27211046D+05 0.27211046D+05 0.27211046D+05 0.12193712D+01  1  2  3  2  5  2        2 -.368971535406D-01 0.100000000000D+01
0.920166760800D-04 0.000000000000D+00 0.000000000000D+00 0.230779572730D-02 0.000000000000D+00  5 -1 2 25 24 21 2 0.15081348D-02 0.42706031D+00 0.27211046D+05 0.27211046D+05 0.27211046D+05 0.12193712D+01  1  2 15  2  5  2        2 0.457364986477D-01 0.100000000000D+01
0.104625109202D-02 0.000000000000D+00 0.000000000000D+00 0.230779572730D-02 0.000000000000D+00  5 -1 2 25 24 21 2 0.15081348D-02 0.56778962D+00 0.36733219D+05 0.36733219D+05 0.36733219D+05 0.12057759D+01  1  2 12  2  5  2        2 0.137895225228D+00 0.100000000000D+01
-.111390590046D-02 0.000000000000D+00 0.000000000000D+00 0.230779572730D-02 0.000000000000D+00  5 -1 2 25 24 21 2 0.15081348D-02 0.42706031D+00 0.27211046D+05 0.27211046D+05 0.27211046D+05 0.12193712D+01  1  2  4  2  5  2        2 -.553662204293D+00 0.100000000000D+01
-.198395394070D-02 0.000000000000D+00 -.520938435339D-03 0.230779572730D-02 0.000000000000D+00  5 -1 2 25 24 21 2 0.15081348D-02 0.56403884D+00 0.27211046D+05 0.27211046D+05 0.27211046D+05 0.12193712D+01  1  2  5  2  5  2        2 -.280431850433D+00 0.100000000000D+01
0.206786864497D-02 0.000000000000D+00 0.501409899716D-03 0.230779572730D-02 0.000000000000D+00  5 -1 2 25 24 21 2 0.15081348D-02 0.42706031D+00 0.27211046D+05 0.27211046D+05 0.27211046D+05 0.12193712D+01  1  2  6  2  5  2        2 0.102782534116D+01 0.100000000000D+01
0.389514871524D-04 0.000000000000D+00 0.000000000000D+00 0.230779572730D-02 0.000000000000D+00  5 -1 21 25 24 -2 2 0.15081348D-02 0.56778962D+00 0.36733219D+05 0.36733219D+05 0.36733219D+05 0.12057759D+01  1  2 12  4  5  2        2 0.308999119194D-03 0.100000000000D+01
-.622343038365D-04 0.000000000000D+00 -.190653909696D-04 0.230779572730D-02 0.000000000000D+00  5 -1 21 25 24 -2 2 0.15081348D-02 0.56403884D+00 0.27211046D+05 0.27211046D+05 0.27211046D+05 0.12193712D+01  1  2  5  4  5  2        2 -.560331256216D-03 0.100000000000D+01
  </mgrwgt>
  </event>
  <event>
  4     66 0.45252658E-03 0.11788719E+03 0.75467711E-02 0.11400376E+00
       -1 -1    0    0    0  501 0.00000000E+00 0.00000000E+00 0.28831613E+02 0.28833389E+02 0.32000000E+00 0.0000E+00 0.9000E+01
        2 -1    0    0  501    0 0.00000000E+00 0.00000000E+00 -.65711967E+03 0.65711975E+03 0.32000000E+00 0.0000E+00 0.9000E+01
       25  1    1    2    0    0 -.13614968E+02 0.55164074E+02 -.52738744E+03 0.54496877E+03 0.12500000E+03 0.0000E+00 0.9000E+01
       24  1    1    2    0    0 0.13614968E+02 -.55164074E+02 -.10090061E+03 0.14098437E+03 0.80419002E+02 0.0000E+00 0.9000E+01
#aMCatNLO 1  0  0  2  1 0.14710176D+03 0.00000000D+00  -5  5  0 0.00000000D+00 0.00000000D+00 0.00000000D+00 0.00000000D+00 0.00000000D+00
  <mgrwgt>
 0.4495925164D+00    3    2    0
 0.137646124992948D+03 0.000000000000000D+00 0.000000000000000D+00 0.137646124992948D+03
 0.137646124992948D+03 0.000000000000000D+00 0.000000000000000D+00 -.137646124992948D+03
 0.154278965267417D+03 -.136149682709725D+02 0.551640743693986D+02 -.703459782925282D+02
 0.121013284718478D+03 0.136149682709725D+02 -.551640743693986D+02 0.703459782925282D+02
 0.000000000000000D+00 -.000000000000000D+00 -.000000000000000D+00 0.000000000000000D+00
 0.351081564710385D+03 0.000000000000000D+00 0.000000000000000D+00 0.351081564710385D+03
 0.183804502199010D+03 0.000000000000000D+00 0.000000000000000D+00 -.183804502199010D+03
 0.186736814464848D+03 0.547984132655201D+02 0.106274244848540D+03 -.703459782925282D+02
 0.125392564566281D+03 0.630480396472492D+02 -.182336866498352D+02 0.703459782925282D+02
 0.222756687878267D+03 -.117846452912769D+03 -.880405581987052D+02 0.167277062511375D+03
0.427447277523D-03 0.000000000000D+00 0.000000000000D+00 0.193404022595D-02 0.000000000000D+00  5 -1 2 25 24 21 0 0.44357753D-02 0.10109548D+00 0.13897389D+05 0.13897389D+05 0.13897389D+05 0.12516204D+01  1  2  2  2  5  2        2 0.439751632039D+00 0.100000000000D+01
-.230537739541D-04 0.000000000000D+00 -.164151009514D-05 0.193404022595D-02 0.000000000000D+00  5 -1 2 25 24 21 2 0.44357753D-02 0.10109548D+00 0.13897389D+05 0.13897389D+05 0.13897389D+05 0.12516204D+01  1  2  3  2  5  2        2 -.371545665355D-01 0.100000000000D+01
0.291598746114D-04 0.000000000000D+00 0.000000000000D+00 0.193404022595D-02 0.000000000000D+00  5 -1 2 25 24 21 2 0.44357753D-02 0.10109548D+00 0.13897389D+05 0.13897389D+05 0.13897389D+05 0.12516204D+01  1  2 15  2  5  2        2 0.469954508781D-01 0.100000000000D+01
  </mgrwgt>
  </event>
  <event>
  4     66 0.45252658E-03 0.64806154E+02 0.75467711E-02 0.12535957E+00
       -1 -1    0    0    0  501 0.00000000E+00 0.00000000E+00 0.51784689E+01 0.51883466E+01 0.32000000E+00 0.0000E+00 0.9000E+01
        2 -1    0    0  501    0 0.00000000E+00 0.00000000E+00 -.24311372E+04 0.24311373E+04 0.32000000E+00 0.0000E+00 0.9000E+01
       25  1    1    2    0    0 0.22242554E+02 -.37882104E+02 -.13632964E+04 0.13697196E+04 0.12500000E+03 0.0000E+00 0.9000E+01
       24  1    1    2    0    0 -.22242554E+02 0.37882104E+02 -.10626624E+04 0.10666060E+04 0.80419002E+02 0.0000E+00 0.9000E+01
#aMCatNLO 1  0  0  2  1 0.35496209D+01 0.00000000D+00  -5  5  0 0.00000000D+00 0.00000000D+00 0.00000000D+00 0.00000000D+00 0.00000000D+00
  <mgrwgt>
 0.3509597964D+00   11    2    0
 0.112256968144920D+03 0.000000000000000D+00 0.000000000000000D+00 0.112256968144920D+03
 0.112256968144920D+03 0.000000000000000D+00 0.000000000000000D+00 -.112256968144920D+03
 0.132651657661670D+03 0.222425539624330D+02 -.378821035886420D+02 0.645579594755938D+01
 0.918622786281693D+02 -.222425539624330D+02 0.378821035886420D+02 -.645579594755938D+01
 0.000000000000000D+00 0.000000000000000D+00 0.000000000000000D+00 -.000000000000000D+00
 0.112367550948766D+03 0.000000000000000D+00 0.000000000000000D+00 0.112367550948766D+03
 0.144894872304341D+03 0.000000000000000D+00 0.000000000000000D+00 -.144894872304341D+03
 0.132892993437797D+03 0.208738000607739D+02 -.394734705158355D+02 0.645579594755938D+01
 0.916490012906440D+02 -.231884656173931D+02 0.367823496285429D+02 -.645579594755938D+01
 0.327204285246670D+02 0.231466555661921D+01 0.269112088729261D+01 -.325273213555747D+02
0.160896073014D-03 0.000000000000D+00 0.000000000000D+00 0.294426894727D-02 0.000000000000D+00  5 -1 2 25 24 21 0 0.79744897D-03 0.37402188D+00 0.12558522D+05 0.12558522D+05 0.12558522D+05 0.12567151D+01  1  2  2  2  5  2        2 0.204710233687D+00 0.100000000000D+01
-.893863882357D-05 0.000000000000D+00 -.617883285284D-06 0.294426894727D-02 0.000000000000D+00  5 -1 2 25 24 21 2 0.79744897D-03 0.37402188D+00 0.12558522D+05 0.12558522D+05 0.12558522D+05 0.12567151D+01  1  2  3  2  5  2        2 -.179613592638D-01 0.100000000000D+01
0.110936193290D-04 0.000000000000D+00 0.000000000000D+00 0.294426894727D-02 0.000000000000D+00  5 -1 2 25 24 21 2 0.79744897D-03 0.37402188D+00 0.12558522D+05 0.12558522D+05 0.12558522D+05 0.12567151D+01  1  2 15  2  5  2        2 0.222915911736D-01 0.100000000000D+01
0.460017643887D-03 0.000000000000D+00 0.000000000000D+00 0.294426894727D-02 0.000000000000D+00  5 -1 2 25 24 21 2 0.79744897D-03 0.48291324D+00 0.12962626D+05 0.12962626D+05 0.12962626D+05 0.12551154D+01  1  2 12  2  5  2        2 0.373640012464D+00 0.100000000000D+01
-.937976935890D-02 0.000000000000D+00 0.000000000000D+00 0.294426894727D-02 0.000000000000D+00  5 -1 2 25 24 21 2 0.79744897D-03 0.37402188D+00 0.12558522D+05 0.12558522D+05 0.12558522D+05 0.12567151D+01  1  2  4  2  5  2        2 -.188477698442D+02 0.100000000000D+01
-.979938010223D-02 0.000000000000D+00 -.733970130502D-04 0.294426894727D-02 0.000000000000D+00  5 -1 2 25 24 21 2 0.79744897D-03 0.48287368D+00 0.12558522D+05 0.12558522D+05 0.12558522D+05 0.12567151D+01  1  2  5  2  5  2        2 -.798264285720D+01 0.100000000000D+01
0.950855281828D-02 0.000000000000D+00 0.710658549375D-04 0.294426894727D-02 0.000000000000D+00  5 -1 2 25 24 21 2 0.79744897D-03 0.37402188D+00 0.12558522D+05 0.12558522D+05 0.12558522D+05 0.12567151D+01  1  2  6  2  5  2        2 0.191065481691D+02 0.100000000000D+01
0.922552955944D-02 0.000000000000D+00 0.000000000000D+00 0.294426894727D-02 0.202746078450D-02  5 -1 2 25 24 21 2 0.79823452D-03 0.48276604D+00 0.12962626D+05 0.12962626D+05 0.12962626D+05 0.12551154D+01  1  2 11  2  5  2        2 0.749256426307D+01 0.100000000000D+01
0.158210570538D-04 0.000000000000D+00 0.000000000000D+00 0.294426894727D-02 0.000000000000D+00  5 -1 21 25 24 -2 2 0.79744897D-03 0.48291324D+00 0.12962626D+05 0.12962626D+05 0.12962626D+05 0.12551154D+01  1  2 12  4  5  2        2 0.157435947177D-02 0.100000000000D+01
-.335669509606D-03 0.000000000000D+00 -.252369571801D-05 0.294426894727D-02 0.000000000000D+00  5 -1 21 25 24 -2 2 0.79744897D-03 0.48287368D+00 0.12558522D+05 0.12558522D+05 0.12558522D+05 0.12567151D+01  1  2  5  4  5  2        2 -.336212309370D-01 0.100000000000D+01
0.317529273435D-03 0.000000000000D+00 0.000000000000D+00 0.294426894727D-02 0.697657955836D-04  5 -1 21 25 24 -2 2 0.79823452D-03 0.48276604D+00 0.12962626D+05 0.12962626D+05 0.12962626D+05 0.12551154D+01  1  2 11  4  5  2        2 0.316264590927D-01 0.100000000000D+01
  </mgrwgt>
  </event>
  <event>
  4     66 0.45252658E-03 0.12942712E+03 0.75467711E-02 0.10523781E+00
       -1 -1    0    0    0  501 0.00000000E+00 0.00000000E+00 0.49706976E+02 0.49708006E+02 0.32000000E+00 0.0000E+00 0.9000E+01
        2 -1    0    0  501    0 0.00000000E+00 0.00000000E+00 -.55501498E+03 0.55501507E+03 0.32000000E+00 0.0000E+00 0.9000E+01
       25  1    1    2    0    0 -.63880333E+02 0.44016792E+02 -.85194153E+02 0.17000358E+03 0.12500000E+03 0.0000E+00 0.9000E+01
       24  1    1    2    0    0 0.63880333E+02 -.44016792E+02 -.42011385E+03 0.43471950E+03 0.80419002E+02 0.0000E+00 0.9000E+01
#aMCatNLO 1  0  0  1  1 0.33342987D+03 0.00000000D+00  -5  5  0 0.00000000D+00 0.00000000D+00 0.00000000D+00 0.00000000D+00 0.00000000D+00
  <mgrwgt>
 0.3934378958D+00    3    2    0
 0.166097729172404D+03 0.000000000000000D+00 0.000000000000000D+00 0.166097729172404D+03
 0.166097729172404D+03 0.000000000000000D+00 0.000000000000000D+00 -.166097729172404D+03
 0.179881457720740D+03 -.638803325363914D+02 0.440167920148925D+02 0.103509245806817D+03
 0.152314000624069D+03 0.638803325363914D+02 -.440167920148925D+02 -.103509245806817D+03
 0.000000000000000D+00 -.000000000000000D+00 0.000000000000000D+00 -.000000000000000D+00
 0.321501377546056D+03 0.000000000000000D+00 0.000000000000000D+00 0.321501377546056D+03
 0.557893089944484D+03 0.000000000000000D+00 0.000000000000000D+00 -.557893089944484D+03
 0.179541719893408D+03 0.335516755721009D+02 -.690677224258310D+02 0.103509245806817D+03
 0.291127269342717D+03 0.184087865333362D+03 -.183535731861909D+03 -.103509245806817D+03
 0.408725478254414D+03 -.217639540905463D+03 0.252603454287740D+03 -.236391712398428D+03
0.686759173626D-03 0.000000000000D+00 0.000000000000D+00 0.147027021548D-02 0.000000000000D+00  5 -1 2 25 24 21 0 0.76473134D-02 0.85387007D-01 0.16751379D+05 0.16751379D+05 0.16751379D+05 0.12423919D+01  1  2  2  1  5  1       -1 0.383443145839D+00 0.100000000000D+01
-.352665337362D-04 0.000000000000D+00 -.263733605457D-05 0.147027021548D-02 0.000000000000D+00  5 -1 2 25 24 21 2 0.76473134D-02 0.85387007D-01 0.16751379D+05 0.16751379D+05 0.16751379D+05 0.12423919D+01  1  2  3  1  5  1       -1 -.303932061938D-01 0.100000000000D+01
0.468638685233D-04 0.000000000000D+00 0.000000000000D+00 0.147027021548D-02 0.000000000000D+00  5 -1 2 25 24 21 2 0.76473134D-02 0.85387007D-01 0.16751379D+05 0.16751379D+05 0.16751379D+05 0.12423919D+01  1  2 15  1  5  1       -1 0.403879561774D-01 0.100000000000D+01
  </mgrwgt>
  </event>
  <event>
  4     66 0.45252658E-03 0.90603214E+02 0.75467711E-02 0.11414896E+00
       -1 -1    0    0    0  501 0.00000000E+00 0.00000000E+00 0.14251951E+03 0.14251987E+03 0.32000000E+00 0.0000E+00 0.9000E+01
        2 -1    0    0  501    0 0.00000000E+00 0.00000000E+00 -.26876895E+03 0.26876914E+03 0.32000000E+00 0.0000E+00 0.9000E+01
       25  1    1    2    0    0 -.12102147E+03 0.73021375E+01 0.51495296E+02 0.18159373E+03 0.12500000E+03 0.0000E+00 0.9000E+01
       24  1    1    2    0    0 0.12102147E+03 -.73021375E+01 -.17774473E+03 0.22969528E+03 0.80419002E+02 0.0000E+00 0.9000E+01
#aMCatNLO 1  0  0  1  2 0.91679313D+02 0.00000000D+00  -5  5  0 0.00000000D+00 0.00000000D+00 0.00000000D+00 0.00000000D+00 0.00000000D+00
  <mgrwgt>
 0.3095103638D+00    9    2    0
 0.195716459874205D+03 0.000000000000000D+00 0.000000000000000D+00 0.195716459874205D+03
 0.195716459874205D+03 0.000000000000000D+00 0.000000000000000D+00 -.195716459874205D+03
 0.207414229253842D+03 -.121021469726564D+03 0.730213748529795D+01 0.112677172268093D+03
 0.184018690494568D+03 0.121021469726564D+03 -.730213748529795D+01 -.112677172268093D+03
 0.000000000000000D+00 0.000000000000000D+00 0.000000000000000D+00 0.000000000000000D+00
 0.251985258871371D+03 0.000000000000000D+00 0.000000000000000D+00 0.251985258871371D+03
 0.242236788930739D+03 0.000000000000000D+00 0.000000000000000D+00 -.242236788930739D+03
 0.239308387655543D+03 -.169882991308559D+03 -.933426569250382D+01 0.112677172268093D+03
 0.162717515779472D+03 0.830962383081714D+02 -.202149453566005D+02 -.112677172268093D+03
 0.921961443670946D+02 0.867867530003873D+02 0.295492110491043D+02 0.974846994063156D+01
0.107293651065D-02 0.000000000000D+00 0.000000000000D+00 0.149158167076D-02 0.000000000000D+00  5 -1 2 25 24 21 0 0.21926121D-01 0.41349111D-01 0.25540399D+05 0.25540399D+05 0.25540399D+05 0.12223031D+01  1  2  2  1  5  1       -1 0.256032108129D+00 0.100000000000D+01
-.566310344227D-04 0.000000000000D+00 -.412035871155D-05 0.149158167076D-02 0.000000000000D+00  5 -1 2 25 24 21 2 0.21926121D-01 0.41349111D-01 0.25540399D+05 0.25540399D+05 0.25540399D+05 0.12223031D+01  1  2  3  1  5  1       -1 -.201898344613D-01 0.100000000000D+01
0.736955239733D-04 0.000000000000D+00 0.000000000000D+00 0.149158167076D-02 0.000000000000D+00  5 -1 2 25 24 21 2 0.21926121D-01 0.41349111D-01 0.25540399D+05 0.25540399D+05 0.25540399D+05 0.12223031D+01  1  2 15  1  5  1       -1 0.262735873488D-01 0.100000000000D+01
0.197695784323D-03 0.000000000000D+00 0.000000000000D+00 0.149158167076D-02 0.000000000000D+00  5 -1 2 25 24 21 2 0.30192616D-01 0.41349111D-01 0.44140503D+05 0.44140503D+05 0.44140503D+05 0.11976803D+01  1  2 12  1  5  1       -1 0.400467130374D-01 0.100000000000D+01
-.384101325085D-03 0.000000000000D+00 0.000000000000D+00 0.149158167076D-02 0.000000000000D+00  5 -1 2 25 24 21 2 0.21926121D-01 0.41349111D-01 0.25540399D+05 0.25540399D+05 0.25540399D+05 0.12223031D+01  1  2  4  1  5  1       -1 -.136938027865D+00 0.100000000000D+01
-.546173874097D-03 0.000000000000D+00 -.373102734267D-03 0.149158167076D-02 0.000000000000D+00  5 -1 2 25 24 21 2 0.34519604D-01 0.41349111D-01 0.25540399D+05 0.25540399D+05 0.25540399D+05 0.12223031D+01  1  2  5  1  5  1       -1 -.912592033659D-01 0.100000000000D+01
0.679679237759D-03 0.000000000000D+00 0.337720040974D-03 0.149158167076D-02 0.000000000000D+00  5 -1 2 25 24 21 2 0.21926121D-01 0.41349111D-01 0.25540399D+05 0.25540399D+05 0.25540399D+05 0.12223031D+01  1  2  6  1  5  1       -1 0.242316098179D+00 0.100000000000D+01
0.800469133884D-05 0.000000000000D+00 0.000000000000D+00 0.149158167076D-02 0.000000000000D+00  5 21 2 25 24 1 2 0.30192616D-01 0.41349111D-01 0.44140503D+05 0.44140503D+05 0.44140503D+05 0.11976803D+01  1  2 12  3  5  1       -1 0.183841248244D-01 0.100000000000D+01
-.135610191718D-04 0.000000000000D+00 -.195141480752D-04 0.149158167076D-02 0.000000000000D+00  5 21 2 25 24 1 2 0.34519604D-01 0.41349111D-01 0.25540399D+05 0.25540399D+05 0.25540399D+05 0.12223031D+01  1  2  5  3  5  1       -1 -.251552020735D-01 0.100000000000D+01
  </mgrwgt>
  </event>
  <event>
  4     66 0.45252658E-03 0.15814957E+03 0.75467711E-02 0.11183565E+00
       -1 -1    0    0    0  501 0.00000000E+00 0.00000000E+00 0.15163174E+02 0.15166551E+02 0.32000000E+00 0.0000E+00 0.9000E+01
        2 -1    0    0  501    0 0.00000000E+00 0.00000000E+00 -.17827199E+04 0.17827200E+04 0.32000000E+00 0.0000E+00 0.9000E+01
       25  1    1    2    0    0 -.94510745E+02 -.72404866E+02 -.71364206E+03 0.73422390E+03 0.12500000E+03 0.0000E+00 0.9000E+01
       24  1    1    2    0    0 0.94510745E+02 0.72404866E+02 -.10539147E+04 0.10636626E+04 0.80419002E+02 0.0000E+00 0.9000E+01
#aMCatNLO 1  0  0  1  2 0.13917255D+03 0.00000000D+00  -5  5  0 0.00000000D+00 0.00000000D+00 0.00000000D+00 0.00000000D+00 0.00000000D+00
  <mgrwgt>
 0.3667786846D+00    3    2    0
 0.164422487315831D+03 0.000000000000000D+00 0.000000000000000D+00 0.164422487315831D+03
 0.164422487315831D+03 0.000000000000000D+00 0.000000000000000D+00 -.164422487315831D+03
 0.178346653339483D+03 -.945107446303533D+02 -.724048664347255D+02 0.448082941360108D+02
 0.150498321292179D+03 0.945107446303533D+02 0.724048664347255D+02 -.448082941360108D+02
 0.000000000000000D+00 -.000000000000000D+00 -.000000000000000D+00 -.000000000000000D+00
 0.240963211834149D+03 0.000000000000000D+00 0.000000000000000D+00 0.240963211834149D+03
 0.256114263992135D+03 0.000000000000000D+00 0.000000000000000D+00 -.256114263992135D+03
 0.143845276225178D+03 -.491752900025764D+02 -.253075309360861D+02 0.448082941360108D+02
 0.213237369033221D+03 0.145691799685120D+03 0.125574981102811D+03 -.448082941360108D+02
 0.139994830567886D+03 -.965165096825432D+02 -.100267450166725D+03 -.151510521579861D+02
0.603297764326D-03 0.000000000000D+00 0.000000000000D+00 0.215158060867D-02 0.000000000000D+00  5 -1 2 25 24 21 0 0.23330580D-02 0.27426487D+00 0.25011286D+05 0.25011286D+05 0.25011286D+05 0.12232766D+01  1  2  2  1  5  1       -1 0.359538493312D+00 0.100000000000D+01
-.334548834947D-04 0.000000000000D+00 -.231682226696D-05 0.215158060867D-02 0.000000000000D+00  5 -1 2 25 24 21 2 0.23330580D-02 0.27426487D+00 0.25011286D+05 0.25011286D+05 0.25011286D+05 0.12232766D+01  1  2  3  1  5  1       -1 -.298347605856D-01 0.100000000000D+01
0.415735931021D-04 0.000000000000D+00 0.000000000000D+00 0.215158060867D-02 0.000000000000D+00  5 -1 2 25 24 21 2 0.23330580D-02 0.27426487D+00 0.25011286D+05 0.25011286D+05 0.25011286D+05 0.12232766D+01  1  2 15  1  5  1       -1 0.370749519149D-01 0.100000000000D+01
  </mgrwgt>
  </event>
  <event>
  4     66 0.45252658E-03 0.45582724E+02 0.75467711E-02 0.11902435E+00
       -1 -1    0    0    0  501 0.00000000E+00 0.00000000E+00 0.45051238E+02 0.45052374E+02 0.32000000E+00 0.0000E+00 0.9000E+01
        2 -1    0    0  501    0 0.00000000E+00 0.00000000E+00 -.30357564E+03 0.30357581E+03 0.32000000E+00 0.0000E+00 0.9000E+01
       25  1    1    2    0    0 0.36728985E+02 0.31604879E+02 -.18936484E+03 0.23201708E+03 0.12500000E+03 0.0000E+00 0.9000E+01
       24  1    1    2    0    0 -.36728985E+02 -.31604879E+02 -.69159569E+02 0.11661110E+03 0.80419002E+02 0.0000E+00 0.9000E+01
#aMCatNLO 1  0  0  1  2 0.76630018D+02 0.00000000D+00  -5  5  0 0.00000000D+00 0.00000000D+00 0.00000000D+00 0.00000000D+00 0.00000000D+00
  <mgrwgt>
 0.2256262642D+00    7    2    0
 0.116947363680658D+03 0.000000000000000D+00 0.000000000000000D+00 0.116947363680658D+03
 0.116947363680658D+03 0.000000000000000D+00 0.000000000000000D+00 -.116947363680658D+03
 0.136524085543829D+03 0.367289846245084D+02 0.316048791994992D+02 -.258057984340023D+02
 0.973706418174863D+02 -.367289846245084D+02 -.316048791994992D+02 0.258057984340023D+02
 0.000000000000000D+00 0.000000000000000D+00 0.000000000000000D+00 0.000000000000000D+00
 0.232433575150246D+03 0.000000000000000D+00 0.000000000000000D+00 0.232433575150246D+03
 0.136486643427674D+03 0.000000000000000D+00 0.000000000000000D+00 -.136486643427674D+03
 0.128276682283953D+03 -.110890831846532D+01 0.127568925410219D+02 -.258057984340023D+02
 0.117851136565411D+03 -.674824400478129D+02 -.469239329954944D+02 0.258057984340023D+02
 0.122792399728556D+03 0.685913483662783D+02 0.341670404544724D+02 0.959469317225719D+02
0.254230935605D-03 0.000000000000D+00 0.000000000000D+00 0.272571221110D-02 0.000000000000D+00  5 -1 2 25 24 21 0 0.69310600D-02 0.46704045D-01 0.12990503D+05 0.12990503D+05 0.12990503D+05 0.12550072D+01  1  2  2  1  5  1       -1 0.311589609565D+00 0.100000000000D+01
-.141125657795D-04 0.000000000000D+00 -.976313733267D-06 0.272571221110D-02 0.000000000000D+00  5 -1 2 25 24 21 2 0.69310600D-02 0.46704045D-01 0.12990503D+05 0.12990503D+05 0.12990503D+05 0.12550072D+01  1  2  3  1  5  1       -1 -.272428760614D-01 0.100000000000D+01
0.176016467459D-04 0.000000000000D+00 0.000000000000D+00 0.272571221110D-02 0.000000000000D+00  5 -1 2 25 24 21 2 0.69310600D-02 0.46704045D-01 0.12990503D+05 0.12990503D+05 0.12990503D+05 0.12550072D+01  1  2 15  1  5  1       -1 0.339781927871D-01 0.100000000000D+01
0.478251024009D-04 0.000000000000D+00 0.000000000000D+00 0.272571221110D-02 0.000000000000D+00  5 -1 2 25 24 21 2 0.13838677D-01 0.46704045D-01 0.25165899D+05 0.25165899D+05 0.25165899D+05 0.12229898D+01  1  2 12  1  5  1       -1 0.312017148611D-01 0.100000000000D+01
-.156850431017D-03 0.000000000000D+00 -.717096592081D-04 0.272571221110D-02 0.000000000000D+00  5 -1 2 25 24 21 2 0.15940855D-01 0.46704045D-01 0.12990503D+05 0.12990503D+05 0.12990503D+05 0.12550072D+01  1  2  5  1  5  1       -1 -.849857035781D-01 0.100000000000D+01
0.357838999526D-05 0.000000000000D+00 0.000000000000D+00 0.272571221110D-02 0.000000000000D+00  5 21 2 25 24 1 2 0.13838677D-01 0.46704045D-01 0.25165899D+05 0.25165899D+05 0.25165899D+05 0.12229898D+01  1  2 12  3  5  1       -1 0.325030692771D-01 0.100000000000D+01
-.968093227759D-05 0.000000000000D+00 -.649987896051D-05 0.272571221110D-02 0.000000000000D+00  5 21 2 25 24 1 2 0.15940855D-01 0.46704045D-01 0.12990503D+05 0.12990503D+05 0.12990503D+05 0.12550072D+01  1  2  5  3  5  1       -1 -.714177426210D-01 0.100000000000D+01
  </mgrwgt>
  </event>
  <event>
  4     66 -.45252658E-03 0.52969243E+02 0.75467711E-02 0.12689668E+00
       -1 -1    0    0    0  501 0.00000000E+00 0.00000000E+00 0.18179995E+02 0.18182811E+02 0.32000000E+00 0.0000E+00 0.9000E+01
        2 -1    0    0  501    0 0.00000000E+00 0.00000000E+00 -.59987965E+03 0.59987974E+03 0.32000000E+00 0.0000E+00 0.9000E+01
       25  1    1    2    0    0 0.11724016E+02 -.13521836E+02 -.33837899E+03 0.36117258E+03 0.12500000E+03 0.0000E+00 0.9000E+01
       24  1    1    2    0    0 -.11724016E+02 0.13521836E+02 -.24332067E+03 0.25688997E+03 0.80419002E+02 0.0000E+00 0.9000E+01
#aMCatNLO 1  0  0  1  2 0.24988176D+01 0.00000000D+00  -5  5  0 0.00000000D+00 0.00000000D+00 0.00000000D+00 0.00000000D+00 0.00000000D+00
  <mgrwgt>
 -.3030906884D+00   11    2    0
 0.104435175610181D+03 0.000000000000000D+00 0.000000000000000D+00 0.104435175610181D+03
 0.104435175610181D+03 0.000000000000000D+00 0.000000000000000D+00 -.104435175610181D+03
 0.126357348843776D+03 0.117240161489367D+02 -.135218357794166D+02 0.457023077335454D+01
 0.825130023765848D+02 -.117240161489367D+02 0.135218357794166D+02 -.457023077335454D+01
 0.000000000000000D+00 -.000000000000000D+00 0.000000000000000D+00 0.000000000000000D+00
 0.106326317598536D+03 0.000000000000000D+00 0.000000000000000D+00 0.106326317598536D+03
 0.105271362862139D+03 0.000000000000000D+00 0.000000000000000D+00 -.105271362862139D+03
 0.126548274091450D+03 0.119628432618534D+02 -.150156267699783D+02 0.457023077335454D+01
 0.823370238789784D+02 -.115683428373752D+02 0.125481465385195D+02 -.457023077335454D+01
 0.271238249024734D+01 -.394500424478234D+00 0.246748023145882D+01 0.105495473639713D+01
0.107713900315D-03 0.000000000000D+00 0.000000000000D+00 0.317712695959D-02 0.000000000000D+00  5 -1 2 25 24 21 0 0.27971455D-02 0.92289401D-01 0.10884854D+05 0.10884854D+05 0.10884854D+05 0.12640190D+01  1  2  2  1  5  1       -1 0.238171742050D+00 0.100000000000D+01
-.598409825699D-05 0.000000000000D+00 -.413649738932D-06 0.317712695959D-02 0.000000000000D+00  5 -1 2 25 24 21 2 0.27971455D-02 0.92289401D-01 0.10884854D+05 0.10884854D+05 0.10884854D+05 0.12640190D+01  1  2  3  1  5  1       -1 -.211409453185D-01 0.100000000000D+01
0.745585930926D-05 0.000000000000D+00 0.000000000000D+00 0.317712695959D-02 0.000000000000D+00  5 -1 2 25 24 21 2 0.27971455D-02 0.92289401D-01 0.10884854D+05 0.10884854D+05 0.10884854D+05 0.12640190D+01  1  2 15  1  5  1       -1 0.263404622034D-01 0.100000000000D+01
0.499384954216D-06 0.000000000000D+00 0.000000000000D+00 0.317712695959D-02 0.000000000000D+00  5 -1 2 25 24 21 2 0.28588477D-02 0.92289401D-01 0.11148681D+05 0.11148681D+05 0.11148681D+05 0.12627869D+01  1  2 12  1  5  1       -1 0.170812320442D-02 0.100000000000D+01
-.887620762044D-03 0.000000000000D+00 0.000000000000D+00 0.317712695959D-02 0.000000000000D+00  5 -1 2 25 24 21 2 0.27971455D-02 0.92289401D-01 0.10884854D+05 0.10884854D+05 0.10884854D+05 0.12640190D+01  1  2  4  1  5  1       -1 -.313583453815D+01 0.100000000000D+01
-.405482207778D-02 0.000000000000D+00 -.492507818054D-03 0.317712695959D-02 0.000000000000D+00  5 -1 2 25 24 21 2 0.28706754D-02 0.92289401D-01 0.10884854D+05 0.10884854D+05 0.10884854D+05 0.12640190D+01  1  2  5  1  5  1       -1 -.137984018576D+02 0.100000000000D+01
0.406639835024D-02 0.000000000000D+00 0.492342063688D-03 0.317712695959D-02 0.000000000000D+00  5 -1 2 25 24 21 2 0.27971455D-02 0.92289401D-01 0.10884854D+05 0.10884854D+05 0.10884854D+05 0.12640190D+01  1  2  6  1  5  1       -1 0.143659915786D+02 0.100000000000D+01
0.887317983117D-03 0.000000000000D+00 0.000000000000D+00 0.317712695959D-02 0.432820280621D-02  5 -1 2 25 24 21 2 0.28477970D-02 0.93028340D-01 0.11148681D+05 0.11148681D+05 0.11148681D+05 0.12627869D+01  1  2 11  1  5  1       -1 0.302474350480D+01 0.100000000000D+01
0.187035972418D-07 0.000000000000D+00 0.000000000000D+00 0.317712695959D-02 0.000000000000D+00  5 21 2 25 24 1 2 0.28588477D-02 0.92289401D-01 0.11148681D+05 0.11148681D+05 0.11148681D+05 0.12627869D+01  1  2 12  3  5  1       -1 0.125575034186D-02 0.100000000000D+01
-.188614437956D-04 0.000000000000D+00 -.230557208648D-05 0.317712695959D-02 0.000000000000D+00  5 21 2 25 24 1 2 0.28706754D-02 0.92289401D-01 0.10884854D+05 0.10884854D+05 0.10884854D+05 0.12640190D+01  1  2  5  3  5  1       -1 -.125933027740D+01 0.100000000000D+01
0.378445565107D-05 0.000000000000D+00 0.000000000000D+00 0.317712695959D-02 0.142415490727D-04  5 21 2 25 24 1 2 0.28477970D-02 0.93028340D-01 0.11148681D+05 0.11148681D+05 0.11148681D+05 0.12627869D+01  1  2 11  3  5  1       -1 0.253405768866D+00 0.100000000000D+01
  </mgrwgt>
  </event>
  <event>
  4     66 0.45252658E-03 0.10523587E+03 0.75467711E-02 0.12676111E+00
       -3 -1    0    0    0  501 0.00000000E+00 0.00000000E+00 0.36517870E+02 0.36521293E+02 0.50000000E+00 0.0000E+00 0.9000E+01
        4 -1    0    0  501    0 0.00000000E+00 0.00000000E+00 -.37225349E+03 0.37225672E+03 0.15500000E+01 0.0000E+00 0.9000E+01
       25  1    1    2    0    0 -.44463774E+01 0.21954630E+02 -.10967427E+03 0.16779518E+03 0.12500000E+03 0.0000E+00 0.9000E+01
       24  1    1    2    0    0 0.44463774E+01 -.21954630E+02 -.22606135E+03 0.24098283E+03 0.80419002E+02 0.0000E+00 0.9000E+01
#aMCatNLO 1  0  0  1  2 0.21026279D+01 0.00000000D+00  -5  5  0 0.00000000D+00 0.00000000D+00 0.00000000D+00 0.00000000D+00 0.00000000D+00
  <mgrwgt>
 0.3839864696D-01    6    2    0
 0.116598729814555D+03 0.000000000000000D+00 0.000000000000000D+00 0.116598729814555D+03
 0.116598729814555D+03 0.000000000000000D+00 0.000000000000000D+00 -.116598729814555D+03
 0.136233986691269D+03 -.444637739844868D+01 0.219546297308432D+02 0.493246702088227D+02
 0.969634729378415D+02 0.444637739844868D+01 -.219546297308432D+02 -.493246702088227D+02
 0.000000000000000D+00 0.000000000000000D+00 -.000000000000000D+00 -.000000000000000D+00
 0.116878468185302D+03 0.000000000000000D+00 0.000000000000000D+00 0.116878468185302D+03
 0.120622616863544D+03 0.000000000000000D+00 0.000000000000000D+00 -.120622616863544D+03
 0.136438644649674D+03 -.448515328421796D+01 0.231832711809170D+02 0.493246702088227D+02
 0.967682939728229D+02 0.441882743559885D+01 -.210816896126807D+02 -.493246702088227D+02
 0.429414642634883D+01 0.663258486191092D-01 -.210158156823629D+01 -.374414867824167D+01
0.267855126706D-03 0.000000000000D+00 0.000000000000D+00 0.241467292810D-02 0.000000000000D+00  5 -3 4 25 24 21 0 0.56186453D-02 0.57270280D-01 0.11074588D+05 0.11074588D+05 0.11074588D+05 0.12631296D+01  1  2  2  1  5  1       -3 0.274356227986D-01 0.100000000000D+01
-.146906246186D-04 0.000000000000D+00 -.102863421443D-05 0.241467292810D-02 0.000000000000D+00  5 -3 4 25 24 21 2 0.56186453D-02 0.57270280D-01 0.11074588D+05 0.11074588D+05 0.11074588D+05 0.12631296D+01  1  2  3  1  5  1       -3 -.240077197472D-02 0.100000000000D+01
0.183337160628D-04 0.000000000000D+00 0.000000000000D+00 0.241467292810D-02 0.000000000000D+00  5 -3 4 25 24 21 2 0.56186453D-02 0.57270280D-01 0.11074588D+05 0.11074588D+05 0.11074588D+05 0.12631296D+01  1  2 15  1  5  1       -3 0.299613344285D-02 0.100000000000D+01
-.127397578357D-03 0.000000000000D+00 0.000000000000D+00 0.241467292810D-02 0.000000000000D+00  5 -3 4 25 24 21 2 0.56186453D-02 0.57270280D-01 0.11074588D+05 0.11074588D+05 0.11074588D+05 0.12631296D+01  1  2  4  1  5  1       -3 -.208195732795D-01 0.100000000000D+01
0.127416083343D-03 0.000000000000D+00 0.000000000000D+00 0.241467292810D-02 0.464263303389D-02  5 -3 4 25 24 21 2 0.56321253D-02 0.59246709D-01 0.11296194D+05 0.11296194D+05 0.11296194D+05 0.12621122D+01  1  2 11  1  5  1       -3 0.193405507846D-01 0.100000000000D+01
0.314744910853D-05 0.000000000000D+00 0.000000000000D+00 0.241467292810D-02 0.211233027534D-05  5 21 4 25 24 3 2 0.56321253D-02 0.59246709D-01 0.11296194D+05 0.11296194D+05 0.11296194D+05 0.12621122D+01  1  2 11  3  5  1       -3 0.118466851882D-01 0.100000000000D+01
  </mgrwgt>
  </event>
  <event>
  5     66 0.45252658E-03 0.14422465E+03 0.75467711E-02 0.11428751E+00
       -1 -1    0    0    0  501 0.00000000E+00 0.00000000E+00 0.55341959E+03 0.55341968E+03 0.32000000E+00 0.0000E+00 0.9000E+01
        2 -1    0    0  502    0 0.00000000E+00 0.00000000E+00 -.93956304E+02 0.93956849E+02 0.32000000E+00 0.0000E+00 0.9000E+01
       25  1    1    2    0    0 -.35817968E+01 0.66892367E+02 0.23171584E+03 0.27167011E+03 0.12500000E+03 0.0000E+00 0.9000E+01
       24  1    1    2    0    0 -.96321220E+02 -.10925544E+03 0.20640235E+03 0.26511068E+03 0.80419002E+02 0.0000E+00 0.9000E+01
       21  1    1    2  502  501 0.99903017E+02 0.42363069E+02 0.21345098E+02 0.11059574E+03 0.75000000E+00 0.0000E+00 0.9000E+01
#aMCatNLO 2  0  0  2  1 0.10851379D+03 0.00000000D+00  -5  5  0 0.00000000D+00 0.00000000D+00 0.00000000D+00 0.00000000D+00 0.00000000D+00
  <mgrwgt>
 0.8663266011D-01    2    2    0
 0.145267707868124D+03 0.000000000000000D+00 0.000000000000000D+00 0.145267707868124D+03
 0.145267707868124D+03 0.000000000000000D+00 0.000000000000000D+00 -.145267707868124D+03
 0.161027893287211D+03 0.469613151667245D+02 0.883247661810659D+02 0.172728970757375D+02
 0.129507522449037D+03 -.469613151667245D+02 -.883247661810659D+02 -.172728970757375D+02
 0.000000000000000D+00 0.000000000000000D+00 0.000000000000000D+00 -.000000000000000D+00
 0.176055370257548D+03 0.000000000000000D+00 0.000000000000000D+00 0.176055370257548D+03
 0.295344540695455D+03 0.000000000000000D+00 0.000000000000000D+00 -.295344540695455D+03
 0.142866269763355D+03 -.358179679837814D+01 0.668923672357460D+02 0.172728970757375D+02
 0.167272522020296D+03 -.963212201614305D+02 -.109255435754401D+03 -.172728970757375D+02
 0.161261119169352D+03 0.999030169598087D+02 0.423630685186546D+02 -.119289170437906D+03
-.124696769877D-03 0.000000000000D+00 0.000000000000D+00 0.241829741705D-02 0.000000000000D+00  5 -1 2 25 24 21 2 0.70252091D-01 0.14515171D-01 0.43411881D+05 0.43411881D+05 0.43411881D+05 0.11984070D+01  1  2 13  2  5  2        2 -.175377778984D-01 0.100000000000D+01
0.109264094726D-02 0.000000000000D+00 0.000000000000D+00 0.241829741705D-02 0.201253005796D-05  5 -1 2 25 24 21 2 0.85141137D-01 0.14454799D-01 0.43411881D+05 0.43411881D+05 0.43411881D+05 0.11984070D+01  1  2  1  2  5  2        2 0.104170438008D+00 0.100000000000D+01
  </mgrwgt>
  </event>
  <event>
  4     66 0.45252658E-03 0.13229691E+03 0.75467711E-02 0.12118256E+00
       -1 -1    0    0    0  501 0.00000000E+00 0.00000000E+00 0.10851487E+02 0.10856204E+02 0.32000000E+00 0.0000E+00 0.9000E+01
        2 -1    0    0  501    0 0.00000000E+00 0.00000000E+00 -.16925442E+04 0.16925443E+04 0.32000000E+00 0.0000E+00 0.9000E+01
       25  1    1    2    0    0 -.48270549E+02 0.66526646E+02 -.11292752E+04 0.11391415E+04 0.12500000E+03 0.0000E+00 0.9000E+01
       24  1    1    2    0    0 0.48270549E+02 -.66526646E+02 -.55241752E+03 0.56425896E+03 0.80419002E+02 0.0000E+00 0.9000E+01
#aMCatNLO 1  0  0  1  1 0.17173013D+02 0.00000000D+00  -5  5  0 0.00000000D+00 0.00000000D+00 0.00000000D+00 0.00000000D+00 0.00000000D+00
  <mgrwgt>
 0.2681660302D+00    4    2    0
 0.135538427244831D+03 0.000000000000000D+00 0.000000000000000D+00 0.135538427244831D+03
 0.135538427244831D+03 0.000000000000000D+00 0.000000000000000D+00 -.135538427244831D+03
 0.152429917414418D+03 -.482705489896077D+02 0.665266461466764D+02 -.292239486668592D+02
 0.118646937075244D+03 0.482705489896077D+02 -.665266461466764D+02 0.292239486668592D+02
 0.000000000000000D+00 0.000000000000000D+00 -.000000000000000D+00 -.000000000000000D+00
 0.139348561527223D+03 0.000000000000000D+00 0.000000000000000D+00 0.139348561527223D+03
 0.156646555420629D+03 0.000000000000000D+00 0.000000000000000D+00 -.156646555420629D+03
 0.157898587481565D+03 -.550196813513533D+02 0.736597543912932D+02 -.292239486668592D+02
 0.113721686802513D+03 0.432169152610743D+02 -.611854979098161D+02 0.292239486668592D+02
 0.243748426637755D+02 0.118027660902790D+02 -.124742564814771D+02 -.172979938934057D+02
0.332042639375D-03 0.000000000000D+00 0.000000000000D+00 0.244424763804D-02 0.000000000000D+00  5 -1 2 25 24 21 0 0.16698247D-02 0.26039178D+00 0.17502473D+05 0.17502473D+05 0.17502473D+05 0.12402551D+01  1  2  2  1  5  1       -1 0.354988360097D+00 0.100000000000D+01
-.184336711733D-04 0.000000000000D+00 -.127513116403D-05 0.244424763804D-02 0.000000000000D+00  5 -1 2 25 24 21 2 0.16698247D-02 0.26039178D+00 0.17502473D+05 0.17502473D+05 0.17502473D+05 0.12402551D+01  1  2  3  1  5  1       -1 -.303147617814D-01 0.100000000000D+01
0.229132020817D-04 0.000000000000D+00 0.000000000000D+00 0.244424763804D-02 0.000000000000D+00  5 -1 2 25 24 21 2 0.16698247D-02 0.26039178D+00 0.17502473D+05 0.17502473D+05 0.17502473D+05 0.12402551D+01  1  2 15  1  5  1       -1 0.376814936224D-01 0.100000000000D+01
-.572740833126D-04 0.000000000000D+00 0.000000000000D+00 0.244424763804D-02 0.000000000000D+00  5 -1 2 25 24 21 2 0.16698247D-02 0.26039178D+00 0.17502473D+05 0.17502473D+05 0.17502473D+05 0.12402551D+01  1  2  4  1  5  1       -1 -.941890617200D-01 0.100000000000D+01
  </mgrwgt>
  </event>
  <event>
  4     66 0.45252658E-03 0.14327884E+03 0.75467711E-02 0.97616387E-01
       -1 -1    0    0    0  501 0.00000000E+00 0.00000000E+00 0.50855959E+02 0.50856966E+02 0.32000000E+00 0.0000E+00 0.9000E+01
        2 -1    0    0  501    0 0.00000000E+00 0.00000000E+00 -.40376942E+03 0.40376955E+03 0.32000000E+00 0.0000E+00 0.9000E+01
       25  1    1    2    0    0 0.96418206E+02 -.21013691E+02 -.19242938E+03 0.24978413E+03 0.12500000E+03 0.0000E+00 0.9000E+01
       24  1    1    2    0    0 -.96418206E+02 0.21013691E+02 -.16048409E+03 0.20484239E+03 0.80419002E+02 0.0000E+00 0.9000E+01
#aMCatNLO 1  0  0  1  1 0.64419736D+03 0.00000000D+00  -5  5  0 0.00000000D+00 0.00000000D+00 0.00000000D+00 0.00000000D+00 0.00000000D+00
  <mgrwgt>
 0.5624644854D+00    3    2    0
 0.143298077719921D+03 0.000000000000000D+00 0.000000000000000D+00 0.143298077719921D+03
 0.143298077719921D+03 0.000000000000000D+00 0.000000000000000D+00 -.143298077719921D+03
 0.159274886675322D+03 0.964182063302373D+02 -.210136911590326D+02 0.233319467024515D+01
 0.127321268764520D+03 -.964182063302373D+02 0.210136911590326D+02 -.233319467024515D+01
 0.000000000000000D+00 0.000000000000000D+00 -.000000000000000D+00 -.000000000000000D+00
 0.448629265302647D+03 0.000000000000000D+00 0.000000000000000D+00 0.448629265302647D+03
 0.143219548843437D+04 0.000000000000000D+00 0.000000000000000D+00 -.143219548843437D+04
 0.178704751763223D+03 -.967645509500582D+02 0.833160619857878D+02 0.233319467024515D+01
 0.526368006883607D+03 -.470054610161192D+03 0.222798748616528D+03 -.233319467024515D+01
 0.117575199509019D+04 0.566819161111250D+03 -.306114810602316D+03 -.983566223131723D+03
0.718064058754D-03 0.000000000000D+00 0.000000000000D+00 0.246745706956D-02 0.000000000000D+00  5 -1 2 25 24 21 0 0.78240809D-02 0.62118460D-01 0.20528827D+05 0.20528827D+05 0.20528827D+05 0.12325802D+01  1  2  2  1  5  1       -1 0.551222726671D+00 0.100000000000D+01
-.398924468345D-04 0.000000000000D+00 -.275755505622D-05 0.246745706956D-02 0.000000000000D+00  5 -1 2 25 24 21 2 0.78240809D-02 0.62118460D-01 0.20528827D+05 0.20528827D+05 0.20528827D+05 0.12325802D+01  1  2  3  1  5  1       -1 -.465248496068D-01 0.100000000000D+01
0.495316238897D-04 0.000000000000D+00 0.000000000000D+00 0.246745706956D-02 0.000000000000D+00  5 -1 2 25 24 21 2 0.78240809D-02 0.62118460D-01 0.20528827D+05 0.20528827D+05 0.20528827D+05 0.12325802D+01  1  2 15  1  5  1       -1 0.577666083459D-01 0.100000000000D+01
  </mgrwgt>
  </event>
  <event>
  4     66 0.45252658E-03 0.83202659E+02 0.75467711E-02 0.11668877E+00
       -1 -1    0    0    0  501 0.00000000E+00 0.00000000E+00 0.61365269E+03 0.61365277E+03 0.32000000E+00 0.0000E+00 0.9000E+01
        2 -1    0    0  501    0 0.00000000E+00 0.00000000E+00 -.27508169E+02 0.27510030E+02 0.32000000E+00 0.0000E+00 0.9000E+01
       25  1    1    2    0    0 -.67070360E+02 -.26634333E+02 0.40837370E+03 0.43313035E+03 0.12500000E+03 0.0000E+00 0.9000E+01
       24  1    1    2    0    0 0.67070360E+02 0.26634333E+02 0.17777081E+03 0.20803245E+03 0.80419002E+02 0.0000E+00 0.9000E+01
#aMCatNLO 1  0  0  1  2 0.93370801D+02 0.00000000D+00  -5  5  0 0.00000000D+00 0.00000000D+00 0.00000000D+00 0.00000000D+00 0.00000000D+00
  <mgrwgt>
 0.4505743420D+00    8    2    0
 0.129927230345525D+03 0.000000000000000D+00 0.000000000000000D+00 0.129927230345525D+03
 0.129927230345525D+03 0.000000000000000D+00 0.000000000000000D+00 -.129927230345525D+03
 0.147548217149591D+03 -.670703595514950D+02 -.266343331343364D+02 0.306211618353268D+02
 0.112306243541459D+03 0.670703595514950D+02 0.266343331343364D+02 -.306211618353268D+02
 0.000000000000000D+00 0.000000000000000D+00 0.000000000000000D+00 0.000000000000000D+00
 0.219111123026244D+03 0.000000000000000D+00 0.000000000000000D+00 0.219111123026244D+03
 0.164950996637944D+03 0.000000000000000D+00 0.000000000000000D+00 -.164950996637944D+03
 0.179020587721306D+03 -.101611225006919D+03 -.718392248603092D+02 0.306211618353268D+02
 0.970997615037589D+02 0.449216896909917D+02 -.235243977123806D+01 -.306211618353268D+02
 0.107941770439123D+03 0.566895353159269D+02 0.741916646315473D+02 0.541601263882996D+02
0.108182825743D-02 0.000000000000D+00 0.000000000000D+00 0.249308305246D-02 0.000000000000D+00  5 -1 2 25 24 21 0 0.94408255D-01 0.42321756D-02 0.15924784D+05 0.15924784D+05 0.15924784D+05 0.12448714D+01  1  2  2  1  5  1       -1 0.267480972667D+00 0.100000000000D+01
-.600394400644D-04 0.000000000000D+00 -.415450536045D-05 0.249308305246D-02 0.000000000000D+00  5 -1 2 25 24 21 2 0.94408255D-01 0.42321756D-02 0.15924784D+05 0.15924784D+05 0.15924784D+05 0.12448714D+01  1  2  3  1  5  1       -1 -.230048898838D-01 0.100000000000D+01
0.747179575534D-04 0.000000000000D+00 0.000000000000D+00 0.249308305246D-02 0.000000000000D+00  5 -1 2 25 24 21 2 0.94408255D-01 0.42321756D-02 0.15924784D+05 0.15924784D+05 0.15924784D+05 0.12448714D+01  1  2 15  1  5  1       -1 0.286291541696D-01 0.100000000000D+01
0.652741035469D-04 0.000000000000D+00 0.000000000000D+00 0.249308305246D-02 0.000000000000D+00  5 -1 2 25 24 21 2 0.16481097D+00 0.42321756D-02 0.32742566D+05 0.32742566D+05 0.32742566D+05 0.12109312D+01  1  2 12  1  5  1       -1 0.625455483397D-02 0.100000000000D+01
-.413969723448D-03 0.000000000000D+00 -.289426316190D-03 0.249308305246D-02 0.000000000000D+00  5 -1 2 25 24 21 2 0.18592808D+00 0.42321756D-02 0.15924784D+05 0.15924784D+05 0.15924784D+05 0.12448714D+01  1  2  5  1  5  1       -1 -.297459993242D-01 0.100000000000D+01
0.537608591565D-03 0.000000000000D+00 0.233674738128D-03 0.249308305246D-02 0.000000000000D+00  5 -1 2 25 24 21 2 0.94408255D-01 0.42321756D-02 0.15924784D+05 0.15924784D+05 0.15924784D+05 0.12448714D+01  1  2  6  1  5  1       -1 0.205991702059D+00 0.100000000000D+01
0.401996067937D-05 0.000000000000D+00 0.000000000000D+00 0.249308305246D-02 0.000000000000D+00  5 21 2 25 24 1 2 0.16481097D+00 0.42321756D-02 0.32742566D+05 0.32742566D+05 0.32742566D+05 0.12109312D+01  1  2 12  3  5  1       -1 0.323078698175D-02 0.100000000000D+01
-.132426523581D-04 0.000000000000D+00 -.212418846081D-04 0.249308305246D-02 0.000000000000D+00  5 21 2 25 24 1 2 0.18592808D+00 0.42321756D-02 0.15924784D+05 0.15924784D+05 0.15924784D+05 0.12448714D+01  1  2  5  3  5  1       -1 -.826193948738D-02 0.100000000000D+01
  </mgrwgt>
  </event>
  <event>
  5     66 0.45252658E-03 0.10836982E+03 0.75467711E-02 0.11581988E+00
       21 -1    0    0  502  501 0.00000000E+00 0.00000000E+00 0.19541562E+02 0.19555949E+02 0.75000000E+00 0.0000E+00 0.9000E+01
        2 -1    0    0  501    0 0.00000000E+00 0.00000000E+00 -.33119421E+04 0.33119421E+04 0.32000000E+00 0.0000E+00 0.9000E+01
       25  1    1    2    0    0 0.29751878E+02 -.52387065E+02 -.56762936E+03 0.58434380E+03 0.12500000E+03 0.0000E+00 0.9000E+01
       24  1    1    2    0    0 -.29640277E+02 -.75328759E+02 -.23179457E+04 0.23207526E+04 0.80419002E+02 0.0000E+00 0.9000E+01
        1  1    1    2  502    0 -.11160072E+00 0.12771582E+03 -.40682544E+03 0.42640167E+03 0.32000000E+00 0.0000E+00 0.9000E+01
#aMCatNLO 2  0  0  1  1 0.12771587D+03 0.00000000D+00  -5  5  0 0.00000000D+00 0.00000000D+00 0.00000000D+00 0.00000000D+00 0.00000000D+00
  <mgrwgt>
 0.1501619708D+00    1    2    0
 0.155507285430775D+03 0.000000000000000D+00 0.000000000000000D+00 0.155507285430775D+03
 0.155507285430775D+03 0.000000000000000D+00 0.000000000000000D+00 -.155507285430775D+03
 0.170229721135735D+03 0.296919405890926D+02 0.162054681258984D+02 0.110494024385142D+03
 0.140784849725816D+03 -.296919405890926D+02 -.162054681258984D+02 -.110494024385142D+03
 0.000000000000000D+00 -.000000000000000D+00 0.000000000000000D+00 0.000000000000000D+00
 0.336689182800041D+03 0.000000000000000D+00 0.000000000000000D+00 0.336689182800041D+03
 0.192297330899424D+03 0.000000000000000D+00 0.000000000000000D+00 -.192297330899424D+03
 0.177379559981066D+03 0.297518781586076D+02 -.523870653910647D+02 0.110494024385142D+03
 0.158836750696854D+03 -.296402774388860D+02 -.753287590903088D+02 -.110494024385142D+03
 0.192770203021545D+03 -.111600719721584D+00 0.127715824481374D+03 0.144391851900618D+03
0.919290971225D-04 0.000000000000D+00 0.000000000000D+00 0.126813164737D-02 0.133425932909D-06  5 21 2 25 24 1 2 0.30075001D-02 0.50953034D+00 0.36210810D+05 0.36210810D+05 0.36210810D+05 0.12064143D+01  1  2  1  3  5  1       -1 0.150161970767D+00 0.100000000000D+01
  </mgrwgt>
  </event>
  <event>
  4     66 0.45252658E-03 0.12788769E+03 0.75467711E-02 0.92052071E-01
       -1 -1    0    0    0  501 0.00000000E+00 0.00000000E+00 0.12553684E+03 0.12553724E+03 0.32000000E+00 0.0000E+00 0.9000E+01
        2 -1    0    0  501    0 0.00000000E+00 0.00000000E+00 -.17184747E+03 0.17184776E+03 0.32000000E+00 0.0000E+00 0.9000E+01
       25  1    1    2    0    0 -.62695680E+02 0.41217562E+02 0.46970216E+02 0.15316931E+03 0.12500000E+03 0.0000E+00 0.9000E+01
       24  1    1    2    0    0 0.62695680E+02 -.41217562E+02 -.93280846E+02 0.14421570E+03 0.80419002E+02 0.0000E+00 0.9000E+01
#aMCatNLO 1  0  0  1  2 0.10850451D+04 0.00000000D+00  -5  5  0 0.00000000D+00 0.00000000D+00 0.00000000D+00 0.00000000D+00 0.00000000D+00
  <mgrwgt>
 0.4614843783D+00    3    2    0
 0.146878494105494D+03 0.000000000000000D+00 0.000000000000000D+00 0.146878494105494D+03
 0.146878494105494D+03 0.000000000000000D+00 0.000000000000000D+00 -.146878494105494D+03
 0.162465840812378D+03 -.626956799932980D+02 0.412175623787665D+02 0.716973757720845D+02
 0.131291147398610D+03 0.626956799932980D+02 -.412175623787665D+02 -.716973757720845D+02
 0.000000000000000D+00 -.000000000000000D+00 -.000000000000000D+00 -.000000000000000D+00
 0.756338200560898D+03 0.000000000000000D+00 0.000000000000000D+00 0.756338200560898D+03
 0.207699789150364D+04 0.000000000000000D+00 0.000000000000000D+00 -.207699789150364D+04
 0.562845436213920D+03 0.333761614117152D+03 0.429689022801547D+03 0.716973757720845D+02
 0.561261332707349D+03 0.441246918598036D+03 0.329708523961989D+03 -.716973757720845D+02
 0.170922932314327D+04 -.775008532715187D+03 -.759397546763536D+03 -.132065969094274D+04
0.961679485179D-03 0.000000000000D+00 0.000000000000D+00 0.190730668611D-02 0.000000000000D+00  5 -1 2 25 24 21 0 0.19313414D-01 0.26438126D-01 0.16355262D+05 0.16355262D+05 0.16355262D+05 0.12435626D+01  1  2  2  1  5  1       -1 0.451374716179D+00 0.100000000000D+01
-.521814202770D-04 0.000000000000D+00 -.369310243911D-05 0.190730668611D-02 0.000000000000D+00  5 -1 2 25 24 21 2 0.19313414D-01 0.26438126D-01 0.16355262D+05 0.16355262D+05 0.16355262D+05 0.12435626D+01  1  2  3  1  5  1       -1 -.378754711465D-01 0.100000000000D+01
0.661096042156D-04 0.000000000000D+00 0.000000000000D+00 0.190730668611D-02 0.000000000000D+00  5 -1 2 25 24 21 2 0.19313414D-01 0.26438126D-01 0.16355262D+05 0.16355262D+05 0.16355262D+05 0.12435626D+01  1  2 15  1  5  1       -1 0.479851332847D-01 0.100000000000D+01
  </mgrwgt>
  </event>
  <event>
  4     66 0.45252658E-03 0.82354027E+02 0.75467711E-02 0.12101394E+00
       -1 -1    0    0    0  501 0.00000000E+00 0.00000000E+00 0.77345332E+01 0.77411500E+01 0.32000000E+00 0.0000E+00 0.9000E+01
        2 -1    0    0  501    0 0.00000000E+00 0.00000000E+00 -.23120341E+04 0.23120341E+04 0.32000000E+00 0.0000E+00 0.9000E+01
       25  1    1    2    0    0 0.68681960E+02 -.37916430E+02 -.15713690E+04 0.15782840E+04 0.12500000E+03 0.0000E+00 0.9000E+01
       24  1    1    2    0    0 -.68681960E+02 0.37916430E+02 -.73293057E+03 0.74149127E+03 0.80419002E+02 0.0000E+00 0.9000E+01
#aMCatNLO 1  0  0  1  2 0.23704675D+02 0.00000000D+00  -5  5  0 0.00000000D+00 0.00000000D+00 0.00000000D+00 0.00000000D+00 0.00000000D+00
  <mgrwgt>
 0.2748692522D+00    9    2    0
 0.133754271288682D+03 0.000000000000000D+00 0.000000000000000D+00 0.133754271288682D+03
 0.133754271288682D+03 0.000000000000000D+00 0.000000000000000D+00 -.133754271288682D+03
 0.150871078022024D+03 0.686819600017482D+02 -.379164296666565D+02 -.313403081538683D+02
 0.116637464555340D+03 -.686819600017482D+02 0.379164296666565D+02 0.313403081538683D+02
 0.000000000000000D+00 0.000000000000000D+00 -.000000000000000D+00 0.000000000000000D+00
 0.148626493210028D+03 0.000000000000000D+00 0.000000000000000D+00 0.148626493210028D+03
 0.144069066016963D+03 0.000000000000000D+00 0.000000000000000D+00 -.144069066016963D+03
 0.144891141897414D+03 0.557961774012428D+02 -.356793311675858D+02 -.313403081538683D+02
 0.123665615532797D+03 -.791514961348318D+02 0.397340440324592D+02 0.313403081538683D+02
 0.241388017967791D+02 0.233553187335890D+02 -.405471286487341D+01 0.455742719306437D+01
0.339652977713D-03 0.000000000000D+00 0.000000000000D+00 0.244594627584D-02 0.000000000000D+00  5 -1 2 25 24 21 0 0.11904389D-02 0.35569807D+00 0.16890652D+05 0.16890652D+05 0.16890652D+05 0.12419877D+01  1  2  2  1  5  1       -1 0.283424761201D+00 0.100000000000D+01
-.188506508976D-04 0.000000000000D+00 -.130435686710D-05 0.244594627584D-02 0.000000000000D+00  5 -1 2 25 24 21 2 0.11904389D-02 0.35569807D+00 0.16890652D+05 0.16890652D+05 0.16890652D+05 0.12419877D+01  1  2  3  1  5  1       -1 -.242640499150D-01 0.100000000000D+01
0.234383576482D-04 0.000000000000D+00 0.000000000000D+00 0.244594627584D-02 0.000000000000D+00  5 -1 2 25 24 21 2 0.11904389D-02 0.35569807D+00 0.16890652D+05 0.16890652D+05 0.16890652D+05 0.12419877D+01  1  2 15  1  5  1       -1 0.301692224312D-01 0.100000000000D+01
0.319703011108D-03 0.000000000000D+00 0.000000000000D+00 0.244594627584D-02 0.000000000000D+00  5 -1 2 25 24 21 2 0.13643964D-02 0.35569807D+00 0.20276932D+05 0.20276932D+05 0.20276932D+05 0.12331691D+01  1  2 12  1  5  1       -1 0.334303922730D+00 0.100000000000D+01
-.284524195769D-03 0.000000000000D+00 0.000000000000D+00 0.244594627584D-02 0.000000000000D+00  5 -1 2 25 24 21 2 0.11904389D-02 0.35569807D+00 0.16890652D+05 0.16890652D+05 0.16890652D+05 0.12419877D+01  1  2  4  1  5  1       -1 -.366231878447D+00 0.100000000000D+01
-.817735801525D-03 0.000000000000D+00 -.223871640785D-03 0.244594627584D-02 0.000000000000D+00  5 -1 2 25 24 21 2 0.14544046D-02 0.35569807D+00 0.16890652D+05 0.16890652D+05 0.16890652D+05 0.12419877D+01  1  2  5  1  5  1       -1 -.790446374055D+00 0.100000000000D+01
0.849886035181D-03 0.000000000000D+00 0.219455734780D-03 0.244594627584D-02 0.000000000000D+00  5 -1 2 25 24 21 2 0.11904389D-02 0.35569807D+00 0.16890652D+05 0.16890652D+05 0.16890652D+05 0.12419877D+01  1  2  6  1  5  1       -1 0.109395040478D+01 0.100000000000D+01
0.674786515145D-05 0.000000000000D+00 0.000000000000D+00 0.244594627584D-02 0.000000000000D+00  5 21 2 25 24 1 2 0.13643964D-02 0.35569807D+00 0.20276932D+05 0.20276932D+05 0.20276932D+05 0.12331691D+01  1  2 12  3  5  1       -1 0.156022919211D+00 0.100000000000D+01
-.208412999695D-04 0.000000000000D+00 -.641323838047D-05 0.244594627584D-02 0.000000000000D+00  5 21 2 25 24 1 2 0.14544046D-02 0.35569807D+00 0.16890652D+05 0.16890652D+05 0.16890652D+05 0.12419877D+01  1  2  5  3  5  1       -1 -.442059675693D+00 0.100000000000D+01
  </mgrwgt>
  </event>
  <event>
  4     66 0.45252658E-03 0.12277031E+03 0.75467711E-02 0.10350607E+00
       -1 -1    0    0    0  501 0.00000000E+00 0.00000000E+00 0.79100817E+02 0.79101464E+02 0.32000000E+00 0.0000E+00 0.9000E+01
        2 -1    0    0  501    0 0.00000000E+00 0.00000000E+00 -.20028874E+03 0.20028900E+03 0.32000000E+00 0.0000E+00 0.9000E+01
       25  1    1    2    0    0 -.12560434E+02 0.64934057E+02 -.38881756E+02 0.14666624E+03 0.12500000E+03 0.0000E+00 0.9000E+01
       24  1    1    2    0    0 0.12560434E+02 -.64934057E+02 -.82306169E+02 0.13272422E+03 0.80419002E+02 0.0000E+00 0.9000E+01
#aMCatNLO 1  0  0  2  2 0.39082743D+03 0.00000000D+00  -5  5  0 0.00000000D+00 0.00000000D+00 0.00000000D+00 0.00000000D+00 0.00000000D+00
  <mgrwgt>
 0.4033239647D+00    3    2    0
 0.125869492634099D+03 0.000000000000000D+00 0.000000000000000D+00 0.125869492634099D+03
 0.125869492634099D+03 0.000000000000000D+00 0.000000000000000D+00 -.125869492634099D+03
 0.144058538792112D+03 -.125604342033644D+02 0.649340574183612D+02 0.274529830570456D+02
 0.107680446476085D+03 0.125604342033644D+02 -.649340574183612D+02 -.274529830570456D+02
 0.000000000000000D+00 0.000000000000000D+00 0.000000000000000D+00 0.000000000000000D+00
 0.464597804960086D+03 0.000000000000000D+00 0.000000000000000D+00 0.464597804960086D+03
 0.396929951099476D+03 0.000000000000000D+00 0.000000000000000D+00 -.396929951099476D+03
 0.214699266535561D+03 -.160350934244032D+03 -.632825936513615D+02 0.274529830570456D+02
 0.250186308586528D+03 -.134862997128891D+03 -.192832255539537D+03 -.274529830570456D+02
 0.396642180937473D+03 0.295213931372924D+03 0.256114849190899D+03 0.676678538606092D+02
0.483224707836D-03 0.000000000000D+00 0.000000000000D+00 0.256989606950D-02 0.000000000000D+00  5 -1 2 25 24 21 0 0.12169426D-01 0.30813722D-01 0.15072549D+05 0.15072549D+05 0.15072549D+05 0.12475837D+01  1  2  2  2  5  2        2 0.395053581741D+00 0.100000000000D+01
-.268255301643D-04 0.000000000000D+00 -.185571011408D-05 0.256989606950D-02 0.000000000000D+00  5 -1 2 25 24 21 2 0.12169426D-01 0.30813722D-01 0.15072549D+05 0.15072549D+05 0.15072549D+05 0.12475837D+01  1  2  3  2  5  2        2 -.341345816723D-01 0.100000000000D+01
0.333250212265D-04 0.000000000000D+00 0.000000000000D+00 0.256989606950D-02 0.000000000000D+00  5 -1 2 25 24 21 2 0.12169426D-01 0.30813722D-01 0.15072549D+05 0.15072549D+05 0.15072549D+05 0.12475837D+01  1  2 15  2  5  2        2 0.424049646669D-01 0.100000000000D+01
  </mgrwgt>
  </event>
  <event>
  4     66 0.45252658E-03 0.91514525E+02 0.75467711E-02 0.11487564E+00
       -1 -1    0    0    0  501 0.00000000E+00 0.00000000E+00 0.52557448E+02 0.52558422E+02 0.32000000E+00 0.0000E+00 0.9000E+01
        2 -1    0    0  501    0 0.00000000E+00 0.00000000E+00 -.11687537E+04 0.11687537E+04 0.32000000E+00 0.0000E+00 0.9000E+01
       25  1    1    2    0    0 -.43901084E+02 -.10868103E+03 -.10510843E+04 0.10649611E+04 0.12500000E+03 0.0000E+00 0.9000E+01
       24  1    1    2    0    0 0.43901084E+02 0.10868103E+03 -.65111883E+02 0.15635103E+03 0.80419002E+02 0.0000E+00 0.9000E+01
#aMCatNLO 1  0  0  1  2 0.82161650D+02 0.00000000D+00  -5  5  0 0.00000000D+00 0.00000000D+00 0.00000000D+00 0.00000000D+00 0.00000000D+00
  <mgrwgt>
 0.2021185582D+00    9    2    0
 0.247845379124840D+03 0.000000000000000D+00 0.000000000000000D+00 0.247845379124840D+03
 0.247845379124840D+03 0.000000000000000D+00 0.000000000000000D+00 -.247845379124840D+03
 0.257082775518881D+03 -.439010843435691D+02 -.108681027261534D+03 -.191644677920697D+03
 0.238607982730800D+03 0.439010843435691D+02 0.108681027261534D+03 0.191644677920697D+03
 0.000000000000000D+00 -.000000000000000D+00 0.000000000000000D+00 0.000000000000000D+00
 0.303778190925091D+03 0.000000000000000D+00 0.000000000000000D+00 0.303778190925091D+03
 0.283340973354682D+03 0.000000000000000D+00 0.000000000000000D+00 -.283340973354682D+03
 0.274006943786235D+03 -.258912348332690D+02 -.148515206718214D+03 -.191644677920697D+03
 0.228446899413096D+03 0.597394405284116D+02 0.736497560560192D+02 0.191644677920697D+03
 0.846653210804426D+02 -.338482056951426D+02 0.748654506621945D+02 0.204372175704096D+02
0.927914291904D-03 0.000000000000D+00 0.000000000000D+00 0.868728394508D-03 0.000000000000D+00  5 -1 2 25 24 21 0 0.80858395D-02 0.17980834D+00 0.24571661D+05 0.24571661D+05 0.24571661D+05 0.12241031D+01  1  2  2  1  5  1       -1 0.185908757452D+00 0.100000000000D+01
-.383956579686D-04 0.000000000000D+00 -.356343520636D-05 0.868728394508D-03 0.000000000000D+00  5 -1 2 25 24 21 2 0.80858395D-02 0.17980834D+00 0.24571661D+05 0.24571661D+05 0.24571661D+05 0.12241031D+01  1  2  3  1  5  1       -1 -.115268362770D-01 0.100000000000D+01
0.627784039473D-04 0.000000000000D+00 0.000000000000D+00 0.868728394508D-03 0.000000000000D+00  5 -1 2 25 24 21 2 0.80858395D-02 0.17980834D+00 0.24571661D+05 0.24571661D+05 0.24571661D+05 0.12241031D+01  1  2 15  1  5  1       -1 0.188468285822D-01 0.100000000000D+01
0.311399452039D-03 0.000000000000D+00 0.000000000000D+00 0.868728394508D-03 0.000000000000D+00  5 -1 2 25 24 21 2 0.10381901D-01 0.17980834D+00 0.40468986D+05 0.40468986D+05 0.40468986D+05 0.12014865D+01  1  2 12  1  5  1       -1 0.614510228077D-01 0.100000000000D+01
-.508596012250D-03 0.000000000000D+00 0.000000000000D+00 0.868728394508D-03 0.000000000000D+00  5 -1 2 25 24 21 2 0.80858395D-02 0.17980834D+00 0.24571661D+05 0.24571661D+05 0.24571661D+05 0.12241031D+01  1  2  4  1  5  1       -1 -.152686612876D+00 0.100000000000D+01
-.681716635877D-03 0.000000000000D+00 -.394366716353D-03 0.868728394508D-03 0.000000000000D+00  5 -1 2 25 24 21 2 0.11393007D-01 0.17980834D+00 0.24571661D+05 0.24571661D+05 0.24571661D+05 0.12241031D+01  1  2  5  1  5  1       -1 -.121172795682D+00 0.100000000000D+01
0.792021232903D-03 0.000000000000D+00 0.372267633141D-03 0.868728394508D-03 0.000000000000D+00  5 -1 2 25 24 21 2 0.80858395D-02 0.17980834D+00 0.24571661D+05 0.24571661D+05 0.24571661D+05 0.12241031D+01  1  2  6  1  5  1       -1 0.237774257888D+00 0.100000000000D+01
0.105371990463D-04 0.000000000000D+00 0.000000000000D+00 0.868728394508D-03 0.000000000000D+00  5 21 2 25 24 1 2 0.10381901D-01 0.17980834D+00 0.40468986D+05 0.40468986D+05 0.40468986D+05 0.12014865D+01  1  2 12  3  5  1       -1 0.306564283805D-01 0.100000000000D+01
-.181938314084D-04 0.000000000000D+00 -.167856746986D-04 0.868728394508D-03 0.000000000000D+00  5 21 2 25 24 1 2 0.11393007D-01 0.17980834D+00 0.24571661D+05 0.24571661D+05 0.24571661D+05 0.12241031D+01  1  2  5  3  5  1       -1 -.471324921099D-01 0.100000000000D+01
  </mgrwgt>
  </event>
  <event>
  4     66 0.45252658E-03 0.25090406E+03 0.75467711E-02 0.94563862E-01
       -1 -1    0    0    0  501 0.00000000E+00 0.00000000E+00 0.26933264E+03 0.26933283E+03 0.32000000E+00 0.0000E+00 0.9000E+01
        2 -1    0    0  501    0 0.00000000E+00 0.00000000E+00 -.46204719E+03 0.46204730E+03 0.32000000E+00 0.0000E+00 0.9000E+01
       25  1    1    2    0    0 0.22440544E+03 0.40400483E+02 -.35510332E+03 0.44012881E+03 0.12500000E+03 0.0000E+00 0.9000E+01
       24  1    1    2    0    0 -.22440544E+03 -.40400483E+02 0.16238877E+03 0.29125131E+03 0.80419002E+02 0.0000E+00 0.9000E+01
#aMCatNLO 1  0  0  2  2 0.81608276D+03 0.00000000D+00  -5  5  0 0.00000000D+00 0.00000000D+00 0.00000000D+00 0.00000000D+00 0.00000000D+00
  <mgrwgt>
 0.5480330449D+00    3    2    0
 0.352766916693569D+03 0.000000000000000D+00 0.000000000000000D+00 0.352766916693569D+03
 0.352766916693569D+03 0.000000000000000D+00 0.000000000000000D+00 -.352766916693569D+03
 0.359256884723638D+03 0.224405438270579D+03 0.404004830154934D+02 -.247892132727196D+03
 0.346276948663499D+03 -.224405438270579D+03 -.404004830154934D+02 0.247892132727196D+03
 0.000000000000000D+00 0.000000000000000D+00 0.000000000000000D+00 0.000000000000000D+00
 0.434558018980594D+04 0.000000000000000D+00 0.000000000000000D+00 0.434558018980594D+04
 0.583134592910715D+03 0.000000000000000D+00 0.000000000000000D+00 -.583134592910715D+03
 0.359118759010344D+03 0.315457328015843D+02 -.225600621335810D+03 -.247892132727196D+03
 0.719662525627718D+03 -.510574345655897D+03 -.435097992328751D+03 0.247892132727196D+03
 0.384993349807859D+04 0.479028612854313D+03 0.660698613664561D+03 0.376244559689522D+04
0.117792103891D-01 0.000000000000D+00 0.000000000000D+00 0.101576269712D-02 0.000000000000D+00  5 -1 2 25 24 21 0 0.41435813D-01 0.71084206D-01 0.62952846D+05 0.62952846D+05 0.62952846D+05 0.11824990D+01  1  2  2  2  5  2        2 0.532645659045D+00 0.100000000000D+01
-.562023638551D-03 0.000000000000D+00 -.452352694315D-04 0.101576269712D-02 0.000000000000D+00  5 -1 2 25 24 21 2 0.41435813D-01 0.71084206D-01 0.62952846D+05 0.62952846D+05 0.62952846D+05 0.11824990D+01  1  2  3  2  5  2        2 -.355368006610D-01 0.100000000000D+01
0.805379101361D-03 0.000000000000D+00 0.000000000000D+00 0.101576269712D-02 0.000000000000D+00  5 -1 2 25 24 21 2 0.41435813D-01 0.71084206D-01 0.62952846D+05 0.62952846D+05 0.62952846D+05 0.11824990D+01  1  2 15  2  5  2        2 0.509241864905D-01 0.100000000000D+01
  </mgrwgt>
  </event>
  <event>
  4     66 0.45252658E-03 0.50025127E+02 0.75467711E-02 0.11596897E+00
       -1 -1    0    0    0  501 0.00000000E+00 0.00000000E+00 0.63500051E+03 0.63500059E+03 0.32000000E+00 0.0000E+00 0.9000E+01
        2 -1    0    0  501    0 0.00000000E+00 0.00000000E+00 -.28734342E+02 0.28736124E+02 0.32000000E+00 0.0000E+00 0.9000E+01
       25  1    1    2    0    0 -.58558779E+02 -.53950789E+02 0.25791556E+03 0.29746471E+03 0.12500000E+03 0.0000E+00 0.9000E+01
       24  1    1    2    0    0 0.58558779E+02 0.53950789E+02 0.34835060E+03 0.36627199E+03 0.80419002E+02 0.0000E+00 0.9000E+01
#aMCatNLO 1  0  0  1  2 0.98199742D+02 0.00000000D+00  -5  5  0 0.00000000D+00 0.00000000D+00 0.00000000D+00 0.00000000D+00 0.00000000D+00
  <mgrwgt>
 0.2386837290D+00    7    2    0
 0.135081233709462D+03 0.000000000000000D+00 0.000000000000000D+00 0.135081233709462D+03
 0.135081233709462D+03 0.000000000000000D+00 0.000000000000000D+00 -.135081233709462D+03
 0.152029894515533D+03 -.585587789643649D+02 -.539507894194654D+02 -.338861410258436D+02
 0.118132572903390D+03 0.585587789643649D+02 0.539507894194654D+02 0.338861410258436D+02
 0.000000000000000D+00 0.000000000000000D+00 -.000000000000000D+00 0.000000000000000D+00
 0.262587086172345D+03 0.000000000000000D+00 0.000000000000000D+00 0.262587086172345D+03
 0.164010815267271D+03 0.000000000000000D+00 0.000000000000000D+00 -.164010815267271D+03
 0.168320675585274D+03 -.105193241844467D+03 -.222027283483605D+02 -.338861410258436D+02
 0.119135317870580D+03 0.240189289448786D+02 0.774650147387269D+02 0.338861410258436D+02
 0.139141907983762D+03 0.811743128995884D+02 -.552622863903664D+02 0.985762709050738D+02
0.120576360259D-02 0.000000000000D+00 0.000000000000D+00 0.241198347337D-02 0.000000000000D+00  5 -1 2 25 24 21 0 0.97692529D-01 0.44208112D-02 0.17079026D+05 0.17079026D+05 0.17079026D+05 0.12414468D+01  1  2  2  1  5  1       -1 0.261877842723D+00 0.100000000000D+01
-.668977783481D-04 0.000000000000D+00 -.463044971877D-05 0.241198347337D-02 0.000000000000D+00  5 -1 2 25 24 21 2 0.97692529D-01 0.44208112D-02 0.17079026D+05 0.17079026D+05 0.17079026D+05 0.12414468D+01  1  2  3  1  5  1       -1 -.223926008765D-01 0.100000000000D+01
0.834542959844D-04 0.000000000000D+00 0.000000000000D+00 0.241198347337D-02 0.000000000000D+00  5 -1 2 25 24 21 2 0.97692529D-01 0.44208112D-02 0.17079026D+05 0.17079026D+05 0.17079026D+05 0.12414468D+01  1  2 15  1  5  1       -1 0.279345411396D-01 0.100000000000D+01
0.890810011526D-04 0.000000000000D+00 0.000000000000D+00 0.241198347337D-02 0.000000000000D+00  5 -1 2 25 24 21 2 0.19175231D+00 0.44208112D-02 0.35586688D+05 0.35586688D+05 0.35586688D+05 0.12071906D+01  1  2 12  1  5  1       -1 0.520193658886D-02 0.100000000000D+01
-.563692499324D-03 0.000000000000D+00 -.311945759539D-03 0.241198347337D-02 0.000000000000D+00  5 -1 2 25 24 21 2 0.21098594D+00 0.44208112D-02 0.17079026D+05 0.17079026D+05 0.17079026D+05 0.12414468D+01  1  2  5  1  5  1       -1 -.260026654914D-01 0.100000000000D+01
0.650707705732D-05 0.000000000000D+00 0.000000000000D+00 0.241198347337D-02 0.000000000000D+00  5 21 2 25 24 1 2 0.19175231D+00 0.44208112D-02 0.35586688D+05 0.35586688D+05 0.35586688D+05 0.12071906D+01  1  2 12  3  5  1       -1 0.319973611882D-02 0.100000000000D+01
-.274427536310D-04 0.000000000000D+00 -.260039539386D-04 0.241198347337D-02 0.000000000000D+00  5 21 2 25 24 1 2 0.21098594D+00 0.44208112D-02 0.17079026D+05 0.17079026D+05 0.17079026D+05 0.12414468D+01  1  2  5  3  5  1       -1 -.111350611543D-01 0.100000000000D+01
  </mgrwgt>
  </event>
  <event>
  4     66 0.45252658E-03 0.52148253E+02 0.75467711E-02 0.11967190E+00
       -1 -1    0    0    0  501 0.00000000E+00 0.00000000E+00 0.15199408E+03 0.15199442E+03 0.32000000E+00 0.0000E+00 0.9000E+01
        2 -1    0    0  501    0 0.00000000E+00 0.00000000E+00 -.79938583E+02 0.79939224E+02 0.32000000E+00 0.0000E+00 0.9000E+01
       25  1    1    2    0    0 -.15115957E+02 0.38098447E+01 0.49921768E+01 0.12606716E+03 0.12500000E+03 0.0000E+00 0.9000E+01
       24  1    1    2    0    0 0.15115957E+02 -.38098447E+01 0.67063322E+02 0.10586648E+03 0.80419002E+02 0.0000E+00 0.9000E+01
#aMCatNLO 1  0  0  2  1 0.82436985D+02 0.00000000D+00  -5  5  0 0.00000000D+00 0.00000000D+00 0.00000000D+00 0.00000000D+00 0.00000000D+00
  <mgrwgt>
 0.2597372675D+00    7    2    0
 0.110228421918806D+03 0.000000000000000D+00 0.000000000000000D+00 0.110228421918806D+03
 0.110228421918806D+03 0.000000000000000D+00 0.000000000000000D+00 -.110228421918806D+03
 0.130998437233856D+03 -.151159572267542D+02 0.380984466602824D+01 -.359525169974540D+02
 0.894584066037568D+02 0.151159572267542D+02 -.380984466602824D+01 0.359525169974540D+02
 0.000000000000000D+00 -.000000000000000D+00 0.000000000000000D+00 -.000000000000000D+00
 0.137453854368992D+03 0.000000000000000D+00 0.000000000000000D+00 0.137453854368992D+03
 0.203615321617516D+03 0.000000000000000D+00 0.000000000000000D+00 -.203615321617516D+03
 0.137070801206902D+03 -.304838361099645D+01 -.431454333899895D+02 -.359525169974540D+02
 0.982950341696009D+02 0.235679843273759D+02 -.366969266332319D+02 0.359525169974540D+02
 0.105703340610006D+03 -.205196007163795D+02 0.798423600232215D+02 -.661614672485242D+02
0.442182159815D-03 0.000000000000D+00 0.000000000000D+00 0.273695164819D-02 0.000000000000D+00  5 -1 2 25 24 21 0 0.23383780D-01 0.12298319D-01 0.10803963D+05 0.10803963D+05 0.10803963D+05 0.12644035D+01  1  2  2  2  5  2        2 0.359932361276D+00 0.100000000000D+01
-.244626863865D-04 0.000000000000D+00 -.169809592293D-05 0.273695164819D-02 0.000000000000D+00  5 -1 2 25 24 21 2 0.23383780D-01 0.12298319D-01 0.10803963D+05 0.10803963D+05 0.10803963D+05 0.12644035D+01  1  2  3  2  5  2        2 -.318342944622D-01 0.100000000000D+01
0.302788898002D-04 0.000000000000D+00 0.000000000000D+00 0.273695164819D-02 0.000000000000D+00  5 -1 2 25 24 21 2 0.23383780D-01 0.12298319D-01 0.10803963D+05 0.10803963D+05 0.10803963D+05 0.12644035D+01  1  2 15  2  5  2        2 0.394031578813D-01 0.100000000000D+01
0.247678176797D-04 0.000000000000D+00 0.000000000000D+00 0.273695164819D-02 0.000000000000D+00  5 -1 2 25 24 21 2 0.23383780D-01 0.23151150D-01 0.23438507D+05 0.23438507D+05 0.23438507D+05 0.12263121D+01  1  2 12  2  5  2        2 0.150081005446D-01 0.100000000000D+01
-.208390185224D-03 0.000000000000D+00 -.168293178395D-03 0.273695164819D-02 0.000000000000D+00  5 -1 2 25 24 21 2 0.23383780D-01 0.27897377D-01 0.10803963D+05 0.10803963D+05 0.10803963D+05 0.12644035D+01  1  2  5  2  5  2        2 -.107200328026D+00 0.100000000000D+01
0.170449529741D-05 0.000000000000D+00 0.000000000000D+00 0.273695164819D-02 0.000000000000D+00  5 -1 21 25 24 -2 2 0.23383780D-01 0.23151150D-01 0.23438507D+05 0.23438507D+05 0.23438507D+05 0.12263121D+01  1  2 12  4  5  2        2 0.635627366858D-02 0.100000000000D+01
-.790421962780D-05 0.000000000000D+00 -.149800035629D-04 0.273695164819D-02 0.000000000000D+00  5 -1 21 25 24 -2 2 0.23383780D-01 0.27897377D-01 0.10803963D+05 0.10803963D+05 0.10803963D+05 0.12644035D+01  1  2  5  4  5  2        2 -.219280033795D-01 0.100000000000D+01
  </mgrwgt>
  </event>
  <event>
  4     66 0.45252658E-03 0.60423853E+02 0.75467711E-02 0.12446850E+00
       -1 -1    0    0    0  501 0.00000000E+00 0.00000000E+00 0.13536392E+02 0.13540174E+02 0.32000000E+00 0.0000E+00 0.9000E+01
        2 -1    0    0  501    0 0.00000000E+00 0.00000000E+00 -.88181847E+03 0.88181853E+03 0.32000000E+00 0.0000E+00 0.9000E+01
       25  1    1    2    0    0 -.22139351E+02 0.28163305E+02 -.48901606E+03 0.50600892E+03 0.12500000E+03 0.0000E+00 0.9000E+01
       24  1    1    2    0    0 0.22139351E+02 -.28163305E+02 -.37926602E+03 0.38934978E+03 0.80419002E+02 0.0000E+00 0.9000E+01
#aMCatNLO 1  0  0  2  1 0.19175401D+02 0.00000000D+00  -5  5  0 0.00000000D+00 0.00000000D+00 0.00000000D+00 0.00000000D+00 0.00000000D+00
  <mgrwgt>
 0.5578025335D+00    9    2    0
 0.109262800766546D+03 0.000000000000000D+00 0.000000000000000D+00 0.109262800766546D+03
 0.109262800766546D+03 0.000000000000000D+00 0.000000000000000D+00 -.109262800766546D+03
 0.130216373211564D+03 -.221393508074960D+02 0.281633051634382D+02 0.692684924528597D+01
 0.883092283215280D+02 0.221393508074960D+02 -.281633051634382D+02 -.692684924528597D+01
 0.000000000000000D+00 -.000000000000000D+00 -.000000000000000D+00 -.000000000000000D+00
 0.116733988731074D+03 0.000000000000000D+00 0.000000000000000D+00 0.116733988731074D+03
 0.122719038440760D+03 0.000000000000000D+00 0.000000000000000D+00 -.122719038440760D+03
 0.131296340190510D+03 -.145956505387699D+02 0.367792698718360D+02 0.692684924528597D+01
 0.880689590665722D+02 0.272272265068749D+02 -.223522368673796D+02 -.692684924528597D+01
 0.200877279147517D+02 -.126315759681050D+02 -.144270330044564D+02 -.598504970968577D+01
0.123699099870D-03 0.000000000000D+00 0.000000000000D+00 0.302189584253D-02 0.000000000000D+00  5 -1 2 25 24 21 0 0.20828172D-02 0.13566467D+00 0.11888538D+05 0.11888538D+05 0.11888538D+05 0.12594994D+01  1  2  2  2  5  2        2 0.264963060665D+00 0.100000000000D+01
-.687213568333D-05 0.000000000000D+00 -.475037114222D-06 0.302189584253D-02 0.000000000000D+00  5 -1 2 25 24 21 2 0.20828172D-02 0.13566467D+00 0.11888538D+05 0.11888538D+05 0.11888538D+05 0.12594994D+01  1  2  3  2  5  2        2 -.233510505291D-01 0.100000000000D+01
0.852694653479D-05 0.000000000000D+00 0.000000000000D+00 0.302189584253D-02 0.000000000000D+00  5 -1 2 25 24 21 2 0.20828172D-02 0.13566467D+00 0.11888538D+05 0.11888538D+05 0.11888538D+05 0.12594994D+01  1  2 15  2  5  2        2 0.289739854636D-01 0.100000000000D+01
0.185706687928D-03 0.000000000000D+00 0.000000000000D+00 0.302189584253D-02 0.000000000000D+00  5 -1 2 25 24 21 2 0.20828172D-02 0.15655618D+00 0.14171119D+05 0.14171119D+05 0.14171119D+05 0.12506467D+01  1  2 12  2  5  2        2 0.517855880352D+00 0.100000000000D+01
-.173218774939D-03 0.000000000000D+00 0.000000000000D+00 0.302189584253D-02 0.000000000000D+00  5 -1 2 25 24 21 2 0.20828172D-02 0.13566467D+00 0.11888538D+05 0.11888538D+05 0.11888538D+05 0.12594994D+01  1  2  4  2  5  2        2 -.588585638085D+00 0.100000000000D+01
-.500600992629D-03 0.000000000000D+00 -.115873194937D-03 0.302189584253D-02 0.000000000000D+00  5 -1 2 25 24 21 2 0.20828172D-02 0.15935631D+00 0.11888538D+05 0.11888538D+05 0.11888538D+05 0.12594994D+01  1  2  5  2  5  2        2 -.137271334418D+01 0.100000000000D+01
0.514063159006D-03 0.000000000000D+00 0.114388266232D-03 0.302189584253D-02 0.000000000000D+00  5 -1 2 25 24 21 2 0.20828172D-02 0.13566467D+00 0.11888538D+05 0.11888538D+05 0.11888538D+05 0.12594994D+01  1  2  6  2  5  2        2 0.174675171653D+01 0.100000000000D+01
0.408003692858D-05 0.000000000000D+00 0.000000000000D+00 0.302189584253D-02 0.000000000000D+00  5 -1 21 25 24 -2 2 0.20828172D-02 0.15655618D+00 0.14171119D+05 0.14171119D+05 0.14171119D+05 0.12506467D+01  1  2 12  4  5  2        2 0.972523619897D-02 0.100000000000D+01
-.111731399368D-04 0.000000000000D+00 -.279738850481D-05 0.302189584253D-02 0.000000000000D+00  5 -1 21 25 24 -2 2 0.20828172D-02 0.15935631D+00 0.11888538D+05 0.11888538D+05 0.11888538D+05 0.12594994D+01  1  2  5  4  5  2        2 -.258173129306D-01 0.100000000000D+01
  </mgrwgt>
  </event>
  <event>
  4     66 0.45252658E-03 0.53930001E+02 0.75467711E-02 0.11910059E+00
       -1 -1    0    0    0  501 0.00000000E+00 0.00000000E+00 0.16837419E+02 0.16840460E+02 0.32000000E+00 0.0000E+00 0.9000E+01
        2 -1    0    0  501    0 0.00000000E+00 0.00000000E+00 -.12212051E+04 0.12212051E+04 0.32000000E+00 0.0000E+00 0.9000E+01
       25  1    1    2    0    0 0.25176771E-01 -.98734937E+02 -.64805969E+03 0.66734919E+03 0.12500000E+03 0.0000E+00 0.9000E+01
       24  1    1    2    0    0 -.25176771E-01 0.98734937E+02 -.55630795E+03 0.57069637E+03 0.80419002E+02 0.0000E+00 0.9000E+01
#aMCatNLO 1  0  0  2  1 0.27954571D+02 0.00000000D+00  -5  5  0 0.00000000D+00 0.00000000D+00 0.00000000D+00 0.00000000D+00 0.00000000D+00
  <mgrwgt>
 0.5985354900D+00    9    2    0
 0.143401008629435D+03 0.000000000000000D+00 0.000000000000000D+00 0.143401008629435D+03
 0.143401008629435D+03 0.000000000000000D+00 0.000000000000000D+00 -.143401008629435D+03
 0.159366349691461D+03 0.251767713966823D-01 -.987349367511294D+02 0.490357470235532D+01
 0.127435667567410D+03 -.251767713966823D-01 0.987349367511294D+02 -.490357470235532D+01
 0.000000000000000D+00 0.000000000000000D+00 0.000000000000000D+00 -.000000000000000D+00
 0.151086610797750D+03 0.000000000000000D+00 0.000000000000000D+00 0.151086610797750D+03
 0.171965775106182D+03 0.000000000000000D+00 0.000000000000000D+00 -.171965775106182D+03
 0.169660563903094D+03 -.208857199998150D+01 -.114591883508629D+03 0.490357470235532D+01
 0.118500597821197D+03 -.160513104663598D+01 0.868824161673239D+02 -.490357470235532D+01
 0.348912241796409D+02 0.369370304661748D+01 0.277094673413051D+02 -.208791643084322D+02
0.328996218591D-03 0.000000000000D+00 0.000000000000D+00 0.246445733182D-02 0.000000000000D+00  5 -1 2 25 24 21 0 0.25906093D-02 0.18787794D+00 0.20539502D+05 0.20539502D+05 0.20539502D+05 0.12325554D+01  1  2  2  2  5  2        2 0.331476407513D+00 0.100000000000D+01
-.182775599022D-04 0.000000000000D+00 -.126343210608D-05 0.246445733182D-02 0.000000000000D+00  5 -1 2 25 24 21 2 0.25906093D-02 0.18787794D+00 0.20539502D+05 0.20539502D+05 0.20539502D+05 0.12325554D+01  1  2  3  2  5  2        2 -.279764657386D-01 0.100000000000D+01
0.226757017121D-04 0.000000000000D+00 0.000000000000D+00 0.246445733182D-02 0.000000000000D+00  5 -1 2 25 24 21 2 0.25906093D-02 0.18787794D+00 0.20539502D+05 0.20539502D+05 0.20539502D+05 0.12325554D+01  1  2 15  2  5  2        2 0.347084619305D-01 0.100000000000D+01
0.562379008641D-03 0.000000000000D+00 0.000000000000D+00 0.246445733182D-02 0.000000000000D+00  5 -1 2 25 24 21 2 0.25906093D-02 0.22961450D+00 0.24955051D+05 0.24955051D+05 0.24955051D+05 0.12233814D+01  1  2 12  2  5  2        2 0.608998647967D+00 0.100000000000D+01
-.569487341049D-03 0.000000000000D+00 0.000000000000D+00 0.246445733182D-02 0.000000000000D+00  5 -1 2 25 24 21 2 0.25906093D-02 0.18787794D+00 0.20539502D+05 0.20539502D+05 0.20539502D+05 0.12325554D+01  1  2  4  2  5  2        2 -.871683264652D+00 0.100000000000D+01
-.108501948001D-02 0.000000000000D+00 -.231967684790D-03 0.246445733182D-02 0.000000000000D+00  5 -1 2 25 24 21 2 0.25906093D-02 0.23113620D+00 0.20539502D+05 0.20539502D+05 0.20539502D+05 0.12325554D+01  1  2  5  2  5  2        2 -.117493690590D+01 0.100000000000D+01
0.111397748734D-02 0.000000000000D+00 0.227075149279D-03 0.246445733182D-02 0.000000000000D+00  5 -1 2 25 24 21 2 0.25906093D-02 0.18787794D+00 0.20539502D+05 0.20539502D+05 0.20539502D+05 0.12325554D+01  1  2  6  2  5  2        2 0.170510468437D+01 0.100000000000D+01
0.161310790029D-04 0.000000000000D+00 0.000000000000D+00 0.246445733182D-02 0.000000000000D+00  5 -1 21 25 24 -2 2 0.25906093D-02 0.22961450D+00 0.24955051D+05 0.24955051D+05 0.24955051D+05 0.12233814D+01  1  2 12  4  5  2        2 0.887830977755D-02 0.100000000000D+01
-.290636294802D-04 0.000000000000D+00 -.682046108509D-05 0.246445733182D-02 0.000000000000D+00  5 -1 21 25 24 -2 2 0.25906093D-02 0.23113620D+00 0.20539502D+05 0.20539502D+05 0.20539502D+05 0.12325554D+01  1  2  5  4  5  2        2 -.160343852415D-01 0.100000000000D+01
  </mgrwgt>
  </event>
  <event>
  4     66 0.45252658E-03 0.10523980E+03 0.75467711E-02 0.10747322E+00
       -1 -1    0    0    0  501 0.00000000E+00 0.00000000E+00 0.59729018E+02 0.59729876E+02 0.32000000E+00 0.0000E+00 0.9000E+01
        2 -1    0    0  501    0 0.00000000E+00 0.00000000E+00 -.32354973E+03 0.32354989E+03 0.32000000E+00 0.0000E+00 0.9000E+01
       25  1    1    2    0    0 -.14630278E+02 0.16985955E+02 -.23867027E+02 0.12921766E+03 0.12500000E+03 0.0000E+00 0.9000E+01
       24  1    1    2    0    0 0.14630278E+02 -.16985955E+02 -.23995369E+03 0.25406211E+03 0.80419002E+02 0.0000E+00 0.9000E+01
#aMCatNLO 1  0  0  2  1 0.28728263D+03 0.00000000D+00  -5  5  0 0.00000000D+00 0.00000000D+00 0.00000000D+00 0.00000000D+00 0.00000000D+00
  <mgrwgt>
 0.3713213556D+00    3    2    0
 0.139016195247385D+03 0.000000000000000D+00 0.000000000000000D+00 0.139016195247385D+03
 0.139016195247385D+03 0.000000000000000D+00 0.000000000000000D+00 -.139016195247385D+03
 0.155485111026106D+03 -.146302777515808D+02 0.169859554872149D+02 0.897109360106022D+02
 0.122547279468664D+03 0.146302777515808D+02 -.169859554872149D+02 -.897109360106022D+02
 0.000000000000000D+00 0.000000000000000D+00 0.000000000000000D+00 0.000000000000000D+00
 0.419546765774642D+03 0.000000000000000D+00 0.000000000000000D+00 0.419546765774642D+03
 0.293830400835871D+03 0.000000000000000D+00 0.000000000000000D+00 -.293830400835871D+03
 0.219481211560874D+03 -.114808638903603D+03 -.106385744446484D+03 0.897109360106022D+02
 0.180310381364815D+03 -.662830797876024D+02 -.116632409593244D+03 -.897109360106022D+02
 0.313585573684825D+03 0.181091718691206D+03 0.223018154039729D+03 0.125716364938771D+03
0.483893402544D-03 0.000000000000D+00 0.000000000000D+00 0.157057438673D-02 0.000000000000D+00  5 -1 2 25 24 21 0 0.91891579D-02 0.49776960D-01 0.11075415D+05 0.11075415D+05 0.11075415D+05 0.12631257D+01  1  2  2  2  5  2        2 0.361092065543D+00 0.100000000000D+01
-.243505348020D-04 0.000000000000D+00 -.185827807783D-05 0.157057438673D-02 0.000000000000D+00  5 -1 2 25 24 21 2 0.91891579D-02 0.49776960D-01 0.11075415D+05 0.11075415D+05 0.11075415D+05 0.12631257D+01  1  2  3  2  5  2        2 -.289914474894D-01 0.100000000000D+01
0.329423335637D-04 0.000000000000D+00 0.000000000000D+00 0.157057438673D-02 0.000000000000D+00  5 -1 2 25 24 21 2 0.91891579D-02 0.49776960D-01 0.11075415D+05 0.11075415D+05 0.11075415D+05 0.12631257D+01  1  2 15  2  5  2        2 0.392207375097D-01 0.100000000000D+01
  </mgrwgt>
  </event>
  <event>
  4     66 0.45252658E-03 0.17779533E+03 0.75467711E-02 0.11091723E+00
       -1 -1    0    0    0  501 0.00000000E+00 0.00000000E+00 0.24198460E+03 0.24198481E+03 0.32000000E+00 0.0000E+00 0.9000E+01
        2 -1    0    0  501    0 0.00000000E+00 0.00000000E+00 -.13220392E+03 0.13220431E+03 0.32000000E+00 0.0000E+00 0.9000E+01
       25  1    1    2    0    0 -.14128673E+03 -.27729868E+02 0.79163063E+02 0.20645260E+03 0.12500000E+03 0.0000E+00 0.9000E+01
       24  1    1    2    0    0 0.14128673E+03 0.27729868E+02 0.30617610E+02 0.16773652E+03 0.80419002E+02 0.0000E+00 0.9000E+01
#aMCatNLO 1  0  0  2  2 0.13350974D+03 0.00000000D+00  -5  5  0 0.00000000D+00 0.00000000D+00 0.00000000D+00 0.00000000D+00 0.00000000D+00
  <mgrwgt>
 0.4069462869D+00    3    2    0
 0.178861469414884D+03 0.000000000000000D+00 0.000000000000000D+00 0.178861469414884D+03
 0.178861469414884D+03 0.000000000000000D+00 0.000000000000000D+00 -.178861469414884D+03
 0.191661576776726D+03 -.141286730352653D+03 -.277298682902448D+02 0.194492735957748D+02
 0.166061362053041D+03 0.141286730352653D+03 0.277298682902448D+02 -.194492735957748D+02
 0.000000000000000D+00 0.000000000000000D+00 0.000000000000000D+00 0.000000000000000D+00
 0.315252128369871D+03 0.000000000000000D+00 0.000000000000000D+00 0.315252128369871D+03
 0.226751725577208D+03 0.000000000000000D+00 0.000000000000000D+00 -.226751725577208D+03
 0.219676333732212D+03 -.148038758060730D+03 -.101680595348668D+03 0.194492735957748D+02
 0.162148956207923D+03 0.135899225076922D+03 -.312760999013193D+02 -.194492735957748D+02
 0.160178564006944D+03 0.121395329838089D+02 0.132956695249988D+03 0.885004027926633D+02
0.186396110828D-02 0.000000000000D+00 0.000000000000D+00 0.221408766356D-02 0.000000000000D+00  5 -1 2 25 24 21 0 0.37228446D-01 0.20339111D-01 0.31611180D+05 0.31611180D+05 0.31611180D+05 0.12125211D+01  1  2  2  2  5  2        2 0.399241371157D+00 0.100000000000D+01
-.103548894686D-03 0.000000000000D+00 -.715810144802D-05 0.221408766356D-02 0.000000000000D+00  5 -1 2 25 24 21 2 0.37228446D-01 0.20339111D-01 0.31611180D+05 0.31611180D+05 0.31611180D+05 0.12125211D+01  1  2  3  2  5  2        2 -.326078962947D-01 0.100000000000D+01
0.128016450061D-03 0.000000000000D+00 0.000000000000D+00 0.221408766356D-02 0.000000000000D+00  5 -1 2 25 24 21 2 0.37228446D-01 0.20339111D-01 0.31611180D+05 0.31611180D+05 0.31611180D+05 0.12125211D+01  1  2 15  2  5  2        2 0.403128120321D-01 0.100000000000D+01
  </mgrwgt>
  </event>
  <event>
  5     66 0.45252658E-03 0.15397477E+03 0.75467711E-02 0.11556518E+00
       21 -1    0    0  502  501 0.00000000E+00 0.00000000E+00 0.23661393E+02 0.23673276E+02 0.75000000E+00 0.0000E+00 0.9000E+01
        2 -1    0    0  501    0 0.00000000E+00 0.00000000E+00 -.21667914E+04 0.21667914E+04 0.32000000E+00 0.0000E+00 0.9000E+01
       25  1    1    2    0    0 -.91698252E+02 -.12136047E+03 -.13504294E+04 0.13647056E+04 0.12500000E+03 0.0000E+00 0.9000E+01
       24  1    1    2    0    0 0.34131228E+02 0.80765053E+02 -.69614719E+03 0.70624080E+03 0.80419002E+02 0.0000E+00 0.9000E+01
        1  1    1    2  502    0 0.57567024E+02 0.40595414E+02 -.96553421E+02 0.11951826E+03 0.32000000E+00 0.0000E+00 0.9000E+01
#aMCatNLO 2  0  0  1  2 0.70441110D+02 0.00000000D+00  -5  5  0 0.00000000D+00 0.00000000D+00 0.00000000D+00 0.00000000D+00 0.00000000D+00
  <mgrwgt>
 0.1012384406D+00    2    2    0
 0.154419451772738D+03 0.000000000000000D+00 0.000000000000000D+00 0.154419451772738D+03
 0.154419451772738D+03 0.000000000000000D+00 0.000000000000000D+00 -.154419451772738D+03
 0.169245602138670D+03 -.579765032274205D+02 -.975803887495579D+02 -.116561849799554D+02
 0.139593301406806D+03 0.579765032274205D+02 0.975803887495579D+02 0.116561849799554D+02
 0.000000000000000D+00 0.000000000000000D+00 0.000000000000000D+00 0.000000000000000D+00
 0.307638548109948D+03 0.000000000000000D+00 0.000000000000000D+00 0.307638548109948D+03
 0.166696430743112D+03 0.000000000000000D+00 0.000000000000000D+00 -.166696430743112D+03
 0.197225250017152D+03 -.916982523273560D+02 -.121360467682643D+03 -.116561849799554D+02
 0.119545042556980D+03 0.341312283142496D+02 0.807650534021571D+02 0.116561849799554D+02
 0.157564686278927D+03 0.575670240131064D+02 0.405954142804861D+02 0.140942117366835D+03
-.477586496004D-04 0.000000000000D+00 0.000000000000D+00 0.236318279336D-02 0.000000000000D+00  5 21 2 25 24 1 2 0.36453820D-02 0.30880210D+00 0.37306349D+05 0.37306349D+05 0.37306349D+05 0.12050871D+01  1  2 13  3  5  1       -1 -.303216616769D+00 0.100000000000D+01
0.770137404153D-04 0.000000000000D+00 0.000000000000D+00 0.236318279336D-02 0.357066318395D-06  5 21 2 25 24 1 2 0.36411268D-02 0.33335313D+00 0.37306349D+05 0.37306349D+05 0.37306349D+05 0.12050871D+01  1  2  1  3  5  1       -1 0.404455057407D+00 0.100000000000D+01
  </mgrwgt>
  </event>
  <event>
  4     66 0.45252658E-03 0.10935747E+03 0.75467711E-02 0.11904360E+00
       -1 -1    0    0    0  501 0.00000000E+00 0.00000000E+00 0.32385345E+02 0.32386926E+02 0.32000000E+00 0.0000E+00 0.9000E+01
        2 -1    0    0  501    0 0.00000000E+00 0.00000000E+00 -.65350276E+03 0.65350284E+03 0.32000000E+00 0.0000E+00 0.9000E+01
       25  1    1    2    0    0 -.99369558E+02 -.21589178E+02 -.33221874E+03 0.36923528E+03 0.12500000E+03 0.0000E+00 0.9000E+01
       24  1    1    2    0    0 0.99369558E+02 0.21589178E+02 -.28889868E+03 0.31665449E+03 0.80419002E+02 0.0000E+00 0.9000E+01
#aMCatNLO 1  0  0  2  1 0.25077276D+02 0.00000000D+00  -5  5  0 0.00000000D+00 0.00000000D+00 0.00000000D+00 0.00000000D+00 0.00000000D+00
  <mgrwgt>
 0.4723803849D+00    9    2    0
 0.145480176062873D+03 0.000000000000000D+00 0.000000000000000D+00 0.145480176062873D+03
 0.145480176062873D+03 0.000000000000000D+00 0.000000000000000D+00 -.145480176062873D+03
 0.161217344338074D+03 -.993695581014463D+02 -.215891782406113D+02 0.506264960663821D+01
 0.129743007787671D+03 0.993695581014463D+02 0.215891782406113D+02 -.506264960663821D+01
 0.000000000000000D+00 0.000000000000000D+00 -.000000000000000D+00 -.000000000000000D+00
 0.151461287033984D+03 0.000000000000000D+00 0.000000000000000D+00 0.151461287033984D+03
 0.174910376806321D+03 0.000000000000000D+00 0.000000000000000D+00 -.174910376806321D+03
 0.162988424167203D+03 -.104128158576764D+03 -.848071829980471D+01 0.506264960663821D+01
 0.129050607979212D+03 0.955710586833906D+02 0.320528592567048D+02 -.506264960663821D+01
 0.343326316938899D+02 0.855709989337384D+01 -.235721409569001D+02 -.234490897723376D+02
0.326649107874D-03 0.000000000000D+00 0.000000000000D+00 0.244513591422D-02 0.000000000000D+00  5 -1 2 25 24 21 0 0.49824884D-02 0.10053901D+00 0.21138547D+05 0.21138547D+05 0.21138547D+05 0.12311876D+01  1  2  2  2  5  2        2 0.288719669205D+00 0.100000000000D+01
-.181471643670D-04 0.000000000000D+00 -.125441858292D-05 0.244513591422D-02 0.000000000000D+00  5 -1 2 25 24 21 2 0.49824884D-02 0.10053901D+00 0.21138547D+05 0.21138547D+05 0.21138547D+05 0.12311876D+01  1  2  3  2  5  2        2 -.243137618846D-01 0.100000000000D+01
0.225401352863D-04 0.000000000000D+00 0.000000000000D+00 0.244513591422D-02 0.000000000000D+00  5 -1 2 25 24 21 2 0.49824884D-02 0.10053901D+00 0.21138547D+05 0.21138547D+05 0.21138547D+05 0.12311876D+01  1  2 15  2  5  2        2 0.301995105744D-01 0.100000000000D+01
0.756047793713D-03 0.000000000000D+00 0.000000000000D+00 0.244513591422D-02 0.000000000000D+00  5 -1 2 25 24 21 2 0.49824884D-02 0.12265111D+00 0.25112475D+05 0.25112475D+05 0.25112475D+05 0.12230887D+01  1  2 12  2  5  2        2 0.790217718037D+00 0.100000000000D+01
-.767563746605D-03 0.000000000000D+00 0.000000000000D+00 0.244513591422D-02 0.000000000000D+00  5 -1 2 25 24 21 2 0.49824884D-02 0.10053901D+00 0.21138547D+05 0.21138547D+05 0.21138547D+05 0.12311876D+01  1  2  4  2  5  2        2 -.102838998913D+01 0.100000000000D+01
-.132171258385D-02 0.000000000000D+00 -.253536658960D-03 0.244513591422D-02 0.000000000000D+00  5 -1 2 25 24 21 2 0.49824884D-02 0.12387025D+00 0.21138547D+05 0.21138547D+05 0.21138547D+05 0.12311876D+01  1  2  5  2  5  2        2 -.137691434777D+01 0.100000000000D+01
0.135052993287D-02 0.000000000000D+00 0.248114211798D-03 0.244513591422D-02 0.000000000000D+00  5 -1 2 25 24 21 2 0.49824884D-02 0.10053901D+00 0.21138547D+05 0.21138547D+05 0.21138547D+05 0.12311876D+01  1  2  6  2  5  2        2 0.180945422335D+01 0.100000000000D+01
0.215358248290D-04 0.000000000000D+00 0.000000000000D+00 0.244513591422D-02 0.000000000000D+00  5 -1 21 25 24 -2 2 0.49824884D-02 0.12265111D+00 0.25112475D+05 0.25112475D+05 0.25112475D+05 0.12230887D+01  1  2 12  4  5  2        2 0.253774121117D-01 0.100000000000D+01
-.359316077109D-04 0.000000000000D+00 -.749498957572D-05 0.244513591422D-02 0.000000000000D+00  5 -1 21 25 24 -2 2 0.49824884D-02 0.12387025D+00 0.21138547D+05 0.21138547D+05 0.21138547D+05 0.12311876D+01  1  2  5  4  5  2        2 -.419700495855D-01 0.100000000000D+01
  </mgrwgt>
  </event>
  <event>
  4     66 0.45252658E-03 0.48878588E+02 0.75467711E-02 0.11270562E+00
       -1 -1    0    0    0  501 0.00000000E+00 0.00000000E+00 0.70406356E+02 0.70407083E+02 0.32000000E+00 0.0000E+00 0.9000E+01
        2 -1    0    0  501    0 0.00000000E+00 0.00000000E+00 -.60819069E+03 0.60819077E+03 0.32000000E+00 0.0000E+00 0.9000E+01
       25  1    1    2    0    0 0.82078076E+02 0.71712962E+02 -.51525388E+03 0.54128654E+03 0.12500000E+03 0.0000E+00 0.9000E+01
       24  1    1    2    0    0 -.82078076E+02 -.71712962E+02 -.22530452E+02 0.13731131E+03 0.80419002E+02 0.0000E+00 0.9000E+01
#aMCatNLO 1  0  0  2  1 0.13862969D+03 0.00000000D+00  -5  5  0 0.00000000D+00 0.00000000D+00 0.00000000D+00 0.00000000D+00 0.00000000D+00
  <mgrwgt>
 0.2372413379D+00    9    2    0
 0.206931788660072D+03 0.000000000000000D+00 0.000000000000000D+00 0.206931788660072D+03
 0.206931788660072D+03 0.000000000000000D+00 0.000000000000000D+00 -.206931788660072D+03
 0.217995560090416D+03 0.820780761440632D+02 0.717129619341068D+02 -.141483231254665D+03
 0.195868017229727D+03 -.820780761440632D+02 -.717129619341068D+02 0.141483231254665D+03
 0.000000000000000D+00 -.000000000000000D+00 -.000000000000000D+00 -.000000000000000D+00
 0.264532437007173D+03 0.000000000000000D+00 0.000000000000000D+00 0.264532437007173D+03
 0.322001744852496D+03 0.000000000000000D+00 0.000000000000000D+00 -.322001744852496D+03
 0.266236418956099D+03 0.136199990282022D+03 0.129185481767432D+03 -.141483231254665D+03
 0.170228071616674D+03 -.411600411026723D+02 -.282617533448727D+02 0.141483231254665D+03
 0.150069691286896D+03 -.950399491793494D+02 -.100923728422560D+03 -.574693078453226D+02
0.939244840090D-03 0.000000000000D+00 0.000000000000D+00 0.118706288304D-02 0.000000000000D+00  5 -1 2 25 24 21 0 0.10831809D-01 0.93567860D-01 0.22694708D+05 0.22694708D+05 0.22694708D+05 0.12278280D+01  1  2  2  2  5  2        2 0.280342946656D+00 0.100000000000D+01
-.457869450838D-04 0.000000000000D+00 -.360694749479D-05 0.118706288304D-02 0.000000000000D+00  5 -1 2 25 24 21 2 0.10831809D-01 0.93567860D-01 0.22694708D+05 0.22694708D+05 0.22694708D+05 0.12278280D+01  1  2  3  2  5  2        2 -.206028624774D-01 0.100000000000D+01
0.634363334835D-04 0.000000000000D+00 0.000000000000D+00 0.118706288304D-02 0.000000000000D+00  5 -1 2 25 24 21 2 0.10831809D-01 0.93567860D-01 0.22694708D+05 0.22694708D+05 0.22694708D+05 0.12278280D+01  1  2 15  2  5  2        2 0.285446004846D-01 0.100000000000D+01
0.467338150298D-05 0.000000000000D+00 0.000000000000D+00 0.118706288304D-02 0.000000000000D+00  5 -1 2 25 24 21 2 0.10831809D-01 0.15277869D+00 0.52628640D+05 0.52628640D+05 0.52628640D+05 0.11900843D+01  1  2 12  2  5  2        2 0.107487112871D-02 0.100000000000D+01
-.462890515900D-03 0.000000000000D+00 0.000000000000D+00 0.118706288304D-02 0.000000000000D+00  5 -1 2 25 24 21 2 0.10831809D-01 0.93567860D-01 0.22694708D+05 0.22694708D+05 0.22694708D+05 0.12278280D+01  1  2  4  2  5  2        2 -.208287965570D+00 0.100000000000D+01
-.310453686497D-03 0.000000000000D+00 -.352886587191D-03 0.118706288304D-02 0.000000000000D+00  5 -1 2 25 24 21 2 0.10831809D-01 0.17263303D+00 0.22694708D+05 0.22694708D+05 0.22694708D+05 0.12278280D+01  1  2  5  2  5  2        2 -.637838063292D-01 0.100000000000D+01
0.489151225940D-03 0.000000000000D+00 0.295672746358D-03 0.118706288304D-02 0.000000000000D+00  5 -1 2 25 24 21 2 0.10831809D-01 0.93567860D-01 0.22694708D+05 0.22694708D+05 0.22694708D+05 0.12278280D+01  1  2  6  2  5  2        2 0.220104560814D+00 0.100000000000D+01
0.259458212614D-06 0.000000000000D+00 0.000000000000D+00 0.118706288304D-02 0.000000000000D+00  5 -1 21 25 24 -2 2 0.10831809D-01 0.15277869D+00 0.52628640D+05 0.52628640D+05 0.52628640D+05 0.11900843D+01  1  2 12  4  5  2        2 0.495841758440D-04 0.100000000000D+01
-.131862553793D-05 0.000000000000D+00 -.235882285380D-04 0.118706288304D-02 0.000000000000D+00  5 -1 21 25 24 -2 2 0.10831809D-01 0.17263303D+00 0.22694708D+05 0.22694708D+05 0.22694708D+05 0.12278280D+01  1  2  5  4  5  2        2 -.200590945931D-03 0.100000000000D+01
  </mgrwgt>
  </event>
  <event>
  4     66 0.45252658E-03 0.11705119E+03 0.75467711E-02 0.11706752E+00
       -1 -1    0    0    0  501 0.00000000E+00 0.00000000E+00 0.28383536E+02 0.28385340E+02 0.32000000E+00 0.0000E+00 0.9000E+01
        2 -1    0    0  501    0 0.00000000E+00 0.00000000E+00 -.49371814E+03 0.49371824E+03 0.32000000E+00 0.0000E+00 0.9000E+01
       25  1    1    2    0    0 0.54998851E+02 0.35451038E+01 -.23220131E+03 0.26940655E+03 0.12500000E+03 0.0000E+00 0.9000E+01
       24  1    1    2    0    0 -.54998851E+02 -.35451038E+01 -.23313329E+03 0.25269703E+03 0.80419002E+02 0.0000E+00 0.9000E+01
#aMCatNLO 1  0  0  2  1 0.99859662D+02 0.00000000D+00  -5  5  0 0.00000000D+00 0.00000000D+00 0.00000000D+00 0.00000000D+00 0.00000000D+00
  <mgrwgt>
 0.4116414656D+00    3    2    0
 0.118380591453809D+03 0.000000000000000D+00 0.000000000000000D+00 0.118380591453809D+03
 0.118380591453809D+03 0.000000000000000D+00 0.000000000000000D+00 -.118380591453809D+03
 0.137720298945478D+03 0.549988506694902D+02 0.354510379003261D+01 0.174481920491718D+02
 0.990408839621411D+02 -.549988506694902D+02 -.354510379003261D+01 -.174481920491718D+02
 0.000000000000000D+00 -.000000000000000D+00 -.000000000000000D+00 0.000000000000000D+00
 0.209042268196462D+03 0.000000000000000D+00 0.000000000000000D+00 0.209042268196462D+03
 0.159424008149794D+03 0.000000000000000D+00 0.000000000000000D+00 -.159424008149794D+03
 0.171535291962176D+03 0.112988682752672D+03 0.269902677382102D+02 0.174481920491718D+02
 0.854234787073608D+02 -.204091529209707D+02 0.104394363526030D+02 -.174481920491718D+02
 0.111507505676719D+03 -.925795298317013D+02 -.374297040908132D+02 0.496182600466679D+02
0.278076181376D-03 0.000000000000D+00 0.000000000000D+00 0.276228624080D-02 0.000000000000D+00  5 -1 2 25 24 21 0 0.43668445D-02 0.75956784D-01 0.13700981D+05 0.13700981D+05 0.13700981D+05 0.12523324D+01  1  2  2  2  5  2        2 0.403007294669D+00 0.100000000000D+01
-.154462810855D-04 0.000000000000D+00 -.106788575562D-05 0.276228624080D-02 0.000000000000D+00  5 -1 2 25 24 21 2 0.43668445D-02 0.75956784D-01 0.13700981D+05 0.13700981D+05 0.13700981D+05 0.12523324D+01  1  2  3  2  5  2        2 -.351084998352D-01 0.100000000000D+01
0.192449575273D-04 0.000000000000D+00 0.000000000000D+00 0.276228624080D-02 0.000000000000D+00  5 -1 2 25 24 21 2 0.43668445D-02 0.75956784D-01 0.13700981D+05 0.13700981D+05 0.13700981D+05 0.12523324D+01  1  2 15  2  5  2        2 0.437426707719D-01 0.100000000000D+01
  </mgrwgt>
  </event>
  <event>
  4     66 0.45252658E-03 0.53842549E+02 0.75467711E-02 0.12630043E+00
       -1 -1    0    0    0  501 0.00000000E+00 0.00000000E+00 0.11285206E+03 0.11285251E+03 0.32000000E+00 0.0000E+00 0.9000E+01
        2 -1    0    0  501    0 0.00000000E+00 0.00000000E+00 -.10201431E+03 0.10201481E+03 0.32000000E+00 0.0000E+00 0.9000E+01
       25  1    1    2    0    0 -.14295300E+02 -.21681877E+02 0.22243854E+02 0.12959262E+03 0.12500000E+03 0.0000E+00 0.9000E+01
       24  1    1    2    0    0 0.14295300E+02 0.21681877E+02 -.11406104E+02 0.85274701E+02 0.80419002E+02 0.0000E+00 0.9000E+01
#aMCatNLO 1  0  0  1  2 0.51570929D+01 0.00000000D+00  -5  5  0 0.00000000D+00 0.00000000D+00 0.00000000D+00 0.00000000D+00 0.00000000D+00
  <mgrwgt>
 0.3413253900D+00    8    2    0
 0.107296913667879D+03 0.000000000000000D+00 0.000000000000000D+00 0.107296913667879D+03
 0.107296913667879D+03 0.000000000000000D+00 0.000000000000000D+00 -.107296913667879D+03
 0.128634396109303D+03 -.142953003244006D+02 -.216818768277086D+02 0.157273159906076D+02
 0.859594312264553D+02 0.142953003244006D+02 0.216818768277086D+02 -.157273159906076D+02
 0.000000000000000D+00 0.000000000000000D+00 0.000000000000000D+00 -.000000000000000D+00
 0.109791620983133D+03 0.000000000000000D+00 0.000000000000000D+00 0.109791620983133D+03
 0.110026608541175D+03 0.000000000000000D+00 0.000000000000000D+00 -.110026608541175D+03
 0.129281838284165D+03 -.165044717382759D+02 -.238547197532261D+02 0.157273159906076D+02
 0.853739474231408D+02 0.128277509735602D+02 0.202384604387432D+02 -.157273159906076D+02
 0.516244381700279D+01 0.367672076471572D+01 0.361625931448291D+01 -.234987558041381D+00
0.228205276818D-03 0.000000000000D+00 0.000000000000D+00 0.303449787702D-02 0.000000000000D+00  5 -1 2 25 24 21 0 0.17361929D-01 0.15694583D-01 0.11254851D+05 0.11254851D+05 0.11254851D+05 0.12623002D+01  1  2  2  1  5  1       -1 0.224889979962D+00 0.100000000000D+01
-.126760947498D-04 0.000000000000D+00 -.876368350809D-06 0.303449787702D-02 0.000000000000D+00  5 -1 2 25 24 21 2 0.17361929D-01 0.15694583D-01 0.11254851D+05 0.11254851D+05 0.11254851D+05 0.12623002D+01  1  2  3  1  5  1       -1 -.199046815313D-01 0.100000000000D+01
0.157792750043D-04 0.000000000000D+00 0.000000000000D+00 0.303449787702D-02 0.000000000000D+00  5 -1 2 25 24 21 2 0.17361929D-01 0.15694583D-01 0.11254851D+05 0.11254851D+05 0.11254851D+05 0.12623002D+01  1  2 15  1  5  1       -1 0.247774610362D-01 0.100000000000D+01
0.147327105841D-03 0.000000000000D+00 0.000000000000D+00 0.303449787702D-02 0.000000000000D+00  5 -1 2 25 24 21 2 0.17981152D-01 0.15694583D-01 0.11814773D+05 0.11814773D+05 0.11814773D+05 0.12598167D+01  1  2 12  1  5  1       -1 0.218489769516D+00 0.100000000000D+01
-.395570195875D-03 0.000000000000D+00 0.000000000000D+00 0.303449787702D-02 0.000000000000D+00  5 -1 2 25 24 21 2 0.17361929D-01 0.15694583D-01 0.11254851D+05 0.11254851D+05 0.11254851D+05 0.12623002D+01  1  2  4  1  5  1       -1 -.621145465349D+00 0.100000000000D+01
0.287660121148D-03 0.000000000000D+00 0.000000000000D+00 0.303449787702D-02 0.966347787552D-03  5 -1 2 25 24 21 2 0.17765603D-01 0.16093862D-01 0.11814773D+05 0.11814773D+05 0.11814773D+05 0.12598167D+01  1  2 11  1  5  1       -1 0.422379460024D+00 0.100000000000D+01
0.209093916200D-05 0.000000000000D+00 0.000000000000D+00 0.303449787702D-02 0.000000000000D+00  5 21 2 25 24 1 2 0.17981152D-01 0.15694583D-01 0.11814773D+05 0.11814773D+05 0.11814773D+05 0.12598167D+01  1  2 12  3  5  1       -1 0.410863591580D-01 0.100000000000D+01
0.260114452695D-05 0.000000000000D+00 0.000000000000D+00 0.303449787702D-02 0.407798329437D-05  5 21 2 25 24 1 2 0.17765603D-01 0.16093862D-01 0.11814773D+05 0.11814773D+05 0.11814773D+05 0.12598167D+01  1  2 11  3  5  1       -1 0.507525071726D-01 0.100000000000D+01
  </mgrwgt>
  </event>
  <event>
  4     66 0.45252658E-03 0.60505459E+02 0.75467711E-02 0.11738799E+00
       -1 -1    0    0    0  501 0.00000000E+00 0.00000000E+00 0.49466503E+02 0.49467538E+02 0.32000000E+00 0.0000E+00 0.9000E+01
        2 -1    0    0  501    0 0.00000000E+00 0.00000000E+00 -.45023198E+03 0.45023209E+03 0.32000000E+00 0.0000E+00 0.9000E+01
       25  1    1    2    0    0 0.61473751E+02 -.67404763E+02 -.31477288E+03 0.35075546E+03 0.12500000E+03 0.0000E+00 0.9000E+01
       24  1    1    2    0    0 -.61473751E+02 0.67404763E+02 -.85992590E+02 0.14894417E+03 0.80419002E+02 0.0000E+00 0.9000E+01
#aMCatNLO 1  0  0  1  2 0.63816180D+02 0.00000000D+00  -5  5  0 0.00000000D+00 0.00000000D+00 0.00000000D+00 0.00000000D+00 0.00000000D+00
  <mgrwgt>
 0.2892913009D+00    9    2    0
 0.149237021064649D+03 0.000000000000000D+00 0.000000000000000D+00 0.149237021064649D+03
 0.149237021064649D+03 0.000000000000000D+00 0.000000000000000D+00 -.149237021064649D+03
 0.164578026902708D+03 0.614737506466477D+02 -.674047625344946D+02 -.560223429382488D+02
 0.133896015226590D+03 -.614737506466477D+02 0.674047625344946D+02 0.560223429382488D+02
 0.000000000000000D+00 0.000000000000000D+00 -.000000000000000D+00 0.000000000000000D+00
 0.268015800803748D+03 0.000000000000000D+00 0.000000000000000D+00 0.268015800803748D+03
 0.161432149745681D+03 0.000000000000000D+00 0.000000000000000D+00 -.161432149745681D+03
 0.150638197297340D+03 0.515984353135035D+02 -.355804026101406D+02 -.560223429382488D+02
 0.154581819526405D+03 -.705113869296092D+02 0.965296036389653D+02 0.560223429382488D+02
 0.124227933725684D+03 0.189129516161057D+02 -.609492010288246D+02 0.106583651058067D+03
0.454837177791D-03 0.000000000000D+00 0.000000000000D+00 0.210477634278D-02 0.000000000000D+00  5 -1 2 25 24 21 0 0.76103196D-02 0.69266546D-01 0.19094019D+05 0.19094019D+05 0.19094019D+05 0.12360486D+01  1  2  2  1  5  1       -1 0.323056090908D+00 0.100000000000D+01
-.250867140225D-04 0.000000000000D+00 -.174669452410D-05 0.210477634278D-02 0.000000000000D+00  5 -1 2 25 24 21 2 0.76103196D-02 0.69266546D-01 0.19094019D+05 0.19094019D+05 0.19094019D+05 0.12360486D+01  1  2  3  1  5  1       -1 -.272230565811D-01 0.100000000000D+01
0.313887072610D-04 0.000000000000D+00 0.000000000000D+00 0.210477634278D-02 0.000000000000D+00  5 -1 2 25 24 21 2 0.76103196D-02 0.69266546D-01 0.19094019D+05 0.19094019D+05 0.19094019D+05 0.12360486D+01  1  2 15  1  5  1       -1 0.340617170111D-01 0.100000000000D+01
0.407168134948D-03 0.000000000000D+00 0.000000000000D+00 0.210477634278D-02 0.000000000000D+00  5 -1 2 25 24 21 2 0.13757799D-01 0.69266546D-01 0.30227742D+05 0.30227742D+05 0.30227742D+05 0.12145538D+01  1  2 12  1  5  1       -1 0.173801629942D+00 0.100000000000D+01
-.526445778775D-03 0.000000000000D+00 0.000000000000D+00 0.210477634278D-02 0.000000000000D+00  5 -1 2 25 24 21 2 0.76103196D-02 0.69266546D-01 0.19094019D+05 0.19094019D+05 0.19094019D+05 0.12360486D+01  1  2  4  1  5  1       -1 -.571277019766D+00 0.100000000000D+01
-.567067487212D-03 0.000000000000D+00 -.134622539167D-03 0.210477634278D-02 0.000000000000D+00  5 -1 2 25 24 21 2 0.14687325D-01 0.69266546D-01 0.19094019D+05 0.19094019D+05 0.19094019D+05 0.12360486D+01  1  2  5  1  5  1       -1 -.224597751144D+00 0.100000000000D+01
0.555717115622D-03 0.000000000000D+00 0.109982237480D-03 0.210477634278D-02 0.000000000000D+00  5 -1 2 25 24 21 2 0.76103196D-02 0.69266546D-01 0.19094019D+05 0.19094019D+05 0.19094019D+05 0.12360486D+01  1  2  6  1  5  1       -1 0.603041054644D+00 0.100000000000D+01
0.264159129054D-04 0.000000000000D+00 0.000000000000D+00 0.210477634278D-02 0.000000000000D+00  5 21 2 25 24 1 2 0.13757799D-01 0.69266546D-01 0.30227742D+05 0.30227742D+05 0.30227742D+05 0.12145538D+01  1  2 12  3  5  1       -1 0.156633041514D+00 0.100000000000D+01
-.326233729645D-04 0.000000000000D+00 -.960091682924D-05 0.210477634278D-02 0.000000000000D+00  5 21 2 25 24 1 2 0.14687325D-01 0.69266546D-01 0.19094019D+05 0.19094019D+05 0.19094019D+05 0.12360486D+01  1  2  5  3  5  1       -1 -.178204405659D+00 0.100000000000D+01
  </mgrwgt>
  </event>
  <event>
  5     66 0.45252658E-03 0.10439211E+03 0.75467711E-02 0.12408672E+00
       21 -1    0    0  502  501 0.00000000E+00 0.00000000E+00 0.25092579E+02 0.25103785E+02 0.75000000E+00 0.0000E+00 0.9000E+01
        2 -1    0    0  501    0 0.00000000E+00 0.00000000E+00 -.62630608E+03 0.62630616E+03 0.32000000E+00 0.0000E+00 0.9000E+01
       25  1    1    2    0    0 0.20228975E+02 -.54916403E+01 -.23370776E+03 0.26586404E+03 0.12500000E+03 0.0000E+00 0.9000E+01
       24  1    1    2    0    0 -.91175798E+01 -.24037064E+02 -.24965121E+03 0.26354099E+03 0.80419002E+02 0.0000E+00 0.9000E+01
        1  1    1    2  502    0 -.11111396E+02 0.29528704E+02 -.11785453E+03 0.12200492E+03 0.32000000E+00 0.0000E+00 0.9000E+01
#aMCatNLO 2  0  0  1  1 0.31550079D+02 0.00000000D+00  -5  5  0 0.00000000D+00 0.00000000D+00 0.00000000D+00 0.00000000D+00 0.00000000D+00
  <mgrwgt>
 0.1728453020D+00    1    2    0
 0.106815707996965D+03 0.000000000000000D+00 0.000000000000000D+00 0.106815707996965D+03
 0.106815707996965D+03 0.000000000000000D+00 0.000000000000000D+00 -.106815707996965D+03
 0.128249315977847D+03 0.135837027361182D+02 0.121682735774807D+02 0.221427908563045D+02
 0.853821000160819D+02 -.135837027361182D+02 -.121682735774807D+02 -.221427908563045D+02
 0.000000000000000D+00 -.000000000000000D+00 0.000000000000000D+00 -.000000000000000D+00
 0.117705916704604D+03 0.000000000000000D+00 0.000000000000000D+00 0.117705916704604D+03
 0.133545747193287D+03 0.000000000000000D+00 0.000000000000000D+00 -.133545747193287D+03
 0.128664963149316D+03 0.202289753230435D+02 -.549164025483927D+01 0.221427908563045D+02
 0.872836172453997D+02 -.911757978834847D+01 -.240370638175288D+02 -.221427908563045D+02
 0.353030835031749D+02 -.111113955346951D+02 0.295287040723681D+02 -.158398304886831D+02
0.449494112162D-05 0.000000000000D+00 0.000000000000D+00 0.299380734699D-02 0.492888901025D-06  5 21 2 25 24 1 2 0.38612422D-02 0.96355077D-01 0.14728687D+05 0.14728687D+05 0.14728687D+05 0.12487273D+01  1  2  1  3  5  1       -1 0.172845301953D+00 0.100000000000D+01
  </mgrwgt>
  </event>
  <event>
  4     66 0.45252658E-03 0.10833978E+03 0.75467711E-02 0.11780987E+00
       -1 -1    0    0    0  501 0.00000000E+00 0.00000000E+00 0.97710165E+02 0.97710689E+02 0.32000000E+00 0.0000E+00 0.9000E+01
        2 -1    0    0  501    0 0.00000000E+00 0.00000000E+00 -.12208909E+03 0.12208950E+03 0.32000000E+00 0.0000E+00 0.9000E+01
       25  1    1    2    0    0 -.31651574E+02 -.11668061E+02 -.85196628E+00 0.12947468E+03 0.12500000E+03 0.0000E+00 0.9000E+01
       24  1    1    2    0    0 0.31651574E+02 0.11668061E+02 -.23526954E+02 0.90325518E+02 0.80419002E+02 0.0000E+00 0.9000E+01
#aMCatNLO 1  0  0  2  1 0.10060052D+03 0.00000000D+00  -5  5  0 0.00000000D+00 0.00000000D+00 0.00000000D+00 0.00000000D+00 0.00000000D+00
  <mgrwgt>
 0.3234813915D+00    3    2    0
 0.109222014156748D+03 0.000000000000000D+00 0.000000000000000D+00 0.109222014156748D+03
 0.109222014156748D+03 0.000000000000000D+00 0.000000000000000D+00 -.109222014156748D+03
 0.130183411262295D+03 -.316515736757854D+02 -.116680609602204D+02 0.135924539786925D+02
 0.882606170511996D+02 0.316515736757854D+02 0.116680609602204D+02 -.135924539786925D+02
 0.000000000000000D+00 0.000000000000000D+00 -.000000000000000D+00 0.000000000000000D+00
 0.199492055304141D+03 0.000000000000000D+00 0.000000000000000D+00 0.199492055304141D+03
 0.152176048860787D+03 0.000000000000000D+00 0.000000000000000D+00 -.152176048860787D+03
 0.138188871238718D+03 -.326052813806140D+02 0.471519347976214D+02 0.135924539786925D+02
 0.102306986252676D+03 0.309743584661226D+02 0.534353608969181D+02 -.135924539786925D+02
 0.111172246673535D+03 0.163092291449147D+01 -.100587295694539D+03 0.473160064433542D+02
0.314295686284D-03 0.000000000000D+00 0.000000000000D+00 0.299393593981D-02 0.000000000000D+00  5 -1 2 25 24 21 0 0.15032406D-01 0.18783009D-01 0.11737509D+05 0.11737509D+05 0.11737509D+05 0.12601514D+01  1  2  2  2  5  2        2 0.316623097478D+00 0.100000000000D+01
-.174594750535D-04 0.000000000000D+00 -.120697819128D-05 0.299393593981D-02 0.000000000000D+00  5 -1 2 25 24 21 2 0.15032406D-01 0.18783009D-01 0.11737509D+05 0.11737509D+05 0.11737509D+05 0.12601514D+01  1  2  3  2  5  2        2 -.279306348349D-01 0.100000000000D+01
0.217466033188D-04 0.000000000000D+00 0.000000000000D+00 0.299393593981D-02 0.000000000000D+00  5 -1 2 25 24 21 2 0.15032406D-01 0.18783009D-01 0.11737509D+05 0.11737509D+05 0.11737509D+05 0.12601514D+01  1  2 15  2  5  2        2 0.347889288960D-01 0.100000000000D+01
  </mgrwgt>
  </event>
  <event>
  4     66 0.45252658E-03 0.61034042E+02 0.75467711E-02 0.12353367E+00
       -1 -1    0    0    0  501 0.00000000E+00 0.00000000E+00 0.28923558E+03 0.28923576E+03 0.32000000E+00 0.0000E+00 0.9000E+01
        2 -1    0    0  501    0 0.00000000E+00 0.00000000E+00 -.60504382E+02 0.60505229E+02 0.32000000E+00 0.0000E+00 0.9000E+01
       25  1    1    2    0    0 0.12755446E+02 -.29737317E+02 0.22918554E+03 0.26305517E+03 0.12500000E+03 0.0000E+00 0.9000E+01
       24  1    1    2    0    0 -.12755446E+02 0.29737317E+02 -.45433770E+00 0.86685822E+02 0.80419002E+02 0.0000E+00 0.9000E+01
#aMCatNLO 1  0  0  1  2 0.32146501D+02 0.00000000D+00  -5  5  0 0.00000000D+00 0.00000000D+00 0.00000000D+00 0.00000000D+00 0.00000000D+00
  <mgrwgt>
 0.2912405420D+00    9    2    0
 0.132288318444904D+03 0.000000000000000D+00 0.000000000000000D+00 0.132288318444904D+03
 0.132288318444904D+03 0.000000000000000D+00 0.000000000000000D+00 -.132288318444904D+03
 0.149594805051738D+03 0.127554458365602D+02 -.297373170496473D+02 0.755420166176868D+02
 0.114981831838069D+03 -.127554458365602D+02 0.297373170496473D+02 -.755420166176868D+02
 0.000000000000000D+00 -.000000000000000D+00 0.000000000000000D+00 0.000000000000000D+00
 0.178132801424325D+03 0.000000000000000D+00 0.000000000000000D+00 0.178132801424325D+03
 0.139018730370684D+03 0.000000000000000D+00 0.000000000000000D+00 -.139018730370684D+03
 0.154403440088958D+03 0.252120813729308D+02 -.432802147578102D+02 0.755420166176868D+02
 0.112118968610493D+03 -.344976086493641D+01 0.196201438123697D+02 -.755420166176868D+02
 0.506291230955586D+02 -.217623205079943D+02 0.236600709454405D+02 0.391140710536410D+02
0.608764344647D-03 0.000000000000D+00 0.000000000000D+00 0.183952791295D-02 0.000000000000D+00  5 -1 2 25 24 21 0 0.44497861D-01 0.93084452D-02 0.11642924D+05 0.11642924D+05 0.11642924D+05 0.12605646D+01  1  2  2  1  5  1       -1 0.234677328199D+00 0.100000000000D+01
-.321130490071D-04 0.000000000000D+00 -.233781537478D-05 0.183952791295D-02 0.000000000000D+00  5 -1 2 25 24 21 2 0.44497861D-01 0.93084452D-02 0.11642924D+05 0.11642924D+05 0.11642924D+05 0.12605646D+01  1  2  3  1  5  1       -1 -.196713272074D-01 0.100000000000D+01
0.417038973641D-04 0.000000000000D+00 0.000000000000D+00 0.183952791295D-02 0.000000000000D+00  5 -1 2 25 24 21 2 0.44497861D-01 0.93084452D-02 0.11642924D+05 0.11642924D+05 0.11642924D+05 0.12605646D+01  1  2 15  1  5  1       -1 0.255463444374D-01 0.100000000000D+01
0.871175497336D-03 0.000000000000D+00 0.000000000000D+00 0.183952791295D-02 0.000000000000D+00  5 -1 2 25 24 21 2 0.60757652D-01 0.93084452D-02 0.15582287D+05 0.15582287D+05 0.15582287D+05 0.12459414D+01  1  2 12  1  5  1       -1 0.296711946271D+00 0.100000000000D+01
-.931311896392D-03 0.000000000000D+00 0.000000000000D+00 0.183952791295D-02 0.000000000000D+00  5 -1 2 25 24 21 2 0.44497861D-01 0.93084452D-02 0.11642924D+05 0.11642924D+05 0.11642924D+05 0.12605646D+01  1  2  4  1  5  1       -1 -.570488994737D+00 0.100000000000D+01
-.116411430402D-02 0.000000000000D+00 -.254429330492D-03 0.183952791295D-02 0.000000000000D+00  5 -1 2 25 24 21 2 0.62101330D-01 0.93084452D-02 0.11642924D+05 0.11642924D+05 0.11642924D+05 0.12605646D+01  1  2  5  1  5  1       -1 -.386772500981D+00 0.100000000000D+01
0.119540487810D-02 0.000000000000D+00 0.240921014955D-03 0.183952791295D-02 0.000000000000D+00  5 -1 2 25 24 21 2 0.44497861D-01 0.93084452D-02 0.11642924D+05 0.11642924D+05 0.11642924D+05 0.12605646D+01  1  2  6  1  5  1       -1 0.732263090219D+00 0.100000000000D+01
0.345984843681D-04 0.000000000000D+00 0.000000000000D+00 0.183952791295D-02 0.000000000000D+00  5 21 2 25 24 1 2 0.60757652D-01 0.93084452D-02 0.15582287D+05 0.15582287D+05 0.15582287D+05 0.12459414D+01  1  2 12  3  5  1       -1 0.115254278165D+00 0.100000000000D+01
-.418536260715D-04 0.000000000000D+00 -.106110344474D-04 0.183952791295D-02 0.000000000000D+00  5 21 2 25 24 1 2 0.62101330D-01 0.93084452D-02 0.11642924D+05 0.11642924D+05 0.11642924D+05 0.12605646D+01  1  2  5  3  5  1       -1 -.136279622322D+00 0.100000000000D+01
  </mgrwgt>
  </event>
  <event>
  5     66 0.45252658E-03 0.11799748E+03 0.75467711E-02 0.12383920E+00
       -3 -1    0    0    0  501 0.00000000E+00 0.00000000E+00 0.14711189E+03 0.14711274E+03 0.50000000E+00 0.0000E+00 0.9000E+01
        4 -1    0    0  502    0 0.00000000E+00 0.00000000E+00 -.10393963E+03 0.10395119E+03 0.15500000E+01 0.0000E+00 0.9000E+01
       25  1    1    2    0    0 0.16808653E+02 0.50700991E+02 0.11304656E+02 0.13640351E+03 0.12500000E+03 0.0000E+00 0.9000E+01
       24  1    1    2    0    0 -.11568014E+02 -.58745503E+02 0.26808911E+02 0.10378240E+03 0.80419002E+02 0.0000E+00 0.9000E+01
       21  1    1    2  502  501 -.52406389E+01 0.80445120E+01 0.50586883E+01 0.10878019E+02 0.75000000E+00 0.0000E+00 0.9000E+01
#aMCatNLO 2  0  0  2  1 0.96009619D+01 0.00000000D+00  -5  5  0 0.00000000D+00 0.00000000D+00 0.00000000D+00 0.00000000D+00 0.00000000D+00
  <mgrwgt>
 0.6454954562D-01    2    2    0
 0.118474097813097D+03 0.000000000000000D+00 0.000000000000000D+00 0.118474097813097D+03
 0.118474097813097D+03 0.000000000000000D+00 0.000000000000000D+00 -.118474097813097D+03
 0.137798541330018D+03 0.137783354392520D+02 0.553526045302234D+02 -.104730433458870D+02
 0.991496542961760D+02 -.137783354392520D+02 -.553526045302234D+02 0.104730433458870D+02
 0.000000000000000D+00 -.000000000000000D+00 0.000000000000000D+00 0.000000000000000D+00
 0.125347201232911D+03 0.000000000000000D+00 0.000000000000000D+00 0.125347201232911D+03
 0.121972287933933D+03 0.000000000000000D+00 0.000000000000000D+00 -.121972287933933D+03
 0.136337103946777D+03 0.168086533878062D+02 0.507009905914877D+02 -.104730433458870D+02
 0.100805523768563D+03 -.115680144706521D+02 -.587455025696929D+02 0.104730433458870D+02
 0.101768614515032D+02 -.524063891715410D+01 0.804451197820519D+01 0.337491329897747D+01
-.174897248273D-04 0.000000000000D+00 0.000000000000D+00 0.279412914623D-02 0.000000000000D+00  5 -3 4 25 24 21 2 0.21390100D-01 0.15531282D-01 0.13923404D+05 0.13923404D+05 0.13923404D+05 0.12515269D+01  1  2  8  2  5  2        4 -.366249783492D-02 0.100000000000D+01
0.378254206966D-03 0.000000000000D+00 0.000000000000D+00 0.279412914623D-02 0.252069571945D-03  5 -3 4 25 24 21 2 0.22631016D-01 0.15989875D-01 0.15103823D+05 0.15103823D+05 0.15103823D+05 0.12474812D+01  1  2  1  2  5  2        4 0.682120434594D-01 0.100000000000D+01
  </mgrwgt>
  </event>
  <event>
  4     66 0.45252658E-03 0.12073676E+03 0.75467711E-02 0.11205639E+00
       -1 -1    0    0    0  501 0.00000000E+00 0.00000000E+00 0.76628984E+01 0.76695771E+01 0.32000000E+00 0.0000E+00 0.9000E+01
        2 -1    0    0  501    0 0.00000000E+00 0.00000000E+00 -.19066872E+04 0.19066872E+04 0.32000000E+00 0.0000E+00 0.9000E+01
       25  1    1    2    0    0 0.54163682E+02 0.30937369E+02 -.10489011E+04 0.10581632E+04 0.12500000E+03 0.0000E+00 0.9000E+01
       24  1    1    2    0    0 -.54163682E+02 -.30937369E+02 -.85012317E+03 0.85619358E+03 0.80419002E+02 0.0000E+00 0.9000E+01
#aMCatNLO 1  0  0  1  1 0.17781393D+03 0.00000000D+00  -5  5  0 0.00000000D+00 0.00000000D+00 0.00000000D+00 0.00000000D+00 0.00000000D+00
  <mgrwgt>
 0.5199577170D+00    5    2    0
 0.120901482426437D+03 0.000000000000000D+00 0.000000000000000D+00 0.120901482426437D+03
 0.120901482426437D+03 0.000000000000000D+00 0.000000000000000D+00 -.120901482426437D+03
 0.139837941810220D+03 0.541636824096449D+02 0.309373692233832D+02 0.623094399602133D+01
 0.101965023042654D+03 -.541636824096449D+02 -.309373692233832D+02 -.623094399602133D+01
 0.000000000000000D+00 0.000000000000000D+00 -.000000000000000D+00 0.000000000000000D+00
 0.285403974335629D+03 0.000000000000000D+00 0.000000000000000D+00 0.285403974335629D+03
 0.208479898072538D+03 0.000000000000000D+00 0.000000000000000D+00 -.208479898072538D+03
 0.174619228780194D+03 0.503964978127034D+01 0.121666151113572D+03 0.623094399602133D+01
 0.125524849909805D+03 -.897018128347172D+02 0.346991657189669D+02 -.623094399602133D+01
 0.193739793718168D+03 0.846621630534468D+02 -.156365316832538D+03 0.769240762630901D+02
0.300110041107D-03 0.000000000000D+00 0.000000000000D+00 0.276000965017D-02 0.000000000000D+00  5 -1 2 25 24 21 0 0.11794233D-02 0.29333700D+00 0.14577365D+05 0.14577365D+05 0.14577365D+05 0.12492400D+01  1  2  2  1  5  1       -1 0.408872836868D+00 0.100000000000D+01
-.166727423793D-04 0.000000000000D+00 -.115250157864D-05 0.276000965017D-02 0.000000000000D+00  5 -1 2 25 24 21 2 0.11794233D-02 0.29333700D+00 0.14577365D+05 0.14577365D+05 0.14577365D+05 0.12492400D+01  1  2  3  1  5  1       -1 -.354492095865D-01 0.100000000000D+01
0.207192383429D-04 0.000000000000D+00 0.000000000000D+00 0.276000965017D-02 0.000000000000D+00  5 -1 2 25 24 21 2 0.11794233D-02 0.29333700D+00 0.14577365D+05 0.14577365D+05 0.14577365D+05 0.12492400D+01  1  2 15  1  5  1       -1 0.440527782280D-01 0.100000000000D+01
0.123535555872D-03 0.000000000000D+00 -.112966740411D-03 0.276000965017D-02 0.000000000000D+00  5 -1 2 25 24 21 2 0.57886472D-02 0.29333700D+00 0.14577365D+05 0.14577365D+05 0.14577365D+05 0.12492400D+01  1  2  5  1  5  1       -1 0.261973018877D-01 0.100000000000D+01
0.211153185186D-04 0.000000000000D+00 -.218782751897D-04 0.276000965017D-02 0.000000000000D+00  5 21 2 25 24 1 2 0.57886472D-02 0.29333700D+00 0.14577365D+05 0.14577365D+05 0.14577365D+05 0.12492400D+01  1  2  5  3  5  1       -1 0.762840096480D-01 0.100000000000D+01
  </mgrwgt>
  </event>
  <event>
  4     66 0.45252658E-03 0.52488802E+02 0.75467711E-02 0.12384138E+00
       -1 -1    0    0    0  501 0.00000000E+00 0.00000000E+00 0.25329975E+03 0.25329995E+03 0.32000000E+00 0.0000E+00 0.9000E+01
        2 -1    0    0  501    0 0.00000000E+00 0.00000000E+00 -.56691798E+02 0.56692701E+02 0.32000000E+00 0.0000E+00 0.9000E+01
       25  1    1    2    0    0 0.50101969E+02 -.25837197E+02 0.85016567E+02 0.16133997E+03 0.12500000E+03 0.0000E+00 0.9000E+01
       24  1    1    2    0    0 -.50101969E+02 0.25837197E+02 0.11159139E+03 0.14865269E+03 0.80419002E+02 0.0000E+00 0.9000E+01
#aMCatNLO 1  0  0  2  1 0.10191981D+02 0.00000000D+00  -5  5  0 0.00000000D+00 0.00000000D+00 0.00000000D+00 0.00000000D+00 0.00000000D+00
  <mgrwgt>
 0.2125914209D+00    9    2    0
 0.119834008367286D+03 0.000000000000000D+00 0.000000000000000D+00 0.119834008367286D+03
 0.119834008367286D+03 0.000000000000000D+00 0.000000000000000D+00 -.119834008367286D+03
 0.138939152579690D+03 0.501019694445685D+02 -.258371967711413D+02 -.223901773183496D+02
 0.100728864154883D+03 -.501019694445685D+02 0.258371967711413D+02 0.223901773183496D+02
 0.000000000000000D+00 0.000000000000000D+00 -.000000000000000D+00 -.000000000000000D+00
 0.123158778217548D+03 0.000000000000000D+00 0.000000000000000D+00 0.123158778217548D+03
 0.128016122998540D+03 0.000000000000000D+00 0.000000000000000D+00 -.128016122998540D+03
 0.137074935975073D+03 0.472738875359420D+02 -.206977677410466D+02 -.223901773183496D+02
 0.102809691956762D+03 -.521874561357057D+02 0.296271191243844D+02 0.223901773183496D+02
 0.112902732842535D+02 0.491356859976371D+01 -.892935138333779D+01 -.485734478099165D+01
0.381744153152D-03 0.000000000000D+00 0.000000000000D+00 0.270235178815D-02 0.000000000000D+00  5 -1 2 25 24 21 0 0.38969278D-01 0.87219000D-02 0.13845295D+05 0.13845295D+05 0.13845295D+05 0.12518081D+01  1  2  2  2  5  2        2 0.202445485348D+00 0.100000000000D+01
-.211994134875D-04 0.000000000000D+00 -.146599806365D-05 0.270235178815D-02 0.000000000000D+00  5 -1 2 25 24 21 2 0.38969278D-01 0.87219000D-02 0.13845295D+05 0.13845295D+05 0.13845295D+05 0.12518081D+01  1  2  3  2  5  2        2 -.176171269640D-01 0.100000000000D+01
0.264272633054D-04 0.000000000000D+00 0.000000000000D+00 0.270235178815D-02 0.000000000000D+00  5 -1 2 25 24 21 2 0.38969278D-01 0.87219000D-02 0.13845295D+05 0.13845295D+05 0.13845295D+05 0.12518081D+01  1  2 15  2  5  2        2 0.219615723443D-01 0.100000000000D+01
0.132459067087D-02 0.000000000000D+00 0.000000000000D+00 0.270235178815D-02 0.000000000000D+00  5 -1 2 25 24 21 2 0.38969278D-01 0.94324153D-02 0.15100465D+05 0.15100465D+05 0.15100465D+05 0.12474922D+01  1  2 12  2  5  2        2 0.995262894928D+00 0.100000000000D+01
-.127837300805D-02 0.000000000000D+00 0.000000000000D+00 0.270235178815D-02 0.000000000000D+00  5 -1 2 25 24 21 2 0.38969278D-01 0.87219000D-02 0.13845295D+05 0.13845295D+05 0.13845295D+05 0.12518081D+01  1  2  4  2  5  2        2 -.106235295630D+01 0.100000000000D+01
-.391628064568D-02 0.000000000000D+00 -.683321899079D-03 0.270235178815D-02 0.000000000000D+00  5 -1 2 25 24 21 2 0.38969278D-01 0.95683437D-02 0.13845295D+05 0.13845295D+05 0.13845295D+05 0.12518081D+01  1  2  5  2  5  2        2 -.290317934211D+01 0.100000000000D+01
0.396547056022D-02 0.000000000000D+00 0.680401223151D-03 0.270235178815D-02 0.000000000000D+00  5 -1 2 25 24 21 2 0.38969278D-01 0.87219000D-02 0.13845295D+05 0.13845295D+05 0.13845295D+05 0.12518081D+01  1  2  6  2  5  2        2 0.329538354317D+01 0.100000000000D+01
0.176158466567D-04 0.000000000000D+00 0.000000000000D+00 0.270235178815D-02 0.000000000000D+00  5 -1 21 25 24 -2 2 0.38969278D-01 0.94324153D-02 0.15100465D+05 0.15100465D+05 0.15100465D+05 0.12474922D+01  1  2 12  4  5  2        2 0.144859620113D+00 0.100000000000D+01
-.575620010154D-04 0.000000000000D+00 -.103842034830D-04 0.270235178815D-02 0.000000000000D+00  5 -1 21 25 24 -2 2 0.38969278D-01 0.95683437D-02 0.13845295D+05 0.13845295D+05 0.13845295D+05 0.12518081D+01  1  2  5  4  5  2        2 -.464172269618D+00 0.100000000000D+01
  </mgrwgt>
  </event>
  <event>
  4     66 0.45252658E-03 0.10278084E+03 0.75467711E-02 0.11591127E+00
       -1 -1    0    0    0  501 0.00000000E+00 0.00000000E+00 0.23485492E+02 0.23487672E+02 0.32000000E+00 0.0000E+00 0.9000E+01
        2 -1    0    0  501    0 0.00000000E+00 0.00000000E+00 -.56524480E+03 0.56524489E+03 0.32000000E+00 0.0000E+00 0.9000E+01
       25  1    1    2    0    0 0.36758205E+01 0.67719580E+00 -.44812613E+03 0.46524832E+03 0.12500000E+03 0.0000E+00 0.9000E+01
       24  1    1    2    0    0 -.36758205E+01 -.67719580E+00 -.93633173E+02 0.12348424E+03 0.80419002E+02 0.0000E+00 0.9000E+01
#aMCatNLO 1  0  0  1  1 0.13353641D+03 0.00000000D+00  -5  5  0 0.00000000D+00 0.00000000D+00 0.00000000D+00 0.00000000D+00 0.00000000D+00
  <mgrwgt>
 0.5344908697D+00    3    2    0
 0.115220313920516D+03 0.000000000000000D+00 0.000000000000000D+00 0.115220313920516D+03
 0.115220313920516D+03 0.000000000000000D+00 0.000000000000000D+00 -.115220313920516D+03
 0.135090473387246D+03 0.367582049479499D+01 0.677195803127459D+00 -.510927171867427D+02
 0.953501544537854D+02 -.367582049479499D+01 -.677195803127459D+00 0.510927171867427D+02
 0.000000000000000D+00 -.000000000000000D+00 -.000000000000000D+00 -.000000000000000D+00
 0.165230186958501D+03 0.000000000000000D+00 0.000000000000000D+00 0.165230186958501D+03
 0.272210023788126D+03 0.000000000000000D+00 0.000000000000000D+00 -.272210023788126D+03
 0.158249910631638D+03 0.764263453218479D+02 0.310899052128256D+02 -.510927171867427D+02
 0.108086070521103D+03 0.467778263334739D+02 0.204145022058619D+02 0.510927171867427D+02
 0.171104229593886D+03 -.123204171655322D+03 -.515044074186875D+02 -.106979836829625D+03
0.321086250006D-03 0.000000000000D+00 0.000000000000D+00 0.239857618674D-02 0.000000000000D+00  5 -1 2 25 24 21 0 0.36133273D-02 0.86960913D-01 0.10563901D+05 0.10563901D+05 0.10563901D+05 0.12655641D+01  1  2  2  1  5  1       -1 0.523014525919D+00 0.100000000000D+01
-.175550372587D-04 0.000000000000D+00 -.123305574398D-05 0.239857618674D-02 0.000000000000D+00  5 -1 2 25 24 21 2 0.36133273D-02 0.86960913D-01 0.10563901D+05 0.10563901D+05 0.10563901D+05 0.12655641D+01  1  2  3  1  5  1       -1 -.457996427445D-01 0.100000000000D+01
0.219539284160D-04 0.000000000000D+00 0.000000000000D+00 0.239857618674D-02 0.000000000000D+00  5 -1 2 25 24 21 2 0.36133273D-02 0.86960913D-01 0.10563901D+05 0.10563901D+05 0.10563901D+05 0.12655641D+01  1  2 15  1  5  1       -1 0.572759865714D-01 0.100000000000D+01
  </mgrwgt>
  </event>
  <event>
  4     66 0.45252658E-03 0.43398336E+02 0.75467711E-02 0.11973063E+00
       -1 -1    0    0    0  501 0.00000000E+00 0.00000000E+00 0.38888453E+02 0.38889770E+02 0.32000000E+00 0.0000E+00 0.9000E+01
        2 -1    0    0  501    0 0.00000000E+00 0.00000000E+00 -.42892882E+03 0.42892894E+03 0.32000000E+00 0.0000E+00 0.9000E+01
       25  1    1    2    0    0 0.21759947E+02 0.69620385E+02 -.26718507E+03 0.30386404E+03 0.12500000E+03 0.0000E+00 0.9000E+01
       24  1    1    2    0    0 -.21759947E+02 -.69620385E+02 -.12285529E+03 0.16395467E+03 0.80419002E+02 0.0000E+00 0.9000E+01
#aMCatNLO 1  0  0  1  2 0.47511268D+02 0.00000000D+00  -5  5  0 0.00000000D+00 0.00000000D+00 0.00000000D+00 0.00000000D+00 0.00000000D+00
  <mgrwgt>
 0.3707753762D+00    9    2    0
 0.129153839242676D+03 0.000000000000000D+00 0.000000000000000D+00 0.129153839242676D+03
 0.129153839242676D+03 0.000000000000000D+00 0.000000000000000D+00 -.129153839242676D+03
 0.146880342959732D+03 0.217599473847573D+02 0.696203853524208D+02 -.250667465212697D+02
 0.111427335525620D+03 -.217599473847573D+02 -.696203853524208D+02 0.250667465212697D+02
 0.000000000000000D+00 0.000000000000000D+00 -.000000000000000D+00 0.000000000000000D+00
 0.179384391309729D+03 0.000000000000000D+00 0.000000000000000D+00 0.179384391309729D+03
 0.143061610242123D+03 0.000000000000000D+00 0.000000000000000D+00 -.143061610242123D+03
 0.150456448705103D+03 -.336312517580910D+01 0.798278808740508D+02 -.250667465212697D+02
 0.112184327489398D+03 -.406537142941943D+02 -.619438545200610D+02 0.250667465212697D+02
 0.598052253573502D+02 0.440168394700034D+02 -.178840263539898D+02 0.363227810676054D+02
0.284506059787D-03 0.000000000000D+00 0.000000000000D+00 0.254517159660D-02 0.000000000000D+00  5 -1 2 25 24 21 0 0.59829494D-02 0.65989159D-01 0.16039817D+05 0.16039817D+05 0.16039817D+05 0.12445178D+01  1  2  2  1  5  1       -1 0.303397896495D+00 0.100000000000D+01
-.157985174514D-04 0.000000000000D+00 -.109257818175D-05 0.254517159660D-02 0.000000000000D+00  5 -1 2 25 24 21 2 0.59829494D-02 0.65989159D-01 0.16039817D+05 0.16039817D+05 0.16039817D+05 0.12445178D+01  1  2  3  1  5  1       -1 -.260939353343D-01 0.100000000000D+01
0.196805520645D-04 0.000000000000D+00 0.000000000000D+00 0.254517159660D-02 0.000000000000D+00  5 -1 2 25 24 21 2 0.59829494D-02 0.65989159D-01 0.16039817D+05 0.16039817D+05 0.16039817D+05 0.12445178D+01  1  2 15  1  5  1       -1 0.325057749560D-01 0.100000000000D+01
0.194751079494D-03 0.000000000000D+00 0.000000000000D+00 0.254517159660D-02 0.000000000000D+00  5 -1 2 25 24 21 2 0.85344529D-02 0.65989159D-01 0.23288727D+05 0.23288727D+05 0.23288727D+05 0.12266130D+01  1  2 12  1  5  1       -1 0.185481821809D+00 0.100000000000D+01
-.226994861501D-03 0.000000000000D+00 0.000000000000D+00 0.254517159660D-02 0.000000000000D+00  5 -1 2 25 24 21 2 0.59829494D-02 0.65989159D-01 0.16039817D+05 0.16039817D+05 0.16039817D+05 0.12445178D+01  1  2  4  1  5  1       -1 -.374920574379D+00 0.100000000000D+01
-.312071643754D-03 0.000000000000D+00 -.104181933569D-03 0.254517159660D-02 0.000000000000D+00  5 -1 2 25 24 21 2 0.91816840D-02 0.65989159D-01 0.16039817D+05 0.16039817D+05 0.16039817D+05 0.12445178D+01  1  2  5  1  5  1       -1 -.271031472260D+00 0.100000000000D+01
0.334423491209D-03 0.000000000000D+00 0.953060946217D-04 0.254517159660D-02 0.000000000000D+00  5 -1 2 25 24 21 2 0.59829494D-02 0.65989159D-01 0.16039817D+05 0.16039817D+05 0.16039817D+05 0.12445178D+01  1  2  6  1  5  1       -1 0.552357205714D+00 0.100000000000D+01
0.850299708847D-05 0.000000000000D+00 0.000000000000D+00 0.254517159660D-02 0.000000000000D+00  5 21 2 25 24 1 2 0.85344529D-02 0.65989159D-01 0.23288727D+05 0.23288727D+05 0.23288727D+05 0.12266130D+01  1  2 12  3  5  1       -1 0.126080801754D+00 0.100000000000D+01
-.117316673316D-04 0.000000000000D+00 -.521624930189D-05 0.254517159660D-02 0.000000000000D+00  5 21 2 25 24 1 2 0.91816840D-02 0.65989159D-01 0.16039817D+05 0.16039817D+05 0.16039817D+05 0.12445178D+01  1  2  5  3  5  1       -1 -.157002142589D+00 0.100000000000D+01
  </mgrwgt>
  </event>
  <event>
  4     66 0.45252658E-03 0.71788560E+02 0.75467711E-02 0.12038565E+00
       -1 -1    0    0    0  501 0.00000000E+00 0.00000000E+00 0.10033574E+02 0.10038676E+02 0.32000000E+00 0.0000E+00 0.9000E+01
        2 -1    0    0  501    0 0.00000000E+00 0.00000000E+00 -.19901601E+04 0.19901602E+04 0.32000000E+00 0.0000E+00 0.9000E+01
       25  1    1    2    0    0 -.87170497E+02 0.39506588E+02 -.10645325E+04 0.10761105E+04 0.12500000E+03 0.0000E+00 0.9000E+01
       24  1    1    2    0    0 0.87170497E+02 -.39506588E+02 -.91559410E+03 0.92408833E+03 0.80419002E+02 0.0000E+00 0.9000E+01
#aMCatNLO 1  0  0  1  2 0.11871316D+02 0.00000000D+00  -5  5  0 0.00000000D+00 0.00000000D+00 0.00000000D+00 0.00000000D+00 0.00000000D+00
  <mgrwgt>
 0.6152856353D-01    9    2    0
 0.141327799855939D+03 0.000000000000000D+00 0.000000000000000D+00 0.141327799855939D+03
 0.141327799855939D+03 0.000000000000000D+00 0.000000000000000D+00 -.141327799855939D+03
 0.157527344557980D+03 -.871704968552895D+02 0.395065882138027D+02 0.551346072766877D+01
 0.125128255153898D+03 0.871704968552895D+02 -.395065882138027D+02 -.551346072766877D+01
 0.000000000000000D+00 0.000000000000000D+00 0.000000000000000D+00 0.000000000000000D+00
 0.149547293289537D+03 0.000000000000000D+00 0.000000000000000D+00 0.149547293289537D+03
 0.145804765229128D+03 0.000000000000000D+00 0.000000000000000D+00 -.145804765229128D+03
 0.156325418833743D+03 -.877326319220440D+02 0.329427324364670D+02 0.551346072766877D+01
 0.126579364091362D+03 0.867196686458516D+02 -.447707525083205D+02 -.551346072766877D+01
 0.124472755935601D+02 0.101296327619235D+01 0.118280200718536D+02 0.374252806040956D+01
0.320952565559D-03 0.000000000000D+00 0.000000000000D+00 0.248390593928D-02 0.000000000000D+00  5 -1 2 25 24 21 0 0.15440212D-02 0.30617888D+00 0.19942743D+05 0.19942743D+05 0.19942743D+05 0.12339631D+01  1  2  2  1  5  1       -1 0.271098517814D+00 0.100000000000D+01
-.178306851758D-04 0.000000000000D+00 -.123254236050D-05 0.248390593928D-02 0.000000000000D+00  5 -1 2 25 24 21 2 0.15440212D-02 0.30617888D+00 0.19942743D+05 0.19942743D+05 0.19942743D+05 0.12339631D+01  1  2  3  1  5  1       -1 -.229328853385D-01 0.100000000000D+01
0.221351173183D-04 0.000000000000D+00 0.000000000000D+00 0.248390593928D-02 0.000000000000D+00  5 -1 2 25 24 21 2 0.15440212D-02 0.30617888D+00 0.19942743D+05 0.19942743D+05 0.19942743D+05 0.12339631D+01  1  2 15  1  5  1       -1 0.284690185715D-01 0.100000000000D+01
0.688625935066D-03 0.000000000000D+00 0.000000000000D+00 0.248390593928D-02 0.000000000000D+00  5 -1 2 25 24 21 2 0.16571625D-02 0.30617888D+00 0.21691208D+05 0.21691208D+05 0.21691208D+05 0.12299637D+01  1  2 12  1  5  1       -1 0.795636815825D+00 0.100000000000D+01
-.633342110593D-03 0.000000000000D+00 0.000000000000D+00 0.248390593928D-02 0.000000000000D+00  5 -1 2 25 24 21 2 0.15440212D-02 0.30617888D+00 0.19942743D+05 0.19942743D+05 0.19942743D+05 0.12339631D+01  1  2  4  1  5  1       -1 -.814571165326D+00 0.100000000000D+01
-.232410721290D-02 0.000000000000D+00 -.425767229361D-03 0.248390593928D-02 0.000000000000D+00  5 -1 2 25 24 21 2 0.16943965D-02 0.30617888D+00 0.19942743D+05 0.19942743D+05 0.19942743D+05 0.12339631D+01  1  2  5  1  5  1       -1 -.261518215274D+01 0.100000000000D+01
0.235532960356D-02 0.000000000000D+00 0.423935107622D-03 0.248390593928D-02 0.000000000000D+00  5 -1 2 25 24 21 2 0.15440212D-02 0.30617888D+00 0.19942743D+05 0.19942743D+05 0.19942743D+05 0.12339631D+01  1  2  6  1  5  1       -1 0.302930051201D+01 0.100000000000D+01
0.853674895275D-05 0.000000000000D+00 0.000000000000D+00 0.248390593928D-02 0.000000000000D+00  5 21 2 25 24 1 2 0.16571625D-02 0.30617888D+00 0.21691208D+05 0.21691208D+05 0.21691208D+05 0.12299637D+01  1  2 12  3  5  1       -1 0.211042247147D+00 0.100000000000D+01
-.341986981831D-04 0.000000000000D+00 -.648933789336D-05 0.248390593928D-02 0.000000000000D+00  5 21 2 25 24 1 2 0.16943965D-02 0.30617888D+00 0.19942743D+05 0.19942743D+05 0.19942743D+05 0.12339631D+01  1  2  5  3  5  1       -1 -.821332344437D+00 0.100000000000D+01
  </mgrwgt>
  </event>
  <event>
  5     66 -.45252658E-03 0.13182416E+03 0.75467711E-02 0.12205657E+00
       -1 -1    0    0    0  501 0.00000000E+00 0.00000000E+00 0.12413950E+02 0.12418074E+02 0.32000000E+00 0.0000E+00 0.9000E+01
        2 -1    0    0  502    0 0.00000000E+00 0.00000000E+00 -.14890552E+04 0.14890553E+04 0.32000000E+00 0.0000E+00 0.9000E+01
       25  1    1    2    0    0 0.36855050E+02 0.70935527E+02 -.72873436E+03 0.74368603E+03 0.12500000E+03 0.0000E+00 0.9000E+01
       24  1    1    2    0    0 -.42650443E+02 -.70829480E+02 -.68855688E+03 0.69815018E+03 0.80419002E+02 0.0000E+00 0.9000E+01
       21  1    1    2  502  501 0.57953926E+01 -.10604645E+00 -.59350041E+02 0.59637134E+02 0.75000000E+00 0.0000E+00 0.9000E+01
#aMCatNLO 2  0  0  2  1 0.57963628D+01 0.00000000D+00  -5  5  0 0.00000000D+00 0.00000000D+00 0.00000000D+00 0.00000000D+00 0.00000000D+00
  <mgrwgt>
 -.9076869259D-01    3    2    0
 0.132423174457181D+03 0.000000000000000D+00 0.000000000000000D+00 0.132423174457181D+03
 0.132423174457181D+03 0.000000000000000D+00 0.000000000000000D+00 -.132423174457181D+03
 0.149712036627961D+03 0.401217692394726D+02 0.708757508792617D+02 0.124725892134398D+02
 0.115134312286401D+03 -.401217692394726D+02 -.708757508792617D+02 -.124725892134398D+02
 0.000000000000000D+00 0.000000000000000D+00 -.000000000000000D+00 -.000000000000000D+00
 0.133984313211415D+03 0.000000000000000D+00 0.000000000000000D+00 0.133984313211415D+03
 0.137946778077064D+03 0.000000000000000D+00 0.000000000000000D+00 -.137946778077064D+03
 0.148898318207911D+03 0.368550504739568D+02 0.709355266281937D+02 0.124725892134398D+02
 0.116011452006554D+03 -.426504431235391D+02 -.708294801758205D+02 -.124725892134398D+02
 0.702132107401411D+01 0.579539264958222D+01 -.106046452373124D+00 -.396246486564892D+01
-.554608341297D-03 0.000000000000D+00 0.000000000000D+00 0.256818417656D-02 0.000000000000D+00  5 -1 2 25 24 21 2 0.18876223D-02 0.23031215D+00 0.18158964D+05 0.18158964D+05 0.18158964D+05 0.12384700D+01  1  2 13  2  5  2        2 -.962409610499D+00 0.100000000000D+01
-.501026469214D-03 0.000000000000D+00 0.000000000000D+00 0.256818417656D-02 0.000000000000D+00  5 -1 2 25 24 21 2 0.18876223D-02 0.21988023D+00 0.17377609D+05 0.17377609D+05 0.17377609D+05 0.12406032D+01  1  2  8  2  5  2        2 -.945666318775D+00 0.100000000000D+01
0.105467514305D-02 0.000000000000D+00 0.000000000000D+00 0.256818417656D-02 0.625859032886D-03  5 -1 2 25 24 21 2 0.19098755D-02 0.22905182D+00 0.18158964D+05 0.18158964D+05 0.18158964D+05 0.12384700D+01  1  2  1  2  5  2        2 0.181730723668D+01 0.100000000000D+01
  </mgrwgt>
  </event>
  <event>
  4     66 0.45252658E-03 0.11533418E+03 0.75467711E-02 0.11056813E+00
       -1 -1    0    0    0  501 0.00000000E+00 0.00000000E+00 0.10522433E+02 0.10527297E+02 0.32000000E+00 0.0000E+00 0.9000E+01
        2 -1    0    0  501    0 0.00000000E+00 0.00000000E+00 -.15373762E+04 0.15373762E+04 0.32000000E+00 0.0000E+00 0.9000E+01
       25  1    1    2    0    0 -.50674511E+02 0.90555523E+01 -.54899483E+03 0.56539387E+03 0.12500000E+03 0.0000E+00 0.9000E+01
       24  1    1    2    0    0 0.50674511E+02 -.90555523E+01 -.97785893E+03 0.98250965E+03 0.80419002E+02 0.0000E+00 0.9000E+01
#aMCatNLO 1  0  0  2  1 0.21382609D+03 0.00000000D+00  -5  5  0 0.00000000D+00 0.00000000D+00 0.00000000D+00 0.00000000D+00 0.00000000D+00
  <mgrwgt>
 0.4037461875D+00    5    2    0
 0.127203492287134D+03 0.000000000000000D+00 0.000000000000000D+00 0.127203492287134D+03
 0.127203492287134D+03 0.000000000000000D+00 0.000000000000000D+00 -.127203492287134D+03
 0.145201787540219D+03 -.506745106500729D+02 0.905555230673902D+01 0.529966984600982D+02
 0.109205197034049D+03 0.506745106500729D+02 -.905555230673902D+01 -.529966984600982D+02
 0.000000000000000D+00 0.000000000000000D+00 -.000000000000000D+00 -.000000000000000D+00
 0.272849099727858D+03 0.000000000000000D+00 0.000000000000000D+00 0.272849099727858D+03
 0.273309415963019D+03 0.000000000000000D+00 0.000000000000000D+00 -.273309415963019D+03
 0.231926305496540D+03 -.177577870743990D+03 0.618244365573557D+02 0.529966984600982D+02
 0.100405623551199D+03 -.198593952971526D+02 0.202738170331940D+02 -.529966984600982D+02
 0.213826586643138D+03 0.197437266041143D+03 -.820982535905497D+02 -.460316235161000D+00
0.295002671845D-03 0.000000000000D+00 0.000000000000D+00 0.225489982307D-02 0.000000000000D+00  5 -1 2 25 24 21 0 0.16192126D-02 0.23651979D+00 0.13301973D+05 0.13301973D+05 0.13301973D+05 0.12538148D+01  1  2  2  2  5  2        2 0.393422677795D+00 0.100000000000D+01
-.161978400110D-04 0.000000000000D+00 -.113288793587D-05 0.225489982307D-02 0.000000000000D+00  5 -1 2 25 24 21 2 0.16192126D-02 0.23651979D+00 0.13301973D+05 0.13301973D+05 0.13301973D+05 0.12538148D+01  1  2  3  2  5  2        2 -.339591903707D-01 0.100000000000D+01
0.203282979416D-04 0.000000000000D+00 0.000000000000D+00 0.225489982307D-02 0.000000000000D+00  5 -1 2 25 24 21 2 0.16192126D-02 0.23651979D+00 0.13301973D+05 0.13301973D+05 0.13301973D+05 0.12538148D+01  1  2 15  2  5  2        2 0.426188022133D-01 0.100000000000D+01
0.289726656718D-04 0.000000000000D+00 -.875047243664D-04 0.225489982307D-02 0.000000000000D+00  5 -1 2 25 24 21 2 0.16192126D-02 0.64505251D+00 0.13301973D+05 0.13301973D+05 0.13301973D+05 0.12538148D+01  1  2  5  2  5  2        2 0.164577914695D-02 0.100000000000D+01
0.828784023078D-05 0.000000000000D+00 -.981104451901D-05 0.225489982307D-02 0.000000000000D+00  5 -1 21 25 24 -2 2 0.16192126D-02 0.64505251D+00 0.13301973D+05 0.13301973D+05 0.13301973D+05 0.12538148D+01  1  2  5  4  5  2        2 0.181187397205D-04 0.100000000000D+01
  </mgrwgt>
  </event>
  <event>
  4     66 0.45252658E-03 0.18764425E+03 0.75467711E-02 0.10381580E+00
       -1 -1    0    0    0  501 0.00000000E+00 0.00000000E+00 0.36586540E+02 0.36587939E+02 0.32000000E+00 0.0000E+00 0.9000E+01
        2 -1    0    0  501    0 0.00000000E+00 0.00000000E+00 -.97399077E+03 0.97399083E+03 0.32000000E+00 0.0000E+00 0.9000E+01
       25  1    1    2    0    0 -.67521879E+02 -.14054862E+03 -.55390109E+03 0.58885019E+03 0.12500000E+03 0.0000E+00 0.9000E+01
       24  1    1    2    0    0 0.67521879E+02 0.14054862E+03 -.38350314E+03 0.42172858E+03 0.80419002E+02 0.0000E+00 0.9000E+01
#aMCatNLO 1  0  0  1  2 0.33275555D+03 0.00000000D+00  -5  5  0 0.00000000D+00 0.00000000D+00 0.00000000D+00 0.00000000D+00 0.00000000D+00
  <mgrwgt>
 0.6516522073D+00    3    2    0
 0.188774165491078D+03 0.000000000000000D+00 0.000000000000000D+00 0.188774165491078D+03
 0.188774165491078D+03 0.000000000000000D+00 0.000000000000000D+00 -.188774165491078D+03
 0.200902128051271D+03 -.675218785461823D+02 -.140548623993384D+03 -.205802154189450D+02
 0.176646202930886D+03 0.675218785461823D+02 0.140548623993384D+03 0.205802154189450D+02
 0.000000000000000D+00 0.000000000000000D+00 0.000000000000000D+00 -.000000000000000D+00
 0.284106519199919D+03 0.000000000000000D+00 0.000000000000000D+00 0.284106519199919D+03
 0.110396415390808D+04 0.000000000000000D+00 0.000000000000000D+00 -.110396415390808D+04
 0.404351238376138D+03 -.142736786591685D+03 -.356479436241568D+03 -.205802154189450D+02
 0.989071409153104D+02 0.332788316361605D+02 0.422419302105437D+02 0.205802154189450D+02
 0.884812293816550D+03 0.109457954955524D+03 0.314237506031025D+03 -.819857634708162D+03
0.141818098528D-02 0.000000000000D+00 0.000000000000D+00 0.217542040632D-02 0.000000000000D+00  5 -1 2 25 24 21 0 0.56288101D-02 0.14984485D+00 0.35210364D+05 0.35210364D+05 0.35210364D+05 0.12076660D+01  1  2  2  1  5  1       -1 0.639553957031D+00 0.100000000000D+01
-.787843798422D-04 0.000000000000D+00 -.544618839912D-05 0.217542040632D-02 0.000000000000D+00  5 -1 2 25 24 21 2 0.56288101D-02 0.14984485D+00 0.35210364D+05 0.35210364D+05 0.35210364D+05 0.12076660D+01  1  2  3  1  5  1       -1 -.518178443042D-01 0.100000000000D+01
0.971786831257D-04 0.000000000000D+00 0.000000000000D+00 0.217542040632D-02 0.000000000000D+00  5 -1 2 25 24 21 2 0.56288101D-02 0.14984485D+00 0.35210364D+05 0.35210364D+05 0.35210364D+05 0.12076660D+01  1  2 15  1  5  1       -1 0.639160945607D-01 0.100000000000D+01
  </mgrwgt>
  </event>
  <event>
  5     66 0.45252658E-03 0.12630780E+03 0.75467711E-02 0.12226003E+00
       -1 -1    0    0    0  501 0.00000000E+00 0.00000000E+00 0.69748404E+02 0.69749138E+02 0.32000000E+00 0.0000E+00 0.9000E+01
        2 -1    0    0  502    0 0.00000000E+00 0.00000000E+00 -.28004654E+03 0.28004672E+03 0.32000000E+00 0.0000E+00 0.9000E+01
       25  1    1    2    0    0 -.14864459E+02 0.63047968E+02 -.16167108E+03 0.21437942E+03 0.12500000E+03 0.0000E+00 0.9000E+01
       24  1    1    2    0    0 0.17074346E+02 -.76462106E+02 -.46963675E+02 0.12169959E+03 0.80419002E+02 0.0000E+00 0.9000E+01
       21  1    1    2  502  501 -.22098875E+01 0.13414138E+02 -.16633812E+01 0.13716852E+02 0.75000000E+00 0.0000E+00 0.9000E+01
#aMCatNLO 2  0  0  2  2 0.13594951D+02 0.00000000D+00  -5  5  0 0.00000000D+00 0.00000000D+00 0.00000000D+00 0.00000000D+00 0.00000000D+00
  <mgrwgt>
 0.2427089045D+00    1    2    0
 0.131563499067536D+03 0.000000000000000D+00 0.000000000000000D+00 0.131563499067536D+03
 0.131563499067536D+03 0.000000000000000D+00 0.000000000000000D+00 -.131563499067536D+03
 0.148965331852723D+03 -.160998927145841D+02 0.705471207859291D+02 -.364632321302744D+02
 0.114161666282349D+03 0.160998927145841D+02 -.705471207859291D+02 0.364632321302744D+02
 0.000000000000000D+00 -.000000000000000D+00 0.000000000000000D+00 0.000000000000000D+00
 0.144189521268436D+03 0.000000000000000D+00 0.000000000000000D+00 0.144189521268436D+03
 0.135450123142368D+03 0.000000000000000D+00 0.000000000000000D+00 -.135450123142368D+03
 0.145432340777293D+03 -.148644586231958D+02 0.630479683765915D+02 -.364632321302744D+02
 0.118045627635679D+03 0.170743460946415D+02 -.764621060237356D+02 0.364632321302744D+02
 0.161616759978318D+02 -.220988747144569D+01 0.134141376471441D+02 0.873939812606738D+01
0.226426993641D-03 0.000000000000D+00 0.000000000000D+00 0.242254402503D-02 0.107937738763D-03  5 -1 2 25 24 21 2 0.10729915D-01 0.43081428D-01 0.17776211D+05 0.17776211D+05 0.17776211D+05 0.12395018D+01  1  2  1  2  5  2        2 0.242708904458D+00 0.100000000000D+01
  </mgrwgt>
  </event>
  <event>
  4     66 0.45252658E-03 0.10739020E+03 0.75467711E-02 0.12538473E+00
       -1 -1    0    0    0  501 0.00000000E+00 0.00000000E+00 0.14019528E+02 0.14023179E+02 0.32000000E+00 0.0000E+00 0.9000E+01
        2 -1    0    0  501    0 0.00000000E+00 0.00000000E+00 -.82287561E+03 0.82287568E+03 0.32000000E+00 0.0000E+00 0.9000E+01
       25  1    1    2    0    0 0.27322265E+02 0.13947723E+02 -.49340644E+03 0.50991760E+03 0.12500000E+03 0.0000E+00 0.9000E+01
       24  1    1    2    0    0 -.27322265E+02 -.13947723E+02 -.31544964E+03 0.32698125E+03 0.80419002E+02 0.0000E+00 0.9000E+01
#aMCatNLO 1  0  0  1  2 0.12290938D+02 0.00000000D+00  -5  5  0 0.00000000D+00 0.00000000D+00 0.00000000D+00 0.00000000D+00 0.00000000D+00
  <mgrwgt>
 0.3167115198D+00    4    2    0
 0.107414530773339D+03 0.000000000000000D+00 0.000000000000000D+00 0.107414530773339D+03
 0.107414530773339D+03 0.000000000000000D+00 0.000000000000000D+00 -.107414530773339D+03
 0.128728649030192D+03 0.273222649099317D+02 0.139477228952714D+02 -.224052390449326D+01
 0.861004125164851D+02 -.273222649099317D+02 -.139477228952714D+02 0.224052390449326D+01
 0.000000000000000D+00 0.000000000000000D+00 -.000000000000000D+00 -.000000000000000D+00
 0.108716738942670D+03 0.000000000000000D+00 0.000000000000000D+00 0.108716738942670D+03
 0.141114401440878D+03 0.000000000000000D+00 0.000000000000000D+00 -.141114401440878D+03
 0.128782400894705D+03 0.234035318361842D+02 0.201782439877889D+02 -.224052390449326D+01
 0.863979719162226D+02 -.299472983772008D+02 -.977409685884830D+01 0.224052390449326D+01
 0.346507675726202D+02 0.654376654101668D+01 -.104041471289406D+02 -.323976624982077D+02
0.150825080460D-03 0.000000000000D+00 0.000000000000D+00 0.308496247311D-02 0.000000000000D+00  5 -1 2 25 24 21 0 0.21571361D-02 0.12659653D+00 0.11532656D+05 0.11532656D+05 0.11532656D+05 0.12610511D+01  1  2  2  1  5  1       -1 0.334820345636D+00 0.100000000000D+01
-.837917061397D-05 0.000000000000D+00 -.579208022124D-06 0.308496247311D-02 0.000000000000D+00  5 -1 2 25 24 21 2 0.21571361D-02 0.12659653D+00 0.11532656D+05 0.11532656D+05 0.11532656D+05 0.12610511D+01  1  2  3  1  5  1       -1 -.295804410799D-01 0.100000000000D+01
0.104384565421D-04 0.000000000000D+00 0.000000000000D+00 0.308496247311D-02 0.000000000000D+00  5 -1 2 25 24 21 2 0.21571361D-02 0.12659653D+00 0.11532656D+05 0.11532656D+05 0.11532656D+05 0.12610511D+01  1  2 15  1  5  1       -1 0.368502042666D-01 0.100000000000D+01
-.718892347929D-05 0.000000000000D+00 0.000000000000D+00 0.308496247311D-02 0.000000000000D+00  5 -1 2 25 24 21 2 0.21571361D-02 0.12659653D+00 0.11532656D+05 0.11532656D+05 0.11532656D+05 0.12610511D+01  1  2  4  1  5  1       -1 -.253785890280D-01 0.100000000000D+01
  </mgrwgt>
  </event>
  <event>
  4     66 0.45252658E-03 0.11404094E+03 0.75467711E-02 0.11739778E+00
       -1 -1    0    0    0  501 0.00000000E+00 0.00000000E+00 0.20580039E+02 0.20582526E+02 0.32000000E+00 0.0000E+00 0.9000E+01
        2 -1    0    0  501    0 0.00000000E+00 0.00000000E+00 -.10482359E+04 0.10482360E+04 0.32000000E+00 0.0000E+00 0.9000E+01
       25  1    1    2    0    0 0.41617115E+02 0.25105284E+02 -.90199048E+03 0.91190684E+03 0.12500000E+03 0.0000E+00 0.9000E+01
       24  1    1    2    0    0 -.41617115E+02 -.25105284E+02 -.12566542E+03 0.15691167E+03 0.80419002E+02 0.0000E+00 0.9000E+01
#aMCatNLO 1  0  0  1  2 0.99466702D+02 0.00000000D+00  -5  5  0 0.00000000D+00 0.00000000D+00 0.00000000D+00 0.00000000D+00 0.00000000D+00
  <mgrwgt>
 0.2834855743D+00    4    2    0
 0.146881216400988D+03 0.000000000000000D+00 0.000000000000000D+00 0.146881216400988D+03
 0.146881216400988D+03 0.000000000000000D+00 0.000000000000000D+00 -.146881216400988D+03
 0.162468274212091D+03 0.416171150015338D+02 0.251052838607259D+02 -.916988581536143D+02
 0.131294158589884D+03 -.416171150015338D+02 -.251052838607259D+02 0.916988581536143D+02
 0.000000000000000D+00 0.000000000000000D+00 -.000000000000000D+00 -.000000000000000D+00
 0.197874032804011D+03 0.000000000000000D+00 0.000000000000000D+00 0.197874032804011D+03
 0.212860428263253D+03 0.000000000000000D+00 0.000000000000000D+00 -.212860428263253D+03
 0.176353861893141D+03 0.280681389043537D+02 0.792412998151482D+02 -.916988581536143D+02
 0.133791251963482D+03 -.522174728547269D+02 0.172492924369236D+02 0.916988581536143D+02
 0.100589347210642D+03 0.241493339503733D+02 -.964905922520718D+02 -.149863954592423D+02
0.423980034559D-03 0.000000000000D+00 0.000000000000D+00 0.157154271067D-02 0.000000000000D+00  5 -1 2 25 24 21 0 0.31663549D-02 0.16126726D+00 0.13005336D+05 0.13005336D+05 0.13005336D+05 0.12549496D+01  1  2  2  1  5  1       -1 0.394968467321D+00 0.100000000000D+01
-.217203403312D-04 0.000000000000D+00 -.162819496921D-05 0.157154271067D-02 0.000000000000D+00  5 -1 2 25 24 21 2 0.31663549D-02 0.16126726D+00 0.13005336D+05 0.13005336D+05 0.13005336D+05 0.12549496D+01  1  2  3  1  5  1       -1 -.318666379286D-01 0.100000000000D+01
0.288932954716D-04 0.000000000000D+00 0.000000000000D+00 0.157154271067D-02 0.000000000000D+00  5 -1 2 25 24 21 2 0.31663549D-02 0.16126726D+00 0.13005336D+05 0.13005336D+05 0.13005336D+05 0.12549496D+01  1  2 15  1  5  1       -1 0.423903203780D-01 0.100000000000D+01
-.831598346853D-04 0.000000000000D+00 0.000000000000D+00 0.157154271067D-02 0.000000000000D+00  5 -1 2 25 24 21 2 0.31663549D-02 0.16126726D+00 0.13005336D+05 0.13005336D+05 0.13005336D+05 0.12549496D+01  1  2  4  1  5  1       -1 -.122006575482D+00 0.100000000000D+01
  </mgrwgt>
  </event>
  <event>
  4     66 0.45252658E-03 0.10478240E+03 0.75467711E-02 0.11340677E+00
       -1 -1    0    0    0  501 0.00000000E+00 0.00000000E+00 0.11745210E+03 0.11745253E+03 0.32000000E+00 0.0000E+00 0.9000E+01
        2 -1    0    0  501    0 0.00000000E+00 0.00000000E+00 -.38229848E+03 0.38229861E+03 0.32000000E+00 0.0000E+00 0.9000E+01
       25  1    1    2    0    0 -.78597404E+02 -.15605809E+03 -.70004138E+02 0.22595853E+03 0.12500000E+03 0.0000E+00 0.9000E+01
       24  1    1    2    0    0 0.78597404E+02 0.15605809E+03 -.19484224E+03 0.27379261E+03 0.80419002E+02 0.0000E+00 0.9000E+01
#aMCatNLO 1  0  0  1  2 0.31084181D+02 0.00000000D+00  -5  5  0 0.00000000D+00 0.00000000D+00 0.00000000D+00 0.00000000D+00 0.00000000D+00
  <mgrwgt>
 0.4649132290D+00    9    2    0
 0.211900686980162D+03 0.000000000000000D+00 0.000000000000000D+00 0.211900686980162D+03
 0.211900686980162D+03 0.000000000000000D+00 0.000000000000000D+00 -.211900686980162D+03
 0.222705021992165D+03 -.785974035776138D+02 -.156058091822688D+03 0.586587329223030D+02
 0.201096351968158D+03 0.785974035776138D+02 0.156058091822688D+03 -.586587329223030D+02
 0.000000000000000D+00 -.000000000000000D+00 -.000000000000000D+00 0.000000000000000D+00
 0.376929003728408D+03 0.000000000000000D+00 0.000000000000000D+00 0.376929003728408D+03
 0.213938692505365D+03 0.000000000000000D+00 0.000000000000000D+00 -.213938692505365D+03
 0.215398241722162D+03 -.628662510319001D+02 -.152899934827137D+03 0.586587329223030D+02
 0.209541555013655D+03 0.933423463589479D+02 0.159018259175877D+03 -.586587329223030D+02
 0.165927899497956D+03 -.304760953270479D+02 -.611832434873978D+01 0.162990311223042D+03
0.179668032743D-02 0.000000000000D+00 0.000000000000D+00 0.197578362947D-02 0.000000000000D+00  5 -1 2 25 24 21 0 0.18069598D-01 0.58815194D-01 0.41451337D+05 0.41451337D+05 0.41451337D+05 0.12004316D+01  1  2  2  1  5  1       -1 0.404747921541D+00 0.100000000000D+01
-.996215899677D-04 0.000000000000D+00 -.689972553412D-05 0.197578362947D-02 0.000000000000D+00  5 -1 2 25 24 21 2 0.18069598D-01 0.58815194D-01 0.41451337D+05 0.41451337D+05 0.41451337D+05 0.12004316D+01  1  2  3  1  5  1       -1 -.323401561911D-01 0.100000000000D+01
0.122696324246D-03 0.000000000000D+00 0.000000000000D+00 0.197578362947D-02 0.000000000000D+00  5 -1 2 25 24 21 2 0.18069598D-01 0.58815194D-01 0.41451337D+05 0.41451337D+05 0.41451337D+05 0.12004316D+01  1  2 15  1  5  1       -1 0.398309070500D-01 0.100000000000D+01
0.177829765738D-01 0.000000000000D+00 0.000000000000D+00 0.197578362947D-02 0.000000000000D+00  5 -1 2 25 24 21 2 0.32167108D-01 0.58815194D-01 0.48291174D+05 0.48291174D+05 0.48291174D+05 0.11937803D+01  1  2 12  1  5  1       -1 0.219864251329D+01 0.100000000000D+01
-.153890183525D-01 0.000000000000D+00 0.000000000000D+00 0.197578362947D-02 0.000000000000D+00  5 -1 2 25 24 21 2 0.18069598D-01 0.58815194D-01 0.41451337D+05 0.41451337D+05 0.41451337D+05 0.12004316D+01  1  2  4  1  5  1       -1 -.499573694125D+01 0.100000000000D+01
-.178876543514D-01 0.000000000000D+00 -.551837275488D-03 0.197578362947D-02 0.000000000000D+00  5 -1 2 25 24 21 2 0.32289378D-01 0.58815194D-01 0.41451337D+05 0.41451337D+05 0.41451337D+05 0.12004316D+01  1  2  5  1  5  1       -1 -.222136819686D+01 0.100000000000D+01
0.155883547652D-01 0.000000000000D+00 0.470337365804D-03 0.197578362947D-02 0.000000000000D+00  5 -1 2 25 24 21 2 0.18069598D-01 0.58815194D-01 0.41451337D+05 0.41451337D+05 0.41451337D+05 0.12004316D+01  1  2  6  1  5  1       -1 0.506044751978D+01 0.100000000000D+01
0.112771615433D-02 0.000000000000D+00 0.000000000000D+00 0.197578362947D-02 0.000000000000D+00  5 21 2 25 24 1 2 0.32167108D-01 0.58815194D-01 0.48291174D+05 0.48291174D+05 0.48291174D+05 0.11937803D+01  1  2 12  3  5  1       -1 0.155188698481D+01 0.100000000000D+01
-.111176034471D-02 0.000000000000D+00 -.351929283398D-04 0.197578362947D-02 0.000000000000D+00  5 21 2 25 24 1 2 0.32289378D-01 0.58815194D-01 0.41451337D+05 0.41451337D+05 0.41451337D+05 0.12004316D+01  1  2  5  3  5  1       -1 -.154119732314D+01 0.100000000000D+01
  </mgrwgt>
  </event>
  <event>
  4     66 0.45252658E-03 0.71382253E+02 0.75467711E-02 0.12206759E+00
       -1 -1    0    0    0  501 0.00000000E+00 0.00000000E+00 0.95137019E+01 0.95190821E+01 0.32000000E+00 0.0000E+00 0.9000E+01
        2 -1    0    0  501    0 0.00000000E+00 0.00000000E+00 -.17755684E+04 0.17755684E+04 0.32000000E+00 0.0000E+00 0.9000E+01
       25  1    1    2    0    0 0.16680208E+02 -.59966128E+02 -.13310364E+04 0.13383411E+04 0.12500000E+03 0.0000E+00 0.9000E+01
       24  1    1    2    0    0 -.16680208E+02 0.59966128E+02 -.43501833E+03 0.44674638E+03 0.80419002E+02 0.0000E+00 0.9000E+01
#aMCatNLO 1  0  0  2  1 0.26865284D+02 0.00000000D+00  -5  5  0 0.00000000D+00 0.00000000D+00 0.00000000D+00 0.00000000D+00 0.00000000D+00
  <mgrwgt>
 0.5470491905D+00    9    2    0
 0.129988677376821D+03 0.000000000000000D+00 0.000000000000000D+00 0.129988677376821D+03
 0.129988677376821D+03 0.000000000000000D+00 0.000000000000000D+00 -.129988677376821D+03
 0.147601334552881D+03 0.166802075867959D+02 -.599661283452509D+02 -.478224642603625D+02
 0.112376020200761D+03 -.166802075867959D+02 0.599661283452509D+02 0.478224642603625D+02
 0.000000000000000D+00 -.000000000000000D+00 0.000000000000000D+00 -.000000000000000D+00
 0.135481304105680D+03 0.000000000000000D+00 0.000000000000000D+00 0.135481304105680D+03
 0.168268357103997D+03 0.000000000000000D+00 0.000000000000000D+00 -.168268357103997D+03
 0.154303142230394D+03 0.263978862929324D+02 -.721153465879843D+02 -.478224642603625D+02
 0.107058615661044D+03 -.961706194873416D+01 0.511356555099190D+02 0.478224642603625D+02
 0.423879033182387D+02 -.167808243441983D+02 0.209796910780653D+02 -.327870529983172D+02
0.289152744926D-03 0.000000000000D+00 0.000000000000D+00 0.230716886079D-02 0.000000000000D+00  5 -1 2 25 24 21 0 0.14640625D-02 0.27316479D+00 0.14560283D+05 0.14560283D+05 0.14560283D+05 0.12492983D+01  1  2  2  2  5  2        2 0.337307382815D+00 0.100000000000D+01
-.159558664074D-04 0.000000000000D+00 -.111042267618D-05 0.230716886079D-02 0.000000000000D+00  5 -1 2 25 24 21 2 0.14640625D-02 0.27316479D+00 0.14560283D+05 0.14560283D+05 0.14560283D+05 0.12492983D+01  1  2  3  2  5  2        2 -.290503391387D-01 0.100000000000D+01
0.199821425770D-04 0.000000000000D+00 0.000000000000D+00 0.230716886079D-02 0.000000000000D+00  5 -1 2 25 24 21 2 0.14640625D-02 0.27316479D+00 0.14560283D+05 0.14560283D+05 0.14560283D+05 0.12492983D+01  1  2 15  2  5  2        2 0.363808522682D-01 0.100000000000D+01
0.546266789477D-03 0.000000000000D+00 0.000000000000D+00 0.230716886079D-02 0.000000000000D+00  5 -1 2 25 24 21 2 0.14640625D-02 0.35814701D+00 0.18137974D+05 0.18137974D+05 0.18137974D+05 0.12385260D+01  1  2 12  2  5  2        2 0.510492686087D+00 0.100000000000D+01
-.559134304920D-03 0.000000000000D+00 0.000000000000D+00 0.230716886079D-02 0.000000000000D+00  5 -1 2 25 24 21 2 0.14640625D-02 0.27316479D+00 0.14560283D+05 0.14560283D+05 0.14560283D+05 0.12492983D+01  1  2  4  2  5  2        2 -.101799806838D+01 0.100000000000D+01
-.783005659453D-03 0.000000000000D+00 -.145703466865D-03 0.230716886079D-02 0.000000000000D+00  5 -1 2 25 24 21 2 0.14640625D-02 0.35846262D+00 0.14560283D+05 0.14560283D+05 0.14560283D+05 0.12492983D+01  1  2  5  2  5  2        2 -.741696860125D+00 0.100000000000D+01
0.798166512083D-03 0.000000000000D+00 0.140484253494D-03 0.230716886079D-02 0.000000000000D+00  5 -1 2 25 24 21 2 0.14640625D-02 0.27316479D+00 0.14560283D+05 0.14560283D+05 0.14560283D+05 0.12492983D+01  1  2  6  2  5  2        2 0.145319641523D+01 0.100000000000D+01
0.196072495699D-04 0.000000000000D+00 0.000000000000D+00 0.230716886079D-02 0.000000000000D+00  5 -1 21 25 24 -2 2 0.14640625D-02 0.35814701D+00 0.18137974D+05 0.18137974D+05 0.18137974D+05 0.12385260D+01  1  2 12  4  5  2        2 0.470851548976D-02 0.100000000000D+01
-.253760220776D-04 0.000000000000D+00 -.524216105633D-05 0.230716886079D-02 0.000000000000D+00  5 -1 21 25 24 -2 2 0.14640625D-02 0.35846262D+00 0.14560283D+05 0.14560283D+05 0.14560283D+05 0.12492983D+01  1  2  5  4  5  2        2 -.629139376404D-02 0.100000000000D+01
  </mgrwgt>
  </event>
  <event>
  5     66 0.45252658E-03 0.10731390E+03 0.75467711E-02 0.12115902E+00
       -1 -1    0    0    0  502 0.00000000E+00 0.00000000E+00 0.11913454E+02 0.11917751E+02 0.32000000E+00 0.0000E+00 0.9000E+01
        2 -1    0    0  501    0 0.00000000E+00 0.00000000E+00 -.31222705E+04 0.31222706E+04 0.32000000E+00 0.0000E+00 0.9000E+01
       25  1    1    2    0    0 -.60000545E+02 0.55497388E+01 -.23503198E+04 0.23544127E+04 0.12500000E+03 0.0000E+00 0.9000E+01
       24  1    1    2    0    0 0.26242190E+01 -.23313759E+02 -.64090393E+03 0.64635554E+03 0.80419002E+02 0.0000E+00 0.9000E+01
       21  1    1    2  501  502 0.57376326E+02 0.17764020E+02 -.11913334E+03 0.13342008E+03 0.75000000E+00 0.0000E+00 0.9000E+01
#aMCatNLO 2  0  0  1  2 0.60063326D+02 0.00000000D+00  -5  5  0 0.00000000D+00 0.00000000D+00 0.00000000D+00 0.00000000D+00 0.00000000D+00
  <mgrwgt>
 0.9625115691D-01    2    2    0
 0.115739837093875D+03 0.000000000000000D+00 0.000000000000000D+00 0.115739837093875D+03
 0.115739837093875D+03 0.000000000000000D+00 0.000000000000000D+00 -.115739837093875D+03
 0.135520805072519D+03 -.257812831282561D+02 0.161442067218467D+02 -.426096073331665D+02
 0.959588691152318D+02 0.257812831282561D+02 -.161442067218467D+02 0.426096073331665D+02
 0.000000000000000D+00 0.000000000000000D+00 0.000000000000000D+00 0.000000000000000D+00
 0.298554235861129D+03 0.000000000000000D+00 0.000000000000000D+00 0.298554235861129D+03
 0.124611686125768D+03 0.000000000000000D+00 0.000000000000000D+00 -.124611686125768D+03
 0.145160062064492D+03 -.600005448379232D+02 0.554973878961813D+01 -.426096073331665D+02
 0.939851714816489D+02 0.262421901599693D+01 -.233137586316291D+02 0.426096073331665D+02
 0.184020688440756D+03 0.573763258219262D+02 0.177640198420110D+02 0.173942549735361D+03
-.481934950557D-03 0.000000000000D+00 0.000000000000D+00 0.253808821844D-02 0.000000000000D+00  5 -1 2 25 24 21 2 0.18134467D-02 0.44614805D+00 0.19965711D+05 0.19965711D+05 0.19965711D+05 0.12339081D+01  1  2 13  1  5  1       -1 -.160554701688D+00 0.100000000000D+01
0.105396630638D-02 0.000000000000D+00 0.000000000000D+00 0.253808821844D-02 0.845337499136D-05  5 -1 2 25 24 21 2 0.18331601D-02 0.48034681D+00 0.19965711D+05 0.19965711D+05 0.19965711D+05 0.12339081D+01  1  2  1  1  5  1       -1 0.256805858593D+00 0.100000000000D+01
  </mgrwgt>
  </event>
  <event>
  4     66 0.45252658E-03 0.11539114E+03 0.75467711E-02 0.10757852E+00
       -3 -1    0    0    0  501 0.00000000E+00 0.00000000E+00 0.10496951E+03 0.10497070E+03 0.50000000E+00 0.0000E+00 0.9000E+01
        4 -1    0    0  501    0 0.00000000E+00 0.00000000E+00 -.14819751E+03 0.14820561E+03 0.15500000E+01 0.0000E+00 0.9000E+01
       25  1    1    2    0    0 -.50361617E+02 0.11241412E+02 0.22651778E+02 0.13711588E+03 0.12500000E+03 0.0000E+00 0.9000E+01
       24  1    1    2    0    0 0.50361617E+02 -.11241412E+02 -.65879782E+02 0.11606043E+03 0.80419002E+02 0.0000E+00 0.9000E+01
#aMCatNLO 1  0  0  2  1 0.27791730D+03 0.00000000D+00  -5  5  0 0.00000000D+00 0.00000000D+00 0.00000000D+00 0.00000000D+00 0.00000000D+00
  <mgrwgt>
 0.7292085567D-01    3    2    0
 0.124729291186820D+03 0.000000000000000D+00 0.000000000000000D+00 0.124729291186820D+03
 0.124729291186820D+03 0.000000000000000D+00 0.000000000000000D+00 -.124729291186820D+03
 0.143084610852497D+03 -.503616172755974D+02 0.112414115370482D+02 0.467498025113623D+02
 0.106373971521143D+03 0.503616172755974D+02 -.112414115370482D+02 -.467498025113623D+02
 0.000000000000000D+00 -.000000000000000D+00 -.000000000000000D+00 0.000000000000000D+00
 0.698675559494122D+03 0.000000000000000D+00 0.000000000000000D+00 0.698675559494122D+03
 0.224444470264660D+03 0.000000000000000D+00 0.000000000000000D+00 -.224444470264660D+03
 0.200190470757143D+03 0.184386465277217D+02 0.148073282064459D+03 0.467498025113623D+02
 0.173263156855144D+03 0.106407363769277D+03 0.100223921644790D+03 -.467498025113623D+02
 0.549666402146496D+03 -.124846010296999D+03 -.248297203709249D+03 0.474231089229463D+03
0.651631878293D-03 0.000000000000D+00 0.000000000000D+00 0.236818382910D-02 0.000000000000D+00  5 -3 4 25 24 21 0 0.16149870D-01 0.22800332D-01 0.13315115D+05 0.13315115D+05 0.13315115D+05 0.12537652D+01  1  2  2  2  5  2        4 0.713895645753D-01 0.100000000000D+01
-.359352243461D-04 0.000000000000D+00 -.250243799126D-05 0.236818382910D-02 0.000000000000D+00  5 -3 4 25 24 21 2 0.16149870D-01 0.22800332D-01 0.13315115D+05 0.13315115D+05 0.13315115D+05 0.12537652D+01  1  2  3  2  5  2        4 -.618849693924D-02 0.100000000000D+01
0.448270908855D-04 0.000000000000D+00 0.000000000000D+00 0.236818382910D-02 0.000000000000D+00  5 -3 4 25 24 21 2 0.16149870D-01 0.22800332D-01 0.13315115D+05 0.13315115D+05 0.13315115D+05 0.12537652D+01  1  2 15  2  5  2        4 0.771978802938D-02 0.100000000000D+01
  </mgrwgt>
  </event>
  <event>
  4     66 0.45252658E-03 0.11412920E+03 0.75467711E-02 0.11111294E+00
       -1 -1    0    0    0  501 0.00000000E+00 0.00000000E+00 0.80829388E+02 0.80830021E+02 0.32000000E+00 0.0000E+00 0.9000E+01
        2 -1    0    0  501    0 0.00000000E+00 0.00000000E+00 -.21752475E+03 0.21752498E+03 0.32000000E+00 0.0000E+00 0.9000E+01
       25  1    1    2    0    0 0.43529384E+02 0.22067360E+02 -.21755156E+01 0.13420696E+03 0.12500000E+03 0.0000E+00 0.9000E+01
       24  1    1    2    0    0 -.43529384E+02 -.22067360E+02 -.13451985E+03 0.16414804E+03 0.80419002E+02 0.0000E+00 0.9000E+01
#aMCatNLO 1  0  0  1  1 0.20180444D+03 0.00000000D+00  -5  5  0 0.00000000D+00 0.00000000D+00 0.00000000D+00 0.00000000D+00 0.00000000D+00
  <mgrwgt>
 0.4337841096D+00    3    2    0
 0.132599102328210D+03 0.000000000000000D+00 0.000000000000000D+00 0.132599102328210D+03
 0.132599102328210D+03 0.000000000000000D+00 0.000000000000000D+00 -.132599102328210D+03
 0.149865026238769D+03 0.435293842061255D+02 0.220673598123684D+02 0.667289324887936D+02
 0.115333178417650D+03 -.435293842061255D+02 -.220673598123684D+02 -.667289324887936D+02
 0.000000000000000D+00 0.000000000000000D+00 -.000000000000000D+00 -.000000000000000D+00
 0.185094225125532D+03 0.000000000000000D+00 0.000000000000000D+00 0.185094225125532D+03
 0.717870103405433D+03 0.000000000000000D+00 0.000000000000000D+00 -.717870103405433D+03
 0.179748771211845D+03 -.282558608022067D+02 0.106927436382813D+03 0.667289324887936D+02
 0.153500567028656D+03 -.102077589507702D+03 0.471447071573436D+02 -.667289324887936D+02
 0.569714990290464D+03 0.130333450309908D+03 -.154072143540157D+03 -.532775878279901D+03
0.589274517082D-03 0.000000000000D+00 0.000000000000D+00 0.200379673841D-02 0.000000000000D+00  5 -1 2 25 24 21 0 0.12435357D-01 0.33465413D-01 0.13025475D+05 0.13025475D+05 0.13025475D+05 0.12548717D+01  1  2  2  1  5  1       -1 0.424276581039D+00 0.100000000000D+01
-.318418935787D-04 0.000000000000D+00 -.226296930514D-05 0.200379673841D-02 0.000000000000D+00  5 -1 2 25 24 21 2 0.12435357D-01 0.33465413D-01 0.13025475D+05 0.13025475D+05 0.13025475D+05 0.12548717D+01  1  2  3  1  5  1       -1 -.361018057302D-01 0.100000000000D+01
0.402275603873D-04 0.000000000000D+00 0.000000000000D+00 0.200379673841D-02 0.000000000000D+00  5 -1 2 25 24 21 2 0.12435357D-01 0.33465413D-01 0.13025475D+05 0.13025475D+05 0.13025475D+05 0.12548717D+01  1  2 15  1  5  1       -1 0.456093343354D-01 0.100000000000D+01
  </mgrwgt>
  </event>
  <event>
  4     66 0.45252658E-03 0.12496823E+03 0.75467711E-02 0.11459960E+00
       -1 -1    0    0    0  501 0.00000000E+00 0.00000000E+00 0.33058679E+02 0.33060228E+02 0.32000000E+00 0.0000E+00 0.9000E+01
        2 -1    0    0  501    0 0.00000000E+00 0.00000000E+00 -.97934990E+03 0.97934995E+03 0.32000000E+00 0.0000E+00 0.9000E+01
       25  1    1    2    0    0 -.91152427E+01 -.14631597E+03 -.50357559E+03 0.53917050E+03 0.12500000E+03 0.0000E+00 0.9000E+01
       24  1    1    2    0    0 0.91152427E+01 0.14631597E+03 -.44271563E+03 0.47323968E+03 0.80419002E+02 0.0000E+00 0.9000E+01
#aMCatNLO 1  0  0  2  1 0.46185834D+02 0.00000000D+00  -5  5  0 0.00000000D+00 0.00000000D+00 0.00000000D+00 0.00000000D+00 0.00000000D+00
  <mgrwgt>
 0.5243881301D+00    9    2    0
 0.179935612948960D+03 0.000000000000000D+00 0.000000000000000D+00 0.179935612948960D+03
 0.179935612948960D+03 0.000000000000000D+00 0.000000000000000D+00 -.179935612948960D+03
 0.192659308797078D+03 -.911524270284191D+01 -.146315971931116D+03 0.107609223076357D+01
 0.167211917100841D+03 0.911524270284191D+01 0.146315971931116D+03 -.107609223076357D+01
 0.000000000000000D+00 -.000000000000000D+00 0.000000000000000D+00 -.000000000000000D+00
 0.193697174466108D+03 0.000000000000000D+00 0.000000000000000D+00 0.193697174466108D+03
 0.224818073845717D+03 0.000000000000000D+00 0.000000000000000D+00 -.224818073845717D+03
 0.205783850511589D+03 0.998118604723305D+01 -.163160078088905D+03 0.107609223076357D+01
 0.157039013345344D+03 0.246558151678198D+02 0.132608327649623D+03 -.107609223076357D+01
 0.556923844548921D+02 -.346370012150529D+02 0.305517504392819D+02 -.311208993796094D+02
0.623486230923D-03 0.000000000000D+00 0.000000000000D+00 0.223432510417D-02 0.000000000000D+00  5 -1 2 25 24 21 0 0.50860738D-02 0.15066934D+00 0.32375661D+05 0.32375661D+05 0.32375661D+05 0.12114400D+01  1  2  2  2  5  2        2 0.324288006508D+00 0.100000000000D+01
-.346381239266D-04 0.000000000000D+00 -.239435129444D-05 0.223432510417D-02 0.000000000000D+00  5 -1 2 25 24 21 2 0.50860738D-02 0.15066934D+00 0.32375661D+05 0.32375661D+05 0.32375661D+05 0.12114400D+01  1  2  3  2  5  2        2 -.264400447029D-01 0.100000000000D+01
0.428702016667D-04 0.000000000000D+00 0.000000000000D+00 0.223432510417D-02 0.000000000000D+00  5 -1 2 25 24 21 2 0.50860738D-02 0.15066934D+00 0.32375661D+05 0.32375661D+05 0.32375661D+05 0.12114400D+01  1  2 15  2  5  2        2 0.327237713824D-01 0.100000000000D+01
0.796353926000D-03 0.000000000000D+00 0.000000000000D+00 0.223432510417D-02 0.000000000000D+00  5 -1 2 25 24 21 2 0.50860738D-02 0.19293987D+00 0.41820699D+05 0.41820699D+05 0.41820699D+05 0.12000421D+01  1  2 12  2  5  2        2 0.414707127259D+00 0.100000000000D+01
-.821898370309D-03 0.000000000000D+00 0.000000000000D+00 0.223432510417D-02 0.000000000000D+00  5 -1 2 25 24 21 2 0.50860738D-02 0.15066934D+00 0.32375661D+05 0.32375661D+05 0.32375661D+05 0.12114400D+01  1  2  4  2  5  2        2 -.627373171199D+00 0.100000000000D+01
-.148869098896D-02 0.000000000000D+00 -.376272036516D-03 0.223432510417D-02 0.000000000000D+00  5 -1 2 25 24 21 2 0.50860738D-02 0.19609979D+00 0.32375661D+05 0.32375661D+05 0.32375661D+05 0.12114400D+01  1  2  5  2  5  2        2 -.768186546940D+00 0.100000000000D+01
0.154653486238D-02 0.000000000000D+00 0.363573479193D-03 0.223432510417D-02 0.000000000000D+00  5 -1 2 25 24 21 2 0.50860738D-02 0.15066934D+00 0.32375661D+05 0.32375661D+05 0.32375661D+05 0.12114400D+01  1  2  6  2  5  2        2 0.118050420348D+01 0.100000000000D+01
0.267352602443D-04 0.000000000000D+00 0.000000000000D+00 0.223432510417D-02 0.000000000000D+00  5 -1 21 25 24 -2 2 0.50860738D-02 0.19293987D+00 0.41820699D+05 0.41820699D+05 0.41820699D+05 0.12000421D+01  1  2 12  4  5  2        2 0.866407709457D-02 0.100000000000D+01
-.455019870925D-04 0.000000000000D+00 -.132374041061D-04 0.223432510417D-02 0.000000000000D+00  5 -1 21 25 24 -2 2 0.50860738D-02 0.19609979D+00 0.32375661D+05 0.32375661D+05 0.32375661D+05 0.12114400D+01  1  2  5  4  5  2        2 -.144992927891D-01 0.100000000000D+01
  </mgrwgt>
  </event>
  <event>
  5     66 0.45252658E-03 0.18118142E+03 0.75467711E-02 0.11245684E+00
       21 -1    0    0  502  501 0.00000000E+00 0.00000000E+00 0.15884143E+03 0.15884321E+03 0.75000000E+00 0.0000E+00 0.9000E+01
        2 -1    0    0  501    0 0.00000000E+00 0.00000000E+00 -.34790343E+03 0.34790357E+03 0.32000000E+00 0.0000E+00 0.9000E+01
       25  1    1    2    0    0 0.88525060E+02 -.14747910E+03 -.11889575E+03 0.24361439E+03 0.12500000E+03 0.0000E+00 0.9000E+01
       24  1    1    2    0    0 0.32314076E+01 0.13969101E+03 -.50788339E+02 0.16902867E+03 0.80419002E+02 0.0000E+00 0.9000E+01
        1  1    1    2  502    0 -.91756468E+02 0.77880901E+01 -.19377904E+02 0.94103716E+02 0.32000000E+00 0.0000E+00 0.9000E+01
#aMCatNLO 2  0  0  1  2 0.92086393D+02 0.00000000D+00  -5  5  0 0.00000000D+00 0.00000000D+00 0.00000000D+00 0.00000000D+00 0.00000000D+00
  <mgrwgt>
 0.5929663004D-01    2    2    0
 0.182346993437898D+03 0.000000000000000D+00 0.000000000000000D+00 0.182346993437898D+03
 0.182346993437898D+03 0.000000000000000D+00 0.000000000000000D+00 -.182346993437898D+03
 0.194902429468090D+03 0.379272952295694D+02 -.143184473914574D+03 -.205349389806691D+02
 0.169791557407706D+03 -.379272952295694D+02 0.143184473914574D+03 0.205349389806691D+02
 0.000000000000000D+00 -.000000000000000D+00 0.000000000000000D+00 0.000000000000000D+00
 0.245913835457875D+03 0.000000000000000D+00 0.000000000000000D+00 0.245913835457875D+03
 0.224720323619685D+03 0.000000000000000D+00 0.000000000000000D+00 -.224720323619685D+03
 0.213619885973407D+03 0.885250602075590D+02 -.147479102518288D+03 -.205349389806691D+02
 0.162520523706910D+03 0.323140759774738D+01 0.139691012443877D+03 0.205349389806691D+02
 0.944937493972425D+02 -.917564678053063D+02 0.778809007441166D+01 0.211935118381901D+02
-.124010172666D-04 0.000000000000D+00 0.000000000000D+00 0.219791163612D-02 0.000000000000D+00  5 21 2 25 24 1 2 0.25937025D-01 0.43431247D-01 0.54273850D+05 0.54273850D+05 0.54273850D+05 0.11887701D+01  1  2 13  3  5  1       -1 -.356210621093D-01 0.100000000000D+01
0.369246653211D-04 0.000000000000D+00 0.000000000000D+00 0.219791163612D-02 0.105802403502D-06  5 21 2 25 24 1 2 0.24437263D-01 0.53523689D-01 0.54273850D+05 0.54273850D+05 0.54273850D+05 0.11887701D+01  1  2  1  3  5  1       -1 0.949176921468D-01 0.100000000000D+01
  </mgrwgt>
  </event>
  <event>
  4     66 0.45252658E-03 0.10769981E+03 0.75467711E-02 0.12313503E+00
       -1 -1    0    0    0  501 0.00000000E+00 0.00000000E+00 0.41660642E+02 0.41661871E+02 0.32000000E+00 0.0000E+00 0.9000E+01
        2 -1    0    0  501    0 0.00000000E+00 0.00000000E+00 -.28735007E+03 0.28735025E+03 0.32000000E+00 0.0000E+00 0.9000E+01
       25  1    1    2    0    0 -.21209007E+02 0.23562832E+02 -.11788507E+03 0.17471955E+03 0.12500000E+03 0.0000E+00 0.9000E+01
       24  1    1    2    0    0 0.21209007E+02 -.23562832E+02 -.12780435E+03 0.15429257E+03 0.80419002E+02 0.0000E+00 0.9000E+01
#aMCatNLO 1  0  0  2  2 0.36323398D+02 0.00000000D+00  -5  5  0 0.00000000D+00 0.00000000D+00 0.00000000D+00 0.00000000D+00 0.00000000D+00
  <mgrwgt>
 0.2222485391D+00    4    2    0
 0.109413983145194D+03 0.000000000000000D+00 0.000000000000000D+00 0.109413983145194D+03
 0.109413983145194D+03 0.000000000000000D+00 0.000000000000000D+00 -.109413983145194D+03
 0.130338603066665D+03 -.212090071720413D+02 0.235628319725156D+02 0.189241225313314D+02
 0.884893632237236D+02 0.212090071720413D+02 -.235628319725156D+02 -.189241225313314D+02
 0.000000000000000D+00 -.000000000000000D+00 0.000000000000000D+00 0.000000000000000D+00
 0.144295430450152D+03 0.000000000000000D+00 0.000000000000000D+00 0.144295430450152D+03
 0.120791373522482D+03 0.000000000000000D+00 0.000000000000000D+00 -.120791373522482D+03
 0.127021706166391D+03 -.357120403410559D+01 0.117744607344366D+02 0.189241225313314D+02
 0.948004479671185D+02 0.337704997215625D+02 -.319584091495635D+02 -.189241225313314D+02
 0.432646498391254D+02 -.301992956874569D+02 0.201839484151269D+02 0.235040569276705D+02
0.232537785046D-03 0.000000000000D+00 0.000000000000D+00 0.295201015434D-02 0.000000000000D+00  5 -1 2 25 24 21 0 0.64094378D-02 0.44207811D-01 0.11599249D+05 0.11599249D+05 0.11599249D+05 0.12607566D+01  1  2  2  2  5  2        2 0.337603730315D+00 0.100000000000D+01
-.129148491784D-04 0.000000000000D+00 -.893006323183D-06 0.295201015434D-02 0.000000000000D+00  5 -1 2 25 24 21 2 0.64094378D-02 0.44207811D-01 0.11599249D+05 0.11599249D+05 0.11599249D+05 0.12607566D+01  1  2  3  2  5  2        2 -.298033833003D-01 0.100000000000D+01
0.160479324536D-04 0.000000000000D+00 0.000000000000D+00 0.295201015434D-02 0.000000000000D+00  5 -1 2 25 24 21 2 0.64094378D-02 0.44207811D-01 0.11599249D+05 0.11599249D+05 0.11599249D+05 0.12607566D+01  1  2 15  2  5  2        2 0.370335476231D-01 0.100000000000D+01
-.531205253344D-04 0.000000000000D+00 0.000000000000D+00 0.295201015434D-02 0.000000000000D+00  5 -1 2 25 24 21 2 0.64094378D-02 0.44207811D-01 0.11599249D+05 0.11599249D+05 0.11599249D+05 0.12607566D+01  1  2  4  2  5  2        2 -.122585355492D+00 0.100000000000D+01
  </mgrwgt>
  </event>
  <event>
  4     66 0.45252658E-03 0.10624391E+03 0.75467711E-02 0.11707261E+00
       -1 -1    0    0    0  501 0.00000000E+00 0.00000000E+00 0.41307990E+03 0.41308003E+03 0.32000000E+00 0.0000E+00 0.9000E+01
        2 -1    0    0  501    0 0.00000000E+00 0.00000000E+00 -.27726745E+02 0.27728591E+02 0.32000000E+00 0.0000E+00 0.9000E+01
       25  1    1    2    0    0 0.21577234E+02 -.15506172E+02 0.20519735E+03 0.24173740E+03 0.12500000E+03 0.0000E+00 0.9000E+01
       24  1    1    2    0    0 -.21577234E+02 0.15506172E+02 0.18015581E+03 0.19907122E+03 0.80419002E+02 0.0000E+00 0.9000E+01
#aMCatNLO 1  0  0  2  2 0.11330708D+03 0.00000000D+00  -5  5  0 0.00000000D+00 0.00000000D+00 0.00000000D+00 0.00000000D+00 0.00000000D+00
  <mgrwgt>
 0.2541920461D+00    5    2    0
 0.107022405476860D+03 0.000000000000000D+00 0.000000000000000D+00 0.107022405476860D+03
 0.107022405476860D+03 0.000000000000000D+00 0.000000000000000D+00 -.107022405476860D+03
 0.128414617707619D+03 0.215772343581399D+02 -.155061715270070D+02 -.126212377769756D+02
 0.856301932461007D+02 -.215772343581399D+02 0.155061715270070D+02 0.126212377769756D+02
 0.000000000000000D+00 -.000000000000000D+00 0.000000000000000D+00 -.000000000000000D+00
 0.153522294428744D+03 0.000000000000000D+00 0.000000000000000D+00 0.153522294428744D+03
 0.220064355697652D+03 0.000000000000000D+00 0.000000000000000D+00 -.220064355697652D+03
 0.159313448546182D+03 0.828960273559527D+02 -.521989261695608D+02 -.126212377769756D+02
 0.828717583793577D+02 0.143328401298139D+02 -.598217630184419D+01 0.126212377769756D+02
 0.131401443200857D+03 -.972288674857666D+02 0.581811024714050D+02 -.665420612689078D+02
0.460567404293D-03 0.000000000000D+00 0.000000000000D+00 0.306229476408D-02 0.000000000000D+00  5 -1 2 25 24 21 0 0.63550906D-01 0.42658046D-02 0.11287769D+05 0.11287769D+05 0.11287769D+05 0.12621504D+01  1  2  2  2  5  2        2 0.248349353513D+00 0.100000000000D+01
-.255854198325D-04 0.000000000000D+00 -.176870010267D-05 0.306229476408D-02 0.000000000000D+00  5 -1 2 25 24 21 2 0.63550906D-01 0.42658046D-02 0.11287769D+05 0.11287769D+05 0.11287769D+05 0.12621504D+01  1  2  3  2  5  2        2 -.219778203514D-01 0.100000000000D+01
0.318983505476D-04 0.000000000000D+00 0.000000000000D+00 0.306229476408D-02 0.000000000000D+00  5 -1 2 25 24 21 2 0.63550906D-01 0.42658046D-02 0.11287769D+05 0.11287769D+05 0.11287769D+05 0.12621504D+01  1  2 15  2  5  2        2 0.274006141949D-01 0.100000000000D+01
-.403946377364D-04 0.000000000000D+00 -.181235601529D-03 0.306229476408D-02 0.000000000000D+00  5 -1 2 25 24 21 2 0.63550906D-01 0.12524857D-01 0.11287769D+05 0.11287769D+05 0.11287769D+05 0.12621504D+01  1  2  5  2  5  2        2 -.899057250634D-02 0.100000000000D+01
0.448911944481D-05 0.000000000000D+00 -.221198314996D-04 0.306229476408D-02 0.000000000000D+00  5 -1 21 25 24 -2 2 0.63550906D-01 0.12524857D-01 0.11287769D+05 0.11287769D+05 0.11287769D+05 0.12621504D+01  1  2  5  4  5  2        2 0.941047127161D-02 0.100000000000D+01
  </mgrwgt>
  </event>
  <event>
  4     66 0.45252658E-03 0.11146026E+03 0.75467711E-02 0.11641114E+00
       -1 -1    0    0    0  501 0.00000000E+00 0.00000000E+00 0.21255409E+02 0.21257818E+02 0.32000000E+00 0.0000E+00 0.9000E+01
        2 -1    0    0  501    0 0.00000000E+00 0.00000000E+00 -.71755955E+03 0.71755963E+03 0.32000000E+00 0.0000E+00 0.9000E+01
       25  1    1    2    0    0 0.12622311E+02 0.40495315E+02 -.55730015E+03 0.57271952E+03 0.12500000E+03 0.0000E+00 0.9000E+01
       24  1    1    2    0    0 -.12622311E+02 -.40495315E+02 -.13900400E+03 0.16609792E+03 0.80419002E+02 0.0000E+00 0.9000E+01
#aMCatNLO 1  0  0  1  2 0.11702173D+03 0.00000000D+00  -5  5  0 0.00000000D+00 0.00000000D+00 0.00000000D+00 0.00000000D+00 0.00000000D+00
  <mgrwgt>
 0.2756133018D+00    5    2    0
 0.123502786277731D+03 0.000000000000000D+00 0.000000000000000D+00 0.123502786277731D+03
 0.123502786277731D+03 0.000000000000000D+00 0.000000000000000D+00 -.123502786277731D+03
 0.142040392435529D+03 0.126223112691034D+02 0.404953149709490D+02 -.524526434688348D+02
 0.104965180119932D+03 -.126223112691034D+02 -.404953149709490D+02 0.524526434688348D+02
 0.000000000000000D+00 -.000000000000000D+00 -.000000000000000D+00 0.000000000000000D+00
 0.333172651646088D+03 0.000000000000000D+00 0.000000000000000D+00 0.333172651646088D+03
 0.154083383600186D+03 0.000000000000000D+00 0.000000000000000D+00 -.154083383600186D+03
 0.170104514929874D+03 0.773688325035287D+02 0.676263997984516D+02 -.524526434688348D+02
 0.103219170731122D+03 0.305602368840009D+02 -.224002983635291D+02 0.524526434688348D+02
 0.213932349585277D+03 -.107929069387530D+03 -.452261014349226D+02 0.179089268045902D+03
0.252516674336D-03 0.000000000000D+00 0.000000000000D+00 0.229233287159D-02 0.000000000000D+00  5 -1 2 25 24 21 0 0.32702538D-02 0.11039397D+00 0.12423390D+05 0.12423390D+05 0.12423390D+05 0.12572630D+01  1  2  2  1  5  1       -1 0.364186010931D+00 0.100000000000D+01
-.138491661839D-04 0.000000000000D+00 -.969730518617D-06 0.229233287159D-02 0.000000000000D+00  5 -1 2 25 24 21 2 0.32702538D-02 0.11039397D+00 0.12423390D+05 0.12423390D+05 0.12423390D+05 0.12572630D+01  1  2  3  1  5  1       -1 -.315725111721D-01 0.100000000000D+01
0.172431966460D-04 0.000000000000D+00 0.000000000000D+00 0.229233287159D-02 0.000000000000D+00  5 -1 2 25 24 21 2 0.32702538D-02 0.11039397D+00 0.12423390D+05 0.12423390D+05 0.12423390D+05 0.12572630D+01  1  2 15  1  5  1       -1 0.393100213774D-01 0.100000000000D+01
-.963447266390D-04 0.000000000000D+00 -.769257497529D-04 0.229233287159D-02 0.000000000000D+00  5 -1 2 25 24 21 2 0.10982993D-01 0.11039397D+00 0.12423390D+05 0.12423390D+05 0.12423390D+05 0.12572630D+01  1  2  5  1  5  1       -1 -.363756583323D-01 0.100000000000D+01
-.106815224352D-04 0.000000000000D+00 -.108262175797D-04 0.229233287159D-02 0.000000000000D+00  5 21 2 25 24 1 2 0.10982993D-01 0.11039397D+00 0.12423390D+05 0.12423390D+05 0.12423390D+05 0.12572630D+01  1  2  5  3  5  1       -1 -.599345609545D-01 0.100000000000D+01
  </mgrwgt>
  </event>
  <event>
  4     66 0.45252658E-03 0.28686769E+02 0.75467711E-02 0.12109958E+00
       -1 -1    0    0    0  501 0.00000000E+00 0.00000000E+00 0.15932970E+03 0.15933003E+03 0.32000000E+00 0.0000E+00 0.9000E+01
        2 -1    0    0  501    0 0.00000000E+00 0.00000000E+00 -.67788439E+02 0.67789194E+02 0.32000000E+00 0.0000E+00 0.9000E+01
       25  1    1    2    0    0 -.13728461E+01 -.53762178E-01 0.38610832E+02 0.13083457E+03 0.12500000E+03 0.0000E+00 0.9000E+01
       24  1    1    2    0    0 0.13728461E+01 0.53762178E-01 0.52930434E+02 0.96284653E+02 0.80419002E+02 0.0000E+00 0.9000E+01
#aMCatNLO 1  0  0  2  1 0.67309467D+02 0.00000000D+00  -5  5  0 0.00000000D+00 0.00000000D+00 0.00000000D+00 0.00000000D+00 0.00000000D+00
  <mgrwgt>
 0.1766180550D+00    7    2    0
 0.103927061872237D+03 0.000000000000000D+00 0.000000000000000D+00 0.103927061872237D+03
 0.103927061872237D+03 0.000000000000000D+00 0.000000000000000D+00 -.103927061872237D+03
 0.125956415634031D+03 -.137284613917611D+01 -.537621781753499D-01 -.154314951472338D+02
 0.818977081104428D+02 0.137284613917611D+01 0.537621781753499D-01 0.154314951472338D+02
 0.000000000000000D+00 -.000000000000000D+00 0.000000000000000D+00 -.000000000000000D+00
 0.127534884996192D+03 0.000000000000000D+00 0.000000000000000D+00 0.127534884996192D+03
 0.171152221045735D+03 0.000000000000000D+00 0.000000000000000D+00 -.171152221045735D+03
 0.132103295950582D+03 0.266181449489770D+02 -.296584577819427D+02 -.154314951472338D+02
 0.863775983182603D+02 0.196251822891282D+02 -.192508367220641D+02 0.154314951472338D+02
 0.802062117730849D+02 -.462433272381052D+02 0.489092945040069D+02 -.436173360495433D+02
0.272842737845D-03 0.000000000000D+00 0.000000000000D+00 0.314191004814D-02 0.000000000000D+00  5 -1 2 25 24 21 0 0.24512345D-01 0.10429073D-01 0.10551223D+05 0.10551223D+05 0.10551223D+05 0.12656262D+01  1  2  2  2  5  2        2 0.250496686831D+00 0.100000000000D+01
-.151554109781D-04 0.000000000000D+00 -.104778795447D-05 0.314191004814D-02 0.000000000000D+00  5 -1 2 25 24 21 2 0.24512345D-01 0.10429073D-01 0.10551223D+05 0.10551223D+05 0.10551223D+05 0.12656262D+01  1  2  3  2  5  2        2 -.222878527615D-01 0.100000000000D+01
0.186689120483D-04 0.000000000000D+00 0.000000000000D+00 0.314191004814D-02 0.000000000000D+00  5 -1 2 25 24 21 2 0.24512345D-01 0.10429073D-01 0.10551223D+05 0.10551223D+05 0.10551223D+05 0.12656262D+01  1  2 15  2  5  2        2 0.274548782313D-01 0.100000000000D+01
0.504429000287D-04 0.000000000000D+00 0.000000000000D+00 0.314191004814D-02 0.000000000000D+00  5 -1 2 25 24 21 2 0.24512345D-01 0.17732662D-01 0.20092545D+05 0.20092545D+05 0.20092545D+05 0.12336054D+01  1  2 12  2  5  2        2 0.385544379965D-01 0.100000000000D+01
-.165026552810D-03 0.000000000000D+00 -.107359478480D-03 0.314191004814D-02 0.000000000000D+00  5 -1 2 25 24 21 2 0.24512345D-01 0.20860240D-01 0.10551223D+05 0.10551223D+05 0.10551223D+05 0.12656262D+01  1  2  5  2  5  2        2 -.108349128458D+00 0.100000000000D+01
0.298427748995D-05 0.000000000000D+00 0.000000000000D+00 0.314191004814D-02 0.000000000000D+00  5 -1 21 25 24 -2 2 0.24512345D-01 0.17732662D-01 0.20092545D+05 0.20092545D+05 0.20092545D+05 0.12336054D+01  1  2 12  4  5  2        2 0.170837898426D-01 0.100000000000D+01
-.593664498461D-05 0.000000000000D+00 -.805309239373D-05 0.314191004814D-02 0.000000000000D+00  5 -1 21 25 24 -2 2 0.24512345D-01 0.20860240D-01 0.10551223D+05 0.10551223D+05 0.10551223D+05 0.12656262D+01  1  2  5  4  5  2        2 -.263347566760D-01 0.100000000000D+01
  </mgrwgt>
  </event>
  <event>
  4     66 0.45252658E-03 0.10751533E+03 0.75467711E-02 0.11629642E+00
       -1 -1    0    0    0  501 0.00000000E+00 0.00000000E+00 0.82534609E+01 0.82596620E+01 0.32000000E+00 0.0000E+00 0.9000E+01
        2 -1    0    0  501    0 0.00000000E+00 0.00000000E+00 -.14045685E+04 0.14045685E+04 0.32000000E+00 0.0000E+00 0.9000E+01
       25  1    1    2    0    0 0.13158312E+02 -.28173356E+02 -.79665643E+03 0.80700269E+03 0.12500000E+03 0.0000E+00 0.9000E+01
       24  1    1    2    0    0 -.13158312E+02 0.28173356E+02 -.59965858E+03 0.60582548E+03 0.80419002E+02 0.0000E+00 0.9000E+01
#aMCatNLO 1  0  0  1  1 0.12265581D+03 0.00000000D+00  -5  5  0 0.00000000D+00 0.00000000D+00 0.00000000D+00 0.00000000D+00 0.00000000D+00
  <mgrwgt>
 0.4141121822D+00    5    2    0
 0.107689169562808D+03 0.000000000000000D+00 0.000000000000000D+00 0.107689169562808D+03
 0.107689169562808D+03 0.000000000000000D+00 0.000000000000000D+00 -.107689169562808D+03
 0.128948930601935D+03 0.131583116431337D+02 -.281733562904933D+02 0.599562619030428D+01
 0.864294085236808D+02 -.131583116431337D+02 0.281733562904933D+02 -.599562619030428D+01
 0.000000000000000D+00 -.000000000000000D+00 0.000000000000000D+00 0.000000000000000D+00
 0.202100525277591D+03 0.000000000000000D+00 0.000000000000000D+00 0.202100525277591D+03
 0.172040443110234D+03 0.000000000000000D+00 0.000000000000000D+00 -.172040443110234D+03
 0.165691343658747D+03 0.605297726307560D+02 -.901599714690283D+02 0.599562619030428D+01
 0.821640107681589D+02 0.139476792292722D+02 -.729543842706317D+01 -.599562619030428D+01
 0.126285613960919D+03 -.744774518600282D+02 0.974554098960915D+02 0.300600821673569D+02
0.156519249775D-03 0.000000000000D+00 0.000000000000D+00 0.306986342843D-02 0.000000000000D+00  5 -1 2 25 24 21 0 0.12702430D-02 0.21608794D+00 0.11559547D+05 0.11559547D+05 0.11559547D+05 0.12609319D+01  1  2  2  1  5  1       -1 0.344256691532D+00 0.100000000000D+01
-.869548628248D-05 0.000000000000D+00 -.601075131601D-06 0.306986342843D-02 0.000000000000D+00  5 -1 2 25 24 21 2 0.12702430D-02 0.21608794D+00 0.11559547D+05 0.11559547D+05 0.11559547D+05 0.12609319D+01  1  2  3  1  5  1       -1 -.304082756322D-01 0.100000000000D+01
0.108260142249D-04 0.000000000000D+00 0.000000000000D+00 0.306986342843D-02 0.000000000000D+00  5 -1 2 25 24 21 2 0.12702430D-02 0.21608794D+00 0.11559547D+05 0.11559547D+05 0.11559547D+05 0.12609319D+01  1  2 15  1  5  1       -1 0.378587710742D-01 0.100000000000D+01
0.170906214164D-04 0.000000000000D+00 -.469899838531D-04 0.306986342843D-02 0.000000000000D+00  5 -1 2 25 24 21 2 0.40897286D-02 0.21608794D+00 0.11559547D+05 0.11559547D+05 0.11559547D+05 0.12609319D+01  1  2  5  1  5  1       -1 0.111139222397D-01 0.100000000000D+01
0.430286170204D-05 0.000000000000D+00 -.633463767790D-05 0.306986342843D-02 0.000000000000D+00  5 21 2 25 24 1 2 0.40897286D-02 0.21608794D+00 0.11559547D+05 0.11559547D+05 0.11559547D+05 0.12609319D+01  1  2  5  3  5  1       -1 0.512910729616D-01 0.100000000000D+01
  </mgrwgt>
  </event>
  <event>
  4     66 0.45252658E-03 0.38114632E+02 0.75467711E-02 0.12090645E+00
       -1 -1    0    0    0  501 0.00000000E+00 0.00000000E+00 0.13672973E+03 0.13673010E+03 0.32000000E+00 0.0000E+00 0.9000E+01
        2 -1    0    0  501    0 0.00000000E+00 0.00000000E+00 -.14561027E+03 0.14561062E+03 0.32000000E+00 0.0000E+00 0.9000E+01
       25  1    1    2    0    0 -.59113017E+02 0.72685864E+02 0.13738173E+02 0.15681620E+03 0.12500000E+03 0.0000E+00 0.9000E+01
       24  1    1    2    0    0 0.59113017E+02 -.72685864E+02 -.22618717E+02 0.12552452E+03 0.80419002E+02 0.0000E+00 0.9000E+01
#aMCatNLO 1  0  0  2  1 0.66633860D+01 0.00000000D+00  -5  5  0 0.00000000D+00 0.00000000D+00 0.00000000D+00 0.00000000D+00 0.00000000D+00
  <mgrwgt>
 0.2534285304D+00   11    2    0
 0.141100514231129D+03 0.000000000000000D+00 0.000000000000000D+00 0.141100514231129D+03
 0.141100514231129D+03 0.000000000000000D+00 0.000000000000000D+00 -.141100514231129D+03
 0.157326153264996D+03 -.591130168402192D+02 0.726858638634236D+02 0.186798002033472D+02
 0.124874875197262D+03 0.591130168402192D+02 -.726858638634236D+02 -.186798002033472D+02
 0.000000000000000D+00 -.000000000000000D+00 0.000000000000000D+00 -.000000000000000D+00
 0.142315613041483D+03 0.000000000000000D+00 0.000000000000000D+00 0.142315613041483D+03
 0.150580616657318D+03 0.000000000000000D+00 0.000000000000000D+00 -.150580616657318D+03
 0.155275094967746D+03 -.559883925668481D+02 0.707228398707655D+02 0.186798002033472D+02
 0.127004591121427D+03 0.616306929495518D+02 -.742675767914327D+02 -.186798002033472D+02
 0.106165436096295D+02 -.564230038270375D+01 0.354473692066726D+01 -.826500361583490D+01
0.406380201790D-03 0.000000000000D+00 0.000000000000D+00 0.245023435662D-02 0.000000000000D+00  5 -1 2 25 24 21 0 0.21035398D-01 0.22401636D-01 0.19555658D+05 0.19555658D+05 0.19555658D+05 0.12349017D+01  1  2  2  2  5  2        2 0.200758942112D+00 0.100000000000D+01
-.225744729100D-04 0.000000000000D+00 -.156060697724D-05 0.245023435662D-02 0.000000000000D+00  5 -1 2 25 24 21 2 0.21035398D-01 0.22401636D-01 0.19555658D+05 0.19555658D+05 0.19555658D+05 0.12349017D+01  1  2  3  2  5  2        2 -.170068845262D-01 0.100000000000D+01
0.280346632448D-04 0.000000000000D+00 0.000000000000D+00 0.245023435662D-02 0.000000000000D+00  5 -1 2 25 24 21 2 0.21035398D-01 0.22401636D-01 0.19555658D+05 0.19555658D+05 0.19555658D+05 0.12349017D+01  1  2 15  2  5  2        2 0.211204169610D-01 0.100000000000D+01
0.325752658742D-02 0.000000000000D+00 0.000000000000D+00 0.245023435662D-02 0.000000000000D+00  5 -1 2 25 24 21 2 0.21035398D-01 0.23999264D-01 0.20511131D+05 0.20511131D+05 0.20511131D+05 0.12326213D+01  1  2 12  2  5  2        2 0.226758340182D+01 0.100000000000D+01
-.365340323941D-02 0.000000000000D+00 0.000000000000D+00 0.245023435662D-02 0.000000000000D+00  5 -1 2 25 24 21 2 0.21035398D-01 0.22401636D-01 0.19555658D+05 0.19555658D+05 0.19555658D+05 0.12349017D+01  1  2  4  2  5  2        2 -.275235693290D+01 0.100000000000D+01
-.804178062230D-02 0.000000000000D+00 -.909934566965D-03 0.245023435662D-02 0.000000000000D+00  5 -1 2 25 24 21 2 0.21035398D-01 0.24078097D-01 0.19555658D+05 0.19555658D+05 0.19555658D+05 0.12349017D+01  1  2  5  2  5  2        2 -.559092776995D+01 0.100000000000D+01
0.808874033973D-02 0.000000000000D+00 0.907570089124D-03 0.245023435662D-02 0.000000000000D+00  5 -1 2 25 24 21 2 0.21035398D-01 0.22401636D-01 0.19555658D+05 0.19555658D+05 0.19555658D+05 0.12349017D+01  1  2  6  2  5  2        2 0.609379778073D+01 0.100000000000D+01
0.333690641483D-03 0.000000000000D+00 0.000000000000D+00 0.245023435662D-02 0.448140123028D-03  5 -1 2 25 24 21 2 0.21216547D-01 0.23906732D-01 0.20511131D+05 0.20511131D+05 0.20511131D+05 0.12326213D+01  1  2 11  2  5  2        2 0.230071312862D+00 0.100000000000D+01
0.444311285071D-04 0.000000000000D+00 0.000000000000D+00 0.245023435662D-02 0.000000000000D+00  5 -1 21 25 24 -2 2 0.21035398D-01 0.23999264D-01 0.20511131D+05 0.20511131D+05 0.20511131D+05 0.12326213D+01  1  2 12  4  5  2        2 0.185615299006D+00 0.100000000000D+01
-.963454840590D-04 0.000000000000D+00 -.110850033191D-04 0.245023435662D-02 0.000000000000D+00  5 -1 21 25 24 -2 2 0.21035398D-01 0.24078097D-01 0.19555658D+05 0.19555658D+05 0.19555658D+05 0.12349017D+01  1  2  5  4  5  2        2 -.401348664675D+00 0.100000000000D+01
0.388450851160D-05 0.000000000000D+00 0.000000000000D+00 0.245023435662D-02 0.497866522481D-05  5 -1 21 25 24 -2 2 0.21216547D-01 0.23906732D-01 0.20511131D+05 0.20511131D+05 0.20511131D+05 0.12326213D+01  1  2 11  4  5  2        2 0.161216289179D-01 0.100000000000D+01
  </mgrwgt>
  </event>
  <event>
  4     66 0.45252658E-03 0.78832220E+02 0.75467711E-02 0.12032781E+00
       -1 -1    0    0    0  501 0.00000000E+00 0.00000000E+00 0.37800830E+02 0.37802184E+02 0.32000000E+00 0.0000E+00 0.9000E+01
        2 -1    0    0  501    0 0.00000000E+00 0.00000000E+00 -.38574815E+03 0.38574829E+03 0.32000000E+00 0.0000E+00 0.9000E+01
       25  1    1    2    0    0 0.40235634E+02 -.45709025E+02 -.22527345E+03 0.26472882E+03 0.12500000E+03 0.0000E+00 0.9000E+01
       24  1    1    2    0    0 -.40235634E+02 0.45709025E+02 -.12267387E+03 0.15882165E+03 0.80419002E+02 0.0000E+00 0.9000E+01
#aMCatNLO 1  0  0  1  2 0.50388579D+02 0.00000000D+00  -5  5  0 0.00000000D+00 0.00000000D+00 0.00000000D+00 0.00000000D+00 0.00000000D+00
  <mgrwgt>
 0.3717010919D+00    9    2    0
 0.120755601370792D+03 0.000000000000000D+00 0.000000000000000D+00 0.120755601370792D+03
 0.120755601370792D+03 0.000000000000000D+00 0.000000000000000D+00 -.120755601370792D+03
 0.139714937297391D+03 0.402356340974616D+02 -.457090246503042D+02 -.136763488660936D+02
 0.101796265444193D+03 -.402356340974616D+02 0.457090246503042D+02 0.136763488660936D+02
 0.000000000000000D+00 -.000000000000000D+00 0.000000000000000D+00 0.000000000000000D+00
 0.182091244148198D+03 0.000000000000000D+00 0.000000000000000D+00 0.182091244148198D+03
 0.134162838139524D+03 0.000000000000000D+00 0.000000000000000D+00 -.134162838139524D+03
 0.153706744707104D+03 0.461070716530106D+02 -.754178943867566D+02 -.136763488660936D+02
 0.930049694658607D+02 -.363376151143223D+02 0.259854497838969D+02 0.136763488660936D+02
 0.695423681147571D+02 -.976945653868830D+01 0.494324446028597D+02 0.479284060086737D+02
0.260415311742D-03 0.000000000000D+00 0.000000000000D+00 0.273830173987D-02 0.000000000000D+00  5 -1 2 25 24 21 0 0.58156267D-02 0.59345984D-01 0.14390081D+05 0.14390081D+05 0.14390081D+05 0.12498830D+01  1  2  2  1  5  1       -1 0.323021265914D+00 0.100000000000D+01
-.144667460879D-04 0.000000000000D+00 -.100006336602D-05 0.273830173987D-02 0.000000000000D+00  5 -1 2 25 24 21 2 0.58156267D-02 0.59345984D-01 0.14390081D+05 0.14390081D+05 0.14390081D+05 0.12498830D+01  1  2  3  1  5  1       -1 -.280332970646D-01 0.100000000000D+01
0.180027041064D-04 0.000000000000D+00 0.000000000000D+00 0.273830173987D-02 0.000000000000D+00  5 -1 2 25 24 21 2 0.58156267D-02 0.59345984D-01 0.14390081D+05 0.14390081D+05 0.14390081D+05 0.12498830D+01  1  2 15  1  5  1       -1 0.348851876650D-01 0.100000000000D+01
0.168060142321D-03 0.000000000000D+00 0.000000000000D+00 0.273830173987D-02 0.000000000000D+00  5 -1 2 25 24 21 2 0.89606643D-02 0.59345984D-01 0.21827048D+05 0.21827048D+05 0.21827048D+05 0.12296682D+01  1  2 12  1  5  1       -1 0.167110631514D+00 0.100000000000D+01
-.210675321247D-03 0.000000000000D+00 0.000000000000D+00 0.273830173987D-02 0.000000000000D+00  5 -1 2 25 24 21 2 0.58156267D-02 0.59345984D-01 0.14390081D+05 0.14390081D+05 0.14390081D+05 0.12498830D+01  1  2  4  1  5  1       -1 -.408241343892D+00 0.100000000000D+01
-.257160742248D-03 0.000000000000D+00 -.859586632630D-04 0.273830173987D-02 0.000000000000D+00  5 -1 2 25 24 21 2 0.97108548D-02 0.59345984D-01 0.14390081D+05 0.14390081D+05 0.14390081D+05 0.12498830D+01  1  2  5  1  5  1       -1 -.230976608570D+00 0.100000000000D+01
0.274532317772D-03 0.000000000000D+00 0.757790562261D-04 0.273830173987D-02 0.000000000000D+00  5 -1 2 25 24 21 2 0.58156267D-02 0.59345984D-01 0.14390081D+05 0.14390081D+05 0.14390081D+05 0.12498830D+01  1  2  6  1  5  1       -1 0.531981827231D+00 0.100000000000D+01
0.847319520522D-05 0.000000000000D+00 0.000000000000D+00 0.273830173987D-02 0.000000000000D+00  5 21 2 25 24 1 2 0.89606643D-02 0.59345984D-01 0.21827048D+05 0.21827048D+05 0.21827048D+05 0.12296682D+01  1  2 12  3  5  1       -1 0.129898831361D+00 0.100000000000D+01
-.108054743017D-04 0.000000000000D+00 -.494444578057D-05 0.273830173987D-02 0.000000000000D+00  5 21 2 25 24 1 2 0.97108548D-02 0.59345984D-01 0.14390081D+05 0.14390081D+05 0.14390081D+05 0.12498830D+01  1  2  5  3  5  1       -1 -.147945402227D+00 0.100000000000D+01
  </mgrwgt>
  </event>
  <event>
  4     66 0.45252658E-03 0.22749381E+03 0.75467711E-02 0.10082012E+00
       -1 -1    0    0    0  501 0.00000000E+00 0.00000000E+00 0.46266914E+02 0.46268020E+02 0.32000000E+00 0.0000E+00 0.9000E+01
        2 -1    0    0  501    0 0.00000000E+00 0.00000000E+00 -.13485466E+04 0.13485467E+04 0.32000000E+00 0.0000E+00 0.9000E+01
       25  1    1    2    0    0 0.17644901E+03 0.98358277E+02 -.96280066E+03 0.99167470E+03 0.12500000E+03 0.0000E+00 0.9000E+01
       24  1    1    2    0    0 -.17644901E+03 -.98358277E+02 -.33947907E+03 0.40314000E+03 0.80419002E+02 0.0000E+00 0.9000E+01
#aMCatNLO 1  0  0  1  2 0.42933725D+03 0.00000000D+00  -5  5  0 0.00000000D+00 0.00000000D+00 0.00000000D+00 0.00000000D+00 0.00000000D+00
  <mgrwgt>
 0.4060138577D+00    5    2    0
 0.249787688735149D+03 0.000000000000000D+00 0.000000000000000D+00 0.249787688735149D+03
 0.249787688735149D+03 0.000000000000000D+00 0.000000000000000D+00 -.249787688735149D+03
 0.258953256593999D+03 0.176449011188255D+03 0.983582772826159D+02 -.103068835451462D+03
 0.240622120876298D+03 -.176449011188255D+03 -.983582772826159D+02 0.103068835451462D+03
 0.000000000000000D+00 0.000000000000000D+00 0.000000000000000D+00 0.000000000000000D+00
 0.127566128374104D+04 0.000000000000000D+00 0.000000000000000D+00 0.127566128374104D+04
 0.378055223120427D+03 0.000000000000000D+00 0.000000000000000D+00 -.378055223120427D+03
 0.177605828389190D+03 0.170034647729271D+02 0.707568203228890D+02 -.103068835451462D+03
 0.481109614595844D+03 -.440048864876033D+03 -.143989780825534D+03 0.103068835451462D+03
 0.995001063876429D+03 0.423045400103106D+03 0.732329605026448D+02 0.897606060620609D+03
0.211424638449D-02 0.000000000000D+00 0.000000000000D+00 0.172181055191D-02 0.000000000000D+00  5 -1 2 25 24 21 0 0.71180748D-02 0.20746880D+00 0.51753433D+05 0.51753433D+05 0.51753433D+05 0.11908021D+01  1  2  2  1  5  1       -1 0.408985214011D+00 0.100000000000D+01
-.116209947251D-03 0.000000000000D+00 -.811926281029D-05 0.172181055191D-02 0.000000000000D+00  5 -1 2 25 24 21 2 0.71180748D-02 0.20746880D+00 0.51753433D+05 0.51753433D+05 0.51753433D+05 0.11908021D+01  1  2  3  1  5  1       -1 -.318767846968D-01 0.100000000000D+01
0.144606121660D-03 0.000000000000D+00 0.000000000000D+00 0.172181055191D-02 0.000000000000D+00  5 -1 2 25 24 21 2 0.71180748D-02 0.20746880D+00 0.51753433D+05 0.51753433D+05 0.51753433D+05 0.11908021D+01  1  2 15  1  5  1       -1 0.396659521410D-01 0.100000000000D+01
0.237222209292D-04 0.000000000000D+00 -.111657587019D-02 0.172181055191D-02 0.000000000000D+00  5 -1 2 25 24 21 2 0.55274181D-01 0.20746880D+00 0.51753433D+05 0.51753433D+05 0.51753433D+05 0.11908021D+01  1  2  5  1  5  1       -1 0.221274185669D-03 0.100000000000D+01
-.121376020638D-03 0.000000000000D+00 -.278323611428D-03 0.172181055191D-02 0.000000000000D+00  5 21 2 25 24 1 2 0.55274181D-01 0.20746880D+00 0.51753433D+05 0.51753433D+05 0.51753433D+05 0.11908021D+01  1  2  5  3  5  1       -1 -.109817979618D-01 0.100000000000D+01
  </mgrwgt>
  </event>
  <event>
  4     66 0.45252658E-03 0.75445579E+02 0.75467711E-02 0.11608427E+00
       -3 -1    0    0    0  501 0.00000000E+00 0.00000000E+00 0.34676914E+03 0.34676950E+03 0.50000000E+00 0.0000E+00 0.9000E+01
        4 -1    0    0  501    0 0.00000000E+00 0.00000000E+00 -.83361470E+02 0.83375879E+02 0.15500000E+01 0.0000E+00 0.9000E+01
       25  1    1    2    0    0 0.10906129E+03 0.22835778E+02 0.23704142E+03 0.29022314E+03 0.12500000E+03 0.0000E+00 0.9000E+01
       24  1    1    2    0    0 -.10906129E+03 -.22835778E+02 0.26366251E+02 0.13992224E+03 0.80419002E+02 0.0000E+00 0.9000E+01
#aMCatNLO 1  0  0  1  2 0.63164180D+02 0.00000000D+00  -5  5  0 0.00000000D+00 0.00000000D+00 0.00000000D+00 0.00000000D+00 0.00000000D+00
  <mgrwgt>
 0.4514270382D-01    9    2    0
 0.170030473397852D+03 0.000000000000000D+00 0.000000000000000D+00 0.170030473397852D+03
 0.170030473397852D+03 0.000000000000000D+00 0.000000000000000D+00 -.170030473397852D+03
 0.183495389219444D+03 0.109061289347580D+03 0.228357783089757D+02 0.750314617987801D+02
 0.156565557576261D+03 -.109061289347580D+03 -.228357783089757D+02 -.750314617987801D+02
 0.000000000000000D+00 0.000000000000000D+00 -.000000000000000D+00 0.000000000000000D+00
 0.310250573037208D+03 0.000000000000000D+00 0.000000000000000D+00 0.310250573037208D+03
 0.180202652093289D+03 0.000000000000000D+00 0.000000000000000D+00 -.180202652093289D+03
 0.177102104841958D+03 0.880528003497000D+02 0.485503823915507D+02 0.750314617987801D+02
 0.168775273927842D+03 -.128015717461413D+03 0.364634372204009D+00 -.750314617987801D+02
 0.144575846360697D+03 0.399629171117130D+02 -.489150167637547D+02 0.130047920943919D+03
0.134495990975D-02 0.000000000000D+00 0.000000000000D+00 0.186601814635D-02 0.000000000000D+00  5 -3 4 25 24 21 0 0.53350235D-01 0.12825978D-01 0.23236370D+05 0.23236370D+05 0.23236370D+05 0.12267187D+01  1  2  2  1  5  1       -3 0.468486473814D-01 0.100000000000D+01
-.736358506021D-04 0.000000000000D+00 -.516500018950D-05 0.186601814635D-02 0.000000000000D+00  5 -3 4 25 24 21 2 0.53350235D-01 0.12825978D-01 0.23236370D+05 0.23236370D+05 0.23236370D+05 0.12267187D+01  1  2  3  1  5  1       -3 -.385981948997D-02 0.100000000000D+01
0.924754213958D-04 0.000000000000D+00 0.000000000000D+00 0.186601814635D-02 0.000000000000D+00  5 -3 4 25 24 21 2 0.53350235D-01 0.12825978D-01 0.23236370D+05 0.23236370D+05 0.23236370D+05 0.12267187D+01  1  2 15  1  5  1       -3 0.484734583668D-02 0.100000000000D+01
0.179820149525D-02 0.000000000000D+00 0.000000000000D+00 0.186601814635D-02 0.000000000000D+00  5 -3 4 25 24 21 2 0.97745968D-01 0.12825978D-01 0.35112537D+05 0.35112537D+05 0.35112537D+05 0.12077905D+01  1  2 12  1  5  1       -3 0.256707376344D-01 0.100000000000D+01
-.202861029764D-02 0.000000000000D+00 0.000000000000D+00 0.186601814635D-02 0.000000000000D+00  5 -3 4 25 24 21 2 0.53350235D-01 0.12825978D-01 0.23236370D+05 0.23236370D+05 0.23236370D+05 0.12267187D+01  1  2  4  1  5  1       -3 -.106335018885D+00 0.100000000000D+01
-.222843320298D-02 0.000000000000D+00 -.384871107069D-03 0.186601814635D-02 0.000000000000D+00  5 -3 4 25 24 21 2 0.10041152D+00 0.12825978D-01 0.23236370D+05 0.23236370D+05 0.23236370D+05 0.12267187D+01  1  2  5  1  5  1       -3 -.301241956041D-01 0.100000000000D+01
0.210302358948D-02 0.000000000000D+00 0.318940471256D-03 0.186601814635D-02 0.000000000000D+00  5 -3 4 25 24 21 2 0.53350235D-01 0.12825978D-01 0.23236370D+05 0.23236370D+05 0.23236370D+05 0.12267187D+01  1  2  6  1  5  1       -3 0.110235590031D+00 0.100000000000D+01
0.118978723824D-03 0.000000000000D+00 0.000000000000D+00 0.186601814635D-02 0.000000000000D+00  5 21 4 25 24 3 2 0.97745968D-01 0.12825978D-01 0.35112537D+05 0.35112537D+05 0.35112537D+05 0.12077905D+01  1  2 12  3  5  1       -3 0.313250568415D-01 0.100000000000D+01
-.131581502593D-03 0.000000000000D+00 -.264794285431D-04 0.186601814635D-02 0.000000000000D+00  5 21 4 25 24 3 2 0.10041152D+00 0.12825978D-01 0.23236370D+05 0.23236370D+05 0.23236370D+05 0.12267187D+01  1  2  5  3  5  1       -3 -.334656399230D-01 0.100000000000D+01
  </mgrwgt>
  </event>
  <event>
  4     66 0.45252658E-03 0.11252036E+03 0.75467711E-02 0.11894530E+00
       -1 -1    0    0    0  501 0.00000000E+00 0.00000000E+00 0.64289758E+01 0.64369349E+01 0.32000000E+00 0.0000E+00 0.9000E+01
        2 -1    0    0  501    0 0.00000000E+00 0.00000000E+00 -.21147689E+04 0.21147689E+04 0.32000000E+00 0.0000E+00 0.9000E+01
       25  1    1    2    0    0 0.41895442E+02 -.16537669E+02 -.15065923E+04 0.15124398E+04 0.12500000E+03 0.0000E+00 0.9000E+01
       24  1    1    2    0    0 -.41895442E+02 0.16537669E+02 -.60174761E+03 0.60876606E+03 0.80419002E+02 0.0000E+00 0.9000E+01
#aMCatNLO 1  0  0  2  1 0.79741309D+02 0.00000000D+00  -5  5  0 0.00000000D+00 0.00000000D+00 0.00000000D+00 0.00000000D+00 0.00000000D+00
  <mgrwgt>
 0.5628495296D+00    3    2    0
 0.116637323227279D+03 0.000000000000000D+00 0.000000000000000D+00 0.116637323227279D+03
 0.116637323227279D+03 0.000000000000000D+00 0.000000000000000D+00 -.116637323227279D+03
 0.136266083113565D+03 0.418954424130774D+02 -.165376688653835D+02 -.302443849437271D+02
 0.970085633409930D+02 -.418954424130774D+02 0.165376688653835D+02 0.302443849437271D+02
 0.000000000000000D+00 0.000000000000000D+00 0.000000000000000D+00 0.000000000000000D+00
 0.245459962913932D+03 0.000000000000000D+00 0.000000000000000D+00 0.245459962913932D+03
 0.136272821730378D+03 0.000000000000000D+00 0.000000000000000D+00 -.136272821730378D+03
 0.134531751337538D+03 0.310722473360233D+01 -.393626021977160D+02 -.302443849437271D+02
 0.111995604082479D+03 -.718325324137101D+02 -.107881686940835D+01 0.302443849437271D+02
 0.135205429224294D+03 0.687253076801077D+02 0.404414190671243D+02 0.109187141183554D+03
0.403356474428D-03 0.000000000000D+00 0.000000000000D+00 0.268682726118D-02 0.000000000000D+00  5 -1 2 25 24 21 0 0.98968730D-03 0.32534968D+00 0.12660832D+05 0.12660832D+05 0.12660832D+05 0.12563047D+01  1  2  2  2  5  2        2 0.550935886960D+00 0.100000000000D+01
-.223735097861D-04 0.000000000000D+00 -.154899506800D-05 0.268682726118D-02 0.000000000000D+00  5 -1 2 25 24 21 2 0.98968730D-03 0.32534968D+00 0.12660832D+05 0.12660832D+05 0.12660832D+05 0.12563047D+01  1  2  3  2  5  2        2 -.482320956081D-01 0.100000000000D+01
0.278999128167D-04 0.000000000000D+00 0.000000000000D+00 0.268682726118D-02 0.000000000000D+00  5 -1 2 25 24 21 2 0.98968730D-03 0.32534968D+00 0.12660832D+05 0.12660832D+05 0.12660832D+05 0.12563047D+01  1  2 15  2  5  2        2 0.601457382099D-01 0.100000000000D+01
  </mgrwgt>
  </event>
  <event>
  4     66 0.45252658E-03 0.61573781E+02 0.75467711E-02 0.10576728E+00
       -1 -1    0    0    0  501 0.00000000E+00 0.00000000E+00 0.38090651E+03 0.38090665E+03 0.32000000E+00 0.0000E+00 0.9000E+01
        2 -1    0    0  501    0 0.00000000E+00 0.00000000E+00 -.14685462E+03 0.14685497E+03 0.32000000E+00 0.0000E+00 0.9000E+01
       25  1    1    2    0    0 -.17284272E+03 -.10806395E+03 0.18718926E+03 0.30367292E+03 0.12500000E+03 0.0000E+00 0.9000E+01
       24  1    1    2    0    0 0.17284272E+03 0.10806395E+03 0.46862633E+02 0.22408870E+03 0.80419002E+02 0.0000E+00 0.9000E+01
#aMCatNLO 1  0  0  1  2 0.21756936D+03 0.00000000D+00  -5  5  0 0.00000000D+00 0.00000000D+00 0.00000000D+00 0.00000000D+00 0.00000000D+00
  <mgrwgt>
 0.2723056110D+00    7    2    0
 0.236512175328269D+03 0.000000000000000D+00 0.000000000000000D+00 0.236512175328269D+03
 0.236512175328269D+03 0.000000000000000D+00 0.000000000000000D+00 -.236512175328269D+03
 0.246192209805266D+03 -.172842717672932D+03 -.108063951377141D+03 0.585933573794354D+02
 0.226832140851271D+03 0.172842717672932D+03 0.108063951377141D+03 -.585933573794354D+02
 0.000000000000000D+00 -.000000000000000D+00 0.000000000000000D+00 0.000000000000000D+00
 0.460928252187335D+03 0.000000000000000D+00 0.000000000000000D+00 0.460928252187335D+03
 0.319325078650040D+03 0.000000000000000D+00 0.000000000000000D+00 -.319325078650040D+03
 0.226113070180351D+03 -.827415799175123D+02 -.158816781009263D+03 0.585933573794354D+02
 0.294548493012879D+03 0.272305904525793D+03 0.520375980727676D+02 -.585933573794354D+02
 0.259591767644146D+03 -.189564324608280D+03 0.106779182936495D+03 0.141603173537295D+03
0.336114431801D-02 0.000000000000D+00 0.000000000000D+00 0.195911869074D-02 0.000000000000D+00  5 -1 2 25 24 21 0 0.58601039D-01 0.22593056D-01 0.52498689D+05 0.52498689D+05 0.52498689D+05 0.11901900D+01  1  2  2  1  5  1       -1 0.281034805862D+00 0.100000000000D+01
-.186501690423D-03 0.000000000000D+00 -.129076791908D-04 0.195911869074D-02 0.000000000000D+00  5 -1 2 25 24 21 2 0.58601039D-01 0.22593056D-01 0.52498689D+05 0.52498689D+05 0.52498689D+05 0.11901900D+01  1  2  3  1  5  1       -1 -.220896240251D-01 0.100000000000D+01
0.230491518762D-03 0.000000000000D+00 0.000000000000D+00 0.195911869074D-02 0.000000000000D+00  5 -1 2 25 24 21 2 0.58601039D-01 0.22593056D-01 0.52498689D+05 0.52498689D+05 0.52498689D+05 0.11901900D+01  1  2 15  1  5  1       -1 0.272998651052D-01 0.100000000000D+01
0.464611710772D-05 0.000000000000D+00 0.000000000000D+00 0.195911869074D-02 0.000000000000D+00  5 -1 2 25 24 21 2 0.11644700D+00 0.22593056D-01 0.13126875D+06 0.13126875D+06 0.13126875D+06 0.11528707D+01  1  2 12  1  5  1       -1 0.120163220767D-03 0.100000000000D+01
-.716457064734D-03 0.000000000000D+00 -.896894786928D-03 0.195911869074D-02 0.000000000000D+00  5 -1 2 25 24 21 2 0.14234182D+00 0.22593056D-01 0.52498689D+05 0.52498689D+05 0.52498689D+05 0.11901900D+01  1  2  5  1  5  1       -1 -.122237679936D-01 0.100000000000D+01
0.345315253506D-06 0.000000000000D+00 0.000000000000D+00 0.195911869074D-02 0.000000000000D+00  5 21 2 25 24 1 2 0.11644700D+00 0.22593056D-01 0.13126875D+06 0.13126875D+06 0.13126875D+06 0.11528707D+01  1  2 12  3  5  1       -1 0.728302670006D-04 0.100000000000D+01
-.135444581320D-04 0.000000000000D+00 -.872349394749D-04 0.195911869074D-02 0.000000000000D+00  5 21 2 25 24 1 2 0.14234182D+00 0.22593056D-01 0.52498689D+05 0.52498689D+05 0.52498689D+05 0.11901900D+01  1  2  5  3  5  1       -1 -.190866142520D-02 0.100000000000D+01
  </mgrwgt>
  </event>
  <event>
  5     66 0.45252658E-03 0.15674067E+03 0.75467711E-02 0.11670587E+00
       -1 -1    0    0    0  501 0.00000000E+00 0.00000000E+00 0.67060740E+02 0.67061504E+02 0.32000000E+00 0.0000E+00 0.9000E+01
        2 -1    0    0  502    0 0.00000000E+00 0.00000000E+00 -.23416278E+04 0.23416278E+04 0.32000000E+00 0.0000E+00 0.9000E+01
       25  1    1    2    0    0 0.75412498E+02 -.11704287E+03 -.92309187E+03 0.94186500E+03 0.12500000E+03 0.0000E+00 0.9000E+01
       24  1    1    2    0    0 -.69113131E+02 0.70207592E+02 -.13357784E+02 0.12787250E+03 0.80419002E+02 0.0000E+00 0.9000E+01
       21  1    1    2  502  501 -.62993666E+01 0.46835274E+02 -.13381174E+04 0.13389518E+04 0.75000000E+00 0.0000E+00 0.9000E+01
#aMCatNLO 2  0  0  2  1 0.47257009D+02 0.00000000D+00  -5  5  0 0.00000000D+00 0.00000000D+00 0.00000000D+00 0.00000000D+00 0.00000000D+00
  <mgrwgt>
 0.1673876402D+00    2    2    0
 0.257471914998101D+03 0.000000000000000D+00 0.000000000000000D+00 0.257471914998101D+03
 0.257471914998101D+03 0.000000000000000D+00 0.000000000000000D+00 -.257471914998101D+03
 0.266363937304396D+03 0.720973611743180D+02 -.923950969601423D+02 -.203935930296076D+03
 0.248579892691807D+03 -.720973611743180D+02 0.923950969601423D+02 0.203935930296076D+03
 0.000000000000000D+00 -.000000000000000D+00 0.000000000000000D+00 -.000000000000000D+00
 0.260172058386257D+03 0.000000000000000D+00 0.000000000000000D+00 0.260172058386257D+03
 0.603568847269223D+03 0.000000000000000D+00 0.000000000000000D+00 -.603568847269223D+03
 0.276768750262717D+03 0.754124978778307D+02 -.117042866592060D+03 -.203935930296076D+03
 0.240338949331912D+03 -.691131312884460D+02 0.702075923912597D+02 0.203935930296076D+03
 0.346633206060850D+03 -.629936658938470D+01 0.468352742008006D+02 -.343396788882966D+03
-.180062765990D-01 0.000000000000D+00 0.000000000000D+00 0.801677725638D-03 0.000000000000D+00  5 -1 2 25 24 21 2 0.10210008D-01 0.35987097D+00 0.32678224D+05 0.32678224D+05 0.32678224D+05 0.12110199D+01  1  2 13  2  5  2        2 -.894808531915D+00 0.100000000000D+01
0.217861161630D-01 0.000000000000D+00 0.000000000000D+00 0.801677725638D-03 0.430940237637D-05  5 -1 2 25 24 21 2 0.10317081D-01 0.36024993D+00 0.32678224D+05 0.32678224D+05 0.32678224D+05 0.12110199D+01  1  2  1  2  5  2        2 0.106219617214D+01 0.100000000000D+01
  </mgrwgt>
  </event>
  <event>
  4     66 -.45252658E-03 0.10275678E+03 0.75467711E-02 0.12288260E+00
       -1 -1    0    0    0  501 0.00000000E+00 0.00000000E+00 0.13381793E+02 0.13385619E+02 0.32000000E+00 0.0000E+00 0.9000E+01
        2 -1    0    0  501    0 0.00000000E+00 0.00000000E+00 -.19410166E+04 0.19410166E+04 0.32000000E+00 0.0000E+00 0.9000E+01
       25  1    1    2    0    0 0.75225692E+02 -.10986173E+02 -.46237496E+03 0.48496929E+03 0.12500000E+03 0.0000E+00 0.9000E+01
       24  1    1    2    0    0 -.75225692E+02 0.10986173E+02 -.14652598E+04 0.14694330E+04 0.80419002E+02 0.0000E+00 0.9000E+01
#aMCatNLO 1  0  0  1  2 0.11626063D+01 0.00000000D+00  -5  5  0 0.00000000D+00 0.00000000D+00 0.00000000D+00 0.00000000D+00 0.00000000D+00
  <mgrwgt>
 -.4603363473D+00   10    2    0
 0.161177068065058D+03 0.000000000000000D+00 0.000000000000000D+00 0.161177068065058D+03
 0.161177068065058D+03 0.000000000000000D+00 0.000000000000000D+00 -.161177068065058D+03
 0.175381607450793D+03 0.752256917236684D+02 -.109861726703651D+02 0.967166353156299D+02
 0.146972528679323D+03 -.752256917236684D+02 0.109861726703651D+02 -.967166353156299D+02
 0.000000000000000D+00 0.000000000000000D+00 0.000000000000000D+00 0.000000000000000D+00
 0.162388769243422D+03 0.000000000000000D+00 0.000000000000000D+00 0.162388769243422D+03
 0.161457232949557D+03 0.000000000000000D+00 0.000000000000000D+00 -.161457232949557D+03
 0.175165150056904D+03 0.746737044693866D+02 -.112942511261159D+02 0.967166353156299D+02
 0.147191082601305D+03 -.756888954493421D+02 0.107276466131119D+02 -.967166353156299D+02
 0.148976953476923D+01 0.101519097995541D+01 0.566604513004002D+00 0.931536293864713D+00
0.315287103526D-03 0.000000000000D+00 0.000000000000D+00 0.155372728814D-02 0.000000000000D+00  5 -1 2 25 24 21 0 0.20590337D-02 0.29861824D+00 0.16508196D+05 0.16508196D+05 0.16508196D+05 0.12431069D+01  1  2  2  1  5  1       -1 0.186078033352D+00 0.100000000000D+01
-.164214687342D-04 0.000000000000D+00 -.121078549454D-05 0.155372728814D-02 0.000000000000D+00  5 -1 2 25 24 21 2 0.20590337D-02 0.29861824D+00 0.16508196D+05 0.16508196D+05 0.16508196D+05 0.12431069D+01  1  2  3  1  5  1       -1 -.149767583675D-01 0.100000000000D+01
0.215119930270D-04 0.000000000000D+00 0.000000000000D+00 0.155372728814D-02 0.000000000000D+00  5 -1 2 25 24 21 2 0.20590337D-02 0.29861824D+00 0.16508196D+05 0.16508196D+05 0.16508196D+05 0.12431069D+01  1  2 15  1  5  1       -1 0.196194339728D-01 0.100000000000D+01
-.115959659461D-01 0.000000000000D+00 0.000000000000D+00 0.155372728814D-02 0.000000000000D+00  5 -1 2 25 24 21 2 0.20590337D-02 0.29861824D+00 0.16508196D+05 0.16508196D+05 0.16508196D+05 0.12431069D+01  1  2  4  1  5  1       -1 -.105757884891D+02 0.100000000000D+01
-.427042429239D-01 0.000000000000D+00 -.393975373730D-02 0.155372728814D-02 0.000000000000D+00  5 -1 2 25 24 21 2 0.20785235D-02 0.29861824D+00 0.16508196D+05 0.16508196D+05 0.16508196D+05 0.12431069D+01  1  2  5  1  5  1       -1 -.384219090222D+02 0.100000000000D+01
0.427396374434D-01 0.000000000000D+00 0.393957890722D-02 0.155372728814D-02 0.000000000000D+00  5 -1 2 25 24 21 2 0.20590337D-02 0.29861824D+00 0.16508196D+05 0.16508196D+05 0.16508196D+05 0.12431069D+01  1  2  6  1  5  1       -1 0.389795354522D+02 0.100000000000D+01
0.115962046911D-01 0.000000000000D+00 0.000000000000D+00 0.155372728814D-02 0.946710934698D-02  5 -1 2 25 24 21 2 0.20745132D-02 0.29913731D+00 0.16661853D+05 0.16661853D+05 0.16661853D+05 0.12426538D+01  1  2 11  1  5  1       -1 0.104143706955D+02 0.100000000000D+01
0.563797879089D-09 0.000000000000D+00 0.000000000000D+00 0.155372728814D-02 0.000000000000D+00  5 21 2 25 24 1 2 0.20762944D-02 0.29861824D+00 0.16661853D+05 0.16661853D+05 0.16661853D+05 0.12426538D+01  1  2 12  3  5  1       -1 0.104938236490D-04 0.100000000000D+01
-.742498485028D-04 0.000000000000D+00 -.686200351643D-05 0.155372728814D-02 0.000000000000D+00  5 21 2 25 24 1 2 0.20785235D-02 0.29861824D+00 0.16508196D+05 0.16508196D+05 0.16508196D+05 0.12431069D+01  1  2  5  3  5  1       -1 -.138066671073D+01 0.100000000000D+01
0.179581284930D-04 0.000000000000D+00 0.000000000000D+00 0.155372728814D-02 0.131883571387D-04  5 21 2 25 24 1 2 0.20745132D-02 0.29913731D+00 0.16661853D+05 0.16661853D+05 0.16661853D+05 0.12426538D+01  1  2 11  3  5  1       -1 0.333390524168D+00 0.100000000000D+01
  </mgrwgt>
  </event>
  <event>
  4     66 0.45252658E-03 0.12973207E+03 0.75467711E-02 0.88788009E-01
       -1 -1    0    0    0  501 0.00000000E+00 0.00000000E+00 0.91892389E+02 0.91892946E+02 0.32000000E+00 0.0000E+00 0.9000E+01
        2 -1    0    0  501    0 0.00000000E+00 0.00000000E+00 -.19016966E+03 0.19016993E+03 0.32000000E+00 0.0000E+00 0.9000E+01
       25  1    1    2    0    0 -.50201427E+02 -.59795928E+02 -.28727268E+02 0.15015323E+03 0.12500000E+03 0.0000E+00 0.9000E+01
       24  1    1    2    0    0 0.50201427E+02 0.59795928E+02 -.69550006E+02 0.13190965E+03 0.80419002E+02 0.0000E+00 0.9000E+01
#aMCatNLO 1  0  0  2  2 0.14973749D+04 0.00000000D+00  -5  5  0 0.00000000D+00 0.00000000D+00 0.00000000D+00 0.00000000D+00 0.00000000D+00
  <mgrwgt>
 0.3602702356D+00    5    2    0
 0.132194028589401D+03 0.000000000000000D+00 0.000000000000000D+00 0.132194028589401D+03
 0.132194028589401D+03 0.000000000000000D+00 0.000000000000000D+00 -.132194028589401D+03
 0.149512859370468D+03 -.502014268796701D+02 -.597959281343652D+02 0.251666214444490D+02
 0.114875197808334D+03 0.502014268796701D+02 0.597959281343652D+02 -.251666214444490D+02
 0.000000000000000D+00 0.000000000000000D+00 -.000000000000000D+00 -.000000000000000D+00
 0.120880442515247D+04 0.000000000000000D+00 0.000000000000000D+00 0.120880442515247D+04
 0.200996291782387D+04 0.000000000000000D+00 0.000000000000000D+00 -.200996291782387D+04
 0.879023097202225D+03 -.734438241587516D+03 0.465858042620176D+03 0.251666214444490D+02
 0.641513847471597D+03 -.452988789966842D+03 0.446363750625976D+03 -.251666214444490D+02
 0.169823039830252D+04 0.118742703155436D+04 -.912221793246152D+03 -.801158492671397D+03
0.512370882657D-03 0.000000000000D+00 0.000000000000D+00 0.250808674816D-02 0.000000000000D+00  5 -1 2 25 24 21 0 0.14137354D-01 0.29256935D-01 0.16830410D+05 0.16830410D+05 0.16830410D+05 0.12421621D+01  1  2  2  2  5  2        2 0.352588923348D+00 0.100000000000D+01
-.284528174537D-04 0.000000000000D+00 -.196763909976D-05 0.250808674816D-02 0.000000000000D+00  5 -1 2 25 24 21 2 0.14137354D-01 0.29256935D-01 0.16830410D+05 0.16830410D+05 0.16830410D+05 0.12421621D+01  1  2  3  2  5  2        2 -.302110644879D-01 0.100000000000D+01
0.353369577239D-04 0.000000000000D+00 0.000000000000D+00 0.250808674816D-02 0.000000000000D+00  5 -1 2 25 24 21 2 0.14137354D-01 0.29256935D-01 0.16830410D+05 0.16830410D+05 0.16830410D+05 0.12421621D+01  1  2 15  2  5  2        2 0.375206114594D-01 0.100000000000D+01
0.424848700357D-02 0.000000000000D+00 -.117723907751D-02 0.250808674816D-02 0.000000000000D+00  5 -1 2 25 24 21 2 0.14137354D-01 0.83934527D+00 0.16830410D+05 0.16830410D+05 0.16830410D+05 0.12421621D+01  1  2  5  2  5  2        2 0.370975487922D-03 0.100000000000D+01
0.109179466173D-02 0.000000000000D+00 -.396926308135D-03 0.250808674816D-02 0.000000000000D+00  5 -1 21 25 24 -2 2 0.14137354D-01 0.83934527D+00 0.16830410D+05 0.16830410D+05 0.16830410D+05 0.12421621D+01  1  2  5  4  5  2        2 0.789827758544D-06 0.100000000000D+01
  </mgrwgt>
  </event>
  <event>
  4     66 0.45252658E-03 0.29564499E+02 0.75467711E-02 0.12452287E+00
       -1 -1    0    0    0  501 0.00000000E+00 0.00000000E+00 0.20332367E+02 0.20334885E+02 0.32000000E+00 0.0000E+00 0.9000E+01
        2 -1    0    0  501    0 0.00000000E+00 0.00000000E+00 -.62299045E+03 0.62299053E+03 0.32000000E+00 0.0000E+00 0.9000E+01
       25  1    1    2    0    0 0.36253083E+02 -.62778443E+01 -.28117106E+03 0.30989654E+03 0.12500000E+03 0.0000E+00 0.9000E+01
       24  1    1    2    0    0 -.36253083E+02 0.62778443E+01 -.32148702E+03 0.33342887E+03 0.80419002E+02 0.0000E+00 0.9000E+01
#aMCatNLO 1  0  0  2  1 0.17970106D+02 0.00000000D+00  -5  5  0 0.00000000D+00 0.00000000D+00 0.00000000D+00 0.00000000D+00 0.00000000D+00
  <mgrwgt>
 0.5014025014D+00    9    2    0
 0.112550906693293D+03 0.000000000000000D+00 0.000000000000000D+00 0.112550906693293D+03
 0.112550906693293D+03 0.000000000000000D+00 0.000000000000000D+00 -.112550906693293D+03
 0.132892333330097D+03 0.362530828353784D+02 -.627784429219954D+01 0.261089048772956D+02
 0.922094800564894D+02 -.362530828353784D+02 0.627784429219954D+01 -.261089048772956D+02
 0.000000000000000D+00 0.000000000000000D+00 0.000000000000000D+00 -.000000000000000D+00
 0.118034504783929D+03 0.000000000000000D+00 0.000000000000000D+00 0.118034504783929D+03
 0.128659792539033D+03 0.000000000000000D+00 0.000000000000000D+00 -.128659792539033D+03
 0.133812435520150D+03 0.362389350493557D+02 -.169065837007749D+02 0.261089048772956D+02
 0.920055245842526D+02 -.362628548183806D+02 -.106350655021954D+01 -.261089048772956D+02
 0.208763372185591D+02 0.239197690248549D-01 0.179700902509945D+02 -.106252877551038D+02
0.150386980888D-03 0.000000000000D+00 0.000000000000D+00 0.281107791679D-02 0.000000000000D+00  5 -1 2 25 24 21 0 0.31282564D-02 0.95844884D-01 0.11961606D+05 0.11961606D+05 0.11961606D+05 0.12591872D+01  1  2  2  2  5  2        2 0.272163499182D+00 0.100000000000D+01
-.834647844678D-05 0.000000000000D+00 -.577525604412D-06 0.281107791679D-02 0.000000000000D+00  5 -1 2 25 24 21 2 0.31282564D-02 0.95844884D-01 0.11961606D+05 0.11961606D+05 0.11961606D+05 0.12591872D+01  1  2  3  2  5  2        2 -.239498914889D-01 0.100000000000D+01
0.103742576693D-04 0.000000000000D+00 0.000000000000D+00 0.281107791679D-02 0.000000000000D+00  5 -1 2 25 24 21 2 0.31282564D-02 0.95844884D-01 0.11961606D+05 0.11961606D+05 0.11961606D+05 0.12591872D+01  1  2 15  2  5  2        2 0.297685241796D-01 0.100000000000D+01
0.302966543090D-03 0.000000000000D+00 0.000000000000D+00 0.281107791679D-02 0.000000000000D+00  5 -1 2 25 24 21 2 0.31282564D-02 0.11165545D+00 0.14093720D+05 0.14093720D+05 0.14093720D+05 0.12509199D+01  1  2 12  2  5  2        2 0.722907265903D+00 0.100000000000D+01
-.300520489518D-03 0.000000000000D+00 0.000000000000D+00 0.281107791679D-02 0.000000000000D+00  5 -1 2 25 24 21 2 0.31282564D-02 0.95844884D-01 0.11961606D+05 0.11961606D+05 0.11961606D+05 0.12591872D+01  1  2  4  2  5  2        2 -.862331719905D+00 0.100000000000D+01
-.673963187609D-03 0.000000000000D+00 -.142671764698D-03 0.281107791679D-02 0.000000000000D+00  5 -1 2 25 24 21 2 0.31282564D-02 0.11325261D+00 0.11961606D+05 0.11961606D+05 0.11961606D+05 0.12591872D+01  1  2  5  2  5  2        2 -.159208878526D+01 0.100000000000D+01
0.690104908742D-03 0.000000000000D+00 0.140707704697D-03 0.281107791679D-02 0.000000000000D+00  5 -1 2 25 24 21 2 0.31282564D-02 0.95844884D-01 0.11961606D+05 0.11961606D+05 0.11961606D+05 0.12591872D+01  1  2  6  2  5  2        2 0.198022888164D+01 0.100000000000D+01
0.701083365812D-05 0.000000000000D+00 0.000000000000D+00 0.281107791679D-02 0.000000000000D+00  5 -1 21 25 24 -2 2 0.31282564D-02 0.11165545D+00 0.14093720D+05 0.14093720D+05 0.14093720D+05 0.12509199D+01  1  2 12  4  5  2        2 0.215837941791D-01 0.100000000000D+01
-.155487800927D-04 0.000000000000D+00 -.354510113638D-05 0.281107791679D-02 0.000000000000D+00  5 -1 21 25 24 -2 2 0.31282564D-02 0.11325261D+00 0.11961606D+05 0.11961606D+05 0.11961606D+05 0.12591872D+01  1  2  5  4  5  2        2 -.468790670155D-01 0.100000000000D+01
  </mgrwgt>
  </event>
  <event>
  5     66 0.45252658E-03 0.10746335E+03 0.75467711E-02 0.12114243E+00
       -1 -1    0    0    0  501 0.00000000E+00 0.00000000E+00 0.11341179E+02 0.11345693E+02 0.32000000E+00 0.0000E+00 0.9000E+01
        2 -1    0    0  502    0 0.00000000E+00 0.00000000E+00 -.18988665E+04 0.18988666E+04 0.32000000E+00 0.0000E+00 0.9000E+01
       25  1    1    2    0    0 -.66755511E+02 -.80962511E+01 -.71638437E+03 0.73031049E+03 0.12500000E+03 0.0000E+00 0.9000E+01
       24  1    1    2    0    0 0.69195977E+01 0.75909001E+01 -.56003454E+03 0.56587225E+03 0.80419002E+02 0.0000E+00 0.9000E+01
       21  1    1    2  502  501 0.59835914E+02 0.50535107E+00 -.61110644E+03 0.61402950E+03 0.75000000E+00 0.0000E+00 0.9000E+01
#aMCatNLO 2  0  0  2  1 0.59838048D+02 0.00000000D+00  -5  5  0 0.00000000D+00 0.00000000D+00 0.00000000D+00 0.00000000D+00 0.00000000D+00
  <mgrwgt>
 0.5068347075D-01    2    2    0
 0.108701282188740D+03 0.000000000000000D+00 0.000000000000000D+00 0.108701282188740D+03
 0.108701282188740D+03 0.000000000000000D+00 0.000000000000000D+00 -.108701282188740D+03
 0.129763094573180D+03 -.299254789461004D+02 -.778519888529033D+01 0.160411066130470D+02
 0.876394698042994D+02 0.299254789461004D+02 0.778519888529033D+01 -.160411066130470D+02
 0.000000000000000D+00 0.000000000000000D+00 0.000000000000000D+00 -.000000000000000D+00
 0.129416472037277D+03 0.000000000000000D+00 0.000000000000000D+00 0.129416472037277D+03
 0.166432440774079D+03 0.000000000000000D+00 0.000000000000000D+00 -.166432440774079D+03
 0.142843147138137D+03 -.667555113851199D+02 -.809625114898450D+01 0.160411066130470D+02
 0.826440297458207D+02 0.691959774216942D+01 0.759090007660450D+01 -.160411066130470D+02
 0.703617359273981D+02 0.598359136429505D+02 0.505351072380001D+00 -.370159687368023D+02
-.437428148028D-04 0.000000000000D+00 0.000000000000D+00 0.299263899209D-02 0.000000000000D+00  5 -1 2 25 24 21 2 0.14657862D-02 0.30251443D+00 0.20001023D+05 0.20001023D+05 0.20001023D+05 0.12338236D+01  1  2 13  2  5  2        2 -.623386986899D-01 0.100000000000D+01
0.941212821892D-04 0.000000000000D+00 0.000000000000D+00 0.299263899209D-02 0.747471123867D-05  5 -1 2 25 24 21 2 0.17451208D-02 0.29212944D+00 0.20001023D+05 0.20001023D+05 0.20001023D+05 0.12338236D+01  1  2  1  2  5  2        2 0.113022169442D+00 0.100000000000D+01
  </mgrwgt>
  </event>
  <event>
  5     66 0.45252658E-03 0.13044441E+03 0.75467711E-02 0.11334681E+00
       21 -1    0    0  502  501 0.00000000E+00 0.00000000E+00 0.22482119E+03 0.22482244E+03 0.75000000E+00 0.0000E+00 0.9000E+01
        2 -1    0    0  501    0 0.00000000E+00 0.00000000E+00 -.35211072E+03 0.35211087E+03 0.32000000E+00 0.0000E+00 0.9000E+01
       25  1    1    2    0    0 -.27807694E+02 0.93572909E+01 -.20477810E+03 0.24170208E+03 0.12500000E+03 0.0000E+00 0.9000E+01
       24  1    1    2    0    0 -.59610155E+01 -.14879920E+03 -.57826688E+01 0.16934400E+03 0.80419002E+02 0.0000E+00 0.9000E+01
        1  1    1    2  502    0 0.33768709E+02 0.13944191E+03 0.83271236E+02 0.16588723E+03 0.32000000E+00 0.0000E+00 0.9000E+01
#aMCatNLO 2  0  0  1  1 0.14347254D+03 0.00000000D+00  -5  5  0 0.00000000D+00 0.00000000D+00 0.00000000D+00 0.00000000D+00 0.00000000D+00
  <mgrwgt>
 0.1252229453D+00    1    2    0
 0.161275132351979D+03 0.000000000000000D+00 0.000000000000000D+00 0.161275132351979D+03
 0.161275132351979D+03 0.000000000000000D+00 0.000000000000000D+00 -.161275132351979D+03
 0.175471034584511D+03 -.110745086431836D+02 0.784540162407815D+02 -.942730426588750D+02
 0.147079230119447D+03 0.110745086431836D+02 -.784540162407815D+02 0.942730426588750D+02
 0.000000000000000D+00 0.000000000000000D+00 0.000000000000000D+00 0.000000000000000D+00
 0.395872192139114D+03 0.000000000000000D+00 0.000000000000000D+00 0.395872192139114D+03
 0.199969282078879D+03 0.000000000000000D+00 0.000000000000000D+00 -.199969282078879D+03
 0.159289777784502D+03 -.278076939228485D+02 0.935729090961192D+01 -.942730426588750D+02
 0.193730113992019D+03 -.596101549627837D+01 -.148799196352269D+03 0.942730426588750D+02
 0.242821582441473D+03 0.337687094191269D+02 0.139441905442657D+03 0.195902910060235D+03
0.961803379917D-04 0.000000000000D+00 0.000000000000D+00 0.159288371594D-02 0.150666534755D-06  5 21 2 25 24 1 2 0.34587966D-01 0.54170962D-01 0.48645594D+05 0.48645594D+05 0.48645594D+05 0.11934647D+01  1  2  1  3  5  1       -1 0.125222945305D+00 0.100000000000D+01
  </mgrwgt>
  </event>
  <event>
  4     66 0.45252658E-03 0.11764959E+03 0.75467711E-02 0.11914127E+00
       -1 -1    0    0    0  501 0.00000000E+00 0.00000000E+00 0.86174962E+01 0.86234356E+01 0.32000000E+00 0.0000E+00 0.9000E+01
        2 -1    0    0  501    0 0.00000000E+00 0.00000000E+00 -.16207654E+04 0.16207655E+04 0.32000000E+00 0.0000E+00 0.9000E+01
       25  1    1    2    0    0 0.39234162E+00 -.56336938E+02 -.86053311E+03 0.87138754E+03 0.12500000E+03 0.0000E+00 0.9000E+01
       24  1    1    2    0    0 -.39234162E+00 0.56336938E+02 -.75161484E+03 0.75800138E+03 0.80419002E+02 0.0000E+00 0.9000E+01
#aMCatNLO 1  0  0  2  1 0.69804982D+02 0.00000000D+00  -5  5  0 0.00000000D+00 0.00000000D+00 0.00000000D+00 0.00000000D+00 0.00000000D+00
  <mgrwgt>
 0.4504977700D+00    3    2    0
 0.118202388423510D+03 0.000000000000000D+00 0.000000000000000D+00 0.118202388423510D+03
 0.118202388423510D+03 0.000000000000000D+00 0.000000000000000D+00 -.118202388423510D+03
 0.137571252639726D+03 0.392341618322194D+00 -.563369379184868D+02 0.112625506385681D+02
 0.988335242072939D+02 -.392341618322194D+00 0.563369379184868D+02 -.112625506385681D+02
 0.000000000000000D+00 0.000000000000000D+00 0.000000000000000D+00 0.000000000000000D+00
 0.264331320324613D+03 0.000000000000000D+00 0.000000000000000D+00 0.264331320324613D+03
 0.131882150755250D+03 0.000000000000000D+00 0.000000000000000D+00 -.131882150755250D+03
 0.144930104687247D+03 -.402544235462845D+02 -.602699890718963D+02 0.112625506385681D+02
 0.101565237999191D+03 -.292260488392649D+02 0.535469386409761D+02 -.112625506385681D+02
 0.149718128393424D+03 0.694804723855494D+02 0.672305043092028D+01 0.132449169569364D+03
0.274109482311D-03 0.000000000000D+00 0.000000000000D+00 0.279651125901D-02 0.000000000000D+00  5 -1 2 25 24 21 0 0.13262280D-02 0.24934899D+00 0.13841426D+05 0.13841426D+05 0.13841426D+05 0.12518221D+01  1  2  2  2  5  2        2 0.441038417622D+00 0.100000000000D+01
-.152278977077D-04 0.000000000000D+00 -.105265258676D-05 0.279651125901D-02 0.000000000000D+00  5 -1 2 25 24 21 2 0.13262280D-02 0.24934899D+00 0.13841426D+05 0.13841426D+05 0.13841426D+05 0.12518221D+01  1  2  3  2  5  2        2 -.383952541519D-01 0.100000000000D+01
0.189795606102D-04 0.000000000000D+00 0.000000000000D+00 0.279651125901D-02 0.000000000000D+00  5 -1 2 25 24 21 2 0.13262280D-02 0.24934899D+00 0.13841426D+05 0.13841426D+05 0.13841426D+05 0.12518221D+01  1  2 15  2  5  2        2 0.478546065454D-01 0.100000000000D+01
  </mgrwgt>
  </event>
  <event>
  4     66 0.45252658E-03 0.81094821E+02 0.75467711E-02 0.12257373E+00
       -1 -1    0    0    0  501 0.00000000E+00 0.00000000E+00 0.95453006E+01 0.95506630E+01 0.32000000E+00 0.0000E+00 0.9000E+01
        2 -1    0    0  501    0 0.00000000E+00 0.00000000E+00 -.17139211E+04 0.17139211E+04 0.32000000E+00 0.0000E+00 0.9000E+01
       25  1    1    2    0    0 0.81540452E+01 -.17968314E+01 -.14741144E+04 0.14794283E+04 0.12500000E+03 0.0000E+00 0.9000E+01
       24  1    1    2    0    0 -.81540452E+01 0.17968314E+01 -.23026140E+03 0.24404353E+03 0.80419002E+02 0.0000E+00 0.9000E+01
#aMCatNLO 1  0  0  2  1 0.49991430D+02 0.00000000D+00  -5  5  0 0.00000000D+00 0.00000000D+00 0.00000000D+00 0.00000000D+00 0.00000000D+00
  <mgrwgt>
 0.5422190758D+00    9    2    0
 0.127923957880318D+03 0.000000000000000D+00 0.000000000000000D+00 0.127923957880318D+03
 0.127923957880318D+03 0.000000000000000D+00 0.000000000000000D+00 -.127923957880318D+03
 0.145820887035288D+03 0.815404524768925D+01 -.179683135056043D+01 -.746258268895863D+02
 0.110027028725349D+03 -.815404524768925D+01 0.179683135056043D+01 0.746258268895863D+02
 0.000000000000000D+00 0.000000000000000D+00 -.000000000000000D+00 -.000000000000000D+00
 0.152796838734262D+03 0.000000000000000D+00 0.000000000000000D+00 0.152796838734262D+03
 0.158168576450219D+03 0.000000000000000D+00 0.000000000000000D+00 -.158168576450219D+03
 0.147448385172811D+03 -.664040975818338D+01 0.224258156899235D+02 -.746258268895863D+02
 0.113237822934361D+03 -.194170111131639D+02 0.202374462079591D+02 0.746258268895863D+02
 0.502792070773087D+02 0.260574208713473D+02 -.426632618978826D+02 -.537173771595763D+01
0.278524184838D-03 0.000000000000D+00 0.000000000000D+00 0.185580663500D-02 0.000000000000D+00  5 -1 2 25 24 21 0 0.14689226D-02 0.26368059D+00 0.10622380D+05 0.10622380D+05 0.10622380D+05 0.12652787D+01  1  2  2  2  5  2        2 0.345007578825D+00 0.100000000000D+01
-.145951739406D-04 0.000000000000D+00 -.106960620688D-05 0.185580663500D-02 0.000000000000D+00  5 -1 2 25 24 21 2 0.14689226D-02 0.26368059D+00 0.10622380D+05 0.10622380D+05 0.10622380D+05 0.12652787D+01  1  2  3  2  5  2        2 -.289432551045D-01 0.100000000000D+01
0.190202119490D-04 0.000000000000D+00 0.000000000000D+00 0.185580663500D-02 0.000000000000D+00  5 -1 2 25 24 21 2 0.14689226D-02 0.26368059D+00 0.10622380D+05 0.10622380D+05 0.10622380D+05 0.12652787D+01  1  2 15  2  5  2        2 0.377184162945D-01 0.100000000000D+01
0.106961002492D-03 0.000000000000D+00 0.000000000000D+00 0.185580663500D-02 0.000000000000D+00  5 -1 2 25 24 21 2 0.14689226D-02 0.34640006D+00 0.17204237D+05 0.17204237D+05 0.17204237D+05 0.12410910D+01  1  2 12  2  5  2        2 0.109443642426D+00 0.100000000000D+01
-.144170723812D-03 0.000000000000D+00 0.000000000000D+00 0.185580663500D-02 0.000000000000D+00  5 -1 2 25 24 21 2 0.14689226D-02 0.26368059D+00 0.10622380D+05 0.10622380D+05 0.10622380D+05 0.12652787D+01  1  2  4  2  5  2        2 -.285900672022D+00 0.100000000000D+01
-.307715111161D-03 0.000000000000D+00 -.131786914762D-03 0.185580663500D-02 0.000000000000D+00  5 -1 2 25 24 21 2 0.14689226D-02 0.35569824D+00 0.10622380D+05 0.10622380D+05 0.10622380D+05 0.12652787D+01  1  2  5  2  5  2        2 -.303304514848D+00 0.100000000000D+01
0.337616875048D-03 0.000000000000D+00 0.126095101387D-03 0.185580663500D-02 0.000000000000D+00  5 -1 2 25 24 21 2 0.14689226D-02 0.26368059D+00 0.10622380D+05 0.10622380D+05 0.10622380D+05 0.12652787D+01  1  2  6  2  5  2        2 0.669517977784D+00 0.100000000000D+01
0.385969533690D-05 0.000000000000D+00 0.000000000000D+00 0.185580663500D-02 0.000000000000D+00  5 -1 21 25 24 -2 2 0.14689226D-02 0.34640006D+00 0.17204237D+05 0.17204237D+05 0.17204237D+05 0.12410910D+01  1  2 12  4  5  2        2 0.108808663060D-02 0.100000000000D+01
-.893116053269D-05 0.000000000000D+00 -.508620832852D-05 0.185580663500D-02 0.000000000000D+00  5 -1 21 25 24 -2 2 0.14689226D-02 0.35569824D+00 0.10622380D+05 0.10622380D+05 0.10622380D+05 0.12652787D+01  1  2  5  4  5  2        2 -.240818415183D-02 0.100000000000D+01
  </mgrwgt>
  </event>
  <event>
  4     66 -.45252658E-03 0.74698226E+02 0.75467711E-02 0.12627762E+00
       -3 -1    0    0    0  501 0.00000000E+00 0.00000000E+00 0.82953251E+02 0.82954758E+02 0.50000000E+00 0.0000E+00 0.9000E+01
        4 -1    0    0  501    0 0.00000000E+00 0.00000000E+00 -.13817547E+03 0.13818417E+03 0.15500000E+01 0.0000E+00 0.9000E+01
       25  1    1    2    0    0 0.29278845E+02 -.36221739E+01 -.35191972E+02 0.13316849E+03 0.12500000E+03 0.0000E+00 0.9000E+01
       24  1    1    2    0    0 -.29278845E+02 0.36221739E+01 -.20030249E+02 0.87970437E+02 0.80419002E+02 0.0000E+00 0.9000E+01
#aMCatNLO 1  0  0  2  1 0.35114100D+01 0.00000000D+00  -5  5  0 0.00000000D+00 0.00000000D+00 0.00000000D+00 0.00000000D+00 0.00000000D+00
  <mgrwgt>
 -.8325935760D-01   11    2    0
 0.107066485971331D+03 0.000000000000000D+00 0.000000000000000D+00 0.107066485971331D+03
 0.107066485971331D+03 0.000000000000000D+00 0.000000000000000D+00 -.107066485971331D+03
 0.128449890784116D+03 0.292788449766418D+02 -.362217390803409D+01 -.200088367107951D+01
 0.856830811585461D+02 -.292788449766418D+02 0.362217390803409D+01 0.200088367107951D+01
 0.000000000000000D+00 -.000000000000000D+00 0.000000000000000D+00 -.000000000000000D+00
 0.108026359579195D+03 0.000000000000000D+00 0.000000000000000D+00 0.108026359579195D+03
 0.110341131500564D+03 0.000000000000000D+00 0.000000000000000D+00 -.110341131500564D+03
 0.128855195031113D+03 0.308033947357591D+02 -.508021887264936D+01 -.200088367107951D+01
 0.853065654991095D+02 -.282657199394994D+02 0.265324399932033D+01 0.200088367107951D+01
 0.420573054953617D+01 -.253767479625971D+01 0.242697487332903D+01 -.231477192136926D+01
0.193009398101D-03 0.000000000000D+00 0.000000000000D+00 0.309580291047D-02 0.000000000000D+00  5 -3 4 25 24 21 0 0.12762823D-01 0.21258550D-01 0.11459062D+05 0.11459062D+05 0.11459062D+05 0.12613787D+01  1  2  2  2  5  2        4 0.352279742030D-01 0.100000000000D+01
-.107227439075D-04 0.000000000000D+00 -.741206909250D-06 0.309580291047D-02 0.000000000000D+00  5 -3 4 25 24 21 2 0.12762823D-01 0.21258550D-01 0.11459062D+05 0.11459062D+05 0.11459062D+05 0.12613787D+01  1  2  3  2  5  2        4 -.311391030981D-02 0.100000000000D+01
0.133267837307D-04 0.000000000000D+00 0.000000000000D+00 0.309580291047D-02 0.000000000000D+00  5 -3 4 25 24 21 2 0.12762823D-01 0.21258550D-01 0.11459062D+05 0.11459062D+05 0.11459062D+05 0.12613787D+01  1  2 15  2  5  2        4 0.387012966210D-02 0.100000000000D+01
0.242748406977D-04 0.000000000000D+00 0.000000000000D+00 0.309580291047D-02 0.000000000000D+00  5 -3 4 25 24 21 2 0.12762823D-01 0.22002113D-01 0.11841158D+05 0.11841158D+05 0.11841158D+05 0.12597029D+01  1  2 12  2  5  2        4 0.663131993790D-02 0.100000000000D+01
-.189217300469D-02 0.000000000000D+00 0.000000000000D+00 0.309580291047D-02 0.000000000000D+00  5 -3 4 25 24 21 2 0.12762823D-01 0.21258550D-01 0.11459062D+05 0.11459062D+05 0.11459062D+05 0.12613787D+01  1  2  4  2  5  2        4 -.549491536688D+00 0.100000000000D+01
-.642362011094D-02 0.000000000000D+00 -.800946975759D-03 0.309580291047D-02 0.000000000000D+00  5 -3 4 25 24 21 2 0.12762823D-01 0.22087772D-01 0.11459062D+05 0.11459062D+05 0.11459062D+05 0.12613787D+01  1  2  5  2  5  2        4 -.174087436755D+01 0.100000000000D+01
0.645013161408D-02 0.000000000000D+00 0.800360956027D-03 0.309580291047D-02 0.000000000000D+00  5 -3 4 25 24 21 2 0.12762823D-01 0.21258550D-01 0.11459062D+05 0.11459062D+05 0.11459062D+05 0.12613787D+01  1  2  6  2  5  2        4 0.187313354734D+01 0.100000000000D+01
0.186897337047D-02 0.000000000000D+00 0.000000000000D+00 0.309580291047D-02 0.212596401876D-02  5 -3 4 25 24 21 2 0.12877245D-01 0.21908746D-01 0.11841158D+05 0.11841158D+05 0.11841158D+05 0.12597029D+01  1  2 11  2  5  2        4 0.506858743285D+00 0.100000000000D+01
0.534684136421D-06 0.000000000000D+00 0.000000000000D+00 0.309580291047D-02 0.000000000000D+00  5 -3 21 25 24 -4 2 0.12762823D-01 0.22002113D-01 0.11841158D+05 0.11841158D+05 0.11841158D+05 0.12597029D+01  1  2 12  4  5  2        4 0.376184955268D-02 0.100000000000D+01
-.431345817199D-04 0.000000000000D+00 -.543060484554D-05 0.309580291047D-02 0.000000000000D+00  5 -3 21 25 24 -4 2 0.12762823D-01 0.22087772D-01 0.11459062D+05 0.11459062D+05 0.11459062D+05 0.12613787D+01  1  2  5  4  5  2        4 -.301594884784D+00 0.100000000000D+01
0.117851588206D-04 0.000000000000D+00 0.000000000000D+00 0.309580291047D-02 0.115444847035D-04  5 -3 21 25 24 -4 2 0.12877245D-01 0.21908746D-01 0.11841158D+05 0.11841158D+05 0.11841158D+05 0.12597029D+01  1  2 11  4  5  2        4 0.823317777436D-01 0.100000000000D+01
  </mgrwgt>
  </event>
  <event>
  4     66 0.45252658E-03 0.11148336E+03 0.75467711E-02 0.11633540E+00
       -1 -1    0    0    0  501 0.00000000E+00 0.00000000E+00 0.52117765E+03 0.52117775E+03 0.32000000E+00 0.0000E+00 0.9000E+01
        2 -1    0    0  501    0 0.00000000E+00 0.00000000E+00 -.25679637E+02 0.25681630E+02 0.32000000E+00 0.0000E+00 0.9000E+01
       25  1    1    2    0    0 -.34455622E+01 0.42335513E+02 0.36203202E+03 0.38535224E+03 0.12500000E+03 0.0000E+00 0.9000E+01
       24  1    1    2    0    0 0.34455622E+01 -.42335513E+02 0.13346600E+03 0.16150714E+03 0.80419002E+02 0.0000E+00 0.9000E+01
#aMCatNLO 1  0  0  2  1 0.11764877D+03 0.00000000D+00  -5  5  0 0.00000000D+00 0.00000000D+00 0.00000000D+00 0.00000000D+00 0.00000000D+00
  <mgrwgt>
 0.2702386452D+00    3    2    0
 0.115690209484617D+03 0.000000000000000D+00 0.000000000000000D+00 0.115690209484617D+03
 0.115690209484617D+03 0.000000000000000D+00 0.000000000000000D+00 -.115690209484617D+03
 0.135479662901691D+03 -.344556221042660D+01 0.423355127309977D+02 0.304232069777908D+02
 0.959007560675432D+02 0.344556221042660D+01 -.423355127309977D+02 -.304232069777908D+02
 0.000000000000000D+00 -.000000000000000D+00 -.000000000000000D+00 0.000000000000000D+00
 0.194958862251167D+03 0.000000000000000D+00 0.000000000000000D+00 0.194958862251167D+03
 0.182881195531354D+03 0.000000000000000D+00 0.000000000000000D+00 -.182881195531354D+03
 0.165416025421716D+03 0.492030512760264D+02 0.916021270966612D+02 0.304232069777908D+02
 0.941569519185877D+02 0.367005246315832D+02 -.112167557333549D+02 -.304232069777908D+02
 0.118267080442218D+03 -.859035759076096D+02 -.803853713633063D+02 0.120776667198131D+02
0.699369061458D-03 0.000000000000D+00 0.000000000000D+00 0.270198299215D-02 0.000000000000D+00  5 -1 2 25 24 21 0 0.80181338D-01 0.39508742D-02 0.12428539D+05 0.12428539D+05 0.12428539D+05 0.12572420D+01  1  2  2  2  5  2        2 0.264549343328D+00 0.100000000000D+01
-.387890221055D-04 0.000000000000D+00 -.268576134410D-05 0.270198299215D-02 0.000000000000D+00  5 -1 2 25 24 21 2 0.80181338D-01 0.39508742D-02 0.12428539D+05 0.12428539D+05 0.12428539D+05 0.12572420D+01  1  2  3  2  5  2        2 -.231924642051D-01 0.100000000000D+01
0.483042876584D-04 0.000000000000D+00 0.000000000000D+00 0.270198299215D-02 0.000000000000D+00  5 -1 2 25 24 21 2 0.80181338D-01 0.39508742D-02 0.12428539D+05 0.12428539D+05 0.12428539D+05 0.12572420D+01  1  2 15  2  5  2        2 0.288817660684D-01 0.100000000000D+01
  </mgrwgt>
  </event>
  <event>
  4     66 0.45252658E-03 0.12919818E+03 0.75467711E-02 0.11785561E+00
       -1 -1    0    0    0  501 0.00000000E+00 0.00000000E+00 0.47822693E+02 0.47823764E+02 0.32000000E+00 0.0000E+00 0.9000E+01
        2 -1    0    0  501    0 0.00000000E+00 0.00000000E+00 -.35114542E+03 0.35114556E+03 0.32000000E+00 0.0000E+00 0.9000E+01
       25  1    1    2    0    0 0.16292715E+02 0.75462722E+02 -.15702840E+03 0.21504184E+03 0.12500000E+03 0.0000E+00 0.9000E+01
       24  1    1    2    0    0 -.16292715E+02 -.75462722E+02 -.14629433E+03 0.18392749E+03 0.80419002E+02 0.0000E+00 0.9000E+01
#aMCatNLO 1  0  0  1  1 0.70741923D+02 0.00000000D+00  -5  5  0 0.00000000D+00 0.00000000D+00 0.00000000D+00 0.00000000D+00 0.00000000D+00
  <mgrwgt>
 0.4100792926D+00    3    2    0
 0.129587662683229D+03 0.000000000000000D+00 0.000000000000000D+00 0.129587662683229D+03
 0.129587662683229D+03 0.000000000000000D+00 0.000000000000000D+00 -.129587662683229D+03
 0.147254822997740D+03 0.162927153738418D+02 0.754627218446824D+02 0.994524678601383D+01
 0.111920502368718D+03 -.162927153738418D+02 -.754627218446824D+02 -.994524678601383D+01
 0.000000000000000D+00 -.000000000000000D+00 0.000000000000000D+00 -.000000000000000D+00
 0.144129858640395D+03 0.000000000000000D+00 0.000000000000000D+00 0.144129858640395D+03
 0.261970463564209D+03 0.000000000000000D+00 0.000000000000000D+00 -.261970463564209D+03
 0.153780891980760D+03 0.561325608190005D+02 0.690926220421873D+02 0.994524678601383D+01
 0.114875522301455D+03 0.137220573619494D+02 -.802618644050969D+02 -.994524678601383D+01
 0.137443907922389D+03 -.698546181809500D+02 0.111692423629095D+02 -.117840604923814D+03
0.413876893497D-03 0.000000000000D+00 0.000000000000D+00 0.261298567525D-02 0.000000000000D+00  5 -1 2 25 24 21 0 0.73574310D-02 0.54022466D-01 0.16692170D+05 0.16692170D+05 0.16692170D+05 0.12425649D+01  1  2  2  1  5  1       -1 0.401658461496D+00 0.100000000000D+01
-.229929074490D-04 0.000000000000D+00 -.158939624732D-05 0.261298567525D-02 0.000000000000D+00  5 -1 2 25 24 21 2 0.73574310D-02 0.54022466D-01 0.16692170D+05 0.16692170D+05 0.16692170D+05 0.12425649D+01  1  2  3  1  5  1       -1 -.344522666280D-01 0.100000000000D+01
0.286128393141D-04 0.000000000000D+00 0.000000000000D+00 0.261298567525D-02 0.000000000000D+00  5 -1 2 25 24 21 2 0.73574310D-02 0.54022466D-01 0.16692170D+05 0.16692170D+05 0.16692170D+05 0.12425649D+01  1  2 15  1  5  1       -1 0.428730977681D-01 0.100000000000D+01
  </mgrwgt>
  </event>
  <event>
  4     66 0.45252658E-03 0.42156645E+02 0.75467711E-02 0.11927675E+00
       -1 -1    0    0    0  501 0.00000000E+00 0.00000000E+00 0.32670119E+02 0.32671686E+02 0.32000000E+00 0.0000E+00 0.9000E+01
        2 -1    0    0  501    0 0.00000000E+00 0.00000000E+00 -.50876597E+03 0.50876607E+03 0.32000000E+00 0.0000E+00 0.9000E+01
       25  1    1    2    0    0 -.72211898E+02 0.13450024E+02 -.31758502E+03 0.34911417E+03 0.12500000E+03 0.0000E+00 0.9000E+01
       24  1    1    2    0    0 0.72211898E+02 -.13450024E+02 -.15851084E+03 0.19232359E+03 0.80419002E+02 0.0000E+00 0.9000E+01
#aMCatNLO 1  0  0  1  2 0.53370992D+02 0.00000000D+00  -5  5  0 0.00000000D+00 0.00000000D+00 0.00000000D+00 0.00000000D+00 0.00000000D+00
  <mgrwgt>
 0.3459781741D+00    9    2    0
 0.128925933604167D+03 0.000000000000000D+00 0.000000000000000D+00 0.128925933604167D+03
 0.128925933604167D+03 0.000000000000000D+00 0.000000000000000D+00 -.128925933604167D+03
 0.146683772910854D+03 -.722118976985644D+02 0.134500244303921D+02 -.222636005389278D+02
 0.111168094297481D+03 0.722118976985644D+02 -.134500244303921D+02 0.222636005389278D+02
 0.000000000000000D+00 -.000000000000000D+00 -.000000000000000D+00 0.000000000000000D+00
 0.172266327931212D+03 0.000000000000000D+00 0.000000000000000D+00 0.172266327931212D+03
 0.149195193770702D+03 0.000000000000000D+00 0.000000000000000D+00 -.149195193770702D+03
 0.134863547917019D+03 -.433802273696794D+02 0.136258768952364D+02 -.222636005389278D+02
 0.128453842652769D+03 0.967502263511115D+02 -.133003582637258D+02 0.222636005389278D+02
 0.581441311321253D+02 -.533699989814321D+02 -.325518631510660D+00 0.230711341605100D+02
0.239431549809D-03 0.000000000000D+00 0.000000000000D+00 0.256661623518D-02 0.000000000000D+00  5 -1 2 25 24 21 0 0.50263004D-02 0.78271817D-01 0.16116336D+05 0.16116336D+05 0.16116336D+05 0.12442841D+01  1  2  2  1  5  1       -1 0.274714064838D+00 0.100000000000D+01
-.132978953704D-04 0.000000000000D+00 -.919480195043D-06 0.256661623518D-02 0.000000000000D+00  5 -1 2 25 24 21 2 0.50263004D-02 0.78271817D-01 0.16116336D+05 0.16116336D+05 0.16116336D+05 0.12442841D+01  1  2  3  1  5  1       -1 -.236222659657D-01 0.100000000000D+01
0.165594440267D-04 0.000000000000D+00 0.000000000000D+00 0.256661623518D-02 0.000000000000D+00  5 -1 2 25 24 21 2 0.50263004D-02 0.78271817D-01 0.16116336D+05 0.16116336D+05 0.16116336D+05 0.12442841D+01  1  2 15  1  5  1       -1 0.294160527020D-01 0.100000000000D+01
0.106623772031D-03 0.000000000000D+00 0.000000000000D+00 0.256661623518D-02 0.000000000000D+00  5 -1 2 25 24 21 2 0.70053628D-02 0.78271817D-01 0.24475656D+05 0.24475656D+05 0.24475656D+05 0.12242858D+01  1  2 12  1  5  1       -1 0.113290771554D+00 0.100000000000D+01
-.132130989835D-03 0.000000000000D+00 0.000000000000D+00 0.256661623518D-02 0.000000000000D+00  5 -1 2 25 24 21 2 0.50263004D-02 0.78271817D-01 0.16116336D+05 0.16116336D+05 0.16116336D+05 0.12442841D+01  1  2  4  1  5  1       -1 -.234716343996D+00 0.100000000000D+01
-.203570446958D-03 0.000000000000D+00 -.869453289362D-04 0.256661623518D-02 0.000000000000D+00  5 -1 2 25 24 21 2 0.77635007D-02 0.78271817D-01 0.16116336D+05 0.16116336D+05 0.16116336D+05 0.12442841D+01  1  2  5  1  5  1       -1 -.189225128436D+00 0.100000000000D+01
0.227176370418D-03 0.000000000000D+00 0.793295858395D-04 0.256661623518D-02 0.000000000000D+00  5 -1 2 25 24 21 2 0.50263004D-02 0.78271817D-01 0.16116336D+05 0.16116336D+05 0.16116336D+05 0.12442841D+01  1  2  6  1  5  1       -1 0.403554133465D+00 0.100000000000D+01
0.443393770186D-05 0.000000000000D+00 0.000000000000D+00 0.256661623518D-02 0.000000000000D+00  5 21 2 25 24 1 2 0.70053628D-02 0.78271817D-01 0.24475656D+05 0.24475656D+05 0.24475656D+05 0.12242858D+01  1  2 12  3  5  1       -1 0.765021486079D-01 0.100000000000D+01
-.699476119600D-05 0.000000000000D+00 -.440219970107D-05 0.256661623518D-02 0.000000000000D+00  5 21 2 25 24 1 2 0.77635007D-02 0.78271817D-01 0.16116336D+05 0.16116336D+05 0.16116336D+05 0.12442841D+01  1  2  5  3  5  1       -1 -.103935258668D+00 0.100000000000D+01
  </mgrwgt>
  </event>
  <event>
  5     66 0.45252658E-03 0.10356493E+03 0.75467711E-02 0.12156710E+00
       -3 -1    0    0    0  501 0.00000000E+00 0.00000000E+00 0.48645149E+03 0.48645175E+03 0.50000000E+00 0.0000E+00 0.9000E+01
       21 -1    0    0  501  502 0.00000000E+00 0.00000000E+00 -.12802032E+03 0.12802252E+03 0.75000000E+00 0.0000E+00 0.9000E+01
       25  1    1    2    0    0 0.10213342E+02 -.45301280E+02 0.29445895E+03 0.32324541E+03 0.12500000E+03 0.0000E+00 0.9000E+01
       24  1    1    2    0    0 -.10014728E+02 -.15406519E+02 0.15861190E+03 0.17878089E+03 0.80419002E+02 0.0000E+00 0.9000E+01
       -4  1    1    2    0  502 -.19861477E+00 0.60707799E+02 -.94639680E+02 0.11244798E+03 0.15500000E+01 0.0000E+00 0.9000E+01
#aMCatNLO 2  0  0  2  1 0.60708124D+02 0.00000000D+00  -5  5  0 0.00000000D+00 0.00000000D+00 0.00000000D+00 0.00000000D+00 0.00000000D+00
  <mgrwgt>
 0.1698261171D+00    2    2    0
 0.103768646913939D+03 0.000000000000000D+00 0.000000000000000D+00 0.103768646913939D+03
 0.103768646913939D+03 0.000000000000000D+00 0.000000000000000D+00 -.103768646913939D+03
 0.125831631056983D+03 0.100917985998933D+02 -.815068923141717D+01 0.634990082857127D+01
 0.817056627708947D+02 -.100917985998933D+02 0.815068923141717D+01 -.634990082857127D+01
 0.000000000000000D+00 -.000000000000000D+00 0.000000000000000D+00 -.000000000000000D+00
 0.110131688020481D+03 0.000000000000000D+00 0.000000000000000D+00 0.110131688020481D+03
 0.565459228566626D+03 0.000000000000000D+00 0.000000000000000D+00 -.565459228566626D+03
 0.133498462725345D+03 0.102133423928184D+02 -.453012797464336D+02 0.634990082857127D+01
 0.827356802680020D+02 -.100147276196028D+02 -.154065189193081D+02 -.634990082857127D+01
 0.459356773593761D+03 -.198614773215600D+00 0.607077986657416D+02 -.455327540546145D+03
-.355247748481D-03 0.000000000000D+00 0.000000000000D+00 0.319548238149D-02 0.000000000000D+00  5 -3 21 25 24 -4 2 0.70514117D-01 0.19092545D-01 0.19119579D+05 0.19119579D+05 0.19119579D+05 0.12359843D+01  1  2 13  4  5  2        4 -.131454158727D+00 0.100000000000D+01
0.979015892739D-03 0.000000000000D+00 0.000000000000D+00 0.319548238149D-02 0.445164995148D-05  5 -3 21 25 24 -4 2 0.74838008D-01 0.19695393D-01 0.19119579D+05 0.19119579D+05 0.19119579D+05 0.12359843D+01  1  2  1  4  5  2        4 0.301280275853D+00 0.100000000000D+01
  </mgrwgt>
  </event>
  <event>
  4     66 0.45252658E-03 0.14558781E+03 0.75467711E-02 0.11282525E+00
       -1 -1    0    0    0  501 0.00000000E+00 0.00000000E+00 0.24608204E+02 0.24610284E+02 0.32000000E+00 0.0000E+00 0.9000E+01
        2 -1    0    0  501    0 0.00000000E+00 0.00000000E+00 -.11734928E+04 0.11734929E+04 0.32000000E+00 0.0000E+00 0.9000E+01
       25  1    1    2    0    0 0.10196522E+03 -.29788693E+00 -.31232151E+03 0.35152058E+03 0.12500000E+03 0.0000E+00 0.9000E+01
       24  1    1    2    0    0 -.10196522E+03 0.29788693E+00 -.83656314E+03 0.84658260E+03 0.80419002E+02 0.0000E+00 0.9000E+01
#aMCatNLO 1  0  0  2  1 0.13526222D+03 0.00000000D+00  -5  5  0 0.00000000D+00 0.00000000D+00 0.00000000D+00 0.00000000D+00 0.00000000D+00
  <mgrwgt>
 0.5332092715D+00    6    2    0
 0.169937705429279D+03 0.000000000000000D+00 0.000000000000000D+00 0.169937705429279D+03
 0.169937705429279D+03 0.000000000000000D+00 0.000000000000000D+00 -.169937705429279D+03
 0.183409971667216D+03 0.101965216303809D+03 -.297886928811682D+00 0.872767072847268D+02
 0.156465439191342D+03 -.101965216303809D+03 0.297886928811682D+00 -.872767072847268D+02
 0.000000000000000D+00 0.000000000000000D+00 0.000000000000000D+00 -.000000000000000D+00
 0.232699562838261D+03 0.000000000000000D+00 0.000000000000000D+00 0.232699562838261D+03
 0.274750498566844D+03 0.000000000000000D+00 0.000000000000000D+00 -.274750498566844D+03
 0.156919155737842D+03 0.368765177590241D+02 -.463899137544634D+01 0.872767072847268D+02
 0.208882926838213D+03 -.171838899586947D+03 -.436235308189402D+01 -.872767072847268D+02
 0.141647978829050D+03 0.134962381827923D+03 0.900134445734036D+01 -.420509357285822D+02
0.532011681293D-03 0.000000000000D+00 0.000000000000D+00 0.171951030826D-02 0.000000000000D+00  5 -1 2 25 24 21 0 0.37860409D-02 0.18053752D+00 0.21195810D+05 0.21195810D+05 0.21195810D+05 0.12310592D+01  1  2  2  2  5  2        2 0.327592086142D+00 0.100000000000D+01
-.286967076869D-04 0.000000000000D+00 -.204306493806D-05 0.171951030826D-02 0.000000000000D+00  5 -1 2 25 24 21 2 0.37860409D-02 0.18053752D+00 0.21195810D+05 0.21195810D+05 0.21195810D+05 0.12310592D+01  1  2  3  2  5  2        2 -.267794812938D-01 0.100000000000D+01
0.365734318679D-04 0.000000000000D+00 0.000000000000D+00 0.171951030826D-02 0.000000000000D+00  5 -1 2 25 24 21 2 0.37860409D-02 0.18053752D+00 0.21195810D+05 0.21195810D+05 0.21195810D+05 0.12310592D+01  1  2 15  2  5  2        2 0.341299617100D-01 0.100000000000D+01
-.171575750660D-03 0.000000000000D+00 -.177842574121D-03 0.171951030826D-02 0.000000000000D+00  5 -1 2 25 24 21 2 0.37860409D-02 0.34216082D+00 0.21195810D+05 0.21195810D+05 0.21195810D+05 0.12310592D+01  1  2  5  2  5  2        2 -.452666682191D-01 0.100000000000D+01
0.261109456254D-03 0.000000000000D+00 0.146803038645D-03 0.171951030826D-02 0.000000000000D+00  5 -1 2 25 24 21 2 0.37860409D-02 0.18053752D+00 0.21195810D+05 0.21195810D+05 0.21195810D+05 0.12310592D+01  1  2  6  2  5  2        2 0.243664739373D+00 0.100000000000D+01
-.179679373051D-05 0.000000000000D+00 -.123585600007D-04 0.171951030826D-02 0.000000000000D+00  5 -1 21 25 24 -2 2 0.37860409D-02 0.34216082D+00 0.21195810D+05 0.21195810D+05 0.21195810D+05 0.12310592D+01  1  2  5  4  5  2        2 -.131366256174D-03 0.100000000000D+01
  </mgrwgt>
  </event>
  <event>
  4     66 0.45252658E-03 0.12952278E+03 0.75467711E-02 0.11721789E+00
       -3 -1    0    0    0  501 0.00000000E+00 0.00000000E+00 0.75948620E+03 0.75948637E+03 0.50000000E+00 0.0000E+00 0.9000E+01
        4 -1    0    0  501    0 0.00000000E+00 0.00000000E+00 -.22606140E+02 0.22659216E+02 0.15500000E+01 0.0000E+00 0.9000E+01
       25  1    1    2    0    0 -.55854410E+02 0.54062645E+02 0.47762719E+03 0.49979517E+03 0.12500000E+03 0.0000E+00 0.9000E+01
       24  1    1    2    0    0 0.55854410E+02 -.54062645E+02 0.25925288E+03 0.28235041E+03 0.80419002E+02 0.0000E+00 0.9000E+01
#aMCatNLO 1  0  0  1  1 0.79949715D+02 0.00000000D+00  -5  5  0 0.00000000D+00 0.00000000D+00 0.00000000D+00 0.00000000D+00 0.00000000D+00
  <mgrwgt>
 0.6300163447D-01    4    2    0
 0.131110150027887D+03 0.000000000000000D+00 0.000000000000000D+00 0.131110150027887D+03
 0.131110150027887D+03 0.000000000000000D+00 0.000000000000000D+00 -.131110150027887D+03
 0.148572154387736D+03 -.558544096046478D+02 0.540626453231803D+02 0.201544131095267D+02
 0.113648145668039D+03 0.558544096046478D+02 -.540626453231803D+02 -.201544131095267D+02
 0.000000000000000D+00 -.000000000000000D+00 0.000000000000000D+00 -.000000000000000D+00
 0.164147406052735D+03 0.000000000000000D+00 0.000000000000000D+00 0.164147406052735D+03
 0.196081835165670D+03 0.000000000000000D+00 0.000000000000000D+00 -.196081835165670D+03
 0.131942823880501D+03 -.309688220693769D+02 0.204607053985610D+02 0.201544131095267D+02
 0.142194810753681D+03 0.785512449986817D+02 -.847092072461557D+02 -.201544131095267D+02
 0.860916065842236D+02 -.475824229293048D+02 0.642485018475947D+02 -.319344291129357D+02
0.154147178384D-02 0.000000000000D+00 0.000000000000D+00 0.255122029154D-02 0.000000000000D+00  5 -3 4 25 24 21 0 0.11684813D+00 0.34819631D-02 0.16776151D+05 0.16776151D+05 0.16776151D+05 0.12423197D+01  1  2  2  1  5  1       -3 0.810398803424D-01 0.100000000000D+01
-.856218719327D-04 0.000000000000D+00 -.591965752879D-05 0.255122029154D-02 0.000000000000D+00  5 -3 4 25 24 21 2 0.11684813D+00 0.34819631D-02 0.16776151D+05 0.16776151D+05 0.16776151D+05 0.12423197D+01  1  2  3  1  5  1       -3 -.694727836747D-02 0.100000000000D+01
0.106593071590D-03 0.000000000000D+00 0.000000000000D+00 0.255122029154D-02 0.000000000000D+00  5 -3 4 25 24 21 2 0.11684813D+00 0.34819631D-02 0.16776151D+05 0.16776151D+05 0.16776151D+05 0.12423197D+01  1  2 15  1  5  1       -3 0.864886183476D-02 0.100000000000D+01
-.243283923590D-03 0.000000000000D+00 0.000000000000D+00 0.255122029154D-02 0.000000000000D+00  5 -3 4 25 24 21 2 0.11684813D+00 0.34819631D-02 0.16776151D+05 0.16776151D+05 0.16776151D+05 0.12423197D+01  1  2  4  1  5  1       -3 -.197398293375D-01 0.100000000000D+01
  </mgrwgt>
  </event>
  <event>
  4     66 0.45252658E-03 0.12176910E+03 0.75467711E-02 0.11855618E+00
       -1 -1    0    0    0  501 0.00000000E+00 0.00000000E+00 0.10989685E+02 0.10994343E+02 0.32000000E+00 0.0000E+00 0.9000E+01
        2 -1    0    0  501    0 0.00000000E+00 0.00000000E+00 -.16708070E+04 0.16708070E+04 0.32000000E+00 0.0000E+00 0.9000E+01
       25  1    1    2    0    0 -.54155635E+02 -.34673767E+02 -.12988694E+04 0.13064540E+04 0.12500000E+03 0.0000E+00 0.9000E+01
       24  1    1    2    0    0 0.54155635E+02 0.34673767E+02 -.36094786E+03 0.37534740E+03 0.80419002E+02 0.0000E+00 0.9000E+01
#aMCatNLO 1  0  0  2  1 0.71757932D+02 0.00000000D+00  -5  5  0 0.00000000D+00 0.00000000D+00 0.00000000D+00 0.00000000D+00 0.00000000D+00
  <mgrwgt>
 0.4468214030D+00    3    2    0
 0.135519685418359D+03 0.000000000000000D+00 0.000000000000000D+00 0.135519685418359D+03
 0.135519685418359D+03 0.000000000000000D+00 0.000000000000000D+00 -.135519685418359D+03
 0.152413511612979D+03 -.541556354893086D+02 -.346737669613926D+02 -.589048007521957D+02
 0.118625859223739D+03 0.541556354893086D+02 0.346737669613926D+02 0.589048007521957D+02
 0.000000000000000D+00 0.000000000000000D+00 -.000000000000000D+00 0.000000000000000D+00
 0.571447174425510D+03 0.000000000000000D+00 0.000000000000000D+00 0.571447174425510D+03
 0.143173734515873D+03 0.000000000000000D+00 0.000000000000000D+00 -.143173734515873D+03
 0.158283422531670D+03 -.771803003988332D+02 -.143788978336005D+01 -.589048007521957D+02
 0.122094075309363D+03 0.363167216779254D+02 0.604240634696981D+02 0.589048007521957D+02
 0.434243411100350D+03 0.408635787209077D+02 -.589861736863381D+02 0.428273439909636D+03
0.407257173995D-03 0.000000000000D+00 0.000000000000D+00 0.211962222593D-02 0.000000000000D+00  5 -1 2 25 24 21 0 0.16910814D-02 0.25704759D+00 0.14827713D+05 0.14827713D+05 0.14827713D+05 0.12483949D+01  1  2  2  2  5  2        2 0.437168811753D+00 0.100000000000D+01
-.223105029979D-04 0.000000000000D+00 -.156397478142D-05 0.211962222593D-02 0.000000000000D+00  5 -1 2 25 24 21 2 0.16910814D-02 0.25704759D+00 0.14827713D+05 0.14827713D+05 0.14827713D+05 0.12483949D+01  1  2  3  2  5  2        2 -.373244790874D-01 0.100000000000D+01
0.280802865475D-04 0.000000000000D+00 0.000000000000D+00 0.211962222593D-02 0.000000000000D+00  5 -1 2 25 24 21 2 0.16910814D-02 0.25704759D+00 0.14827713D+05 0.14827713D+05 0.14827713D+05 0.12483949D+01  1  2 15  2  5  2        2 0.469770703112D-01 0.100000000000D+01
  </mgrwgt>
  </event>
  <event>
  4     66 0.45252658E-03 0.60893823E+02 0.75467711E-02 0.12070302E+00
       -1 -1    0    0    0  501 0.00000000E+00 0.00000000E+00 0.32978179E+03 0.32978195E+03 0.32000000E+00 0.0000E+00 0.9000E+01
        2 -1    0    0  501    0 0.00000000E+00 0.00000000E+00 -.64469337E+02 0.64470131E+02 0.32000000E+00 0.0000E+00 0.9000E+01
       25  1    1    2    0    0 -.94796152E+02 0.28254235E+02 0.11176984E+03 0.19468464E+03 0.12500000E+03 0.0000E+00 0.9000E+01
       24  1    1    2    0    0 0.94796152E+02 -.28254235E+02 0.15354261E+03 0.19956744E+03 0.80419002E+02 0.0000E+00 0.9000E+01
#aMCatNLO 1  0  0  1  2 0.26696204D+01 0.00000000D+00  -5  5  0 0.00000000D+00 0.00000000D+00 0.00000000D+00 0.00000000D+00 0.00000000D+00
  <mgrwgt>
 0.2241034731D+00   11    2    0
 0.145811525063668D+03 0.000000000000000D+00 0.000000000000000D+00 0.145811525063668D+03
 0.145811525063668D+03 0.000000000000000D+00 0.000000000000000D+00 -.145811525063668D+03
 0.161512931453922D+03 -.947961520618000D+02 0.282542348880037D+02 -.260156643584011D+02
 0.130110118673414D+03 0.947961520618000D+02 -.282542348880037D+02 0.260156643584011D+02
 0.000000000000000D+00 -.000000000000000D+00 -.000000000000000D+00 0.000000000000000D+00
 0.148067228442679D+03 0.000000000000000D+00 0.000000000000000D+00 0.148067228442679D+03
 0.146609652337781D+03 0.000000000000000D+00 0.000000000000000D+00 -.146609652337781D+03
 0.161027440003836D+03 -.936731161876198D+02 0.292124792833617D+02 -.260156643584011D+02
 0.130607829191276D+03 0.957039317830528D+02 -.274796604954046D+02 0.260156643584011D+02
 0.304161158534802D+01 -.203081559543306D+01 -.173281878795714D+01 0.145757610489878D+01
0.647027549600D-03 0.000000000000D+00 0.000000000000D+00 0.237412917353D-02 0.000000000000D+00  5 -1 2 25 24 21 0 0.50735734D-01 0.99184326D-02 0.20575978D+05 0.20575978D+05 0.20575978D+05 0.12324709D+01  1  2  2  1  5  1       -1 0.184940680410D+00 0.100000000000D+01
-.359342557654D-04 0.000000000000D+00 -.248475615673D-05 0.237412917353D-02 0.000000000000D+00  5 -1 2 25 24 21 2 0.50735734D-01 0.99184326D-02 0.20575978D+05 0.20575978D+05 0.20575978D+05 0.12324709D+01  1  2  3  1  5  1       -1 -.156016905754D-01 0.100000000000D+01
0.446746576718D-04 0.000000000000D+00 0.000000000000D+00 0.237412917353D-02 0.000000000000D+00  5 -1 2 25 24 21 2 0.50735734D-01 0.99184326D-02 0.20575978D+05 0.20575978D+05 0.20575978D+05 0.12324709D+01  1  2 15  1  5  1       -1 0.193965387820D-01 0.100000000000D+01
0.384554598226D-05 0.000000000000D+00 0.000000000000D+00 0.237412917353D-02 0.000000000000D+00  5 -1 2 25 24 21 2 0.51658003D-01 0.99184326D-02 0.20963015D+05 0.20963015D+05 0.20963015D+05 0.12315839D+01  1  2 12  1  5  1       -1 0.161367112260D-02 0.100000000000D+01
-.775194380242D-02 0.000000000000D+00 0.000000000000D+00 0.237412917353D-02 0.000000000000D+00  5 -1 2 25 24 21 2 0.50735734D-01 0.99184326D-02 0.20575978D+05 0.20575978D+05 0.20575978D+05 0.12324709D+01  1  2  4  1  5  1       -1 -.336568619517D+01 0.100000000000D+01
-.330231268162D-01 0.000000000000D+00 -.366294997041D-02 0.237412917353D-02 0.000000000000D+00  5 -1 2 25 24 21 2 0.51754810D-01 0.99184326D-02 0.20575978D+05 0.20575978D+05 0.20575978D+05 0.12324709D+01  1  2  5  1  5  1       -1 -.138234675869D+02 0.100000000000D+01
0.330901521527D-01 0.000000000000D+00 0.366222576154D-02 0.237412917353D-02 0.000000000000D+00  5 -1 2 25 24 21 2 0.50735734D-01 0.99184326D-02 0.20575978D+05 0.20575978D+05 0.20575978D+05 0.12324709D+01  1  2  6  1  5  1       -1 0.143668570277D+02 0.100000000000D+01
0.774924744002D-02 0.000000000000D+00 0.000000000000D+00 0.237412917353D-02 0.269519997176D-02  5 -1 2 25 24 21 2 0.51520615D-01 0.99727230D-02 0.20963015D+05 0.20963015D+05 0.20963015D+05 0.12315839D+01  1  2 11  1  5  1       -1 0.324585339469D+01 0.100000000000D+01
0.200614272760D-06 0.000000000000D+00 0.000000000000D+00 0.237412917353D-02 0.000000000000D+00  5 21 2 25 24 1 2 0.51658003D-01 0.99184326D-02 0.20963015D+05 0.20963015D+05 0.20963015D+05 0.12315839D+01  1  2 12  3  5  1       -1 0.849272266807D-03 0.100000000000D+01
-.119014211395D-03 0.000000000000D+00 -.132599157541D-04 0.237412917353D-02 0.000000000000D+00  5 21 2 25 24 1 2 0.51754810D-01 0.99184326D-02 0.20575978D+05 0.20575978D+05 0.20575978D+05 0.12324709D+01  1  2  5  3  5  1       -1 -.502586617813D+00 0.100000000000D+01
0.264722847503D-04 0.000000000000D+00 0.000000000000D+00 0.237412917353D-02 0.759644969732D-05  5 21 2 25 24 1 2 0.51520615D-01 0.99727230D-02 0.20963015D+05 0.20963015D+05 0.20963015D+05 0.12315839D+01  1  2 11  3  5  1       -1 0.111934978557D+00 0.100000000000D+01
  </mgrwgt>
  </event>
  <event>
  4     66 0.45252658E-03 0.10349728E+03 0.75467711E-02 0.11220801E+00
       -1 -1    0    0    0  501 0.00000000E+00 0.00000000E+00 0.93512915E+02 0.93513463E+02 0.32000000E+00 0.0000E+00 0.9000E+01
        2 -1    0    0  501    0 0.00000000E+00 0.00000000E+00 -.11846975E+03 0.11847018E+03 0.32000000E+00 0.0000E+00 0.9000E+01
       25  1    1    2    0    0 -.11792268E+02 -.39815150E+01 0.38000137E+01 0.12567558E+03 0.12500000E+03 0.0000E+00 0.9000E+01
       24  1    1    2    0    0 0.11792268E+02 0.39815150E+01 -.28756844E+02 0.86308065E+02 0.80419002E+02 0.0000E+00 0.9000E+01
#aMCatNLO 1  0  0  1  2 0.19128283D+03 0.00000000D+00  -5  5  0 0.00000000D+00 0.00000000D+00 0.00000000D+00 0.00000000D+00 0.00000000D+00
  <mgrwgt>
 0.3463443935D+00    3    2    0
 0.105254715122996D+03 0.000000000000000D+00 0.000000000000000D+00 0.105254715122996D+03
 0.105254715122996D+03 0.000000000000000D+00 0.000000000000000D+00 -.105254715122996D+03
 0.127006196837920D+03 -.117922682574668D+02 -.398151498318846D+01 0.187260242180522D+02
 0.835032334080724D+02 0.117922682574668D+02 0.398151498318846D+01 -.187260242180522D+02
 0.000000000000000D+00 -.000000000000000D+00 0.000000000000000D+00 -.000000000000000D+00
 0.218853418508224D+03 0.000000000000000D+00 0.000000000000000D+00 0.218853418508224D+03
 0.261577883126473D+03 0.000000000000000D+00 0.000000000000000D+00 -.261577883126473D+03
 0.161097924712970D+03 0.993975641735709D+02 -.984893903786431D+01 0.187260242180522D+02
 0.123337201605876D+03 0.916194959464031D+02 -.230922302843514D+00 -.187260242180522D+02
 0.195996175315851D+03 -.191017060119974D+03 0.100798613407078D+02 -.427244646182490D+02
0.305356154641D-03 0.000000000000D+00 0.000000000000D+00 0.307220876862D-02 0.000000000000D+00  5 -1 2 25 24 21 0 0.14386678D-01 0.18226190D-01 0.10711687D+05 0.10711687D+05 0.10711687D+05 0.12648462D+01  1  2  2  1  5  1       -1 0.339406261585D+00 0.100000000000D+01
-.169583829939D-04 0.000000000000D+00 -.117264803594D-05 0.307220876862D-02 0.000000000000D+00  5 -1 2 25 24 21 2 0.14386678D-01 0.18226190D-01 0.10711687D+05 0.10711687D+05 0.10711687D+05 0.12648462D+01  1  2  3  1  5  1       -1 -.301559511746D-01 0.100000000000D+01
0.208600837669D-04 0.000000000000D+00 0.000000000000D+00 0.307220876862D-02 0.000000000000D+00  5 -1 2 25 24 21 2 0.14386678D-01 0.18226190D-01 0.10711687D+05 0.10711687D+05 0.10711687D+05 0.12648462D+01  1  2 15  1  5  1       -1 0.370940830739D-01 0.100000000000D+01
  </mgrwgt>
  </event>
  <event>
  4     66 0.45252658E-03 0.74448067E+02 0.75467711E-02 0.12316494E+00
       -1 -1    0    0    0  501 0.00000000E+00 0.00000000E+00 0.10838697E+03 0.10838744E+03 0.32000000E+00 0.0000E+00 0.9000E+01
        2 -1    0    0  501    0 0.00000000E+00 0.00000000E+00 -.14081297E+03 0.14081334E+03 0.32000000E+00 0.0000E+00 0.9000E+01
       25  1    1    2    0    0 0.29250138E+02 0.50696423E+02 0.15318923E+02 0.13887177E+03 0.12500000E+03 0.0000E+00 0.9000E+01
       24  1    1    2    0    0 -.29250138E+02 -.50696423E+02 -.47744922E+02 0.11032901E+03 0.80419002E+02 0.0000E+00 0.9000E+01
#aMCatNLO 1  0  0  1  2 0.16313722D+02 0.00000000D+00  -5  5  0 0.00000000D+00 0.00000000D+00 0.00000000D+00 0.00000000D+00 0.00000000D+00
  <mgrwgt>
 0.3080916434D+00    9    2    0
 0.123541069583196D+03 0.000000000000000D+00 0.000000000000000D+00 0.123541069583196D+03
 0.123541069583196D+03 0.000000000000000D+00 0.000000000000000D+00 -.123541069583196D+03
 0.142072931247754D+03 0.292501383125244D+02 0.506964230496621D+02 0.336752118329943D+02
 0.105009207918638D+03 -.292501383125244D+02 -.506964230496621D+02 -.336752118329943D+02
 0.000000000000000D+00 0.000000000000000D+00 0.000000000000000D+00 0.000000000000000D+00
 0.135164186612705D+03 0.000000000000000D+00 0.000000000000000D+00 0.135164186612705D+03
 0.129669984875336D+03 0.000000000000000D+00 0.000000000000000D+00 -.129669984875336D+03
 0.139613037132662D+03 0.203115629940032D+02 0.481686688019264D+02 0.336752118329943D+02
 0.108007077169674D+03 -.360096589208141D+02 -.526079588729221D+02 -.336752118329943D+02
 0.172140571857048D+02 0.156980959268109D+02 0.443929007099567D+01 0.549420173736976D+01
0.322170069781D-03 0.000000000000D+00 0.000000000000D+00 0.254344175800D-02 0.000000000000D+00  5 -1 2 25 24 21 0 0.16674983D-01 0.21663598D-01 0.14100066D+05 0.14100066D+05 0.14100066D+05 0.12508974D+01  1  2  2  1  5  1       -1 0.236720280639D+00 0.100000000000D+01
-.178642004410D-04 0.000000000000D+00 -.123721789729D-05 0.254344175800D-02 0.000000000000D+00  5 -1 2 25 24 21 2 0.16674983D-01 0.21663598D-01 0.14100066D+05 0.14100066D+05 0.14100066D+05 0.12508974D+01  1  2  3  1  5  1       -1 -.205389040569D-01 0.100000000000D+01
0.222792401344D-04 0.000000000000D+00 0.000000000000D+00 0.254344175800D-02 0.000000000000D+00  5 -1 2 25 24 21 2 0.16674983D-01 0.21663598D-01 0.14100066D+05 0.14100066D+05 0.14100066D+05 0.12508974D+01  1  2 15  1  5  1       -1 0.256149821590D-01 0.100000000000D+01
0.494859008131D-03 0.000000000000D+00 0.000000000000D+00 0.254344175800D-02 0.000000000000D+00  5 -1 2 25 24 21 2 0.18627037D-01 0.21663598D-01 0.16183370D+05 0.16183370D+05 0.16183370D+05 0.12440805D+01  1  2 12  1  5  1       -1 0.474569287769D+00 0.100000000000D+01
-.461288763538D-03 0.000000000000D+00 0.000000000000D+00 0.254344175800D-02 0.000000000000D+00  5 -1 2 25 24 21 2 0.16674983D-01 0.21663598D-01 0.14100066D+05 0.14100066D+05 0.14100066D+05 0.12508974D+01  1  2  4  1  5  1       -1 -.530354867441D+00 0.100000000000D+01
-.136958478829D-02 0.000000000000D+00 -.295332710871D-03 0.254344175800D-02 0.000000000000D+00  5 -1 2 25 24 21 2 0.19103079D-01 0.21663598D-01 0.14100066D+05 0.14100066D+05 0.14100066D+05 0.12508974D+01  1  2  5  1  5  1       -1 -.126967110266D+01 0.100000000000D+01
0.139948929452D-02 0.000000000000D+00 0.292624740886D-03 0.254344175800D-02 0.000000000000D+00  5 -1 2 25 24 21 2 0.16674983D-01 0.21663598D-01 0.14100066D+05 0.14100066D+05 0.14100066D+05 0.12508974D+01  1  2  6  1  5  1       -1 0.160902674842D+01 0.100000000000D+01
0.877016620104D-05 0.000000000000D+00 0.000000000000D+00 0.254344175800D-02 0.000000000000D+00  5 21 2 25 24 1 2 0.18627037D-01 0.21663598D-01 0.16183370D+05 0.16183370D+05 0.16183370D+05 0.12440805D+01  1  2 12  3  5  1       -1 0.109871796557D+00 0.100000000000D+01
-.271129527141D-04 0.000000000000D+00 -.621654273780D-05 0.254344175800D-02 0.000000000000D+00  5 21 2 25 24 1 2 0.19103079D-01 0.21663598D-01 0.14100066D+05 0.14100066D+05 0.14100066D+05 0.12508974D+01  1  2  5  3  5  1       -1 -.327146577956D+00 0.100000000000D+01
  </mgrwgt>
  </event>
  <event>
  4     66 0.45252658E-03 0.64644493E+02 0.75467711E-02 0.12648577E+00
       -1 -1    0    0    0  501 0.00000000E+00 0.00000000E+00 0.19221647E+02 0.19224310E+02 0.32000000E+00 0.0000E+00 0.9000E+01
        2 -1    0    0  501    0 0.00000000E+00 0.00000000E+00 -.56249252E+03 0.56249261E+03 0.32000000E+00 0.0000E+00 0.9000E+01
       25  1    1    2    0    0 -.96829107E+01 -.12372847E+02 -.32312888E+03 0.34682001E+03 0.12500000E+03 0.0000E+00 0.9000E+01
       24  1    1    2    0    0 0.96829107E+01 0.12372847E+02 -.22014199E+03 0.23489691E+03 0.80419002E+02 0.0000E+00 0.9000E+01
#aMCatNLO 1  0  0  2  1 0.73793812D+01 0.00000000D+00  -5  5  0 0.00000000D+00 0.00000000D+00 0.00000000D+00 0.00000000D+00 0.00000000D+00
  <mgrwgt>
 0.4082084116D+00    8    2    0
 0.103984776851119D+03 0.000000000000000D+00 0.000000000000000D+00 0.103984776851119D+03
 0.103984776851119D+03 0.000000000000000D+00 0.000000000000000D+00 -.103984776851119D+03
 0.126001903595405D+03 -.968291068726298D+01 -.123728466162123D+02 0.215258377303347D+01
 0.819676501068335D+02 0.968291068726298D+01 0.123728466162123D+02 -.215258377303347D+01
 0.000000000000000D+00 -.000000000000000D+00 -.000000000000000D+00 0.000000000000000D+00
 0.108174682195791D+03 0.000000000000000D+00 0.000000000000000D+00 0.108174682195791D+03
 0.107350963931045D+03 0.000000000000000D+00 0.000000000000000D+00 -.107350963931045D+03
 0.125631039773295D+03 -.953515633094795D+01 -.791235308639448D+01 0.215258377303347D+01
 0.824693939934814D+02 0.977946517365147D+01 0.152876890110617D+02 -.215258377303347D+01
 0.742521236005989D+01 -.244308842703526D+00 -.737533592466720D+01 0.823718264746187D+00
0.947336678767D-04 0.000000000000D+00 0.000000000000D+00 0.319660260766D-02 0.000000000000D+00  5 -1 2 25 24 21 0 0.29573883D-02 0.86537523D-01 0.10807983D+05 0.10807983D+05 0.10807983D+05 0.12643844D+01  1  2  2  2  5  2        2 0.207615842658D+00 0.100000000000D+01
-.526298122655D-05 0.000000000000D+00 -.363802228594D-06 0.319660260766D-02 0.000000000000D+00  5 -1 2 25 24 21 2 0.29573883D-02 0.86537523D-01 0.10807983D+05 0.10807983D+05 0.10807983D+05 0.12643844D+01  1  2  3  2  5  2        2 -.184393744137D-01 0.100000000000D+01
0.653783498927D-05 0.000000000000D+00 0.000000000000D+00 0.319660260766D-02 0.000000000000D+00  5 -1 2 25 24 21 2 0.29573883D-02 0.86537523D-01 0.10807983D+05 0.10807983D+05 0.10807983D+05 0.12643844D+01  1  2 15  2  5  2        2 0.229059504552D-01 0.100000000000D+01
0.215270426655D-03 0.000000000000D+00 0.000000000000D+00 0.319660260766D-02 0.000000000000D+00  5 -1 2 25 24 21 2 0.29573883D-02 0.91020666D-01 0.11602874D+05 0.11602874D+05 0.11602874D+05 0.12607407D+01  1  2 12  2  5  2        2 0.711130454816D+00 0.100000000000D+01
-.154096688877D-03 0.000000000000D+00 0.000000000000D+00 0.319660260766D-02 0.000000000000D+00  5 -1 2 25 24 21 2 0.29573883D-02 0.86537523D-01 0.10807983D+05 0.10807983D+05 0.10807983D+05 0.12643844D+01  1  2  4  2  5  2        2 -.539892965565D+00 0.100000000000D+01
0.381586080023D-05 0.000000000000D+00 0.000000000000D+00 0.319660260766D-02 0.498254445391D-03  5 -1 2 25 24 21 2 0.30765517D-02 0.89338909D-01 0.11602874D+05 0.11602874D+05 0.11602874D+05 0.12607407D+01  1  2 11  2  5  2        2 0.121563711959D-01 0.100000000000D+01
0.227933312155D-05 0.000000000000D+00 0.000000000000D+00 0.319660260766D-02 0.000000000000D+00  5 -1 21 25 24 -2 2 0.29573883D-02 0.91020666D-01 0.11602874D+05 0.11602874D+05 0.11602874D+05 0.12607407D+01  1  2 12  4  5  2        2 0.124467822626D-01 0.100000000000D+01
0.530323909186D-07 0.000000000000D+00 0.000000000000D+00 0.319660260766D-02 0.290846416169D-05  5 -1 21 25 24 -2 2 0.30765517D-02 0.89338909D-01 0.11602874D+05 0.11602874D+05 0.11602874D+05 0.12607407D+01  1  2 11  4  5  2        2 0.285350202563D-03 0.100000000000D+01
  </mgrwgt>
  </event>
  <event>
  4     66 0.45252658E-03 0.17944300E+03 0.75467711E-02 0.99160784E-01
       -1 -1    0    0    0  501 0.00000000E+00 0.00000000E+00 0.15341003E+03 0.15341037E+03 0.32000000E+00 0.0000E+00 0.9000E+01
        2 -1    0    0  501    0 0.00000000E+00 0.00000000E+00 -.21559734E+03 0.21559758E+03 0.32000000E+00 0.0000E+00 0.9000E+01
       25  1    1    2    0    0 -.10954666E+03 0.96519405E+02 -.63183499E+02 0.20232059E+03 0.12500000E+03 0.0000E+00 0.9000E+01
       24  1    1    2    0    0 0.10954666E+03 -.96519405E+02 0.99619185E+00 0.16668736E+03 0.80419002E+02 0.0000E+00 0.9000E+01
#aMCatNLO 1  0  0  1  1 0.54088977D+03 0.00000000D+00  -5  5  0 0.00000000D+00 0.00000000D+00 0.00000000D+00 0.00000000D+00 0.00000000D+00
  <mgrwgt>
 0.4065554911D+00    5    2    0
 0.181865060724566D+03 0.000000000000000D+00 0.000000000000000D+00 0.181865060724566D+03
 0.181865060724566D+03 0.000000000000000D+00 0.000000000000000D+00 -.181865060724566D+03
 0.194453767990744D+03 -.109546658621141D+03 0.965194051675977D+02 -.295093527010452D+02
 0.169276353458387D+03 0.109546658621141D+03 -.965194051675977D+02 0.295093527010452D+02
 0.000000000000000D+00 -.000000000000000D+00 -.000000000000000D+00 0.000000000000000D+00
 0.737331874922969D+03 0.000000000000000D+00 0.000000000000000D+00 0.737331874922969D+03
 0.503680403757786D+03 0.000000000000000D+00 0.000000000000000D+00 -.503680403757786D+03
 0.229587879722805D+03 0.108173643103628D+03 0.156567096021060D+03 -.295093527010452D+02
 0.422226004354131D+03 0.413248128767414D+03 -.127579376029460D+02 0.295093527010452D+02
 0.589198394603818D+03 -.521421771871041D+03 -.143809158418114D+03 0.233651471165183D+03
0.141593079080D-02 0.000000000000D+00 0.000000000000D+00 0.217123050693D-02 0.000000000000D+00  5 -1 2 25 24 21 0 0.23601587D-01 0.33168865D-01 0.32199791D+05 0.32199791D+05 0.32199791D+05 0.12116862D+01  1  2  2  1  5  1       -1 0.381179030291D+00 0.100000000000D+01
-.786456292688D-04 0.000000000000D+00 -.543754705979D-05 0.217123050693D-02 0.000000000000D+00  5 -1 2 25 24 21 2 0.23601587D-01 0.33168865D-01 0.32199791D+05 0.32199791D+05 0.32199791D+05 0.12116862D+01  1  2  3  1  5  1       -1 -.310843548367D-01 0.100000000000D+01
0.970559776484D-04 0.000000000000D+00 0.000000000000D+00 0.217123050693D-02 0.000000000000D+00  5 -1 2 25 24 21 2 0.23601587D-01 0.33168865D-01 0.32199791D+05 0.32199791D+05 0.32199791D+05 0.12116862D+01  1  2 15  1  5  1       -1 0.383609677523D-01 0.100000000000D+01
0.184006184885D-02 0.000000000000D+00 -.840477902751D-03 0.217123050693D-02 0.000000000000D+00  5 -1 2 25 24 21 2 0.21499795D+00 0.33168865D-01 0.32199791D+05 0.32199791D+05 0.32199791D+05 0.12116862D+01  1  2  5  1  5  1       -1 0.667143038558D-02 0.100000000000D+01
0.367852530624D-03 0.000000000000D+00 -.223052726578D-03 0.217123050693D-02 0.000000000000D+00  5 21 2 25 24 1 2 0.21499795D+00 0.33168865D-01 0.32199791D+05 0.32199791D+05 0.32199791D+05 0.12116862D+01  1  2  5  3  5  1       -1 0.114284174589D-01 0.100000000000D+01
  </mgrwgt>
  </event>
  <event>
  4     66 0.45252658E-03 0.23710778E+03 0.75467711E-02 0.10938207E+00
       -1 -1    0    0    0  501 0.00000000E+00 0.00000000E+00 0.56452625E+02 0.56453532E+02 0.32000000E+00 0.0000E+00 0.9000E+01
        2 -1    0    0  501    0 0.00000000E+00 0.00000000E+00 -.11679752E+04 0.11679752E+04 0.32000000E+00 0.0000E+00 0.9000E+01
       25  1    1    2    0    0 0.20645803E+03 -.51403333E+02 -.80989941E+03 0.84665771E+03 0.12500000E+03 0.0000E+00 0.9000E+01
       24  1    1    2    0    0 -.20645803E+03 0.51403333E+02 -.30162312E+03 0.37777102E+03 0.80419002E+02 0.0000E+00 0.9000E+01
#aMCatNLO 1  0  0  2  2 0.85234860D+02 0.00000000D+00  -5  5  0 0.00000000D+00 0.00000000D+00 0.00000000D+00 0.00000000D+00 0.00000000D+00
  <mgrwgt>
 0.5191257310D+00    4    2    0
 0.256779760827077D+03 0.000000000000000D+00 0.000000000000000D+00 0.256779760827077D+03
 0.256779760827077D+03 0.000000000000000D+00 0.000000000000000D+00 -.256779760827077D+03
 0.265695751729293D+03 0.206458033671852D+03 -.514033331601071D+02 -.984987825273864D+02
 0.247863769924861D+03 -.206458033671852D+03 0.514033331601071D+02 0.984987825273864D+02
 0.000000000000000D+00 0.000000000000000D+00 0.000000000000000D+00 0.000000000000000D+00
 0.402662490457762D+03 0.000000000000000D+00 0.000000000000000D+00 0.402662490457762D+03
 0.273049522243338D+03 0.000000000000000D+00 0.000000000000000D+00 -.273049522243338D+03
 0.277691107042424D+03 0.206235301300275D+03 -.961890912144131D+02 -.984987825273864D+02
 0.242893529338805D+03 -.206659193371189D+03 0.109552853035784D+02 0.984987825273864D+02
 0.155127376319870D+03 0.423892070913915D+00 0.852338059108347D+02 0.129612968214423D+03
0.322347573969D-02 0.000000000000D+00 0.000000000000D+00 0.175945696518D-02 0.000000000000D+00  5 -1 2 25 24 21 0 0.86850924D-02 0.17968856D+00 0.56220097D+05 0.56220097D+05 0.56220097D+05 0.11872714D+01  1  2  2  2  5  2        2 0.580249370100D+00 0.100000000000D+01
-.177698759106D-03 0.000000000000D+00 -.123789956011D-04 0.175945696518D-02 0.000000000000D+00  5 -1 2 25 24 21 2 0.86850924D-02 0.17968856D+00 0.56220097D+05 0.56220097D+05 0.56220097D+05 0.11872714D+01  1  2  3  2  5  2        2 -.450894215802D-01 0.100000000000D+01
0.220274083287D-03 0.000000000000D+00 0.000000000000D+00 0.175945696518D-02 0.000000000000D+00  5 -1 2 25 24 21 2 0.86850924D-02 0.17968856D+00 0.56220097D+05 0.56220097D+05 0.56220097D+05 0.11872714D+01  1  2 15  2  5  2        2 0.558925175082D-01 0.100000000000D+01
-.283465414252D-03 0.000000000000D+00 0.000000000000D+00 0.175945696518D-02 0.000000000000D+00  5 -1 2 25 24 21 2 0.86850924D-02 0.17968856D+00 0.56220097D+05 0.56220097D+05 0.56220097D+05 0.11872714D+01  1  2  4  2  5  2        2 -.719267350596D-01 0.100000000000D+01
  </mgrwgt>
  </event>
  <event>
  4     66 0.45252658E-03 0.10426259E+03 0.75467711E-02 0.12479881E+00
       -3 -1    0    0    0  501 0.00000000E+00 0.00000000E+00 0.50453449E+02 0.50455926E+02 0.50000000E+00 0.0000E+00 0.9000E+01
        4 -1    0    0  501    0 0.00000000E+00 0.00000000E+00 -.22333521E+03 0.22334059E+03 0.15500000E+01 0.0000E+00 0.9000E+01
       25  1    1    2    0    0 -.75960216E+01 0.15781480E+02 -.78818179E+02 0.14880880E+03 0.12500000E+03 0.0000E+00 0.9000E+01
       24  1    1    2    0    0 0.75960216E+01 -.15781480E+02 -.94063584E+02 0.12498771E+03 0.80419002E+02 0.0000E+00 0.9000E+01
#aMCatNLO 1  0  0  1  2 0.24265782D+02 0.00000000D+00  -5  5  0 0.00000000D+00 0.00000000D+00 0.00000000D+00 0.00000000D+00 0.00000000D+00
  <mgrwgt>
 0.3852509509D-01    4    2    0
 0.106156050864785D+03 0.000000000000000D+00 0.000000000000000D+00 0.106156050864785D+03
 0.106156050864785D+03 0.000000000000000D+00 0.000000000000000D+00 -.106156050864785D+03
 0.127722847978626D+03 -.759602157649610D+01 0.157814797709705D+02 0.195287287916806D+02
 0.845892537509446D+02 0.759602157649610D+01 -.157814797709705D+02 -.195287287916806D+02
 0.000000000000000D+00 0.000000000000000D+00 -.000000000000000D+00 -.000000000000000D+00
 0.111122630933245D+03 0.000000000000000D+00 0.000000000000000D+00 0.111122630933245D+03
 0.141277702625711D+03 0.000000000000000D+00 0.000000000000000D+00 -.141277702625711D+03
 0.130500263577966D+03 -.106878952186582D+02 0.301615059553493D+02 0.195287287916806D+02
 0.831940431047247D+02 0.558704279060841D+01 -.643790015277986D+01 -.195287287916806D+02
 0.387060268762655D+02 0.510085242804980D+01 -.237236058025695D+02 -.301550716924656D+02
0.266993777450D-03 0.000000000000D+00 0.000000000000D+00 0.303771938808D-02 0.000000000000D+00  5 -3 4 25 24 21 0 0.77626733D-02 0.34359868D-01 0.10870689D+05 0.10870689D+05 0.10870689D+05 0.12640861D+01  1  2  2  1  5  1       -3 0.449983323853D-01 0.100000000000D+01
-.148271459849D-04 0.000000000000D+00 -.102532640648D-05 0.303771938808D-02 0.000000000000D+00  5 -3 4 25 24 21 2 0.77626733D-02 0.34359868D-01 0.10870689D+05 0.10870689D+05 0.10870689D+05 0.12640861D+01  1  2  3  1  5  1       -3 -.399306298058D-02 0.100000000000D+01
0.184322930518D-04 0.000000000000D+00 0.000000000000D+00 0.303771938808D-02 0.000000000000D+00  5 -3 4 25 24 21 2 0.77626733D-02 0.34359868D-01 0.10870689D+05 0.10870689D+05 0.10870689D+05 0.12640861D+01  1  2 15  1  5  1       -3 0.496395645576D-02 0.100000000000D+01
-.276417412586D-04 0.000000000000D+00 0.000000000000D+00 0.303771938808D-02 0.000000000000D+00  5 -3 4 25 24 21 2 0.77626733D-02 0.34359868D-01 0.10870689D+05 0.10870689D+05 0.10870689D+05 0.12640861D+01  1  2  4  1  5  1       -3 -.744413077546D-02 0.100000000000D+01
  </mgrwgt>
  </event>
  <event>
  4     66 0.45252658E-03 0.25115610E+02 0.75467711E-02 0.12308745E+00
       -3 -1    0    0    0  501 0.00000000E+00 0.00000000E+00 0.27805784E+02 0.27810279E+02 0.50000000E+00 0.0000E+00 0.9000E+01
        4 -1    0    0  501    0 0.00000000E+00 0.00000000E+00 -.56728871E+03 0.56729083E+03 0.15500000E+01 0.0000E+00 0.9000E+01
       25  1    1    2    0    0 0.14249785E+02 0.45065510E+02 -.43486923E+03 0.45493978E+03 0.12500000E+03 0.0000E+00 0.9000E+01
       24  1    1    2    0    0 -.14249785E+02 -.45065510E+02 -.10461370E+03 0.14016133E+03 0.80419002E+02 0.0000E+00 0.9000E+01
#aMCatNLO 1  0  0  1  2 0.26983431D+02 0.00000000D+00  -5  5  0 0.00000000D+00 0.00000000D+00 0.00000000D+00 0.00000000D+00 0.00000000D+00
  <mgrwgt>
 0.2460964771D-01    6    2    0
 0.125602050842255D+03 0.000000000000000D+00 0.000000000000000D+00 0.125602050842255D+03
 0.125602050842255D+03 0.000000000000000D+00 0.000000000000000D+00 -.125602050842255D+03
 0.143829826551767D+03 0.142497845543450D+02 0.450655104722547D+02 -.531795300086524D+02
 0.107374275132742D+03 -.142497845543450D+02 -.450655104722547D+02 0.531795300086524D+02
 0.000000000000000D+00 0.000000000000000D+00 -.000000000000000D+00 -.000000000000000D+00
 0.138604733242038D+03 0.000000000000000D+00 0.000000000000000D+00 0.138604733242038D+03
 0.141147408587697D+03 0.000000000000000D+00 0.000000000000000D+00 -.141147408587697D+03
 0.145400853664066D+03 0.324298997271850D+00 0.518482464935730D+02 -.531795300086524D+02
 0.107248322565596D+03 -.245831415904639D+02 -.400324053282530D+02 0.531795300086524D+02
 0.271029656000734D+02 0.242588425931921D+02 -.118158411653199D+02 -.254267534565921D+01
0.248996483745D-03 0.000000000000D+00 0.000000000000D+00 0.226391830058D-02 0.000000000000D+00  5 -3 4 25 24 21 0 0.42783216D-02 0.87275695D-01 0.12872886D+05 0.12872886D+05 0.12872886D+05 0.12554658D+01  1  2  2  1  5  1       -3 0.160511147001D-01 0.100000000000D+01
-.136592508330D-04 0.000000000000D+00 -.956212059861D-06 0.226391830058D-02 0.000000000000D+00  5 -3 4 25 24 21 2 0.42783216D-02 0.87275695D-01 0.12872886D+05 0.12872886D+05 0.12872886D+05 0.12554658D+01  1  2  3  1  5  1       -3 -.138786951125D-02 0.100000000000D+01
0.171860634765D-04 0.000000000000D+00 0.000000000000D+00 0.226391830058D-02 0.000000000000D+00  5 -3 4 25 24 21 2 0.42783216D-02 0.87275695D-01 0.12872886D+05 0.12872886D+05 0.12872886D+05 0.12554658D+01  1  2 15  1  5  1       -3 0.174621681738D-02 0.100000000000D+01
0.171433322047D-03 0.000000000000D+00 0.000000000000D+00 0.226391830058D-02 0.000000000000D+00  5 -3 4 25 24 21 2 0.49579867D-02 0.87275695D-01 0.16313076D+05 0.16313076D+05 0.16313076D+05 0.12436891D+01  1  2 12  1  5  1       -3 0.138558735940D-01 0.100000000000D+01
-.131600610578D-03 0.000000000000D+00 0.000000000000D+00 0.226391830058D-02 0.000000000000D+00  5 -3 4 25 24 21 2 0.42783216D-02 0.87275695D-01 0.12872886D+05 0.12872886D+05 0.12872886D+05 0.12554658D+01  1  2  4  1  5  1       -3 -.133714855461D-01 0.100000000000D+01
0.385633889995D-05 0.000000000000D+00 0.000000000000D+00 0.226391830058D-02 0.000000000000D+00  5 21 4 25 24 3 2 0.49579867D-02 0.87275695D-01 0.16313076D+05 0.16313076D+05 0.16313076D+05 0.12436891D+01  1  2 12  3  5  1       -3 0.771579765940D-02 0.100000000000D+01
  </mgrwgt>
  </event>
  <event>
  4     66 0.45252658E-03 0.83200754E+02 0.75467711E-02 0.12246755E+00
       -1 -1    0    0    0  501 0.00000000E+00 0.00000000E+00 0.47958469E+02 0.47959536E+02 0.32000000E+00 0.0000E+00 0.9000E+01
        2 -1    0    0  501    0 0.00000000E+00 0.00000000E+00 -.42550370E+03 0.42550382E+03 0.32000000E+00 0.0000E+00 0.9000E+01
       25  1    1    2    0    0 0.13327527E+01 -.36121787E+01 -.37234359E+03 0.39278438E+03 0.12500000E+03 0.0000E+00 0.9000E+01
       24  1    1    2    0    0 -.13327527E+01 0.36121787E+01 -.52016454E+01 0.80678976E+02 0.80419002E+02 0.0000E+00 0.9000E+01
#aMCatNLO 1  0  0  1  2 0.51862539D+02 0.00000000D+00  -5  5  0 0.00000000D+00 0.00000000D+00 0.00000000D+00 0.00000000D+00 0.00000000D+00
  <mgrwgt>
 0.3500413860D+00    9    2    0
 0.142852326629055D+03 0.000000000000000D+00 0.000000000000000D+00 0.142852326629055D+03
 0.142852326629055D+03 0.000000000000000D+00 0.000000000000000D+00 -.142852326629055D+03
 0.158878989025338D+03 0.133275271109485D+01 -.361217866729425D+01 -.979934134990713D+02
 0.126825664232772D+03 -.133275271109485D+01 0.361217866729425D+01 0.979934134990713D+02
 0.000000000000000D+00 0.000000000000000D+00 0.000000000000000D+00 0.000000000000000D+00
 0.171485658667609D+03 0.000000000000000D+00 0.000000000000000D+00 0.171485658667609D+03
 0.170755693311614D+03 0.000000000000000D+00 0.000000000000000D+00 -.170755693311614D+03
 0.162029352773125D+03 -.726833610268159D+01 -.311925209172986D+02 -.979934134990713D+02
 0.128344323433818D+03 -.817190096829075D+01 -.183183063812801D+02 0.979934134990713D+02
 0.518676757722811D+02 0.154402370709723D+02 0.495108272985788D+02 0.729965355995383D+00
0.355864304797D-03 0.000000000000D+00 0.000000000000D+00 0.141959881829D-02 0.000000000000D+00  5 -1 2 25 24 21 0 0.73783173D-02 0.65462199D-01 0.10564797D+05 0.10564797D+05 0.10564797D+05 0.12655597D+01  1  2  2  1  5  1       -1 0.275980870521D+00 0.100000000000D+01
-.171656811443D-04 0.000000000000D+00 -.136661263164D-05 0.141959881829D-02 0.000000000000D+00  5 -1 2 25 24 21 2 0.73783173D-02 0.65462199D-01 0.10564797D+05 0.10564797D+05 0.10564797D+05 0.12655597D+01  1  2  3  1  5  1       -1 -.213216531873D-01 0.100000000000D+01
0.242730530412D-04 0.000000000000D+00 0.000000000000D+00 0.141959881829D-02 0.000000000000D+00  5 -1 2 25 24 21 2 0.73783173D-02 0.65462199D-01 0.10564797D+05 0.10564797D+05 0.10564797D+05 0.12655597D+01  1  2 15  1  5  1       -1 0.301497863318D-01 0.100000000000D+01
0.101850139501D-03 0.000000000000D+00 0.000000000000D+00 0.141959881829D-02 0.000000000000D+00  5 -1 2 25 24 21 2 0.94461111D-02 0.65462199D-01 0.17395409D+05 0.17395409D+05 0.17395409D+05 0.12405534D+01  1  2 12  1  5  1       -1 0.851061463069D-01 0.100000000000D+01
-.139747026766D-03 0.000000000000D+00 0.000000000000D+00 0.141959881829D-02 0.000000000000D+00  5 -1 2 25 24 21 2 0.73783173D-02 0.65462199D-01 0.10564797D+05 0.10564797D+05 0.10564797D+05 0.12655597D+01  1  2  4  1  5  1       -1 -.173581089711D+00 0.100000000000D+01
-.238865811229D-03 0.000000000000D+00 -.146245743974D-03 0.141959881829D-02 0.000000000000D+00  5 -1 2 25 24 21 2 0.10572566D-01 0.65462199D-01 0.10564797D+05 0.10564797D+05 0.10564797D+05 0.12655597D+01  1  2  5  1  5  1       -1 -.172653349072D+00 0.100000000000D+01
0.282007152091D-03 0.000000000000D+00 0.137268546363D-03 0.141959881829D-02 0.000000000000D+00  5 -1 2 25 24 21 2 0.73783173D-02 0.65462199D-01 0.10564797D+05 0.10564797D+05 0.10564797D+05 0.12655597D+01  1  2  6  1  5  1       -1 0.350283722660D+00 0.100000000000D+01
0.341693584826D-05 0.000000000000D+00 0.000000000000D+00 0.141959881829D-02 0.000000000000D+00  5 21 2 25 24 1 2 0.94461111D-02 0.65462199D-01 0.17395409D+05 0.17395409D+05 0.17395409D+05 0.12405534D+01  1  2 12  3  5  1       -1 0.436631535122D-01 0.100000000000D+01
-.622163356230D-05 0.000000000000D+00 -.644381413471D-05 0.141959881829D-02 0.000000000000D+00  5 21 2 25 24 1 2 0.10572566D-01 0.65462199D-01 0.10564797D+05 0.10564797D+05 0.10564797D+05 0.12655597D+01  1  2  5  3  5  1       -1 -.675862013979D-01 0.100000000000D+01
  </mgrwgt>
  </event>
  <event>
  4     66 0.45252658E-03 0.82960806E+02 0.75467711E-02 0.12276296E+00
       -1 -1    0    0    0  501 0.00000000E+00 0.00000000E+00 0.14136965E+02 0.14140586E+02 0.32000000E+00 0.0000E+00 0.9000E+01
        2 -1    0    0  501    0 0.00000000E+00 0.00000000E+00 -.16596912E+04 0.16596913E+04 0.32000000E+00 0.0000E+00 0.9000E+01
       25  1    1    2    0    0 -.44424084E+02 0.56568733E+02 -.13752399E+04 0.13827810E+04 0.12500000E+03 0.0000E+00 0.9000E+01
       24  1    1    2    0    0 0.44424084E+02 -.56568733E+02 -.27031434E+03 0.29105082E+03 0.80419002E+02 0.0000E+00 0.9000E+01
#aMCatNLO 1  0  0  2  1 0.74917655D+01 0.00000000D+00  -5  5  0 0.00000000D+00 0.00000000D+00 0.00000000D+00 0.00000000D+00 0.00000000D+00
  <mgrwgt>
 0.4446212173D+00   11    2    0
 0.153186335217345D+03 0.000000000000000D+00 0.000000000000000D+00 0.153186335217345D+03
 0.153186335217345D+03 0.000000000000000D+00 0.000000000000000D+00 -.153186335217345D+03
 0.168131832856929D+03 -.444240842791953D+02 0.565687330421367D+02 -.864279607406820D+02
 0.138240837577761D+03 0.444240842791953D+02 -.565687330421367D+02 0.864279607406820D+02
 0.000000000000000D+00 0.000000000000000D+00 0.000000000000000D+00 -.000000000000000D+00
 0.153993519993792D+03 0.000000000000000D+00 0.000000000000000D+00 0.153993519993792D+03
 0.171661045751257D+03 0.000000000000000D+00 0.000000000000000D+00 -.171661045751257D+03
 0.167712393998757D+03 -.468585960769435D+02 0.532628076306478D+02 -.864279607406820D+02
 0.138751861241804D+03 0.424161831773071D+02 -.592953459435935D+02 0.864279607406820D+02
 0.191903105044889D+02 0.444241289963644D+01 0.603253831294563D+01 -.176675257574648D+02
0.313217424206D-03 0.000000000000D+00 0.000000000000D+00 0.168824654540D-02 0.000000000000D+00  5 -1 2 25 24 21 0 0.21751986D-02 0.25533739D+00 0.15889758D+05 0.15889758D+05 0.15889758D+05 0.12449796D+01  1  2  2  2  5  2        2 0.237498200788D+00 0.100000000000D+01
-.165969662762D-04 0.000000000000D+00 -.120283738099D-05 0.168824654540D-02 0.000000000000D+00  5 -1 2 25 24 21 2 0.21751986D-02 0.25533739D+00 0.15889758D+05 0.15889758D+05 0.15889758D+05 0.12449796D+01  1  2  3  2  5  2        2 -.195059716530D-01 0.100000000000D+01
0.212957548055D-04 0.000000000000D+00 0.000000000000D+00 0.168824654540D-02 0.000000000000D+00  5 -1 2 25 24 21 2 0.21751986D-02 0.25533739D+00 0.15889758D+05 0.15889758D+05 0.15889758D+05 0.12449796D+01  1  2 15  2  5  2        2 0.250283324465D-01 0.100000000000D+01
0.389437836994D-02 0.000000000000D+00 0.000000000000D+00 0.168824654540D-02 0.000000000000D+00  5 -1 2 25 24 21 2 0.21751986D-02 0.28675564D+00 0.16869557D+05 0.16869557D+05 0.16869557D+05 0.12420487D+01  1  2 12  2  5  2        2 0.358682801927D+01 0.100000000000D+01
-.399368370277D-02 0.000000000000D+00 0.000000000000D+00 0.168824654540D-02 0.000000000000D+00  5 -1 2 25 24 21 2 0.21751986D-02 0.25533739D+00 0.15889758D+05 0.15889758D+05 0.15889758D+05 0.12449796D+01  1  2  4  2  5  2        2 -.469366990332D+01 0.100000000000D+01
-.498276931476D-02 0.000000000000D+00 -.341778852861D-03 0.168824654540D-02 0.000000000000D+00  5 -1 2 25 24 21 2 0.21751986D-02 0.28666237D+00 0.15889758D+05 0.15889758D+05 0.15889758D+05 0.12449796D+01  1  2  5  2  5  2        2 -.461132964358D+01 0.100000000000D+01
0.499114001275D-02 0.000000000000D+00 0.339503177381D-03 0.168824654540D-02 0.000000000000D+00  5 -1 2 25 24 21 2 0.21751986D-02 0.25533739D+00 0.15889758D+05 0.15889758D+05 0.15889758D+05 0.12449796D+01  1  2  6  2  5  2        2 0.586595369205D+01 0.100000000000D+01
0.654744809700D-04 0.000000000000D+00 0.000000000000D+00 0.168824654540D-02 0.249029526331D-03  5 -1 2 25 24 21 2 0.21866604D-02 0.28613181D+00 0.16869557D+05 0.16869557D+05 0.16869557D+05 0.12420487D+01  1  2 11  2  5  2        2 0.601334057058D-01 0.100000000000D+01
0.718323773860D-04 0.000000000000D+00 0.000000000000D+00 0.168824654540D-02 0.000000000000D+00  5 -1 21 25 24 -2 2 0.21751986D-02 0.28675564D+00 0.16869557D+05 0.16869557D+05 0.16869557D+05 0.12420487D+01  1  2 12  4  5  2        2 0.251286625120D-01 0.100000000000D+01
-.902116767734D-04 0.000000000000D+00 -.628921767730D-05 0.168824654540D-02 0.000000000000D+00  5 -1 21 25 24 -2 2 0.21751986D-02 0.28666237D+00 0.15889758D+05 0.15889758D+05 0.15889758D+05 0.12449796D+01  1  2  5  4  5  2        2 -.318676419457D-01 0.100000000000D+01
0.121163052162D-05 0.000000000000D+00 0.000000000000D+00 0.168824654540D-02 0.456328554853D-05  5 -1 21 25 24 -2 2 0.21866604D-02 0.28613181D+00 0.16869557D+05 0.16869557D+05 0.16869557D+05 0.12420487D+01  1  2 11  4  5  2        2 0.424065052714D-03 0.100000000000D+01
  </mgrwgt>
  </event>
  <event>
  4     66 0.45252658E-03 0.80095898E+02 0.75467711E-02 0.11846751E+00
       -1 -1    0    0    0  501 0.00000000E+00 0.00000000E+00 0.11644970E+03 0.11645014E+03 0.32000000E+00 0.0000E+00 0.9000E+01
        2 -1    0    0  501    0 0.00000000E+00 0.00000000E+00 -.18082988E+03 0.18083016E+03 0.32000000E+00 0.0000E+00 0.9000E+01
       25  1    1    2    0    0 0.78565903E+02 -.58833125E+02 -.10050225E+02 0.15924806E+03 0.12500000E+03 0.0000E+00 0.9000E+01
       24  1    1    2    0    0 -.78565903E+02 0.58833125E+02 -.54329956E+02 0.13803223E+03 0.80419002E+02 0.0000E+00 0.9000E+01
#aMCatNLO 1  0  0  1  2 0.38805798D+02 0.00000000D+00  -5  5  0 0.00000000D+00 0.00000000D+00 0.00000000D+00 0.00000000D+00 0.00000000D+00
  <mgrwgt>
 0.3741448448D+00    9    2    0
 0.145112685418776D+03 0.000000000000000D+00 0.000000000000000D+00 0.145112685418776D+03
 0.145112685418776D+03 0.000000000000000D+00 0.000000000000000D+00 -.145112685418776D+03
 0.160889707288369D+03 0.785659025357916D+02 -.588331250888532D+02 0.250311857959791D+02
 0.129335663549183D+03 -.785659025357916D+02 0.588331250888532D+02 -.250311857959791D+02
 0.000000000000000D+00 0.000000000000000D+00 0.000000000000000D+00 0.000000000000000D+00
 0.185438891586812D+03 0.000000000000000D+00 0.000000000000000D+00 0.185438891586812D+03
 0.156048651826106D+03 0.000000000000000D+00 0.000000000000000D+00 -.156048651826106D+03
 0.164947020502038D+03 0.693020994482457D+02 -.784421973316183D+02 0.250311857959791D+02
 0.127861203177413D+03 -.858782185667258D+02 0.433548456006710D+02 -.250311857959791D+02
 0.486793197334660D+02 0.165761191184801D+02 0.350873517309472D+02 0.293902397607055D+02
0.560922909111D-03 0.000000000000D+00 0.000000000000D+00 0.238494226061D-02 0.000000000000D+00  5 -1 2 25 24 21 0 0.17915393D-01 0.27820037D-01 0.20423401D+05 0.20423401D+05 0.20423401D+05 0.12328257D+01  1  2  2  1  5  1       -1 0.282499326795D+00 0.100000000000D+01
-.311535233777D-04 0.000000000000D+00 -.215409166538D-05 0.238494226061D-02 0.000000000000D+00  5 -1 2 25 24 21 2 0.17915393D-01 0.27820037D-01 0.20423401D+05 0.20423401D+05 0.20423401D+05 0.12328257D+01  1  2  3  1  5  1       -1 -.238465061862D-01 0.100000000000D+01
0.386640625686D-04 0.000000000000D+00 0.000000000000D+00 0.238494226061D-02 0.000000000000D+00  5 -1 2 25 24 21 2 0.17915393D-01 0.27820037D-01 0.20423401D+05 0.20423401D+05 0.20423401D+05 0.12328257D+01  1  2 15  1  5  1       -1 0.295954584670D-01 0.100000000000D+01
0.567713405030D-03 0.000000000000D+00 0.000000000000D+00 0.238494226061D-02 0.000000000000D+00  5 -1 2 25 24 21 2 0.23428926D-01 0.27820037D-01 0.26769801D+05 0.26769801D+05 0.26769801D+05 0.12201256D+01  1  2 12  1  5  1       -1 0.277907508042D+00 0.100000000000D+01
-.593955384139D-03 0.000000000000D+00 0.000000000000D+00 0.238494226061D-02 0.000000000000D+00  5 -1 2 25 24 21 2 0.17915393D-01 0.27820037D-01 0.20423401D+05 0.20423401D+05 0.20423401D+05 0.12328257D+01  1  2  4  1  5  1       -1 -.454643944136D+00 0.100000000000D+01
-.951947142126D-03 0.000000000000D+00 -.253405751159D-03 0.238494226061D-02 0.000000000000D+00  5 -1 2 25 24 21 2 0.24465134D-01 0.27820037D-01 0.20423401D+05 0.20423401D+05 0.20423401D+05 0.12328257D+01  1  2  5  1  5  1       -1 -.440509445920D+00 0.100000000000D+01
0.994079987614D-03 0.000000000000D+00 0.241583204085D-03 0.238494226061D-02 0.000000000000D+00  5 -1 2 25 24 21 2 0.17915393D-01 0.27820037D-01 0.20423401D+05 0.20423401D+05 0.20423401D+05 0.12328257D+01  1  2  6  1  5  1       -1 0.760919857660D+00 0.100000000000D+01
0.202364098001D-04 0.000000000000D+00 0.000000000000D+00 0.238494226061D-02 0.000000000000D+00  5 21 2 25 24 1 2 0.23428926D-01 0.27820037D-01 0.26769801D+05 0.26769801D+05 0.26769801D+05 0.12201256D+01  1  2 12  3  5  1       -1 0.121143409840D+00 0.100000000000D+01
-.317948732086D-04 0.000000000000D+00 -.100671237119D-04 0.238494226061D-02 0.000000000000D+00  5 21 2 25 24 1 2 0.24465134D-01 0.27820037D-01 0.20423401D+05 0.20423401D+05 0.20423401D+05 0.12328257D+01  1  2  5  3  5  1       -1 -.178920819734D+00 0.100000000000D+01
  </mgrwgt>
  </event>
  <event>
  4     66 0.45252658E-03 0.13941948E+03 0.75467711E-02 0.11511983E+00
       -1 -1    0    0    0  501 0.00000000E+00 0.00000000E+00 0.22749859E+02 0.22752109E+02 0.32000000E+00 0.0000E+00 0.9000E+01
        2 -1    0    0  501    0 0.00000000E+00 0.00000000E+00 -.10198750E+04 0.10198751E+04 0.32000000E+00 0.0000E+00 0.9000E+01
       25  1    1    2    0    0 0.16197717E+02 0.91645929E+02 -.75653757E+03 0.77242180E+03 0.12500000E+03 0.0000E+00 0.9000E+01
       24  1    1    2    0    0 -.16197717E+02 -.91645929E+02 -.24058759E+03 0.27020538E+03 0.80419002E+02 0.0000E+00 0.9000E+01
#aMCatNLO 1  0  0  1  2 0.10102963D+03 0.00000000D+00  -5  5  0 0.00000000D+00 0.00000000D+00 0.00000000D+00 0.00000000D+00 0.00000000D+00
  <mgrwgt>
 0.2695834545D+00    4    2    0
 0.152326006116846D+03 0.000000000000000D+00 0.000000000000000D+00 0.152326006116846D+03
 0.152326006116846D+03 0.000000000000000D+00 0.000000000000000D+00 -.152326006116846D+03
 0.167355915124315D+03 0.161977173068193D+02 0.916459285619221D+02 -.610054100811433D+02
 0.137296097109377D+03 -.161977173068193D+02 -.916459285619221D+02 0.610054100811433D+02
 0.000000000000000D+00 -.000000000000000D+00 -.000000000000000D+00 -.000000000000000D+00
 0.201178509747439D+03 0.000000000000000D+00 0.000000000000000D+00 0.201178509747439D+03
 0.223187700229018D+03 0.000000000000000D+00 0.000000000000000D+00 -.223187700229018D+03
 0.193752682437470D+03 0.693155491288970D+02 0.115709967338626D+03 -.610054100811433D+02
 0.127214347757134D+03 0.227108587295026D+02 -.740191269706863D+02 0.610054100811433D+02
 0.103399179781853D+03 -.920264078583996D+02 -.416908403679400D+02 -.220091904815788D+02
0.429935569165D-03 0.000000000000D+00 0.000000000000D+00 0.203964970486D-02 0.000000000000D+00  5 -1 2 25 24 21 0 0.35001552D-02 0.15690403D+00 0.19437792D+05 0.19437792D+05 0.19437792D+05 0.12351916D+01  1  2  2  1  5  1       -1 0.363349087664D+00 0.100000000000D+01
-.236576687592D-04 0.000000000000D+00 -.165106579023D-05 0.203964970486D-02 0.000000000000D+00  5 -1 2 25 24 21 2 0.35001552D-02 0.15690403D+00 0.19437792D+05 0.19437792D+05 0.19437792D+05 0.12351916D+01  1  2  3  1  5  1       -1 -.305043191460D-01 0.100000000000D+01
0.296010350863D-04 0.000000000000D+00 0.000000000000D+00 0.203964970486D-02 0.000000000000D+00  5 -1 2 25 24 21 2 0.35001552D-02 0.15690403D+00 0.19437792D+05 0.19437792D+05 0.19437792D+05 0.12351916D+01  1  2 15  1  5  1       -1 0.381677260983D-01 0.100000000000D+01
-.786634384913D-04 0.000000000000D+00 0.000000000000D+00 0.203964970486D-02 0.000000000000D+00  5 -1 2 25 24 21 2 0.35001552D-02 0.15690403D+00 0.19437792D+05 0.19437792D+05 0.19437792D+05 0.12351916D+01  1  2  4  1  5  1       -1 -.101429040084D+00 0.100000000000D+01
  </mgrwgt>
  </event>
  <event>
  4     66 0.45252658E-03 0.49518625E+02 0.75467711E-02 0.12233753E+00
       -1 -1    0    0    0  501 0.00000000E+00 0.00000000E+00 0.33933591E+02 0.33935100E+02 0.32000000E+00 0.0000E+00 0.9000E+01
        2 -1    0    0  501    0 0.00000000E+00 0.00000000E+00 -.36645036E+03 0.36645050E+03 0.32000000E+00 0.0000E+00 0.9000E+01
       25  1    1    2    0    0 -.15704576E+02 -.35967905E+02 -.16734851E+03 0.21253434E+03 0.12500000E+03 0.0000E+00 0.9000E+01
       24  1    1    2    0    0 0.15704576E+02 0.35967905E+02 -.16516826E+03 0.18785125E+03 0.80419002E+02 0.0000E+00 0.9000E+01
#aMCatNLO 1  0  0  1  2 0.41296622D+02 0.00000000D+00  -5  5  0 0.00000000D+00 0.00000000D+00 0.00000000D+00 0.00000000D+00 0.00000000D+00
  <mgrwgt>
 0.3107272615D+00    9    2    0
 0.111513705284241D+03 0.000000000000000D+00 0.000000000000000D+00 0.111513705284241D+03
 0.111513705284241D+03 0.000000000000000D+00 0.000000000000000D+00 -.111513705284241D+03
 0.132044329798705D+03 -.157045762167330D+02 -.359679048368624D+02 0.164432703404293D+02
 0.909830807697769D+02 0.157045762167330D+02 0.359679048368624D+02 -.164432703404293D+02
 0.000000000000000D+00 -.000000000000000D+00 0.000000000000000D+00 0.000000000000000D+00
 0.184473405150858D+03 0.000000000000000D+00 0.000000000000000D+00 0.184473405150858D+03
 0.119408803069229D+03 0.000000000000000D+00 0.000000000000000D+00 -.119408803069229D+03
 0.139738735856112D+03 -.806589537027332D+01 -.597199672726933D+02 0.164432703404293D+02
 0.870797750086606D+02 0.207091754643850D+02 0.204063757998643D+02 -.164432703404293D+02
 0.770636973553139D+02 -.126432800941117D+02 0.393135914728290D+02 0.650646020816293D+02
0.184602938583D-03 0.000000000000D+00 0.000000000000D+00 0.291694472384D-02 0.000000000000D+00  5 -1 2 25 24 21 0 0.52206792D-02 0.56377105D-01 0.12155213D+05 0.12155213D+05 0.12155213D+05 0.12583705D+01  1  2  2  1  5  1       -1 0.281606295480D+00 0.100000000000D+01
-.102541008893D-04 0.000000000000D+00 -.708923891230D-06 0.291694472384D-02 0.000000000000D+00  5 -1 2 25 24 21 2 0.52206792D-02 0.56377105D-01 0.12155213D+05 0.12155213D+05 0.12155213D+05 0.12583705D+01  1  2  3  1  5  1       -1 -.247695661182D-01 0.100000000000D+01
0.127746155089D-04 0.000000000000D+00 0.000000000000D+00 0.291694472384D-02 0.000000000000D+00  5 -1 2 25 24 21 2 0.52206792D-02 0.56377105D-01 0.12155213D+05 0.12155213D+05 0.12155213D+05 0.12583705D+01  1  2 15  1  5  1       -1 0.308580622424D-01 0.100000000000D+01
0.211310963311D-03 0.000000000000D+00 0.000000000000D+00 0.291694472384D-02 0.000000000000D+00  5 -1 2 25 24 21 2 0.87183379D-02 0.56377105D-01 0.17632882D+05 0.17632882D+05 0.17632882D+05 0.12398946D+01  1  2 12  1  5  1       -1 0.233731486381D+00 0.100000000000D+01
-.232750109063D-03 0.000000000000D+00 0.000000000000D+00 0.291694472384D-02 0.000000000000D+00  5 -1 2 25 24 21 2 0.52206792D-02 0.56377105D-01 0.12155213D+05 0.12155213D+05 0.12155213D+05 0.12583705D+01  1  2  4  1  5  1       -1 -.562225716099D+00 0.100000000000D+01
-.265599516782D-03 0.000000000000D+00 -.579948192016D-04 0.291694472384D-02 0.000000000000D+00  5 -1 2 25 24 21 2 0.92136831D-02 0.56377105D-01 0.12155213D+05 0.12155213D+05 0.12155213D+05 0.12583705D+01  1  2  5  1  5  1       -1 -.275042537670D+00 0.100000000000D+01
0.263172890385D-03 0.000000000000D+00 0.497496558667D-04 0.291694472384D-02 0.000000000000D+00  5 -1 2 25 24 21 2 0.52206792D-02 0.56377105D-01 0.12155213D+05 0.12155213D+05 0.12155213D+05 0.12583705D+01  1  2  6  1  5  1       -1 0.635714274636D+00 0.100000000000D+01
0.121568648235D-04 0.000000000000D+00 0.000000000000D+00 0.291694472384D-02 0.000000000000D+00  5 21 2 25 24 1 2 0.87183379D-02 0.56377105D-01 0.17632882D+05 0.17632882D+05 0.17632882D+05 0.12398946D+01  1  2 12  3  5  1       -1 0.209283992967D+00 0.100000000000D+01
-.136392867238D-04 0.000000000000D+00 -.363058801712D-05 0.291694472384D-02 0.000000000000D+00  5 21 2 25 24 1 2 0.92136831D-02 0.56377105D-01 0.12155213D+05 0.12155213D+05 0.12155213D+05 0.12583705D+01  1  2  5  3  5  1       -1 -.218429030337D+00 0.100000000000D+01
  </mgrwgt>
  </event>
  <event>
  4     66 0.45252658E-03 0.14620254E+03 0.75467711E-02 0.11722835E+00
       -1 -1    0    0    0  501 0.00000000E+00 0.00000000E+00 0.31186308E+02 0.31187950E+02 0.32000000E+00 0.0000E+00 0.9000E+01
        2 -1    0    0  501    0 0.00000000E+00 0.00000000E+00 -.68569744E+03 0.68569751E+03 0.32000000E+00 0.0000E+00 0.9000E+01
       25  1    1    2    0    0 -.31752346E+02 -.97806345E+02 -.36992147E+03 0.40378359E+03 0.12500000E+03 0.0000E+00 0.9000E+01
       24  1    1    2    0    0 0.31752346E+02 0.97806345E+02 -.28458966E+03 0.31310188E+03 0.80419002E+02 0.0000E+00 0.9000E+01
#aMCatNLO 1  0  0  1  2 0.53616008D+02 0.00000000D+00  -5  5  0 0.00000000D+00 0.00000000D+00 0.00000000D+00 0.00000000D+00 0.00000000D+00
  <mgrwgt>
 0.3485910840D+00    4    2    0
 0.146236064902751D+03 0.000000000000000D+00 0.000000000000000D+00 0.146236064902751D+03
 0.146236064902751D+03 0.000000000000000D+00 0.000000000000000D+00 -.146236064902751D+03
 0.161891888334063D+03 -.317523455273111D+02 -.978063453311306D+02 -.311301700134222D+01
 0.130580241471439D+03 0.317523455273111D+02 0.978063453311306D+02 0.311301700134222D+01
 0.000000000000000D+00 -.000000000000000D+00 0.000000000000000D+00 -.000000000000000D+00
 0.154674034268728D+03 0.000000000000000D+00 0.000000000000000D+00 0.154674034268728D+03
 0.268430172048804D+03 0.000000000000000D+00 0.000000000000000D+00 -.268430172048804D+03
 0.177087758871963D+03 -.161195093505348D+02 -.124360543926689D+03 -.311301700134222D+01
 0.120258206349997D+03 0.433203449454178D+02 0.781567468559641D+02 0.311301700134222D+01
 0.125758241095573D+03 -.272008355948830D+02 0.462037970707248D+02 -.113756137780076D+03
0.409889859746D-03 0.000000000000D+00 0.000000000000D+00 0.244007807615D-02 0.000000000000D+00  5 -1 2 25 24 21 0 0.47980256D-02 0.10549205D+00 0.21375183D+05 0.21375183D+05 0.21375183D+05 0.12306592D+01  1  2  2  1  5  1       -1 0.362182942762D+00 0.100000000000D+01
-.227716574195D-04 0.000000000000D+00 -.157408498790D-05 0.244007807615D-02 0.000000000000D+00  5 -1 2 25 24 21 2 0.47980256D-02 0.10549205D+00 0.21375183D+05 0.21375183D+05 0.21375183D+05 0.12306592D+01  1  2  3  1  5  1       -1 -.304741144216D-01 0.100000000000D+01
0.282754519529D-04 0.000000000000D+00 0.000000000000D+00 0.244007807615D-02 0.000000000000D+00  5 -1 2 25 24 21 2 0.47980256D-02 0.10549205D+00 0.21375183D+05 0.21375183D+05 0.21375183D+05 0.12306592D+01  1  2 15  1  5  1       -1 0.378395538920D-01 0.100000000000D+01
-.156602553977D-04 0.000000000000D+00 0.000000000000D+00 0.244007807615D-02 0.000000000000D+00  5 -1 2 25 24 21 2 0.47980256D-02 0.10549205D+00 0.21375183D+05 0.21375183D+05 0.21375183D+05 0.12306592D+01  1  2  4  1  5  1       -1 -.209572981918D-01 0.100000000000D+01
  </mgrwgt>
  </event>
  <event>
  4     66 0.45252658E-03 0.70996188E+02 0.75467711E-02 0.12613254E+00
       -1 -1    0    0    0  501 0.00000000E+00 0.00000000E+00 0.49568879E+01 0.49672063E+01 0.32000000E+00 0.0000E+00 0.9000E+01
        2 -1    0    0  501    0 0.00000000E+00 0.00000000E+00 -.23606207E+04 0.23606207E+04 0.32000000E+00 0.0000E+00 0.9000E+01
       25  1    1    2    0    0 0.11978240E+02 0.11681282E+02 -.17238395E+04 0.17284465E+04 0.12500000E+03 0.0000E+00 0.9000E+01
       24  1    1    2    0    0 -.11978240E+02 -.11681282E+02 -.63182436E+03 0.63714141E+03 0.80419002E+02 0.0000E+00 0.9000E+01
#aMCatNLO 1  0  0  2  1 0.10666230D+02 0.00000000D+00  -5  5  0 0.00000000D+00 0.00000000D+00 0.00000000D+00 0.00000000D+00 0.00000000D+00
  <mgrwgt>
 0.1043780649D+01    9    2    0
 0.108229212371558D+03 0.000000000000000D+00 0.000000000000000D+00 0.108229212371558D+03
 0.108229212371558D+03 0.000000000000000D+00 0.000000000000000D+00 -.108229212371558D+03
 0.129382891320523D+03 0.119782404926308D+02 0.116812815291893D+02 -.288964008657630D+02
 0.870755334225917D+02 -.119782404926308D+02 -.116812815291893D+02 0.288964008657630D+02
 0.000000000000000D+00 0.000000000000000D+00 -.000000000000000D+00 -.000000000000000D+00
 0.111070792453428D+03 0.000000000000000D+00 0.000000000000000D+00 0.111070792453428D+03
 0.118854759714399D+03 0.000000000000000D+00 0.000000000000000D+00 -.118854759714399D+03
 0.129802776209635D+03 0.921209358554869D+01 0.174326148498974D+02 -.288964008657630D+02
 0.869182843597611D+02 -.138351813701739D+02 -.782035645819783D+01 0.288964008657630D+02
 0.132044915984307D+02 0.462308778462520D+01 -.961225839169953D+01 -.778396726097159D+01
0.268219772190D-03 0.000000000000D+00 0.000000000000D+00 0.287981844293D-02 0.000000000000D+00  5 -1 2 25 24 21 0 0.76339353D-03 0.36317321D+00 0.10842616D+05 0.10842616D+05 0.10842616D+05 0.12642194D+01  1  2  2  2  5  2        2 0.394062579626D+00 0.100000000000D+01
-.148740599088D-04 0.000000000000D+00 -.103003454910D-05 0.287981844293D-02 0.000000000000D+00  5 -1 2 25 24 21 2 0.76339353D-03 0.36317321D+00 0.10842616D+05 0.10842616D+05 0.10842616D+05 0.12642194D+01  1  2  3  2  5  2        2 -.349259979819D-01 0.100000000000D+01
0.182934993231D-04 0.000000000000D+00 0.000000000000D+00 0.287981844293D-02 0.000000000000D+00  5 -1 2 25 24 21 2 0.76339353D-03 0.36317321D+00 0.10842616D+05 0.10842616D+05 0.10842616D+05 0.12642194D+01  1  2 15  2  5  2        2 0.429552337666D-01 0.100000000000D+01
0.716855519558D-03 0.000000000000D+00 0.000000000000D+00 0.287981844293D-02 0.000000000000D+00  5 -1 2 25 24 21 2 0.76339353D-03 0.40327753D+00 0.12010627D+05 0.12010627D+05 0.12010627D+05 0.12589791D+01  1  2 12  2  5  2        2 0.121762781297D+01 0.100000000000D+01
-.718491057174D-03 0.000000000000D+00 0.000000000000D+00 0.287981844293D-02 0.000000000000D+00  5 -1 2 25 24 21 2 0.76339353D-03 0.36317321D+00 0.10842616D+05 0.10842616D+05 0.10842616D+05 0.12642194D+01  1  2  4  2  5  2        2 -.168709937749D+01 0.100000000000D+01
-.170939942125D-02 0.000000000000D+00 -.280650994589D-03 0.287981844293D-02 0.000000000000D+00  5 -1 2 25 24 21 2 0.76339353D-03 0.40232516D+00 0.10842616D+05 0.10842616D+05 0.10842616D+05 0.12642194D+01  1  2  5  2  5  2        2 -.294665678638D+01 0.100000000000D+01
0.173051972512D-02 0.000000000000D+00 0.279186525751D-03 0.287981844293D-02 0.000000000000D+00  5 -1 2 25 24 21 2 0.76339353D-03 0.36317321D+00 0.10842616D+05 0.10842616D+05 0.10842616D+05 0.12642194D+01  1  2  6  2  5  2        2 0.406345871924D+01 0.100000000000D+01
0.121175696554D-04 0.000000000000D+00 0.000000000000D+00 0.287981844293D-02 0.000000000000D+00  5 -1 21 25 24 -2 2 0.76339353D-03 0.40327753D+00 0.12010627D+05 0.12010627D+05 0.12010627D+05 0.12589791D+01  1  2 12  4  5  2        2 0.424027614261D-02 0.100000000000D+01
-.273665343981D-04 0.000000000000D+00 -.465186107715D-05 0.287981844293D-02 0.000000000000D+00  5 -1 21 25 24 -2 2 0.76339353D-03 0.40232516D+00 0.10842616D+05 0.10842616D+05 0.10842616D+05 0.12642194D+01  1  2  5  4  5  2        2 -.988181097296D-02 0.100000000000D+01
  </mgrwgt>
  </event>
  <event>
  4     66 0.45252658E-03 0.10831479E+03 0.75467711E-02 0.12631168E+00
       -1 -1    0    0    0  501 0.00000000E+00 0.00000000E+00 0.42880051E+03 0.42880063E+03 0.32000000E+00 0.0000E+00 0.9000E+01
        2 -1    0    0  501    0 0.00000000E+00 0.00000000E+00 -.27404148E+02 0.27406017E+02 0.32000000E+00 0.0000E+00 0.9000E+01
       25  1    1    2    0    0 -.55903355E+00 -.33651810E+02 0.24885924E+03 0.28051503E+03 0.12500000E+03 0.0000E+00 0.9000E+01
       24  1    1    2    0    0 0.55903355E+00 0.33651810E+02 0.15253711E+03 0.17569162E+03 0.80419002E+02 0.0000E+00 0.9000E+01
#aMCatNLO 1  0  0  1  2 0.64141962D+00 0.00000000D+00  -5  5  0 0.00000000D+00 0.00000000D+00 0.00000000D+00 0.00000000D+00 0.00000000D+00
  <mgrwgt>
 0.2141415665D+00    6    2    0
 0.108403718377228D+03 0.000000000000000D+00 0.000000000000000D+00 0.108403718377228D+03
 0.108403718377228D+03 0.000000000000000D+00 0.000000000000000D+00 -.108403718377228D+03
 0.129523344582673D+03 -.559033552534859D+00 -.336518102045812D+02 0.430580344696195D+01
 0.872840921717836D+02 0.559033552534859D+00 0.336518102045812D+02 -.430580344696195D+01
 0.000000000000000D+00 0.000000000000000D+00 -.000000000000000D+00 -.000000000000000D+00
 0.108544981269117D+03 0.000000000000000D+00 0.000000000000000D+00 0.108544981269117D+03
 0.109134755241303D+03 0.000000000000000D+00 0.000000000000000D+00 -.109134755241303D+03
 0.129490460292244D+03 -.917719771246455D+00 -.335171173252530D+02 0.430580344696195D+01
 0.873179252724527D+02 0.317242048615855D+00 0.337426070965748D+02 -.430580344696195D+01
 0.871350945723913D+00 0.600477722630600D+00 -.225489771321788D+00 -.589773972185594D+00
0.366652358578D-03 0.000000000000D+00 0.000000000000D+00 0.305266798766D-02 0.000000000000D+00  5 -1 2 25 24 21 0 0.65969462D-01 0.42161757D-02 0.11732093D+05 0.11732093D+05 0.11732093D+05 0.12601750D+01  1  2  2  1  5  1       -1 0.187123268308D+00 0.100000000000D+01
-.203695587955D-04 0.000000000000D+00 -.140804159872D-05 0.305266798766D-02 0.000000000000D+00  5 -1 2 25 24 21 2 0.65969462D-01 0.42161757D-02 0.11732093D+05 0.11732093D+05 0.11732093D+05 0.12601750D+01  1  2  3  1  5  1       -1 -.165088423437D-01 0.100000000000D+01
0.253405500790D-04 0.000000000000D+00 0.000000000000D+00 0.305266798766D-02 0.000000000000D+00  5 -1 2 25 24 21 2 0.65969462D-01 0.42161757D-02 0.11732093D+05 0.11732093D+05 0.11732093D+05 0.12601750D+01  1  2 15  1  5  1       -1 0.205376635968D-01 0.100000000000D+01
-.155545106556D-02 0.000000000000D+00 0.000000000000D+00 0.305266798766D-02 0.000000000000D+00  5 -1 2 25 24 21 2 0.65969462D-01 0.42161757D-02 0.11732093D+05 0.11732093D+05 0.11732093D+05 0.12601750D+01  1  2  4  1  5  1       -1 -.126064077639D+01 0.100000000000D+01
0.155548758303D-02 0.000000000000D+00 0.000000000000D+00 0.305266798766D-02 0.628141379056D-01  5 -1 2 25 24 21 2 0.66055428D-01 0.42446082D-02 0.11801777D+05 0.11801777D+05 0.11801777D+05 0.12598728D+01  1  2 11  1  5  1       -1 0.124614866716D+01 0.100000000000D+01
0.484015920973D-05 0.000000000000D+00 0.000000000000D+00 0.305266798766D-02 0.153602983473D-04  5 21 2 25 24 1 2 0.66055428D-01 0.42446082D-02 0.11801777D+05 0.11801777D+05 0.11801777D+05 0.12598728D+01  1  2 11  3  5  1       -1 0.374815861246D-01 0.100000000000D+01
  </mgrwgt>
  </event>
  <event>
  4     66 0.45252658E-03 0.16181615E+03 0.75467711E-02 0.10158137E+00
       -1 -1    0    0    0  501 0.00000000E+00 0.00000000E+00 0.23029701E+03 0.23029723E+03 0.32000000E+00 0.0000E+00 0.9000E+01
        2 -1    0    0  501    0 0.00000000E+00 0.00000000E+00 -.71508053E+03 0.71508060E+03 0.32000000E+00 0.0000E+00 0.9000E+01
       25  1    1    2    0    0 -.17570024E+03 0.23690586E+03 0.55001651E+02 0.32503099E+03 0.12500000E+03 0.0000E+00 0.9000E+01
       24  1    1    2    0    0 0.17570024E+03 -.23690586E+03 -.53978517E+03 0.62034685E+03 0.80419002E+02 0.0000E+00 0.9000E+01
#aMCatNLO 1  0  0  1  2 0.29404556D+03 0.00000000D+00  -5  5  0 0.00000000D+00 0.00000000D+00 0.00000000D+00 0.00000000D+00 0.00000000D+00
  <mgrwgt>
 0.2893876643D+00    7    2    0
 0.405809128179555D+03 0.000000000000000D+00 0.000000000000000D+00 0.405809128179555D+03
 0.405809128179555D+03 0.000000000000000D+00 0.000000000000000D+00 -.405809128179555D+03
 0.411450810074877D+03 -.175700243552971D+03 0.236905862002306D+03 0.258208841978047D+03
 0.400167446284232D+03 0.175700243552971D+03 -.236905862002306D+03 -.258208841978047D+03
 0.000000000000000D+00 0.000000000000000D+00 0.000000000000000D+00 0.000000000000000D+00
 0.592172920793673D+04 0.000000000000000D+00 0.000000000000000D+00 0.592172920793673D+04
 0.435558276919985D+03 0.000000000000000D+00 0.000000000000000D+00 -.435558276919985D+03
 0.459006529852703D+03 -.314182795620979D+03 0.172276984265347D+03 0.258208841978047D+03
 0.404235607692808D+03 0.477263811976852D+02 -.296630404770874D+03 -.258208841978047D+03
 0.549404534731120D+04 0.266456414423294D+03 0.124353420505527D+03 0.548617093101674D+04
0.822407057946D-02 0.000000000000D+00 0.000000000000D+00 0.117387111186D-02 0.000000000000D+00  5 -1 2 25 24 21 0 0.35430332D-01 0.11001241D+00 0.97987579D+05 0.97987579D+05 0.97987579D+05 0.11643836D+01  1  2  2  1  5  1       -1 0.293905502220D+00 0.100000000000D+01
-.419459800683D-03 0.000000000000D+00 -.315825964727D-04 0.117387111186D-02 0.000000000000D+00  5 -1 2 25 24 21 2 0.35430332D-01 0.11001241D+00 0.97987579D+05 0.97987579D+05 0.97987579D+05 0.11643836D+01  1  2  3  1  5  1       -1 -.203237280764D-01 0.100000000000D+01
0.562508607015D-03 0.000000000000D+00 0.000000000000D+00 0.117387111186D-02 0.000000000000D+00  5 -1 2 25 24 21 2 0.35430332D-01 0.11001241D+00 0.97987579D+05 0.97987579D+05 0.97987579D+05 0.11643836D+01  1  2 15  1  5  1       -1 0.272547499212D-01 0.100000000000D+01
0.186147068952D-02 0.000000000000D+00 0.000000000000D+00 0.117387111186D-02 0.000000000000D+00  5 -1 2 25 24 21 2 0.48859023D+00 0.11001241D+00 0.24233999D+06 0.24233999D+06 0.24233999D+06 0.11298270D+01  1  2 12  1  5  1       -1 0.220281379726D-04 0.100000000000D+01
-.347057880967D+00 0.000000000000D+00 -.735893587151D-02 0.117387111186D-02 0.000000000000D+00  5 -1 2 25 24 21 2 0.51927844D+00 0.11001241D+00 0.97987579D+05 0.97987579D+05 0.97987579D+05 0.11643836D+01  1  2  5  1  5  1       -1 -.297985392157D-02 0.100000000000D+01
0.557412258277D-03 0.000000000000D+00 0.000000000000D+00 0.117387111186D-02 0.000000000000D+00  5 21 2 25 24 1 2 0.48859023D+00 0.11001241D+00 0.24233999D+06 0.24233999D+06 0.24233999D+06 0.11298270D+01  1  2 12  3  5  1       -1 0.591584840258D-04 0.100000000000D+01
-.106962465681D+00 0.000000000000D+00 -.223397320049D-02 0.117387111186D-02 0.000000000000D+00  5 21 2 25 24 1 2 0.51927844D+00 0.11001241D+00 0.97987579D+05 0.97987579D+05 0.97987579D+05 0.11643836D+01  1  2  5  3  5  1       -1 -.855019241978D-02 0.100000000000D+01
  </mgrwgt>
  </event>
  <event>
  4     66 0.45252658E-03 0.11294252E+03 0.75467711E-02 0.11271246E+00
       -1 -1    0    0    0  501 0.00000000E+00 0.00000000E+00 0.47422635E+01 0.47530477E+01 0.32000000E+00 0.0000E+00 0.9000E+01
        2 -1    0    0  501    0 0.00000000E+00 0.00000000E+00 -.27041041E+04 0.27041041E+04 0.32000000E+00 0.0000E+00 0.9000E+01
       25  1    1    2    0    0 -.31962147E+02 -.33154717E+02 -.16969952E+04 0.17022157E+04 0.12500000E+03 0.0000E+00 0.9000E+01
       24  1    1    2    0    0 0.31962147E+02 0.33154717E+02 -.10023666E+04 0.10066414E+04 0.80419002E+02 0.0000E+00 0.9000E+01
#aMCatNLO 1  0  0  1  2 0.17368537D+03 0.00000000D+00  -5  5  0 0.00000000D+00 0.00000000D+00 0.00000000D+00 0.00000000D+00 0.00000000D+00
  <mgrwgt>
 0.3738436765D+00    5    2    0
 0.113305807730938D+03 0.000000000000000D+00 0.000000000000000D+00 0.113305807730938D+03
 0.113305807730938D+03 0.000000000000000D+00 0.000000000000000D+00 -.113305807730938D+03
 0.133511709416437D+03 -.319621467145325D+02 -.331547173414066D+02 -.891977840022529D+01
 0.930999060454388D+02 0.319621467145325D+02 0.331547173414066D+02 0.891977840022529D+01
 0.000000000000000D+00 -.000000000000000D+00 0.000000000000000D+00 0.000000000000000D+00
 0.535429856975257D+03 0.000000000000000D+00 0.000000000000000D+00 0.535429856975257D+03
 0.161964030424724D+03 0.000000000000000D+00 0.000000000000000D+00 -.161964030424724D+03
 0.168387764269741D+03 0.414040685066553D+02 -.104573322698233D+03 -.891977840022529D+01
 0.117128313544419D+03 0.830508373163236D+02 -.165777517696974D+02 0.891977840022529D+01
 0.411877809585821D+03 -.124454905822979D+03 0.121151074467931D+03 0.373465826550533D+03
0.415310852497D-03 0.000000000000D+00 0.000000000000D+00 0.291134151214D-02 0.000000000000D+00  5 -1 2 25 24 21 0 0.73041001D-03 0.41601684D+00 0.12756013D+05 0.12756013D+05 0.12756013D+05 0.12559262D+01  1  2  2  1  5  1       -1 0.427559894576D+00 0.100000000000D+01
-.230725358223D-04 0.000000000000D+00 -.159490302745D-05 0.291134151214D-02 0.000000000000D+00  5 -1 2 25 24 21 2 0.73041001D-03 0.41601684D+00 0.12756013D+05 0.12756013D+05 0.12756013D+05 0.12559262D+01  1  2  3  1  5  1       -1 -.374668577446D-01 0.100000000000D+01
0.286204286663D-04 0.000000000000D+00 0.000000000000D+00 0.291134151214D-02 0.000000000000D+00  5 -1 2 25 24 21 2 0.73041001D-03 0.41601684D+00 0.12756013D+05 0.12756013D+05 0.12756013D+05 0.12559262D+01  1  2 15  1  5  1       -1 0.464759286837D-01 0.100000000000D+01
-.595412252538D-04 0.000000000000D+00 -.235592160258D-03 0.291134151214D-02 0.000000000000D+00  5 -1 2 25 24 21 2 0.61355299D-02 0.41601684D+00 0.12756013D+05 0.12756013D+05 0.12756013D+05 0.12559262D+01  1  2  5  1  5  1       -1 -.450373417119D-02 0.100000000000D+01
-.456386138544D-04 0.000000000000D+00 -.606456080804D-04 0.291134151214D-02 0.000000000000D+00  5 21 2 25 24 1 2 0.61355299D-02 0.41601684D+00 0.12756013D+05 0.12756013D+05 0.12756013D+05 0.12559262D+01  1  2  5  3  5  1       -1 -.582215548026D-01 0.100000000000D+01
  </mgrwgt>
  </event>
  <event>
  4     66 0.45252658E-03 0.11216697E+03 0.75467711E-02 0.11314324E+00
       -1 -1    0    0    0  501 0.00000000E+00 0.00000000E+00 0.62531130E+02 0.62531949E+02 0.32000000E+00 0.0000E+00 0.9000E+01
        2 -1    0    0  501    0 0.00000000E+00 0.00000000E+00 -.67557245E+03 0.67557253E+03 0.32000000E+00 0.0000E+00 0.9000E+01
       25  1    1    2    0    0 0.17208361E+03 0.34123943E+02 -.28119936E+03 0.35422492E+03 0.12500000E+03 0.0000E+00 0.9000E+01
       24  1    1    2    0    0 -.17208361E+03 -.34123943E+02 -.33184196E+03 0.38387955E+03 0.80419002E+02 0.0000E+00 0.9000E+01
#aMCatNLO 1  0  0  1  2 0.36595500D+02 0.00000000D+00  -5  5  0 0.00000000D+00 0.00000000D+00 0.00000000D+00 0.00000000D+00 0.00000000D+00
  <mgrwgt>
 0.4595040495D+00    9    2    0
 0.205535006075805D+03 0.000000000000000D+00 0.000000000000000D+00 0.205535006075805D+03
 0.205535006075805D+03 0.000000000000000D+00 0.000000000000000D+00 -.205535006075805D+03
 0.216673965103364D+03 0.172083609162263D+03 0.341239427142615D+02 0.233536966011185D+02
 0.194396047048247D+03 -.172083609162263D+03 -.341239427142615D+02 -.233536966011185D+02
 0.000000000000000D+00 0.000000000000000D+00 0.000000000000000D+00 0.000000000000000D+00
 0.274017173410027D+03 0.000000000000000D+00 0.000000000000000D+00 0.274017173410027D+03
 0.211295581226206D+03 0.000000000000000D+00 0.000000000000000D+00 -.211295581226206D+03
 0.201924528254488D+03 0.153716483933536D+03 0.312147806811409D+02 0.233536966011185D+02
 0.210771225926865D+03 -.189861403777864D+03 -.369397608939856D+02 -.233536966011185D+02
 0.726170004548797D+02 0.361449198443282D+02 0.572498021284471D+01 0.627215921838216D+02
0.119062173598D-02 0.000000000000D+00 0.000000000000D+00 0.212188570449D-02 0.000000000000D+00  5 -1 2 25 24 21 0 0.96202426D-02 0.10393429D+00 0.41697616D+05 0.41697616D+05 0.41697616D+05 0.12001715D+01  1  2  2  1  5  1       -1 0.380492374928D+00 0.100000000000D+01
-.661422365734D-04 0.000000000000D+00 -.457230096407D-05 0.212188570449D-02 0.000000000000D+00  5 -1 2 25 24 21 2 0.96202426D-02 0.10393429D+00 0.41697616D+05 0.41697616D+05 0.41697616D+05 0.12001715D+01  1  2  3  1  5  1       -1 -.304465175818D-01 0.100000000000D+01
0.816246280406D-04 0.000000000000D+00 0.000000000000D+00 0.212188570449D-02 0.000000000000D+00  5 -1 2 25 24 21 2 0.96202426D-02 0.10393429D+00 0.41697616D+05 0.41697616D+05 0.41697616D+05 0.12001715D+01  1  2 15  1  5  1       -1 0.375733540547D-01 0.100000000000D+01
0.318329371847D-02 0.000000000000D+00 0.000000000000D+00 0.212188570449D-02 0.000000000000D+00  5 -1 2 25 24 21 2 0.12927635D-01 0.10393429D+00 0.49871468D+05 0.49871468D+05 0.49871468D+05 0.11923925D+01  1  2 12  1  5  1       -1 0.915652833079D+00 0.100000000000D+01
-.317187203507D-02 0.000000000000D+00 0.000000000000D+00 0.212188570449D-02 0.000000000000D+00  5 -1 2 25 24 21 2 0.96202426D-02 0.10393429D+00 0.41697616D+05 0.41697616D+05 0.41697616D+05 0.12001715D+01  1  2  4  1  5  1       -1 -.146007245424D+01 0.100000000000D+01
-.397780197896D-02 0.000000000000D+00 -.541834988655D-03 0.212188570449D-02 0.000000000000D+00  5 -1 2 25 24 21 2 0.13143221D-01 0.10393429D+00 0.41697616D+05 0.41697616D+05 0.41697616D+05 0.12001715D+01  1  2  5  1  5  1       -1 -.112801063580D+01 0.100000000000D+01
0.397703169602D-02 0.000000000000D+00 0.516485994161D-03 0.212188570449D-02 0.000000000000D+00  5 -1 2 25 24 21 2 0.96202426D-02 0.10393429D+00 0.41697616D+05 0.41697616D+05 0.41697616D+05 0.12001715D+01  1  2  6  1  5  1       -1 0.183070261499D+01 0.100000000000D+01
0.121713212202D-03 0.000000000000D+00 0.000000000000D+00 0.212188570449D-02 0.000000000000D+00  5 21 2 25 24 1 2 0.12927635D-01 0.10393429D+00 0.49871468D+05 0.49871468D+05 0.49871468D+05 0.11923925D+01  1  2 12  3  5  1       -1 0.488254743605D+00 0.100000000000D+01
-.145283420405D-03 0.000000000000D+00 -.215479441309D-04 0.212188570449D-02 0.000000000000D+00  5 21 2 25 24 1 2 0.13143221D-01 0.10393429D+00 0.41697616D+05 0.41697616D+05 0.41697616D+05 0.12001715D+01  1  2  5  3  5  1       -1 -.574642263540D+00 0.100000000000D+01
  </mgrwgt>
  </event>
  <event>
  4     66 0.45252658E-03 0.14110376E+03 0.75467711E-02 0.12101637E+00
       -1 -1    0    0    0  501 0.00000000E+00 0.00000000E+00 0.76150694E+02 0.76151366E+02 0.32000000E+00 0.0000E+00 0.9000E+01
        2 -1    0    0  501    0 0.00000000E+00 0.00000000E+00 -.26449494E+03 0.26449513E+03 0.32000000E+00 0.0000E+00 0.9000E+01
       25  1    1    2    0    0 0.83724681E+02 -.46017400E+02 -.86742015E+02 0.17965690E+03 0.12500000E+03 0.0000E+00 0.9000E+01
       24  1    1    2    0    0 -.83724681E+02 0.46017400E+02 -.10160223E+03 0.16098960E+03 0.80419002E+02 0.0000E+00 0.9000E+01
#aMCatNLO 1  0  0  1  2 0.25401736D+01 0.00000000D+00  -5  5  0 0.00000000D+00 0.00000000D+00 0.00000000D+00 0.00000000D+00 0.00000000D+00
  <mgrwgt>
 0.3843297739D+00    6    2    0
 0.141921178148752D+03 0.000000000000000D+00 0.000000000000000D+00 0.141921178148752D+03
 0.141921178148752D+03 0.000000000000000D+00 0.000000000000000D+00 -.141921178148752D+03
 0.158052991886993D+03 0.837246806289003D+02 -.460174002558914D+02 0.151104259274075D+02
 0.125789364410512D+03 -.837246806289003D+02 0.460174002558914D+02 -.151104259274075D+02
 0.000000000000000D+00 -.000000000000000D+00 -.000000000000000D+00 -.000000000000000D+00
 0.142560961781961D+03 0.000000000000000D+00 0.000000000000000D+00 0.142560961781961D+03
 0.144470811673312D+03 0.000000000000000D+00 0.000000000000000D+00 -.144470811673312D+03
 0.158725574954419D+03 0.851205254207038D+02 -.457709441131203D+02 0.151104259274075D+02
 0.125128147428311D+03 -.826190442673094D+02 0.462126159951951D+02 -.151104259274075D+02
 0.317805107254350D+01 -.250148115339445D+01 -.441671882074826D+00 -.190984989135057D+01
0.475899048005D-03 0.000000000000D+00 0.000000000000D+00 0.245599513874D-02 0.000000000000D+00  5 -1 2 25 24 21 0 0.11715558D-01 0.40691596D-01 0.19910272D+05 0.19910272D+05 0.19910272D+05 0.12340411D+01  1  2  2  1  5  1       -1 0.309275773189D+00 0.100000000000D+01
-.264377634396D-04 0.000000000000D+00 -.182757765144D-05 0.245599513874D-02 0.000000000000D+00  5 -1 2 25 24 21 2 0.11715558D-01 0.40691596D-01 0.19910272D+05 0.19910272D+05 0.19910272D+05 0.12340411D+01  1  2  3  1  5  1       -1 -.261646553727D-01 0.100000000000D+01
0.328172897674D-04 0.000000000000D+00 0.000000000000D+00 0.245599513874D-02 0.000000000000D+00  5 -1 2 25 24 21 2 0.11715558D-01 0.40691596D-01 0.19910272D+05 0.19910272D+05 0.19910272D+05 0.12340411D+01  1  2 15  1  5  1       -1 0.324782797529D-01 0.100000000000D+01
-.876062320153D-03 0.000000000000D+00 0.000000000000D+00 0.245599513874D-02 0.000000000000D+00  5 -1 2 25 24 21 2 0.11715558D-01 0.40691596D-01 0.19910272D+05 0.19910272D+05 0.19910272D+05 0.12340411D+01  1  2  4  1  5  1       -1 -.867012398543D+00 0.100000000000D+01
0.875819247630D-03 0.000000000000D+00 0.000000000000D+00 0.245599513874D-02 0.308754279735D-02  5 -1 2 25 24 21 2 0.11768372D-01 0.41422626D-01 0.20271680D+05 0.20271680D+05 0.20271680D+05 0.12331815D+01  1  2 11  1  5  1       -1 0.843926760910D+00 0.100000000000D+01
0.656682258718D-05 0.000000000000D+00 0.000000000000D+00 0.245599513874D-02 0.260790292015D-05  5 21 2 25 24 1 2 0.11768372D-01 0.41422626D-01 0.20271680D+05 0.20271680D+05 0.20271680D+05 0.12331815D+01  1  2 11  3  5  1       -1 0.918260139358D-01 0.100000000000D+01
  </mgrwgt>
  </event>
  <event>
  4     66 0.45252658E-03 0.74538776E+02 0.75467711E-02 0.12152844E+00
       -3 -1    0    0    0  501 0.00000000E+00 0.00000000E+00 0.88783399E+02 0.88784807E+02 0.50000000E+00 0.0000E+00 0.9000E+01
        4 -1    0    0  501    0 0.00000000E+00 0.00000000E+00 -.20603937E+03 0.20604520E+03 0.15500000E+01 0.0000E+00 0.9000E+01
       25  1    1    2    0    0 -.68907994E+02 0.42227026E+02 -.10048120E+03 0.17959094E+03 0.12500000E+03 0.0000E+00 0.9000E+01
       24  1    1    2    0    0 0.68907994E+02 -.42227026E+02 -.16774764E+02 0.11523906E+03 0.80419002E+02 0.0000E+00 0.9000E+01
#aMCatNLO 1  0  0  2  1 0.13838842D+02 0.00000000D+00  -5  5  0 0.00000000D+00 0.00000000D+00 0.00000000D+00 0.00000000D+00 0.00000000D+00
  <mgrwgt>
 0.2393714382D-01    9    2    0
 0.135255100865614D+03 0.000000000000000D+00 0.000000000000000D+00 0.135255100865614D+03
 0.135255100865614D+03 0.000000000000000D+00 0.000000000000000D+00 -.135255100865614D+03
 0.152181974578733D+03 -.689079935708229D+02 0.422270260510150D+02 -.316689134580333D+02
 0.118328227152496D+03 0.689079935708229D+02 -.422270260510150D+02 0.316689134580333D+02
 0.000000000000000D+00 -.000000000000000D+00 -.000000000000000D+00 -.000000000000000D+00
 0.136853551478197D+03 0.000000000000000D+00 0.000000000000000D+00 0.136853551478197D+03
 0.169111836883921D+03 0.000000000000000D+00 0.000000000000000D+00 -.169111836883921D+03
 0.148858258697778D+03 -.612126768985848D+02 0.422358768090781D+02 -.316689134580333D+02
 0.122005697559204D+03 0.750515101287562D+02 -.422199600937546D+02 0.316689134580333D+02
 0.351014321051357D+02 -.138388332301714D+02 -.159167153234426D-01 -.322582854057237D+02
0.308733507848D-03 0.000000000000D+00 0.000000000000D+00 0.242849020484D-02 0.000000000000D+00  5 -3 4 25 24 21 0 0.13659541D-01 0.31698921D-01 0.17274107D+05 0.17274107D+05 0.17274107D+05 0.12408938D+01  1  2  2  2  5  2        4 0.249972690684D-01 0.100000000000D+01
-.171347073174D-04 0.000000000000D+00 -.118561796154D-05 0.242849020484D-02 0.000000000000D+00  5 -3 4 25 24 21 2 0.13659541D-01 0.31698921D-01 0.17274107D+05 0.17274107D+05 0.17274107D+05 0.12408938D+01  1  2  3  2  5  2        4 -.213626285846D-02 0.100000000000D+01
0.212978552963D-04 0.000000000000D+00 0.000000000000D+00 0.242849020484D-02 0.000000000000D+00  5 -3 4 25 24 21 2 0.13659541D-01 0.31698921D-01 0.17274107D+05 0.17274107D+05 0.17274107D+05 0.12408938D+01  1  2 15  2  5  2        4 0.265530168631D-02 0.100000000000D+01
0.243619431416D-02 0.000000000000D+00 0.000000000000D+00 0.242849020484D-02 0.000000000000D+00  5 -3 4 25 24 21 2 0.13659541D-01 0.39789154D-01 0.19197943D+05 0.19197943D+05 0.19197943D+05 0.12357878D+01  1  2 12  2  5  2        4 0.195865407687D+00 0.100000000000D+01
-.242093341357D-02 0.000000000000D+00 0.000000000000D+00 0.242849020484D-02 0.000000000000D+00  5 -3 4 25 24 21 2 0.13659541D-01 0.31698921D-01 0.17274107D+05 0.17274107D+05 0.17274107D+05 0.12408938D+01  1  2  4  2  5  2        4 -.301828915920D+00 0.100000000000D+01
-.290074600202D-02 0.000000000000D+00 -.237007809767D-03 0.242849020484D-02 0.000000000000D+00  5 -3 4 25 24 21 2 0.13659541D-01 0.39922467D-01 0.17274107D+05 0.17274107D+05 0.17274107D+05 0.12408938D+01  1  2  5  2  5  2        4 -.231529606539D+00 0.100000000000D+01
0.288450901595D-02 0.000000000000D+00 0.230839909398D-03 0.242849020484D-02 0.000000000000D+00  5 -3 4 25 24 21 2 0.13659541D-01 0.31698921D-01 0.17274107D+05 0.17274107D+05 0.17274107D+05 0.12408938D+01  1  2  6  2  5  2        4 0.359625020813D+00 0.100000000000D+01
0.768192874924D-04 0.000000000000D+00 0.000000000000D+00 0.242849020484D-02 0.000000000000D+00  5 -3 21 25 24 -4 2 0.13659541D-01 0.39789154D-01 0.19197943D+05 0.19197943D+05 0.19197943D+05 0.12357878D+01  1  2 12  4  5  2        4 0.151055442490D+00 0.100000000000D+01
-.889967048460D-04 0.000000000000D+00 -.755559129470D-05 0.242849020484D-02 0.000000000000D+00  5 -3 21 25 24 -4 2 0.13659541D-01 0.39922467D-01 0.17274107D+05 0.17274107D+05 0.17274107D+05 0.12408938D+01  1  2  5  4  5  2        4 -.174766512612D+00 0.100000000000D+01
  </mgrwgt>
  </event>
  <event>
  4     66 0.45252658E-03 0.37232596E+02 0.75467711E-02 0.12239068E+00
       -1 -1    0    0    0  501 0.00000000E+00 0.00000000E+00 0.36416598E+02 0.36418004E+02 0.32000000E+00 0.0000E+00 0.9000E+01
        2 -1    0    0  501    0 0.00000000E+00 0.00000000E+00 -.37181019E+03 0.37181033E+03 0.32000000E+00 0.0000E+00 0.9000E+01
       25  1    1    2    0    0 0.24682711E+02 0.47216471E+02 -.20751967E+03 0.24804847E+03 0.12500000E+03 0.0000E+00 0.9000E+01
       24  1    1    2    0    0 -.24682711E+02 -.47216471E+02 -.12787392E+03 0.16017986E+03 0.80419002E+02 0.0000E+00 0.9000E+01
#aMCatNLO 1  0  0  1  2 0.30499219D+02 0.00000000D+00  -5  5  0 0.00000000D+00 0.00000000D+00 0.00000000D+00 0.00000000D+00 0.00000000D+00
  <mgrwgt>
 0.3685849862D+00    6    2    0
 0.116363127017722D+03 0.000000000000000D+00 0.000000000000000D+00 0.116363127017722D+03
 0.116363127017722D+03 0.000000000000000D+00 0.000000000000000D+00 -.116363127017722D+03
 0.136038139799552D+03 0.246827107420223D+02 0.472164712907107D+02 -.653789793447489D+01
 0.966881142358925D+02 -.246827107420223D+02 -.472164712907107D+02 0.653789793447489D+01
 0.000000000000000D+00 0.000000000000000D+00 -.000000000000000D+00 -.000000000000000D+00
 0.132562848574082D+03 0.000000000000000D+00 0.000000000000000D+00 0.132562848574082D+03
 0.132652739229527D+03 0.000000000000000D+00 0.000000000000000D+00 -.132652739229527D+03
 0.135223966469320D+03 0.731758658272626D+01 0.506382259256634D+02 -.653789793447489D+01
 0.994922700123124D+02 -.372414008478634D+02 -.447418125618475D+02 0.653789793447489D+01
 0.304993513219764D+02 0.299238142651371D+02 -.589641336381590D+01 -.898906554444372D-01
0.216172296783D-03 0.000000000000D+00 0.000000000000D+00 0.284924521828D-02 0.000000000000D+00  5 -1 2 25 24 21 0 0.56026723D-02 0.57201686D-01 0.13496371D+05 0.13496371D+05 0.13496371D+05 0.12530864D+01  1  2  2  1  5  1       -1 0.293877008824D+00 0.100000000000D+01
-.120095333596D-04 0.000000000000D+00 -.830158539121D-06 0.284924521828D-02 0.000000000000D+00  5 -1 2 25 24 21 2 0.56026723D-02 0.57201686D-01 0.13496371D+05 0.13496371D+05 0.13496371D+05 0.12530864D+01  1  2  3  1  5  1       -1 -.256362055728D-01 0.100000000000D+01
0.149344052412D-04 0.000000000000D+00 0.000000000000D+00 0.284924521828D-02 0.000000000000D+00  5 -1 2 25 24 21 2 0.56026723D-02 0.57201686D-01 0.13496371D+05 0.13496371D+05 0.13496371D+05 0.12530864D+01  1  2 15  1  5  1       -1 0.318797967755D-01 0.100000000000D+01
0.130479156837D-03 0.000000000000D+00 0.000000000000D+00 0.284924521828D-02 0.000000000000D+00  5 -1 2 25 24 21 2 0.67233768D-02 0.57201686D-01 0.17535357D+05 0.17535357D+05 0.17535357D+05 0.12401639D+01  1  2 12  1  5  1       -1 0.210146446378D+00 0.100000000000D+01
-.109556894829D-03 0.000000000000D+00 0.000000000000D+00 0.284924521828D-02 0.000000000000D+00  5 -1 2 25 24 21 2 0.56026723D-02 0.57201686D-01 0.13496371D+05 0.13496371D+05 0.13496371D+05 0.12530864D+01  1  2  4  1  5  1       -1 -.233866128988D+00 0.100000000000D+01
0.347625547472D-05 0.000000000000D+00 0.000000000000D+00 0.284924521828D-02 0.000000000000D+00  5 21 2 25 24 1 2 0.67233768D-02 0.57201686D-01 0.17535357D+05 0.17535357D+05 0.17535357D+05 0.12401639D+01  1  2 12  3  5  1       -1 0.921840687822D-01 0.100000000000D+01
  </mgrwgt>
  </event>
  <event>
  4     66 0.45252658E-03 0.42437981E+02 0.75467711E-02 0.11977184E+00
       -1 -1    0    0    0  501 0.00000000E+00 0.00000000E+00 0.11096864E+02 0.11101477E+02 0.32000000E+00 0.0000E+00 0.9000E+01
        2 -1    0    0  501    0 0.00000000E+00 0.00000000E+00 -.18424927E+04 0.18424928E+04 0.32000000E+00 0.0000E+00 0.9000E+01
       25  1    1    2    0    0 0.97775199E+02 0.94517154E+01 -.99665102E+03 0.10092510E+04 0.12500000E+03 0.0000E+00 0.9000E+01
       24  1    1    2    0    0 -.97775199E+02 -.94517154E+01 -.83474485E+03 0.84434324E+03 0.80419002E+02 0.0000E+00 0.9000E+01
#aMCatNLO 1  0  0  2  1 0.18029385D+02 0.00000000D+00  -5  5  0 0.00000000D+00 0.00000000D+00 0.00000000D+00 0.00000000D+00 0.00000000D+00
  <mgrwgt>
 0.8149336099D+00    9    2    0
 0.143004168031891D+03 0.000000000000000D+00 0.000000000000000D+00 0.143004168031891D+03
 0.143004168031891D+03 0.000000000000000D+00 0.000000000000000D+00 -.143004168031891D+03
 0.159013813365422D+03 0.977751992303174D+02 0.945171544603579D+01 0.332691022005578D+01
 0.126994522698359D+03 -.977751992303174D+02 -.945171544603579D+01 -.332691022005578D+01
 0.000000000000000D+00 0.000000000000000D+00 0.000000000000000D+00 -.000000000000000D+00
 0.149388088729499D+03 0.000000000000000D+00 0.000000000000000D+00 0.149388088729499D+03
 0.156609950255039D+03 0.000000000000000D+00 0.000000000000000D+00 -.156609950255039D+03
 0.154177975654949D+03 0.901356791346339D+02 0.321546145740283D+01 0.332691022005578D+01
 0.132398064927657D+03 -.104102424129918D+03 -.146167233291107D+02 -.332691022005578D+01
 0.194219984019317D+02 0.139667449952846D+02 0.114012618717079D+02 -.722186152553968D+01
0.365405785256D-03 0.000000000000D+00 0.000000000000D+00 0.246965127224D-02 0.000000000000D+00  5 -1 2 25 24 21 0 0.17075668D-02 0.28346078D+00 0.20438983D+05 0.20438983D+05 0.20438983D+05 0.12327893D+01  1  2  2  2  5  2        2 0.317912085805D+00 0.100000000000D+01
-.203003195483D-04 0.000000000000D+00 -.140325442894D-05 0.246965127224D-02 0.000000000000D+00  5 -1 2 25 24 21 2 0.17075668D-02 0.28346078D+00 0.20438983D+05 0.20438983D+05 0.20438983D+05 0.12327893D+01  1  2  3  2  5  2        2 -.268418357640D-01 0.100000000000D+01
0.252475114022D-04 0.000000000000D+00 0.000000000000D+00 0.246965127224D-02 0.000000000000D+00  5 -1 2 25 24 21 2 0.17075668D-02 0.28346078D+00 0.20438983D+05 0.20438983D+05 0.20438983D+05 0.12327893D+01  1  2 15  2  5  2        2 0.333831964022D-01 0.100000000000D+01
0.717217800684D-03 0.000000000000D+00 0.000000000000D+00 0.246965127224D-02 0.000000000000D+00  5 -1 2 25 24 21 2 0.17075668D-02 0.31630019D+00 0.23184283D+05 0.23184283D+05 0.23184283D+05 0.12268241D+01  1  2 12  2  5  2        2 0.730875428809D+00 0.100000000000D+01
-.680923360410D-03 0.000000000000D+00 0.000000000000D+00 0.246965127224D-02 0.000000000000D+00  5 -1 2 25 24 21 2 0.17075668D-02 0.28346078D+00 0.20438983D+05 0.20438983D+05 0.20438983D+05 0.12327893D+01  1  2  4  2  5  2        2 -.900342133261D+00 0.100000000000D+01
-.209836102989D-02 0.000000000000D+00 -.400132611644D-03 0.246965127224D-02 0.000000000000D+00  5 -1 2 25 24 21 2 0.17075668D-02 0.31661621D+00 0.20438983D+05 0.20438983D+05 0.20438983D+05 0.12327893D+01  1  2  5  2  5  2        2 -.215148642799D+01 0.100000000000D+01
0.213200101188D-02 0.000000000000D+00 0.397697013701D-03 0.246965127224D-02 0.000000000000D+00  5 -1 2 25 24 21 2 0.17075668D-02 0.28346078D+00 0.20438983D+05 0.20438983D+05 0.20438983D+05 0.12327893D+01  1  2  6  2  5  2        2 0.281901084727D+01 0.100000000000D+01
0.126045660087D-04 0.000000000000D+00 0.000000000000D+00 0.246965127224D-02 0.000000000000D+00  5 -1 21 25 24 -2 2 0.17075668D-02 0.31630019D+00 0.23184283D+05 0.23184283D+05 0.23184283D+05 0.12268241D+01  1  2 12  4  5  2        2 0.406772945129D-02 0.100000000000D+01
-.355708845563D-04 0.000000000000D+00 -.708657452884D-05 0.246965127224D-02 0.000000000000D+00  5 -1 21 25 24 -2 2 0.17075668D-02 0.31661621D+00 0.20438983D+05 0.20438983D+05 0.20438983D+05 0.12327893D+01  1  2  5  4  5  2        2 -.116452808005D-01 0.100000000000D+01
  </mgrwgt>
  </event>
  <event>
  4     66 0.45252658E-03 0.10476763E+03 0.75467711E-02 0.11053656E+00
       -1 -1    0    0    0  501 0.00000000E+00 0.00000000E+00 0.68904940E+01 0.68979205E+01 0.32000000E+00 0.0000E+00 0.9000E+01
        2 -1    0    0  501    0 0.00000000E+00 0.00000000E+00 -.21329482E+04 0.21329482E+04 0.32000000E+00 0.0000E+00 0.9000E+01
       25  1    1    2    0    0 -.20247455E+01 -.20089410E+02 -.69858394E+03 0.70996634E+03 0.12500000E+03 0.0000E+00 0.9000E+01
       24  1    1    2    0    0 0.20247455E+01 0.20089410E+02 -.14274738E+04 0.14298798E+04 0.80419002E+02 0.0000E+00 0.9000E+01
#aMCatNLO 1  0  0  2  2 0.22141600D+03 0.00000000D+00  -5  5  0 0.00000000D+00 0.00000000D+00 0.00000000D+00 0.00000000D+00 0.00000000D+00
  <mgrwgt>
 0.6809527471D+00    3    2    0
 0.121264331474397D+03 0.000000000000000D+00 0.000000000000000D+00 0.121264331474397D+03
 0.121264331474397D+03 0.000000000000000D+00 0.000000000000000D+00 -.121264331474397D+03
 0.140144128885317D+03 -.202474554314405D+01 -.200894101068840D+02 0.600640730226265D+02
 0.102384534063476D+03 0.202474554314405D+01 0.200894101068840D+02 -.600640730226265D+02
 0.000000000000000D+00 -.000000000000000D+00 0.000000000000000D+00 0.000000000000000D+00
 0.973819080179205D+03 0.000000000000000D+00 0.000000000000000D+00 0.973819080179205D+03
 0.179337248254952D+03 0.000000000000000D+00 0.000000000000000D+00 -.179337248254952D+03
 0.196202306541932D+03 0.115014600685462D+03 -.776807173851436D+02 0.600640730226265D+02
 0.132195617584364D+03 0.836522126283687D+02 -.200768475725543D+02 -.600640730226265D+02
 0.824758404307861D+03 -.198666813313831D+03 0.977575649576979D+02 0.794481831924253D+03
0.550972588771D-03 0.000000000000D+00 0.000000000000D+00 0.217232852310D-02 0.000000000000D+00  5 -1 2 25 24 21 0 0.10606491D-02 0.32814645D+00 0.10976255D+05 0.10976255D+05 0.10976255D+05 0.12635884D+01  1  2  2  2  5  2        2 0.665892217222D+00 0.100000000000D+01
-.298137963304D-04 0.000000000000D+00 -.211587981529D-05 0.217232852310D-02 0.000000000000D+00  5 -1 2 25 24 21 2 0.10606491D-02 0.32814645D+00 0.10976255D+05 0.10976255D+05 0.10976255D+05 0.12635884D+01  1  2  3  2  5  2        2 -.575310711439D-01 0.100000000000D+01
0.376184758271D-04 0.000000000000D+00 0.000000000000D+00 0.217232852310D-02 0.000000000000D+00  5 -1 2 25 24 21 2 0.10606491D-02 0.32814645D+00 0.10976255D+05 0.10976255D+05 0.10976255D+05 0.12635884D+01  1  2 15  2  5  2        2 0.725916010542D-01 0.100000000000D+01
  </mgrwgt>
  </event>
  <event>
  4     66 0.45252658E-03 0.59495413E+02 0.75467711E-02 0.12180055E+00
       -3 -1    0    0    0  501 0.00000000E+00 0.00000000E+00 0.17861415E+02 0.17868412E+02 0.50000000E+00 0.0000E+00 0.9000E+01
        4 -1    0    0  501    0 0.00000000E+00 0.00000000E+00 -.96086218E+03 0.96086343E+03 0.15500000E+01 0.0000E+00 0.9000E+01
       25  1    1    2    0    0 -.59890937E+02 0.97983963E+01 -.33877717E+03 0.36616650E+03 0.12500000E+03 0.0000E+00 0.9000E+01
       24  1    1    2    0    0 0.59890937E+02 -.97983963E+01 -.60422360E+03 0.61256535E+03 0.80419002E+02 0.0000E+00 0.9000E+01
#aMCatNLO 1  0  0  2  1 0.31303506D+02 0.00000000D+00  -5  5  0 0.00000000D+00 0.00000000D+00 0.00000000D+00 0.00000000D+00 0.00000000D+00
  <mgrwgt>
 0.1347943492D-01    9    2    0
 0.131020586218754D+03 0.000000000000000D+00 0.000000000000000D+00 0.131020586218754D+03
 0.131020586218754D+03 0.000000000000000D+00 0.000000000000000D+00 -.131020586218754D+03
 0.148494527356408D+03 -.598909371313877D+02 0.979839633100562D+01 0.523707144658885D+02
 0.113546645081101D+03 0.598909371313877D+02 -.979839633100562D+01 -.523707144658885D+02
 0.000000000000000D+00 -.000000000000000D+00 -.000000000000000D+00 -.000000000000000D+00
 0.136597250717000D+03 0.000000000000000D+00 0.000000000000000D+00 0.136597250717000D+03
 0.184691092556605D+03 0.000000000000000D+00 0.000000000000000D+00 -.184691092556605D+03
 0.147299740190398D+03 -.517952159085620D+02 0.254318173844603D+02 0.523707144658885D+02
 0.116604571159949D+03 0.661900452961089D+02 0.236563544453131D+01 -.523707144658885D+02
 0.573840319232582D+02 -.143948293875470D+02 -.277974528289916D+02 -.480938418396048D+02
0.265772311303D-03 0.000000000000D+00 0.000000000000D+00 0.223769735313D-02 0.000000000000D+00  5 -3 4 25 24 21 0 0.27485444D-02 0.14782559D+00 0.14364135D+05 0.14364135D+05 0.14364135D+05 0.12499728D+01  1  2  2  2  5  2        4 0.984824024826D-02 0.100000000000D+01
-.146225782616D-04 0.000000000000D+00 -.102063565486D-05 0.223769735313D-02 0.000000000000D+00  5 -3 4 25 24 21 2 0.27485444D-02 0.14782559D+00 0.14364135D+05 0.14364135D+05 0.14364135D+05 0.12499728D+01  1  2  3  2  5  2        4 -.846591672981D-03 0.100000000000D+01
0.183167028102D-04 0.000000000000D+00 0.000000000000D+00 0.223769735313D-02 0.000000000000D+00  5 -3 4 25 24 21 2 0.27485444D-02 0.14782559D+00 0.14364135D+05 0.14364135D+05 0.14364135D+05 0.12499728D+01  1  2 15  2  5  2        4 0.106046743592D-02 0.100000000000D+01
0.587996678931D-03 0.000000000000D+00 0.000000000000D+00 0.223769735313D-02 0.000000000000D+00  5 -3 4 25 24 21 2 0.27485444D-02 0.21053903D+00 0.18654253D+05 0.18654253D+05 0.18654253D+05 0.12371705D+01  1  2 12  2  5  2        4 0.130527778908D-01 0.100000000000D+01
-.600884647551D-03 0.000000000000D+00 0.000000000000D+00 0.223769735313D-02 0.000000000000D+00  5 -3 4 25 24 21 2 0.27485444D-02 0.14782559D+00 0.14364135D+05 0.14364135D+05 0.14364135D+05 0.12499728D+01  1  2  4  2  5  2        4 -.347889359824D-01 0.100000000000D+01
-.734690682926D-03 0.000000000000D+00 -.126796261659D-03 0.223769735313D-02 0.000000000000D+00  5 -3 4 25 24 21 2 0.27485444D-02 0.21202540D+00 0.14364135D+05 0.14364135D+05 0.14364135D+05 0.12499728D+01  1  2  5  2  5  2        4 -.160353180009D-01 0.100000000000D+01
0.739615092192D-03 0.000000000000D+00 0.118973666369D-03 0.223769735313D-02 0.000000000000D+00  5 -3 4 25 24 21 2 0.27485444D-02 0.14782559D+00 0.14364135D+05 0.14364135D+05 0.14364135D+05 0.12499728D+01  1  2  6  2  5  2        4 0.428209011476D-01 0.100000000000D+01
0.255909803188D-04 0.000000000000D+00 0.000000000000D+00 0.223769735313D-02 0.000000000000D+00  5 -3 21 25 24 -4 2 0.27485444D-02 0.21053903D+00 0.18654253D+05 0.18654253D+05 0.18654253D+05 0.12371705D+01  1  2 12  4  5  2        4 0.131103132613D-01 0.100000000000D+01
-.286886545495D-04 0.000000000000D+00 -.559757156601D-05 0.223769735313D-02 0.000000000000D+00  5 -3 21 25 24 -4 2 0.27485444D-02 0.21202540D+00 0.14364135D+05 0.14364135D+05 0.14364135D+05 0.12499728D+01  1  2  5  4  5  2        4 -.147424194111D-01 0.100000000000D+01
  </mgrwgt>
  </event>
  <event>
  5     66 -.45252658E-03 0.11533981E+03 0.75467711E-02 0.12233224E+00
       -1 -1    0    0    0  502 0.00000000E+00 0.00000000E+00 0.12277010E+03 0.12277052E+03 0.32000000E+00 0.0000E+00 0.9000E+01
        2 -1    0    0  501    0 0.00000000E+00 0.00000000E+00 -.15652175E+03 0.15652208E+03 0.32000000E+00 0.0000E+00 0.9000E+01
       25  1    1    2    0    0 -.19463309E+02 0.36135459E+02 -.52900310E+02 0.14180280E+03 0.12500000E+03 0.0000E+00 0.9000E+01
       24  1    1    2    0    0 -.29684540E+00 -.61993915E+02 0.24613512E+02 0.10448146E+03 0.80419002E+02 0.0000E+00 0.9000E+01
       21  1    1    2  501  502 0.19760155E+02 0.25858456E+02 -.54648491E+01 0.33008340E+02 0.75000000E+00 0.0000E+00 0.9000E+01
#aMCatNLO 2  0  0  1  2 0.32544177D+02 0.00000000D+00  -5  5  0 0.00000000D+00 0.00000000D+00 0.00000000D+00 0.00000000D+00 0.00000000D+00
  <mgrwgt>
 -.4355798668D-01    2    2    0
 0.121240122205192D+03 0.000000000000000D+00 0.000000000000000D+00 0.121240122205192D+03
 0.121240122205192D+03 0.000000000000000D+00 0.000000000000000D+00 -.121240122205192D+03
 0.140123689540539D+03 -.823701245475087D+01 0.508263714109945D+02 -.368575632057414D+02
 0.102356554869846D+03 0.823701245475087D+01 -.508263714109945D+02 0.368575632057414D+02
 0.000000000000000D+00 0.000000000000000D+00 0.000000000000000D+00 -.000000000000000D+00
 0.137778697671159D+03 0.000000000000000D+00 0.000000000000000D+00 0.137778697671159D+03
 0.139463495330576D+03 0.000000000000000D+00 0.000000000000000D+00 -.139463495330576D+03
 0.136631152267308D+03 -.194633091874192D+02 0.361354590382092D+02 -.368575632057414D+02
 0.108023282358610D+03 -.296845395284194D+00 -.619939149796449D+02 0.368575632057414D+02
 0.325877583758178D+02 0.197601545827034D+02 0.258584559414357D+02 -.168479765941735D+01
-.230514761578D-03 0.000000000000D+00 0.000000000000D+00 0.253887082589D-02 0.000000000000D+00  5 -1 2 25 24 21 2 0.19970480D-01 0.20933154D-01 0.17642610D+05 0.17642610D+05 0.17642610D+05 0.12398679D+01  1  2 13  1  5  1       -1 -.204723462130D+00 0.100000000000D+01
0.194025152335D-03 0.000000000000D+00 0.000000000000D+00 0.253887082589D-02 0.200062241136D-04  5 -1 2 25 24 21 2 0.18887177D-01 0.24079577D-01 0.17642610D+05 0.17642610D+05 0.17642610D+05 0.12398679D+01  1  2  1  1  5  1       -1 0.161165475445D+00 0.100000000000D+01
  </mgrwgt>
  </event>
  <event>
  4     66 0.45252658E-03 0.22439347E+03 0.75467711E-02 0.10666870E+00
       -1 -1    0    0    0  501 0.00000000E+00 0.00000000E+00 0.72386020E+02 0.72386727E+02 0.32000000E+00 0.0000E+00 0.9000E+01
        2 -1    0    0  501    0 0.00000000E+00 0.00000000E+00 -.73729230E+03 0.73729237E+03 0.32000000E+00 0.0000E+00 0.9000E+01
       25  1    1    2    0    0 0.62284187E+01 -.19842285E+03 -.44288399E+03 0.50118026E+03 0.12500000E+03 0.0000E+00 0.9000E+01
       24  1    1    2    0    0 -.62284187E+01 0.19842285E+03 -.22202229E+03 0.30849884E+03 0.80419002E+02 0.0000E+00 0.9000E+01
#aMCatNLO 1  0  0  2  2 0.19232250D+03 0.00000000D+00  -5  5  0 0.00000000D+00 0.00000000D+00 0.00000000D+00 0.00000000D+00 0.00000000D+00
  <mgrwgt>
 0.4882987836D+00    3    2    0
 0.231019413669433D+03 0.000000000000000D+00 0.000000000000000D+00 0.231019413669433D+03
 0.231019413669433D+03 0.000000000000000D+00 0.000000000000000D+00 -.231019413669433D+03
 0.240929602493145D+03 0.622841870481526D+01 -.198422850751629D+03 -.548785245568714D+02
 0.221109224845721D+03 -.622841870481526D+01 0.198422850751629D+03 0.548785245568714D+02
 0.000000000000000D+00 -.000000000000000D+00 0.000000000000000D+00 0.000000000000000D+00
 0.613297517744212D+03 0.000000000000000D+00 0.000000000000000D+00 0.613297517744212D+03
 0.275703120008933D+03 0.000000000000000D+00 0.000000000000000D+00 -.275703120008933D+03
 0.271548485771572D+03 0.108147366958691D+03 -.208341245765684D+03 -.548785245568714D+02
 0.228919116119515D+03 0.832708520853173D+02 0.189713095241249D+03 0.548785245568714D+02
 0.388533035862057D+03 -.191418219044009D+03 0.186281505244343D+02 0.337594397735279D+03
0.208742298905D-02 0.000000000000D+00 0.000000000000D+00 0.197832606096D-02 0.000000000000D+00  5 -1 2 25 24 21 0 0.11136370D-01 0.11342964D+00 0.50352431D+05 0.50352431D+05 0.50352431D+05 0.11919798D+01  1  2  2  2  5  2        2 0.479422770566D+00 0.100000000000D+01
-.115848538150D-03 0.000000000000D+00 -.801625390905D-05 0.197832606096D-02 0.000000000000D+00  5 -1 2 25 24 21 2 0.11136370D-01 0.11342964D+00 0.50352431D+05 0.50352431D+05 0.50352431D+05 0.11919798D+01  1  2  3  2  5  2        2 -.378038929908D-01 0.100000000000D+01
0.143048729782D-03 0.000000000000D+00 0.000000000000D+00 0.197832606096D-02 0.000000000000D+00  5 -1 2 25 24 21 2 0.11136370D-01 0.11342964D+00 0.50352431D+05 0.50352431D+05 0.50352431D+05 0.11919798D+01  1  2 15  2  5  2        2 0.466799060179D-01 0.100000000000D+01
  </mgrwgt>
  </event>
  <event>
  5     66 0.45252658E-03 0.10693884E+03 0.75467711E-02 0.12581142E+00
       -1 -1    0    0    0  502 0.00000000E+00 0.00000000E+00 0.19689644E+02 0.19692244E+02 0.32000000E+00 0.0000E+00 0.9000E+01
        2 -1    0    0  501    0 0.00000000E+00 0.00000000E+00 -.11363460E+04 0.11363461E+04 0.32000000E+00 0.0000E+00 0.9000E+01
       25  1    1    2    0    0 -.15338747E+02 -.20502909E+02 -.93510932E+03 0.94377439E+03 0.12500000E+03 0.0000E+00 0.9000E+01
       24  1    1    2    0    0 0.14163877E+02 0.28884094E+02 -.10901064E+03 0.13923161E+03 0.80419002E+02 0.0000E+00 0.9000E+01
       21  1    1    2  501  502 0.11748696E+01 -.83811852E+01 -.72536448E+02 0.73032345E+02 0.75000000E+00 0.0000E+00 0.9000E+01
#aMCatNLO 2  0  0  1  2 0.84631308D+01 0.00000000D+00  -5  5  0 0.00000000D+00 0.00000000D+00 0.00000000D+00 0.00000000D+00 0.00000000D+00
  <mgrwgt>
 0.1881303724D+00    2    2    0
 0.143739237413122D+03 0.000000000000000D+00 0.000000000000000D+00 0.143739237413122D+03
 0.143739237413122D+03 0.000000000000000D+00 0.000000000000000D+00 -.143739237413122D+03
 0.159667010877143D+03 -.146875937445732D+02 -.251480512599125D+02 -.949758099216057D+02
 0.127811463949101D+03 0.146875937445732D+02 0.251480512599125D+02 0.949758099216057D+02
 0.000000000000000D+00 0.000000000000000D+00 -.000000000000000D+00 -.000000000000000D+00
 0.145623394056218D+03 0.000000000000000D+00 0.000000000000000D+00 0.145623394056218D+03
 0.153629882696918D+03 0.000000000000000D+00 0.000000000000000D+00 -.153629882696918D+03
 0.159063040634034D+03 -.153387471209939D+02 -.205029086287169D+02 -.949758099216057D+02
 0.128539981032386D+03 0.141638774895211D+02 0.288840937824367D+02 0.949758099216057D+02
 0.116502550867159D+02 0.117486963147276D+01 -.838118515371984D+01 -.800648864070008D+01
-.128432237615D-04 0.000000000000D+00 0.000000000000D+00 0.148921165398D-02 0.000000000000D+00  5 -1 2 25 24 21 2 0.29899382D-02 0.16355422D+00 0.11435916D+05 0.11435916D+05 0.11435916D+05 0.12614822D+01  1  2  8  1  5  1       -1 -.202105741410D-01 0.100000000000D+01
0.149069290077D-03 0.000000000000D+00 0.000000000000D+00 0.148921165398D-02 0.175726621990D-03  5 -1 2 25 24 21 2 0.30291308D-02 0.17480832D+00 0.12395879D+05 0.12395879D+05 0.12395879D+05 0.12573754D+01  1  2  1  1  5  1       -1 0.208340946520D+00 0.100000000000D+01
  </mgrwgt>
  </event>
  <event>
  4     66 0.45252658E-03 0.11192583E+03 0.75467711E-02 0.11263735E+00
       -1 -1    0    0    0  501 0.00000000E+00 0.00000000E+00 0.21810101E+02 0.21812448E+02 0.32000000E+00 0.0000E+00 0.9000E+01
        2 -1    0    0  501    0 0.00000000E+00 0.00000000E+00 -.57928468E+03 0.57928477E+03 0.32000000E+00 0.0000E+00 0.9000E+01
       25  1    1    2    0    0 -.24350605E+02 -.36148858E+02 -.30197225E+03 0.32971492E+03 0.12500000E+03 0.0000E+00 0.9000E+01
       24  1    1    2    0    0 0.24350605E+02 0.36148858E+02 -.25550233E+03 0.27138229E+03 0.80419002E+02 0.0000E+00 0.9000E+01
#aMCatNLO 1  0  0  1  1 0.17608328D+03 0.00000000D+00  -5  5  0 0.00000000D+00 0.00000000D+00 0.00000000D+00 0.00000000D+00 0.00000000D+00
  <mgrwgt>
 0.4422189054D+00    3    2    0
 0.112405467828938D+03 0.000000000000000D+00 0.000000000000000D+00 0.112405467828938D+03
 0.112405467828938D+03 0.000000000000000D+00 0.000000000000000D+00 -.112405467828938D+03
 0.132773213772503D+03 -.243506050340470D+02 -.361488575219156D+02 0.101997269480518D+02
 0.920377218853729D+02 0.243506050340470D+02 0.361488575219156D+02 -.101997269480518D+02
 0.000000000000000D+00 0.000000000000000D+00 0.000000000000000D+00 -.000000000000000D+00
 0.174236462113353D+03 0.000000000000000D+00 0.000000000000000D+00 0.174236462113353D+03
 0.389200464851184D+03 0.000000000000000D+00 0.000000000000000D+00 -.389200464851184D+03
 0.202743830949582D+03 -.939623274829224D+02 -.128635561071929D+03 0.101997269480518D+02
 0.828175066070120D+02 -.119276521395308D+02 -.120507315485606D+02 -.101997269480518D+02
 0.277875589407943D+03 0.105889979622453D+03 0.140686292620489D+03 -.214964002737831D+03
0.243569152791D-03 0.000000000000D+00 0.000000000000D+00 0.292827339111D-02 0.000000000000D+00  5 -1 2 25 24 21 0 0.33555875D-02 0.89120907D-01 0.12527392D+05 0.12527392D+05 0.12527392D+05 0.12568408D+01  1  2  2  1  5  1       -1 0.433050748480D+00 0.100000000000D+01
-.135313187581D-04 0.000000000000D+00 -.935369679949D-06 0.292827339111D-02 0.000000000000D+00  5 -1 2 25 24 21 2 0.33555875D-02 0.89120907D-01 0.12527392D+05 0.12527392D+05 0.12527392D+05 0.12568408D+01  1  2  3  1  5  1       -1 -.380029367316D-01 0.100000000000D+01
0.167957310497D-04 0.000000000000D+00 0.000000000000D+00 0.292827339111D-02 0.000000000000D+00  5 -1 2 25 24 21 2 0.33555875D-02 0.89120907D-01 0.12527392D+05 0.12527392D+05 0.12527392D+05 0.12568408D+01  1  2 15  1  5  1       -1 0.471710936573D-01 0.100000000000D+01
  </mgrwgt>
  </event>
  <event>
  4     66 0.45252658E-03 0.12604517E+03 0.75467711E-02 0.12213253E+00
       -1 -1    0    0    0  501 0.00000000E+00 0.00000000E+00 0.12859949E+03 0.12859989E+03 0.32000000E+00 0.0000E+00 0.9000E+01
        2 -1    0    0  501    0 0.00000000E+00 0.00000000E+00 -.12364667E+03 0.12364708E+03 0.32000000E+00 0.0000E+00 0.9000E+01
       25  1    1    2    0    0 0.15418378E+02 0.70238660E+02 0.64853729E+01 0.14435462E+03 0.12500000E+03 0.0000E+00 0.9000E+01
       24  1    1    2    0    0 -.15418378E+02 -.70238660E+02 -.15325484E+01 0.10789236E+03 0.80419002E+02 0.0000E+00 0.9000E+01
#aMCatNLO 1  0  0  2  1 0.15852541D+02 0.00000000D+00  -5  5  0 0.00000000D+00 0.00000000D+00 0.00000000D+00 0.00000000D+00 0.00000000D+00
  <mgrwgt>
 0.2510663560D+00    4    2    0
 0.126099172662854D+03 0.000000000000000D+00 0.000000000000000D+00 0.126099172662854D+03
 0.126099172662854D+03 0.000000000000000D+00 0.000000000000000D+00 -.126099172662854D+03
 0.144255088860089D+03 0.154183784125264D+02 0.702386600038281D+02 0.365169960796847D+01
 0.107943256465620D+03 -.154183784125264D+02 -.702386600038281D+02 -.365169960796847D+01
 0.000000000000000D+00 -.000000000000000D+00 -.000000000000000D+00 0.000000000000000D+00
 0.157310351672045D+03 0.000000000000000D+00 0.000000000000000D+00 0.157310351672045D+03
 0.128377144134979D+03 0.000000000000000D+00 0.000000000000000D+00 -.128377144134979D+03
 0.149057148796610D+03 0.177072713263621D+02 0.791590250036124D+02 0.365169960796847D+01
 0.103638930426716D+03 -.137672745508506D+02 -.638039120041852D+02 -.365169960796847D+01
 0.329914165836983D+02 -.393999677551141D+01 -.153551129994271D+02 0.289332075370655D+02
0.462247630114D-03 0.000000000000D+00 0.000000000000D+00 0.267623234375D-02 0.000000000000D+00  5 -1 2 25 24 21 0 0.19784600D-01 0.19022627D-01 0.15887384D+05 0.15887384D+05 0.15887384D+05 0.12449869D+01  1  2  2  2  5  2        2 0.300956903733D+00 0.100000000000D+01
-.256804181655D-04 0.000000000000D+00 -.177515261224D-05 0.267623234375D-02 0.000000000000D+00  5 -1 2 25 24 21 2 0.19784600D-01 0.19022627D-01 0.15887384D+05 0.15887384D+05 0.15887384D+05 0.12449869D+01  1  2  3  2  5  2        2 -.259156019531D-01 0.100000000000D+01
0.318924746535D-04 0.000000000000D+00 0.000000000000D+00 0.267623234375D-02 0.000000000000D+00  5 -1 2 25 24 21 2 0.19784600D-01 0.19022627D-01 0.15887384D+05 0.15887384D+05 0.15887384D+05 0.12449869D+01  1  2 15  2  5  2        2 0.321845490637D-01 0.100000000000D+01
-.556498480724D-04 0.000000000000D+00 0.000000000000D+00 0.267623234375D-02 0.000000000000D+00  5 -1 2 25 24 21 2 0.19784600D-01 0.19022627D-01 0.15887384D+05 0.15887384D+05 0.15887384D+05 0.12449869D+01  1  2  4  2  5  2        2 -.561594948378D-01 0.100000000000D+01
  </mgrwgt>
  </event>
  <event>
  4     66 0.45252658E-03 0.46041843E+03 0.75467711E-02 0.10166301E+00
       -1 -1    0    0    0  501 0.00000000E+00 0.00000000E+00 0.99491362E+02 0.99491876E+02 0.32000000E+00 0.0000E+00 0.9000E+01
        2 -1    0    0  501    0 0.00000000E+00 0.00000000E+00 -.23020768E+04 0.23020768E+04 0.32000000E+00 0.0000E+00 0.9000E+01
       25  1    1    2    0    0 -.43399712E+03 -.11229536E+03 -.14399280E+04 0.15132685E+04 0.12500000E+03 0.0000E+00 0.9000E+01
       24  1    1    2    0    0 0.43399712E+03 0.11229536E+03 -.76265744E+03 0.88830026E+03 0.80419002E+02 0.0000E+00 0.9000E+01
#aMCatNLO 1  0  0  1  1 0.55914633D+02 0.00000000D+00  -5  5  0 0.00000000D+00 0.00000000D+00 0.00000000D+00 0.00000000D+00 0.00000000D+00
  <mgrwgt>
 0.3393085570D+00    3    2    0
 0.478578522455531D+03 0.000000000000000D+00 0.000000000000000D+00 0.478578522455531D+03
 0.478578522455531D+03 0.000000000000000D+00 0.000000000000000D+00 -.478578522455531D+03
 0.483362368583143D+03 -.433997124152266D+03 -.112295363890589D+03 -.130577283011056D+03
 0.473794676327918D+03 0.433997124152266D+03 0.112295363890589D+03 0.130577283011056D+03
 0.000000000000000D+00 -.000000000000000D+00 0.000000000000000D+00 -.000000000000000D+00
 0.480571830468502D+03 0.000000000000000D+00 0.000000000000000D+00 0.480571830468502D+03
 0.114323612269075D+04 0.000000000000000D+00 0.000000000000000D+00 -.114323612269075D+04
 0.478040671607651D+03 -.420790544266405D+03 -.137050263511338D+03 -.130577283011056D+03
 0.480748176273526D+03 0.447109467165927D+03 0.877171053330096D+02 0.130577283011056D+03
 0.665019105278073D+03 -.263189228995226D+02 0.493331581783288D+02 -.662664292222246D+03
0.190243542309D-01 0.000000000000D+00 0.000000000000D+00 0.179661468461D-02 0.000000000000D+00  5 -1 2 25 24 21 0 0.15306405D-01 0.35416571D+00 0.21198513D+06 0.21198513D+06 0.21198513D+06 0.11347359D+01  1  2  2  1  5  1       -1 0.333666496150D+00 0.100000000000D+01
-.105498549982D-02 0.000000000000D+00 -.730585294743D-04 0.179661468461D-02 0.000000000000D+00  5 -1 2 25 24 21 2 0.15306405D-01 0.35416571D+00 0.21198513D+06 0.21198513D+06 0.21198513D+06 0.11347359D+01  1  2  3  1  5  1       -1 -.238253219697D-01 0.100000000000D+01
0.130481601284D-02 0.000000000000D+00 0.000000000000D+00 0.179661468461D-02 0.000000000000D+00  5 -1 2 25 24 21 2 0.15306405D-01 0.35416571D+00 0.21198513D+06 0.21198513D+06 0.21198513D+06 0.11347359D+01  1  2 15  1  5  1       -1 0.294673828430D-01 0.100000000000D+01
  </mgrwgt>
  </event>
  <event>
  4     66 0.45252658E-03 0.87696481E+02 0.75467711E-02 0.12059642E+00
       -1 -1    0    0    0  501 0.00000000E+00 0.00000000E+00 0.41058891E+02 0.41060138E+02 0.32000000E+00 0.0000E+00 0.9000E+01
        2 -1    0    0  501    0 0.00000000E+00 0.00000000E+00 -.41815735E+03 0.41815748E+03 0.32000000E+00 0.0000E+00 0.9000E+01
       25  1    1    2    0    0 -.69206730E+02 -.26046595E+02 -.15938172E+03 0.21562822E+03 0.12500000E+03 0.0000E+00 0.9000E+01
       24  1    1    2    0    0 0.69206730E+02 0.26046595E+02 -.21771675E+03 0.24358940E+03 0.80419002E+02 0.0000E+00 0.9000E+01
#aMCatNLO 1  0  0  2  1 0.34332908D+02 0.00000000D+00  -5  5  0 0.00000000D+00 0.00000000D+00 0.00000000D+00 0.00000000D+00 0.00000000D+00
  <mgrwgt>
 0.3015924385D+00    9    2    0
 0.131032024911283D+03 0.000000000000000D+00 0.000000000000000D+00 0.131032024911283D+03
 0.131032024911283D+03 0.000000000000000D+00 0.000000000000000D+00 -.131032024911283D+03
 0.148504440627651D+03 -.692067295704666D+02 -.260465949237350D+02 0.309931018320314D+02
 0.113559609194916D+03 0.692067295704666D+02 0.260465949237350D+02 -.309931018320314D+02
 0.000000000000000D+00 -.000000000000000D+00 -.000000000000000D+00 -.000000000000000D+00
 0.135607989739379D+03 0.000000000000000D+00 0.000000000000000D+00 0.135607989739379D+03
 0.217413490158618D+03 0.000000000000000D+00 0.000000000000000D+00 -.217413490158618D+03
 0.140294373837268D+03 -.533256555714184D+02 -.159158231674926D+02 0.309931018320314D+02
 0.124009078227255D+03 0.822706540599023D+02 0.343802653827475D+02 -.309931018320314D+02
 0.887180278334737D+02 -.289449984884839D+02 -.184644422152548D+02 -.818055004192395D+02
0.264974619960D-03 0.000000000000D+00 0.000000000000D+00 0.247755175908D-02 0.000000000000D+00  5 -1 2 25 24 21 0 0.63168578D-02 0.64332006D-01 0.16190359D+05 0.16190359D+05 0.16190359D+05 0.12440593D+01  1  2  2  2  5  2        2 0.267920201764D+00 0.100000000000D+01
-.147053876942D-04 0.000000000000D+00 -.101757231007D-05 0.247755175908D-02 0.000000000000D+00  5 -1 2 25 24 21 2 0.63168578D-02 0.64332006D-01 0.16190359D+05 0.16190359D+05 0.16190359D+05 0.12440593D+01  1  2  3  2  5  2        2 -.230122894226D-01 0.100000000000D+01
0.183046356880D-04 0.000000000000D+00 0.000000000000D+00 0.247755175908D-02 0.000000000000D+00  5 -1 2 25 24 21 2 0.63168578D-02 0.64332006D-01 0.16190359D+05 0.16190359D+05 0.16190359D+05 0.12440593D+01  1  2 15  2  5  2        2 0.286447105636D-01 0.100000000000D+01
0.868530349337D-03 0.000000000000D+00 0.000000000000D+00 0.247755175908D-02 0.000000000000D+00  5 -1 2 25 24 21 2 0.63168578D-02 0.10722732D+00 0.21204410D+05 0.21204410D+05 0.21204410D+05 0.12310399D+01  1  2 12  2  5  2        2 0.757599131937D+00 0.100000000000D+01
-.831858175108D-03 0.000000000000D+00 0.000000000000D+00 0.247755175908D-02 0.000000000000D+00  5 -1 2 25 24 21 2 0.63168578D-02 0.64332006D-01 0.16190359D+05 0.16190359D+05 0.16190359D+05 0.12440593D+01  1  2  4  2  5  2        2 -.130176514093D+01 0.100000000000D+01
-.949221637777D-03 0.000000000000D+00 -.110440439931D-03 0.247755175908D-02 0.000000000000D+00  5 -1 2 25 24 21 2 0.63168578D-02 0.10847066D+00 0.16190359D+05 0.16190359D+05 0.16190359D+05 0.12440593D+01  1  2  5  2  5  2        2 -.828797381603D+00 0.100000000000D+01
0.895446979745D-03 0.000000000000D+00 0.969120356303D-04 0.247755175908D-02 0.000000000000D+00  5 -1 2 25 24 21 2 0.63168578D-02 0.64332006D-01 0.16190359D+05 0.16190359D+05 0.16190359D+05 0.12440593D+01  1  2  6  2  5  2        2 0.140127451849D+01 0.100000000000D+01
0.498180976750D-04 0.000000000000D+00 0.000000000000D+00 0.247755175908D-02 0.000000000000D+00  5 -1 21 25 24 -2 2 0.63168578D-02 0.10722732D+00 0.21204410D+05 0.21204410D+05 0.21204410D+05 0.12310399D+01  1  2 12  4  5  2        2 0.579788579083D-01 0.100000000000D+01
-.502065566678D-04 0.000000000000D+00 -.644966946839D-05 0.247755175908D-02 0.000000000000D+00  5 -1 21 25 24 -2 2 0.63168578D-02 0.10847066D+00 0.16190359D+05 0.16190359D+05 0.16190359D+05 0.12440593D+01  1  2  5  4  5  2        2 -.582501701983D-01 0.100000000000D+01
  </mgrwgt>
  </event>
  <event>
  4     66 0.45252658E-03 0.12857534E+03 0.75467711E-02 0.11736320E+00
       -1 -1    0    0    0  501 0.00000000E+00 0.00000000E+00 0.15717982E+02 0.15721239E+02 0.32000000E+00 0.0000E+00 0.9000E+01
        2 -1    0    0  501    0 0.00000000E+00 0.00000000E+00 -.11127473E+04 0.11127473E+04 0.32000000E+00 0.0000E+00 0.9000E+01
       25  1    1    2    0    0 0.74923555E+02 -.13748999E+02 -.48930134E+03 0.51072828E+03 0.12500000E+03 0.0000E+00 0.9000E+01
       24  1    1    2    0    0 -.74923555E+02 0.13748999E+02 -.60772793E+03 0.61774026E+03 0.80419002E+02 0.0000E+00 0.9000E+01
#aMCatNLO 1  0  0  1  2 0.79572466D+02 0.00000000D+00  -5  5  0 0.00000000D+00 0.00000000D+00 0.00000000D+00 0.00000000D+00 0.00000000D+00
  <mgrwgt>
 0.3225924363D+00    7    2    0
 0.132257345449906D+03 0.000000000000000D+00 0.000000000000000D+00 0.132257345449906D+03
 0.132257345449906D+03 0.000000000000000D+00 0.000000000000000D+00 -.132257345449906D+03
 0.149567885016682D+03 0.749235547984062D+02 -.137489993970293D+02 0.307079497901466D+02
 0.114946805883130D+03 -.749235547984062D+02 0.137489993970293D+02 -.307079497901466D+02
 0.000000000000000D+00 -.000000000000000D+00 -.000000000000000D+00 0.000000000000000D+00
 0.181265823356580D+03 0.000000000000000D+00 0.000000000000000D+00 0.181265823356580D+03
 0.174793608079169D+03 0.000000000000000D+00 0.000000000000000D+00 -.174793608079169D+03
 0.177775782271267D+03 0.122473410845793D+03 -.604269953286773D+01 0.307079497901466D+02
 0.984484003776763D+02 -.439258225894064D+02 0.187727332075686D+02 -.307079497901466D+02
 0.798352487868046D+02 -.785475882563865D+02 -.127300336747008D+02 0.647221527741064D+01
0.240911076172D-03 0.000000000000D+00 0.000000000000D+00 0.246660402287D-02 0.000000000000D+00  5 -1 2 25 24 21 0 0.24184052D-02 0.17119214D+00 0.16531619D+05 0.16531619D+05 0.16531619D+05 0.12430375D+01  1  2  2  1  5  1       -1 0.306608749251D+00 0.100000000000D+01
-.133709760685D-04 0.000000000000D+00 -.925161965845D-06 0.246660402287D-02 0.000000000000D+00  5 -1 2 25 24 21 2 0.24184052D-02 0.17119214D+00 0.16531619D+05 0.16531619D+05 0.16531619D+05 0.12430375D+01  1  2  3  1  5  1       -1 -.262941621186D-01 0.100000000000D+01
0.166137915766D-04 0.000000000000D+00 0.000000000000D+00 0.246660402287D-02 0.000000000000D+00  5 -1 2 25 24 21 2 0.24184052D-02 0.17119214D+00 0.16531619D+05 0.16531619D+05 0.16531619D+05 0.12430375D+01  1  2 15  1  5  1       -1 0.326711922062D-01 0.100000000000D+01
-.675729815317D-04 0.000000000000D+00 0.000000000000D+00 0.246660402287D-02 0.000000000000D+00  5 -1 2 25 24 21 2 0.24184052D-02 0.17119214D+00 0.16531619D+05 0.16531619D+05 0.16531619D+05 0.12430375D+01  1  2  4  1  5  1       -1 -.132882963975D+00 0.100000000000D+01
-.807587440332D-04 0.000000000000D+00 -.734623296844D-04 0.246660402287D-02 0.000000000000D+00  5 -1 2 25 24 21 2 0.44683470D-02 0.17119214D+00 0.16531619D+05 0.16531619D+05 0.16531619D+05 0.12430375D+01  1  2  5  1  5  1       -1 -.648836838943D-01 0.100000000000D+01
0.115382118226D-03 0.000000000000D+00 0.615037713280D-04 0.246660402287D-02 0.000000000000D+00  5 -1 2 25 24 21 2 0.24184052D-02 0.17119214D+00 0.16531619D+05 0.16531619D+05 0.16531619D+05 0.12430375D+01  1  2  6  1  5  1       -1 0.226900123571D+00 0.100000000000D+01
-.135622142517D-05 0.000000000000D+00 -.492071920370D-05 0.246660402287D-02 0.000000000000D+00  5 21 2 25 24 1 2 0.44683470D-02 0.17119214D+00 0.16531619D+05 0.16531619D+05 0.16531619D+05 0.12430375D+01  1  2  5  3  5  1       -1 -.195268187339D-01 0.100000000000D+01
  </mgrwgt>
  </event>
  <event>
  4     66 0.45252658E-03 0.15168166E+03 0.75467711E-02 0.10850106E+00
       -1 -1    0    0    0  501 0.00000000E+00 0.00000000E+00 0.18773637E+03 0.18773664E+03 0.32000000E+00 0.0000E+00 0.9000E+01
        2 -1    0    0  501    0 0.00000000E+00 0.00000000E+00 -.35389064E+03 0.35389078E+03 0.32000000E+00 0.0000E+00 0.9000E+01
       25  1    1    2    0    0 -.62785485E+02 -.90813113E+02 0.13264246E+03 0.21309167E+03 0.12500000E+03 0.0000E+00 0.9000E+01
       24  1    1    2    0    0 0.62785485E+02 0.90813113E+02 -.29879673E+03 0.32853575E+03 0.80419002E+02 0.0000E+00 0.9000E+01
#aMCatNLO 1  0  0  2  1 0.22567206D+03 0.00000000D+00  -5  5  0 0.00000000D+00 0.00000000D+00 0.00000000D+00 0.00000000D+00 0.00000000D+00
  <mgrwgt>
 0.2343164261D+00    5    2    0
 0.257756194620611D+03 0.000000000000000D+00 0.000000000000000D+00 0.257756194620611D+03
 0.257756194620611D+03 0.000000000000000D+00 0.000000000000000D+00 -.257756194620611D+03
 0.266638409904621D+03 -.627854848622452D+02 -.908131128266081D+02 0.208043272099386D+03
 0.248873979336602D+03 0.627854848622452D+02 0.908131128266081D+02 -.208043272099386D+03
 0.000000000000000D+00 -.000000000000000D+00 0.000000000000000D+00 -.000000000000000D+00
 0.378271325700546D+03 0.000000000000000D+00 0.000000000000000D+00 0.378271325700546D+03
 0.412765883881933D+03 0.000000000000000D+00 0.000000000000000D+00 -.412765883881933D+03
 0.304796248893932D+03 0.122186868332911D+02 -.183968622232332D+03 0.208043272099386D+03
 0.257947832595619D+03 0.129308839047886D+03 0.819081587362932D+01 -.208043272099386D+03
 0.228293128092928D+03 -.141527525881177D+03 0.175777806358703D+03 -.344945581813874D+02
0.176473247788D-02 0.000000000000D+00 0.000000000000D+00 0.753461763190D-03 0.000000000000D+00  5 -1 2 25 24 21 0 0.28882550D-01 0.54444746D-01 0.23007325D+05 0.23007325D+05 0.23007325D+05 0.12271842D+01  1  2  2  2  5  2        2 0.199103461412D+00 0.100000000000D+01
-.645274249236D-04 0.000000000000D+00 -.677703737978D-05 0.753461763190D-03 0.000000000000D+00  5 -1 2 25 24 21 2 0.28882550D-01 0.54444746D-01 0.23007325D+05 0.23007325D+05 0.23007325D+05 0.12271842D+01  1  2  3  2  5  2        2 -.109638676891D-01 0.100000000000D+01
0.119484200594D-03 0.000000000000D+00 0.000000000000D+00 0.753461763190D-03 0.000000000000D+00  5 -1 2 25 24 21 2 0.28882550D-01 0.54444746D-01 0.23007325D+05 0.23007325D+05 0.23007325D+05 0.12271842D+01  1  2 15  2  5  2        2 0.203015844473D-01 0.100000000000D+01
0.292836564038D-03 0.000000000000D+00 -.645901163907D-03 0.753461763190D-03 0.000000000000D+00  5 -1 2 25 24 21 2 0.28882550D-01 0.11971561D+00 0.23007325D+05 0.23007325D+05 0.23007325D+05 0.12271842D+01  1  2  5  2  5  2        2 0.205134912604D-01 0.100000000000D+01
0.656871299659D-04 0.000000000000D+00 -.551604211081D-04 0.753461763190D-03 0.000000000000D+00  5 -1 21 25 24 -2 2 0.28882550D-01 0.11971561D+00 0.23007325D+05 0.23007325D+05 0.23007325D+05 0.12271842D+01  1  2  5  4  5  2        2 0.536175663938D-02 0.100000000000D+01
  </mgrwgt>
  </event>
  <event>
  4     66 -.45252658E-03 0.52559985E+02 0.75467711E-02 0.12474107E+00
       -1 -1    0    0    0  501 0.00000000E+00 0.00000000E+00 0.14766199E+02 0.14769666E+02 0.32000000E+00 0.0000E+00 0.9000E+01
        2 -1    0    0  501    0 0.00000000E+00 0.00000000E+00 -.92176043E+03 0.92176048E+03 0.32000000E+00 0.0000E+00 0.9000E+01
       25  1    1    2    0    0 -.15573445E+02 -.52010603E+02 -.52188611E+03 0.53938645E+03 0.12500000E+03 0.0000E+00 0.9000E+01
       24  1    1    2    0    0 0.15573445E+02 0.52010603E+02 -.38510812E+03 0.39714370E+03 0.80419002E+02 0.0000E+00 0.9000E+01
#aMCatNLO 1  0  0  1  2 0.15283496D+01 0.00000000D+00  -5  5  0 0.00000000D+00 0.00000000D+00 0.00000000D+00 0.00000000D+00 0.00000000D+00
  <mgrwgt>
 -.3676995481D+00   11    2    0
 0.116672820669319D+03 0.000000000000000D+00 0.000000000000000D+00 0.116672820669319D+03
 0.116672820669319D+03 0.000000000000000D+00 0.000000000000000D+00 -.116672820669319D+03
 0.136295608549765D+03 -.155734449298303D+02 -.520106032913401D+02 0.196414567667472D+01
 0.970500327888731D+02 0.155734449298303D+02 0.520106032913401D+02 -.196414567667472D+01
 0.000000000000000D+00 -.000000000000000D+00 -.000000000000000D+00 0.000000000000000D+00
 0.118050726006959D+03 0.000000000000000D+00 0.000000000000000D+00 0.118050726006959D+03
 0.117099899282627D+03 0.000000000000000D+00 0.000000000000000D+00 -.117099899282627D+03
 0.135969412951831D+03 -.150132986685076D+02 -.513169002699564D+02 0.196414567667472D+01
 0.973812334672751D+02 0.159734593946960D+02 0.525059939812989D+02 -.196414567667472D+01
 0.179997887047968D+01 -.960160726188470D+00 -.118909371134256D+01 0.950826724332105D+00
0.103035761549D-03 0.000000000000D+00 0.000000000000D+00 0.284962713274D-02 0.000000000000D+00  5 -1 2 25 24 21 0 0.22719938D-02 0.14180957D+00 0.13608577D+05 0.13608577D+05 0.13608577D+05 0.12526713D+01  1  2  2  1  5  1       -1 0.184876145163D+00 0.100000000000D+01
-.572420882688D-05 0.000000000000D+00 -.395684454286D-06 0.284962713274D-02 0.000000000000D+00  5 -1 2 25 24 21 2 0.22719938D-02 0.14180957D+00 0.13608577D+05 0.13608577D+05 0.13608577D+05 0.12526713D+01  1  2  3  1  5  1       -1 -.161169417977D-01 0.100000000000D+01
0.710132618892D-05 0.000000000000D+00 0.000000000000D+00 0.284962713274D-02 0.000000000000D+00  5 -1 2 25 24 21 2 0.22719938D-02 0.14180957D+00 0.13608577D+05 0.13608577D+05 0.13608577D+05 0.12526713D+01  1  2 15  1  5  1       -1 0.199943196230D-01 0.100000000000D+01
0.128302122422D-07 0.000000000000D+00 0.000000000000D+00 0.284962713274D-02 0.000000000000D+00  5 -1 2 25 24 21 2 0.23029519D-02 0.14180957D+00 0.13788043D+05 0.13788043D+05 0.13788043D+05 0.12520154D+01  1  2 12  1  5  1       -1 0.354070261922D-04 0.100000000000D+01
-.185152386320D-02 0.000000000000D+00 0.000000000000D+00 0.284962713274D-02 0.000000000000D+00  5 -1 2 25 24 21 2 0.22719938D-02 0.14180957D+00 0.13608577D+05 0.13608577D+05 0.13608577D+05 0.12526713D+01  1  2  4  1  5  1       -1 -.521310511946D+01 0.100000000000D+01
-.767415970290D-02 0.000000000000D+00 -.786908756086D-03 0.284962713274D-02 0.000000000000D+00  5 -1 2 25 24 21 2 0.23073886D-02 0.14180957D+00 0.13608577D+05 0.13608577D+05 0.13608577D+05 0.12526713D+01  1  2  5  1  5  1       -1 -.211312101011D+02 0.100000000000D+01
0.768549993865D-02 0.000000000000D+00 0.786814741816D-03 0.284962713274D-02 0.000000000000D+00  5 -1 2 25 24 21 2 0.22719938D-02 0.14180957D+00 0.13608577D+05 0.13608577D+05 0.13608577D+05 0.12526713D+01  1  2  6  1  5  1       -1 0.216391048866D+02 0.100000000000D+01
0.185163735190D-02 0.000000000000D+00 0.000000000000D+00 0.284962713274D-02 0.101997673509D-01  5 -1 2 25 24 21 2 0.22988261D-02 0.14232866D+00 0.13788043D+05 0.13788043D+05 0.13788043D+05 0.12520154D+01  1  2 11  1  5  1       -1 0.509858233543D+01 0.100000000000D+01
0.101327931684D-08 0.000000000000D+00 0.000000000000D+00 0.284962713274D-02 0.000000000000D+00  5 21 2 25 24 1 2 0.23029519D-02 0.14180957D+00 0.13788043D+05 0.13788043D+05 0.13788043D+05 0.12520154D+01  1  2 12  3  5  1       -1 0.569045511321D-04 0.100000000000D+01
-.216673986655D-04 0.000000000000D+00 -.222886820223D-05 0.284962713274D-02 0.000000000000D+00  5 21 2 25 24 1 2 0.23073886D-02 0.14180957D+00 0.13608577D+05 0.13608577D+05 0.13608577D+05 0.12526713D+01  1  2  5  3  5  1       -1 -.121393566821D+01 0.100000000000D+01
0.471020819417D-05 0.000000000000D+00 0.000000000000D+00 0.284962713274D-02 0.221081963877D-04  5 21 2 25 24 1 2 0.22988261D-02 0.14232866D+00 0.13788043D+05 0.13788043D+05 0.13788043D+05 0.12520154D+01  1  2 11  3  5  1       -1 0.264018284121D+00 0.100000000000D+01
  </mgrwgt>
  </event>
  <event>
  4     66 0.45252658E-03 0.28921224E+03 0.75467711E-02 0.95513992E-01
       -1 -1    0    0    0  501 0.00000000E+00 0.00000000E+00 0.24609715E+03 0.24609736E+03 0.32000000E+00 0.0000E+00 0.9000E+01
        2 -1    0    0  501    0 0.00000000E+00 0.00000000E+00 -.34761056E+03 0.34761071E+03 0.32000000E+00 0.0000E+00 0.9000E+01
       25  1    1    2    0    0 0.78562481E+01 0.26944120E+03 -.96366735E+02 0.31236489E+03 0.12500000E+03 0.0000E+00 0.9000E+01
       24  1    1    2    0    0 -.78562481E+01 -.26944120E+03 -.51466785E+01 0.28134318E+03 0.80419002E+02 0.0000E+00 0.9000E+01
#aMCatNLO 1  0  0  2  2 0.70263353D+03 0.00000000D+00  -5  5  0 0.00000000D+00 0.00000000D+00 0.00000000D+00 0.00000000D+00 0.00000000D+00
  <mgrwgt>
 0.5416944045D+00    5    2    0
 0.292482605271449D+03 0.000000000000000D+00 0.000000000000000D+00 0.292482605271449D+03
 0.292482605271449D+03 0.000000000000000D+00 0.000000000000000D+00 -.292482605271449D+03
 0.300310236625055D+03 0.785624811651055D+01 0.269441195489772D+03 -.435999972519626D+02
 0.284654973917842D+03 -.785624811651055D+01 -.269441195489772D+03 0.435999972519626D+02
 0.000000000000000D+00 0.000000000000000D+00 -.000000000000000D+00 -.000000000000000D+00
 0.584558207965590D+03 0.000000000000000D+00 0.000000000000000D+00 0.584558207965590D+03
 0.142571864473609D+04 0.000000000000000D+00 0.000000000000000D+00 -.142571864473609D+04
 0.636118155409728D+03 -.361585748691830D+03 0.506335949962545D+03 -.435999972519626D+02
 0.278145578146582D+03 -.229893684751381D+03 -.127065654837124D+03 0.435999972519626D+02
 0.109601311914537D+04 0.591479433443212D+03 -.379270295125421D+03 -.841160436770505D+03
0.705734007825D-02 0.000000000000D+00 0.000000000000D+00 0.197161021064D-02 0.000000000000D+00  5 -1 2 25 24 21 0 0.37861127D-01 0.53478576D-01 0.83643721D+05 0.83643721D+05 0.83643721D+05 0.11707651D+01  1  2  2  2  5  2        2 0.511060726505D+00 0.100000000000D+01
-.392014176089D-03 0.000000000000D+00 -.271020441408D-04 0.197161021064D-02 0.000000000000D+00  5 -1 2 25 24 21 2 0.37861127D-01 0.53478576D-01 0.83643721D+05 0.83643721D+05 0.83643721D+05 0.11707651D+01  1  2  3  2  5  2        2 -.389110325398D-01 0.100000000000D+01
0.483156012723D-03 0.000000000000D+00 0.000000000000D+00 0.197161021064D-02 0.000000000000D+00  5 -1 2 25 24 21 2 0.37861127D-01 0.53478576D-01 0.83643721D+05 0.83643721D+05 0.83643721D+05 0.11707651D+01  1  2 15  2  5  2        2 0.479577027557D-01 0.100000000000D+01
0.446947890647D-02 0.000000000000D+00 -.441921719710D-02 0.197161021064D-02 0.000000000000D+00  5 -1 2 25 24 21 2 0.37861127D-01 0.37351034D+00 0.83643721D+05 0.83643721D+05 0.83643721D+05 0.11707651D+01  1  2  5  2  5  2        2 0.209630301217D-01 0.100000000000D+01
0.647971879212D-03 0.000000000000D+00 -.105001585811D-02 0.197161021064D-02 0.000000000000D+00  5 -1 21 25 24 -2 2 0.37861127D-01 0.37351034D+00 0.83643721D+05 0.83643721D+05 0.83643721D+05 0.11707651D+01  1  2  5  4  5  2        2 0.623977657041D-03 0.100000000000D+01
  </mgrwgt>
  </event>
  <event>
  4     66 0.45252658E-03 0.22095329E+03 0.75467711E-02 0.11011943E+00
       -1 -1    0    0    0  501 0.00000000E+00 0.00000000E+00 0.19834033E+02 0.19836615E+02 0.32000000E+00 0.0000E+00 0.9000E+01
        2 -1    0    0  501    0 0.00000000E+00 0.00000000E+00 -.24616139E+04 0.24616139E+04 0.32000000E+00 0.0000E+00 0.9000E+01
       25  1    1    2    0    0 0.19050666E+03 -.39860104E+02 -.12925491E+04 0.13130840E+04 0.12500000E+03 0.0000E+00 0.9000E+01
       24  1    1    2    0    0 -.19050666E+03 0.39860104E+02 -.11492308E+04 0.11683665E+04 0.80419002E+02 0.0000E+00 0.9000E+01
#aMCatNLO 1  0  0  2  2 0.89432726D+02 0.00000000D+00  -5  5  0 0.00000000D+00 0.00000000D+00 0.00000000D+00 0.00000000D+00 0.00000000D+00
  <mgrwgt>
 0.3392429444D+00    4    2    0
 0.220968234169931D+03 0.000000000000000D+00 0.000000000000000D+00 0.220968234169931D+03
 0.220968234169931D+03 0.000000000000000D+00 0.000000000000000D+00 -.220968234169931D+03
 0.231329207637487D+03 0.190506655000826D+03 -.398601037836084D+02 -.256687221021623D+01
 0.210607260702375D+03 -.190506655000826D+03 0.398601037836084D+02 0.256687221021623D+01
 0.000000000000000D+00 -.000000000000000D+00 -.000000000000000D+00 0.000000000000000D+00
 0.312369111036474D+03 0.000000000000000D+00 0.000000000000000D+00 0.312369111036474D+03
 0.248451423611724D+03 0.000000000000000D+00 0.000000000000000D+00 -.248451423611724D+03
 0.237251426987656D+03 0.201552708241596D+03 0.575817464253556D+01 -.256687221021623D+01
 0.213643299685756D+03 -.180505613704652D+03 0.811626646581437D+02 0.256687221021623D+01
 0.109925807974786D+03 -.210470945369432D+02 -.869208393006793D+02 0.639176874247493D+02
0.248795278038D-02 0.000000000000D+00 0.000000000000D+00 0.211149661974D-02 0.000000000000D+00  5 -1 2 25 24 21 0 0.30515899D-02 0.37871003D+00 0.48820357D+05 0.48820357D+05 0.48820357D+05 0.11933100D+01  1  2  2  2  5  2        2 0.440639059122D+00 0.100000000000D+01
-.138219598141D-03 0.000000000000D+00 -.955439376965D-05 0.211149661974D-02 0.000000000000D+00  5 -1 2 25 24 21 2 0.30515899D-02 0.37871003D+00 0.48820357D+05 0.48820357D+05 0.48820357D+05 0.11933100D+01  1  2  3  2  5  2        2 -.348591720521D-01 0.100000000000D+01
0.169775809068D-03 0.000000000000D+00 0.000000000000D+00 0.211149661974D-02 0.000000000000D+00  5 -1 2 25 24 21 2 0.30515899D-02 0.37871003D+00 0.48820357D+05 0.48820357D+05 0.48820357D+05 0.11933100D+01  1  2 15  2  5  2        2 0.428176916889D-01 0.100000000000D+01
-.433600476761D-03 0.000000000000D+00 0.000000000000D+00 0.211149661974D-02 0.000000000000D+00  5 -1 2 25 24 21 2 0.30515899D-02 0.37871003D+00 0.48820357D+05 0.48820357D+05 0.48820357D+05 0.11933100D+01  1  2  4  2  5  2        2 -.109354634397D+00 0.100000000000D+01
  </mgrwgt>
  </event>
  <event>
  5     66 0.45252658E-03 0.21664413E+03 0.75467711E-02 0.11039973E+00
       21 -1    0    0  502  501 0.00000000E+00 0.00000000E+00 0.48191841E+03 0.48191900E+03 0.75000000E+00 0.0000E+00 0.9000E+01
        2 -1    0    0  501    0 0.00000000E+00 0.00000000E+00 -.44119853E+03 0.44119865E+03 0.32000000E+00 0.0000E+00 0.9000E+01
       25  1    1    2    0    0 0.18561409E+02 0.14636129E+03 0.68260652E+02 0.20506260E+03 0.12500000E+03 0.0000E+00 0.9000E+01
       24  1    1    2    0    0 -.13433860E+02 -.23485195E+03 0.29371166E+03 0.38479821E+03 0.80419002E+02 0.0000E+00 0.9000E+01
        1  1    1    2  502    0 -.51275498E+01 0.88490660E+02 -.32125243E+03 0.33325683E+03 0.32000000E+00 0.0000E+00 0.9000E+01
#aMCatNLO 2  0  0  1  2 0.88639092D+02 0.00000000D+00  -5  5  0 0.00000000D+00 0.00000000D+00 0.00000000D+00 0.00000000D+00 0.00000000D+00
  <mgrwgt>
 0.6252856073D-01    1    2    0
 0.228612628530170D+03 0.000000000000000D+00 0.000000000000000D+00 0.228612628530170D+03
 0.228612628530170D+03 0.000000000000000D+00 0.000000000000000D+00 -.228612628530170D+03
 0.238627149714441D+03 0.160875969067979D+02 0.189054060761854D+03 -.729223416797350D+02
 0.218598107345898D+03 -.160875969067979D+02 -.189054060761854D+03 0.729223416797350D+02
 0.000000000000000D+00 -.000000000000000D+00 0.000000000000000D+00 -.000000000000000D+00
 0.235805844212286D+03 0.000000000000000D+00 0.000000000000000D+00 0.235805844212286D+03
 0.901682278146919D+03 0.000000000000000D+00 0.000000000000000D+00 -.901682278146919D+03
 0.206661128037792D+03 0.185614093205145D+02 0.146361292730807D+03 -.729223416797350D+02
 0.259076807201091D+03 -.134338595587313D+02 -.234851952464613D+03 0.729223416797350D+02
 0.671750187120322D+03 -.512754976178319D+01 0.884906597338058D+02 -.665876433934633D+03
0.318516194571D-03 0.000000000000D+00 0.000000000000D+00 0.189108784055D-02 0.218427367970D-07  5 21 2 25 24 1 2 0.74141337D-01 0.67876740D-01 0.70386572D+05 0.70386572D+05 0.70386572D+05 0.11778472D+01  1  2  1  3  5  1       -1 0.625285607331D-01 0.100000000000D+01
  </mgrwgt>
  </event>
  <event>
  4     66 0.45252658E-03 0.49590618E+02 0.75467711E-02 0.12394995E+00
       -1 -1    0    0    0  501 0.00000000E+00 0.00000000E+00 0.19908155E+03 0.19908180E+03 0.32000000E+00 0.0000E+00 0.9000E+01
        2 -1    0    0  501    0 0.00000000E+00 0.00000000E+00 -.11136740E+03 0.11136786E+03 0.32000000E+00 0.0000E+00 0.9000E+01
       25  1    1    2    0    0 -.23014179E+02 -.41326026E+02 0.14796327E+03 0.19938812E+03 0.12500000E+03 0.0000E+00 0.9000E+01
       24  1    1    2    0    0 0.23014179E+02 0.41326026E+02 -.60249130E+02 0.11106154E+03 0.80419002E+02 0.0000E+00 0.9000E+01
#aMCatNLO 1  0  0  1  2 0.17384738D+02 0.00000000D+00  -5  5  0 0.00000000D+00 0.00000000D+00 0.00000000D+00 0.00000000D+00 0.00000000D+00
  <mgrwgt>
 0.3248623391D+00    9    2    0
 0.148900322539628D+03 0.000000000000000D+00 0.000000000000000D+00 0.148900322539628D+03
 0.148900322539628D+03 0.000000000000000D+00 0.000000000000000D+00 -.148900322539628D+03
 0.164276017987152D+03 -.230141794045271D+02 -.413260257060296D+02 0.955202451389013D+02
 0.133524627092104D+03 0.230141794045271D+02 0.413260257060296D+02 -.955202451389013D+02
 0.000000000000000D+00 0.000000000000000D+00 0.000000000000000D+00 0.000000000000000D+00
 0.160042313322213D+03 0.000000000000000D+00 0.000000000000000D+00 0.160042313322213D+03
 0.156093013003527D+03 0.000000000000000D+00 0.000000000000000D+00 -.156093013003527D+03
 0.167219745383667D+03 -.297745816098980D+02 -.482369184830262D+02 0.955202451389013D+02
 0.131087903400503D+03 0.176177691562612D+02 0.358094881578905D+02 -.955202451389013D+02
 0.178276775415694D+02 0.121568124536369D+02 0.124274303251357D+02 0.394930031868622D+01
0.587076797639D-03 0.000000000000D+00 0.000000000000D+00 0.151014045317D-02 0.000000000000D+00  5 -1 2 25 24 21 0 0.30627985D-01 0.17133502D-01 0.12876538D+05 0.12876538D+05 0.12876538D+05 0.12554515D+01  1  2  2  1  5  1       -1 0.209322074147D+00 0.100000000000D+01
-.296880556875D-04 0.000000000000D+00 -.225452948381D-05 0.151014045317D-02 0.000000000000D+00  5 -1 2 25 24 21 2 0.30627985D-01 0.17133502D-01 0.12876538D+05 0.12876538D+05 0.12876538D+05 0.12554515D+01  1  2  3  1  5  1       -1 -.166840598472D-01 0.100000000000D+01
0.400527348508D-04 0.000000000000D+00 0.000000000000D+00 0.151014045317D-02 0.000000000000D+00  5 -1 2 25 24 21 2 0.30627985D-01 0.17133502D-01 0.12876538D+05 0.12876538D+05 0.12876538D+05 0.12554515D+01  1  2 15  1  5  1       -1 0.225087904822D-01 0.100000000000D+01
0.937896912870D-03 0.000000000000D+00 0.000000000000D+00 0.151014045317D-02 0.000000000000D+00  5 -1 2 25 24 21 2 0.33613847D-01 0.17133502D-01 0.14934622D+05 0.14934622D+05 0.14934622D+05 0.12480389D+01  1  2 12  1  5  1       -1 0.446879999221D+00 0.100000000000D+01
-.837556444005D-03 0.000000000000D+00 0.000000000000D+00 0.151014045317D-02 0.000000000000D+00  5 -1 2 25 24 21 2 0.30627985D-01 0.17133502D-01 0.12876538D+05 0.12876538D+05 0.12876538D+05 0.12554515D+01  1  2  4  1  5  1       -1 -.470689019998D+00 0.100000000000D+01
-.267044065760D-02 0.000000000000D+00 -.615948215924D-03 0.151014045317D-02 0.000000000000D+00  5 -1 2 25 24 21 2 0.34382629D-01 0.17133502D-01 0.12876538D+05 0.12876538D+05 0.12876538D+05 0.12554515D+01  1  2  5  1  5  1       -1 -.123435107351D+01 0.100000000000D+01
0.272750623847D-02 0.000000000000D+00 0.611852811049D-03 0.151014045317D-02 0.000000000000D+00  5 -1 2 25 24 21 2 0.30627985D-01 0.17133502D-01 0.12876538D+05 0.12876538D+05 0.12876538D+05 0.12554515D+01  1  2  6  1  5  1       -1 0.153280086090D+01 0.100000000000D+01
0.143067078226D-04 0.000000000000D+00 0.000000000000D+00 0.151014045317D-02 0.000000000000D+00  5 21 2 25 24 1 2 0.33613847D-01 0.17133502D-01 0.14934622D+05 0.14934622D+05 0.14934622D+05 0.12480389D+01  1  2 12  3  5  1       -1 0.770184189192D-01 0.100000000000D+01
-.464496348673D-04 0.000000000000D+00 -.113275298030D-04 0.151014045317D-02 0.000000000000D+00  5 21 2 25 24 1 2 0.34382629D-01 0.17133502D-01 0.12876538D+05 0.12876538D+05 0.12876538D+05 0.12554515D+01  1  2  5  3  5  1       -1 -.241943651202D+00 0.100000000000D+01
  </mgrwgt>
  </event>
  <event>
  4     66 0.45252658E-03 0.13247798E+03 0.75467711E-02 0.11204562E+00
       -1 -1    0    0    0  501 0.00000000E+00 0.00000000E+00 0.18683944E+02 0.18686684E+02 0.32000000E+00 0.0000E+00 0.9000E+01
        2 -1    0    0  501    0 0.00000000E+00 0.00000000E+00 -.94838581E+03 0.94838586E+03 0.32000000E+00 0.0000E+00 0.9000E+01
       25  1    1    2    0    0 -.81995631E+02 0.89264972E+01 -.47787595E+03 0.50079276E+03 0.12500000E+03 0.0000E+00 0.9000E+01
       24  1    1    2    0    0 0.81995631E+02 -.89264972E+01 -.45182591E+03 0.46627978E+03 0.80419002E+02 0.0000E+00 0.9000E+01
#aMCatNLO 1  0  0  1  1 0.16559525D+03 0.00000000D+00  -5  5  0 0.00000000D+00 0.00000000D+00 0.00000000D+00 0.00000000D+00 0.00000000D+00
  <mgrwgt>
 0.4997904309D+00    3    2    0
 0.133120015425766D+03 0.000000000000000D+00 0.000000000000000D+00 0.133120015425766D+03
 0.133120015425766D+03 0.000000000000000D+00 0.000000000000000D+00 -.133120015425766D+03
 0.150318375898344D+03 -.819956307331987D+02 0.892649716245070D+01 0.129479080082230D+02
 0.115921654953189D+03 0.819956307331987D+02 -.892649716245070D+01 -.129479080082230D+02
 0.000000000000000D+00 0.000000000000000D+00 -.000000000000000D+00 -.000000000000000D+00
 0.178245702435739D+03 0.000000000000000D+00 0.000000000000000D+00 0.178245702435739D+03
 0.475966111352718D+03 0.000000000000000D+00 0.000000000000000D+00 -.475966111352718D+03
 0.188906431878279D+03 -.941082511185691D+02 0.105055360427718D+03 0.129479080082230D+02
 0.124630713734294D+03 0.734062839109231D+02 0.592407630955971D+02 -.129479080082230D+02
 0.340674668175883D+03 0.207019672076460D+02 -.164296123523315D+03 -.297720408916979D+03
0.394880605429D-03 0.000000000000D+00 0.000000000000D+00 0.255799705938D-02 0.000000000000D+00  5 -1 2 25 24 21 0 0.28746679D-02 0.14590572D+00 0.17550416D+05 0.17550416D+05 0.17550416D+05 0.12401222D+01  1  2  2  1  5  1       -1 0.489695707447D+00 0.100000000000D+01
-.219371879663D-04 0.000000000000D+00 -.151644549930D-05 0.255799705938D-02 0.000000000000D+00  5 -1 2 25 24 21 2 0.28746679D-02 0.14590572D+00 0.17550416D+05 0.17550416D+05 0.17550416D+05 0.12401222D+01  1  2  3  1  5  1       -1 -.418379549707D-01 0.100000000000D+01
0.272302250278D-04 0.000000000000D+00 0.000000000000D+00 0.255799705938D-02 0.000000000000D+00  5 -1 2 25 24 21 2 0.28746679D-02 0.14590572D+00 0.17550416D+05 0.17550416D+05 0.17550416D+05 0.12401222D+01  1  2 15  1  5  1       -1 0.519326784410D-01 0.100000000000D+01
  </mgrwgt>
  </event>
  <event>
  4     66 0.45252658E-03 0.10774113E+03 0.75467711E-02 0.10878398E+00
       -1 -1    0    0    0  501 0.00000000E+00 0.00000000E+00 0.12061290E+02 0.12065534E+02 0.32000000E+00 0.0000E+00 0.9000E+01
        2 -1    0    0  501    0 0.00000000E+00 0.00000000E+00 -.96504375E+03 0.96504380E+03 0.32000000E+00 0.0000E+00 0.9000E+01
       25  1    1    2    0    0 0.19190829E+02 -.25402710E+02 -.54445678E+03 0.55952817E+03 0.12500000E+03 0.0000E+00 0.9000E+01
       24  1    1    2    0    0 -.19190829E+02 0.25402710E+02 -.40852568E+03 0.41758117E+03 0.80419002E+02 0.0000E+00 0.9000E+01
#aMCatNLO 1  0  0  2  1 0.25548455D+03 0.00000000D+00  -5  5  0 0.00000000D+00 0.00000000D+00 0.00000000D+00 0.00000000D+00 0.00000000D+00
  <mgrwgt>
 0.5333917360D+00    3    2    0
 0.107897043251658D+03 0.000000000000000D+00 0.000000000000000D+00 0.107897043251658D+03
 0.107897043251658D+03 0.000000000000000D+00 0.000000000000000D+00 -.107897043251658D+03
 0.129115845383867D+03 0.191908290983922D+02 -.254027103836714D+02 0.568470868825732D+01
 0.866782411194486D+02 -.191908290983922D+02 0.254027103836714D+02 -.568470868825732D+01
 0.000000000000000D+00 0.000000000000000D+00 -.000000000000000D+00 0.000000000000000D+00
 0.834761346927837D+03 0.000000000000000D+00 0.000000000000000D+00 0.834761346927837D+03
 0.191656794029210D+03 0.000000000000000D+00 0.000000000000000D+00 -.191656794029210D+03
 0.169015604180462D+03 -.112107146050092D+03 0.184647325493700D+02 0.568470868825732D+01
 0.165408445094651D+03 -.130210553821062D+03 0.624950679254086D+02 -.568470868825732D+01
 0.691994091681935D+03 0.242317699871154D+03 -.809598004747786D+02 0.643104552898627D+03
0.232756715210D-03 0.000000000000D+00 0.000000000000D+00 0.306449776818D-02 0.000000000000D+00  5 -1 2 25 24 21 0 0.18559136D-02 0.14846860D+00 0.11608152D+05 0.11608152D+05 0.11608152D+05 0.12607174D+01  1  2  2  2  5  2        2 0.522192886938D+00 0.100000000000D+01
-.129308957481D-04 0.000000000000D+00 -.893847072655D-06 0.306449776818D-02 0.000000000000D+00  5 -1 2 25 24 21 2 0.18559136D-02 0.14846860D+00 0.11608152D+05 0.11608152D+05 0.11608152D+05 0.12607174D+01  1  2  3  2  5  2        2 -.461097584936D-01 0.100000000000D+01
0.160714706291D-04 0.000000000000D+00 0.000000000000D+00 0.306449776818D-02 0.000000000000D+00  5 -1 2 25 24 21 2 0.18559136D-02 0.14846860D+00 0.11608152D+05 0.11608152D+05 0.11608152D+05 0.12607174D+01  1  2 15  2  5  2        2 0.573086075228D-01 0.100000000000D+01
  </mgrwgt>
  </event>
  <event>
  5     66 0.45252658E-03 0.13070886E+03 0.75467711E-02 0.10412807E+00
       21 -1    0    0  502  501 0.00000000E+00 0.00000000E+00 0.84404237E+03 0.84404270E+03 0.75000000E+00 0.0000E+00 0.9000E+01
        2 -1    0    0  501    0 0.00000000E+00 0.00000000E+00 -.19742364E+03 0.19742390E+03 0.32000000E+00 0.0000E+00 0.9000E+01
       25  1    1    2    0    0 -.46760860E+02 0.33124990E+03 0.25394640E+03 0.43820868E+03 0.12500000E+03 0.0000E+00 0.9000E+01
       24  1    1    2    0    0 0.29702650E+02 0.33709233E+02 0.68176661E+02 0.11460294E+03 0.80419002E+02 0.0000E+00 0.9000E+01
        1  1    1    2  502    0 0.17058210E+02 -.36495913E+03 0.32449567E+03 0.48865498E+03 0.32000000E+00 0.0000E+00 0.9000E+01
#aMCatNLO 2  0  0  1  1 0.36535756D+03 0.00000000D+00  -5  5  0 0.00000000D+00 0.00000000D+00 0.00000000D+00 0.00000000D+00 0.00000000D+00
  <mgrwgt>
 0.1502069058D-01    1    2    0
 0.130720375240002D+03 0.000000000000000D+00 0.000000000000000D+00 0.130720375240002D+03
 0.130720375240002D+03 0.000000000000000D+00 0.000000000000000D+00 -.130720375240002D+03
 0.148234446839047D+03 -.346312049203305D+02 0.717368348893978D+02 -.171970796807583D+01
 0.113206303640957D+03 0.346312049203305D+02 -.717368348893978D+02 0.171970796807583D+01
 0.000000000000000D+00 0.000000000000000D+00 -.000000000000000D+00 0.000000000000000D+00
 0.433400623919193D+03 0.000000000000000D+00 0.000000000000000D+00 0.433400623919193D+03
 0.384480677446423D+03 0.000000000000000D+00 0.000000000000000D+00 -.384480677446423D+03
 0.357128870710086D+03 -.467608597329297D+02 0.331249897956517D+03 -.171970796807583D+01
 0.921343211156232D+02 0.297026499366012D+02 0.337092326271972D+02 0.171970796807583D+01
 0.368618109539907D+03 0.170582097963285D+02 -.364959130583715D+03 0.489199464727703D+02
0.134929726190D-03 0.000000000000D+00 0.000000000000D+00 0.261067268787D-02 0.964159162354D-07  5 21 2 25 24 1 2 0.12985270D+00 0.30372908D-01 0.16589352D+06 0.16589352D+06 0.16589352D+06 0.11439021D+01  1  2  1  3  5  1       -1 0.150206905835D-01 0.100000000000D+01
  </mgrwgt>
  </event>
  <event>
  4     66 0.45252658E-03 0.16062083E+03 0.75467711E-02 0.11772523E+00
       -1 -1    0    0    0  501 0.00000000E+00 0.00000000E+00 0.29119480E+02 0.29121238E+02 0.32000000E+00 0.0000E+00 0.9000E+01
        2 -1    0    0  501    0 0.00000000E+00 0.00000000E+00 -.92232652E+03 0.92232657E+03 0.32000000E+00 0.0000E+00 0.9000E+01
       25  1    1    2    0    0 0.11398091E+03 -.44322298E+02 -.39054609E+03 0.42791046E+03 0.12500000E+03 0.0000E+00 0.9000E+01
       24  1    1    2    0    0 -.11398091E+03 0.44322298E+02 -.50266095E+03 0.52353735E+03 0.80419002E+02 0.0000E+00 0.9000E+01
#aMCatNLO 1  0  0  2  2 0.19322665D+02 0.00000000D+00  -5  5  0 0.00000000D+00 0.00000000D+00 0.00000000D+00 0.00000000D+00 0.00000000D+00
  <mgrwgt>
 0.4940022000D+00    4    2    0
 0.163885726060660D+03 0.000000000000000D+00 0.000000000000000D+00 0.163885726060660D+03
 0.163885726060660D+03 0.000000000000000D+00 0.000000000000000D+00 -.163885726060660D+03
 0.177855496744410D+03 0.113980907969817D+03 -.443222977808556D+02 0.324262896428556D+02
 0.149915955376910D+03 -.113980907969817D+03 0.443222977808556D+02 -.324262896428556D+02
 0.000000000000000D+00 0.000000000000000D+00 0.000000000000000D+00 0.000000000000000D+00
 0.259944474667617D+03 0.000000000000000D+00 0.000000000000000D+00 0.259944474667617D+03
 0.165144852551249D+03 0.000000000000000D+00 0.000000000000000D+00 -.165144852551249D+03
 0.178203466849662D+03 0.110233734400884D+03 -.541159416186371D+02 0.324262896428556D+02
 0.150137042678086D+03 -.117138673336096D+03 0.360691360973337D+02 -.324262896428556D+02
 0.967488176911171D+02 0.690493893521207D+01 0.180468055213034D+02 0.947996221163685D+02
0.744166447267D-03 0.000000000000D+00 0.000000000000D+00 0.222998026245D-02 0.000000000000D+00  5 -1 2 25 24 21 0 0.44800595D-02 0.14189653D+00 0.25799053D+05 0.25799053D+05 0.25799053D+05 0.12218354D+01  1  2  2  2  5  2        2 0.504733302959D+00 0.100000000000D+01
-.413222259796D-04 0.000000000000D+00 -.285779510103D-05 0.222998026245D-02 0.000000000000D+00  5 -1 2 25 24 21 2 0.44800595D-02 0.14189653D+00 0.25799053D+05 0.25799053D+05 0.25799053D+05 0.12218354D+01  1  2  3  2  5  2        2 -.418408992819D-01 0.100000000000D+01
0.513134146484D-04 0.000000000000D+00 0.000000000000D+00 0.222998026245D-02 0.000000000000D+00  5 -1 2 25 24 21 2 0.44800595D-02 0.14189653D+00 0.25799053D+05 0.25799053D+05 0.25799053D+05 0.12218354D+01  1  2 15  2  5  2        2 0.519574965582D-01 0.100000000000D+01
-.205892654253D-04 0.000000000000D+00 0.000000000000D+00 0.222998026245D-02 0.000000000000D+00  5 -1 2 25 24 21 2 0.44800595D-02 0.14189653D+00 0.25799053D+05 0.25799053D+05 0.25799053D+05 0.12218354D+01  1  2  4  2  5  2        2 -.208477002515D-01 0.100000000000D+01
  </mgrwgt>
  </event>
  <event>
  4     66 0.45252658E-03 0.52326186E+02 0.75467711E-02 0.12316487E+00
       -1 -1    0    0    0  501 0.00000000E+00 0.00000000E+00 0.11396831E+02 0.11401323E+02 0.32000000E+00 0.0000E+00 0.9000E+01
        2 -1    0    0  501    0 0.00000000E+00 0.00000000E+00 -.12967096E+04 0.12967096E+04 0.32000000E+00 0.0000E+00 0.9000E+01
       25  1    1    2    0    0 -.40828969E+02 -.48811157E+02 -.70804063E+03 0.72180058E+03 0.12500000E+03 0.0000E+00 0.9000E+01
       24  1    1    2    0    0 0.40828969E+02 0.48811157E+02 -.57727212E+03 0.58631038E+03 0.80419002E+02 0.0000E+00 0.9000E+01
#aMCatNLO 1  0  0  2  1 0.11349130D+02 0.00000000D+00  -5  5  0 0.00000000D+00 0.00000000D+00 0.00000000D+00 0.00000000D+00 0.00000000D+00
  <mgrwgt>
 0.5442396913D+00    9    2    0
 0.121578549816804D+03 0.000000000000000D+00 0.000000000000000D+00 0.121578549816804D+03
 0.121578549816804D+03 0.000000000000000D+00 0.000000000000000D+00 -.121578549816804D+03
 0.140409552611764D+03 -.408289691260385D+02 -.488111570094199D+02 0.634891298904483D+01
 0.102747547021845D+03 0.408289691260385D+02 0.488111570094199D+02 -.634891298904483D+01
 0.000000000000000D+00 0.000000000000000D+00 0.000000000000000D+00 -.000000000000000D+00
 0.122577123307225D+03 0.000000000000000D+00 0.000000000000000D+00 0.122577123307225D+03
 0.158884786639210D+03 0.000000000000000D+00 0.000000000000000D+00 -.158884786639210D+03
 0.143373589482600D+03 -.464871818031171D+02 -.522457595694303D+02 0.634891298904483D+01
 0.100048221060739D+03 0.367855239187075D+02 0.463567375570335D+02 -.634891298904483D+01
 0.380400994030960D+02 0.970165788440954D+01 0.588902201239681D+01 -.363076633319855D+02
0.222518687180D-03 0.000000000000D+00 0.000000000000D+00 0.274750479147D-02 0.000000000000D+00  5 -1 2 25 24 21 0 0.17537072D-02 0.19949413D+00 0.14740041D+05 0.14740041D+05 0.14740041D+05 0.12486890D+01  1  2  2  2  5  2        2 0.354991942528D+00 0.100000000000D+01
-.123621198672D-04 0.000000000000D+00 -.854530349287D-06 0.274750479147D-02 0.000000000000D+00  5 -1 2 25 24 21 2 0.17537072D-02 0.19949413D+00 0.14740041D+05 0.14740041D+05 0.14740041D+05 0.12486890D+01  1  2  3  2  5  2        2 -.307505964724D-01 0.100000000000D+01
0.153920203492D-04 0.000000000000D+00 0.000000000000D+00 0.274750479147D-02 0.000000000000D+00  5 -1 2 25 24 21 2 0.17537072D-02 0.19949413D+00 0.14740041D+05 0.14740041D+05 0.14740041D+05 0.12486890D+01  1  2 15  2  5  2        2 0.382874306137D-01 0.100000000000D+01
0.213820552151D-02 0.000000000000D+00 0.000000000000D+00 0.274750479147D-02 0.000000000000D+00  5 -1 2 25 24 21 2 0.17537072D-02 0.26135062D+00 0.16183484D+05 0.16183484D+05 0.16183484D+05 0.12440801D+01  1  2 12  2  5  2        2 0.326846924406D+01 0.100000000000D+01
-.209029350309D-02 0.000000000000D+00 0.000000000000D+00 0.274750479147D-02 0.000000000000D+00  5 -1 2 25 24 21 2 0.17537072D-02 0.19949413D+00 0.14740041D+05 0.14740041D+05 0.14740041D+05 0.12486890D+01  1  2  4  2  5  2        2 -.519957521145D+01 0.100000000000D+01
-.234758575946D-02 0.000000000000D+00 -.123996659721D-03 0.274750479147D-02 0.000000000000D+00  5 -1 2 25 24 21 2 0.17537072D-02 0.26142548D+00 0.14740041D+05 0.14740041D+05 0.14740041D+05 0.12486890D+01  1  2  5  2  5  2        2 -.360656798986D+01 0.100000000000D+01
0.230090001869D-02 0.000000000000D+00 0.119598814773D-03 0.274750479147D-02 0.000000000000D+00  5 -1 2 25 24 21 2 0.17537072D-02 0.19949413D+00 0.14740041D+05 0.14740041D+05 0.14740041D+05 0.12486890D+01  1  2  6  2  5  2        2 0.572345590871D+01 0.100000000000D+01
0.765835163442D-04 0.000000000000D+00 0.000000000000D+00 0.274750479147D-02 0.000000000000D+00  5 -1 21 25 24 -2 2 0.17537072D-02 0.26135062D+00 0.16183484D+05 0.16183484D+05 0.16183484D+05 0.12440801D+01  1  2 12  4  5  2        2 0.511001237120D-01 0.100000000000D+01
-.817885351759D-04 0.000000000000D+00 -.444459088149D-05 0.274750479147D-02 0.000000000000D+00  5 -1 21 25 24 -2 2 0.17537072D-02 0.26142548D+00 0.14740041D+05 0.14740041D+05 0.14740041D+05 0.12486890D+01  1  2  5  4  5  2        2 -.551711605040D-01 0.100000000000D+01
  </mgrwgt>
  </event>
  <event>
  4     66 0.45252658E-03 0.75108356E+02 0.75467711E-02 0.11897988E+00
       -1 -1    0    0    0  501 0.00000000E+00 0.00000000E+00 0.11626867E+02 0.11631270E+02 0.32000000E+00 0.0000E+00 0.9000E+01
        2 -1    0    0  501    0 0.00000000E+00 0.00000000E+00 -.99320109E+03 0.99320114E+03 0.32000000E+00 0.0000E+00 0.9000E+01
       25  1    1    2    0    0 -.22498431E+02 0.67295181E+01 -.68230123E+03 0.69405435E+03 0.12500000E+03 0.0000E+00 0.9000E+01
       24  1    1    2    0    0 0.22498431E+02 -.67295181E+01 -.29927299E+03 0.31077806E+03 0.80419002E+02 0.0000E+00 0.9000E+01
#aMCatNLO 1  0  0  2  1 0.88995479D+02 0.00000000D+00  -5  5  0 0.00000000D+00 0.00000000D+00 0.00000000D+00 0.00000000D+00 0.00000000D+00
  <mgrwgt>
 0.3466152086D+00    7    2    0
 0.107471181053924D+03 0.000000000000000D+00 0.000000000000000D+00 0.107471181053924D+03
 0.107471181053924D+03 0.000000000000000D+00 0.000000000000000D+00 -.107471181053924D+03
 0.128774064198556D+03 -.224984308151078D+02 0.672951813909880D+01 -.201567310516172D+02
 0.861682979092915D+02 0.224984308151078D+02 -.672951813909880D+01 0.201567310516172D+02
 0.000000000000000D+00 -.000000000000000D+00 -.000000000000000D+00 -.000000000000000D+00
 0.122331656687462D+03 0.000000000000000D+00 0.000000000000000D+00 0.122331656687462D+03
 0.445630985304316D+03 0.000000000000000D+00 0.000000000000000D+00 -.445630985304316D+03
 0.130888457515166D+03 0.278981821869486D+02 0.179495385644316D+02 -.201567310516172D+02
 0.101749489336362D+03 0.589704635810188D+02 0.139041151907544D+01 0.201567310516172D+02
 0.335324695140250D+03 -.868686457679673D+02 -.193399500835070D+02 -.323299328616854D+03
0.156995303009D-03 0.000000000000D+00 0.000000000000D+00 0.299415785621D-02 0.000000000000D+00  5 -1 2 25 24 21 0 0.17890914D-02 0.15280051D+00 0.11126485D+05 0.11126485D+05 0.11126485D+05 0.12628892D+01  1  2  2  2  5  2        2 0.356467967216D+00 0.100000000000D+01
-.871826049923D-05 0.000000000000D+00 -.602903301367D-06 0.299415785621D-02 0.000000000000D+00  5 -1 2 25 24 21 2 0.17890914D-02 0.15280051D+00 0.11126485D+05 0.11126485D+05 0.11126485D+05 0.12628892D+01  1  2  3  2  5  2        2 -.315714277745D-01 0.100000000000D+01
0.108247896226D-04 0.000000000000D+00 0.000000000000D+00 0.299415785621D-02 0.000000000000D+00  5 -1 2 25 24 21 2 0.17890914D-02 0.15280051D+00 0.11126485D+05 0.11126485D+05 0.11126485D+05 0.12628892D+01  1  2 15  2  5  2        2 0.391997995214D-01 0.100000000000D+01
0.197055342745D-04 0.000000000000D+00 0.000000000000D+00 0.299415785621D-02 0.000000000000D+00  5 -1 2 25 24 21 2 0.17890914D-02 0.60261315D+00 0.25289830D+05 0.25289830D+05 0.25289830D+05 0.12227613D+01  1  2 12  2  5  2        2 0.145903945135D-02 0.100000000000D+01
-.360264137269D-03 0.000000000000D+00 -.616289231527D-04 0.299415785621D-02 0.000000000000D+00  5 -1 2 25 24 21 2 0.17890914D-02 0.64198578D+00 0.11126485D+05 0.11126485D+05 0.11126485D+05 0.12628892D+01  1  2  5  2  5  2        2 -.188223634593D-01 0.100000000000D+01
0.322081308358D-05 0.000000000000D+00 0.000000000000D+00 0.299415785621D-02 0.000000000000D+00  5 -1 21 25 24 -2 2 0.17890914D-02 0.60261315D+00 0.25289830D+05 0.25289830D+05 0.25289830D+05 0.12227613D+01  1  2 12  4  5  2        2 0.116202051574D-04 0.100000000000D+01
-.618772821720D-04 0.000000000000D+00 -.106208597622D-04 0.299415785621D-02 0.000000000000D+00  5 -1 21 25 24 -2 2 0.17890914D-02 0.64198578D+00 0.11126485D+05 0.11126485D+05 0.11126485D+05 0.12628892D+01  1  2  5  4  5  2        2 -.129426561988D-03 0.100000000000D+01
  </mgrwgt>
  </event>
  <event>
  4     66 0.45252658E-03 0.14560881E+03 0.75467711E-02 0.11183620E+00
       -3 -1    0    0    0  501 0.00000000E+00 0.00000000E+00 0.50611609E+02 0.50614079E+02 0.50000000E+00 0.0000E+00 0.9000E+01
        4 -1    0    0  501    0 0.00000000E+00 0.00000000E+00 -.73211548E+03 0.73211712E+03 0.15500000E+01 0.0000E+00 0.9000E+01
       25  1    1    2    0    0 -.50994259E+02 0.88332471E+02 -.10667404E+03 0.19340990E+03 0.12500000E+03 0.0000E+00 0.9000E+01
       24  1    1    2    0    0 0.50994259E+02 -.88332471E+02 -.57482983E+03 0.58932129E+03 0.80419002E+02 0.0000E+00 0.9000E+01
#aMCatNLO 1  0  0  1  1 0.15504021D+03 0.00000000D+00  -5  5  0 0.00000000D+00 0.00000000D+00 0.00000000D+00 0.00000000D+00 0.00000000D+00
  <mgrwgt>
 0.1200900880D-01    3    2    0
 0.192497145453397D+03 0.000000000000000D+00 0.000000000000000D+00 0.192497145453397D+03
 0.192497145453397D+03 0.000000000000000D+00 0.000000000000000D+00 -.192497145453397D+03
 0.204390547851728D+03 -.509942588670377D+02 0.883324711699548D+02 0.125488868632800D+03
 0.180603743055065D+03 0.509942588670377D+02 -.883324711699548D+02 -.125488868632800D+03
 0.000000000000000D+00 -.000000000000000D+00 0.000000000000000D+00 -.000000000000000D+00
 0.271797004316725D+03 0.000000000000000D+00 0.000000000000000D+00 0.271797004316725D+03
 0.301011518812464D+03 0.000000000000000D+00 0.000000000000000D+00 -.301011518812464D+03
 0.188602167832836D+03 0.202940868620459D+02 0.615343123707498D+02 0.125488868632800D+03
 0.226437676324483D+03 0.124831020396421D+03 -.116088610556371D+03 -.125488868632800D+03
 0.157768678971870D+03 -.145125107258467D+03 0.545542981856211D+02 -.292145144957390D+02
0.814063345607D-03 0.000000000000D+00 0.000000000000D+00 0.130603838617D-02 0.000000000000D+00  5 -3 4 25 24 21 0 0.77867176D-02 0.11263347D+00 0.21201927D+05 0.21201927D+05 0.21201927D+05 0.12310455D+01  1  2  2  1  5  1       -3 0.116954884006D-01 0.100000000000D+01
-.409405890170D-04 0.000000000000D+00 -.312621759493D-05 0.130603838617D-02 0.000000000000D+00  5 -3 4 25 24 21 2 0.77867176D-02 0.11263347D+00 0.21201927D+05 0.21201927D+05 0.21201927D+05 0.12310455D+01  1  2  3  1  5  1       -3 -.891379075250D-03 0.100000000000D+01
0.553404220535D-04 0.000000000000D+00 0.000000000000D+00 0.130603838617D-02 0.000000000000D+00  5 -3 4 25 24 21 2 0.77867176D-02 0.11263347D+00 0.21201927D+05 0.21201927D+05 0.21201927D+05 0.12310455D+01  1  2 15  1  5  1       -3 0.120489947552D-02 0.100000000000D+01
  </mgrwgt>
  </event>
  <event>
  5     66 0.45252658E-03 0.13114390E+03 0.75467711E-02 0.11753909E+00
       21 -1    0    0  502  501 0.00000000E+00 0.00000000E+00 0.15366388E+02 0.15384680E+02 0.75000000E+00 0.0000E+00 0.9000E+01
        2 -1    0    0  501    0 0.00000000E+00 0.00000000E+00 -.19586544E+04 0.19586544E+04 0.32000000E+00 0.0000E+00 0.9000E+01
       25  1    1    2    0    0 -.41223975E+02 -.11504164E+03 -.94152856E+03 0.95761946E+03 0.12500000E+03 0.0000E+00 0.9000E+01
       24  1    1    2    0    0 0.34207831E+02 0.42706259E+02 -.64932329E+03 0.65656832E+03 0.80419002E+02 0.0000E+00 0.9000E+01
        1  1    1    2  502    0 0.70161446E+01 0.72335379E+02 -.35243615E+03 0.35985133E+03 0.32000000E+00 0.0000E+00 0.9000E+01
#aMCatNLO 2  0  0  1  1 0.72674847D+02 0.00000000D+00  -5  5  0 0.00000000D+00 0.00000000D+00 0.00000000D+00 0.00000000D+00 0.00000000D+00
  <mgrwgt>
 0.1228661575D+00    1    2    0
 0.131824616193876D+03 0.000000000000000D+00 0.000000000000000D+00 0.131824616193876D+03
 0.131824616193876D+03 0.000000000000000D+00 0.000000000000000D+00 -.131824616193876D+03
 0.149191979570381D+03 -.369852027199778D+02 -.713405426217598D+02 0.132615431350926D+02
 0.114457252817370D+03 0.369852027199778D+02 0.713405426217598D+02 -.132615431350926D+02
 0.000000000000000D+00 0.000000000000000D+00 0.000000000000000D+00 0.000000000000000D+00
 0.180191353576294D+03 0.000000000000000D+00 0.000000000000000D+00 0.180191353576294D+03
 0.167130125348151D+03 0.000000000000000D+00 0.000000000000000D+00 -.167130125348151D+03
 0.175313613800334D+03 -.412239750835590D+02 -.115041638269449D+03 0.132615431350926D+02
 0.981686545096727D+02 0.342078305015285D+02 0.427062592593137D+02 -.132615431350926D+02
 0.738392106144390D+02 0.701614458203049D+01 0.723353790101349D+02 0.130612282281437D+02
0.875316349269D-05 0.000000000000D+00 0.000000000000D+00 0.257303703027D-02 0.205101408601D-06  5 21 2 25 24 1 2 0.23654641D-02 0.30133225D+00 0.29713992D+05 0.29713992D+05 0.29713992D+05 0.12153353D+01  1  2  1  3  5  1       -1 0.122866157460D+00 0.100000000000D+01
  </mgrwgt>
  </event>
  <event>
  4     66 0.45252658E-03 0.70477639E+02 0.75467711E-02 0.12458226E+00
       -1 -1    0    0    0  501 0.00000000E+00 0.00000000E+00 0.77831448E+01 0.77897204E+01 0.32000000E+00 0.0000E+00 0.9000E+01
        2 -1    0    0  501    0 0.00000000E+00 0.00000000E+00 -.15392551E+04 0.15392552E+04 0.32000000E+00 0.0000E+00 0.9000E+01
       25  1    1    2    0    0 -.13657419E+00 -.35628404E+02 -.83885932E+03 0.84886946E+03 0.12500000E+03 0.0000E+00 0.9000E+01
       24  1    1    2    0    0 0.13657419E+00 0.35628404E+02 -.69261266E+03 0.69817541E+03 0.80419002E+02 0.0000E+00 0.9000E+01
#aMCatNLO 1  0  0  1  2 0.18051416D+02 0.00000000D+00  -5  5  0 0.00000000D+00 0.00000000D+00 0.00000000D+00 0.00000000D+00 0.00000000D+00
  <mgrwgt>
 0.5346024647D+00    6    2    0
 0.109477658088973D+03 0.000000000000000D+00 0.000000000000000D+00 0.109477658088973D+03
 0.109477658088973D+03 0.000000000000000D+00 0.000000000000000D+00 -.109477658088973D+03
 0.130390107728211D+03 -.136574192492381D+00 -.356284042270048D+02 0.103526978658448D+02
 0.885652084497344D+02 0.136574192492381D+00 0.356284042270048D+02 -.103526978658448D+02
 0.000000000000000D+00 -.000000000000000D+00 0.000000000000000D+00 -.000000000000000D+00
 0.117933726495256D+03 0.000000000000000D+00 0.000000000000000D+00 0.117933726495256D+03
 0.119925396376235D+03 0.000000000000000D+00 0.000000000000000D+00 -.119925396376235D+03
 0.133025269796955D+03 0.704491766395119D+01 -.437482935273980D+02 0.103526978658448D+02
 0.866728960861557D+02 0.491408958467131D+01 0.302266162850452D+02 -.103526978658448D+02
 0.181609569883794D+02 -.119590072486225D+02 0.135216772423528D+02 -.199166988097890D+01
0.160330494180D-03 0.000000000000D+00 0.000000000000D+00 0.300340861107D-02 0.000000000000D+00  5 -1 2 25 24 21 0 0.11979153D-02 0.23680899D+00 0.11874081D+05 0.11874081D+05 0.11874081D+05 0.12595614D+01  1  2  2  1  5  1       -1 0.326763367795D+00 0.100000000000D+01
-.890701410672D-05 0.000000000000D+00 -.615711313639D-06 0.300340861107D-02 0.000000000000D+00  5 -1 2 25 24 21 2 0.11979153D-02 0.23680899D+00 0.11874081D+05 0.11874081D+05 0.11874081D+05 0.12595614D+01  1  2  3  1  5  1       -1 -.287997052307D-01 0.100000000000D+01
0.110771995862D-04 0.000000000000D+00 0.000000000000D+00 0.300340861107D-02 0.000000000000D+00  5 -1 2 25 24 21 2 0.11979153D-02 0.23680899D+00 0.11874081D+05 0.11874081D+05 0.11874081D+05 0.12595614D+01  1  2 15  1  5  1       -1 0.358167259018D-01 0.100000000000D+01
0.135701510585D-03 0.000000000000D+00 0.000000000000D+00 0.300340861107D-02 0.000000000000D+00  5 -1 2 25 24 21 2 0.13429503D-02 0.23680899D+00 0.14009753D+05 0.14009753D+05 0.14009753D+05 0.12512181D+01  1  2 12  1  5  1       -1 0.369842710496D+00 0.100000000000D+01
-.986933125041D-04 0.000000000000D+00 0.000000000000D+00 0.300340861107D-02 0.000000000000D+00  5 -1 2 25 24 21 2 0.11979153D-02 0.23680899D+00 0.11874081D+05 0.11874081D+05 0.11874081D+05 0.12595614D+01  1  2  4  1  5  1       -1 -.319112361820D+00 0.100000000000D+01
0.247089933514D-05 0.000000000000D+00 0.000000000000D+00 0.300340861107D-02 0.000000000000D+00  5 21 2 25 24 1 2 0.13429503D-02 0.23680899D+00 0.14009753D+05 0.14009753D+05 0.14009753D+05 0.12512181D+01  1  2 12  3  5  1       -1 0.150091727514D+00 0.100000000000D+01
  </mgrwgt>
  </event>
  <event>
  4     66 0.45252658E-03 0.32727505E+03 0.75467711E-02 0.10300407E+00
       -1 -1    0    0    0  501 0.00000000E+00 0.00000000E+00 0.18009666E+04 0.18009666E+04 0.32000000E+00 0.0000E+00 0.9000E+01
        2 -1    0    0  501    0 0.00000000E+00 0.00000000E+00 -.61072550E+02 0.61073388E+02 0.32000000E+00 0.0000E+00 0.9000E+01
       25  1    1    2    0    0 -.22431782E+03 0.21399371E+03 0.10387128E+04 0.10911742E+04 0.12500000E+03 0.0000E+00 0.9000E+01
       24  1    1    2    0    0 0.22431782E+03 -.21399371E+03 0.70118125E+03 0.77086585E+03 0.80419002E+02 0.0000E+00 0.9000E+01
#aMCatNLO 1  0  0  2  1 0.20019226D+03 0.00000000D+00  -5  5  0 0.00000000D+00 0.00000000D+00 0.00000000D+00 0.00000000D+00 0.00000000D+00
  <mgrwgt>
 0.4036460405D+00    3    2    0
 0.331648049219357D+03 0.000000000000000D+00 0.000000000000000D+00 0.331648049219357D+03
 0.331648049219357D+03 0.000000000000000D+00 0.000000000000000D+00 -.331648049219357D+03
 0.338551289014665D+03 -.224317818747816D+03 0.213993705676255D+03 0.536673589499014D+02
 0.324744809424049D+03 0.224317818747816D+03 -.213993705676255D+03 -.536673589499014D+02
 0.000000000000000D+00 0.000000000000000D+00 0.000000000000000D+00 0.000000000000000D+00
 0.591425102864813D+03 0.000000000000000D+00 0.000000000000000D+00 0.591425102864813D+03
 0.387318782448566D+03 0.000000000000000D+00 0.000000000000000D+00 -.387318782448566D+03
 0.318070033034428D+03 -.259545052070475D+03 0.123692062977375D+03 0.536673589499014D+02
 0.374778186790844D+03 0.186788943314214D+03 -.310195387745795D+03 -.536673589499014D+02
 0.285895665488107D+03 0.727561087562612D+02 0.186503324768420D+03 0.204106320416247D+03
0.945755820231D-01 0.000000000000D+00 0.000000000000D+00 0.193695398681D-02 0.000000000000D+00  5 -1 2 25 24 21 0 0.27707185D+00 0.93958436D-02 0.10710896D+06 0.10710896D+06 0.10710896D+06 0.11608417D+01  1  2  2  2  5  2        2 0.396642657753D+00 0.100000000000D+01
-.525307349156D-02 0.000000000000D+00 -.363195137291D-03 0.193695398681D-02 0.000000000000D+00  5 -1 2 25 24 21 2 0.27707185D+00 0.93958436D-02 0.10710896D+06 0.10710896D+06 0.10710896D+06 0.11608417D+01  1  2  3  2  5  2        2 -.296879268695D-01 0.100000000000D+01
0.649227366431D-02 0.000000000000D+00 0.000000000000D+00 0.193695398681D-02 0.000000000000D+00  5 -1 2 25 24 21 2 0.27707185D+00 0.93958436D-02 0.10710896D+06 0.10710896D+06 0.10710896D+06 0.11608417D+01  1  2 15  2  5  2        2 0.366913095872D-01 0.100000000000D+01
  </mgrwgt>
  </event>
  <event>
  4     66 0.45252658E-03 0.10475885E+03 0.75467711E-02 0.12631593E+00
       -1 -1    0    0    0  501 0.00000000E+00 0.00000000E+00 0.17336478E+02 0.17339431E+02 0.32000000E+00 0.0000E+00 0.9000E+01
        2 -1    0    0  501    0 0.00000000E+00 0.00000000E+00 -.68840735E+03 0.68840743E+03 0.32000000E+00 0.0000E+00 0.9000E+01
       25  1    1    2    0    0 -.10111828E+02 0.17426284E+02 -.49801208E+03 0.51385500E+03 0.12500000E+03 0.0000E+00 0.9000E+01
       24  1    1    2    0    0 0.10111828E+02 -.17426284E+02 -.17305880E+03 0.19189186E+03 0.80419002E+02 0.0000E+00 0.9000E+01
#aMCatNLO 1  0  0  1  1 0.75490736D+01 0.00000000D+00  -5  5  0 0.00000000D+00 0.00000000D+00 0.00000000D+00 0.00000000D+00 0.00000000D+00
  <mgrwgt>
 0.3109857406D+00    6    2    0
 0.109250295373333D+03 0.000000000000000D+00 0.000000000000000D+00 0.109250295373333D+03
 0.109250295373333D+03 0.000000000000000D+00 0.000000000000000D+00 -.109250295373333D+03
 0.130206266280174D+03 -.101118279215466D+02 0.174262837984551D+02 -.303767567012081D+02
 0.882943244664921D+02 0.101118279215466D+02 -.174262837984551D+02 0.303767567012081D+02
 0.000000000000000D+00 -.000000000000000D+00 0.000000000000000D+00 -.000000000000000D+00
 0.110347520493906D+03 0.000000000000000D+00 0.000000000000000D+00 0.110347520493906D+03
 0.123120295065194D+03 0.000000000000000D+00 0.000000000000000D+00 -.123120295065194D+03
 0.129611847484670D+03 -.894734372337241D+01 0.130930783622784D+02 -.303767567012081D+02
 0.890191125126602D+02 0.109065326959530D+02 -.203834892753628D+02 0.303767567012081D+02
 0.148368555617704D+02 -.195918897258057D+01 0.729041091308436D+01 -.127727745712878D+02
0.194211765275D-03 0.000000000000D+00 0.000000000000D+00 0.283626283705D-02 0.000000000000D+00  5 -1 2 25 24 21 0 0.26673833D-02 0.10590906D+00 0.10974416D+05 0.10974416D+05 0.10974416D+05 0.12635970D+01  1  2  2  1  5  1       -1 0.392927357557D+00 0.100000000000D+01
-.107664229088D-04 0.000000000000D+00 -.745824315788D-06 0.283626283705D-02 0.000000000000D+00  5 -1 2 25 24 21 2 0.26673833D-02 0.10590906D+00 0.10974416D+05 0.10974416D+05 0.10974416D+05 0.12635970D+01  1  2  3  1  5  1       -1 -.347796599214D-01 0.100000000000D+01
0.132709927821D-04 0.000000000000D+00 0.000000000000D+00 0.283626283705D-02 0.000000000000D+00  5 -1 2 25 24 21 2 0.26673833D-02 0.10590906D+00 0.10974416D+05 0.10974416D+05 0.10974416D+05 0.12635970D+01  1  2 15  1  5  1       -1 0.428703776259D-01 0.100000000000D+01
-.288178283596D-04 0.000000000000D+00 0.000000000000D+00 0.283626283705D-02 0.000000000000D+00  5 -1 2 25 24 21 2 0.26673833D-02 0.10590906D+00 0.10974416D+05 0.10974416D+05 0.10974416D+05 0.12635970D+01  1  2  4  1  5  1       -1 -.930925970964D-01 0.100000000000D+01
0.417971852340D-06 0.000000000000D+00 0.000000000000D+00 0.283626283705D-02 0.424248168911D-03  5 -1 2 25 24 21 2 0.26941724D-02 0.11935487D+00 0.11796880D+05 0.11796880D+05 0.11796880D+05 0.12598940D+01  1  2 11  1  5  1       -1 0.115098333269D-02 0.100000000000D+01
0.349680683457D-07 0.000000000000D+00 0.000000000000D+00 0.283626283705D-02 0.834941354952D-06  5 21 2 25 24 1 2 0.26941724D-02 0.11935487D+00 0.11796880D+05 0.11796880D+05 0.11796880D+05 0.12598940D+01  1  2 11  3  5  1       -1 0.190927905325D-02 0.100000000000D+01
  </mgrwgt>
  </event>
  <event>
  4     66 0.45252658E-03 0.93844069E+02 0.75467711E-02 0.11273967E+00
       -1 -1    0    0    0  501 0.00000000E+00 0.00000000E+00 0.24644260E+02 0.24646337E+02 0.32000000E+00 0.0000E+00 0.9000E+01
        2 -1    0    0  501    0 0.00000000E+00 0.00000000E+00 -.13206450E+04 0.13206451E+04 0.32000000E+00 0.0000E+00 0.9000E+01
       25  1    1    2    0    0 0.13916547E+02 -.14442582E+03 -.60148181E+03 0.63123519E+03 0.12500000E+03 0.0000E+00 0.9000E+01
       24  1    1    2    0    0 -.13916547E+02 0.14442582E+03 -.69451897E+03 0.71405623E+03 0.80419002E+02 0.0000E+00 0.9000E+01
#aMCatNLO 1  0  0  2  1 0.89463336D+02 0.00000000D+00  -5  5  0 0.00000000D+00 0.00000000D+00 0.00000000D+00 0.00000000D+00 0.00000000D+00
  <mgrwgt>
 0.4873143197D+00    9    2    0
 0.180409931227764D+03 0.000000000000000D+00 0.000000000000000D+00 0.180409931227764D+03
 0.180409931227764D+03 0.000000000000000D+00 0.000000000000000D+00 -.180409931227764D+03
 0.193100175028794D+03 0.139165465638612D+02 -.144425823043614D+03 0.247020032803251D+02
 0.167719687426734D+03 -.139165465638612D+02 0.144425823043614D+03 -.247020032803251D+02
 0.000000000000000D+00 0.000000000000000D+00 0.000000000000000D+00 -.000000000000000D+00
 0.214841606267113D+03 0.000000000000000D+00 0.000000000000000D+00 0.214841606267113D+03
 0.254944116535486D+03 0.000000000000000D+00 0.000000000000000D+00 -.254944116535486D+03
 0.209572871947164D+03 -.314556402230876D+02 -.163389541857112D+03 0.247020032803251D+02
 0.162172553901513D+03 -.510879751099691D+02 0.128889685846737D+03 -.247020032803251D+02
 0.980402969539222D+02 0.825436153330567D+02 0.344998560103749D+02 -.401025102683736D+02
0.709931354933D-03 0.000000000000D+00 0.000000000000D+00 0.219304103653D-02 0.000000000000D+00  5 -1 2 25 24 21 0 0.37915874D-02 0.20317632D+00 0.31934462D+05 0.31934462D+05 0.31934462D+05 0.12120604D+01  1  2  2  2  5  2        2 0.364159744582D+00 0.100000000000D+01
-.394362928073D-04 0.000000000000D+00 -.272632333216D-05 0.219304103653D-02 0.000000000000D+00  5 -1 2 25 24 21 2 0.37915874D-02 0.20317632D+00 0.31934462D+05 0.31934462D+05 0.31934462D+05 0.12120604D+01  1  2  3  2  5  2        2 -.297180419026D-01 0.100000000000D+01
0.488306095070D-04 0.000000000000D+00 0.000000000000D+00 0.219304103653D-02 0.000000000000D+00  5 -1 2 25 24 21 2 0.37915874D-02 0.20317632D+00 0.31934462D+05 0.31934462D+05 0.31934462D+05 0.12120604D+01  1  2 15  2  5  2        2 0.367973254116D-01 0.100000000000D+01
0.276489620809D-03 0.000000000000D+00 0.000000000000D+00 0.219304103653D-02 0.000000000000D+00  5 -1 2 25 24 21 2 0.37915874D-02 0.30008493D+00 0.52407924D+05 0.52407924D+05 0.52407924D+05 0.11902640D+01  1  2 12  2  5  2        2 0.937840256720D-01 0.100000000000D+01
-.429440589770D-03 0.000000000000D+00 0.000000000000D+00 0.219304103653D-02 0.000000000000D+00  5 -1 2 25 24 21 2 0.37915874D-02 0.20317632D+00 0.31934462D+05 0.31934462D+05 0.31934462D+05 0.12120604D+01  1  2  4  2  5  2        2 -.323613923444D+00 0.100000000000D+01
-.670154709322D-03 0.000000000000D+00 -.281644587672D-03 0.219304103653D-02 0.000000000000D+00  5 -1 2 25 24 21 2 0.37915874D-02 0.31231990D+00 0.31934462D+05 0.31934462D+05 0.31934462D+05 0.12120604D+01  1  2  5  2  5  2        2 -.214930022883D+00 0.100000000000D+01
0.745446664069D-03 0.000000000000D+00 0.257477062808D-03 0.219304103653D-02 0.000000000000D+00  5 -1 2 25 24 21 2 0.37915874D-02 0.20317632D+00 0.31934462D+05 0.31934462D+05 0.31934462D+05 0.12120604D+01  1  2  6  2  5  2        2 0.561746899162D+00 0.100000000000D+01
0.129189208857D-04 0.000000000000D+00 0.000000000000D+00 0.219304103653D-02 0.000000000000D+00  5 -1 21 25 24 -2 2 0.37915874D-02 0.30008493D+00 0.52407924D+05 0.52407924D+05 0.52407924D+05 0.11902640D+01  1  2 12  4  5  2        2 0.142374019395D-02 0.100000000000D+01
-.230727221294D-04 0.000000000000D+00 -.141422848166D-04 0.219304103653D-02 0.000000000000D+00  5 -1 21 25 24 -2 2 0.37915874D-02 0.31231990D+00 0.31934462D+05 0.31934462D+05 0.31934462D+05 0.12120604D+01  1  2  5  4  5  2        2 -.233542714019D-02 0.100000000000D+01
  </mgrwgt>
  </event>
  <event>
  4     66 0.45252658E-03 0.12299575E+03 0.75467711E-02 0.10544468E+00
       -1 -1    0    0    0  501 0.00000000E+00 0.00000000E+00 0.35742446E+02 0.35743879E+02 0.32000000E+00 0.0000E+00 0.9000E+01
        2 -1    0    0  501    0 0.00000000E+00 0.00000000E+00 -.58374016E+03 0.58374025E+03 0.32000000E+00 0.0000E+00 0.9000E+01
       25  1    1    2    0    0 0.84067396E+01 0.66012540E+02 -.46512599E+03 0.48620522E+03 0.12500000E+03 0.0000E+00 0.9000E+01
       24  1    1    2    0    0 -.84067396E+01 -.66012540E+02 -.82871724E+02 0.13327891E+03 0.80419002E+02 0.0000E+00 0.9000E+01
#aMCatNLO 1  0  0  1  1 0.33275993D+03 0.00000000D+00  -5  5  0 0.00000000D+00 0.00000000D+00 0.00000000D+00 0.00000000D+00 0.00000000D+00
  <mgrwgt>
 0.4331863665D+00    5    2    0
 0.144446434239813D+03 0.000000000000000D+00 0.000000000000000D+00 0.144446434239813D+03
 0.144446434239813D+03 0.000000000000000D+00 0.000000000000000D+00 -.144446434239813D+03
 0.160296226749100D+03 0.840673959552770D+01 0.660125399416782D+02 -.751102630125883D+02
 0.128596641730526D+03 -.840673959552770D+01 -.660125399416782D+02 0.751102630125883D+02
 0.000000000000000D+00 0.000000000000000D+00 -.000000000000000D+00 0.000000000000000D+00
 0.546812740876305D+03 0.000000000000000D+00 0.000000000000000D+00 0.546812740876305D+03
 0.305124471614689D+03 0.000000000000000D+00 0.000000000000000D+00 -.305124471614689D+03
 0.305336467387371D+03 -.985016971110835D+02 0.249521987754617D+03 -.751102630125883D+02
 0.135331502609639D+03 -.690041711539185D+02 0.380035840119424D+02 0.751102630125883D+02
 0.411269242493983D+03 0.167505868265002D+03 -.287525571766560D+03 0.241688269261616D+03
0.414886177223D-03 0.000000000000D+00 0.000000000000D+00 0.185464885491D-02 0.000000000000D+00  5 -1 2 25 24 21 0 0.54989548D-02 0.89806296D-01 0.15127955D+05 0.15127955D+05 0.15127955D+05 0.12474022D+01  1  2  2  1  5  1       -1 0.356958248548D+00 0.100000000000D+01
-.223249825966D-04 0.000000000000D+00 -.159327216258D-05 0.185464885491D-02 0.000000000000D+00  5 -1 2 25 24 21 2 0.54989548D-02 0.89806296D-01 0.15127955D+05 0.15127955D+05 0.15127955D+05 0.12474022D+01  1  2  3  1  5  1       -1 -.298877073570D-01 0.100000000000D+01
0.286156909475D-04 0.000000000000D+00 0.000000000000D+00 0.185464885491D-02 0.000000000000D+00  5 -1 2 25 24 21 2 0.54989548D-02 0.89806296D-01 0.15127955D+05 0.15127955D+05 0.15127955D+05 0.12474022D+01  1  2 15  1  5  1       -1 0.383094317390D-01 0.100000000000D+01
0.442464012551D-03 0.000000000000D+00 -.222612870441D-03 0.185464885491D-02 0.000000000000D+00  5 -1 2 25 24 21 2 0.43447357D-01 0.89806296D-01 0.15127955D+05 0.15127955D+05 0.15127955D+05 0.12474022D+01  1  2  5  1  5  1       -1 0.223360938768D-01 0.100000000000D+01
0.849975007695D-04 0.000000000000D+00 -.558978271897D-04 0.185464885491D-02 0.000000000000D+00  5 21 2 25 24 1 2 0.43447357D-01 0.89806296D-01 0.15127955D+05 0.15127955D+05 0.15127955D+05 0.12474022D+01  1  2  5  3  5  1       -1 0.454702996704D-01 0.100000000000D+01
  </mgrwgt>
  </event>
  <event>
  4     66 0.45252658E-03 0.12599464E+03 0.75467711E-02 0.11294518E+00
       -1 -1    0    0    0  501 0.00000000E+00 0.00000000E+00 0.13664738E+02 0.13668485E+02 0.32000000E+00 0.0000E+00 0.9000E+01
        2 -1    0    0  501    0 0.00000000E+00 0.00000000E+00 -.11676031E+04 0.11676032E+04 0.32000000E+00 0.0000E+00 0.9000E+01
       25  1    1    2    0    0 0.58668843E+02 -.41432992E+02 -.70179667E+03 0.71645118E+03 0.12500000E+03 0.0000E+00 0.9000E+01
       24  1    1    2    0    0 -.58668843E+02 0.41432992E+02 -.45214172E+03 0.46482048E+03 0.80419002E+02 0.0000E+00 0.9000E+01
#aMCatNLO 1  0  0  2  1 0.15581793D+03 0.00000000D+00  -5  5  0 0.00000000D+00 0.00000000D+00 0.00000000D+00 0.00000000D+00 0.00000000D+00
  <mgrwgt>
 0.4693511558D+00    3    2    0
 0.126321930181993D+03 0.000000000000000D+00 0.000000000000000D+00 0.126321930181993D+03
 0.126321930181993D+03 0.000000000000000D+00 0.000000000000000D+00 -.126321930181993D+03
 0.144445830031441D+03 0.586688427332174D+02 -.414329922366795D+02 -.899287830075460D+01
 0.108198030332546D+03 -.586688427332174D+02 0.414329922366795D+02 0.899287830075460D+01
 0.000000000000000D+00 -.000000000000000D+00 -.000000000000000D+00 0.000000000000000D+00
 0.266744522335199D+03 0.000000000000000D+00 0.000000000000000D+00 0.266744522335199D+03
 0.199710911280326D+03 0.000000000000000D+00 0.000000000000000D+00 -.199710911280326D+03
 0.161365797896901D+03 0.944585732198586D+02 0.375583122096817D+02 -.899287830075460D+01
 0.135464367175478D+03 -.301525577390299D+02 0.104371117755558D+03 0.899287830075460D+01
 0.169625268543146D+03 -.643060154808287D+02 -.141929429965240D+03 0.670336110548729D+02
0.317293404529D-03 0.000000000000D+00 0.000000000000D+00 0.266284101406D-02 0.000000000000D+00  5 -1 2 25 24 21 0 0.21025590D-02 0.17963154D+00 0.15874649D+05 0.15874649D+05 0.15874649D+05 0.12450264D+01  1  2  2  2  5  2        2 0.459784132161D+00 0.100000000000D+01
-.176272671168D-04 0.000000000000D+00 -.121849021866D-05 0.266284101406D-02 0.000000000000D+00  5 -1 2 25 24 21 2 0.21025590D-02 0.17963154D+00 0.15874649D+05 0.15874649D+05 0.15874649D+05 0.12450264D+01  1  2  3  2  5  2        2 -.395945140429D-01 0.100000000000D+01
0.218864551869D-04 0.000000000000D+00 0.000000000000D+00 0.266284101406D-02 0.000000000000D+00  5 -1 2 25 24 21 2 0.21025590D-02 0.17963154D+00 0.15874649D+05 0.15874649D+05 0.15874649D+05 0.12450264D+01  1  2 15  2  5  2        2 0.491615377190D-01 0.100000000000D+01
  </mgrwgt>
  </event>
  <event>
  4     66 0.45252658E-03 0.53291231E+02 0.75467711E-02 0.12249843E+00
       -1 -1    0    0    0  501 0.00000000E+00 0.00000000E+00 0.10730325E+02 0.10735095E+02 0.32000000E+00 0.0000E+00 0.9000E+01
        2 -1    0    0  501    0 0.00000000E+00 0.00000000E+00 -.17658716E+04 0.17658716E+04 0.32000000E+00 0.0000E+00 0.9000E+01
       25  1    1    2    0    0 0.28362564E+02 0.44155098E+02 -.14590088E+04 0.14652937E+04 0.12500000E+03 0.0000E+00 0.9000E+01
       24  1    1    2    0    0 -.28362564E+02 -.44155098E+02 -.29613252E+03 0.31131301E+03 0.80419002E+02 0.0000E+00 0.9000E+01
#aMCatNLO 1  0  0  2  1 0.29761642D+02 0.00000000D+00  -5  5  0 0.00000000D+00 0.00000000D+00 0.00000000D+00 0.00000000D+00 0.00000000D+00
  <mgrwgt>
 0.6244840788D+00    9    2    0
 0.137668585080780D+03 0.000000000000000D+00 0.000000000000000D+00 0.137668585080780D+03
 0.137668585080780D+03 0.000000000000000D+00 0.000000000000000D+00 -.137668585080780D+03
 0.154298711772820D+03 0.283625642686076D+02 0.441550976722051D+02 -.736816446098962D+02
 0.121038458388739D+03 -.283625642686076D+02 -.441550976722051D+02 0.736816446098962D+02
 0.000000000000000D+00 -.000000000000000D+00 0.000000000000000D+00 -.000000000000000D+00
 0.149313320208418D+03 0.000000000000000D+00 0.000000000000000D+00 0.149313320208418D+03
 0.158893110574767D+03 0.000000000000000D+00 0.000000000000000D+00 -.158893110574767D+03
 0.154415370143241D+03 0.409865724381509D+02 0.333200039589934D+02 -.736816446098962D+02
 0.122525621048004D+03 -.184026851807052D+02 -.527035889152666D+02 0.736816446098962D+02
 0.312654395919403D+02 -.225838872574456D+02 0.193835849562733D+02 -.957979036634883D+01
0.309455171384D-03 0.000000000000D+00 0.000000000000D+00 0.187655487263D-02 0.000000000000D+00  5 -1 2 25 24 21 0 0.16511884D-02 0.27167292D+00 0.13409326D+05 0.13409326D+05 0.13409326D+05 0.12534111D+01  1  2  2  2  5  2        2 0.306880192073D+00 0.100000000000D+01
-.165663770361D-04 0.000000000000D+00 -.118838933953D-05 0.187655487263D-02 0.000000000000D+00  5 -1 2 25 24 21 2 0.16511884D-02 0.27167292D+00 0.13409326D+05 0.13409326D+05 0.13409326D+05 0.12534111D+01  1  2  3  2  5  2        2 -.258098641280D-01 0.100000000000D+01
0.211041590534D-04 0.000000000000D+00 0.000000000000D+00 0.187655487263D-02 0.000000000000D+00  5 -1 2 25 24 21 2 0.16511884D-02 0.27167292D+00 0.13409326D+05 0.13409326D+05 0.13409326D+05 0.12534111D+01  1  2 15  2  5  2        2 0.328795775032D-01 0.100000000000D+01
0.339120274013D-03 0.000000000000D+00 0.000000000000D+00 0.187655487263D-02 0.000000000000D+00  5 -1 2 25 24 21 2 0.16511884D-02 0.32363531D+00 0.17339562D+05 0.17339562D+05 0.17339562D+05 0.12407098D+01  1  2 12  2  5  2        2 0.349629767555D+00 0.100000000000D+01
-.329274240508D-03 0.000000000000D+00 0.000000000000D+00 0.187655487263D-02 0.000000000000D+00  5 -1 2 25 24 21 2 0.16511884D-02 0.27167292D+00 0.13409326D+05 0.13409326D+05 0.13409326D+05 0.12534111D+01  1  2  4  2  5  2        2 -.512998309158D+00 0.100000000000D+01
-.823743771296D-03 0.000000000000D+00 -.219989825338D-03 0.187655487263D-02 0.000000000000D+00  5 -1 2 25 24 21 2 0.16511884D-02 0.32560595D+00 0.13409326D+05 0.13409326D+05 0.13409326D+05 0.12534111D+01  1  2  5  2  5  2        2 -.851617226429D+00 0.100000000000D+01
0.853113524347D-03 0.000000000000D+00 0.216431373060D-03 0.187655487263D-02 0.000000000000D+00  5 -1 2 25 24 21 2 0.16511884D-02 0.27167292D+00 0.13409326D+05 0.13409326D+05 0.13409326D+05 0.12534111D+01  1  2  6  2  5  2        2 0.132912248111D+01 0.100000000000D+01
0.874913442876D-05 0.000000000000D+00 0.000000000000D+00 0.187655487263D-02 0.000000000000D+00  5 -1 21 25 24 -2 2 0.16511884D-02 0.32363531D+00 0.17339562D+05 0.17339562D+05 0.17339562D+05 0.12407098D+01  1  2 12  4  5  2        2 0.280954074486D-02 0.100000000000D+01
-.196955623533D-04 0.000000000000D+00 -.582941896362D-05 0.187655487263D-02 0.000000000000D+00  5 -1 21 25 24 -2 2 0.16511884D-02 0.32560595D+00 0.13409326D+05 0.13409326D+05 0.13409326D+05 0.12534111D+01  1  2  5  4  5  2        2 -.641208048605D-02 0.100000000000D+01
  </mgrwgt>
  </event>
  <event>
  4     66 0.45252658E-03 0.11363115E+03 0.75467711E-02 0.11218307E+00
       -1 -1    0    0    0  501 0.00000000E+00 0.00000000E+00 0.94223053E+02 0.94223596E+02 0.32000000E+00 0.0000E+00 0.9000E+01
        2 -1    0    0  501    0 0.00000000E+00 0.00000000E+00 -.47996590E+03 0.47996601E+03 0.32000000E+00 0.0000E+00 0.9000E+01
       25  1    1    2    0    0 -.15833978E+03 -.96033034E+02 -.20256463E+03 0.30158126E+03 0.12500000E+03 0.0000E+00 0.9000E+01
       24  1    1    2    0    0 0.15833978E+03 0.96033034E+02 -.18317822E+03 0.27260834E+03 0.80419002E+02 0.0000E+00 0.9000E+01
#aMCatNLO 1  0  0  1  2 0.46119599D+02 0.00000000D+00  -5  5  0 0.00000000D+00 0.00000000D+00 0.00000000D+00 0.00000000D+00 0.00000000D+00
  <mgrwgt>
 0.4563434729D+00    9    2    0
 0.212659444407289D+03 0.000000000000000D+00 0.000000000000000D+00 0.212659444407289D+03
 0.212659444407289D+03 0.000000000000000D+00 0.000000000000000D+00 -.212659444407289D+03
 0.223425230134738D+03 -.158339783481525D+03 -.960330342927605D+02 0.524624635379967D-01
 0.201893658679839D+03 0.158339783481525D+03 0.960330342927605D+02 -.524624635379967D-01
 0.000000000000000D+00 0.000000000000000D+00 -.000000000000000D+00 0.000000000000000D+00
 0.250177465516749D+03 0.000000000000000D+00 0.000000000000000D+00 0.250177465516749D+03
 0.228566459766349D+03 0.000000000000000D+00 0.000000000000000D+00 -.228566459766349D+03
 0.222376534772313D+03 -.168330730610728D+03 -.741018596061539D+02 0.524624635379967D-01
 0.205435543852148D+03 0.149211052177542D+03 0.116071554996122D+03 -.524624635379967D-01
 0.509318466586377D+02 0.191196784331860D+02 -.419696953899683D+02 0.216110057504001D+02
0.137294277750D-02 0.000000000000D+00 0.000000000000D+00 0.213036918964D-02 0.000000000000D+00  5 -1 2 25 24 21 0 0.14495904D-01 0.73840958D-01 0.45224037D+05 0.45224037D+05 0.45224037D+05 0.11966241D+01  1  2  2  1  5  1       -1 0.343027026868D+00 0.100000000000D+01
-.762745987499D-04 0.000000000000D+00 -.527246176973D-05 0.213036918964D-02 0.000000000000D+00  5 -1 2 25 24 21 2 0.14495904D-01 0.73840958D-01 0.45224037D+05 0.45224037D+05 0.45224037D+05 0.11966241D+01  1  2  3  1  5  1       -1 -.272879749829D-01 0.100000000000D+01
0.939099125481D-04 0.000000000000D+00 0.000000000000D+00 0.213036918964D-02 0.000000000000D+00  5 -1 2 25 24 21 2 0.14495904D-01 0.73840958D-01 0.45224037D+05 0.45224037D+05 0.45224037D+05 0.11966241D+01  1  2 15  1  5  1       -1 0.335971789595D-01 0.100000000000D+01
0.141626601412D-02 0.000000000000D+00 0.000000000000D+00 0.213036918964D-02 0.000000000000D+00  5 -1 2 25 24 21 2 0.17522669D-01 0.73840958D-01 0.56152806D+05 0.56152806D+05 0.56152806D+05 0.11873222D+01  1  2 12  1  5  1       -1 0.369551241891D+00 0.100000000000D+01
-.139698665650D-02 0.000000000000D+00 0.000000000000D+00 0.213036918964D-02 0.000000000000D+00  5 -1 2 25 24 21 2 0.14495904D-01 0.73840958D-01 0.45224037D+05 0.45224037D+05 0.45224037D+05 0.11966241D+01  1  2  4  1  5  1       -1 -.499785479818D+00 0.100000000000D+01
-.302693877622D-02 0.000000000000D+00 -.789612692051D-03 0.213036918964D-02 0.000000000000D+00  5 -1 2 25 24 21 2 0.18270443D-01 0.73840958D-01 0.45224037D+05 0.45224037D+05 0.45224037D+05 0.11966241D+01  1  2  5  1  5  1       -1 -.748743983709D+00 0.100000000000D+01
0.314574074799D-02 0.000000000000D+00 0.768930782980D-03 0.213036918964D-02 0.000000000000D+00  5 -1 2 25 24 21 2 0.14495904D-01 0.73840958D-01 0.45224037D+05 0.45224037D+05 0.45224037D+05 0.11966241D+01  1  2  6  1  5  1       -1 0.112541915973D+01 0.100000000000D+01
0.388992016351D-04 0.000000000000D+00 0.000000000000D+00 0.213036918964D-02 0.000000000000D+00  5 21 2 25 24 1 2 0.17522669D-01 0.73840958D-01 0.56152806D+05 0.56152806D+05 0.56152806D+05 0.11873222D+01  1  2 12  3  5  1       -1 0.131188690367D+00 0.100000000000D+01
-.850881331840D-04 0.000000000000D+00 -.252342236837D-04 0.213036918964D-02 0.000000000000D+00  5 21 2 25 24 1 2 0.18270443D-01 0.73840958D-01 0.45224037D+05 0.45224037D+05 0.45224037D+05 0.11966241D+01  1  2  5  3  5  1       -1 -.270622386421D+00 0.100000000000D+01
  </mgrwgt>
  </event>
  <event>
  4     66 0.45252658E-03 0.11082093E+03 0.75467711E-02 0.12075734E+00
       -1 -1    0    0    0  501 0.00000000E+00 0.00000000E+00 0.21550970E+02 0.21553346E+02 0.32000000E+00 0.0000E+00 0.9000E+01
        2 -1    0    0  501    0 0.00000000E+00 0.00000000E+00 -.57271118E+03 0.57271127E+03 0.32000000E+00 0.0000E+00 0.9000E+01
       25  1    1    2    0    0 0.39357540E+02 -.10627719E+02 -.34737578E+03 0.37142550E+03 0.12500000E+03 0.0000E+00 0.9000E+01
       24  1    1    2    0    0 -.39357540E+02 0.10627719E+02 -.20378443E+03 0.22283912E+03 0.80419002E+02 0.0000E+00 0.9000E+01
#aMCatNLO 1  0  0  1  2 0.59282828D+02 0.00000000D+00  -5  5  0 0.00000000D+00 0.00000000D+00 0.00000000D+00 0.00000000D+00 0.00000000D+00
  <mgrwgt>
 0.4107011105D+00    3    2    0
 0.111100017453817D+03 0.000000000000000D+00 0.000000000000000D+00 0.111100017453817D+03
 0.111100017453817D+03 0.000000000000000D+00 0.000000000000000D+00 -.111100017453817D+03
 0.131707089026592D+03 0.393575401313265D+02 -.106277185393526D+02 -.773258904365529D+01
 0.904929458810424D+02 -.393575401313265D+02 0.106277185393526D+02 0.773258904365529D+01
 0.000000000000000D+00 0.000000000000000D+00 0.000000000000000D+00 -.000000000000000D+00
 0.119191134241277D+03 0.000000000000000D+00 0.000000000000000D+00 0.119191134241277D+03
 0.323934640998235D+03 0.000000000000000D+00 0.000000000000000D+00 -.323934640998235D+03
 0.125872074031496D+03 0.559388756519808D+01 -.113001995371908D+02 -.773258904365529D+01
 0.104100335636249D+03 -.648649603389578D+02 0.101196794473169D+02 0.773258904365529D+01
 0.213153365571768D+03 0.592710727737597D+02 0.118052008987392D+01 -.204743506756958D+03
0.219583048213D-03 0.000000000000D+00 0.000000000000D+00 0.297002272648D-02 0.000000000000D+00  5 -1 2 25 24 21 0 0.33157235D-02 0.88109602D-01 0.12281279D+05 0.12281279D+05 0.12281279D+05 0.12578465D+01  1  2  2  1  5  1       -1 0.402004109959D+00 0.100000000000D+01
-.121989644045D-04 0.000000000000D+00 -.843256722681D-06 0.297002272648D-02 0.000000000000D+00  5 -1 2 25 24 21 2 0.33157235D-02 0.88109602D-01 0.12281279D+05 0.12281279D+05 0.12281279D+05 0.12578465D+01  1  2  3  1  5  1       -1 -.353353950080D-01 0.100000000000D+01
0.152014609118D-04 0.000000000000D+00 0.000000000000D+00 0.297002272648D-02 0.000000000000D+00  5 -1 2 25 24 21 2 0.33157235D-02 0.88109602D-01 0.12281279D+05 0.12281279D+05 0.12281279D+05 0.12578465D+01  1  2 15  1  5  1       -1 0.440323955547D-01 0.100000000000D+01
  </mgrwgt>
  </event>
  <event>
  4     66 0.45252658E-03 0.12970020E+03 0.75467711E-02 0.11587539E+00
       -1 -1    0    0    0  501 0.00000000E+00 0.00000000E+00 0.18784180E+03 0.18784208E+03 0.32000000E+00 0.0000E+00 0.9000E+01
        2 -1    0    0  501    0 0.00000000E+00 0.00000000E+00 -.94748310E+02 0.94748850E+02 0.32000000E+00 0.0000E+00 0.9000E+01
       25  1    1    2    0    0 0.73833990E+02 -.25222284E+02 0.19742935E+02 0.14866878E+03 0.12500000E+03 0.0000E+00 0.9000E+01
       24  1    1    2    0    0 -.73833990E+02 0.25222284E+02 0.73350560E+02 0.13392215E+03 0.80419002E+02 0.0000E+00 0.9000E+01
#aMCatNLO 1  0  0  1  2 0.10092697D+03 0.00000000D+00  -5  5  0 0.00000000D+00 0.00000000D+00 0.00000000D+00 0.00000000D+00 0.00000000D+00
  <mgrwgt>
 0.3157745515D+00    3    2    0
 0.133408426852970D+03 0.000000000000000D+00 0.000000000000000D+00 0.133408426852970D+03
 0.133408426852970D+03 0.000000000000000D+00 0.000000000000000D+00 -.133408426852970D+03
 0.150569606738035D+03 0.738339903935589D+02 -.252222839900686D+02 -.309610194621346D+02
 0.116247246967905D+03 -.738339903935589D+02 0.252222839900686D+02 0.309610194621346D+02
 0.000000000000000D+00 0.000000000000000D+00 -.000000000000000D+00 -.000000000000000D+00
 0.185883538124914D+03 0.000000000000000D+00 0.000000000000000D+00 0.185883538124914D+03
 0.201513987098293D+03 0.000000000000000D+00 0.000000000000000D+00 -.201513987098293D+03
 0.131966380391962D+03 0.227268529863785D+02 -.177491121174209D+02 -.309610194621346D+02
 0.153301013750716D+03 -.122591814621007D+03 0.323519261315375D+02 0.309610194621346D+02
 0.102130131080530D+03 0.998649616346289D+02 -.146028140141166D+02 -.156304489733794D+02
0.647499600773D-03 0.000000000000D+00 0.000000000000D+00 0.245251241270D-02 0.000000000000D+00  5 -1 2 25 24 21 0 0.28898802D-01 0.14576726D-01 0.16822143D+05 0.16822143D+05 0.16822143D+05 0.12421861D+01  1  2  2  1  5  1       -1 0.309286847425D+00 0.100000000000D+01
-.359374442051D-04 0.000000000000D+00 -.248656895753D-05 0.245251241270D-02 0.000000000000D+00  5 -1 2 25 24 21 2 0.28898802D-01 0.14576726D-01 0.16822143D+05 0.16822143D+05 0.16822143D+05 0.12421861D+01  1  2  3  1  5  1       -1 -.264875893650D-01 0.100000000000D+01
0.447397364166D-04 0.000000000000D+00 0.000000000000D+00 0.245251241270D-02 0.000000000000D+00  5 -1 2 25 24 21 2 0.28898802D-01 0.14576726D-01 0.16822143D+05 0.16822143D+05 0.16822143D+05 0.12421861D+01  1  2 15  1  5  1       -1 0.329752933942D-01 0.100000000000D+01
  </mgrwgt>
  </event>
  <event>
  4     66 0.45252658E-03 0.16496755E+03 0.75467711E-02 0.10522429E+00
       -1 -1    0    0    0  501 0.00000000E+00 0.00000000E+00 0.18358909E+03 0.18358937E+03 0.32000000E+00 0.0000E+00 0.9000E+01
        2 -1    0    0  501    0 0.00000000E+00 0.00000000E+00 -.66076849E+03 0.66076856E+03 0.32000000E+00 0.0000E+00 0.9000E+01
       25  1    1    2    0    0 0.13951292E+03 -.26950250E+03 -.40666992E+03 0.52259055E+03 0.12500000E+03 0.0000E+00 0.9000E+01
       24  1    1    2    0    0 -.13951292E+03 0.26950250E+03 -.70509466E+02 0.32176739E+03 0.80419002E+02 0.0000E+00 0.9000E+01
#aMCatNLO 1  0  0  2  1 0.10323453D+03 0.00000000D+00  -5  5  0 0.00000000D+00 0.00000000D+00 0.00000000D+00 0.00000000D+00 0.00000000D+00
  <mgrwgt>
 0.6142893522D+00    9    2    0
 0.348295906316389D+03 0.000000000000000D+00 0.000000000000000D+00 0.348295906316389D+03
 0.348295906316389D+03 0.000000000000000D+00 0.000000000000000D+00 -.348295906316389D+03
 0.354869184870308D+03 0.139512920096547D+03 -.269502499528261D+03 -.134950680786246D+03
 0.341722627762470D+03 -.139512920096547D+03 0.269502499528261D+03 0.134950680786246D+03
 0.000000000000000D+00 0.000000000000000D+00 0.000000000000000D+00 -.000000000000000D+00
 0.378548806971640D+03 0.000000000000000D+00 0.000000000000000D+00 0.378548806971640D+03
 0.452835619596961D+03 0.000000000000000D+00 0.000000000000000D+00 -.452835619596961D+03
 0.388194309119418D+03 0.119241577974605D+03 -.320374127342015D+03 -.134950680786246D+03
 0.316005607440586D+03 -.157456250897894D+03 0.224473095911361D+03 0.134950680786246D+03
 0.127184510008597D+03 0.382146729232893D+02 0.959010314306535D+02 -.742868126253215D+02
0.772738019674D-02 0.000000000000D+00 0.000000000000D+00 0.168683038785D-02 0.000000000000D+00  5 -1 2 25 24 21 0 0.28244504D-01 0.10165672D+00 0.10309072D+06 0.10309072D+06 0.10309072D+06 0.11623592D+01  1  2  2  2  5  2        2 0.449445361456D+00 0.100000000000D+01
-.425842920441D-03 0.000000000000D+00 -.296751746214D-04 0.168683038785D-02 0.000000000000D+00  5 -1 2 25 24 21 2 0.28244504D-01 0.10165672D+00 0.10309072D+06 0.10309072D+06 0.10309072D+06 0.11623592D+01  1  2  3  2  5  2        2 -.334637640315D-01 0.100000000000D+01
0.529877771217D-03 0.000000000000D+00 0.000000000000D+00 0.168683038785D-02 0.000000000000D+00  5 -1 2 25 24 21 2 0.28244504D-01 0.10165672D+00 0.10309072D+06 0.10309072D+06 0.10309072D+06 0.11623592D+01  1  2 15  2  5  2        2 0.416390735889D-01 0.100000000000D+01
0.873442991206D-02 0.000000000000D+00 0.000000000000D+00 0.168683038785D-02 0.000000000000D+00  5 -1 2 25 24 21 2 0.28244504D-01 0.13557985D+00 0.14173635D+06 0.14173635D+06 0.14173635D+06 0.11499076D+01  1  2 12  2  5  2        2 0.464093500563D+00 0.100000000000D+01
-.953067025260D-02 0.000000000000D+00 0.000000000000D+00 0.168683038785D-02 0.000000000000D+00  5 -1 2 25 24 21 2 0.28244504D-01 0.10165672D+00 0.10309072D+06 0.10309072D+06 0.10309072D+06 0.11623592D+01  1  2  4  2  5  2        2 -.748943061130D+00 0.100000000000D+01
-.149238018525D-01 0.000000000000D+00 -.428227381924D-02 0.168683038785D-02 0.000000000000D+00  5 -1 2 25 24 21 2 0.28244504D-01 0.13941075D+00 0.10309072D+06 0.10309072D+06 0.10309072D+06 0.11623592D+01  1  2  5  2  5  2        2 -.784185056038D+00 0.100000000000D+01
0.156921515909D-01 0.000000000000D+00 0.407723771913D-02 0.168683038785D-02 0.000000000000D+00  5 -1 2 25 24 21 2 0.28244504D-01 0.10165672D+00 0.10309072D+06 0.10309072D+06 0.10309072D+06 0.11623592D+01  1  2  6  2  5  2        2 0.123312712923D+01 0.100000000000D+01
0.327769776839D-03 0.000000000000D+00 0.000000000000D+00 0.168683038785D-02 0.000000000000D+00  5 -1 21 25 24 -2 2 0.28244504D-01 0.13557985D+00 0.14173635D+06 0.14173635D+06 0.14173635D+06 0.11499076D+01  1  2 12  4  5  2        2 0.161185345553D-01 0.100000000000D+01
-.494772024226D-03 0.000000000000D+00 -.171786575542D-03 0.168683038785D-02 0.000000000000D+00  5 -1 21 25 24 -2 2 0.28244504D-01 0.13941075D+00 0.10309072D+06 0.10309072D+06 0.10309072D+06 0.11623592D+01  1  2  5  4  5  2        2 -.235423660044D-01 0.100000000000D+01
  </mgrwgt>
  </event>
  <event>
  4     66 0.45252658E-03 0.13961183E+03 0.75467711E-02 0.11190213E+00
       -3 -1    0    0    0  501 0.00000000E+00 0.00000000E+00 0.85696058E+02 0.85697516E+02 0.50000000E+00 0.0000E+00 0.9000E+01
        4 -1    0    0  501    0 0.00000000E+00 0.00000000E+00 -.26323472E+03 0.26323928E+03 0.15500000E+01 0.0000E+00 0.9000E+01
       25  1    1    2    0    0 -.82105037E+02 0.44418842E+02 -.33825063E+02 0.15963523E+03 0.12500000E+03 0.0000E+00 0.9000E+01
       24  1    1    2    0    0 0.82105037E+02 -.44418842E+02 -.14371360E+03 0.18930157E+03 0.80419002E+02 0.0000E+00 0.9000E+01
#aMCatNLO 1  0  0  1  1 0.16138448D+03 0.00000000D+00  -5  5  0 0.00000000D+00 0.00000000D+00 0.00000000D+00 0.00000000D+00 0.00000000D+00
  <mgrwgt>
 0.3863626958D-01    3    2    0
 0.150197297110646D+03 0.000000000000000D+00 0.000000000000000D+00 0.150197297110646D+03
 0.150197297110646D+03 0.000000000000000D+00 0.000000000000000D+00 -.150197297110646D+03
 0.165440221287376D+03 -.821050371467008D+02 0.444188416614859D+02 0.550563002771416D+02
 0.134954372933916D+03 0.821050371467008D+02 -.444188416614859D+02 -.550563002771416D+02
 0.000000000000000D+00 0.000000000000000D+00 0.000000000000000D+00 -.000000000000000D+00
 0.235422707530638D+03 0.000000000000000D+00 0.000000000000000D+00 0.235422707530638D+03
 0.270793760799109D+03 0.000000000000000D+00 0.000000000000000D+00 -.270793760799109D+03
 0.217829800016018D+03 -.169640785220928D+03 0.395342439391158D+01 0.550563002771416D+02
 0.123171466473210D+03 0.231511999200096D+02 -.716716118197967D+02 -.550563002771416D+02
 0.165215201840519D+03 0.146489585300919D+03 0.677181874258851D+02 -.353710532684702D+02
0.700034267832D-03 0.000000000000D+00 0.000000000000D+00 0.211203726825D-02 0.000000000000D+00  5 -3 4 25 24 21 0 0.13184472D-01 0.40498112D-01 0.19491463D+05 0.19491463D+05 0.19491463D+05 0.12350594D+01  1  2  2  1  5  1       -3 0.378409656526D-01 0.100000000000D+01
-.386382290267D-04 0.000000000000D+00 -.268831591173D-05 0.211203726825D-02 0.000000000000D+00  5 -3 4 25 24 21 2 0.13184472D-01 0.40498112D-01 0.19491463D+05 0.19491463D+05 0.19491463D+05 0.12350594D+01  1  2  3  1  5  1       -3 -.318592685606D-02 0.100000000000D+01
0.482835023973D-04 0.000000000000D+00 0.000000000000D+00 0.211203726825D-02 0.000000000000D+00  5 -3 4 25 24 21 2 0.13184472D-01 0.40498112D-01 0.19491463D+05 0.19491463D+05 0.19491463D+05 0.12350594D+01  1  2 15  1  5  1       -3 0.398123078793D-02 0.100000000000D+01
  </mgrwgt>
  </event>
  <event>
  5     66 0.45252658E-03 0.11826383E+03 0.75467711E-02 0.12339780E+00
       21 -1    0    0  502  501 0.00000000E+00 0.00000000E+00 0.25172575E+02 0.25183745E+02 0.75000000E+00 0.0000E+00 0.9000E+01
        2 -1    0    0  501    0 0.00000000E+00 0.00000000E+00 -.64020596E+03 0.64020604E+03 0.32000000E+00 0.0000E+00 0.9000E+01
       25  1    1    2    0    0 0.49892677E+02 0.51771260E+01 -.28483093E+03 0.31507101E+03 0.12500000E+03 0.0000E+00 0.9000E+01
       24  1    1    2    0    0 -.61799529E+02 -.13312917E+02 -.28070371E+03 0.29876111E+03 0.80419002E+02 0.0000E+00 0.9000E+01
        1  1    1    2  502    0 0.11906852E+02 0.81357914E+01 -.49498744E+02 0.51557660E+02 0.32000000E+00 0.0000E+00 0.9000E+01
#aMCatNLO 2  0  0  1  2 0.14420964D+02 0.00000000D+00  -5  5  0 0.00000000D+00 0.00000000D+00 0.00000000D+00 0.00000000D+00 0.00000000D+00
  <mgrwgt>
 0.1634133311D+00    1    2    0
 0.119113899006823D+03 0.000000000000000D+00 0.000000000000000D+00 0.119113899006823D+03
 0.119113899006823D+03 0.000000000000000D+00 0.000000000000000D+00 -.119113899006823D+03
 0.138334544376480D+03 0.567275816747025D+02 0.984732436503882D+01 0.140163421775473D+02
 0.998932536371649D+02 -.567275816747025D+02 -.984732436503882D+01 -.140163421775473D+02
 0.000000000000000D+00 0.000000000000000D+00 0.000000000000000D+00 -.000000000000000D+00
 0.124417396521667D+03 0.000000000000000D+00 0.000000000000000D+00 0.124417396521667D+03
 0.129555419324012D+03 0.000000000000000D+00 0.000000000000000D+00 -.129555419324012D+03
 0.135416172239296D+03 0.498926770402448D+02 0.517712600411827D+01 0.140163421775473D+02
 0.103247708485556D+03 -.617995285927795D+02 -.133129174420897D+02 -.140163421775473D+02
 0.153089351208268D+02 0.119068515525347D+02 0.813579143797144D+01 -.513802280234496D+01
0.439862921925D-05 0.000000000000D+00 0.000000000000D+00 0.276692628967D-02 0.897809716769D-06  5 21 2 25 24 1 2 0.38735179D-02 0.98492784D-01 0.15800703D+05 0.15800703D+05 0.15800703D+05 0.12452560D+01  1  2  1  3  5  1       -1 0.163413331079D+00 0.100000000000D+01
  </mgrwgt>
  </event>
  <event>
  4     66 0.45252658E-03 0.15984521E+03 0.75467711E-02 0.11856143E+00
       -1 -1    0    0    0  501 0.00000000E+00 0.00000000E+00 0.53729052E+02 0.53730005E+02 0.32000000E+00 0.0000E+00 0.9000E+01
        2 -1    0    0  501    0 0.00000000E+00 0.00000000E+00 -.53334025E+03 0.53334035E+03 0.32000000E+00 0.0000E+00 0.9000E+01
       25  1    1    2    0    0 0.72429350E+02 -.97280621E+02 -.35525193E+03 0.39564942E+03 0.12500000E+03 0.0000E+00 0.9000E+01
       24  1    1    2    0    0 -.72429350E+02 0.97280621E+02 -.12435927E+03 0.19142094E+03 0.80419002E+02 0.0000E+00 0.9000E+01
#aMCatNLO 1  0  0  2  2 0.58249920D+01 0.00000000D+00  -5  5  0 0.00000000D+00 0.00000000D+00 0.00000000D+00 0.00000000D+00 0.00000000D+00
  <mgrwgt>
 0.3428984809D+00    6    2    0
 0.169281346252762D+03 0.000000000000000D+00 0.000000000000000D+00 0.169281346252762D+03
 0.169281346252762D+03 0.000000000000000D+00 0.000000000000000D+00 -.169281346252762D+03
 0.182805848875684D+03 0.724293496442421D+02 -.972806212332144D+02 -.555288071702567D+02
 0.155756843629839D+03 -.724293496442421D+02 0.972806212332144D+02 0.555288071702567D+02
 0.000000000000000D+00 -.000000000000000D+00 0.000000000000000D+00 0.000000000000000D+00
 0.190809650849337D+03 0.000000000000000D+00 0.000000000000000D+00 0.190809650849337D+03
 0.169700880644950D+03 0.000000000000000D+00 0.000000000000000D+00 -.169700880644950D+03
 0.184902165512659D+03 0.746296040140451D+02 -.995529235644334D+02 -.555288071702567D+02
 0.153710632958681D+03 -.705775891684514D+02 0.953682243286806D+02 0.555288071702567D+02
 0.218977330229468D+02 -.405201484559370D+01 0.418469923575279D+01 0.211087702043874D+02
0.716769488634D-03 0.000000000000D+00 0.000000000000D+00 0.205506418329D-02 0.000000000000D+00  5 -1 2 25 24 21 0 0.82660887D-02 0.82052427D-01 0.25550493D+05 0.25550493D+05 0.25550493D+05 0.12222848D+01  1  2  2  2  5  2        2 0.375897595285D+00 0.100000000000D+01
-.396612517542D-04 0.000000000000D+00 -.275258356610D-05 0.205506418329D-02 0.000000000000D+00  5 -1 2 25 24 21 2 0.82660887D-02 0.82052427D-01 0.25550493D+05 0.25550493D+05 0.25550493D+05 0.12222848D+01  1  2  3  2  5  2        2 -.310742939050D-01 0.100000000000D+01
0.493440931843D-04 0.000000000000D+00 0.000000000000D+00 0.205506418329D-02 0.000000000000D+00  5 -1 2 25 24 21 2 0.82660887D-02 0.82052427D-01 0.25550493D+05 0.25550493D+05 0.25550493D+05 0.12222848D+01  1  2 15  2  5  2        2 0.386607276943D-01 0.100000000000D+01
-.737128061990D-04 0.000000000000D+00 0.000000000000D+00 0.205506418329D-02 0.000000000000D+00  5 -1 2 25 24 21 2 0.82660887D-02 0.82052427D-01 0.25550493D+05 0.25550493D+05 0.25550493D+05 0.12222848D+01  1  2  4  2  5  2        2 -.577534319538D-01 0.100000000000D+01
0.203384149114D-04 0.000000000000D+00 0.000000000000D+00 0.205506418329D-02 0.484193273946D-03  5 -1 2 25 24 21 2 0.93173261D-02 0.82255780D-01 0.26491174D+05 0.26491174D+05 0.26491174D+05 0.12206092D+01  1  2 11  2  5  2        2 0.132177014465D-01 0.100000000000D+01
0.336407413039D-05 0.000000000000D+00 0.000000000000D+00 0.205506418329D-02 0.236559547153D-06  5 -1 21 25 24 -2 2 0.93173261D-02 0.82255780D-01 0.26491174D+05 0.26491174D+05 0.26491174D+05 0.12206092D+01  1  2 11  4  5  2        2 0.395018230942D-02 0.100000000000D+01
  </mgrwgt>
  </event>
  <event>
  5     66 0.45252658E-03 0.10400723E+03 0.75467711E-02 0.12071303E+00
       21 -1    0    0  502  501 0.00000000E+00 0.00000000E+00 0.25024477E+02 0.25035714E+02 0.75000000E+00 0.0000E+00 0.9000E+01
        2 -1    0    0  501    0 0.00000000E+00 0.00000000E+00 -.13581612E+04 0.13581612E+04 0.32000000E+00 0.0000E+00 0.9000E+01
       25  1    1    2    0    0 0.38087780E+02 0.22156957E+02 -.94931968E+03 0.95852723E+03 0.12500000E+03 0.0000E+00 0.9000E+01
       24  1    1    2    0    0 0.31013304E+02 -.11324843E+02 -.31411943E+03 0.32592684E+03 0.80419002E+02 0.0000E+00 0.9000E+01
        1  1    1    2  502    0 -.69101083E+02 -.10832113E+02 -.69697614E+02 0.98742869E+02 0.32000000E+00 0.0000E+00 0.9000E+01
#aMCatNLO 2  0  0  1  2 0.69944938D+02 0.00000000D+00  -5  5  0 0.00000000D+00 0.00000000D+00 0.00000000D+00 0.00000000D+00 0.00000000D+00
  <mgrwgt>
 0.3668366192D+00    2    2    0
 0.110285554943410D+03 0.000000000000000D+00 0.000000000000000D+00 0.110285554943410D+03
 0.110285554943410D+03 0.000000000000000D+00 0.000000000000000D+00 -.110285554943410D+03
 0.131044810428701D+03 -.294336300304750D+01 0.157250172066147D+02 -.359416581194887D+02
 0.895262994581189D+02 0.294336300304750D+01 -.157250172066147D+02 0.359416581194887D+02
 0.000000000000000D+00 -.000000000000000D+00 -.000000000000000D+00 0.000000000000000D+00
 0.275605897766638D+03 0.000000000000000D+00 0.000000000000000D+00 0.275605897766638D+03
 0.123346386462315D+03 0.000000000000000D+00 0.000000000000000D+00 -.123346386462315D+03
 0.137325935162398D+03 0.380877796108421D+02 0.221569565636782D+02 -.359416581194887D+02
 0.940696328344187D+02 0.310133035795922D+02 -.113248434838484D+02 0.359416581194887D+02
 0.167556716232137D+03 -.691010831904342D+02 -.108321130798298D+02 0.152259511304323D+03
-.607755993077D-05 0.000000000000D+00 0.000000000000D+00 0.273592999505D-02 0.000000000000D+00  5 21 2 25 24 1 2 0.37996442D-02 0.18682348D+00 0.20940509D+05 0.20940509D+05 0.20940509D+05 0.12316350D+01  1  2 13  3  5  1       -1 -.987757856662D-01 0.100000000000D+01
0.350595450707D-04 0.000000000000D+00 0.000000000000D+00 0.273592999505D-02 0.835212998435D-06  5 21 2 25 24 1 2 0.38507823D-02 0.20894850D+00 0.20940509D+05 0.20940509D+05 0.20940509D+05 0.12316350D+01  1  2  1  3  5  1       -1 0.465612404913D+00 0.100000000000D+01
  </mgrwgt>
  </event>
  <event>
  4     66 0.45252658E-03 0.11004294E+03 0.75467711E-02 0.11380574E+00
       -1 -1    0    0    0  501 0.00000000E+00 0.00000000E+00 0.21778360E+02 0.21780711E+02 0.32000000E+00 0.0000E+00 0.9000E+01
        2 -1    0    0  501    0 0.00000000E+00 0.00000000E+00 -.66535250E+03 0.66535258E+03 0.32000000E+00 0.0000E+00 0.9000E+01
       25  1    1    2    0    0 0.35364442E+02 0.15669879E+02 -.23543810E+03 0.26935532E+03 0.12500000E+03 0.0000E+00 0.9000E+01
       24  1    1    2    0    0 -.35364442E+02 -.15669879E+02 -.40813604E+03 0.41777797E+03 0.80419002E+02 0.0000E+00 0.9000E+01
#aMCatNLO 1  0  0  2  2 0.15927225D+03 0.00000000D+00  -5  5  0 0.00000000D+00 0.00000000D+00 0.00000000D+00 0.00000000D+00 0.00000000D+00
  <mgrwgt>
 0.3553230658D+00    5    2    0
 0.120379070764244D+03 0.000000000000000D+00 0.000000000000000D+00 0.120379070764244D+03
 0.120379070764244D+03 0.000000000000000D+00 0.000000000000000D+00 -.120379070764244D+03
 0.139397709111197D+03 0.353644417834453D+02 0.156698786945724D+02 0.480679983408148D+02
 0.101360432417292D+03 -.353644417834453D+02 -.156698786945724D+02 -.480679983408148D+02
 0.000000000000000D+00 -.000000000000000D+00 -.000000000000000D+00 -.000000000000000D+00
 0.192275246841385D+03 0.000000000000000D+00 0.000000000000000D+00 0.192275246841385D+03
 0.276628590827713D+03 0.000000000000000D+00 0.000000000000000D+00 -.276628590827713D+03
 0.192412941980620D+03 0.131837114328809D+03 0.413059688495188D+02 0.480679983408148D+02
 0.962601113229328D+02 0.220929723825994D+02 -.401477698029343D+00 -.480679983408148D+02
 0.180230784365546D+03 -.153930086711409D+03 -.409044911514894D+02 -.843533439863277D+02
0.226252356473D-03 0.000000000000D+00 0.000000000000D+00 0.239295877574D-02 0.000000000000D+00  5 -1 2 25 24 21 0 0.33507037D-02 0.10236211D+00 0.12109448D+05 0.12109448D+05 0.12109448D+05 0.12585622D+01  1  2  2  2  5  2        2 0.343823182062D+00 0.100000000000D+01
-.124464029004D-04 0.000000000000D+00 -.868868622471D-06 0.239295877574D-02 0.000000000000D+00  5 -1 2 25 24 21 2 0.33507037D-02 0.10236211D+00 0.12109448D+05 0.12109448D+05 0.12109448D+05 0.12585622D+01  1  2  3  2  5  2        2 -.299595507827D-01 0.100000000000D+01
0.154894618893D-04 0.000000000000D+00 0.000000000000D+00 0.239295877574D-02 0.000000000000D+00  5 -1 2 25 24 21 2 0.33507037D-02 0.10236211D+00 0.12109448D+05 0.12109448D+05 0.12109448D+05 0.12585622D+01  1  2 15  2  5  2        2 0.372844526874D-01 0.100000000000D+01
0.784716737882D-05 0.000000000000D+00 -.807193615085D-04 0.239295877574D-02 0.000000000000D+00  5 -1 2 25 24 21 2 0.33507037D-02 0.30657829D+00 0.12109448D+05 0.12109448D+05 0.12109448D+05 0.12585622D+01  1  2  5  2  5  2        2 0.340873243211D-02 0.100000000000D+01
0.502774061201D-05 0.000000000000D+00 -.100715476119D-04 0.239295877574D-02 0.000000000000D+00  5 -1 21 25 24 -2 2 0.33507037D-02 0.30657829D+00 0.12109448D+05 0.12109448D+05 0.12109448D+05 0.12585622D+01  1  2  5  4  5  2        2 0.766249403483D-03 0.100000000000D+01
  </mgrwgt>
  </event>
  <event>
  4     66 0.45252658E-03 0.13704909E+03 0.75467711E-02 0.10837611E+00
       -1 -1    0    0    0  501 0.00000000E+00 0.00000000E+00 0.13670162E+03 0.13670199E+03 0.32000000E+00 0.0000E+00 0.9000E+01
        2 -1    0    0  501    0 0.00000000E+00 0.00000000E+00 -.13773424E+03 0.13773461E+03 0.32000000E+00 0.0000E+00 0.9000E+01
       25  1    1    2    0    0 -.81430147E+02 -.37209456E+02 0.61632571E+01 0.15387787E+03 0.12500000E+03 0.0000E+00 0.9000E+01
       24  1    1    2    0    0 0.81430147E+02 0.37209456E+02 -.71958818E+01 0.12055874E+03 0.80419002E+02 0.0000E+00 0.9000E+01
#aMCatNLO 1  0  0  1  2 0.24099938D+03 0.00000000D+00  -5  5  0 0.00000000D+00 0.00000000D+00 0.00000000D+00 0.00000000D+00 0.00000000D+00
  <mgrwgt>
 0.3305671435D+00    3    2    0
 0.137217330953871D+03 0.000000000000000D+00 0.000000000000000D+00 0.137217330953871D+03
 0.137217330953871D+03 0.000000000000000D+00 0.000000000000000D+00 -.137217330953871D+03
 0.153902147627481D+03 -.814301465057738D+02 -.372094563873697D+02 0.674230225928038D+01
 0.120532514280261D+03 0.814301465057738D+02 0.372094563873697D+02 -.674230225928038D+01
 0.000000000000000D+00 -.000000000000000D+00 -.000000000000000D+00 -.000000000000000D+00
 0.294791369302329D+03 0.000000000000000D+00 0.000000000000000D+00 0.294791369302329D+03
 0.312058735755619D+03 0.000000000000000D+00 0.000000000000000D+00 -.312058735755619D+03
 0.126220835719952D+03 0.135337755023607D+02 0.883615588020898D+01 0.674230225928038D+01
 0.239012084260096D+03 0.203318628508282D+03 0.963101091772839D+02 -.674230225928038D+01
 0.241617185077899D+03 -.216852404010643D+03 -.105146265057493D+03 -.172673664532902D+02
0.616702012874D-03 0.000000000000D+00 0.000000000000D+00 0.252548691661D-02 0.000000000000D+00  5 -1 2 25 24 21 0 0.21031075D-01 0.21189941D-01 0.18782453D+05 0.18782453D+05 0.18782453D+05 0.12368404D+01  1  2  2  1  5  1       -1 0.323969724412D+00 0.100000000000D+01
-.342611602390D-04 0.000000000000D+00 -.236829811081D-05 0.252548691661D-02 0.000000000000D+00  5 -1 2 25 24 21 2 0.21031075D-01 0.21189941D-01 0.18782453D+05 0.18782453D+05 0.18782453D+05 0.12368404D+01  1  2  3  1  5  1       -1 -.275333130001D-01 0.100000000000D+01
0.424706783721D-04 0.000000000000D+00 0.000000000000D+00 0.252548691661D-02 0.000000000000D+00  5 -1 2 25 24 21 2 0.21031075D-01 0.21189941D-01 0.18782453D+05 0.18782453D+05 0.18782453D+05 0.12368404D+01  1  2 15  1  5  1       -1 0.341307320823D-01 0.100000000000D+01
  </mgrwgt>
  </event>
  <event>
  4     66 0.45252658E-03 0.16067099E+03 0.75467711E-02 0.11327532E+00
       -1 -1    0    0    0  501 0.00000000E+00 0.00000000E+00 0.38635581E+02 0.38636906E+02 0.32000000E+00 0.0000E+00 0.9000E+01
        2 -1    0    0  501    0 0.00000000E+00 0.00000000E+00 -.67012855E+03 0.67012862E+03 0.32000000E+00 0.0000E+00 0.9000E+01
       25  1    1    2    0    0 -.11854371E+03 0.30323080E+02 -.32452466E+03 0.36866429E+03 0.12500000E+03 0.0000E+00 0.9000E+01
       24  1    1    2    0    0 0.11854371E+03 -.30323080E+02 -.30696830E+03 0.34010124E+03 0.80419002E+02 0.0000E+00 0.9000E+01
#aMCatNLO 1  0  0  1  2 0.10499158D+03 0.00000000D+00  -5  5  0 0.00000000D+00 0.00000000D+00 0.00000000D+00 0.00000000D+00 0.00000000D+00
  <mgrwgt>
 0.4779217759D+00    3    2    0
 0.160907745514938D+03 0.000000000000000D+00 0.000000000000000D+00 0.160907745514938D+03
 0.160907745514938D+03 0.000000000000000D+00 0.000000000000000D+00 -.160907745514938D+03
 0.175136060031935D+03 -.118543708556406D+03 0.303230801202909D+02 0.869134611102650D+01
 0.146679430997942D+03 0.118543708556406D+03 -.303230801202909D+02 -.869134611102650D+01
 0.000000000000000D+00 -.000000000000000D+00 0.000000000000000D+00 -.000000000000000D+00
 0.186311203840811D+03 0.000000000000000D+00 0.000000000000000D+00 0.186311203840811D+03
 0.330822697338575D+03 0.000000000000000D+00 0.000000000000000D+00 -.330822697338575D+03
 0.144581218500299D+03 -.681502046589451D+02 0.236376574717847D+02 0.869134611102650D+01
 0.193927927259040D+03 0.172229885026524D+03 -.374453231144539D+02 -.869134611102650D+01
 0.178624755420047D+03 -.104079680367578D+03 0.138076656426692D+02 -.144511493497765D+03
0.706051442688D-03 0.000000000000D+00 0.000000000000D+00 0.232572858381D-02 0.000000000000D+00  5 -1 2 25 24 21 0 0.59440434D-02 0.10309681D+00 0.25815166D+05 0.25815166D+05 0.25815166D+05 0.12218065D+01  1  2  2  1  5  1       -1 0.468496010680D+00 0.100000000000D+01
-.392249767441D-04 0.000000000000D+00 -.271142344754D-05 0.232572858381D-02 0.000000000000D+00  5 -1 2 25 24 21 2 0.59440434D-02 0.10309681D+00 0.25815166D+05 0.25815166D+05 0.25815166D+05 0.12218065D+01  1  2  3  1  5  1       -1 -.388541204789D-01 0.100000000000D+01
0.487407093960D-04 0.000000000000D+00 0.000000000000D+00 0.232572858381D-02 0.000000000000D+00  5 -1 2 25 24 21 2 0.59440434D-02 0.10309681D+00 0.25815166D+05 0.25815166D+05 0.25815166D+05 0.12218065D+01  1  2 15  1  5  1       -1 0.482798857335D-01 0.100000000000D+01
  </mgrwgt>
  </event>
  <event>
  4     66 0.45252658E-03 0.94963904E+02 0.75467711E-02 0.11804329E+00
       -1 -1    0    0    0  501 0.00000000E+00 0.00000000E+00 0.12136374E+02 0.12140592E+02 0.32000000E+00 0.0000E+00 0.9000E+01
        2 -1    0    0  501    0 0.00000000E+00 0.00000000E+00 -.17024525E+04 0.17024525E+04 0.32000000E+00 0.0000E+00 0.9000E+01
       25  1    1    2    0    0 0.58307485E+02 -.63698457E+02 -.64569067E+03 0.66332398E+03 0.12500000E+03 0.0000E+00 0.9000E+01
       24  1    1    2    0    0 -.58307485E+02 0.63698457E+02 -.10446255E+04 0.10512691E+04 0.80419002E+02 0.0000E+00 0.9000E+01
#aMCatNLO 1  0  0  2  1 0.58704707D+02 0.00000000D+00  -5  5  0 0.00000000D+00 0.00000000D+00 0.00000000D+00 0.00000000D+00 0.00000000D+00
  <mgrwgt>
 0.5200899227D+00    9    2    0
 0.143754101013254D+03 0.000000000000000D+00 0.000000000000000D+00 0.143754101013254D+03
 0.143754101013254D+03 0.000000000000000D+00 0.000000000000000D+00 -.143754101013254D+03
 0.159680227609088D+03 0.583074847232965D+02 -.636984570074352D+02 0.491479286379871D+02
 0.127827974417421D+03 -.583074847232965D+02 0.636984570074352D+02 -.491479286379871D+02
 0.000000000000000D+00 -.000000000000000D+00 -.000000000000000D+00 -.000000000000000D+00
 0.161969622612311D+03 0.000000000000000D+00 0.000000000000000D+00 0.161969622612311D+03
 0.203217881606199D+03 0.000000000000000D+00 0.000000000000000D+00 -.203217881606199D+03
 0.157278800148748D+03 0.736799703208001D+02 -.356000570273596D+02 0.491479286379871D+02
 0.136161498497935D+03 -.455040179818967D+02 0.871011089305483D+02 -.491479286379871D+02
 0.717472055718268D+02 -.281759523389034D+02 -.515010519031887D+02 -.412482589938882D+02
0.419090639004D-03 0.000000000000D+00 0.000000000000D+00 0.220279441599D-02 0.000000000000D+00  5 -1 2 25 24 21 0 0.18674612D-02 0.26191610D+00 0.18215613D+05 0.18215613D+05 0.18215613D+05 0.12383194D+01  1  2  2  2  5  2        2 0.377314909584D+00 0.100000000000D+01
-.231701461939D-04 0.000000000000D+00 -.160941840288D-05 0.220279441599D-02 0.000000000000D+00  5 -1 2 25 24 21 2 0.18674612D-02 0.26191610D+00 0.18215613D+05 0.18215613D+05 0.18215613D+05 0.12383194D+01  1  2  3  2  5  2        2 -.319882249691D-01 0.100000000000D+01
0.289098046857D-04 0.000000000000D+00 0.000000000000D+00 0.220279441599D-02 0.000000000000D+00  5 -1 2 25 24 21 2 0.18674612D-02 0.26191610D+00 0.18215613D+05 0.18215613D+05 0.18215613D+05 0.12383194D+01  1  2 15  2  5  2        2 0.399122788593D-01 0.100000000000D+01
0.257494059479D-03 0.000000000000D+00 0.000000000000D+00 0.220279441599D-02 0.000000000000D+00  5 -1 2 25 24 21 2 0.18674612D-02 0.38144944D+00 0.28071196D+05 0.28071196D+05 0.28071196D+05 0.12179391D+01  1  2 12  2  5  2        2 0.136262999295D+00 0.100000000000D+01
-.337279251008D-03 0.000000000000D+00 0.000000000000D+00 0.220279441599D-02 0.000000000000D+00  5 -1 2 25 24 21 2 0.18674612D-02 0.26191610D+00 0.18215613D+05 0.18215613D+05 0.18215613D+05 0.12383194D+01  1  2  4  2  5  2        2 -.465640763265D+00 0.100000000000D+01
-.486430300590D-03 0.000000000000D+00 -.164306768902D-03 0.220279441599D-02 0.000000000000D+00  5 -1 2 25 24 21 2 0.18674612D-02 0.38654309D+00 0.18215613D+05 0.18215613D+05 0.18215613D+05 0.12383194D+01  1  2  5  2  5  2        2 -.255846936862D+00 0.100000000000D+01
0.522042929995D-03 0.000000000000D+00 0.152601211054D-03 0.220279441599D-02 0.000000000000D+00  5 -1 2 25 24 21 2 0.18674612D-02 0.26191610D+00 0.18215613D+05 0.18215613D+05 0.18215613D+05 0.12383194D+01  1  2  6  2  5  2        2 0.720721679894D+00 0.100000000000D+01
0.117143821664D-04 0.000000000000D+00 0.000000000000D+00 0.220279441599D-02 0.000000000000D+00  5 -1 21 25 24 -2 2 0.18674612D-02 0.38144944D+00 0.28071196D+05 0.28071196D+05 0.28071196D+05 0.12179391D+01  1  2 12  4  5  2        2 0.133985632092D-02 0.100000000000D+01
-.172929886534D-04 0.000000000000D+00 -.766609504363D-05 0.220279441599D-02 0.000000000000D+00  5 -1 21 25 24 -2 2 0.18674612D-02 0.38654309D+00 0.18215613D+05 0.18215613D+05 0.18215613D+05 0.12383194D+01  1  2  5  4  5  2        2 -.198587611754D-02 0.100000000000D+01
  </mgrwgt>
  </event>
  <event>
  4     66 0.45252658E-03 0.15673140E+03 0.75467711E-02 0.10794335E+00
       -1 -1    0    0    0  501 0.00000000E+00 0.00000000E+00 0.46596424E+02 0.46597522E+02 0.32000000E+00 0.0000E+00 0.9000E+01
        2 -1    0    0  501    0 0.00000000E+00 0.00000000E+00 -.64662741E+03 0.64662749E+03 0.32000000E+00 0.0000E+00 0.9000E+01
       25  1    1    2    0    0 -.73255423E+02 0.91463903E+02 -.47125956E+03 0.50144050E+03 0.12500000E+03 0.0000E+00 0.9000E+01
       24  1    1    2    0    0 0.73255423E+02 -.91463903E+02 -.12877143E+03 0.19178451E+03 0.80419002E+02 0.0000E+00 0.9000E+01
#aMCatNLO 1  0  0  2  1 0.23334399D+03 0.00000000D+00  -5  5  0 0.00000000D+00 0.00000000D+00 0.00000000D+00 0.00000000D+00 0.00000000D+00
  <mgrwgt>
 0.3541682834D+00    5    2    0
 0.173582640589218D+03 0.000000000000000D+00 0.000000000000000D+00 0.173582640589218D+03
 0.173582640589218D+03 0.000000000000000D+00 0.000000000000000D+00 -.173582640589218D+03
 0.186772012542750D+03 -.732554233849892D+02 0.914639028447871D+02 -.743423304070725D+02
 0.160393268635687D+03 0.732554233849892D+02 -.914639028447871D+02 0.743423304070725D+02
 0.000000000000000D+00 0.000000000000000D+00 0.000000000000000D+00 -.000000000000000D+00
 0.245106199295169D+03 0.000000000000000D+00 0.000000000000000D+00 0.245106199295169D+03
 0.587719558606805D+03 0.000000000000000D+00 0.000000000000000D+00 -.587719558606805D+03
 0.234948790846912D+03 -.182909239564156D+03 0.243590293758601D+02 -.743423304070725D+02
 0.183349127349743D+03 -.161228221258100D+02 -.146160730231779D+03 0.743423304070725D+02
 0.414527839705318D+03 0.199032061689966D+03 0.121801700855919D+03 -.342613359311636D+03
0.685912802212D-03 0.000000000000D+00 0.000000000000D+00 0.187437917359D-02 0.000000000000D+00  5 -1 2 25 24 21 0 0.71687712D-02 0.99481231D-01 0.24564733D+05 0.24564733D+05 0.24564733D+05 0.12241163D+01  1  2  2  2  5  2        2 0.357860182578D+00 0.100000000000D+01
-.376230947935D-04 0.000000000000D+00 -.263408576548D-05 0.187437917359D-02 0.000000000000D+00  5 -1 2 25 24 21 2 0.71687712D-02 0.99481231D-01 0.24564733D+05 0.24564733D+05 0.24564733D+05 0.12241163D+01  1  2  3  2  5  2        2 -.294133404326D-01 0.100000000000D+01
0.470629596045D-04 0.000000000000D+00 0.000000000000D+00 0.187437917359D-02 0.000000000000D+00  5 -1 2 25 24 21 2 0.71687712D-02 0.99481231D-01 0.24564733D+05 0.24564733D+05 0.24564733D+05 0.12241163D+01  1  2 15  2  5  2        2 0.367933276146D-01 0.100000000000D+01
-.147262467883D-03 0.000000000000D+00 -.272577743583D-03 0.187437917359D-02 0.000000000000D+00  5 -1 2 25 24 21 2 0.71687712D-02 0.38261459D+00 0.24564733D+05 0.24564733D+05 0.24564733D+05 0.12241163D+01  1  2  5  2  5  2        2 -.107754838953D-01 0.100000000000D+01
-.186412922714D-04 0.000000000000D+00 -.435868611386D-04 0.187437917359D-02 0.000000000000D+00  5 -1 21 25 24 -2 2 0.71687712D-02 0.38261459D+00 0.24564733D+05 0.24564733D+05 0.24564733D+05 0.12241163D+01  1  2  5  4  5  2        2 -.296402437232D-03 0.100000000000D+01
  </mgrwgt>
  </event>
  <event>
  4     66 0.45252658E-03 0.11424069E+03 0.75467711E-02 0.11912341E+00
       -1 -1    0    0    0  501 0.00000000E+00 0.00000000E+00 0.12051604E+03 0.12051647E+03 0.32000000E+00 0.0000E+00 0.9000E+01
        2 -1    0    0  501    0 0.00000000E+00 0.00000000E+00 -.10857694E+03 0.10857741E+03 0.32000000E+00 0.0000E+00 0.9000E+01
       25  1    1    2    0    0 -.37239357E+02 -.31932445E+02 0.12798852E+02 0.13488981E+03 0.12500000E+03 0.0000E+00 0.9000E+01
       24  1    1    2    0    0 0.37239357E+02 0.31932445E+02 -.85974743E+00 0.94204065E+02 0.80419002E+02 0.0000E+00 0.9000E+01
#aMCatNLO 1  0  0  1  2 0.75068586D+02 0.00000000D+00  -5  5  0 0.00000000D+00 0.00000000D+00 0.00000000D+00 0.00000000D+00 0.00000000D+00
  <mgrwgt>
 0.2729346976D+00    7    2    0
 0.114391282793413D+03 0.000000000000000D+00 0.000000000000000D+00 0.114391282793413D+03
 0.114391282793413D+03 0.000000000000000D+00 0.000000000000000D+00 -.114391282793413D+03
 0.134405447819799D+03 -.372393568395222D+02 -.319324453711972D+02 0.577699216157401D+01
 0.943771177670264D+02 0.372393568395222D+02 0.319324453711972D+02 -.577699216157401D+01
 0.000000000000000D+00 0.000000000000000D+00 0.000000000000000D+00 0.000000000000000D+00
 0.166706464732325D+03 0.000000000000000D+00 0.000000000000000D+00 0.166706464732325D+03
 0.150810333697069D+03 0.000000000000000D+00 0.000000000000000D+00 -.150810333697069D+03
 0.157203135400612D+03 -.781461055361031D+02 -.542921571765998D+02 0.577699216157401D+01
 0.835804914433921D+02 0.122755264946772D+02 0.182871650725859D+02 -.577699216157401D+01
 0.767331715853898D+02 0.658705790414258D+02 0.360049921040140D+02 0.158961310352563D+02
0.309163580676D-03 0.000000000000D+00 0.000000000000D+00 0.289476796394D-02 0.000000000000D+00  5 -1 2 25 24 21 0 0.18540999D-01 0.16704213D-01 0.13050935D+05 0.13050935D+05 0.13050935D+05 0.12547733D+01  1  2  2  1  5  1       -1 0.257114899430D+00 0.100000000000D+01
-.171757182416D-04 0.000000000000D+00 -.118726955444D-05 0.289476796394D-02 0.000000000000D+00  5 -1 2 25 24 21 2 0.18540999D-01 0.16704213D-01 0.13050935D+05 0.13050935D+05 0.13050935D+05 0.12547733D+01  1  2  3  1  5  1       -1 -.224897366733D-01 0.100000000000D+01
0.214021904855D-04 0.000000000000D+00 0.000000000000D+00 0.289476796394D-02 0.000000000000D+00  5 -1 2 25 24 21 2 0.18540999D-01 0.16704213D-01 0.13050935D+05 0.13050935D+05 0.13050935D+05 0.12547733D+01  1  2 15  1  5  1       -1 0.280238428157D-01 0.100000000000D+01
-.959045900175D-04 0.000000000000D+00 0.000000000000D+00 0.289476796394D-02 0.000000000000D+00  5 -1 2 25 24 21 2 0.18540999D-01 0.16704213D-01 0.13050935D+05 0.13050935D+05 0.13050935D+05 0.12547733D+01  1  2  4  1  5  1       -1 -.125576639353D+00 0.100000000000D+01
-.108863198784D-03 0.000000000000D+00 -.915099401695D-04 0.289476796394D-02 0.000000000000D+00  5 -1 2 25 24 21 2 0.35039485D-01 0.16704213D-01 0.13050935D+05 0.13050935D+05 0.13050935D+05 0.12547733D+01  1  2  5  1  5  1       -1 -.501233585218D-01 0.100000000000D+01
0.151268957926D-03 0.000000000000D+00 0.756598162794D-04 0.289476796394D-02 0.000000000000D+00  5 -1 2 25 24 21 2 0.18540999D-01 0.16704213D-01 0.13050935D+05 0.13050935D+05 0.13050935D+05 0.12547733D+01  1  2  6  1  5  1       -1 0.198070263074D+00 0.100000000000D+01
-.234081292993D-05 0.000000000000D+00 -.633316411083D-05 0.289476796394D-02 0.000000000000D+00  5 21 2 25 24 1 2 0.35039485D-01 0.16704213D-01 0.13050935D+05 0.13050935D+05 0.13050935D+05 0.12547733D+01  1  2  5  3  5  1       -1 -.120845731362D-01 0.100000000000D+01
  </mgrwgt>
  </event>
  <event>
  4     66 0.45252658E-03 0.70029126E+02 0.75467711E-02 0.11610084E+00
       -1 -1    0    0    0  501 0.00000000E+00 0.00000000E+00 0.13241949E+02 0.13245815E+02 0.32000000E+00 0.0000E+00 0.9000E+01
        2 -1    0    0  501    0 0.00000000E+00 0.00000000E+00 -.28724518E+04 0.28724518E+04 0.32000000E+00 0.0000E+00 0.9000E+01
       25  1    1    2    0    0 0.92999272E+01 0.10105162E+03 -.24755024E+04 0.24807328E+04 0.12500000E+03 0.0000E+00 0.9000E+01
       24  1    1    2    0    0 -.92999272E+01 -.10105162E+03 -.38370743E+03 0.40496485E+03 0.80419002E+02 0.0000E+00 0.9000E+01
#aMCatNLO 1  0  0  1  2 0.73924298D+02 0.00000000D+00  -5  5  0 0.00000000D+00 0.00000000D+00 0.00000000D+00 0.00000000D+00 0.00000000D+00
  <mgrwgt>
 0.4378549784D+00    9    2    0
 0.195044772917757D+03 0.000000000000000D+00 0.000000000000000D+00 0.195044772917757D+03
 0.195044772917757D+03 0.000000000000000D+00 0.000000000000000D+00 -.195044772917757D+03
 0.206782826581839D+03 0.929992722779083D+01 0.101051623487194D+03 -.129754453154161D+03
 0.183306719253675D+03 -.929992722779083D+01 -.101051623487194D+03 0.129754453154161D+03
 0.000000000000000D+00 0.000000000000000D+00 0.000000000000000D+00 0.000000000000000D+00
 0.238562111770792D+03 0.000000000000000D+00 0.000000000000000D+00 0.238562111770792D+03
 0.232631970559461D+03 0.000000000000000D+00 0.000000000000000D+00 -.232631970559461D+03
 0.198918275402549D+03 -.231405109254474D+02 0.810665092988360D+02 -.129754453154161D+03
 0.198114035113799D+03 -.397988741912024D+02 -.119840671119944D+03 0.129754453154161D+03
 0.741617718139050D+02 0.629393851166498D+02 0.387741618211075D+02 0.593014121133098D+01
0.173281565737D-02 0.000000000000D+00 0.000000000000D+00 0.126341911024D-02 0.000000000000D+00  5 -1 2 25 24 21 0 0.20375217D-02 0.44191596D+00 0.21095560D+05 0.21095560D+05 0.21095560D+05 0.12312843D+01  1  2  2  1  5  1       -1 0.331961769447D+00 0.100000000000D+01
-.860939083224D-04 0.000000000000D+00 -.665446838513D-05 0.126341911024D-02 0.000000000000D+00  5 -1 2 25 24 21 2 0.20375217D-02 0.44191596D+00 0.21095560D+05 0.21095560D+05 0.21095560D+05 0.12312843D+01  1  2  3  1  5  1       -1 -.250048837651D-01 0.100000000000D+01
0.117562286326D-03 0.000000000000D+00 0.000000000000D+00 0.126341911024D-02 0.000000000000D+00  5 -1 2 25 24 21 2 0.20375217D-02 0.44191596D+00 0.21095560D+05 0.21095560D+05 0.21095560D+05 0.12312843D+01  1  2 15  1  5  1       -1 0.341444750509D-01 0.100000000000D+01
0.407224886184D-03 0.000000000000D+00 0.000000000000D+00 0.126341911024D-02 0.000000000000D+00  5 -1 2 25 24 21 2 0.26499318D-02 0.44191596D+00 0.35044978D+05 0.35044978D+05 0.35044978D+05 0.12078767D+01  1  2 12  1  5  1       -1 0.769817048258D-01 0.100000000000D+01
-.588270025769D-03 0.000000000000D+00 0.000000000000D+00 0.126341911024D-02 0.000000000000D+00  5 -1 2 25 24 21 2 0.20375217D-02 0.44191596D+00 0.21095560D+05 0.21095560D+05 0.21095560D+05 0.12312843D+01  1  2  4  1  5  1       -1 -.170855568106D+00 0.100000000000D+01
-.671544825282D-03 0.000000000000D+00 -.594559090548D-03 0.126341911024D-02 0.000000000000D+00  5 -1 2 25 24 21 2 0.32954388D-02 0.44191596D+00 0.21095560D+05 0.21095560D+05 0.21095560D+05 0.12312843D+01  1  2  5  1  5  1       -1 -.969632868069D-01 0.100000000000D+01
0.912557180959D-03 0.000000000000D+00 0.531886513173D-03 0.126341911024D-02 0.000000000000D+00  5 -1 2 25 24 21 2 0.20375217D-02 0.44191596D+00 0.21095560D+05 0.21095560D+05 0.21095560D+05 0.12312843D+01  1  2  6  1  5  1       -1 0.265040659479D+00 0.100000000000D+01
0.142970122592D-04 0.000000000000D+00 0.000000000000D+00 0.126341911024D-02 0.000000000000D+00  5 21 2 25 24 1 2 0.26499318D-02 0.44191596D+00 0.35044978D+05 0.35044978D+05 0.35044978D+05 0.12078767D+01  1  2 12  3  5  1       -1 0.528580929827D-01 0.100000000000D+01
-.110817422146D-04 0.000000000000D+00 -.325079718111D-04 0.126341911024D-02 0.000000000000D+00  5 21 2 25 24 1 2 0.32954388D-02 0.44191596D+00 0.21095560D+05 0.21095560D+05 0.21095560D+05 0.12312843D+01  1  2  5  3  5  1       -1 -.303079847339D-01 0.100000000000D+01
  </mgrwgt>
  </event>
  <event>
  4     66 0.45252658E-03 0.90583302E+02 0.75467711E-02 0.12247867E+00
       -1 -1    0    0    0  501 0.00000000E+00 0.00000000E+00 0.19116836E+03 0.19116863E+03 0.32000000E+00 0.0000E+00 0.9000E+01
        2 -1    0    0  501    0 0.00000000E+00 0.00000000E+00 -.92923136E+02 0.92923687E+02 0.32000000E+00 0.0000E+00 0.9000E+01
       25  1    1    2    0    0 0.70760572E+01 0.79002855E+02 0.84080910E+02 0.17025311E+03 0.12500000E+03 0.0000E+00 0.9000E+01
       24  1    1    2    0    0 -.70760572E+01 -.79002855E+02 0.14164316E+02 0.11383921E+03 0.80419002E+02 0.0000E+00 0.9000E+01
#aMCatNLO 1  0  0  1  2 0.26261915D+01 0.00000000D+00  -5  5  0 0.00000000D+00 0.00000000D+00 0.00000000D+00 0.00000000D+00 0.00000000D+00
  <mgrwgt>
 0.2726617076D+00    8    2    0
 0.133281957302519D+03 0.000000000000000D+00 0.000000000000000D+00 0.133281957302519D+03
 0.133281957302519D+03 0.000000000000000D+00 0.000000000000000D+00 -.133281957302519D+03
 0.150459421212438D+03 0.707605723992208D+01 0.790028548873326D+02 0.268610454965951D+02
 0.116104493392600D+03 -.707605723992208D+01 -.790028548873326D+02 -.268610454965951D+02
 0.000000000000000D+00 0.000000000000000D+00 -.000000000000000D+00 -.000000000000000D+00
 0.134292765763718D+03 0.000000000000000D+00 0.000000000000000D+00 0.134292765763718D+03
 0.135005194683214D+03 0.000000000000000D+00 0.000000000000000D+00 -.135005194683214D+03
 0.150945294696507D+03 0.598814932061548D+01 0.800131757497429D+02 0.268610454965951D+02
 0.115631556233203D+03 -.791249897513668D+01 -.782260662269315D+02 -.268610454965951D+02
 0.272110951722141D+01 0.192434965452120D+01 -.178710952281136D+01 -.712428919495846D+00
0.494688738421D-03 0.000000000000D+00 0.000000000000D+00 0.248445017669D-02 0.000000000000D+00  5 -1 2 25 24 21 0 0.29410580D-01 0.14295930D-01 0.17029843D+05 0.17029843D+05 0.17029843D+05 0.12415874D+01  1  2  2  1  5  1       -1 0.234852972120D+00 0.100000000000D+01
-.274678231224D-04 0.000000000000D+00 -.189973501007D-05 0.248445017669D-02 0.000000000000D+00  5 -1 2 25 24 21 2 0.29410580D-01 0.14295930D-01 0.17029843D+05 0.17029843D+05 0.17029843D+05 0.12415874D+01  1  2  3  1  5  1       -1 -.201021670235D-01 0.100000000000D+01
0.342021264491D-04 0.000000000000D+00 0.000000000000D+00 0.248445017669D-02 0.000000000000D+00  5 -1 2 25 24 21 2 0.29410580D-01 0.14295930D-01 0.17029843D+05 0.17029843D+05 0.17029843D+05 0.12415874D+01  1  2 15  1  5  1       -1 0.250306278505D-01 0.100000000000D+01
0.136372760989D-05 0.000000000000D+00 0.000000000000D+00 0.248445017669D-02 0.000000000000D+00  5 -1 2 25 24 21 2 0.29821829D-01 0.14295930D-01 0.17375282D+05 0.17375282D+05 0.17375282D+05 0.12406097D+01  1  2 12  1  5  1       -1 0.974153359454D-03 0.100000000000D+01
-.190345140350D-02 0.000000000000D+00 0.000000000000D+00 0.248445017669D-02 0.000000000000D+00  5 -1 2 25 24 21 2 0.29410580D-01 0.14295930D-01 0.17029843D+05 0.17029843D+05 0.17029843D+05 0.12415874D+01  1  2  4  1  5  1       -1 -.139302986858D+01 0.100000000000D+01
0.190284196962D-02 0.000000000000D+00 0.000000000000D+00 0.248445017669D-02 0.295725045242D-02  5 -1 2 25 24 21 2 0.29633630D-01 0.14480766D-01 0.17375282D+05 0.17375282D+05 0.17375282D+05 0.12406097D+01  1  2 11  1  5  1       -1 0.135317568388D+01 0.100000000000D+01
0.577880626810D-07 0.000000000000D+00 0.000000000000D+00 0.248445017669D-02 0.000000000000D+00  5 21 2 25 24 1 2 0.29821829D-01 0.14295930D-01 0.17375282D+05 0.17375282D+05 0.17375282D+05 0.12406097D+01  1  2 12  3  5  1       -1 0.479169805163D-03 0.100000000000D+01
0.862144656503D-05 0.000000000000D+00 0.000000000000D+00 0.248445017669D-02 0.416476972215D-05  5 21 2 25 24 1 2 0.29633630D-01 0.14480766D-01 0.17375282D+05 0.17375282D+05 0.17375282D+05 0.12406097D+01  1  2 11  3  5  1       -1 0.712811361929D-01 0.100000000000D+01
  </mgrwgt>
  </event>
  <event>
  4     66 0.45252658E-03 0.26606718E+03 0.75467711E-02 0.10474139E+00
       -3 -1    0    0    0  501 0.00000000E+00 0.00000000E+00 0.18311053E+04 0.18311054E+04 0.50000000E+00 0.0000E+00 0.9000E+01
        4 -1    0    0  501    0 0.00000000E+00 0.00000000E+00 -.41517562E+02 0.41546486E+02 0.15500000E+01 0.0000E+00 0.9000E+01
       25  1    1    2    0    0 -.24057989E+03 0.44056678E+02 0.11678209E+04 0.11996876E+04 0.12500000E+03 0.0000E+00 0.9000E+01
       24  1    1    2    0    0 0.24057989E+03 -.44056678E+02 0.62176685E+03 0.67296427E+03 0.80419002E+02 0.0000E+00 0.9000E+01
#aMCatNLO 1  0  0  2  2 0.20863983D+03 0.00000000D+00  -5  5  0 0.00000000D+00 0.00000000D+00 0.00000000D+00 0.00000000D+00 0.00000000D+00
  <mgrwgt>
 0.6444601003D-01    5    2    0
 0.275771960916885D+03 0.000000000000000D+00 0.000000000000000D+00 0.275771960916885D+03
 0.275771960916885D+03 0.000000000000000D+00 0.000000000000000D+00 -.275771960916885D+03
 0.284073914472262D+03 -.240579893987430D+03 0.440566776994395D+02 0.724797395323622D+02
 0.267470007361507D+03 0.240579893987430D+03 -.440566776994395D+02 -.724797395323622D+02
 0.000000000000000D+00 0.000000000000000D+00 -.000000000000000D+00 -.000000000000000D+00
 0.387389486184755D+03 0.000000000000000D+00 0.000000000000000D+00 0.387389486184755D+03
 0.412435753418204D+03 0.000000000000000D+00 0.000000000000000D+00 -.412435753418204D+03
 0.355755768134756D+03 -.287870374575433D+03 0.151044699874809D+03 0.724797395323622D+02
 0.233931671951304D+03 0.203520771807100D+03 0.397843435025018D+02 -.724797395323622D+02
 0.210137799516899D+03 0.843496027683331D+02 -.190829043377311D+03 -.250462672334488D+02
0.326692458666D-01 0.000000000000D+00 0.000000000000D+00 0.189418886878D-02 0.000000000000D+00  5 -3 4 25 24 21 0 0.28171074D+00 0.63895474D-02 0.70791742D+05 0.70791742D+05 0.70791742D+05 0.11776095D+01  1  2  2  2  5  2        4 0.616229034600D-01 0.100000000000D+01
-.181212585056D-02 0.000000000000D+00 -.125458506138D-03 0.189418886878D-02 0.000000000000D+00  5 -3 4 25 24 21 2 0.28171074D+00 0.63895474D-02 0.70791742D+05 0.70791742D+05 0.70791742D+05 0.11776095D+01  1  2  3  2  5  2        4 -.474017066066D-02 0.100000000000D+01
0.223790907474D-02 0.000000000000D+00 0.000000000000D+00 0.189418886878D-02 0.000000000000D+00  5 -3 4 25 24 21 2 0.28171074D+00 0.63895474D-02 0.70791742D+05 0.70791742D+05 0.70791742D+05 0.11776095D+01  1  2 15  2  5  2        4 0.585393720530D-02 0.100000000000D+01
-.521897327281D-02 0.000000000000D+00 -.125098157994D-01 0.189418886878D-02 0.000000000000D+00  5 -3 4 25 24 21 2 0.28171074D+00 0.14477687D-01 0.70791742D+05 0.70791742D+05 0.70791742D+05 0.11776095D+01  1  2  5  2  5  2        4 -.338684417374D-02 0.100000000000D+01
0.327366319017D-03 0.000000000000D+00 -.111186349371D-02 0.189418886878D-02 0.000000000000D+00  5 -3 21 25 24 -4 2 0.28171074D+00 0.14477687D-01 0.70791742D+05 0.70791742D+05 0.70791742D+05 0.11776095D+01  1  2  5  4  5  2        4 0.509618420389D-02 0.100000000000D+01
  </mgrwgt>
  </event>
  <event>
  4     66 0.45252658E-03 0.81350565E+02 0.75467711E-02 0.12354476E+00
       -3 -1    0    0    0  501 0.00000000E+00 0.00000000E+00 0.24529890E+04 0.24529890E+04 0.50000000E+00 0.0000E+00 0.9000E+01
        4 -1    0    0  501    0 0.00000000E+00 0.00000000E+00 -.58219131E+01 0.60247135E+01 0.15500000E+01 0.0000E+00 0.9000E+01
       25  1    1    2    0    0 -.61723044E+02 -.44679962E+01 0.14564117E+04 0.14630754E+04 0.12500000E+03 0.0000E+00 0.9000E+01
       24  1    1    2    0    0 0.61723044E+02 0.44679962E+01 0.99075539E+03 0.99593833E+03 0.80419002E+02 0.0000E+00 0.9000E+01
#aMCatNLO 1  0  0  1  2 0.84152946D+01 0.00000000D+00  -5  5  0 0.00000000D+00 0.00000000D+00 0.00000000D+00 0.00000000D+00 0.00000000D+00
  <mgrwgt>
 0.6777720199D-01   11    2    0
 0.120542462970309D+03 0.000000000000000D+00 0.000000000000000D+00 0.120542462970309D+03
 0.120542462970309D+03 0.000000000000000D+00 0.000000000000000D+00 -.120542462970309D+03
 0.139535322042479D+03 -.617230443811965D+02 -.446799615864222D+01 0.392541719330358D+01
 0.101549603898138D+03 0.617230443811965D+02 0.446799615864222D+01 -.392541719330358D+01
 0.000000000000000D+00 -.000000000000000D+00 -.000000000000000D+00 0.000000000000000D+00
 0.152424095079864D+03 0.000000000000000D+00 0.000000000000000D+00 0.152424095079864D+03
 0.121172471560132D+03 0.000000000000000D+00 0.000000000000000D+00 -.121172471560132D+03
 0.138347809190072D+03 -.591572649391367D+02 -.354136233679723D+00 0.392541719330358D+01
 0.102883943900704D+03 0.636106414867964D+02 0.749448782036079D+01 -.392541719330358D+01
 0.323648135492192D+02 -.445337654765972D+01 -.714035158668107D+01 0.312516235197319D+02
0.351015451793D-02 0.000000000000D+00 0.000000000000D+00 0.277049657617D-02 0.000000000000D+00  5 -3 4 25 24 21 0 0.37739852D+00 0.91128289D-03 0.14514684D+05 0.14514684D+05 0.14514684D+05 0.12494542D+01  1  2  2  1  5  1       -3 0.414968789933D-01 0.100000000000D+01
-.195008514153D-03 0.000000000000D+00 -.134799175938D-04 0.277049657617D-02 0.000000000000D+00  5 -3 4 25 24 21 2 0.37739852D+00 0.91128289D-03 0.14514684D+05 0.14514684D+05 0.14514684D+05 0.12494542D+01  1  2  3  1  5  1       -3 -.359901323084D-02 0.100000000000D+01
0.242583072710D-03 0.000000000000D+00 0.000000000000D+00 0.277049657617D-02 0.000000000000D+00  5 -3 4 25 24 21 2 0.37739852D+00 0.91128289D-03 0.14514684D+05 0.14514684D+05 0.14514684D+05 0.12494542D+01  1  2 15  1  5  1       -3 0.447703369288D-02 0.100000000000D+01
0.293444351694D-01 0.000000000000D+00 0.000000000000D+00 0.277049657617D-02 0.000000000000D+00  5 -3 4 25 24 21 2 0.47802340D+00 0.91128289D-03 0.15564613D+05 0.15564613D+05 0.15564613D+05 0.12459973D+01  1  2 12  1  5  1       -3 0.162134357193D+00 0.100000000000D+01
-.288772050375D-01 0.000000000000D+00 0.000000000000D+00 0.277049657617D-02 0.000000000000D+00  5 -3 4 25 24 21 2 0.37739852D+00 0.91128289D-03 0.14514684D+05 0.14514684D+05 0.14514684D+05 0.12494542D+01  1  2  4  1  5  1       -3 -.532948232803D+00 0.100000000000D+01
-.318545339427D-01 0.000000000000D+00 -.125519563025D-02 0.277049657617D-02 0.000000000000D+00  5 -3 4 25 24 21 2 0.47779837D+00 0.91128289D-03 0.14514684D+05 0.14514684D+05 0.14514684D+05 0.12494542D+01  1  2  5  1  5  1       -3 -.177099360744D+00 0.100000000000D+01
0.313096248955D-01 0.000000000000D+00 0.122106609054D-02 0.277049657617D-02 0.000000000000D+00  5 -3 4 25 24 21 2 0.37739852D+00 0.91128289D-03 0.14514684D+05 0.14514684D+05 0.14514684D+05 0.12494542D+01  1  2  6  1  5  1       -3 0.577840176573D+00 0.100000000000D+01
0.475933564327D-04 0.000000000000D+00 0.000000000000D+00 0.277049657617D-02 0.332823879823D-03  5 -3 4 25 24 21 2 0.47721464D+00 0.91604566D-03 0.15564613D+05 0.15564613D+05 0.15564613D+05 0.12459973D+01  1  2 11  1  5  1       -3 0.263417492672D-03 0.100000000000D+01
0.952666075600D-03 0.000000000000D+00 0.000000000000D+00 0.277049657617D-02 0.000000000000D+00  5 21 4 25 24 3 2 0.47802340D+00 0.91128289D-03 0.15564613D+05 0.15564613D+05 0.15564613D+05 0.12459973D+01  1  2 12  3  5  1       -3 0.611582964121D-01 0.100000000000D+01
-.101351023011D-02 0.000000000000D+00 -.406894345339D-04 0.277049657617D-02 0.000000000000D+00  5 21 4 25 24 3 2 0.47779837D+00 0.91128289D-03 0.14514684D+05 0.14514684D+05 0.14514684D+05 0.12494542D+01  1  2  5  3  5  1       -3 -.660464656727D-01 0.100000000000D+01
0.155197753106D-05 0.000000000000D+00 0.000000000000D+00 0.277049657617D-02 0.108177668245D-04  5 21 4 25 24 3 2 0.47721464D+00 0.91604566D-03 0.15564613D+05 0.15564613D+05 0.15564613D+05 0.12459973D+01  1  2 11  3  5  1       -3 0.100114083590D-03 0.100000000000D+01
  </mgrwgt>
  </event>
  <event>
  4     66 0.45252658E-03 0.80550718E+02 0.75467711E-02 0.12062570E+00
       -1 -1    0    0    0  501 0.00000000E+00 0.00000000E+00 0.37974238E+03 0.37974251E+03 0.32000000E+00 0.0000E+00 0.9000E+01
        2 -1    0    0  501    0 0.00000000E+00 0.00000000E+00 -.43148589E+02 0.43149776E+02 0.32000000E+00 0.0000E+00 0.9000E+01
       25  1    1    2    0    0 -.22317425E+02 0.68984616E+02 0.22495016E+03 0.26736589E+03 0.12500000E+03 0.0000E+00 0.9000E+01
       24  1    1    2    0    0 0.22317425E+02 -.68984616E+02 0.11164363E+03 0.15552640E+03 0.80419002E+02 0.0000E+00 0.9000E+01
#aMCatNLO 1  0  0  2  1 0.35592144D+02 0.00000000D+00  -5  5  0 0.00000000D+00 0.00000000D+00 0.00000000D+00 0.00000000D+00 0.00000000D+00
  <mgrwgt>
 0.3626610862D+00    9    2    0
 0.128006355756458D+03 0.000000000000000D+00 0.000000000000000D+00 0.128006355756458D+03
 0.128006355756458D+03 0.000000000000000D+00 0.000000000000000D+00 -.128006355756458D+03
 0.145891764632274D+03 -.223174249565689D+02 0.689846155845547D+02 0.200614641409310D+02
 0.110120946880642D+03 0.223174249565689D+02 -.689846155845547D+02 -.200614641409310D+02
 0.000000000000000D+00 0.000000000000000D+00 -.000000000000000D+00 -.000000000000000D+00
 0.139489049483846D+03 0.000000000000000D+00 0.000000000000000D+00 0.139489049483846D+03
 0.160130344497902D+03 0.000000000000000D+00 0.000000000000000D+00 -.160130344497902D+03
 0.157043180252964D+03 -.234827728666654D+02 0.899091624862539D+02 0.200614641409310D+02
 0.101431787919096D+03 0.215036114908842D+02 -.543720883860937D+02 -.200614641409310D+02
 0.411444258096886D+02 0.197916137578127D+01 -.355370741001602D+02 -.206412950140563D+02
0.737635897499D-03 0.000000000000D+00 0.000000000000D+00 0.259199718223D-02 0.000000000000D+00  5 -1 2 25 24 21 0 0.58422006D-01 0.66383461D-02 0.15974941D+05 0.15974941D+05 0.15974941D+05 0.12447168D+01  1  2  2  2  5  2        2 0.266515357171D+00 0.100000000000D+01
-.409717463387D-04 0.000000000000D+00 -.283271607039D-05 0.259199718223D-02 0.000000000000D+00  5 -1 2 25 24 21 2 0.58422006D-01 0.66383461D-02 0.15974941D+05 0.15974941D+05 0.15974941D+05 0.12447168D+01  1  2  3  2  5  2        2 -.229353724942D-01 0.100000000000D+01
0.510554559601D-04 0.000000000000D+00 0.000000000000D+00 0.259199718223D-02 0.000000000000D+00  5 -1 2 25 24 21 2 0.58422006D-01 0.66383461D-02 0.15974941D+05 0.15974941D+05 0.15974941D+05 0.12447168D+01  1  2 15  2  5  2        2 0.285800827386D-01 0.100000000000D+01
0.856569365976D-03 0.000000000000D+00 0.000000000000D+00 0.259199718223D-02 0.000000000000D+00  5 -1 2 25 24 21 2 0.58422006D-01 0.85452474D-02 0.21137782D+05 0.21137782D+05 0.21137782D+05 0.12311894D+01  1  2 12  2  5  2        2 0.343577893100D+00 0.100000000000D+01
-.891292449500D-03 0.000000000000D+00 0.000000000000D+00 0.259199718223D-02 0.000000000000D+00  5 -1 2 25 24 21 2 0.58422006D-01 0.66383461D-02 0.15974941D+05 0.15974941D+05 0.15974941D+05 0.12447168D+01  1  2  4  2  5  2        2 -.498932219329D+00 0.100000000000D+01
-.156525099106D-02 0.000000000000D+00 -.460826885617D-03 0.259199718223D-02 0.000000000000D+00  5 -1 2 25 24 21 2 0.58422006D-01 0.90316884D-02 0.15974941D+05 0.15974941D+05 0.15974941D+05 0.12447168D+01  1  2  5  2  5  2        2 -.595151202645D+00 0.100000000000D+01
0.164934995212D-02 0.000000000000D+00 0.439817040303D-03 0.259199718223D-02 0.000000000000D+00  5 -1 2 25 24 21 2 0.58422006D-01 0.66383461D-02 0.15974941D+05 0.15974941D+05 0.15974941D+05 0.12447168D+01  1  2  6  2  5  2        2 0.923281502635D+00 0.100000000000D+01
0.292035512853D-04 0.000000000000D+00 0.000000000000D+00 0.259199718223D-02 0.000000000000D+00  5 -1 21 25 24 -2 2 0.58422006D-01 0.85452474D-02 0.21137782D+05 0.21137782D+05 0.21137782D+05 0.12311894D+01  1  2 12  4  5  2        2 0.134030140404D+00 0.100000000000D+01
-.508936521808D-04 0.000000000000D+00 -.181498245028D-04 0.259199718223D-02 0.000000000000D+00  5 -1 21 25 24 -2 2 0.58422006D-01 0.90316884D-02 0.15974941D+05 0.15974941D+05 0.15974941D+05 0.12447168D+01  1  2  5  4  5  2        2 -.216305095358D+00 0.100000000000D+01
  </mgrwgt>
  </event>
  <event>
  4     66 0.45252658E-03 0.15897007E+03 0.75467711E-02 0.99517379E-01
       -1 -1    0    0    0  501 0.00000000E+00 0.00000000E+00 0.31018574E+02 0.31020225E+02 0.32000000E+00 0.0000E+00 0.9000E+01
        2 -1    0    0  501    0 0.00000000E+00 0.00000000E+00 -.82249762E+03 0.82249768E+03 0.32000000E+00 0.0000E+00 0.9000E+01
       25  1    1    2    0    0 -.10229030E+03 0.63003827E+02 -.38986185E+03 0.42667323E+03 0.12500000E+03 0.0000E+00 0.9000E+01
       24  1    1    2    0    0 0.10229030E+03 -.63003827E+02 -.40161720E+03 0.42684467E+03 0.80419002E+02 0.0000E+00 0.9000E+01
#aMCatNLO 1  0  0  2  1 0.53449911D+03 0.00000000D+00  -5  5  0 0.00000000D+00 0.00000000D+00 0.00000000D+00 0.00000000D+00 0.00000000D+00
  <mgrwgt>
 0.4692915861D+00    5    2    0
 0.159729253758734D+03 0.000000000000000D+00 0.000000000000000D+00 0.159729253758734D+03
 0.159729253758734D+03 0.000000000000000D+00 0.000000000000000D+00 -.159729253758734D+03
 0.174062545610617D+03 -.102290295740257D+03 0.630038270628133D+02 0.154913833229337D+02
 0.145395961906852D+03 0.102290295740257D+03 -.630038270628133D+02 -.154913833229337D+02
 0.000000000000000D+00 0.000000000000000D+00 0.000000000000000D+00 -.000000000000000D+00
 0.483830000371710D+03 0.000000000000000D+00 0.000000000000000D+00 0.483830000371710D+03
 0.725423733430292D+03 0.000000000000000D+00 0.000000000000000D+00 -.725423733430292D+03
 0.392936909836335D+03 -.337971428072555D+03 -.155915829732159D+03 0.154913833229337D+02
 0.229753248891251D+03 -.536456402559588D+02 -.207849709516239D+03 -.154913833229337D+02
 0.586563575074415D+03 0.391617068328514D+03 0.363765539248398D+03 -.241593733058582D+03
0.640571776977D-03 0.000000000000D+00 0.000000000000D+00 0.231913488853D-02 0.000000000000D+00  5 -1 2 25 24 21 0 0.47722201D-02 0.12653823D+00 0.25271485D+05 0.25271485D+05 0.25271485D+05 0.12227951D+01  1  2  2  2  5  2        2 0.458835369445D+00 0.100000000000D+01
-.355863388229D-04 0.000000000000D+00 -.245996429001D-05 0.231913488853D-02 0.000000000000D+00  5 -1 2 25 24 21 2 0.47722201D-02 0.12653823D+00 0.25271485D+05 0.25271485D+05 0.25271485D+05 0.12227951D+01  1  2  3  2  5  2        2 -.381135801676D-01 0.100000000000D+01
0.441841398976D-04 0.000000000000D+00 0.000000000000D+00 0.231913488853D-02 0.000000000000D+00  5 -1 2 25 24 21 2 0.47722201D-02 0.12653823D+00 0.25271485D+05 0.25271485D+05 0.25271485D+05 0.12227951D+01  1  2 15  2  5  2        2 0.473219728082D-01 0.100000000000D+01
0.481420075069D-03 0.000000000000D+00 -.325565508727D-03 0.231913488853D-02 0.000000000000D+00  5 -1 2 25 24 21 2 0.47722201D-02 0.74771406D+00 0.25271485D+05 0.25271485D+05 0.25271485D+05 0.12227951D+01  1  2  5  2  5  2        2 0.124398198781D-02 0.100000000000D+01
0.849768182942D-04 0.000000000000D+00 -.708763280529D-04 0.231913488853D-02 0.000000000000D+00  5 -1 21 25 24 -2 2 0.47722201D-02 0.74771406D+00 0.25271485D+05 0.25271485D+05 0.25271485D+05 0.12227951D+01  1  2  5  4  5  2        2 0.384203347127D-05 0.100000000000D+01
  </mgrwgt>
  </event>
  <event>
  4     66 0.45252658E-03 0.15350064E+03 0.75467711E-02 0.11573580E+00
       -1 -1    0    0    0  501 0.00000000E+00 0.00000000E+00 0.26965775E+02 0.26967673E+02 0.32000000E+00 0.0000E+00 0.9000E+01
        2 -1    0    0  501    0 0.00000000E+00 0.00000000E+00 -.87416889E+03 0.87416895E+03 0.32000000E+00 0.0000E+00 0.9000E+01
       25  1    1    2    0    0 -.28051611E+01 0.11283140E+03 -.45502100E+03 0.48518852E+03 0.12500000E+03 0.0000E+00 0.9000E+01
       24  1    1    2    0    0 0.28051611E+01 -.11283140E+03 -.39218211E+03 0.41594809E+03 0.80419002E+02 0.0000E+00 0.9000E+01
#aMCatNLO 1  0  0  2  1 0.68011605D+02 0.00000000D+00  -5  5  0 0.00000000D+00 0.00000000D+00 0.00000000D+00 0.00000000D+00 0.00000000D+00
  <mgrwgt>
 0.4205998404D+00    4    2    0
 0.153536716233064D+03 0.000000000000000D+00 0.000000000000000D+00 0.153536716233064D+03
 0.153536716233064D+03 0.000000000000000D+00 0.000000000000000D+00 -.153536716233064D+03
 0.168448107251302D+03 -.280516109851524D+01 0.112831396769464D+03 0.331237238383761D+01
 0.138625325214827D+03 0.280516109851524D+01 -.112831396769464D+03 -.331237238383761D+01
 0.000000000000000D+00 -.000000000000000D+00 0.000000000000000D+00 0.000000000000000D+00
 0.270064707413762D+03 0.000000000000000D+00 0.000000000000000D+00 0.270064707413762D+03
 0.167508558024389D+03 0.000000000000000D+00 0.000000000000000D+00 -.167508558024389D+03
 0.158356005114717D+03 0.271434019714939D+02 0.932946315416750D+02 0.331237238383761D+01
 0.156158972736536D+03 0.298194054277208D+02 -.130453976792154D+03 -.331237238383761D+01
 0.123058287586898D+03 -.569628073992148D+02 0.371593452504786D+02 0.102556149389373D+03
0.573509748968D-03 0.000000000000D+00 0.000000000000D+00 0.238105564312D-02 0.000000000000D+00  5 -1 2 25 24 21 0 0.41487313D-02 0.13448767D+00 0.23562447D+05 0.23562447D+05 0.23562447D+05 0.12260647D+01  1  2  2  2  5  2        2 0.466560584722D+00 0.100000000000D+01
-.318616505813D-04 0.000000000000D+00 -.220242844462D-05 0.238105564312D-02 0.000000000000D+00  5 -1 2 25 24 21 2 0.41487313D-02 0.13448767D+00 0.23562447D+05 0.23562447D+05 0.23562447D+05 0.12260647D+01  1  2  3  2  5  2        2 -.389638914544D-01 0.100000000000D+01
0.395307323443D-04 0.000000000000D+00 0.000000000000D+00 0.238105564312D-02 0.000000000000D+00  5 -1 2 25 24 21 2 0.41487313D-02 0.13448767D+00 0.23562447D+05 0.23562447D+05 0.23562447D+05 0.12260647D+01  1  2 15  2  5  2        2 0.483424786876D-01 0.100000000000D+01
-.452522163415D-04 0.000000000000D+00 0.000000000000D+00 0.238105564312D-02 0.000000000000D+00  5 -1 2 25 24 21 2 0.41487313D-02 0.13448767D+00 0.23562447D+05 0.23562447D+05 0.23562447D+05 0.12260647D+01  1  2  4  2  5  2        2 -.553393315610D-01 0.100000000000D+01
  </mgrwgt>
  </event>
  <event>
  4     66 0.45252658E-03 0.11753969E+03 0.75467711E-02 0.11241845E+00
       -1 -1    0    0    0  501 0.00000000E+00 0.00000000E+00 0.21158085E+02 0.21160505E+02 0.32000000E+00 0.0000E+00 0.9000E+01
        2 -1    0    0  501    0 0.00000000E+00 0.00000000E+00 -.76790103E+03 0.76790110E+03 0.32000000E+00 0.0000E+00 0.9000E+01
       25  1    1    2    0    0 -.50786434E+02 0.23866391E+02 -.27511459E+03 0.30734655E+03 0.12500000E+03 0.0000E+00 0.9000E+01
       24  1    1    2    0    0 0.50786434E+02 -.23866391E+02 -.47162836E+03 0.48171505E+03 0.80419002E+02 0.0000E+00 0.9000E+01
#aMCatNLO 1  0  0  1  1 0.17423962D+03 0.00000000D+00  -5  5  0 0.00000000D+00 0.00000000D+00 0.00000000D+00 0.00000000D+00 0.00000000D+00
  <mgrwgt>
 0.3409323231D+00    5    2    0
 0.127468806213255D+03 0.000000000000000D+00 0.000000000000000D+00 0.127468806213255D+03
 0.127468806213255D+03 0.000000000000000D+00 0.000000000000000D+00 -.127468806213255D+03
 0.145429639764776D+03 -.507864344812027D+02 0.238663907263356D+02 0.487433440430261D+02
 0.109507972661733D+03 0.507864344812027D+02 -.238663907263356D+02 -.487433440430261D+02
 0.000000000000000D+00 -.000000000000000D+00 0.000000000000000D+00 0.000000000000000D+00
 0.369561815467735D+03 0.000000000000000D+00 0.000000000000000D+00 0.369561815467735D+03
 0.189670596765325D+03 0.000000000000000D+00 0.000000000000000D+00 -.189670596765325D+03
 0.138479251161656D+03 0.342225477807814D+02 0.209919917785493D+01 0.487433440430261D+02
 0.170312960270076D+03 0.134571386218751D+03 -.453201600201601D+02 -.487433440430261D+02
 0.250440200801328D+03 -.168793933999533D+03 0.432209608423052D+02 0.179891218702411D+03
0.234571587702D-03 0.000000000000D+00 0.000000000000D+00 0.231527885095D-02 0.000000000000D+00  5 -1 2 25 24 21 0 0.32552813D-02 0.11813881D+00 0.13815579D+05 0.13815579D+05 0.13815579D+05 0.12519156D+01  1  2  2  1  5  1       -1 0.315149546411D+00 0.100000000000D+01
-.129275521982D-04 0.000000000000D+00 -.900816660895D-06 0.231527885095D-02 0.000000000000D+00  5 -1 2 25 24 21 2 0.32552813D-02 0.11813881D+00 0.13815579D+05 0.13815579D+05 0.13815579D+05 0.12519156D+01  1  2  3  1  5  1       -1 -.272212250028D-01 0.100000000000D+01
0.161749888773D-04 0.000000000000D+00 0.000000000000D+00 0.231527885095D-02 0.000000000000D+00  5 -1 2 25 24 21 2 0.32552813D-02 0.11813881D+00 0.13815579D+05 0.13815579D+05 0.13815579D+05 0.12519156D+01  1  2 15  1  5  1       -1 0.340592716157D-01 0.100000000000D+01
0.238497398138D-04 0.000000000000D+00 -.814232679590D-04 0.231527885095D-02 0.000000000000D+00  5 -1 2 25 24 21 2 0.14102382D-01 0.11813881D+00 0.13815579D+05 0.13815579D+05 0.13815579D+05 0.12519156D+01  1  2  5  1  5  1       -1 0.560606130895D-02 0.100000000000D+01
0.405279533985D-05 0.000000000000D+00 -.143797057703D-04 0.231527885095D-02 0.000000000000D+00  5 21 2 25 24 1 2 0.14102382D-01 0.11813881D+00 0.13815579D+05 0.13815579D+05 0.13815579D+05 0.12519156D+01  1  2  5  3  5  1       -1 0.133386687788D-01 0.100000000000D+01
  </mgrwgt>
  </event>
  <event>
  5     66 0.45252658E-03 0.11587515E+03 0.75467711E-02 0.12032970E+00
       21 -1    0    0  502  501 0.00000000E+00 0.00000000E+00 0.11149986E+02 0.11175182E+02 0.75000000E+00 0.0000E+00 0.9000E+01
        2 -1    0    0  501    0 0.00000000E+00 0.00000000E+00 -.20076580E+04 0.20076580E+04 0.32000000E+00 0.0000E+00 0.9000E+01
       25  1    1    2    0    0 -.55457004E+01 0.21163977E+02 -.91281969E+03 0.92159832E+03 0.12500000E+03 0.0000E+00 0.9000E+01
       24  1    1    2    0    0 0.38651007E+02 -.67302930E+02 -.60990687E+03 0.62006225E+03 0.80419002E+02 0.0000E+00 0.9000E+01
        1  1    1    2  502    0 -.33105306E+02 0.46138953E+02 -.47378147E+03 0.47717266E+03 0.32000000E+00 0.0000E+00 0.9000E+01
#aMCatNLO 2  0  0  1  1 0.56787008D+02 0.00000000D+00  -5  5  0 0.00000000D+00 0.00000000D+00 0.00000000D+00 0.00000000D+00 0.00000000D+00
  <mgrwgt>
 0.1150274265D+00    1    2    0
 0.117043101655203D+03 0.000000000000000D+00 0.000000000000000D+00 0.117043101655203D+03
 0.117043101655203D+03 0.000000000000000D+00 0.000000000000000D+00 -.117043101655203D+03
 0.136603810308942D+03 -.239844723883067D+02 0.468621421761449D+02 -.162568664212636D+02
 0.974823930014647D+02 0.239844723883067D+02 -.468621421761449D+02 0.162568664212636D+02
 0.000000000000000D+00 -.000000000000000D+00 0.000000000000000D+00 -.000000000000000D+00
 0.142008570345942D+03 0.000000000000000D+00 0.000000000000000D+00 0.142008570345942D+03
 0.157812207567869D+03 0.000000000000000D+00 0.000000000000000D+00 -.157812207567869D+03
 0.127937306552719D+03 -.554570042174983D+01 0.211639766810945D+02 -.162568664212636D+02
 0.112938418446572D+03 0.386510066697703D+02 -.673029299838950D+02 0.162568664212636D+02
 0.589450529145197D+02 -.331053062480205D+02 0.461389533028006D+02 -.158036372219276D+02
0.503307664368D-05 0.000000000000D+00 0.000000000000D+00 0.279542726783D-02 0.267271587104D-06  5 21 2 25 24 1 2 0.17173175D-02 0.30887150D+00 0.21822600D+05 0.21822600D+05 0.21822600D+05 0.12296778D+01  1  2  1  3  5  1       -1 0.115027426494D+00 0.100000000000D+01
  </mgrwgt>
  </event>
  <event>
  4     66 0.45252658E-03 0.19312016E+03 0.75467711E-02 0.10531680E+00
       -1 -1    0    0    0  501 0.00000000E+00 0.00000000E+00 0.59116029E+03 0.59116038E+03 0.32000000E+00 0.0000E+00 0.9000E+01
        2 -1    0    0  501    0 0.00000000E+00 0.00000000E+00 -.88423975E+02 0.88424554E+02 0.32000000E+00 0.0000E+00 0.9000E+01
       25  1    1    2    0    0 0.27814990E+02 -.16005048E+03 0.80737644E+02 0.22030297E+03 0.12500000E+03 0.0000E+00 0.9000E+01
       24  1    1    2    0    0 -.27814990E+02 0.16005048E+03 0.42199867E+03 0.45928197E+03 0.80419002E+02 0.0000E+00 0.9000E+01
#aMCatNLO 1  0  0  2  1 0.28025433D+03 0.00000000D+00  -5  5  0 0.00000000D+00 0.00000000D+00 0.00000000D+00 0.00000000D+00 0.00000000D+00
  <mgrwgt>
 0.4001394278D+00    3    2    0
 0.228632826025545D+03 0.000000000000000D+00 0.000000000000000D+00 0.228632826025545D+03
 0.228632826025545D+03 0.000000000000000D+00 0.000000000000000D+00 -.228632826025545D+03
 0.238646462523883D+03 0.278149896436910D+02 -.160050479066550D+03 -.122218266134208D+03
 0.218619189527208D+03 -.278149896436910D+02 0.160050479066550D+03 0.122218266134208D+03
 0.000000000000000D+00 0.000000000000000D+00 0.000000000000000D+00 0.000000000000000D+00
 0.115175956979804D+04 0.000000000000000D+00 0.000000000000000D+00 0.115175956979804D+04
 0.290380026899277D+03 0.000000000000000D+00 0.000000000000000D+00 -.290380026899277D+03
 0.353067185813613D+03 -.627107291498361D+02 -.300269041979003D+03 -.122218266134208D+03
 0.183248362114649D+03 -.892963312932997D+02 0.648198033322849D+02 0.122218266134208D+03
 0.905824048769054D+03 0.152007060443136D+03 0.235449238646718D+03 0.861379542898761D+03
0.631876035670D-02 0.000000000000D+00 0.000000000000D+00 0.151940616893D-02 0.000000000000D+00  5 -1 2 25 24 21 0 0.90947789D-01 0.13603740D-01 0.37295396D+05 0.37295396D+05 0.37295396D+05 0.12051002D+01  1  2  2  2  5  2        2 0.391806203318D+00 0.100000000000D+01
-.338880094987D-03 0.000000000000D+00 -.242657035375D-04 0.151940616893D-02 0.000000000000D+00  5 -1 2 25 24 21 2 0.90947789D-01 0.13603740D-01 0.37295396D+05 0.37295396D+05 0.37295396D+05 0.12051002D+01  1  2  3  2  5  2        2 -.305162922787D-01 0.100000000000D+01
0.431419642845D-03 0.000000000000D+00 0.000000000000D+00 0.151940616893D-02 0.000000000000D+00  5 -1 2 25 24 21 2 0.90947789D-01 0.13603740D-01 0.37295396D+05 0.37295396D+05 0.37295396D+05 0.12051002D+01  1  2 15  2  5  2        2 0.388495167187D-01 0.100000000000D+01
  </mgrwgt>
  </event>
  <event>
  4     66 0.45252658E-03 0.86136610E+02 0.75467711E-02 0.12055412E+00
       -1 -1    0    0    0  501 0.00000000E+00 0.00000000E+00 0.23826362E+03 0.23826384E+03 0.32000000E+00 0.0000E+00 0.9000E+01
        2 -1    0    0  501    0 0.00000000E+00 0.00000000E+00 -.23657071E+03 0.23657093E+03 0.32000000E+00 0.0000E+00 0.9000E+01
       25  1    1    2    0    0 -.17984991E+02 -.79449550E+02 0.19780209E+03 0.24776271E+03 0.12500000E+03 0.0000E+00 0.9000E+01
       24  1    1    2    0    0 0.17984991E+02 0.79449550E+02 -.19610918E+03 0.22707206E+03 0.80419002E+02 0.0000E+00 0.9000E+01
#aMCatNLO 1  0  0  1  2 0.27005566D+02 0.00000000D+00  -5  5  0 0.00000000D+00 0.00000000D+00 0.00000000D+00 0.00000000D+00 0.00000000D+00
  <mgrwgt>
 0.2132651836D+00    6    2    0
 0.237415872689785D+03 0.000000000000000D+00 0.000000000000000D+00 0.237415872689785D+03
 0.237415872689785D+03 0.000000000000000D+00 0.000000000000000D+00 -.237415872689785D+03
 0.247059061182068D+03 -.179849914663253D+02 -.794495495946136D+02 0.196920006254657D+03
 0.227772684197503D+03 0.179849914663253D+02 0.794495495946136D+02 -.196920006254657D+03
 0.000000000000000D+00 0.000000000000000D+00 -.000000000000000D+00 -.000000000000000D+00
 0.250867648967851D+03 0.000000000000000D+00 0.000000000000000D+00 0.250867648967851D+03
 0.251751457991711D+03 0.000000000000000D+00 0.000000000000000D+00 -.251751457991711D+03
 0.247951484004039D+03 -.319557626398484D+02 -.778220970584634D+02 0.196920006254657D+03
 0.227647598246042D+03 0.513158336083140D+01 0.809468407147418D+02 -.196920006254657D+03
 0.270200247094808D+02 0.268241792790170D+02 -.312474365627838D+01 -.883809023859795D+00
0.124023355325D-02 0.000000000000D+00 0.000000000000D+00 0.697997159573D-03 0.000000000000D+00  5 -1 2 25 24 21 0 0.36655975D-01 0.36395527D-01 0.17380217D+05 0.17380217D+05 0.17380217D+05 0.12405959D+01  1  2  2  1  5  1       -1 0.142841359728D+00 0.100000000000D+01
-.399107436570D-04 0.000000000000D+00 -.476282340547D-05 0.697997159573D-03 0.000000000000D+00  5 -1 2 25 24 21 2 0.36655975D-01 0.36395527D-01 0.17380217D+05 0.17380217D+05 0.17380217D+05 0.12405959D+01  1  2  3  1  5  1       -1 -.707458502361D-02 0.100000000000D+01
0.840515017587D-04 0.000000000000D+00 0.000000000000D+00 0.697997159573D-03 0.000000000000D+00  5 -1 2 25 24 21 2 0.36655975D-01 0.36395527D-01 0.17380217D+05 0.17380217D+05 0.17380217D+05 0.12405959D+01  1  2 15  1  5  1       -1 0.148989831075D-01 0.100000000000D+01
0.167686862240D-02 0.000000000000D+00 0.000000000000D+00 0.697997159573D-03 0.000000000000D+00  5 -1 2 25 24 21 2 0.39776804D-01 0.36395527D-01 0.21301069D+05 0.21301069D+05 0.21301069D+05 0.12308240D+01  1  2 12  1  5  1       -1 0.254226527007D+00 0.100000000000D+01
-.129094243183D-02 0.000000000000D+00 0.000000000000D+00 0.697997159573D-03 0.000000000000D+00  5 -1 2 25 24 21 2 0.36655975D-01 0.36395527D-01 0.17380217D+05 0.17380217D+05 0.17380217D+05 0.12405959D+01  1  2  4  1  5  1       -1 -.228832669045D+00 0.100000000000D+01
0.228214849760D-04 0.000000000000D+00 0.000000000000D+00 0.697997159573D-03 0.000000000000D+00  5 21 2 25 24 1 2 0.39776804D-01 0.36395527D-01 0.21301069D+05 0.21301069D+05 0.21301069D+05 0.12308240D+01  1  2 12  3  5  1       -1 0.372055678480D-01 0.100000000000D+01
  </mgrwgt>
  </event>
  <event>
  4     66 0.45252658E-03 0.78581222E+02 0.75467711E-02 0.12426218E+00
       -1 -1    0    0    0  501 0.00000000E+00 0.00000000E+00 0.39713350E+03 0.39713363E+03 0.32000000E+00 0.0000E+00 0.9000E+01
        2 -1    0    0  501    0 0.00000000E+00 0.00000000E+00 -.62138802E+02 0.62139626E+02 0.32000000E+00 0.0000E+00 0.9000E+01
       25  1    1    2    0    0 -.45473159E+02 0.12084049E+02 0.25391531E+02 0.13595427E+03 0.12500000E+03 0.0000E+00 0.9000E+01
       24  1    1    2    0    0 0.45473159E+02 -.12084049E+02 0.30960317E+03 0.32331899E+03 0.80419002E+02 0.0000E+00 0.9000E+01
#aMCatNLO 1  0  0  2  1 0.13077961D+02 0.00000000D+00  -5  5  0 0.00000000D+00 0.00000000D+00 0.00000000D+00 0.00000000D+00 0.00000000D+00
  <mgrwgt>
 0.4184141205D+00    6    2    0
 0.157091116590492D+03 0.000000000000000D+00 0.000000000000000D+00 0.157091116590492D+03
 0.157091116590492D+03 0.000000000000000D+00 0.000000000000000D+00 -.157091116590492D+03
 0.171665117088404D+03 -.454731593847665D+02 0.120840491780921D+02 -.107842848423086D+03
 0.142517116092581D+03 0.454731593847665D+02 -.120840491780921D+02 0.107842848423086D+03
 0.000000000000000D+00 -.000000000000000D+00 -.000000000000000D+00 0.000000000000000D+00
 0.164101611904740D+03 0.000000000000000D+00 0.000000000000000D+00 0.164101611904740D+03
 0.163447023425405D+03 0.000000000000000D+00 0.000000000000000D+00 -.163447023425405D+03
 0.170119351886679D+03 -.386121299353374D+02 0.139505323266039D+02 -.107842848423086D+03
 0.144334951150674D+03 0.512314680840687D+02 -.105175515802615D+02 0.107842848423086D+03
 0.130943322927922D+02 -.126193381487313D+02 -.343298074634245D+01 0.654588479335249D+00
0.951488643386D-03 0.000000000000D+00 0.000000000000D+00 0.133326504062D-02 0.000000000000D+00  5 -1 2 25 24 21 0 0.61097535D-01 0.95598890D-02 0.12852103D+05 0.12852103D+05 0.12852103D+05 0.12555473D+01  1  2  2  2  5  2        2 0.199046851600D+00 0.100000000000D+01
-.460218964222D-04 0.000000000000D+00 -.365396692332D-05 0.133326504062D-02 0.000000000000D+00  5 -1 2 25 24 21 2 0.61097535D-01 0.95598890D-02 0.12852103D+05 0.12852103D+05 0.12852103D+05 0.12555473D+01  1  2  3  2  5  2        2 -.151768761353D-01 0.100000000000D+01
0.648691506658D-04 0.000000000000D+00 0.000000000000D+00 0.133326504062D-02 0.000000000000D+00  5 -1 2 25 24 21 2 0.61097535D-01 0.95598890D-02 0.12852103D+05 0.12852103D+05 0.12852103D+05 0.12555473D+01  1  2 15  2  5  2        2 0.213922315506D-01 0.100000000000D+01
0.223083885687D-02 0.000000000000D+00 0.000000000000D+00 0.133326504062D-02 0.000000000000D+00  5 -1 2 25 24 21 2 0.61097535D-01 0.10151146D-01 0.14469328D+05 0.14469328D+05 0.14469328D+05 0.12496098D+01  1  2 12  2  5  2        2 0.678860406017D+00 0.100000000000D+01
-.164991420630D-02 0.000000000000D+00 0.000000000000D+00 0.133326504062D-02 0.000000000000D+00  5 -1 2 25 24 21 2 0.61097535D-01 0.95598890D-02 0.12852103D+05 0.12852103D+05 0.12852103D+05 0.12555473D+01  1  2  4  2  5  2        2 -.544100645339D+00 0.100000000000D+01
0.244369715094D-04 0.000000000000D+00 0.000000000000D+00 0.133326504062D-02 0.000000000000D+00  5 -1 21 25 24 -2 2 0.61097535D-01 0.10151146D-01 0.14469328D+05 0.14469328D+05 0.14469328D+05 0.12496098D+01  1  2 12  4  5  2        2 0.783921527637D-01 0.100000000000D+01
  </mgrwgt>
  </event>
  <event>
  4     66 0.45252658E-03 0.63084899E+02 0.75467711E-02 0.11549649E+00
       -1 -1    0    0    0  501 0.00000000E+00 0.00000000E+00 0.18250288E+02 0.18253093E+02 0.32000000E+00 0.0000E+00 0.9000E+01
        2 -1    0    0  501    0 0.00000000E+00 0.00000000E+00 -.15645710E+04 0.15645710E+04 0.32000000E+00 0.0000E+00 0.9000E+01
       25  1    1    2    0    0 0.80700588E+02 0.49621900E+02 -.12724454E+04 0.12820754E+04 0.12500000E+03 0.0000E+00 0.9000E+01
       24  1    1    2    0    0 -.80700588E+02 -.49621900E+02 -.27387524E+03 0.30074870E+03 0.80419002E+02 0.0000E+00 0.9000E+01
#aMCatNLO 1  0  0  1  2 0.93054518D+02 0.00000000D+00  -5  5  0 0.00000000D+00 0.00000000D+00 0.00000000D+00 0.00000000D+00 0.00000000D+00
  <mgrwgt>
 0.3921336967D+00    9    2    0
 0.168985552245835D+03 0.000000000000000D+00 0.000000000000000D+00 0.168985552245835D+03
 0.168985552245835D+03 0.000000000000000D+00 0.000000000000000D+00 -.168985552245835D+03
 0.182533728293908D+03 0.807005876151957D+02 0.496218995413441D+02 -.933736804958711D+02
 0.155437376197762D+03 -.807005876151957D+02 -.496218995413441D+02 0.933736804958711D+02
 0.000000000000000D+00 0.000000000000000D+00 -.000000000000000D+00 0.000000000000000D+00
 0.238886847590275D+03 0.000000000000000D+00 0.000000000000000D+00 0.238886847590275D+03
 0.209304322049942D+03 0.000000000000000D+00 0.000000000000000D+00 -.209304322049942D+03
 0.201052403047856D+03 0.762980944180256D+02 0.101276973444859D+03 -.933736804958711D+02
 0.149495184100818D+03 -.842003583645038D+02 -.855859549874518D+01 0.933736804958711D+02
 0.976435824915423D+02 0.790226394647825D+01 -.927183779461135D+02 0.295825255403332D+02
0.626100440441D-03 0.000000000000D+00 0.000000000000D+00 0.163514263060D-02 0.000000000000D+00  5 -1 2 25 24 21 0 0.28079549D-02 0.24070344D+00 0.19755707D+05 0.19755707D+05 0.19755707D+05 0.12344141D+01  1  2  2  1  5  1       -1 0.368272357683D+00 0.100000000000D+01
-.333481986375D-04 0.000000000000D+00 -.240439054732D-05 0.163514263060D-02 0.000000000000D+00  5 -1 2 25 24 21 2 0.28079549D-02 0.24070344D+00 0.19755707D+05 0.19755707D+05 0.19755707D+05 0.12344141D+01  1  2  3  1  5  1       -1 -.298895397380D-01 0.100000000000D+01
0.430189649273D-04 0.000000000000D+00 0.000000000000D+00 0.163514263060D-02 0.000000000000D+00  5 -1 2 25 24 21 2 0.28079549D-02 0.24070344D+00 0.19755707D+05 0.19755707D+05 0.19755707D+05 0.12344141D+01  1  2 15  1  5  1       -1 0.385573168632D-01 0.100000000000D+01
0.682173966435D-04 0.000000000000D+00 0.000000000000D+00 0.163514263060D-02 0.000000000000D+00  5 -1 2 25 24 21 2 0.41919581D-02 0.24070344D+00 0.37608336D+05 0.37608336D+05 0.37608336D+05 0.12047289D+01  1  2 12  1  5  1       -1 0.324920021858D-01 0.100000000000D+01
-.237441871843D-03 0.000000000000D+00 0.000000000000D+00 0.163514263060D-02 0.000000000000D+00  5 -1 2 25 24 21 2 0.28079549D-02 0.24070344D+00 0.19755707D+05 0.19755707D+05 0.19755707D+05 0.12344141D+01  1  2  4  1  5  1       -1 -.212815940707D+00 0.100000000000D+01
-.222346172602D-03 0.000000000000D+00 -.194372501020D-03 0.163514263060D-02 0.000000000000D+00  5 -1 2 25 24 21 2 0.50498965D-02 0.24070344D+00 0.19755707D+05 0.19755707D+05 0.19755707D+05 0.12344141D+01  1  2  5  1  5  1       -1 -.842327534123D-01 0.100000000000D+01
0.310633807854D-03 0.000000000000D+00 0.165109548196D-03 0.163514263060D-02 0.000000000000D+00  5 -1 2 25 24 21 2 0.28079549D-02 0.24070344D+00 0.19755707D+05 0.19755707D+05 0.19755707D+05 0.12344141D+01  1  2  6  1  5  1       -1 0.278416883765D+00 0.100000000000D+01
0.325137194829D-05 0.000000000000D+00 0.000000000000D+00 0.163514263060D-02 0.000000000000D+00  5 21 2 25 24 1 2 0.41919581D-02 0.24070344D+00 0.37608336D+05 0.37608336D+05 0.37608336D+05 0.12047289D+01  1  2 12  3  5  1       -1 0.277316777921D-01 0.100000000000D+01
-.399553572999D-05 0.000000000000D+00 -.125140995588D-04 0.163514263060D-02 0.000000000000D+00  5 21 2 25 24 1 2 0.50498965D-02 0.24070344D+00 0.19755707D+05 0.19755707D+05 0.19755707D+05 0.12344141D+01  1  2  5  3  5  1       -1 -.263983077563D-01 0.100000000000D+01
  </mgrwgt>
  </event>
  <event>
  4     66 0.45252658E-03 0.12241347E+03 0.75467711E-02 0.10681711E+00
       -1 -1    0    0    0  501 0.00000000E+00 0.00000000E+00 0.44368199E+02 0.44369353E+02 0.32000000E+00 0.0000E+00 0.9000E+01
        2 -1    0    0  501    0 0.00000000E+00 0.00000000E+00 -.75452899E+03 0.75452906E+03 0.32000000E+00 0.0000E+00 0.9000E+01
       25  1    1    2    0    0 -.48994338E+02 -.43454456E+02 -.67468955E+03 0.68928929E+03 0.12500000E+03 0.0000E+00 0.9000E+01
       24  1    1    2    0    0 0.48994338E+02 0.43454456E+02 -.35471243E+02 0.10960912E+03 0.80419002E+02 0.0000E+00 0.9000E+01
#aMCatNLO 1  0  0  1  2 0.29374736D+03 0.00000000D+00  -5  5  0 0.00000000D+00 0.00000000D+00 0.00000000D+00 0.00000000D+00 0.00000000D+00
  <mgrwgt>
 0.3436060530D+00    5    2    0
 0.182968795827360D+03 0.000000000000000D+00 0.000000000000000D+00 0.182968795827360D+03
 0.182968795827360D+03 0.000000000000000D+00 0.000000000000000D+00 -.182968795827360D+03
 0.195481563379088D+03 -.489943382448802D+02 -.434544562374874D+02 -.135274929954456D+03
 0.170456028275632D+03 0.489943382448802D+02 0.434544562374874D+02 0.135274929954456D+03
 0.000000000000000D+00 -.000000000000000D+00 -.000000000000000D+00 0.000000000000000D+00
 0.472204030742308D+03 0.000000000000000D+00 0.000000000000000D+00 0.472204030742308D+03
 0.325425413380322D+03 0.000000000000000D+00 0.000000000000000D+00 -.325425413380322D+03
 0.198635318595407D+03 0.405957748479415D+02 0.623190675781589D+02 -.135274929954456D+03
 0.270617098124334D+03 0.149258480898213D+03 0.161830148762954D+03 0.135274929954456D+03
 0.328377027402888D+03 -.189854255746154D+03 -.224149216341113D+03 0.146778617361986D+03
0.570767924866D-03 0.000000000000D+00 0.000000000000D+00 0.107734471377D-02 0.000000000000D+00  5 -1 2 25 24 21 0 0.68259707D-02 0.11608148D+00 0.14985057D+05 0.14985057D+05 0.14985057D+05 0.12478719D+01  1  2  2  1  5  1       -1 0.263970765362D+00 0.100000000000D+01
-.254816124838D-04 0.000000000000D+00 -.219189911813D-05 0.107734471377D-02 0.000000000000D+00  5 -1 2 25 24 21 2 0.68259707D-02 0.11608148D+00 0.14985057D+05 0.14985057D+05 0.14985057D+05 0.12478719D+01  1  2  3  1  5  1       -1 -.183511454674D-01 0.100000000000D+01
0.386829683889D-04 0.000000000000D+00 0.000000000000D+00 0.107734471377D-02 0.000000000000D+00  5 -1 2 25 24 21 2 0.68259707D-02 0.11608148D+00 0.14985057D+05 0.14985057D+05 0.14985057D+05 0.12478719D+01  1  2 15  1  5  1       -1 0.278583932028D-01 0.100000000000D+01
0.351787746721D-03 0.000000000000D+00 -.204898056654D-03 0.107734471377D-02 0.000000000000D+00  5 -1 2 25 24 21 2 0.31413707D-01 0.11608148D+00 0.14985057D+05 0.14985057D+05 0.14985057D+05 0.12478719D+01  1  2  5  1  5  1       -1 0.230748661865D-01 0.100000000000D+01
0.624267384897D-04 0.000000000000D+00 -.378944182815D-04 0.107734471377D-02 0.000000000000D+00  5 21 2 25 24 1 2 0.31413707D-01 0.11608148D+00 0.14985057D+05 0.14985057D+05 0.14985057D+05 0.12478719D+01  1  2  5  3  5  1       -1 0.470531737159D-01 0.100000000000D+01
  </mgrwgt>
  </event>
  <event>
  4     66 0.45252658E-03 0.70929735E+02 0.75467711E-02 0.12424815E+00
       -1 -1    0    0    0  501 0.00000000E+00 0.00000000E+00 0.10561757E+03 0.10561805E+03 0.32000000E+00 0.0000E+00 0.9000E+01
        2 -1    0    0  501    0 0.00000000E+00 0.00000000E+00 -.11851591E+03 0.11851634E+03 0.32000000E+00 0.0000E+00 0.9000E+01
       25  1    1    2    0    0 0.43329361E+02 -.34976220E+01 -.82854424E+01 0.13260209E+03 0.12500000E+03 0.0000E+00 0.9000E+01
       24  1    1    2    0    0 -.43329361E+02 0.34976220E+01 -.46128963E+01 0.91532298E+02 0.80419002E+02 0.0000E+00 0.9000E+01
#aMCatNLO 1  0  0  2  1 0.16389374D+02 0.00000000D+00  -5  5  0 0.00000000D+00 0.00000000D+00 0.00000000D+00 0.00000000D+00 0.00000000D+00
  <mgrwgt>
 0.3132826840D+00    9    2    0
 0.111881476272822D+03 0.000000000000000D+00 0.000000000000000D+00 0.111881476272822D+03
 0.111881476272822D+03 0.000000000000000D+00 0.000000000000000D+00 -.111881476272822D+03
 0.132344613582742D+03 0.433293610980957D+02 -.349762197866422D+01 -.655630757825568D+00
 0.914183389629015D+02 -.433293610980957D+02 0.349762197866422D+01 0.655630757825568D+00
 0.000000000000000D+00 0.000000000000000D+00 0.000000000000000D+00 -.000000000000000D+00
 0.117955656978095D+03 0.000000000000000D+00 0.000000000000000D+00 0.117955656978095D+03
 0.123810446610404D+03 0.000000000000000D+00 0.000000000000000D+00 -.123810446610404D+03
 0.132076092922395D+03 0.406800490487781D+02 -.127983623695966D+02 -.655630757825568D+00
 0.922862713719004D+02 -.451699538569148D+02 -.296400847351899D+01 0.655630757825568D+00
 0.174037392942042D+02 0.448990480813670D+01 0.157623708431156D+02 -.585478963230925D+01
0.208451643002D-03 0.000000000000D+00 0.000000000000D+00 0.296192381255D-02 0.000000000000D+00  5 -1 2 25 24 21 0 0.16248927D-01 0.18233287D-01 0.12517020D+05 0.12517020D+05 0.12517020D+05 0.12568827D+01  1  2  2  2  5  2        2 0.192823538039D+00 0.100000000000D+01
-.115806468290D-04 0.000000000000D+00 -.800509195705D-06 0.296192381255D-02 0.000000000000D+00  5 -1 2 25 24 21 2 0.16248927D-01 0.18233287D-01 0.12517020D+05 0.12517020D+05 0.12517020D+05 0.12568827D+01  1  2  3  2  5  2        2 -.169229880287D-01 0.100000000000D+01
0.143750113503D-04 0.000000000000D+00 0.000000000000D+00 0.296192381255D-02 0.000000000000D+00  5 -1 2 25 24 21 2 0.16248927D-01 0.18233287D-01 0.12517020D+05 0.12517020D+05 0.12517020D+05 0.12568827D+01  1  2 15  2  5  2        2 0.210064384646D-01 0.100000000000D+01
0.397875854077D-03 0.000000000000D+00 0.000000000000D+00 0.296192381255D-02 0.000000000000D+00  5 -1 2 25 24 21 2 0.16248927D-01 0.20631324D-01 0.14489874D+05 0.14489874D+05 0.14489874D+05 0.12495392D+01  1  2 12  2  5  2        2 0.502625592929D+00 0.100000000000D+01
-.374062668826D-03 0.000000000000D+00 0.000000000000D+00 0.296192381255D-02 0.000000000000D+00  5 -1 2 25 24 21 2 0.16248927D-01 0.18233287D-01 0.12517020D+05 0.12517020D+05 0.12517020D+05 0.12568827D+01  1  2  4  2  5  2        2 -.546623876887D+00 0.100000000000D+01
-.106269556062D-02 0.000000000000D+00 -.234561285870D-03 0.296192381255D-02 0.000000000000D+00  5 -1 2 25 24 21 2 0.16248927D-01 0.21210544D-01 0.12517020D+05 0.12517020D+05 0.12517020D+05 0.12568827D+01  1  2  5  2  5  2        2 -.130968281911D+01 0.100000000000D+01
0.108835785254D-02 0.000000000000D+00 0.231903662320D-03 0.296192381255D-02 0.000000000000D+00  5 -1 2 25 24 21 2 0.16248927D-01 0.18233287D-01 0.12517020D+05 0.12517020D+05 0.12517020D+05 0.12568827D+01  1  2  6  2  5  2        2 0.159043507512D+01 0.100000000000D+01
0.773671415482D-05 0.000000000000D+00 0.000000000000D+00 0.296192381255D-02 0.000000000000D+00  5 -1 21 25 24 -2 2 0.16248927D-01 0.20631324D-01 0.14489874D+05 0.14489874D+05 0.14489874D+05 0.12495392D+01  1  2 12  4  5  2        2 0.661723759619D-01 0.100000000000D+01
-.227519217000D-04 0.000000000000D+00 -.538659465099D-05 0.296192381255D-02 0.000000000000D+00  5 -1 21 25 24 -2 2 0.16248927D-01 0.21210544D-01 0.12517020D+05 0.12517020D+05 0.12517020D+05 0.12568827D+01  1  2  5  4  5  2        2 -.186550652478D+00 0.100000000000D+01
  </mgrwgt>
  </event>
  <event>
  4     66 0.45252658E-03 0.84463842E+02 0.75467711E-02 0.11992106E+00
       -1 -1    0    0    0  501 0.00000000E+00 0.00000000E+00 0.49544636E+02 0.49545670E+02 0.32000000E+00 0.0000E+00 0.9000E+01
        2 -1    0    0  501    0 0.00000000E+00 0.00000000E+00 -.50194220E+03 0.50194230E+03 0.32000000E+00 0.0000E+00 0.9000E+01
       25  1    1    2    0    0 -.67126791E+02 -.55819515E+02 -.38703457E+03 0.41598387E+03 0.12500000E+03 0.0000E+00 0.9000E+01
       24  1    1    2    0    0 0.67126791E+02 0.55819515E+02 -.65362998E+02 0.13550410E+03 0.80419002E+02 0.0000E+00 0.9000E+01
#aMCatNLO 1  0  0  1  2 0.29585393D+02 0.00000000D+00  -5  5  0 0.00000000D+00 0.00000000D+00 0.00000000D+00 0.00000000D+00 0.00000000D+00
  <mgrwgt>
 0.3181214127D+00    9    2    0
 0.157698626832900D+03 0.000000000000000D+00 0.000000000000000D+00 0.157698626832900D+03
 0.157698626832900D+03 0.000000000000000D+00 0.000000000000000D+00 -.157698626832900D+03
 0.172216483185785D+03 -.671267907158254D+02 -.558195154687230D+02 -.800730462884398D+02
 0.143180770480014D+03 0.671267907158254D+02 0.558195154687230D+02 0.800730462884398D+02
 0.000000000000000D+00 0.000000000000000D+00 -.000000000000000D+00 0.000000000000000D+00
 0.207212184668181D+03 0.000000000000000D+00 0.000000000000000D+00 0.207212184668181D+03
 0.162873053045800D+03 0.000000000000000D+00 0.000000000000000D+00 -.162873053045800D+03
 0.176463496884751D+03 -.819131074124161D+02 -.489174388631069D+02 -.800730462884398D+02
 0.140318325661123D+03 0.551045707481288D+02 0.614313446273493D+02 0.800730462884398D+02
 0.533034151681076D+02 0.268085366642873D+02 -.125139057642424D+02 0.443391316223815D+02
0.432706984783D-03 0.000000000000D+00 0.000000000000D+00 0.179339901366D-02 0.000000000000D+00  5 -1 2 25 24 21 0 0.76223391D-02 0.77221965D-01 0.18382798D+05 0.18382798D+05 0.18382798D+05 0.12378779D+01  1  2  2  1  5  1       -1 0.272045861757D+00 0.100000000000D+01
-.233719562996D-04 0.000000000000D+00 -.166170875593D-05 0.179339901366D-02 0.000000000000D+00  5 -1 2 25 24 21 2 0.76223391D-02 0.77221965D-01 0.18382798D+05 0.18382798D+05 0.18382798D+05 0.12378779D+01  1  2  3  1  5  1       -1 -.225163970131D-01 0.100000000000D+01
0.298791847036D-04 0.000000000000D+00 0.000000000000D+00 0.179339901366D-02 0.000000000000D+00  5 -1 2 25 24 21 2 0.76223391D-02 0.77221965D-01 0.18382798D+05 0.18382798D+05 0.18382798D+05 0.12378779D+01  1  2 15  1  5  1       -1 0.287854202956D-01 0.100000000000D+01
0.975010287455D-03 0.000000000000D+00 0.000000000000D+00 0.179339901366D-02 0.000000000000D+00  5 -1 2 25 24 21 2 0.10112151D-01 0.77221965D-01 0.22810658D+05 0.22810658D+05 0.22810658D+05 0.12275881D+01  1  2 12  1  5  1       -1 0.604671383269D+00 0.100000000000D+01
-.990582892297D-03 0.000000000000D+00 0.000000000000D+00 0.179339901366D-02 0.000000000000D+00  5 -1 2 25 24 21 2 0.76223391D-02 0.77221965D-01 0.18382798D+05 0.18382798D+05 0.18382798D+05 0.12378779D+01  1  2  4  1  5  1       -1 -.954321383776D+00 0.100000000000D+01
-.123585014739D-02 0.000000000000D+00 -.201852214278D-03 0.179339901366D-02 0.000000000000D+00  5 -1 2 25 24 21 2 0.10318679D-01 0.77221965D-01 0.18382798D+05 0.18382798D+05 0.18382798D+05 0.12378779D+01  1  2  5  1  5  1       -1 -.752134391770D+00 0.100000000000D+01
0.124821325730D-02 0.000000000000D+00 0.192935220503D-03 0.179339901366D-02 0.000000000000D+00  5 -1 2 25 24 21 2 0.76223391D-02 0.77221965D-01 0.18382798D+05 0.18382798D+05 0.18382798D+05 0.12378779D+01  1  2  6  1  5  1       -1 0.120252087152D+01 0.100000000000D+01
0.360981407512D-04 0.000000000000D+00 0.000000000000D+00 0.179339901366D-02 0.000000000000D+00  5 21 2 25 24 1 2 0.10112151D-01 0.77221965D-01 0.22810658D+05 0.22810658D+05 0.22810658D+05 0.12275881D+01  1  2 12  3  5  1       -1 0.335685841597D+00 0.100000000000D+01
-.435089459732D-04 0.000000000000D+00 -.785654247035D-05 0.179339901366D-02 0.000000000000D+00  5 21 2 25 24 1 2 0.10318679D-01 0.77221965D-01 0.18382798D+05 0.18382798D+05 0.18382798D+05 0.12378779D+01  1  2  5  3  5  1       -1 -.396615793177D+00 0.100000000000D+01
  </mgrwgt>
  </event>
  <event>
  4     66 0.45252658E-03 0.98960519E+02 0.75467711E-02 0.11738899E+00
       -1 -1    0    0    0  501 0.00000000E+00 0.00000000E+00 0.20757802E+02 0.20760269E+02 0.32000000E+00 0.0000E+00 0.9000E+01
        2 -1    0    0  501    0 0.00000000E+00 0.00000000E+00 -.11580210E+04 0.11580210E+04 0.32000000E+00 0.0000E+00 0.9000E+01
       25  1    1    2    0    0 -.41682771E+02 -.10624427E+03 -.57093095E+03 0.59549345E+03 0.12500000E+03 0.0000E+00 0.9000E+01
       24  1    1    2    0    0 0.41682771E+02 0.10624427E+03 -.56633223E+03 0.58328784E+03 0.80419002E+02 0.0000E+00 0.9000E+01
#aMCatNLO 1  0  0  2  1 0.36647878D+02 0.00000000D+00  -5  5  0 0.00000000D+00 0.00000000D+00 0.00000000D+00 0.00000000D+00 0.00000000D+00
  <mgrwgt>
 0.5941194324D+00    9    2    0
 0.155046606254501D+03 0.000000000000000D+00 0.000000000000000D+00 0.155046606254501D+03
 0.155046606254501D+03 0.000000000000000D+00 0.000000000000000D+00 -.155046606254501D+03
 0.169812785706694D+03 -.416827714418602D+02 -.106244274407786D+03 0.136412209847990D+02
 0.140280426802309D+03 0.416827714418602D+02 0.106244274407786D+03 -.136412209847990D+02
 0.000000000000000D+00 0.000000000000000D+00 -.000000000000000D+00 -.000000000000000D+00
 0.171246780103537D+03 0.000000000000000D+00 0.000000000000000D+00 0.171246780103537D+03
 0.178330771355817D+03 0.000000000000000D+00 0.000000000000000D+00 -.178330771355817D+03
 0.162797091668033D+03 -.518146518482249D+02 -.894821322916548D+02 0.136412209847990D+02
 0.149454197187670D+03 0.328569464753267D+02 0.120845683667236D+03 -.136412209847990D+02
 0.373262626036512D+02 0.189577053728981D+02 -.313635513755815D+02 -.708399125228000D+01
0.366083128450D-03 0.000000000000D+00 0.000000000000D+00 0.235423914989D-02 0.000000000000D+00  5 -1 2 25 24 21 0 0.31937011D-02 0.17815727D+00 0.23851650D+05 0.23851650D+05 0.23851650D+05 0.12254932D+01  1  2  2  2  5  2        2 0.295799699428D+00 0.100000000000D+01
-.203375713270D-04 0.000000000000D+00 -.140585560515D-05 0.235423914989D-02 0.000000000000D+00  5 -1 2 25 24 21 2 0.31937011D-02 0.17815727D+00 0.23851650D+05 0.23851650D+05 0.23851650D+05 0.12254932D+01  1  2  3  2  5  2        2 -.246796439202D-01 0.100000000000D+01
0.252270382267D-04 0.000000000000D+00 0.000000000000D+00 0.235423914989D-02 0.000000000000D+00  5 -1 2 25 24 21 2 0.31937011D-02 0.17815727D+00 0.23851650D+05 0.23851650D+05 0.23851650D+05 0.12254932D+01  1  2 15  2  5  2        2 0.306130122709D-01 0.100000000000D+01
0.368818684039D-03 0.000000000000D+00 0.000000000000D+00 0.235423914989D-02 0.000000000000D+00  5 -1 2 25 24 21 2 0.31937011D-02 0.21304037D+00 0.30224309D+05 0.30224309D+05 0.30224309D+05 0.12145590D+01  1  2 12  2  5  2        2 0.331535059272D+00 0.100000000000D+01
-.337496696116D-03 0.000000000000D+00 0.000000000000D+00 0.235423914989D-02 0.000000000000D+00  5 -1 2 25 24 21 2 0.31937011D-02 0.17815727D+00 0.23851650D+05 0.23851650D+05 0.23851650D+05 0.12254932D+01  1  2  4  2  5  2        2 -.409552259237D+00 0.100000000000D+01
-.982888896632D-03 0.000000000000D+00 -.267069769419D-03 0.235423914989D-02 0.000000000000D+00  5 -1 2 25 24 21 2 0.31937011D-02 0.21802299D+00 0.23851650D+05 0.23851650D+05 0.23851650D+05 0.12254932D+01  1  2  5  2  5  2        2 -.861685448010D+00 0.100000000000D+01
0.102128013582D-02 0.000000000000D+00 0.261715589002D-03 0.235423914989D-02 0.000000000000D+00  5 -1 2 25 24 21 2 0.31937011D-02 0.17815727D+00 0.23851650D+05 0.23851650D+05 0.23851650D+05 0.12254932D+01  1  2  6  2  5  2        2 0.123932350080D+01 0.100000000000D+01
0.967700513895D-05 0.000000000000D+00 0.000000000000D+00 0.235423914989D-02 0.000000000000D+00  5 -1 21 25 24 -2 2 0.31937011D-02 0.21304037D+00 0.30224309D+05 0.30224309D+05 0.30224309D+05 0.12145590D+01  1  2 12  4  5  2        2 0.483471404738D-02 0.100000000000D+01
-.252082992939D-04 0.000000000000D+00 -.769924953274D-05 0.235423914989D-02 0.000000000000D+00  5 -1 21 25 24 -2 2 0.31937011D-02 0.21802299D+00 0.23851650D+05 0.23851650D+05 0.23851650D+05 0.12254932D+01  1  2  5  4  5  2        2 -.120692022373D-01 0.100000000000D+01
  </mgrwgt>
  </event>
  <event>
  4     66 0.45252658E-03 0.11407188E+03 0.75467711E-02 0.12072036E+00
       -1 -1    0    0    0  501 0.00000000E+00 0.00000000E+00 0.11033506E+03 0.11033552E+03 0.32000000E+00 0.0000E+00 0.9000E+01
        2 -1    0    0  501    0 0.00000000E+00 0.00000000E+00 -.11865219E+03 0.11865262E+03 0.32000000E+00 0.0000E+00 0.9000E+01
       25  1    1    2    0    0 -.36780947E+02 -.31878835E+02 0.38817654E+01 0.13419823E+03 0.12500000E+03 0.0000E+00 0.9000E+01
       24  1    1    2    0    0 0.36780947E+02 0.31878835E+02 -.12198900E+02 0.94789911E+02 0.80419002E+02 0.0000E+00 0.9000E+01
#aMCatNLO 1  0  0  2  2 0.54690486D+02 0.00000000D+00  -5  5  0 0.00000000D+00 0.00000000D+00 0.00000000D+00 0.00000000D+00 0.00000000D+00
  <mgrwgt>
 0.2899402808D+00    4    2    0
 0.114418525983947D+03 0.000000000000000D+00 0.000000000000000D+00 0.114418525983947D+03
 0.114418525983947D+03 0.000000000000000D+00 0.000000000000000D+00 -.114418525983947D+03
 0.134427925613239D+03 -.367809465740644D+02 -.318788349861016D+02 0.876179397859237D+01
 0.944091263546545D+02 0.367809465740644D+02 0.318788349861016D+02 -.876179397859237D+01
 0.000000000000000D+00 -.000000000000000D+00 0.000000000000000D+00 0.000000000000000D+00
 0.200844310586450D+03 0.000000000000000D+00 0.000000000000000D+00 0.200844310586450D+03
 0.126627965270358D+03 0.000000000000000D+00 0.000000000000000D+00 -.126627965270358D+03
 0.135589342346489D+03 -.110543625939917D+02 -.506014010860428D+02 0.876179397859237D+01
 0.996922879731074D+02 0.552744539489291D+02 0.184201529273468D+02 -.876179397859237D+01
 0.921906455372124D+02 -.442200913549374D+02 0.321812481586960D+02 0.742163453160917D+02
0.379405333895D-03 0.000000000000D+00 0.000000000000D+00 0.288595727203D-02 0.000000000000D+00  5 -1 2 25 24 21 0 0.16974693D-01 0.18254252D-01 0.13012393D+05 0.13012393D+05 0.13012393D+05 0.12549223D+01  1  2  2  2  5  2        2 0.327733270550D+00 0.100000000000D+01
-.210778381560D-04 0.000000000000D+00 -.145701638188D-05 0.288595727203D-02 0.000000000000D+00  5 -1 2 25 24 21 2 0.16974693D-01 0.18254252D-01 0.13012393D+05 0.13012393D+05 0.13012393D+05 0.12549223D+01  1  2  3  2  5  2        2 -.286732450717D-01 0.100000000000D+01
0.262155328540D-04 0.000000000000D+00 0.000000000000D+00 0.288595727203D-02 0.000000000000D+00  5 -1 2 25 24 21 2 0.16974693D-01 0.18254252D-01 0.13012393D+05 0.13012393D+05 0.13012393D+05 0.12549223D+01  1  2 15  2  5  2        2 0.356623099886D-01 0.100000000000D+01
-.329195003008D-04 0.000000000000D+00 0.000000000000D+00 0.288595727203D-02 0.000000000000D+00  5 -1 2 25 24 21 2 0.16974693D-01 0.18254252D-01 0.13012393D+05 0.13012393D+05 0.13012393D+05 0.12549223D+01  1  2  4  2  5  2        2 -.447820546290D-01 0.100000000000D+01
  </mgrwgt>
  </event>
  <event>
  4     66 0.45252658E-03 0.10150542E+03 0.75467711E-02 0.11969526E+00
       -1 -1    0    0    0  501 0.00000000E+00 0.00000000E+00 0.21356986E+03 0.21357010E+03 0.32000000E+00 0.0000E+00 0.9000E+01
        2 -1    0    0  501    0 0.00000000E+00 0.00000000E+00 -.12389159E+03 0.12389201E+03 0.32000000E+00 0.0000E+00 0.9000E+01
       25  1    1    2    0    0 -.75354335E+02 -.80648592E+02 0.10946180E+03 0.19947270E+03 0.12500000E+03 0.0000E+00 0.9000E+01
       24  1    1    2    0    0 0.75354335E+02 0.80648592E+02 -.19783538E+02 0.13798940E+03 0.80419002E+02 0.0000E+00 0.9000E+01
#aMCatNLO 1  0  0  1  2 0.24611734D+01 0.00000000D+00  -5  5  0 0.00000000D+00 0.00000000D+00 0.00000000D+00 0.00000000D+00 0.00000000D+00
  <mgrwgt>
 0.1770314082D+00   11    2    0
 0.162664132217734D+03 0.000000000000000D+00 0.000000000000000D+00 0.162664132217734D+03
 0.162664132217734D+03 0.000000000000000D+00 0.000000000000000D+00 -.162664132217734D+03
 0.176738814695017D+03 -.753543351640642D+02 -.806485920929704D+02 0.585588369522741D+02
 0.148589449740451D+03 0.753543351640642D+02 0.806485920929704D+02 -.585588369522741D+02
 0.000000000000000D+00 0.000000000000000D+00 -.000000000000000D+00 0.000000000000000D+00
 0.171851653970631D+03 0.000000000000000D+00 0.000000000000000D+00 0.171851653970631D+03
 0.162833696649201D+03 0.000000000000000D+00 0.000000000000000D+00 -.162833696649201D+03
 0.176319972539624D+03 -.757321837947396D+02 -.793676991530587D+02 0.585588369522741D+02
 0.149017601397438D+03 0.750358317849738D+02 0.817283068159950D+02 -.585588369522741D+02
 0.934777668277061D+01 0.696352009765797D+00 -.236060766293632D+01 0.901795732142992D+01
0.635511521811D-03 0.000000000000D+00 0.000000000000D+00 0.204243339944D-02 0.000000000000D+00  5 -1 2 25 24 21 0 0.32856951D-01 0.19060295D-01 0.23000692D+05 0.23000692D+05 0.23000692D+05 0.12271978D+01  1  2  2  1  5  1       -1 0.180690819579D+00 0.100000000000D+01
-.350955654054D-04 0.000000000000D+00 -.244053157778D-05 0.204243339944D-02 0.000000000000D+00  5 -1 2 25 24 21 2 0.32856951D-01 0.19060295D-01 0.23000692D+05 0.23000692D+05 0.23000692D+05 0.12271978D+01  1  2  3  1  5  1       -1 -.150277519781D-01 0.100000000000D+01
0.439104698788D-04 0.000000000000D+00 0.000000000000D+00 0.204243339944D-02 0.000000000000D+00  5 -1 2 25 24 21 2 0.32856951D-01 0.19060295D-01 0.23000692D+05 0.23000692D+05 0.23000692D+05 0.12271978D+01  1  2 15  1  5  1       -1 0.188022515939D-01 0.100000000000D+01
0.973510077304D-04 0.000000000000D+00 0.000000000000D+00 0.204243339944D-02 0.000000000000D+00  5 -1 2 25 24 21 2 0.34729357D-01 0.19060295D-01 0.23378793D+05 0.23378793D+05 0.23378793D+05 0.12264318D+01  1  2 12  1  5  1       -1 0.378775134713D-01 0.100000000000D+01
-.364431003717D-01 0.000000000000D+00 0.000000000000D+00 0.204243339944D-02 0.000000000000D+00  5 -1 2 25 24 21 2 0.32856951D-01 0.19060295D-01 0.23000692D+05 0.23000692D+05 0.23000692D+05 0.12271978D+01  1  2  4  1  5  1       -1 -.156047599568D+02 0.100000000000D+01
-.425537608643D-01 0.000000000000D+00 -.133853797108D-02 0.204243339944D-02 0.000000000000D+00  5 -1 2 25 24 21 2 0.34732276D-01 0.19060295D-01 0.23000692D+05 0.23000692D+05 0.23000692D+05 0.12271978D+01  1  2  5  1  5  1       -1 -.165695775190D+02 0.100000000000D+01
0.425645312870D-01 0.000000000000D+00 0.133647864740D-02 0.204243339944D-02 0.000000000000D+00  5 -1 2 25 24 21 2 0.32856951D-01 0.19060295D-01 0.23000692D+05 0.23000692D+05 0.23000692D+05 0.12271978D+01  1  2  6  1  5  1       -1 0.182259271751D+02 0.100000000000D+01
0.363962280884D-01 0.000000000000D+00 0.000000000000D+00 0.204243339944D-02 0.270868517390D-02  5 -1 2 25 24 21 2 0.34712763D-01 0.19080164D-01 0.23378793D+05 0.23378793D+05 0.23378793D+05 0.12264318D+01  1  2 11  1  5  1       -1 0.141559172851D+02 0.100000000000D+01
0.158544855631D-05 0.000000000000D+00 0.000000000000D+00 0.204243339944D-02 0.000000000000D+00  5 21 2 25 24 1 2 0.34729357D-01 0.19060295D-01 0.23378793D+05 0.23378793D+05 0.23378793D+05 0.12264318D+01  1  2 12  3  5  1       -1 0.685012809064D-02 0.100000000000D+01
-.407282795102D-03 0.000000000000D+00 -.128414207027D-04 0.204243339944D-02 0.000000000000D+00  5 21 2 25 24 1 2 0.34732276D-01 0.19060295D-01 0.23000692D+05 0.23000692D+05 0.23000692D+05 0.12271978D+01  1  2  5  3  5  1       -1 -.176160969463D+01 0.100000000000D+01
0.347706973225D-03 0.000000000000D+00 0.000000000000D+00 0.204243339944D-02 0.258097528251D-04  5 21 2 25 24 1 2 0.34712763D-01 0.19080164D-01 0.23378793D+05 0.23378793D+05 0.23378793D+05 0.12264318D+01  1  2 11  3  5  1       -1 0.150194115771D+01 0.100000000000D+01
  </mgrwgt>
  </event>
  <event>
  4     66 0.45252658E-03 0.77302305E+02 0.75467711E-02 0.12219242E+00
       -3 -1    0    0    0  501 0.00000000E+00 0.00000000E+00 0.35048652E+03 0.35048687E+03 0.50000000E+00 0.0000E+00 0.9000E+01
        4 -1    0    0  501    0 0.00000000E+00 0.00000000E+00 -.51855496E+02 0.51878656E+02 0.15500000E+01 0.0000E+00 0.9000E+01
       25  1    1    2    0    0 0.74739014E+02 -.19232512E+02 0.11099334E+03 0.18412042E+03 0.12500000E+03 0.0000E+00 0.9000E+01
       24  1    1    2    0    0 -.74739014E+02 0.19232512E+02 0.18763768E+03 0.21824511E+03 0.80419002E+02 0.0000E+00 0.9000E+01
#aMCatNLO 1  0  0  1  2 0.91422702D+01 0.00000000D+00  -5  5  0 0.00000000D+00 0.00000000D+00 0.00000000D+00 0.00000000D+00 0.00000000D+00
  <mgrwgt>
 0.1082460382D+00    8    2    0
 0.134830942826206D+03 0.000000000000000D+00 0.000000000000000D+00 0.134830942826206D+03
 0.134830942826206D+03 0.000000000000000D+00 0.000000000000000D+00 -.134830942826206D+03
 0.151811065959798D+03 0.747390137374933D+02 -.192325122739209D+02 -.382856375816118D+02
 0.117850819692613D+03 -.747390137374933D+02 0.192325122739209D+02 0.382856375816118D+02
 0.000000000000000D+00 -.000000000000000D+00 0.000000000000000D+00 -.000000000000000D+00
 0.138658722422268D+03 0.000000000000000D+00 0.000000000000000D+00 0.138658722422268D+03
 0.140480013330879D+03 0.000000000000000D+00 0.000000000000000D+00 -.140480013330879D+03
 0.154498176895692D+03 0.795892628875889D+02 -.210818844525911D+02 -.382856375816118D+02
 0.115318638145191D+03 -.710468954254135D+02 0.178247287404535D+02 0.382856375816118D+02
 0.932192071226370D+01 -.854236746217544D+01 0.325715571213760D+01 -.182129090861036D+01
0.675469195688D-03 0.000000000000D+00 0.000000000000D+00 0.237442844177D-02 0.000000000000D+00  5 -3 4 25 24 21 0 0.53922812D-01 0.79795775D-02 0.16687823D+05 0.16687823D+05 0.16687823D+05 0.12425776D+01  1  2  2  1  5  1       -3 0.499258812810D-01 0.100000000000D+01
-.374424691205D-04 0.000000000000D+00 -.259397956656D-05 0.237442844177D-02 0.000000000000D+00  5 -3 4 25 24 21 2 0.53922812D-01 0.79795775D-02 0.16687823D+05 0.16687823D+05 0.16687823D+05 0.12425776D+01  1  2  3  1  5  1       -3 -.427298863587D-02 0.100000000000D+01
0.467039917964D-04 0.000000000000D+00 0.000000000000D+00 0.237442844177D-02 0.000000000000D+00  5 -3 4 25 24 21 2 0.53922812D-01 0.79795775D-02 0.16687823D+05 0.16687823D+05 0.16687823D+05 0.12425776D+01  1  2 15  1  5  1       -3 0.532992697553D-02 0.100000000000D+01
0.110557295785D-02 0.000000000000D+00 0.000000000000D+00 0.237442844177D-02 0.000000000000D+00  5 -3 4 25 24 21 2 0.56544808D-01 0.79795775D-02 0.17902350D+05 0.17902350D+05 0.17902350D+05 0.12391591D+01  1  2 12  1  5  1       -3 0.114675169002D+00 0.100000000000D+01
-.709824178474D-03 0.000000000000D+00 0.000000000000D+00 0.237442844177D-02 0.000000000000D+00  5 -3 4 25 24 21 2 0.53922812D-01 0.79795775D-02 0.16687823D+05 0.16687823D+05 0.16687823D+05 0.12425776D+01  1  2  4  1  5  1       -3 -.810061600992D-01 0.100000000000D+01
0.861098244018D-07 0.000000000000D+00 0.000000000000D+00 0.237442844177D-02 0.232907140971D-03  5 -3 4 25 24 21 2 0.55453652D-01 0.83139014D-02 0.17902350D+05 0.17902350D+05 0.17902350D+05 0.12391591D+01  1  2 11  1  5  1       -3 0.868133524934D-05 0.100000000000D+01
0.114638150931D-04 0.000000000000D+00 0.000000000000D+00 0.237442844177D-02 0.000000000000D+00  5 21 4 25 24 3 2 0.56544808D-01 0.79795775D-02 0.17902350D+05 0.17902350D+05 0.17902350D+05 0.12391591D+01  1  2 12  3  5  1       -3 0.235830347289D-01 0.100000000000D+01
0.124550170528D-08 0.000000000000D+00 0.000000000000D+00 0.237442844177D-02 0.121367652628D-05  5 21 4 25 24 3 2 0.55453652D-01 0.83139014D-02 0.17902350D+05 0.17902350D+05 0.17902350D+05 0.12391591D+01  1  2 11  3  5  1       -3 0.249366022102D-05 0.100000000000D+01
  </mgrwgt>
  </event>
  <event>
  4     66 0.45252658E-03 0.44390352E+02 0.75467711E-02 0.12196242E+00
       -1 -1    0    0    0  501 0.00000000E+00 0.00000000E+00 0.18348552E+02 0.18351342E+02 0.32000000E+00 0.0000E+00 0.9000E+01
        2 -1    0    0  501    0 0.00000000E+00 0.00000000E+00 -.19802603E+04 0.19802603E+04 0.32000000E+00 0.0000E+00 0.9000E+01
       25  1    1    2    0    0 0.32961925E+02 -.39041053E+02 -.25075815E+03 0.28480755E+03 0.12500000E+03 0.0000E+00 0.9000E+01
       24  1    1    2    0    0 -.32961925E+02 0.39041053E+02 -.17111536E+04 0.17138041E+04 0.80419002E+02 0.0000E+00 0.9000E+01
#aMCatNLO 1  0  0  2  1 0.37269173D+02 0.00000000D+00  -5  5  0 0.00000000D+00 0.00000000D+00 0.00000000D+00 0.00000000D+00 0.00000000D+00
  <mgrwgt>
 0.3507675826D+00    9    2    0
 0.190624560375501D+03 0.000000000000000D+00 0.000000000000000D+00 0.190624560375501D+03
 0.190624560375501D+03 0.000000000000000D+00 0.000000000000000D+00 -.190624560375501D+03
 0.202634796658263D+03 0.329619254957778D+02 -.390410526179413D+02 0.151080006932848D+03
 0.178614324092739D+03 -.329619254957778D+02 0.390410526179413D+02 -.151080006932848D+03
 0.000000000000000D+00 0.000000000000000D+00 0.000000000000000D+00 -.000000000000000D+00
 0.203155756558476D+03 0.000000000000000D+00 0.000000000000000D+00 0.203155756558476D+03
 0.221410298435766D+03 0.000000000000000D+00 0.000000000000000D+00 -.221410298435766D+03
 0.202952945910561D+03 0.163235359279539D+02 -.497320011034601D+02 0.151080006932848D+03
 0.180113475676119D+03 -.476779838351143D+02 0.295852924330744D+02 -.151080006932848D+03
 0.414996334075614D+02 0.313544479071605D+02 0.201467086703857D+02 -.182545418772906D+02
0.577394793154D-03 0.000000000000D+00 0.000000000000D+00 0.888730162072D-03 0.000000000000D+00  5 -1 2 25 24 21 0 0.28230708D-02 0.30465564D+00 0.13261555D+05 0.13261555D+05 0.13261555D+05 0.12539677D+01  1  2  2  2  5  2        2 0.206027099588D+00 0.100000000000D+01
-.221707239442D-04 0.000000000000D+00 -.221734803725D-05 0.888730162072D-03 0.000000000000D+00  5 -1 2 25 24 21 2 0.28230708D-02 0.30465564D+00 0.13261555D+05 0.13261555D+05 0.13261555D+05 0.12539677D+01  1  2  3  2  5  2        2 -.124395333249D-01 0.100000000000D+01
0.393094000869D-04 0.000000000000D+00 0.000000000000D+00 0.888730162072D-03 0.000000000000D+00  5 -1 2 25 24 21 2 0.28230708D-02 0.30465564D+00 0.13261555D+05 0.13261555D+05 0.13261555D+05 0.12539677D+01  1  2 15  2  5  2        2 0.220556890066D-01 0.100000000000D+01
0.693091818885D-03 0.000000000000D+00 0.000000000000D+00 0.888730162072D-03 0.000000000000D+00  5 -1 2 25 24 21 2 0.28230708D-02 0.36265448D+00 0.18339302D+05 0.18339302D+05 0.18339302D+05 0.12379923D+01  1  2 12  2  5  2        2 0.242169181400D+00 0.100000000000D+01
-.745247059370D-03 0.000000000000D+00 0.000000000000D+00 0.888730162072D-03 0.000000000000D+00  5 -1 2 25 24 21 2 0.28230708D-02 0.30465564D+00 0.13261555D+05 0.13261555D+05 0.13261555D+05 0.12539677D+01  1  2  4  2  5  2        2 -.418142666594D+00 0.100000000000D+01
-.139141686325D-02 0.000000000000D+00 -.403786849047D-03 0.888730162072D-03 0.000000000000D+00  5 -1 2 25 24 21 2 0.28230708D-02 0.36293712D+00 0.13261555D+05 0.13261555D+05 0.13261555D+05 0.12539677D+01  1  2  5  2  5  2        2 -.498806036240D+00 0.100000000000D+01
0.144599660100D-02 0.000000000000D+00 0.397678517455D-03 0.888730162072D-03 0.000000000000D+00  5 -1 2 25 24 21 2 0.28230708D-02 0.30465564D+00 0.13261555D+05 0.13261555D+05 0.13261555D+05 0.12539677D+01  1  2  6  2  5  2        2 0.811318698980D+00 0.100000000000D+01
0.178210939530D-04 0.000000000000D+00 0.000000000000D+00 0.888730162072D-03 0.000000000000D+00  5 -1 21 25 24 -2 2 0.28230708D-02 0.36265448D+00 0.18339302D+05 0.18339302D+05 0.18339302D+05 0.12379923D+01  1  2 12  4  5  2        2 0.155861915028D-02 0.100000000000D+01
-.322145870879D-04 0.000000000000D+00 -.104188609886D-04 0.888730162072D-03 0.000000000000D+00  5 -1 21 25 24 -2 2 0.28230708D-02 0.36293712D+00 0.13261555D+05 0.13261555D+05 0.13261555D+05 0.12539677D+01  1  2  5  4  5  2        2 -.297346939809D-02 0.100000000000D+01
  </mgrwgt>
  </event>
  <event>
  4     66 0.45252658E-03 0.54047200E+02 0.75467711E-02 0.12237971E+00
       -1 -1    0    0    0  501 0.00000000E+00 0.00000000E+00 0.13600895E+02 0.13604659E+02 0.32000000E+00 0.0000E+00 0.9000E+01
        2 -1    0    0  501    0 0.00000000E+00 0.00000000E+00 -.96679146E+03 0.96679152E+03 0.32000000E+00 0.0000E+00 0.9000E+01
       25  1    1    2    0    0 0.16265016E+02 0.34167716E+02 -.69949169E+03 0.71157966E+03 0.12500000E+03 0.0000E+00 0.9000E+01
       24  1    1    2    0    0 -.16265016E+02 -.34167716E+02 -.25369888E+03 0.26881652E+03 0.80419002E+02 0.0000E+00 0.9000E+01
#aMCatNLO 1  0  0  1  2 0.41836485D+02 0.00000000D+00  -5  5  0 0.00000000D+00 0.00000000D+00 0.00000000D+00 0.00000000D+00 0.00000000D+00
  <mgrwgt>
 0.4237690527D+00    9    2    0
 0.114678245683877D+03 0.000000000000000D+00 0.000000000000000D+00 0.114678245683877D+03
 0.114678245683877D+03 0.000000000000000D+00 0.000000000000000D+00 -.114678245683877D+03
 0.134642328651439D+03 0.162650162222568D+02 0.341677158360937D+02 -.327348912708719D+02
 0.947141627163154D+02 -.162650162222568D+02 -.341677158360937D+02 0.327348912708719D+02
 0.000000000000000D+00 -.000000000000000D+00 -.000000000000000D+00 0.000000000000000D+00
 0.145374455320998D+03 0.000000000000000D+00 0.000000000000000D+00 0.145374455320998D+03
 0.131761859600154D+03 0.000000000000000D+00 0.000000000000000D+00 -.131761859600154D+03
 0.143693683634203D+03 0.302673970278862D+02 0.550925247833769D+02 -.327348912708719D+02
 0.894472427996151D+02 -.700032169509793D+01 -.203227872038285D+02 0.327348912708719D+02
 0.439953884873341D+02 -.232670753327883D+02 -.347697375795484D+02 0.136125957208441D+02
0.176741434693D-03 0.000000000000D+00 0.000000000000D+00 0.269354248354D-02 0.000000000000D+00  5 -1 2 25 24 21 0 0.20927390D-02 0.14873744D+00 0.12042849D+05 0.12042849D+05 0.12042849D+05 0.12588427D+01  1  2  2  1  5  1       -1 0.333497620717D+00 0.100000000000D+01
-.979583771771D-05 0.000000000000D+00 -.678733646312D-06 0.269354248354D-02 0.000000000000D+00  5 -1 2 25 24 21 2 0.20927390D-02 0.14873744D+00 0.12042849D+05 0.12042849D+05 0.12042849D+05 0.12588427D+01  1  2  3  1  5  1       -1 -.292913166886D-01 0.100000000000D+01
0.121987283865D-04 0.000000000000D+00 0.000000000000D+00 0.269354248354D-02 0.000000000000D+00  5 -1 2 25 24 21 2 0.20927390D-02 0.14873744D+00 0.12042849D+05 0.12042849D+05 0.12042849D+05 0.12588427D+01  1  2 15  1  5  1       -1 0.364763919804D-01 0.100000000000D+01
0.866204124742D-04 0.000000000000D+00 0.000000000000D+00 0.269354248354D-02 0.000000000000D+00  5 -1 2 25 24 21 2 0.27750960D-02 0.14873744D+00 0.17555436D+05 0.17555436D+05 0.17555436D+05 0.12401084D+01  1  2 12  1  5  1       -1 0.169443779533D+00 0.100000000000D+01
-.973032487091D-04 0.000000000000D+00 0.000000000000D+00 0.269354248354D-02 0.000000000000D+00  5 -1 2 25 24 21 2 0.20927390D-02 0.14873744D+00 0.12042849D+05 0.12042849D+05 0.12042849D+05 0.12588427D+01  1  2  4  1  5  1       -1 -.290954214933D+00 0.100000000000D+01
-.170217278532D-03 0.000000000000D+00 -.701432166168D-04 0.269354248354D-02 0.000000000000D+00  5 -1 2 25 24 21 2 0.30636571D-02 0.14873744D+00 0.12042849D+05 0.12042849D+05 0.12042849D+05 0.12588427D+01  1  2  5  1  5  1       -1 -.293782405220D+00 0.100000000000D+01
0.187938428536D-03 0.000000000000D+00 0.653397221437D-04 0.269354248354D-02 0.000000000000D+00  5 -1 2 25 24 21 2 0.20927390D-02 0.14873744D+00 0.12042849D+05 0.12042849D+05 0.12042849D+05 0.12588427D+01  1  2  6  1  5  1       -1 0.561969704565D+00 0.100000000000D+01
0.320332776795D-05 0.000000000000D+00 0.000000000000D+00 0.269354248354D-02 0.000000000000D+00  5 21 2 25 24 1 2 0.27750960D-02 0.14873744D+00 0.17555436D+05 0.17555436D+05 0.17555436D+05 0.12401084D+01  1  2 12  3  5  1       -1 0.122879860828D+00 0.100000000000D+01
-.558110231397D-05 0.000000000000D+00 -.322299862599D-05 0.269354248354D-02 0.000000000000D+00  5 21 2 25 24 1 2 0.30636571D-02 0.14873744D+00 0.12042849D+05 0.12042849D+05 0.12042849D+05 0.12588427D+01  1  2  5  3  5  1       -1 -.186470368083D+00 0.100000000000D+01
  </mgrwgt>
  </event>
  <event>
  4     66 0.45252658E-03 0.13426365E+03 0.75467711E-02 0.11241499E+00
       -1 -1    0    0    0  501 0.00000000E+00 0.00000000E+00 0.31614779E+03 0.31614796E+03 0.32000000E+00 0.0000E+00 0.9000E+01
        2 -1    0    0  501    0 0.00000000E+00 0.00000000E+00 -.71679494E+02 0.71680208E+02 0.32000000E+00 0.0000E+00 0.9000E+01
       25  1    1    2    0    0 0.36761578E+02 0.76941359E+02 0.22171457E+03 0.26842827E+03 0.12500000E+03 0.0000E+00 0.9000E+01
       24  1    1    2    0    0 -.36761578E+02 -.76941359E+02 0.22753732E+02 0.11939989E+03 0.80419002E+02 0.0000E+00 0.9000E+01
#aMCatNLO 1  0  0  1  2 0.15631146D+03 0.00000000D+00  -5  5  0 0.00000000D+00 0.00000000D+00 0.00000000D+00 0.00000000D+00 0.00000000D+00
  <mgrwgt>
 0.2975588783D+00    5    2    0
 0.150537316844748D+03 0.000000000000000D+00 0.000000000000000D+00 0.150537316844748D+03
 0.150537316844748D+03 0.000000000000000D+00 0.000000000000000D+00 -.150537316844748D+03
 0.165745811717607D+03 0.367615781001397D+02 0.769413590098144D+02 0.676408733772607D+02
 0.135328821971888D+03 -.367615781001397D+02 -.769413590098144D+02 -.676408733772607D+02
 0.000000000000000D+00 -.000000000000000D+00 0.000000000000000D+00 0.000000000000000D+00
 0.248017384220636D+03 0.000000000000000D+00 0.000000000000000D+00 0.248017384220636D+03
 0.247528107545918D+03 0.000000000000000D+00 0.000000000000000D+00 -.247528107545918D+03
 0.155151239785345D+03 0.621577176949147D+02 0.283506378242518D+01 0.676408733772607D+02
 0.184082025026738D+03 -.114830583366517D+02 -.150704437902712D+03 -.676408733772607D+02
 0.156312226954470D+03 -.506746593582629D+02 0.147869374120287D+03 0.489276674718446D+00
0.102684486598D-02 0.000000000000D+00 0.000000000000D+00 0.196100872526D-02 0.000000000000D+00  5 -1 2 25 24 21 0 0.48638190D-01 0.11027682D-01 0.18026728D+05 0.18026728D+05 0.18026728D+05 0.12388237D+01  1  2  2  1  5  1       -1 0.277643526276D+00 0.100000000000D+01
-.561390990751D-04 0.000000000000D+00 -.394335465981D-05 0.196100872526D-02 0.000000000000D+00  5 -1 2 25 24 21 2 0.48638190D-01 0.11027682D-01 0.18026728D+05 0.18026728D+05 0.18026728D+05 0.12388237D+01  1  2  3  1  5  1       -1 -.232952399696D-01 0.100000000000D+01
0.708535587514D-04 0.000000000000D+00 0.000000000000D+00 0.196100872526D-02 0.000000000000D+00  5 -1 2 25 24 21 2 0.48638190D-01 0.11027682D-01 0.18026728D+05 0.18026728D+05 0.18026728D+05 0.12388237D+01  1  2 15  1  5  1       -1 0.294010890984D-01 0.100000000000D+01
0.377673094313D-04 0.000000000000D+00 -.277245781805D-03 0.196100872526D-02 0.000000000000D+00  5 -1 2 25 24 21 2 0.12208780D+00 0.11027682D-01 0.18026728D+05 0.18026728D+05 0.18026728D+05 0.12388237D+01  1  2  5  1  5  1       -1 0.238326922539D-02 0.100000000000D+01
0.209251876137D-04 0.000000000000D+00 -.281050323353D-04 0.196100872526D-02 0.000000000000D+00  5 21 2 25 24 1 2 0.12208780D+00 0.11027682D-01 0.18026728D+05 0.18026728D+05 0.18026728D+05 0.12388237D+01  1  2  5  3  5  1       -1 0.114262336478D-01 0.100000000000D+01
  </mgrwgt>
  </event>
  <event>
  4     66 0.45252658E-03 0.18219680E+03 0.75467711E-02 0.10369477E+00
       -1 -1    0    0    0  501 0.00000000E+00 0.00000000E+00 0.69776320E+03 0.69776327E+03 0.32000000E+00 0.0000E+00 0.9000E+01
        2 -1    0    0  501    0 0.00000000E+00 0.00000000E+00 -.17759726E+03 0.17759755E+03 0.32000000E+00 0.0000E+00 0.9000E+01
       25  1    1    2    0    0 0.25177971E+03 -.21825572E+03 0.31892044E+03 0.47787428E+03 0.12500000E+03 0.0000E+00 0.9000E+01
       24  1    1    2    0    0 -.25177971E+03 0.21825572E+03 0.20124550E+03 0.39748654E+03 0.80419002E+02 0.0000E+00 0.9000E+01
#aMCatNLO 1  0  0  2  1 0.13006401D+03 0.00000000D+00  -5  5  0 0.00000000D+00 0.00000000D+00 0.00000000D+00 0.00000000D+00 0.00000000D+00
  <mgrwgt>
 0.2096988727D+00    7    2    0
 0.352024135916844D+03 0.000000000000000D+00 0.000000000000000D+00 0.352024135916844D+03
 0.352024135916844D+03 0.000000000000000D+00 0.000000000000000D+00 -.352024135916844D+03
 0.358527797961052D+03 0.251779709986502D+03 -.218255724314890D+03 0.434580067846709D+02
 0.345520473872637D+03 -.251779709986502D+03 0.218255724314890D+03 -.434580067846709D+02
 0.000000000000000D+00 0.000000000000000D+00 0.000000000000000D+00 -.000000000000000D+00
 0.365096042844451D+03 0.000000000000000D+00 0.000000000000000D+00 0.365096042844451D+03
 0.952349673182235D+03 0.000000000000000D+00 0.000000000000000D+00 -.952349673182235D+03
 0.353145970872356D+03 0.200667287434081D+03 -.258710490980807D+03 0.434580067846709D+02
 0.362815352791757D+03 -.302652401473835D+03 0.177990701429768D+03 -.434580067846709D+02
 0.601484392362573D+03 0.101985114039755D+03 0.807197895510392D+02 -.587253630337785D+03
0.163747628183D-01 0.000000000000D+00 0.000000000000D+00 0.194784929674D-02 0.000000000000D+00  5 -1 2 25 24 21 0 0.10734821D+00 0.27322684D-01 0.12203174D+06 0.12203174D+06 0.12203174D+06 0.11557107D+01  1  2  2  2  5  2        2 0.310973232926D+00 0.100000000000D+01
-.909643780795D-03 0.000000000000D+00 -.628834007964D-04 0.194784929674D-02 0.000000000000D+00  5 -1 2 25 24 21 2 0.10734821D+00 0.27322684D-01 0.12203174D+06 0.12203174D+06 0.12203174D+06 0.11557107D+01  1  2  3  2  5  2        2 -.230737193194D-01 0.100000000000D+01
0.112618914973D-02 0.000000000000D+00 0.000000000000D+00 0.194784929674D-02 0.000000000000D+00  5 -1 2 25 24 21 2 0.10734821D+00 0.27322684D-01 0.12203174D+06 0.12203174D+06 0.12203174D+06 0.11557107D+01  1  2 15  2  5  2        2 0.285665365829D-01 0.100000000000D+01
0.850487766690D-01 0.000000000000D+00 0.000000000000D+00 0.194784929674D-02 0.000000000000D+00  5 -1 2 25 24 21 2 0.10734821D+00 0.73427097D-01 0.17670634D+06 0.17670634D+06 0.17670634D+06 0.11415196D+01  1  2 12  2  5  2        2 0.700592756398D+00 0.100000000000D+01
-.950593417530D-01 0.000000000000D+00 -.619689338918D-02 0.194784929674D-02 0.000000000000D+00  5 -1 2 25 24 21 2 0.10734821D+00 0.75083314D-01 0.12203174D+06 0.12203174D+06 0.12203174D+06 0.11557107D+01  1  2  5  2  5  2        2 -.791401723787D+00 0.100000000000D+01
0.937044731151D-02 0.000000000000D+00 0.000000000000D+00 0.194784929674D-02 0.000000000000D+00  5 -1 21 25 24 -2 2 0.10734821D+00 0.73427097D-01 0.17670634D+06 0.17670634D+06 0.17670634D+06 0.11415196D+01  1  2 12  4  5  2        2 0.148424364061D+00 0.100000000000D+01
-.103998524662D-01 0.000000000000D+00 -.701029449174D-03 0.194784929674D-02 0.000000000000D+00  5 -1 21 25 24 -2 2 0.10734821D+00 0.75083314D-01 0.12203174D+06 0.12203174D+06 0.12203174D+06 0.11557107D+01  1  2  5  4  5  2        2 -.164382574184D+00 0.100000000000D+01
  </mgrwgt>
  </event>
  <event>
  5     66 0.45252658E-03 0.13100297E+03 0.75467711E-02 0.11339298E+00
       21 -1    0    0  502  501 0.00000000E+00 0.00000000E+00 0.15292707E+03 0.15292891E+03 0.75000000E+00 0.0000E+00 0.9000E+01
        2 -1    0    0  501    0 0.00000000E+00 0.00000000E+00 -.33636450E+03 0.33636466E+03 0.32000000E+00 0.0000E+00 0.9000E+01
       25  1    1    2    0    0 0.16401244E+02 -.33148870E+02 -.10595670E+03 0.16798711E+03 0.12500000E+03 0.0000E+00 0.9000E+01
       24  1    1    2    0    0 -.14434835E+03 -.28193279E+02 -.22477935E+02 0.16912652E+03 0.80419002E+02 0.0000E+00 0.9000E+01
        1  1    1    2  502    0 0.12794711E+03 0.61342149E+02 -.55002800E+02 0.15217993E+03 0.32000000E+00 0.0000E+00 0.9000E+01
#aMCatNLO 2  0  0  1  1 0.14189193D+03 0.00000000D+00  -5  5  0 0.00000000D+00 0.00000000D+00 0.00000000D+00 0.00000000D+00 0.00000000D+00
  <mgrwgt>
 0.6206578615D-01    1    2    0
 0.138759528672068D+03 0.000000000000000D+00 0.000000000000000D+00 0.138759528672068D+03
 0.138759528672068D+03 0.000000000000000D+00 0.000000000000000D+00 -.138759528672068D+03
 0.155258907369282D+03 0.800890423504502D+02 -.261479578651096D+01 -.453788106486474D+02
 0.122260149974854D+03 -.800890423504502D+02 0.261479578651096D+01 0.453788106486474D+02
 0.000000000000000D+00 0.000000000000000D+00 0.000000000000000D+00 0.000000000000000D+00
 0.228417742622621D+03 0.000000000000000D+00 0.000000000000000D+00 0.228417742622621D+03
 0.225199859917168D+03 0.000000000000000D+00 0.000000000000000D+00 -.225199859917168D+03
 0.138029289770301D+03 0.164012438765340D+02 -.331488699341383D+02 -.453788106486474D+02
 0.173659895317279D+03 -.144348349041841D+03 -.281932786359962D+02 0.453788106486474D+02
 0.141928417452209D+03 0.127947105165307D+03 0.613421485701344D+02 0.321788270545276D+01
0.214382868394D-04 0.000000000000D+00 0.000000000000D+00 0.227227020492D-02 0.983459509949D-07  5 21 2 25 24 1 2 0.23527376D-01 0.51748497D-01 0.48372437D+05 0.48372437D+05 0.48372437D+05 0.11937077D+01  1  2  1  3  5  1       -1 0.620657861460D-01 0.100000000000D+01
  </mgrwgt>
  </event>
  <event>
  4     66 0.45252658E-03 0.43302311E+02 0.75467711E-02 0.12550676E+00
       -1 -1    0    0    0  501 0.00000000E+00 0.00000000E+00 0.15901791E+02 0.15905011E+02 0.32000000E+00 0.0000E+00 0.9000E+01
        2 -1    0    0  501    0 0.00000000E+00 0.00000000E+00 -.99482511E+03 0.99482516E+03 0.32000000E+00 0.0000E+00 0.9000E+01
       25  1    1    2    0    0 -.26543367E+02 0.13094720E+02 -.29897040E+03 0.32539871E+03 0.12500000E+03 0.0000E+00 0.9000E+01
       24  1    1    2    0    0 0.26543367E+02 -.13094720E+02 -.67995292E+03 0.68533146E+03 0.80419002E+02 0.0000E+00 0.9000E+01
#aMCatNLO 1  0  0  1  2 0.11459118D+02 0.00000000D+00  -5  5  0 0.00000000D+00 0.00000000D+00 0.00000000D+00 0.00000000D+00 0.00000000D+00
  <mgrwgt>
 0.1190392510D+00    9    2    0
 0.125782170051864D+03 0.000000000000000D+00 0.000000000000000D+00 0.125782170051864D+03
 0.125782170051864D+03 0.000000000000000D+00 0.000000000000000D+00 -.125782170051864D+03
 0.143983843710884D+03 -.265433672249212D+02 0.130947203033412D+02 0.650409502259961D+02
 0.107580496392844D+03 0.265433672249212D+02 -.130947203033412D+02 -.650409502259961D+02
 0.000000000000000D+00 -.000000000000000D+00 0.000000000000000D+00 0.000000000000000D+00
 0.133816327119908D+03 0.000000000000000D+00 0.000000000000000D+00 0.133816327119908D+03
 0.130066059699859D+03 0.000000000000000D+00 0.000000000000000D+00 -.130066059699859D+03
 0.143087679698501D+03 -.238244180462750D+02 0.715234087252225D+01 0.650409502259961D+02
 0.108737514816231D+03 0.285921865293165D+02 -.175725023036524D+02 -.650409502259961D+02
 0.120571923050342D+02 -.476776848304150D+01 0.104201614311301D+02 0.375026742004880D+01
0.167631914162D-03 0.000000000000D+00 0.000000000000D+00 0.205400156620D-02 0.000000000000D+00  5 -1 2 25 24 21 0 0.24466810D-02 0.15305027D+00 0.11464948D+05 0.11464948D+05 0.11464948D+05 0.12613524D+01  1  2  2  1  5  1       -1 0.242670580273D+00 0.100000000000D+01
-.901928025740D-05 0.000000000000D+00 -.643750688879D-06 0.205400156620D-02 0.000000000000D+00  5 -1 2 25 24 21 2 0.24466810D-02 0.15305027D+00 0.11464948D+05 0.11464948D+05 0.11464948D+05 0.12613524D+01  1  2  3  1  5  1       -1 -.207732838955D-01 0.100000000000D+01
0.114733725851D-04 0.000000000000D+00 0.000000000000D+00 0.205400156620D-02 0.000000000000D+00  5 -1 2 25 24 21 2 0.24466810D-02 0.15305027D+00 0.11464948D+05 0.11464948D+05 0.11464948D+05 0.12613524D+01  1  2 15  1  5  1       -1 0.264255704610D-01 0.100000000000D+01
0.359215981986D-03 0.000000000000D+00 0.000000000000D+00 0.205400156620D-02 0.000000000000D+00  5 -1 2 25 24 21 2 0.26425515D-02 0.15305027D+00 0.12774757D+05 0.12774757D+05 0.12774757D+05 0.12558521D+01  1  2 12  1  5  1       -1 0.736650333001D+00 0.100000000000D+01
-.332088741517D-03 0.000000000000D+00 0.000000000000D+00 0.205400156620D-02 0.000000000000D+00  5 -1 2 25 24 21 2 0.24466810D-02 0.15305027D+00 0.11464948D+05 0.11464948D+05 0.11464948D+05 0.12613524D+01  1  2  4  1  5  1       -1 -.764869646929D+00 0.100000000000D+01
-.108989367914D-02 0.000000000000D+00 -.214490192857D-03 0.205400156620D-02 0.000000000000D+00  5 -1 2 25 24 21 2 0.26944609D-02 0.15305027D+00 0.11464948D+05 0.11464948D+05 0.11464948D+05 0.12613524D+01  1  2  5  1  5  1       -1 -.218442032451D+01 0.100000000000D+01
0.110642676380D-02 0.000000000000D+00 0.213496064026D-03 0.205400156620D-02 0.000000000000D+00  5 -1 2 25 24 21 2 0.24466810D-02 0.15305027D+00 0.11464948D+05 0.11464948D+05 0.11464948D+05 0.12613524D+01  1  2  6  1  5  1       -1 0.254833164268D+01 0.100000000000D+01
0.468353923927D-05 0.000000000000D+00 0.000000000000D+00 0.205400156620D-02 0.000000000000D+00  5 21 2 25 24 1 2 0.26425515D-02 0.15305027D+00 0.12774757D+05 0.12774757D+05 0.12774757D+05 0.12558521D+01  1  2 12  3  5  1       -1 0.190893864237D+00 0.100000000000D+01
-.164978917036D-04 0.000000000000D+00 -.337693091745D-05 0.205400156620D-02 0.000000000000D+00  5 21 2 25 24 1 2 0.26944609D-02 0.15305027D+00 0.11464948D+05 0.11464948D+05 0.11464948D+05 0.12613524D+01  1  2  5  3  5  1       -1 -.655869484342D+00 0.100000000000D+01
  </mgrwgt>
  </event>
  <event>
  4     66 0.45252658E-03 0.10803718E+03 0.75467711E-02 0.11916796E+00
       -1 -1    0    0    0  501 0.00000000E+00 0.00000000E+00 0.21331780E+03 0.21331804E+03 0.32000000E+00 0.0000E+00 0.9000E+01
        2 -1    0    0  501    0 0.00000000E+00 0.00000000E+00 -.55785356E+02 0.55786274E+02 0.32000000E+00 0.0000E+00 0.9000E+01
       25  1    1    2    0    0 -.22264238E+02 0.24068631E+02 0.11219477E+03 0.17113638E+03 0.12500000E+03 0.0000E+00 0.9000E+01
       24  1    1    2    0    0 0.22264238E+02 -.24068631E+02 0.45337679E+02 0.97967935E+02 0.80419002E+02 0.0000E+00 0.9000E+01
#aMCatNLO 1  0  0  1  2 0.83242641D+02 0.00000000D+00  -5  5  0 0.00000000D+00 0.00000000D+00 0.00000000D+00 0.00000000D+00 0.00000000D+00
  <mgrwgt>
 0.2048312617D+00    5    2    0
 0.109087879441897D+03 0.000000000000000D+00 0.000000000000000D+00 0.109087879441897D+03
 0.109087879441897D+03 0.000000000000000D+00 0.000000000000000D+00 -.109087879441897D+03
 0.130075050730956D+03 -.222642377597323D+02 0.240686309347268D+02 0.148163269593677D+02
 0.881007081528372D+02 0.222642377597323D+02 -.240686309347268D+02 -.148163269593677D+02
 0.000000000000000D+00 -.000000000000000D+00 -.000000000000000D+00 0.000000000000000D+00
 0.162821856137667D+03 0.000000000000000D+00 0.000000000000000D+00 0.162821856137667D+03
 0.154365774158192D+03 0.000000000000000D+00 0.000000000000000D+00 -.154365774158192D+03
 0.142529132106195D+03 0.428128295642012D+01 0.667210654188421D+02 0.148163269593677D+02
 0.909874604491359D+02 0.397034004320139D+02 0.395201900056407D+01 -.148163269593677D+02
 0.836710377405281D+02 -.439846833884340D+02 -.706730844194062D+02 0.845608197947419D+01
0.307569351604D-03 0.000000000000D+00 0.000000000000D+00 0.299017951693D-02 0.000000000000D+00  5 -1 2 25 24 21 0 0.32818213D-01 0.85824516D-02 0.11672033D+05 0.11672033D+05 0.11672033D+05 0.12604370D+01  1  2  2  1  5  1       -1 0.221963711563D+00 0.100000000000D+01
-.170852401540D-04 0.000000000000D+00 -.118114729503D-05 0.299017951693D-02 0.000000000000D+00  5 -1 2 25 24 21 2 0.32818213D-01 0.85824516D-02 0.11672033D+05 0.11672033D+05 0.11672033D+05 0.12604370D+01  1  2  3  1  5  1       -1 -.195885507196D-01 0.100000000000D+01
0.212238781989D-04 0.000000000000D+00 0.000000000000D+00 0.299017951693D-02 0.000000000000D+00  5 -1 2 25 24 21 2 0.32818213D-01 0.85824516D-02 0.11672033D+05 0.11672033D+05 0.11672033D+05 0.12604370D+01  1  2 15  1  5  1       -1 0.243335774516D-01 0.100000000000D+01
-.686783337540D-04 0.000000000000D+00 -.866635407278D-04 0.299017951693D-02 0.000000000000D+00  5 -1 2 25 24 21 2 0.66961057D-01 0.85824516D-02 0.11672033D+05 0.11672033D+05 0.11672033D+05 0.12604370D+01  1  2  5  1  5  1       -1 -.218183864746D-01 0.100000000000D+01
-.192931011062D-07 0.000000000000D+00 -.668329949385D-05 0.299017951693D-02 0.000000000000D+00  5 21 2 25 24 1 2 0.66961057D-01 0.85824516D-02 0.11672033D+05 0.11672033D+05 0.11672033D+05 0.12604370D+01  1  2  5  3  5  1       -1 -.590901024147D-04 0.100000000000D+01
  </mgrwgt>
  </event>
  <event>
  5     66 0.45252658E-03 0.10528288E+03 0.75467711E-02 0.11582586E+00
       -3 -1    0    0    0  501 0.00000000E+00 0.00000000E+00 0.22316511E+03 0.22316567E+03 0.50000000E+00 0.0000E+00 0.9000E+01
       21 -1    0    0  501  502 0.00000000E+00 0.00000000E+00 -.17029754E+03 0.17029919E+03 0.75000000E+00 0.0000E+00 0.9000E+01
       25  1    1    2    0    0 0.64399117E+02 -.83704486E+02 -.19288558E+02 0.16477480E+03 0.12500000E+03 0.0000E+00 0.9000E+01
       24  1    1    2    0    0 0.15055259E+02 -.21857508E+02 0.23511657E+02 0.87888711E+02 0.80419002E+02 0.0000E+00 0.9000E+01
       -4  1    1    2    0  502 -.79454376E+02 0.10556199E+03 0.48644473E+02 0.14080135E+03 0.15500000E+01 0.0000E+00 0.9000E+01
#aMCatNLO 2  0  0  2  2 0.13212241D+03 0.00000000D+00  -5  5  0 0.00000000D+00 0.00000000D+00 0.00000000D+00 0.00000000D+00 0.00000000D+00
  <mgrwgt>
 0.2486432481D-01    1    2    0
 0.107662300864221D+03 0.000000000000000D+00 0.000000000000000D+00 0.107662300864221D+03
 0.107662300864221D+03 0.000000000000000D+00 0.000000000000000D+00 -.107662300864221D+03
 0.128927367587017D+03 0.144723503864639D+02 -.173724692443498D+02 -.220457365393691D+02
 0.863972341414253D+02 -.144723503864639D+02 0.173724692443498D+02 0.220457365393691D+02
 0.000000000000000D+00 -.000000000000000D+00 0.000000000000000D+00 0.000000000000000D+00
 0.219461813479001D+03 0.000000000000000D+00 0.000000000000000D+00 0.219461813479001D+03
 0.173165324069121D+03 0.000000000000000D+00 0.000000000000000D+00 -.173165324069121D+03
 0.165120264604708D+03 0.643991169068816D+02 -.837044862906362D+02 -.220457365393691D+02
 0.875079535514439D+02 0.150552592661455D+02 -.218575078464356D+02 0.220457365393691D+02
 0.139998919391970D+03 -.794543761730271D+02 0.105561994137072D+03 0.462964894098801D+02
0.300359772236D-04 0.000000000000D+00 0.000000000000D+00 0.297120869292D-02 0.217522243331D-06  5 -3 21 25 24 -4 2 0.34332483D-01 0.26199196D-01 0.36185517D+05 0.36185517D+05 0.36185517D+05 0.12064455D+01  1  2  1  4  5  2        4 0.248643248126D-01 0.100000000000D+01
  </mgrwgt>
  </event>
  <event>
  4     66 0.45252658E-03 0.11417738E+03 0.75467711E-02 0.12238695E+00
       -1 -1    0    0    0  501 0.00000000E+00 0.00000000E+00 0.19927259E+02 0.19929828E+02 0.32000000E+00 0.0000E+00 0.9000E+01
        2 -1    0    0  501    0 0.00000000E+00 0.00000000E+00 -.65906738E+03 0.65906746E+03 0.32000000E+00 0.0000E+00 0.9000E+01
       25  1    1    2    0    0 0.24122633E+02 -.42550360E+02 -.40412292E+03 0.42583186E+03 0.12500000E+03 0.0000E+00 0.9000E+01
       24  1    1    2    0    0 -.24122633E+02 0.42550360E+02 -.23501720E+03 0.25316543E+03 0.80419002E+02 0.0000E+00 0.9000E+01
#aMCatNLO 1  0  0  2  2 0.34018812D+02 0.00000000D+00  -5  5  0 0.00000000D+00 0.00000000D+00 0.00000000D+00 0.00000000D+00 0.00000000D+00
  <mgrwgt>
 0.2370909386D+00    4    2    0
 0.114604995946650D+03 0.000000000000000D+00 0.000000000000000D+00 0.114604995946650D+03
 0.114604995946650D+03 0.000000000000000D+00 0.000000000000000D+00 -.114604995946650D+03
 0.134581838949840D+03 0.241226331870214D+02 -.425503604465026D+02 -.973841717722609D+01
 0.946281529434613D+02 -.241226331870214D+02 0.425503604465026D+02 0.973841717722609D+01
 0.000000000000000D+00 -.000000000000000D+00 -.000000000000000D+00 0.000000000000000D+00
 0.149722748757218D+03 0.000000000000000D+00 0.000000000000000D+00 0.149722748757218D+03
 0.124404359827402D+03 0.000000000000000D+00 0.000000000000000D+00 -.124404359827402D+03
 0.136018078355118D+03 0.414446763859201D+02 -.326101160618562D+02 -.973841717722609D+01
 0.957026585735196D+02 -.119388950247401D+02 0.495419914833839D+02 0.973841717722609D+01
 0.424063716559822D+02 -.295057813611800D+02 -.169318754215277D+02 0.253183889298153D+02
0.198378399186D-03 0.000000000000D+00 0.000000000000D+00 0.287832247374D-02 0.000000000000D+00  5 -1 2 25 24 21 0 0.30659358D-02 0.10139518D+00 0.13036473D+05 0.13036473D+05 0.13036473D+05 0.12548292D+01  1  2  2  2  5  2        2 0.347759511996D+00 0.100000000000D+01
-.110208349224D-04 0.000000000000D+00 -.761825287108D-06 0.287832247374D-02 0.000000000000D+00  5 -1 2 25 24 21 2 0.30659358D-02 0.10139518D+00 0.13036473D+05 0.13036473D+05 0.13036473D+05 0.12548292D+01  1  2  3  2  5  2        2 -.304206395423D-01 0.100000000000D+01
0.137223503574D-04 0.000000000000D+00 0.000000000000D+00 0.287832247374D-02 0.000000000000D+00  5 -1 2 25 24 21 2 0.30659358D-02 0.10139518D+00 0.13036473D+05 0.13036473D+05 0.13036473D+05 0.12548292D+01  1  2 15  2  5  2        2 0.378775906574D-01 0.100000000000D+01
-.427946921976D-04 0.000000000000D+00 0.000000000000D+00 0.287832247374D-02 0.000000000000D+00  5 -1 2 25 24 21 2 0.30659358D-02 0.10139518D+00 0.13036473D+05 0.13036473D+05 0.13036473D+05 0.12548292D+01  1  2  4  2  5  2        2 -.118125524502D+00 0.100000000000D+01
  </mgrwgt>
  </event>
  <event>
  4     66 0.45252658E-03 0.56225681E+02 0.75467711E-02 0.12319815E+00
       -1 -1    0    0    0  501 0.00000000E+00 0.00000000E+00 0.18082624E+02 0.18085456E+02 0.32000000E+00 0.0000E+00 0.9000E+01
        2 -1    0    0  501    0 0.00000000E+00 0.00000000E+00 -.92370280E+03 0.92370285E+03 0.32000000E+00 0.0000E+00 0.9000E+01
       25  1    1    2    0    0 0.15403784E+02 -.26834044E+02 -.25686496E+03 0.28733595E+03 0.12500000E+03 0.0000E+00 0.9000E+01
       24  1    1    2    0    0 -.15403784E+02 0.26834044E+02 -.64875521E+03 0.65445236E+03 0.80419002E+02 0.0000E+00 0.9000E+01
#aMCatNLO 1  0  0  1  2 0.36439419D+02 0.00000000D+00  -5  5  0 0.00000000D+00 0.00000000D+00 0.00000000D+00 0.00000000D+00 0.00000000D+00
  <mgrwgt>
 0.3467424800D+00    9    2    0
 0.129245231891896D+03 0.000000000000000D+00 0.000000000000000D+00 0.129245231891896D+03
 0.129245231891896D+03 0.000000000000000D+00 0.000000000000000D+00 -.129245231891896D+03
 0.146959200739291D+03 0.154037843786952D+02 -.268340438992749D+02 0.708142937319692D+02
 0.111531263044501D+03 -.154037843786952D+02 0.268340438992749D+02 -.708142937319692D+02
 0.000000000000000D+00 -.000000000000000D+00 0.000000000000000D+00 0.000000000000000D+00
 0.155371610176907D+03 0.000000000000000D+00 0.000000000000000D+00 0.155371610176907D+03
 0.143882412407500D+03 0.000000000000000D+00 0.000000000000000D+00 -.143882412407500D+03
 0.151264793168400D+03 0.359373950862472D+02 -.308200760858269D+02 0.708142937319692D+02
 0.109781469276837D+03 -.165743231953659D+00 0.238759999713954D+02 -.708142937319692D+02
 0.382077601391699D+02 -.357716518542935D+02 0.694407611443154D+01 0.114891977694069D+02
0.212764864453D-03 0.000000000000D+00 0.000000000000D+00 0.193351939910D-02 0.000000000000D+00  5 -1 2 25 24 21 0 0.27821642D-02 0.14210835D+00 0.11549621D+05 0.11549621D+05 0.11549621D+05 0.12609759D+01  1  2  2  1  5  1       -1 0.282568681065D+00 0.100000000000D+01
-.113310123447D-04 0.000000000000D+00 -.817073101773D-06 0.193351939910D-02 0.000000000000D+00  5 -1 2 25 24 21 2 0.27821642D-02 0.14210835D+00 0.11549621D+05 0.11549621D+05 0.11549621D+05 0.12609759D+01  1  2  3  1  5  1       -1 -.239279986477D-01 0.100000000000D+01
0.145672236717D-04 0.000000000000D+00 0.000000000000D+00 0.193351939910D-02 0.000000000000D+00  5 -1 2 25 24 21 2 0.27821642D-02 0.14210835D+00 0.11549621D+05 0.11549621D+05 0.11549621D+05 0.12609759D+01  1  2 15  1  5  1       -1 0.307619917544D-01 0.100000000000D+01
0.138685311821D-03 0.000000000000D+00 0.000000000000D+00 0.193351939910D-02 0.000000000000D+00  5 -1 2 25 24 21 2 0.34764880D-02 0.14210835D+00 0.16128140D+05 0.16128140D+05 0.16128140D+05 0.12442482D+01  1  2 12  1  5  1       -1 0.208531234939D+00 0.100000000000D+01
-.145657650527D-03 0.000000000000D+00 0.000000000000D+00 0.193351939910D-02 0.000000000000D+00  5 -1 2 25 24 21 2 0.27821642D-02 0.14210835D+00 0.11549621D+05 0.11549621D+05 0.11549621D+05 0.12609759D+01  1  2  4  1  5  1       -1 -.307589115500D+00 0.100000000000D+01
-.274641067198D-03 0.000000000000D+00 -.101912952718D-03 0.193351939910D-02 0.000000000000D+00  5 -1 2 25 24 21 2 0.37349796D-02 0.14210835D+00 0.11549621D+05 0.11549621D+05 0.11549621D+05 0.12609759D+01  1  2  5  1  5  1       -1 -.378390303343D+00 0.100000000000D+01
0.295991436150D-03 0.000000000000D+00 0.976473821349D-04 0.193351939910D-02 0.000000000000D+00  5 -1 2 25 24 21 2 0.27821642D-02 0.14210835D+00 0.11549621D+05 0.11549621D+05 0.11549621D+05 0.12609759D+01  1  2  6  1  5  1       -1 0.625052949240D+00 0.100000000000D+01
0.430768683849D-05 0.000000000000D+00 0.000000000000D+00 0.193351939910D-02 0.000000000000D+00  5 21 2 25 24 1 2 0.34764880D-02 0.14210835D+00 0.16128140D+05 0.16128140D+05 0.16128140D+05 0.12442482D+01  1  2 12  3  5  1       -1 0.121923305274D+00 0.100000000000D+01
-.825522994249D-05 0.000000000000D+00 -.388724484940D-05 0.193351939910D-02 0.000000000000D+00  5 21 2 25 24 1 2 0.37349796D-02 0.14210835D+00 0.11549621D+05 0.11549621D+05 0.11549621D+05 0.12609759D+01  1  2  5  3  5  1       -1 -.212188264816D+00 0.100000000000D+01
  </mgrwgt>
  </event>
  <event>
  4     66 0.45252658E-03 0.72434738E+02 0.75467711E-02 0.12061186E+00
       -1 -1    0    0    0  501 0.00000000E+00 0.00000000E+00 0.71531621E+01 0.71603162E+01 0.32000000E+00 0.0000E+00 0.9000E+01
        2 -1    0    0  501    0 0.00000000E+00 0.00000000E+00 -.18050976E+04 0.18050976E+04 0.32000000E+00 0.0000E+00 0.9000E+01
       25  1    1    2    0    0 0.37624950E+02 0.29370938E+02 -.10587104E+04 0.10671322E+04 0.12500000E+03 0.0000E+00 0.9000E+01
       24  1    1    2    0    0 -.37624950E+02 -.29370938E+02 -.73923400E+03 0.74512577E+03 0.80419002E+02 0.0000E+00 0.9000E+01
#aMCatNLO 1  0  0  1  2 0.56706321D+02 0.00000000D+00  -5  5  0 0.00000000D+00 0.00000000D+00 0.00000000D+00 0.00000000D+00 0.00000000D+00
  <mgrwgt>
 0.3780878659D+00    9    2    0
 0.113660300575984D+03 0.000000000000000D+00 0.000000000000000D+00 0.113660300575984D+03
 0.113660300575984D+03 0.000000000000000D+00 0.000000000000000D+00 -.113660300575984D+03
 0.133803182477628D+03 0.376249495036790D+02 0.293709381801408D+02 -.529755157463276D-01
 0.935174186743403D+02 -.376249495036790D+02 -.293709381801408D+02 0.529755157463276D-01
 0.000000000000000D+00 -.000000000000000D+00 0.000000000000000D+00 0.000000000000000D+00
 0.173722941485491D+03 0.000000000000000D+00 0.000000000000000D+00 0.173722941485491D+03
 0.131351689694059D+03 0.000000000000000D+00 0.000000000000000D+00 -.131351689694059D+03
 0.144724872856448D+03 0.703332948606816D+02 0.193265012599321D+02 -.529755157463276D-01
 0.895618371960267D+02 -.161254293870123D+02 -.359732462843746D+02 0.529755157463276D-01
 0.707879211270762D+02 -.542078654736692D+02 0.166467450244425D+02 0.423712517914320D+02
0.204189097809D-03 0.000000000000D+00 0.000000000000D+00 0.291823281495D-02 0.000000000000D+00  5 -1 2 25 24 21 0 0.11010390D-02 0.27770788D+00 0.12918661D+05 0.12918661D+05 0.12918661D+05 0.12552867D+01  1  2  2  1  5  1       -1 0.344428381669D+00 0.100000000000D+01
-.113438387672D-04 0.000000000000D+00 -.784139899812D-06 0.291823281495D-02 0.000000000000D+00  5 -1 2 25 24 21 2 0.11010390D-02 0.27770788D+00 0.12918661D+05 0.12918661D+05 0.12918661D+05 0.12552867D+01  1  2  3  1  5  1       -1 -.301517351290D-01 0.100000000000D+01
0.141089836049D-04 0.000000000000D+00 0.000000000000D+00 0.291823281495D-02 0.000000000000D+00  5 -1 2 25 24 21 2 0.11010390D-02 0.27770788D+00 0.12918661D+05 0.12918661D+05 0.12918661D+05 0.12552867D+01  1  2 15  1  5  1       -1 0.375014442045D-01 0.100000000000D+01
0.773617380836D-04 0.000000000000D+00 0.000000000000D+00 0.291823281495D-02 0.000000000000D+00  5 -1 2 25 24 21 2 0.17319978D-02 0.27770788D+00 0.21169232D+05 0.21169232D+05 0.21169232D+05 0.12311187D+01  1  2 12  1  5  1       -1 0.104506783898D+00 0.100000000000D+01
-.120495050010D-03 0.000000000000D+00 0.000000000000D+00 0.291823281495D-02 0.000000000000D+00  5 -1 2 25 24 21 2 0.11010390D-02 0.27770788D+00 0.12918661D+05 0.12918661D+05 0.12918661D+05 0.12552867D+01  1  2  4  1  5  1       -1 -.320273842640D+00 0.100000000000D+01
-.138572918291D-03 0.000000000000D+00 -.633615892538D-04 0.291823281495D-02 0.000000000000D+00  5 -1 2 25 24 21 2 0.19861023D-02 0.27770788D+00 0.12918661D+05 0.12918661D+05 0.12918661D+05 0.12552867D+01  1  2  5  1  5  1       -1 -.158639791313D+00 0.100000000000D+01
0.157386693035D-03 0.000000000000D+00 0.537368951234D-04 0.291823281495D-02 0.000000000000D+00  5 -1 2 25 24 21 2 0.11010390D-02 0.27770788D+00 0.12918661D+05 0.12918661D+05 0.12918661D+05 0.12552867D+01  1  2  6  1  5  1       -1 0.418331217378D+00 0.100000000000D+01
0.404059026980D-05 0.000000000000D+00 0.000000000000D+00 0.291823281495D-02 0.000000000000D+00  5 21 2 25 24 1 2 0.17319978D-02 0.27770788D+00 0.21169232D+05 0.21169232D+05 0.21169232D+05 0.12311187D+01  1  2 12  3  5  1       -1 0.115969962230D+00 0.100000000000D+01
-.558201989511D-05 0.000000000000D+00 -.409751878447D-05 0.291823281495D-02 0.000000000000D+00  5 21 2 25 24 1 2 0.19861023D-02 0.27770788D+00 0.12918661D+05 0.12918661D+05 0.12918661D+05 0.12552867D+01  1  2  5  3  5  1       -1 -.133584554396D+00 0.100000000000D+01
  </mgrwgt>
  </event>
  <event>
  5     66 -.45252658E-03 0.13456100E+03 0.75467711E-02 0.12179310E+00
       -1 -1    0    0    0  501 0.00000000E+00 0.00000000E+00 0.52736058E+03 0.52736068E+03 0.32000000E+00 0.0000E+00 0.9000E+01
        2 -1    0    0  502    0 0.00000000E+00 0.00000000E+00 -.35422739E+02 0.35424185E+02 0.32000000E+00 0.0000E+00 0.9000E+01
       25  1    1    2    0    0 0.79134488E+02 -.32392367E+02 0.26978417E+03 0.30938654E+03 0.12500000E+03 0.0000E+00 0.9000E+01
       24  1    1    2    0    0 -.81006424E+02 0.28727852E+02 0.21501931E+03 0.24512823E+03 0.80419002E+02 0.0000E+00 0.9000E+01
       21  1    1    2  502  501 0.18719359E+01 0.36645149E+01 0.71343716E+01 0.82701011E+01 0.75000000E+00 0.0000E+00 0.9000E+01
#aMCatNLO 2  0  0  2  1 0.41149500D+01 0.00000000D+00  -5  5  0 0.00000000D+00 0.00000000D+00 0.00000000D+00 0.00000000D+00 0.00000000D+00
  <mgrwgt>
 -.1697254442D-01    3    2    0
 0.134569019678274D+03 0.000000000000000D+00 0.000000000000000D+00 0.134569019678274D+03
 0.134569019678274D+03 0.000000000000000D+00 0.000000000000000D+00 -.134569019678274D+03
 0.151582192672184D+03 0.801882840642527D+02 -.303294476095587D+02 -.145768372320203D+01
 0.117555846684364D+03 -.801882840642527D+02 0.303294476095587D+02 0.145768372320203D+01
 0.000000000000000D+00 0.000000000000000D+00 0.000000000000000D+00 -.000000000000000D+00
 0.136545690338336D+03 0.000000000000000D+00 0.000000000000000D+00 0.136545690338336D+03
 0.136743506688874D+03 0.000000000000000D+00 0.000000000000000D+00 -.136743506688874D+03
 0.151455133355566D+03 0.791344878555358D+02 -.323923665353015D+02 -.145768372320203D+01
 0.117714361651051D+03 -.810064237199108D+02 0.287278516220264D+02 0.145768372320203D+01
 0.411970202059436D+01 0.187193586437502D+01 0.366451491327511D+01 -.197816350537923D+00
-.981290409712D-04 0.000000000000D+00 0.000000000000D+00 0.256156035597D-02 0.000000000000D+00  5 -1 2 25 24 21 2 0.79938214D-01 0.54871963D-02 0.18668905D+05 0.18668905D+05 0.18668905D+05 0.12371327D+01  1  2 13  2  5  2        2 -.376335377158D-01 0.100000000000D+01
-.414166475117D-03 0.000000000000D+00 0.000000000000D+00 0.256156035597D-02 0.000000000000D+00  5 -1 2 25 24 21 2 0.79938214D-01 0.53617804D-02 0.18106662D+05 0.18106662D+05 0.18106662D+05 0.12386096D+01  1  2  8  2  5  2        2 -.163946048999D+00 0.100000000000D+01
0.491431016560D-03 0.000000000000D+00 0.000000000000D+00 0.256156035597D-02 0.123511743705D-02  5 -1 2 25 24 21 2 0.81112418D-01 0.54484209D-02 0.18668905D+05 0.18668905D+05 0.18668905D+05 0.12371327D+01  1  2  1  2  5  2        2 0.184607042293D+00 0.100000000000D+01
  </mgrwgt>
  </event>
  <event>
  4     66 0.45252658E-03 0.11271399E+03 0.75467711E-02 0.10350443E+00
       -3 -1    0    0    0  501 0.00000000E+00 0.00000000E+00 0.94781128E+02 0.94782447E+02 0.50000000E+00 0.0000E+00 0.9000E+01
        4 -1    0    0  501    0 0.00000000E+00 0.00000000E+00 -.13553976E+03 0.13554863E+03 0.15500000E+01 0.0000E+00 0.9000E+01
       25  1    1    2    0    0 -.20959452E+02 -.40393247E+02 -.12043323E+02 0.13357004E+03 0.12500000E+03 0.0000E+00 0.9000E+01
       24  1    1    2    0    0 0.20959452E+02 0.40393247E+02 -.28715313E+02 0.96761037E+02 0.80419002E+02 0.0000E+00 0.9000E+01
#aMCatNLO 1  0  0  2  1 0.39648685D+03 0.00000000D+00  -5  5  0 0.00000000D+00 0.00000000D+00 0.00000000D+00 0.00000000D+00 0.00000000D+00
  <mgrwgt>
 0.5740471376D-01    5    2    0
 0.113348066804383D+03 0.000000000000000D+00 0.000000000000000D+00 0.113348066804383D+03
 0.113348066804383D+03 0.000000000000000D+00 0.000000000000000D+00 -.113348066804383D+03
 0.133546435210247D+03 -.209594523248815D+02 -.403932473947918D+02 0.117786790646835D+02
 0.931496983985197D+02 0.209594523248815D+02 0.403932473947918D+02 -.117786790646835D+02
 0.000000000000000D+00 -.000000000000000D+00 0.000000000000000D+00 -.000000000000000D+00
 0.285070695770406D+03 0.000000000000000D+00 0.000000000000000D+00 0.285070695770406D+03
 0.921357518855649D+03 0.000000000000000D+00 0.000000000000000D+00 -.921357518855649D+03
 0.294534407487645D+03 0.151260766180793D+03 -.219332990058470D+03 0.117786790646835D+02
 0.162185370550968D+03 0.123682716205381D+03 -.663379747801704D+02 -.117786790646835D+02
 0.749708436587443D+03 -.274943482386174D+03 0.285670964838640D+03 -.636286823085243D+03
0.357601789704D-03 0.000000000000D+00 0.000000000000D+00 0.289890580408D-02 0.000000000000D+00  5 -3 4 25 24 21 0 0.14582495D-01 0.20853055D-01 0.12704444D+05 0.12704444D+05 0.12704444D+05 0.12561309D+01  1  2  2  2  5  2        4 0.545572939432D-01 0.100000000000D+01
-.198660059486D-04 0.000000000000D+00 -.137328503118D-05 0.289890580408D-02 0.000000000000D+00  5 -3 4 25 24 21 2 0.14582495D-01 0.20853055D-01 0.12704444D+05 0.12704444D+05 0.12704444D+05 0.12561309D+01  1  2  3  2  5  2        4 -.478226344846D-02 0.100000000000D+01
0.246894975700D-04 0.000000000000D+00 0.000000000000D+00 0.289890580408D-02 0.000000000000D+00  5 -3 4 25 24 21 2 0.14582495D-01 0.20853055D-01 0.12704444D+05 0.12704444D+05 0.12704444D+05 0.12561309D+01  1  2 15  2  5  2        4 0.594340312267D-02 0.100000000000D+01
0.776503486021D-03 0.000000000000D+00 -.446101502601D-03 0.289890580408D-02 0.000000000000D+00  5 -3 4 25 24 21 2 0.14582495D-01 0.31020343D+00 0.12704444D+05 0.12704444D+05 0.12704444D+05 0.12561309D+01  1  2  5  2  5  2        4 0.318222030740D-03 0.100000000000D+01
0.138288082603D-03 0.000000000000D+00 -.135859176407D-03 0.289890580408D-02 0.000000000000D+00  5 -3 21 25 24 -4 2 0.14582495D-01 0.31020343D+00 0.12704444D+05 0.12704444D+05 0.12704444D+05 0.12561309D+01  1  2  5  4  5  2        4 0.136805811103D-02 0.100000000000D+01
  </mgrwgt>
  </event>
  <event>
  4     66 0.45252658E-03 0.13536767E+03 0.75467711E-02 0.11779885E+00
       -1 -1    0    0    0  501 0.00000000E+00 0.00000000E+00 0.68816640E+01 0.68891001E+01 0.32000000E+00 0.0000E+00 0.9000E+01
        2 -1    0    0  501    0 0.00000000E+00 0.00000000E+00 -.27206367E+04 0.27206367E+04 0.32000000E+00 0.0000E+00 0.9000E+01
       25  1    1    2    0    0 -.49079483E+02 0.71802121E+02 -.13229220E+04 0.13316576E+04 0.12500000E+03 0.0000E+00 0.9000E+01
       24  1    1    2    0    0 0.49079483E+02 -.71802121E+02 -.13908331E+04 0.13958682E+04 0.80419002E+02 0.0000E+00 0.9000E+01
#aMCatNLO 1  0  0  1  1 0.62081847D+02 0.00000000D+00  -5  5  0 0.00000000D+00 0.00000000D+00 0.00000000D+00 0.00000000D+00 0.00000000D+00
  <mgrwgt>
 0.5091229042D+00    4    2    0
 0.136867360917091D+03 0.000000000000000D+00 0.000000000000000D+00 0.136867360917091D+03
 0.136867360917091D+03 0.000000000000000D+00 0.000000000000000D+00 -.136867360917091D+03
 0.153594840690696D+03 -.490794831224018D+02 0.718021212568798D+02 0.200508056259707D+02
 0.120139881143485D+03 0.490794831224018D+02 -.718021212568798D+02 -.200508056259707D+02
 0.000000000000000D+00 -.000000000000000D+00 -.000000000000000D+00 -.000000000000000D+00
 0.151172077546227D+03 0.000000000000000D+00 0.000000000000000D+00 0.151172077546227D+03
 0.229321840769772D+03 0.000000000000000D+00 0.000000000000000D+00 -.229321840769772D+03
 0.171970837950237D+03 -.437315764487619D+02 0.107863263071178D+03 0.200508056259707D+02
 0.108715559438919D+03 0.528387784605915D+02 -.464530472013253D+02 -.200508056259707D+02
 0.998075209268436D+02 -.910720201182956D+01 -.614102158698531D+02 -.781497632235446D+02
0.899834649391D-03 0.000000000000D+00 0.000000000000D+00 0.248615491467D-02 0.000000000000D+00  5 -1 2 25 24 21 0 0.10592910D-02 0.41856007D+00 0.18324406D+05 0.18324406D+05 0.18324406D+05 0.12380316D+01  1  2  2  1  5  1       -1 0.536384037517D+00 0.100000000000D+01
-.499834355402D-04 0.000000000000D+00 -.345560198557D-05 0.248615491467D-02 0.000000000000D+00  5 -1 2 25 24 21 2 0.10592910D-02 0.41856007D+00 0.18324406D+05 0.18324406D+05 0.18324406D+05 0.12380316D+01  1  2  3  1  5  1       -1 -.456670215854D-01 0.100000000000D+01
0.619220542352D-04 0.000000000000D+00 0.000000000000D+00 0.248615491467D-02 0.000000000000D+00  5 -1 2 25 24 21 2 0.10592910D-02 0.41856007D+00 0.18324406D+05 0.18324406D+05 0.18324406D+05 0.12380316D+01  1  2 15  1  5  1       -1 0.565746583206D-01 0.100000000000D+01
-.417764547255D-04 0.000000000000D+00 0.000000000000D+00 0.248615491467D-02 0.000000000000D+00  5 -1 2 25 24 21 2 0.10592910D-02 0.41856007D+00 0.18324406D+05 0.18324406D+05 0.18324406D+05 0.12380316D+01  1  2  4  1  5  1       -1 -.381687700954D-01 0.100000000000D+01
  </mgrwgt>
  </event>
  <event>
  5     66 -.45252658E-03 0.12279542E+03 0.75467711E-02 0.12083237E+00
       -1 -1    0    0    0  501 0.00000000E+00 0.00000000E+00 0.27706078E+03 0.27706096E+03 0.32000000E+00 0.0000E+00 0.9000E+01
        2 -1    0    0  502    0 0.00000000E+00 0.00000000E+00 -.75796747E+02 0.75797422E+02 0.32000000E+00 0.0000E+00 0.9000E+01
       25  1    1    2    0    0 -.21869933E+02 0.70389531E+02 0.12346054E+03 0.19052686E+03 0.12500000E+03 0.0000E+00 0.9000E+01
       24  1    1    2    0    0 0.49256498E+02 -.42729413E+02 0.57219839E+02 0.11829341E+03 0.80419002E+02 0.0000E+00 0.9000E+01
       21  1    1    2  502  501 -.27386565E+02 -.27660118E+02 0.20583651E+02 0.44038112E+02 0.75000000E+00 0.0000E+00 0.9000E+01
#aMCatNLO 2  0  0  2  1 0.38924364D+02 0.00000000D+00  -5  5  0 0.00000000D+00 0.00000000D+00 0.00000000D+00 0.00000000D+00 0.00000000D+00
  <mgrwgt>
 -.3274561533D-01    2    2    0
 0.123702724375972D+03 0.000000000000000D+00 0.000000000000000D+00 0.123702724375972D+03
 0.123702724375972D+03 0.000000000000000D+00 0.000000000000000D+00 -.123702724375972D+03
 0.142210368592837D+03 -.377167222998838D+02 0.543844550983737D+02 0.147840737929996D+02
 0.105195080159107D+03 0.377167222998838D+02 -.543844550983737D+02 -.147840737929996D+02
 0.000000000000000D+00 -.000000000000000D+00 -.000000000000000D+00 -.000000000000000D+00
 0.141752441492584D+03 0.000000000000000D+00 0.000000000000000D+00 0.141752441492584D+03
 0.148141511703596D+03 0.000000000000000D+00 0.000000000000000D+00 -.148141511703596D+03
 0.145864831035134D+03 -.218699328031724D+02 0.703895314246084D+02 0.147840737929996D+02
 0.104583890562437D+03 0.492564980048186D+02 -.427294134898864D+02 -.147840737929996D+02
 0.394452315986100D+02 -.273865652016462D+02 -.276601179347219D+02 -.638907021101139D+01
-.332104916813D-03 0.000000000000D+00 0.000000000000D+00 0.268314575802D-02 0.000000000000D+00  5 -1 2 25 24 21 2 0.37196354D-01 0.12251559D-01 0.20674373D+05 0.20674373D+05 0.20674373D+05 0.12322436D+01  1  2 13  2  5  2        2 -.193855105062D+00 0.100000000000D+01
0.330234134577D-03 0.000000000000D+00 0.000000000000D+00 0.268314575802D-02 0.147101452660D-04  5 -1 2 25 24 21 2 0.42623749D-01 0.11660816D-01 0.20674373D+05 0.20674373D+05 0.20674373D+05 0.12322436D+01  1  2  1  2  5  2        2 0.161109489734D+00 0.100000000000D+01
  </mgrwgt>
  </event>
  <event>
  4     66 0.45252658E-03 0.68625251E+02 0.75467711E-02 0.12445618E+00
       -1 -1    0    0    0  501 0.00000000E+00 0.00000000E+00 0.21758440E+02 0.21760793E+02 0.32000000E+00 0.0000E+00 0.9000E+01
        2 -1    0    0  501    0 0.00000000E+00 0.00000000E+00 -.56094964E+03 0.56094973E+03 0.32000000E+00 0.0000E+00 0.9000E+01
       25  1    1    2    0    0 -.10693734E+02 -.37816584E+02 -.33784615E+03 0.36236649E+03 0.12500000E+03 0.0000E+00 0.9000E+01
       24  1    1    2    0    0 0.10693734E+02 0.37816584E+02 -.20134505E+03 0.22034404E+03 0.80419002E+02 0.0000E+00 0.9000E+01
#aMCatNLO 1  0  0  2  1 0.17034553D+02 0.00000000D+00  -5  5  0 0.00000000D+00 0.00000000D+00 0.00000000D+00 0.00000000D+00 0.00000000D+00
  <mgrwgt>
 0.3082414736D+00    9    2    0
 0.110481226999898D+03 0.000000000000000D+00 0.000000000000000D+00 0.110481226999898D+03
 0.110481226999898D+03 0.000000000000000D+00 0.000000000000000D+00 -.110481226999898D+03
 0.131203716001667D+03 -.106937338982642D+02 -.378165843079393D+02 -.670560207884680D+01
 0.897587379981288D+02 0.106937338982642D+02 0.378165843079393D+02 0.670560207884680D+01
 0.000000000000000D+00 -.000000000000000D+00 -.000000000000000D+00 -.000000000000000D+00
 0.112668315324245D+03 0.000000000000000D+00 0.000000000000000D+00 0.112668315324245D+03
 0.149826609391095D+03 0.000000000000000D+00 0.000000000000000D+00 -.149826609391095D+03
 0.130758937274647D+03 -.611067276154804D+00 -.377830805353299D+02 -.670560207884680D+01
 0.908591623650646D+02 0.176455266541063D+02 0.378396844750328D+02 0.670560207884680D+01
 0.408768250756287D+02 -.170344593779515D+02 -.566039397028328D-01 -.371582940668497D+02
0.119073891637D-03 0.000000000000D+00 0.000000000000D+00 0.298931846609D-02 0.000000000000D+00  5 -1 2 25 24 21 0 0.33476404D-02 0.86300133D-01 0.12159490D+05 0.12159490D+05 0.12159490D+05 0.12583526D+01  1  2  2  2  5  2        2 0.219916646080D+00 0.100000000000D+01
-.661518676775D-05 0.000000000000D+00 -.457275096760D-06 0.298931846609D-02 0.000000000000D+00  5 -1 2 25 24 21 2 0.33476404D-02 0.86300133D-01 0.12159490D+05 0.12159490D+05 0.12159490D+05 0.12583526D+01  1  2  3  2  5  2        2 -.193458754539D-01 0.100000000000D+01
0.823404142144D-05 0.000000000000D+00 0.000000000000D+00 0.298931846609D-02 0.000000000000D+00  5 -1 2 25 24 21 2 0.33476404D-02 0.86300133D-01 0.12159490D+05 0.12159490D+05 0.12159490D+05 0.12583526D+01  1  2 15  2  5  2        2 0.240801575850D-01 0.100000000000D+01
0.575235981462D-03 0.000000000000D+00 0.000000000000D+00 0.298931846609D-02 0.000000000000D+00  5 -1 2 25 24 21 2 0.33476404D-02 0.11766433D+00 0.14188719D+05 0.14188719D+05 0.14188719D+05 0.12505849D+01  1  2 12  2  5  2        2 0.116727992776D+01 0.100000000000D+01
-.564361418362D-03 0.000000000000D+00 0.000000000000D+00 0.298931846609D-02 0.000000000000D+00  5 -1 2 25 24 21 2 0.33476404D-02 0.86300133D-01 0.12159490D+05 0.12159490D+05 0.12159490D+05 0.12583526D+01  1  2  4  2  5  2        2 -.165045464232D+01 0.100000000000D+01
-.671578406289D-03 0.000000000000D+00 -.674518555313D-04 0.298931846609D-02 0.000000000000D+00  5 -1 2 25 24 21 2 0.33476404D-02 0.11810415D+00 0.12159490D+05 0.12159490D+05 0.12159490D+05 0.12583526D+01  1  2  5  2  5  2        2 -.136604894109D+01 0.100000000000D+01
0.663029628892D-03 0.000000000000D+00 0.642631154645D-04 0.298931846609D-02 0.000000000000D+00  5 -1 2 25 24 21 2 0.33476404D-02 0.86300133D-01 0.12159490D+05 0.12159490D+05 0.12159490D+05 0.12583526D+01  1  2  6  2  5  2        2 0.193900627044D+01 0.100000000000D+01
0.227687291284D-04 0.000000000000D+00 0.000000000000D+00 0.298931846609D-02 0.000000000000D+00  5 -1 21 25 24 -2 2 0.33476404D-02 0.11766433D+00 0.14188719D+05 0.14188719D+05 0.14188719D+05 0.12505849D+01  1  2 12  4  5  2        2 0.559853421492D-01 0.100000000000D+01
-.251921770544D-04 0.000000000000D+00 -.269297904299D-05 0.298931846609D-02 0.000000000000D+00  5 -1 21 25 24 -2 2 0.33476404D-02 0.11810415D+00 0.12159490D+05 0.12159490D+05 0.12159490D+05 0.12583526D+01  1  2  5  4  5  2        2 -.621774115988D-01 0.100000000000D+01
  </mgrwgt>
  </event>
  <event>
  4     66 0.45252658E-03 0.23220680E+03 0.75467711E-02 0.10286124E+00
       -1 -1    0    0    0  501 0.00000000E+00 0.00000000E+00 0.20329696E+03 0.20329722E+03 0.32000000E+00 0.0000E+00 0.9000E+01
        2 -1    0    0  501    0 0.00000000E+00 0.00000000E+00 -.27631883E+03 0.27631901E+03 0.32000000E+00 0.0000E+00 0.9000E+01
       25  1    1    2    0    0 -.11689670E+03 -.17119072E+03 0.10005196E+02 0.24227300E+03 0.12500000E+03 0.0000E+00 0.9000E+01
       24  1    1    2    0    0 0.11689670E+03 0.17119072E+03 -.83027061E+02 0.23734323E+03 0.80419002E+02 0.0000E+00 0.9000E+01
#aMCatNLO 1  0  0  2  2 0.32738220D+03 0.00000000D+00  -5  5  0 0.00000000D+00 0.00000000D+00 0.00000000D+00 0.00000000D+00 0.00000000D+00
  <mgrwgt>
 0.5738400055D+00    3    2    0
 0.237012413252650D+03 0.000000000000000D+00 0.000000000000000D+00 0.237012413252650D+03
 0.237012413252650D+03 0.000000000000000D+00 0.000000000000000D+00 -.237012413252650D+03
 0.246672017068282D+03 -.116896697925255D+03 -.171190722637604D+03 0.474445202475651D+02
 0.227352809437019D+03 0.116896697925255D+03 0.171190722637604D+03 -.474445202475651D+02
 0.000000000000000D+00 -.000000000000000D+00 -.000000000000000D+00 0.000000000000000D+00
 0.666320866132649D+03 0.000000000000000D+00 0.000000000000000D+00 0.666320866132649D+03
 0.358878414934348D+03 0.000000000000000D+00 0.000000000000000D+00 -.358878414934348D+03
 0.173511709531900D+03 -.102724431787837D+03 -.409636663035297D+02 0.474445202475651D+02
 0.402577380198770D+03 0.138143447216921D+03 0.366424257634287D+03 -.474445202475651D+02
 0.449110191336327D+03 -.354190154290836D+02 -.325460591330758D+03 0.307442451198301D+03
0.436121786081D-02 0.000000000000D+00 0.000000000000D+00 0.200114990418D-02 0.000000000000D+00  5 -1 2 25 24 21 0 0.31276490D-01 0.42510623D-01 0.53919999D+05 0.53919999D+05 0.53919999D+05 0.11890490D+01  1  2  2  2  5  2        2 0.563773893742D+00 0.100000000000D+01
-.242166271442D-03 0.000000000000D+00 -.167482249206D-04 0.200114990418D-02 0.000000000000D+00  5 -1 2 25 24 21 2 0.31276490D-01 0.42510623D-01 0.53919999D+05 0.53919999D+05 0.53919999D+05 0.11890490D+01  1  2  3  2  5  2        2 -.442598875139D-01 0.100000000000D+01
0.297242614321D-03 0.000000000000D+00 0.000000000000D+00 0.200114990418D-02 0.000000000000D+00  5 -1 2 25 24 21 2 0.31276490D-01 0.42510623D-01 0.53919999D+05 0.53919999D+05 0.53919999D+05 0.11890490D+01  1  2 15  2  5  2        2 0.543259992231D-01 0.100000000000D+01
  </mgrwgt>
  </event>
  <event>
  4     66 0.45252658E-03 0.14475802E+03 0.75467711E-02 0.10101817E+00
       -1 -1    0    0    0  501 0.00000000E+00 0.00000000E+00 0.52160280E+02 0.52161262E+02 0.32000000E+00 0.0000E+00 0.9000E+01
        2 -1    0    0  501    0 0.00000000E+00 0.00000000E+00 -.40186471E+03 0.40186484E+03 0.32000000E+00 0.0000E+00 0.9000E+01
       25  1    1    2    0    0 -.37687597E+02 -.93480252E+02 -.19799684E+03 0.25492482E+03 0.12500000E+03 0.0000E+00 0.9000E+01
       24  1    1    2    0    0 0.37687597E+02 0.93480252E+02 -.15170759E+03 0.19910128E+03 0.80419002E+02 0.0000E+00 0.9000E+01
#aMCatNLO 1  0  0  2  2 0.47326059D+03 0.00000000D+00  -5  5  0 0.00000000D+00 0.00000000D+00 0.00000000D+00 0.00000000D+00 0.00000000D+00
  <mgrwgt>
 0.5060070473D+00    3    2    0
 0.144781309417881D+03 0.000000000000000D+00 0.000000000000000D+00 0.144781309417881D+03
 0.144781309417881D+03 0.000000000000000D+00 0.000000000000000D+00 -.144781309417881D+03
 0.160594441793963D+03 -.376875973116244D+02 -.934802522124365D+02 -.258112190540022D+01
 0.128968177041800D+03 0.376875973116244D+02 0.934802522124365D+02 0.258112190540022D+01
 0.000000000000000D+00 0.000000000000000D+00 -.000000000000000D+00 0.000000000000000D+00
 0.857220626812604D+03 0.000000000000000D+00 0.000000000000000D+00 0.857220626812604D+03
 0.373981083104677D+03 0.000000000000000D+00 0.000000000000000D+00 -.373981083104677D+03
 0.168296278798090D+03 -.704351851002095D+02 0.879253090235867D+02 -.258112190540022D+01
 0.386520894181228D+03 -.136395534925818D+02 0.377807472232244D+03 0.258112190540022D+01
 0.676384536937963D+03 0.840747385927912D+02 -.465732781255831D+03 0.483239543707927D+03
0.667380512510D-03 0.000000000000D+00 0.000000000000D+00 0.245347347743D-02 0.000000000000D+00  5 -1 2 25 24 21 0 0.80247438D-02 0.61825425D-01 0.20954885D+05 0.20954885D+05 0.20954885D+05 0.12316023D+01  1  2  2  2  5  2        2 0.495910022410D+00 0.100000000000D+01
-.370766939730D-04 0.000000000000D+00 -.256291689336D-05 0.245347347743D-02 0.000000000000D+00  5 -1 2 25 24 21 2 0.80247438D-02 0.61825425D-01 0.20954885D+05 0.20954885D+05 0.20954885D+05 0.12316023D+01  1  2  3  2  5  2        2 -.417899036670D-01 0.100000000000D+01
0.460349414799D-04 0.000000000000D+00 0.000000000000D+00 0.245347347743D-02 0.000000000000D+00  5 -1 2 25 24 21 2 0.80247438D-02 0.61825425D-01 0.20954885D+05 0.20954885D+05 0.20954885D+05 0.12316023D+01  1  2 15  2  5  2        2 0.518869285153D-01 0.100000000000D+01
  </mgrwgt>
  </event>
  <event>
  4     66 0.45252658E-03 0.55645082E+02 0.75467711E-02 0.12338660E+00
       -1 -1    0    0    0  501 0.00000000E+00 0.00000000E+00 0.50694209E+01 0.50795106E+01 0.32000000E+00 0.0000E+00 0.9000E+01
        2 -1    0    0  501    0 0.00000000E+00 0.00000000E+00 -.22548293E+04 0.22548293E+04 0.32000000E+00 0.0000E+00 0.9000E+01
       25  1    1    2    0    0 -.18218474E+02 0.49460007E+01 -.11142897E+04 0.11214379E+04 0.12500000E+03 0.0000E+00 0.9000E+01
       24  1    1    2    0    0 0.18218474E+02 -.49460007E+01 -.11354701E+04 0.11384709E+04 0.80419002E+02 0.0000E+00 0.9000E+01
#aMCatNLO 1  0  0  1  2 0.38974192D+02 0.00000000D+00  -5  5  0 0.00000000D+00 0.00000000D+00 0.00000000D+00 0.00000000D+00 0.00000000D+00
  <mgrwgt>
 0.5550784570D+00    9    2    0
 0.106967776735966D+03 0.000000000000000D+00 0.000000000000000D+00 0.106967776735966D+03
 0.106967776735966D+03 0.000000000000000D+00 0.000000000000000D+00 -.106967776735966D+03
 0.128370914028970D+03 -.182184735415176D+02 0.494600072230476D+01 0.223095465508672D+02
 0.855646394429607D+02 0.182184735415176D+02 -.494600072230476D+01 -.223095465508672D+02
 0.000000000000000D+00 0.000000000000000D+00 -.000000000000000D+00 0.000000000000000D+00
 0.147135787300816D+03 0.000000000000000D+00 0.000000000000000D+00 0.147135787300816D+03
 0.118615666174676D+03 0.000000000000000D+00 0.000000000000000D+00 -.118615666174676D+03
 0.133017821071594D+03 -.308281996021654D+02 0.249127871708132D+02 0.223095465508672D+02
 0.844388611837438D+02 0.100172877810480D+02 0.804011205415574D+01 -.223095465508672D+02
 0.482947712201537D+02 0.208109118211174D+02 -.329528992249690D+02 0.285201211261401D+02
0.287314461716D-03 0.000000000000D+00 0.000000000000D+00 0.298785131129D-02 0.000000000000D+00  5 -1 2 25 24 21 0 0.78068879D-03 0.34689759D+00 0.10922601D+05 0.10922601D+05 0.10922601D+05 0.12638407D+01  1  2  2  1  5  1       -1 0.463917549892D+00 0.100000000000D+01
-.159514390601D-04 0.000000000000D+00 -.110336318462D-05 0.298785131129D-02 0.000000000000D+00  5 -1 2 25 24 21 2 0.78068879D-03 0.34689759D+00 0.10922601D+05 0.10922601D+05 0.10922601D+05 0.12638407D+01  1  2  3  1  5  1       -1 -.411403358788D-01 0.100000000000D+01
0.196708214615D-04 0.000000000000D+00 0.000000000000D+00 0.298785131129D-02 0.000000000000D+00  5 -1 2 25 24 21 2 0.78068879D-03 0.34689759D+00 0.10922601D+05 0.10922601D+05 0.10922601D+05 0.12638407D+01  1  2 15  1  5  1       -1 0.507329902266D-01 0.100000000000D+01
0.186322913131D-03 0.000000000000D+00 0.000000000000D+00 0.298785131129D-02 0.000000000000D+00  5 -1 2 25 24 21 2 0.11039553D-02 0.34689759D+00 0.15818868D+05 0.15818868D+05 0.15818868D+05 0.12451995D+01  1  2 12  1  5  1       -1 0.287273088684D+00 0.100000000000D+01
-.216418048552D-03 0.000000000000D+00 0.000000000000D+00 0.298785131129D-02 0.000000000000D+00  5 -1 2 25 24 21 2 0.78068879D-03 0.34689759D+00 0.10922601D+05 0.10922601D+05 0.10922601D+05 0.12638407D+01  1  2  4  1  5  1       -1 -.558163509518D+00 0.100000000000D+01
-.292507593558D-03 0.000000000000D+00 -.103198458721D-03 0.298785131129D-02 0.000000000000D+00  5 -1 2 25 24 21 2 0.12190415D-02 0.34689759D+00 0.10922601D+05 0.10922601D+05 0.10922601D+05 0.12638407D+01  1  2  5  1  5  1       -1 -.401453957451D+00 0.100000000000D+01
0.316053562837D-03 0.000000000000D+00 0.937355367261D-04 0.298785131129D-02 0.000000000000D+00  5 -1 2 25 24 21 2 0.78068879D-03 0.34689759D+00 0.10922601D+05 0.10922601D+05 0.10922601D+05 0.12638407D+01  1  2  6  1  5  1       -1 0.815133335731D+00 0.100000000000D+01
0.799040259351D-05 0.000000000000D+00 0.000000000000D+00 0.298785131129D-02 0.000000000000D+00  5 21 2 25 24 1 2 0.11039553D-02 0.34689759D+00 0.15818868D+05 0.15818868D+05 0.15818868D+05 0.12451995D+01  1  2 12  3  5  1       -1 0.282704424517D+00 0.100000000000D+01
-.110316856216D-04 0.000000000000D+00 -.532337733216D-05 0.298785131129D-02 0.000000000000D+00  5 21 2 25 24 1 2 0.12190415D-02 0.34689759D+00 0.10922601D+05 0.10922601D+05 0.10922601D+05 0.12638407D+01  1  2  5  3  5  1       -1 -.343925129160D+00 0.100000000000D+01
  </mgrwgt>
  </event>
  <event>
  4     66 0.45252658E-03 0.78632497E+02 0.75467711E-02 0.12325841E+00
       -3 -1    0    0    0  501 0.00000000E+00 0.00000000E+00 0.11084369E+03 0.11084481E+03 0.50000000E+00 0.0000E+00 0.9000E+01
        4 -1    0    0  501    0 0.00000000E+00 0.00000000E+00 -.18679118E+03 0.18679761E+03 0.15500000E+01 0.0000E+00 0.9000E+01
       25  1    1    2    0    0 -.44308968E+02 -.68762767E+01 0.49765225E+02 0.14181730E+03 0.12500000E+03 0.0000E+00 0.9000E+01
       24  1    1    2    0    0 0.44308968E+02 0.68762767E+01 -.12571272E+03 0.15582513E+03 0.80419002E+02 0.0000E+00 0.9000E+01
#aMCatNLO 1  0  0  1  2 0.26252331D+02 0.00000000D+00  -5  5  0 0.00000000D+00 0.00000000D+00 0.00000000D+00 0.00000000D+00 0.00000000D+00
  <mgrwgt>
 0.3192363280D-01    9    2    0
 0.143894920941941D+03 0.000000000000000D+00 0.000000000000000D+00 0.143894920941941D+03
 0.143894920941941D+03 0.000000000000000D+00 0.000000000000000D+00 -.143894920941941D+03
 0.159805461747833D+03 -.443089678469710D+02 -.687627673057864D+01 0.888944193473291D+02
 0.127984380136049D+03 0.443089678469710D+02 0.687627673057864D+01 -.888944193473291D+02
 0.000000000000000D+00 -.000000000000000D+00 0.000000000000000D+00 0.000000000000000D+00
 0.201729691579606D+03 0.000000000000000D+00 0.000000000000000D+00 0.201729691579606D+03
 0.147502575941077D+03 0.000000000000000D+00 0.000000000000000D+00 -.147502575941077D+03
 0.157095246496754D+03 -.313019077877797D+02 -.131106540501335D+02 0.888944193473291D+02
 0.131889490125213D+03 0.549753846468156D+02 0.176378653869396D+01 -.888944193473291D+02
 0.602475308987162D+02 -.236734768590358D+02 0.113468675114395D+02 0.542271156385281D+02
0.413566363616D-03 0.000000000000D+00 0.000000000000D+00 0.161072740371D-02 0.000000000000D+00  5 -3 4 25 24 21 0 0.17053456D-01 0.28737686D-01 0.12642063D+05 0.12642063D+05 0.12642063D+05 0.12563797D+01  1  2  2  1  5  1       -3 0.267875554657D-01 0.100000000000D+01
-.212758640342D-04 0.000000000000D+00 -.158820373081D-05 0.161072740371D-02 0.000000000000D+00  5 -3 4 25 24 21 2 0.17053456D-01 0.28737686D-01 0.12642063D+05 0.12642063D+05 0.12642063D+05 0.12563797D+01  1  2  3  1  5  1       -3 -.217528881425D-02 0.100000000000D+01
0.282833371351D-04 0.000000000000D+00 0.000000000000D+00 0.161072740371D-02 0.000000000000D+00  5 -3 4 25 24 21 2 0.17053456D-01 0.28737686D-01 0.12642063D+05 0.12642063D+05 0.12642063D+05 0.12563797D+01  1  2 15  1  5  1       -3 0.289174751262D-02 0.100000000000D+01
0.124757920773D-02 0.000000000000D+00 0.000000000000D+00 0.161072740371D-02 0.000000000000D+00  5 -3 4 25 24 21 2 0.24056285D-01 0.28737686D-01 0.16028485D+05 0.16028485D+05 0.16028485D+05 0.12445525D+01  1  2 12  1  5  1       -3 0.697958680404D-01 0.100000000000D+01
-.124625248125D-02 0.000000000000D+00 0.000000000000D+00 0.161072740371D-02 0.000000000000D+00  5 -3 4 25 24 21 2 0.17053456D-01 0.28737686D-01 0.12642063D+05 0.12642063D+05 0.12642063D+05 0.12563797D+01  1  2  4  1  5  1       -3 -.127419458869D+00 0.100000000000D+01
-.139729792323D-02 0.000000000000D+00 -.169266929315D-03 0.161072740371D-02 0.000000000000D+00  5 -3 4 25 24 21 2 0.24365777D-01 0.28737686D-01 0.12642063D+05 0.12642063D+05 0.12642063D+05 0.12563797D+01  1  2  5  1  5  1       -3 -.763065953556D-01 0.100000000000D+01
0.137919080350D-02 0.000000000000D+00 0.159034491510D-03 0.161072740371D-02 0.000000000000D+00  5 -3 4 25 24 21 2 0.17053456D-01 0.28737686D-01 0.12642063D+05 0.12642063D+05 0.12642063D+05 0.12563797D+01  1  2  6  1  5  1       -3 0.141011350832D+00 0.100000000000D+01
0.532307020654D-04 0.000000000000D+00 0.000000000000D+00 0.161072740371D-02 0.000000000000D+00  5 21 4 25 24 3 2 0.24056285D-01 0.28737686D-01 0.16028485D+05 0.16028485D+05 0.16028485D+05 0.12445525D+01  1  2 12  3  5  1       -3 0.633887663629D-01 0.100000000000D+01
-.562862212090D-04 0.000000000000D+00 -.741480621588D-05 0.161072740371D-02 0.000000000000D+00  5 21 4 25 24 3 2 0.24365777D-01 0.28737686D-01 0.12642063D+05 0.12642063D+05 0.12642063D+05 0.12563797D+01  1  2  5  3  5  1       -3 -.660503123707D-01 0.100000000000D+01
  </mgrwgt>
  </event>
  <event>
  4     66 0.45252658E-03 0.10327505E+03 0.75467711E-02 0.12723825E+00
       -3 -1    0    0    0  501 0.00000000E+00 0.00000000E+00 0.52480840E+03 0.52480864E+03 0.50000000E+00 0.0000E+00 0.9000E+01
        4 -1    0    0  501    0 0.00000000E+00 0.00000000E+00 -.28655526E+02 0.28697415E+02 0.15500000E+01 0.0000E+00 0.9000E+01
       25  1    1    2    0    0 0.83142823E+01 -.64761103E+01 0.43273162E+03 0.45054714E+03 0.12500000E+03 0.0000E+00 0.9000E+01
       24  1    1    2    0    0 -.83142823E+01 0.64761103E+01 0.63421256E+02 0.10295892E+03 0.80419002E+02 0.0000E+00 0.9000E+01
#aMCatNLO 1  0  0  1  2 0.11593752D+01 0.00000000D+00  -5  5  0 0.00000000D+00 0.00000000D+00 0.00000000D+00 0.00000000D+00 0.00000000D+00
  <mgrwgt>
 0.9886955870D-01    6    2    0
 0.122679742563360D+03 0.000000000000000D+00 0.000000000000000D+00 0.122679742563360D+03
 0.122679742563360D+03 0.000000000000000D+00 0.000000000000000D+00 -.122679742563360D+03
 0.141341715302869D+03 0.831428228727383D+01 -.647611026335450D+01 0.651261329318859D+02
 0.104017769823852D+03 -.831428228727383D+01 0.647611026335450D+01 -.651261329318859D+02
 0.000000000000000D+00 0.000000000000000D+00 -.000000000000000D+00 -.000000000000000D+00
 0.122901789804818D+03 0.000000000000000D+00 0.000000000000000D+00 0.122901789804818D+03
 0.124203865731814D+03 0.000000000000000D+00 0.000000000000000D+00 -.124203865731814D+03
 0.141299385623768D+03 0.765619092343442D+01 -.636285529746027D+01 0.651261329318859D+02
 0.104062838633666D+03 -.879876968475212D+01 0.655948866138949D+01 -.651261329318859D+02
 0.174343127919805D+01 0.114257876131770D+01 -.196633363929221D+00 -.130207592699570D+01
0.921716457764D-03 0.000000000000D+00 0.000000000000D+00 0.206359296129D-02 0.000000000000D+00  5 -3 4 25 24 21 0 0.80742995D-01 0.44117830D-02 0.10665736D+05 0.10665736D+05 0.10665736D+05 0.12650682D+01  1  2  2  1  5  1       -3 0.733870623411D-01 0.100000000000D+01
-.493606940702D-04 0.000000000000D+00 -.353963389133D-05 0.206359296129D-02 0.000000000000D+00  5 -3 4 25 24 21 2 0.80742995D-01 0.44117830D-02 0.10665736D+05 0.10665736D+05 0.10665736D+05 0.12650682D+01  1  2  3  1  5  1       -3 -.628971971662D-02 0.100000000000D+01
0.630384710742D-04 0.000000000000D+00 0.000000000000D+00 0.206359296129D-02 0.000000000000D+00  5 -3 4 25 24 21 2 0.80742995D-01 0.44117830D-02 0.10665736D+05 0.10665736D+05 0.10665736D+05 0.12650682D+01  1  2 15  1  5  1       -3 0.803259196189D-02 0.100000000000D+01
-.183172321368D-02 0.000000000000D+00 0.000000000000D+00 0.206359296129D-02 0.000000000000D+00  5 -3 4 25 24 21 2 0.80742995D-01 0.44117830D-02 0.10665736D+05 0.10665736D+05 0.10665736D+05 0.12650682D+01  1  2  4  1  5  1       -3 -.233404854399D+00 0.100000000000D+01
0.183188584777D-02 0.000000000000D+00 0.000000000000D+00 0.206359296129D-02 0.130930612588D-01  5 -3 4 25 24 21 2 0.80889138D-01 0.44665932D-02 0.10786855D+05 0.10786855D+05 0.10786855D+05 0.12644853D+01  1  2 11  1  5  1       -3 0.228046227920D+00 0.100000000000D+01
0.117508237666D-04 0.000000000000D+00 0.000000000000D+00 0.206359296129D-02 0.445744547966D-05  5 21 4 25 24 3 2 0.80889138D-01 0.44665932D-02 0.10786855D+05 0.10786855D+05 0.10786855D+05 0.12644853D+01  1  2 11  3  5  1       -3 0.290982505913D-01 0.100000000000D+01
  </mgrwgt>
  </event>
  <event>
  5     66 0.45252658E-03 0.10735554E+03 0.75467711E-02 0.11113083E+00
       21 -1    0    0  502  501 0.00000000E+00 0.00000000E+00 0.30965876E+03 0.30965967E+03 0.75000000E+00 0.0000E+00 0.9000E+01
        2 -1    0    0  501    0 0.00000000E+00 0.00000000E+00 -.97638486E+03 0.97638491E+03 0.32000000E+00 0.0000E+00 0.9000E+01
       25  1    1    2    0    0 0.27396488E+02 0.12342434E+03 -.51233216E+03 0.54230377E+03 0.12500000E+03 0.0000E+00 0.9000E+01
       24  1    1    2    0    0 -.32697403E+02 0.84170868E+02 -.40245737E+03 0.42022971E+03 0.80419002E+02 0.0000E+00 0.9000E+01
        1  1    1    2  502    0 0.53009151E+01 -.20759521E+03 0.24806343E+03 0.32351111E+03 0.32000000E+00 0.0000E+00 0.9000E+01
#aMCatNLO 2  0  0  1  1 0.20766287D+03 0.00000000D+00  -5  5  0 0.00000000D+00 0.00000000D+00 0.00000000D+00 0.00000000D+00 0.00000000D+00
  <mgrwgt>
 0.2179701628D+00    1    2    0
 0.107827333615447D+03 0.000000000000000D+00 0.000000000000000D+00 0.107827333615447D+03
 0.107827333615447D+03 0.000000000000000D+00 0.000000000000000D+00 -.107827333615447D+03
 0.129059853558604D+03 0.305574855374966D+02 -.367095792609458D+00 0.987679699462380D+01
 0.865948136722911D+02 -.305574855374966D+02 0.367095792609458D+00 -.987679699462380D+01
 0.000000000000000D+00 0.000000000000000D+00 -.000000000000000D+00 0.000000000000000D+00
 0.194175468442460D+04 0.000000000000000D+00 0.000000000000000D+00 0.194175468442460D+04
 0.155707975384027D+03 0.000000000000000D+00 0.000000000000000D+00 -.155707975384027D+03
 0.178063712436491D+03 0.273964882978990D+02 0.123424337133061D+03 0.987679699462380D+01
 0.121320329525399D+03 -.326974033636947D+02 0.841708684532819D+02 -.987679699462380D+01
 0.179807861784673D+04 0.530091506579571D+01 -.207595205586343D+03 0.178604670904057D+04
0.110567050927D-02 0.000000000000D+00 0.000000000000D+00 0.305220305771D-02 0.221415675415D-05  5 21 2 25 24 1 2 0.47639879D-01 0.15021312D+00 0.64102663D+05 0.64102663D+05 0.64102663D+05 0.11817408D+01  1  2  1  3  5  1       -1 0.217970162828D+00 0.100000000000D+01
  </mgrwgt>
  </event>
  <event>
  4     66 0.45252658E-03 0.17582895E+03 0.75467711E-02 0.11568810E+00
       -1 -1    0    0    0  501 0.00000000E+00 0.00000000E+00 0.24103214E+02 0.24105338E+02 0.32000000E+00 0.0000E+00 0.9000E+01
        2 -1    0    0  501    0 0.00000000E+00 0.00000000E+00 -.14636187E+04 0.14636188E+04 0.32000000E+00 0.0000E+00 0.9000E+01
       25  1    1    2    0    0 -.13817568E+03 -.30769076E+02 -.50548282E+03 0.53960832E+03 0.12500000E+03 0.0000E+00 0.9000E+01
       24  1    1    2    0    0 0.13817568E+03 0.30769076E+02 -.93403270E+03 0.94811579E+03 0.80419002E+02 0.0000E+00 0.9000E+01
#aMCatNLO 1  0  0  1  1 0.30434646D+02 0.00000000D+00  -5  5  0 0.00000000D+00 0.00000000D+00 0.00000000D+00 0.00000000D+00 0.00000000D+00
  <mgrwgt>
 0.3243553767D+00    4    2    0
 0.187828437208206D+03 0.000000000000000D+00 0.000000000000000D+00 0.187828437208206D+03
 0.187828437208206D+03 0.000000000000000D+00 0.000000000000000D+00 -.187828437208206D+03
 0.200017464841277D+03 -.138175675723715D+03 -.307690755551930D+02 0.658994147872730D+02
 0.175639409575135D+03 0.138175675723715D+03 0.307690755551930D+02 -.658994147872730D+02
 0.000000000000000D+00 -.000000000000000D+00 -.000000000000000D+00 -.000000000000000D+00
 0.193649439164500D+03 0.000000000000000D+00 0.000000000000000D+00 0.193649439164500D+03
 0.232928240127947D+03 0.000000000000000D+00 0.000000000000000D+00 -.232928240127947D+03
 0.189220843721516D+03 -.123018030466503D+03 -.265209164532381D+02 0.658994147872730D+02
 0.187666878222876D+03 0.152323481088736D+03 0.347342117695736D+02 -.658994147872730D+02
 0.496899573480553D+02 -.293054506222330D+02 -.821329531633551D+01 -.392788009634470D+02
0.842494306014D-03 0.000000000000D+00 0.000000000000D+00 0.194711777934D-02 0.000000000000D+00  5 -1 2 25 24 21 0 0.37083529D-02 0.22517228D+00 0.30915818D+05 0.30915818D+05 0.30915818D+05 0.12135301D+01  1  2  2  1  5  1       -1 0.374211260041D+00 0.100000000000D+01
-.465572160919D-04 0.000000000000D+00 -.323539996894D-05 0.194711777934D-02 0.000000000000D+00  5 -1 2 25 24 21 2 0.37083529D-02 0.22517228D+00 0.30915818D+05 0.30915818D+05 0.30915818D+05 0.12135301D+01  1  2  3  1  5  1       -1 -.304535563800D-01 0.100000000000D+01
0.579187483029D-04 0.000000000000D+00 0.000000000000D+00 0.194711777934D-02 0.000000000000D+00  5 -1 2 25 24 21 2 0.37083529D-02 0.22517228D+00 0.30915818D+05 0.30915818D+05 0.30915818D+05 0.12135301D+01  1  2 15  1  5  1       -1 0.378852520611D-01 0.100000000000D+01
-.875809105782D-04 0.000000000000D+00 0.000000000000D+00 0.194711777934D-02 0.000000000000D+00  5 -1 2 25 24 21 2 0.37083529D-02 0.22517228D+00 0.30915818D+05 0.30915818D+05 0.30915818D+05 0.12135301D+01  1  2  4  1  5  1       -1 -.572875790692D-01 0.100000000000D+01
  </mgrwgt>
  </event>
  <event>
  4     66 0.45252658E-03 0.10760919E+03 0.75467711E-02 0.12448299E+00
       -1 -1    0    0    0  501 0.00000000E+00 0.00000000E+00 0.13372039E+03 0.13372077E+03 0.32000000E+00 0.0000E+00 0.9000E+01
        2 -1    0    0  501    0 0.00000000E+00 0.00000000E+00 -.88546417E+02 0.88546995E+02 0.32000000E+00 0.0000E+00 0.9000E+01
       25  1    1    2    0    0 -.11874050E+02 -.29073806E+02 0.43130472E+02 0.13590996E+03 0.12500000E+03 0.0000E+00 0.9000E+01
       24  1    1    2    0    0 0.11874050E+02 0.29073806E+02 0.20435005E+01 0.86357809E+02 0.80419002E+02 0.0000E+00 0.9000E+01
#aMCatNLO 1  0  0  2  1 0.21631220D+02 0.00000000D+00  -5  5  0 0.00000000D+00 0.00000000D+00 0.00000000D+00 0.00000000D+00 0.00000000D+00
  <mgrwgt>
 0.2650487093D+00    4    2    0
 0.108814374699192D+03 0.000000000000000D+00 0.000000000000000D+00 0.108814374699192D+03
 0.108814374699192D+03 0.000000000000000D+00 0.000000000000000D+00 -.108814374699192D+03
 0.129854297207007D+03 -.118740504768159D+02 -.290738057719234D+02 0.158385367485856D+02
 0.877744521913770D+02 0.118740504768159D+02 0.290738057719234D+02 -.158385367485856D+02
 0.000000000000000D+00 -.000000000000000D+00 0.000000000000000D+00 0.000000000000000D+00
 0.176035419192456D+03 0.000000000000000D+00 0.000000000000000D+00 0.176035419192456D+03
 0.111104745319619D+03 0.000000000000000D+00 0.000000000000000D+00 -.111104745319619D+03
 0.132842887107651D+03 -.763776958421634D+01 -.413888618415427D+02 0.158385367485856D+02
 0.858582382548786D+02 0.146740684929476D+02 0.209340294589682D+02 -.158385367485856D+02
 0.684390391495453D+02 -.703629890873126D+01 0.204548323825745D+02 0.649306738728374D+02
0.313203890269D-03 0.000000000000D+00 0.000000000000D+00 0.299093052400D-02 0.000000000000D+00  5 -1 2 25 24 21 0 0.20572441D-01 0.13622600D-01 0.11579738D+05 0.11579738D+05 0.11579738D+05 0.12608427D+01  1  2  2  2  5  2        2 0.278432435780D+00 0.100000000000D+01
-.173975918862D-04 0.000000000000D+00 -.120278540711D-05 0.299093052400D-02 0.000000000000D+00  5 -1 2 25 24 21 2 0.20572441D-01 0.13622600D-01 0.11579738D+05 0.11579738D+05 0.11579738D+05 0.12608427D+01  1  2  3  2  5  2        2 -.245868919866D-01 0.100000000000D+01
0.216758488551D-04 0.000000000000D+00 0.000000000000D+00 0.299093052400D-02 0.000000000000D+00  5 -1 2 25 24 21 2 0.20572441D-01 0.13622600D-01 0.11579738D+05 0.11579738D+05 0.11579738D+05 0.12608427D+01  1  2 15  2  5  2        2 0.306330760030D-01 0.100000000000D+01
-.137485313001D-04 0.000000000000D+00 0.000000000000D+00 0.299093052400D-02 0.000000000000D+00  5 -1 2 25 24 21 2 0.20572441D-01 0.13622600D-01 0.11579738D+05 0.11579738D+05 0.11579738D+05 0.12608427D+01  1  2  4  2  5  2        2 -.194299105452D-01 0.100000000000D+01
  </mgrwgt>
  </event>
  <event>
  5     66 0.45252658E-03 0.13653854E+03 0.75467711E-02 0.11731430E+00
       -1 -1    0    0    0  501 0.00000000E+00 0.00000000E+00 0.71783890E+02 0.71784604E+02 0.32000000E+00 0.0000E+00 0.9000E+01
        2 -1    0    0  502    0 0.00000000E+00 0.00000000E+00 -.31261869E+04 0.31261869E+04 0.32000000E+00 0.0000E+00 0.9000E+01
       25  1    1    2    0    0 0.11702990E+03 -.43815182E+02 -.34600410E+03 0.38853521E+03 0.12500000E+03 0.0000E+00 0.9000E+01
       24  1    1    2    0    0 -.63417916E+02 -.12059919E+01 -.23174971E+01 0.10244937E+03 0.80419002E+02 0.0000E+00 0.9000E+01
       21  1    1    2  502  501 -.53611988E+02 0.45021174E+02 -.27060814E+04 0.27069869E+04 0.75000000E+00 0.0000E+00 0.9000E+01
#aMCatNLO 2  0  0  2  1 0.70008224D+02 0.00000000D+00  -5  5  0 0.00000000D+00 0.00000000D+00 0.00000000D+00 0.00000000D+00 0.00000000D+00
  <mgrwgt>
 0.2266581633D+00    2    2    0
 0.169437869586441D+03 0.000000000000000D+00 0.000000000000000D+00 0.169437869586441D+03
 0.169437869586441D+03 0.000000000000000D+00 0.000000000000000D+00 -.169437869586441D+03
 0.182949878542853D+03 0.868192687440231D+02 -.184455154442509D+02 -.998390484409468D+02
 0.155925860630029D+03 -.868192687440231D+02 0.184455154442509D+02 0.998390484409468D+02
 0.000000000000000D+00 -.000000000000000D+00 0.000000000000000D+00 -.000000000000000D+00
 0.174113904795541D+03 0.000000000000000D+00 0.000000000000000D+00 0.174113904795541D+03
 0.128887294056771D+04 0.000000000000000D+00 0.000000000000000D+00 -.128887294056771D+04
 0.202999025343679D+03 0.117029904280563D+03 -.438151823112964D+02 -.998390484409468D+02
 0.143032646670021D+03 -.634179158352840D+02 -.120599194674111D+01 0.998390484409468D+02
 0.111695517334955D+04 -.536119884452790D+02 0.450211742580375D+02 -.111475903577217D+04
-.151157637914D-01 0.000000000000D+00 0.000000000000D+00 0.154399386909D-02 0.000000000000D+00  5 -1 2 25 24 21 2 0.10747131D-01 0.47255878D+00 0.30482010D+05 0.30482010D+05 0.30482010D+05 0.12141725D+01  1  2 13  2  5  2        2 -.273402068880D+00 0.100000000000D+01
0.310724851978D-01 0.000000000000D+00 0.000000000000D+00 0.154399386909D-02 0.112042315575D-04  5 -1 2 25 24 21 2 0.11043724D-01 0.48095154D+00 0.30482010D+05 0.30482010D+05 0.30482010D+05 0.12141725D+01  1  2  1  2  5  2        2 0.500060232134D+00 0.100000000000D+01
  </mgrwgt>
  </event>
  <event>
  4     66 0.45252658E-03 0.54956337E+02 0.75467711E-02 0.12496725E+00
       -1 -1    0    0    0  501 0.00000000E+00 0.00000000E+00 0.15413258E+02 0.15416579E+02 0.32000000E+00 0.0000E+00 0.9000E+01
        2 -1    0    0  501    0 0.00000000E+00 0.00000000E+00 -.84006803E+03 0.84006810E+03 0.32000000E+00 0.0000E+00 0.9000E+01
       25  1    1    2    0    0 -.17775690E+02 -.90850486E+00 -.31748307E+03 0.34166841E+03 0.12500000E+03 0.0000E+00 0.9000E+01
       24  1    1    2    0    0 0.17775690E+02 0.90850486E+00 -.50717171E+03 0.51381627E+03 0.80419002E+02 0.0000E+00 0.9000E+01
#aMCatNLO 1  0  0  2  1 0.22276214D+02 0.00000000D+00  -5  5  0 0.00000000D+00 0.00000000D+00 0.00000000D+00 0.00000000D+00 0.00000000D+00
  <mgrwgt>
 0.2334085009D+00    7    2    0
 0.113796449151926D+03 0.000000000000000D+00 0.000000000000000D+00 0.113796449151926D+03
 0.113796449151926D+03 0.000000000000000D+00 0.000000000000000D+00 -.113796449151926D+03
 0.133915231666403D+03 -.177756903484301D+02 -.908504860486195D+00 0.446260991329238D+02
 0.936776666374482D+02 0.177756903484301D+02 0.908504860486195D+00 -.446260991329238D+02
 0.000000000000000D+00 -.000000000000000D+00 -.000000000000000D+00 -.000000000000000D+00
 0.114864508175851D+03 0.000000000000000D+00 0.000000000000000D+00 0.114864508175851D+03
 0.350967545721620D+03 0.000000000000000D+00 0.000000000000000D+00 -.350967545721620D+03
 0.133018553088186D+03 -.660918676407598D+01 0.581079961542560D+01 0.446260991329238D+02
 0.956619162738872D+02 0.256962356371552D+02 0.567459435377779D+01 -.446260991329238D+02
 0.237151584535397D+03 -.190870488730792D+02 -.114853939692034D+02 -.236103037545768D+03
0.125958120887D-03 0.000000000000D+00 0.000000000000D+00 0.253415063689D-02 0.000000000000D+00  5 -1 2 25 24 21 0 0.23715306D-02 0.12924150D+00 0.10881200D+05 0.10881200D+05 0.10881200D+05 0.12640363D+01  1  2  2  2  5  2        2 0.237219786358D+00 0.100000000000D+01
-.693325239353D-05 0.000000000000D+00 -.483712349740D-06 0.253415063689D-02 0.000000000000D+00  5 -1 2 25 24 21 2 0.23715306D-02 0.12924150D+00 0.10881200D+05 0.10881200D+05 0.10881200D+05 0.12640363D+01  1  2  3  2  5  2        2 -.208631961365D-01 0.100000000000D+01
0.860521327089D-05 0.000000000000D+00 0.000000000000D+00 0.253415063689D-02 0.000000000000D+00  5 -1 2 25 24 21 2 0.23715306D-02 0.12924150D+00 0.10881200D+05 0.10881200D+05 0.10881200D+05 0.12640363D+01  1  2 15  2  5  2        2 0.258943771374D-01 0.100000000000D+01
0.319931824121D-02 0.000000000000D+00 0.000000000000D+00 0.253415063689D-02 0.000000000000D+00  5 -1 2 25 24 21 2 0.23715306D-02 0.39762308D+00 0.13479292D+05 0.13479292D+05 0.13479292D+05 0.12531499D+01  1  2 12  2  5  2        2 0.111957941091D+01 0.100000000000D+01
-.320137203016D-02 0.000000000000D+00 -.440163778390D-04 0.253415063689D-02 0.000000000000D+00  5 -1 2 25 24 21 2 0.23715306D-02 0.39917317D+00 0.10881200D+05 0.10881200D+05 0.10881200D+05 0.12640363D+01  1  2  5  2  5  2        2 -.112783997919D+01 0.100000000000D+01
0.411045873432D-03 0.000000000000D+00 0.000000000000D+00 0.253415063689D-02 0.000000000000D+00  5 -1 21 25 24 -2 2 0.23715306D-02 0.39762308D+00 0.13479292D+05 0.13479292D+05 0.13479292D+05 0.12531499D+01  1  2 12  4  5  2        2 0.303054019106D-01 0.100000000000D+01
-.410962331670D-03 0.000000000000D+00 -.567892082102D-05 0.253415063689D-02 0.000000000000D+00  5 -1 21 25 24 -2 2 0.23715306D-02 0.39917317D+00 0.10881200D+05 0.10881200D+05 0.10881200D+05 0.12640363D+01  1  2  5  4  5  2        2 -.308873000988D-01 0.100000000000D+01
  </mgrwgt>
  </event>
  <event>
  5     66 0.45252658E-03 0.10684482E+03 0.75467711E-02 0.12600143E+00
       -1 -1    0    0    0  502 0.00000000E+00 0.00000000E+00 0.18678021E+03 0.18678048E+03 0.32000000E+00 0.0000E+00 0.9000E+01
        2 -1    0    0  501    0 0.00000000E+00 0.00000000E+00 -.66922565E+02 0.66923330E+02 0.32000000E+00 0.0000E+00 0.9000E+01
       25  1    1    2    0    0 -.12171090E+02 0.30073846E+02 0.80454305E+02 0.15215277E+03 0.12500000E+03 0.0000E+00 0.9000E+01
       24  1    1    2    0    0 0.71782444E+01 -.25451142E+02 0.41650015E+02 0.94346317E+02 0.80419002E+02 0.0000E+00 0.9000E+01
       21  1    1    2  501  502 0.49928459E+01 -.46227043E+01 -.22466794E+01 0.72047188E+01 0.75000000E+00 0.0000E+00 0.9000E+01
#aMCatNLO 2  0  0  1  1 0.68042564D+01 0.00000000D+00  -5  5  0 0.00000000D+00 0.00000000D+00 0.00000000D+00 0.00000000D+00 0.00000000D+00
  <mgrwgt>
 0.1395447897D+00    2    2    0
 0.107011727454860D+03 0.000000000000000D+00 0.000000000000000D+00 0.107011727454860D+03
 0.107011727454860D+03 0.000000000000000D+00 0.000000000000000D+00 -.107011727454860D+03
 0.128406074278886D+03 -.916620168020379D+01 0.272917229284768D+02 0.585341934836198D+01
 0.856173806308347D+02 0.916620168020379D+01 -.272917229284768D+02 -.585341934836198D+01
 0.000000000000000D+00 0.000000000000000D+00 -.000000000000000D+00 -.000000000000000D+00
 0.108491347947530D+03 0.000000000000000D+00 0.000000000000000D+00 0.108491347947530D+03
 0.115185078561408D+03 0.000000000000000D+00 0.000000000000000D+00 -.115185078561408D+03
 0.129274259475185D+03 -.121710902381075D+02 0.300738458998094D+02 0.585341934836198D+01
 0.848573289377373D+02 0.717824436607108D+01 -.254511416213499D+02 -.585341934836198D+01
 0.954483809601644D+01 0.499284587203643D+01 -.462270427845952D+01 -.669373061387801D+01
-.468237289786D-05 0.000000000000D+00 0.000000000000D+00 0.309069164600D-02 0.000000000000D+00  5 -1 2 25 24 21 2 0.28339790D-01 0.95639965D-02 0.11415816D+05 0.11415816D+05 0.11415816D+05 0.12615723D+01  1  2  8  1  5  1       -1 -.601128311146D-02 0.100000000000D+01
0.127212479469D-03 0.000000000000D+00 0.000000000000D+00 0.309069164600D-02 0.565272726213D-03  5 -1 2 25 24 21 2 0.28731636D-01 0.10294476D-01 0.12166215D+05 0.12166215D+05 0.12166215D+05 0.12583245D+01  1  2  1  1  5  1       -1 0.145556072796D+00 0.100000000000D+01
  </mgrwgt>
  </event>
  <event>
  4     66 -.45252658E-03 0.40984475E+02 0.75467711E-02 0.12647642E+00
       -3 -1    0    0    0  501 0.00000000E+00 0.00000000E+00 0.18771141E+02 0.18777799E+02 0.50000000E+00 0.0000E+00 0.9000E+01
        4 -1    0    0  501    0 0.00000000E+00 0.00000000E+00 -.61330269E+03 0.61330465E+03 0.15500000E+01 0.0000E+00 0.9000E+01
       25  1    1    2    0    0 -.40944791E+01 0.29909065E+02 -.34579889E+03 0.36893521E+03 0.12500000E+03 0.0000E+00 0.9000E+01
       24  1    1    2    0    0 0.40944791E+01 -.29909065E+02 -.24873266E+03 0.26314724E+03 0.80419002E+02 0.0000E+00 0.9000E+01
#aMCatNLO 1  0  0  1  2 0.10369672D+01 0.00000000D+00  -5  5  0 0.00000000D+00 0.00000000D+00 0.00000000D+00 0.00000000D+00 0.00000000D+00
  <mgrwgt>
 -.2369255828D-01   11    2    0
 0.107308501118776D+03 0.000000000000000D+00 0.000000000000000D+00 0.107308501118776D+03
 0.107308501118776D+03 0.000000000000000D+00 0.000000000000000D+00 -.107308501118776D+03
 0.128643679483380D+03 -.409447908651275D+01 0.299090650479342D+02 0.358877973566123D+01
 0.859733227541723D+02 0.409447908651275D+01 -.299090650479342D+02 -.358877973566123D+01
 0.000000000000000D+00 -.000000000000000D+00 -.000000000000000D+00 0.000000000000000D+00
 0.109432910749122D+03 0.000000000000000D+00 0.000000000000000D+00 0.109432910749122D+03
 0.107436369491946D+03 0.000000000000000D+00 0.000000000000000D+00 -.107436369491946D+03
 0.128657798724094D+03 -.348822546200638D+01 0.300463328155799D+02 0.358877973566123D+01
 0.859617086612880D+02 0.449959232838534D+01 -.298173394266634D+02 -.358877973566123D+01
 0.224977285568653D+01 -.101136686637896D+01 -.228993388916448D+00 0.199654125717634D+01
0.784714170161D-04 0.000000000000D+00 0.000000000000D+00 0.308642765949D-02 0.000000000000D+00  5 -3 4 25 24 21 0 0.28885306D-02 0.94354923D-01 0.11501704D+05 0.11501704D+05 0.11501704D+05 0.12611885D+01  1  2  2  1  5  1       -3 0.771137393265D-02 0.100000000000D+01
-.435952136831D-05 0.000000000000D+00 -.301350903340D-06 0.308642765949D-02 0.000000000000D+00  5 -3 4 25 24 21 2 0.28885306D-02 0.94354923D-01 0.11501704D+05 0.11501704D+05 0.11501704D+05 0.12611885D+01  1  2  3  1  5  1       -3 -.681426647217D-03 0.100000000000D+01
0.542013354132D-05 0.000000000000D+00 0.000000000000D+00 0.308642765949D-02 0.000000000000D+00  5 -3 4 25 24 21 2 0.28885306D-02 0.94354923D-01 0.11501704D+05 0.11501704D+05 0.11501704D+05 0.12611885D+01  1  2 15  1  5  1       -3 0.847208469575D-03 0.100000000000D+01
0.325844641247D-08 0.000000000000D+00 0.000000000000D+00 0.308642765949D-02 0.000000000000D+00  5 -3 4 25 24 21 2 0.29474180D-02 0.94354923D-01 0.11613453D+05 0.11613453D+05 0.11613453D+05 0.12606941D+01  1  2 12  1  5  1       -3 0.493883412198D-06 0.100000000000D+01
-.408273022874D-02 0.000000000000D+00 0.000000000000D+00 0.308642765949D-02 0.000000000000D+00  5 -3 4 25 24 21 2 0.28885306D-02 0.94354923D-01 0.11501704D+05 0.11501704D+05 0.11501704D+05 0.12611885D+01  1  2  4  1  5  1       -3 -.638162067855D+00 0.100000000000D+01
-.706528914553D-02 0.000000000000D+00 -.447522005833D-03 0.308642765949D-02 0.000000000000D+00  5 -3 4 25 24 21 2 0.29490803D-02 0.94354923D-01 0.11501704D+05 0.11501704D+05 0.11501704D+05 0.12611885D+01  1  2  5  1  5  1       -3 -.106972932391D+01 0.100000000000D+01
0.707314736579D-02 0.000000000000D+00 0.447425722424D-03 0.308642765949D-02 0.000000000000D+00  5 -3 4 25 24 21 2 0.28885306D-02 0.94354923D-01 0.11501704D+05 0.11501704D+05 0.11501704D+05 0.12611885D+01  1  2  6  1  5  1       -3 0.110558721647D+01 0.100000000000D+01
0.408351489614D-02 0.000000000000D+00 0.000000000000D+00 0.308642765949D-02 0.243348154039D-01  5 -3 4 25 24 21 2 0.29457155D-02 0.94467356D-01 0.11613453D+05 0.11613453D+05 0.11613453D+05 0.12606941D+01  1  2 11  1  5  1       -3 0.617817462012D+00 0.100000000000D+01
0.190157873930D-09 0.000000000000D+00 0.000000000000D+00 0.308642765949D-02 0.000000000000D+00  5 21 4 25 24 3 2 0.29474180D-02 0.94354923D-01 0.11613453D+05 0.11613453D+05 0.11613453D+05 0.12606941D+01  1  2 12  3  5  1       -3 0.760324397162D-06 0.100000000000D+01
-.265763907389D-04 0.000000000000D+00 -.168783048027D-05 0.308642765949D-02 0.000000000000D+00  5 21 4 25 24 3 2 0.29490803D-02 0.94354923D-01 0.11501704D+05 0.11501704D+05 0.11501704D+05 0.12611885D+01  1  2  5  3  5  1       -3 -.106180812591D+00 0.100000000000D+01
0.148061279732D-04 0.000000000000D+00 0.000000000000D+00 0.308642765949D-02 0.869324132492D-04  5 21 4 25 24 3 2 0.29457155D-02 0.94467356D-01 0.11613453D+05 0.11613453D+05 0.11613453D+05 0.12606941D+01  1  2 11  3  5  1       -3 0.590965576356D-01 0.100000000000D+01
  </mgrwgt>
  </event>
  <event>
  4     66 0.45252658E-03 0.13818659E+03 0.75467711E-02 0.11945289E+00
       -1 -1    0    0    0  501 0.00000000E+00 0.00000000E+00 0.39582880E+02 0.39584173E+02 0.32000000E+00 0.0000E+00 0.9000E+01
        2 -1    0    0  501    0 0.00000000E+00 0.00000000E+00 -.54849974E+03 0.54849983E+03 0.32000000E+00 0.0000E+00 0.9000E+01
       25  1    1    2    0    0 -.55368721E+02 -.72513608E+02 -.38271099E+03 0.41281548E+03 0.12500000E+03 0.0000E+00 0.9000E+01
       24  1    1    2    0    0 0.55368721E+02 0.72513608E+02 -.12620587E+03 0.17526852E+03 0.80419002E+02 0.0000E+00 0.9000E+01
#aMCatNLO 1  0  0  2  2 0.31534894D+02 0.00000000D+00  -5  5  0 0.00000000D+00 0.00000000D+00 0.00000000D+00 0.00000000D+00 0.00000000D+00
  <mgrwgt>
 0.4384905664D+00    3    2    0
 0.147348590065477D+03 0.000000000000000D+00 0.000000000000000D+00 0.147348590065477D+03
 0.147348590065477D+03 0.000000000000000D+00 0.000000000000000D+00 -.147348590065477D+03
 0.162886207428426D+03 -.553687205952071D+02 -.725136081667912D+02 -.508232031723624D+02
 0.131810972702529D+03 0.553687205952071D+02 0.725136081667912D+02 0.508232031723624D+02
 0.000000000000000D+00 -.000000000000000D+00 -.000000000000000D+00 0.000000000000000D+00
 0.318181417113058D+03 0.000000000000000D+00 0.000000000000000D+00 0.318181417113058D+03
 0.149652306644214D+03 0.000000000000000D+00 0.000000000000000D+00 -.149652306644214D+03
 0.155807545694289D+03 -.546331246537221D+02 -.555267053331060D+02 -.508232031723624D+02
 0.140572071575662D+03 0.559974240446381D+02 0.870320738140151D+02 0.508232031723624D+02
 0.171454106487321D+03 -.136429939091599D+01 -.315053684809091D+02 0.168529110468844D+03
0.537942414965D-03 0.000000000000D+00 0.000000000000D+00 0.216796991165D-02 0.000000000000D+00  5 -1 2 25 24 21 0 0.60897805D-02 0.84384682D-01 0.19095535D+05 0.19095535D+05 0.19095535D+05 0.12360448D+01  1  2  2  2  5  2        2 0.429554713972D+00 0.100000000000D+01
-.297359407467D-04 0.000000000000D+00 -.206584051696D-05 0.216796991165D-02 0.000000000000D+00  5 -1 2 25 24 21 2 0.60897805D-02 0.84384682D-01 0.19095535D+05 0.19095535D+05 0.19095535D+05 0.12360448D+01  1  2  3  2  5  2        2 -.362771223714D-01 0.100000000000D+01
0.370605563897D-04 0.000000000000D+00 0.000000000000D+00 0.216796991165D-02 0.000000000000D+00  5 -1 2 25 24 21 2 0.60897805D-02 0.84384682D-01 0.19095535D+05 0.19095535D+05 0.19095535D+05 0.12360448D+01  1  2 15  2  5  2        2 0.452129747887D-01 0.100000000000D+01
  </mgrwgt>
  </event>
  <event>
  4     66 0.45252658E-03 0.11596440E+03 0.75467711E-02 0.11881397E+00
       -1 -1    0    0    0  501 0.00000000E+00 0.00000000E+00 0.54149085E+02 0.54150031E+02 0.32000000E+00 0.0000E+00 0.9000E+01
        2 -1    0    0  501    0 0.00000000E+00 0.00000000E+00 -.52741979E+03 0.52741989E+03 0.32000000E+00 0.0000E+00 0.9000E+01
       25  1    1    2    0    0 0.59673236E+02 0.88673598E+02 -.39188671E+03 0.42499894E+03 0.12500000E+03 0.0000E+00 0.9000E+01
       24  1    1    2    0    0 -.59673236E+02 -.88673598E+02 -.81383996E+02 0.15657098E+03 0.80419002E+02 0.0000E+00 0.9000E+01
#aMCatNLO 1  0  0  2  1 0.22249159D+02 0.00000000D+00  -5  5  0 0.00000000D+00 0.00000000D+00 0.00000000D+00 0.00000000D+00 0.00000000D+00
  <mgrwgt>
 0.6345799707D+00    9    2    0
 0.168995865071498D+03 0.000000000000000D+00 0.000000000000000D+00 0.168995865071498D+03
 0.168995865071498D+03 0.000000000000000D+00 0.000000000000000D+00 -.168995865071498D+03
 0.182543214353912D+03 0.596732356230452D+02 0.886735977077675D+02 -.792030499822823D+02
 0.155448515789083D+03 -.596732356230452D+02 -.886735977077675D+02 0.792030499822823D+02
 0.000000000000000D+00 -.000000000000000D+00 -.000000000000000D+00 -.000000000000000D+00
 0.178391376694032D+03 0.000000000000000D+00 0.000000000000000D+00 0.178391376694032D+03
 0.183067004768101D+03 0.000000000000000D+00 0.000000000000000D+00 -.183067004768101D+03
 0.187971138140299D+03 0.716006526229720D+02 0.911502725790103D+02 -.792030499822823D+02
 0.150752103918547D+03 -.498161748849028D+02 -.866268230679088D+02 0.792030499822823D+02
 0.227351394032880D+02 -.217844777380692D+02 -.452344951110156D+01 -.467562807406896D+01
0.563253209515D-03 0.000000000000D+00 0.000000000000D+00 0.181766718019D-02 0.000000000000D+00  5 -1 2 25 24 21 0 0.83307087D-02 0.81141587D-01 0.22234267D+05 0.22234267D+05 0.22234267D+05 0.12287945D+01  1  2  2  2  5  2        2 0.294592729913D+00 0.100000000000D+01
-.306956648359D-04 0.000000000000D+00 -.216304063251D-05 0.181766718019D-02 0.000000000000D+00  5 -1 2 25 24 21 2 0.83307087D-02 0.81141587D-01 0.22234267D+05 0.22234267D+05 0.22234267D+05 0.12287945D+01  1  2  3  2  5  2        2 -.242411903708D-01 0.100000000000D+01
0.386613865071D-04 0.000000000000D+00 0.000000000000D+00 0.181766718019D-02 0.000000000000D+00  5 -1 2 25 24 21 2 0.83307087D-02 0.81141587D-01 0.22234267D+05 0.22234267D+05 0.22234267D+05 0.12287945D+01  1  2 15  2  5  2        2 0.305319345688D-01 0.100000000000D+01
0.106444927857D-02 0.000000000000D+00 0.000000000000D+00 0.181766718019D-02 0.000000000000D+00  5 -1 2 25 24 21 2 0.83307087D-02 0.89996423D-01 0.25758438D+05 0.25758438D+05 0.25758438D+05 0.12219085D+01  1  2 12  2  5  2        2 0.742325261600D+00 0.100000000000D+01
-.944110233510D-03 0.000000000000D+00 0.000000000000D+00 0.181766718019D-02 0.000000000000D+00  5 -1 2 25 24 21 2 0.83307087D-02 0.81141587D-01 0.22234267D+05 0.22234267D+05 0.22234267D+05 0.12287945D+01  1  2  4  2  5  2        2 -.745589190651D+00 0.100000000000D+01
-.318170334984D-02 0.000000000000D+00 -.712489471791D-03 0.181766718019D-02 0.000000000000D+00  5 -1 2 25 24 21 2 0.83307087D-02 0.91833405D-01 0.22234267D+05 0.22234267D+05 0.22234267D+05 0.12287945D+01  1  2  5  2  5  2        2 -.218592872942D+01 0.100000000000D+01
0.325038687840D-02 0.000000000000D+00 0.707065856817D-03 0.181766718019D-02 0.000000000000D+00  5 -1 2 25 24 21 2 0.83307087D-02 0.81141587D-01 0.22234267D+05 0.22234267D+05 0.22234267D+05 0.12287945D+01  1  2  6  2  5  2        2 0.256691775595D+01 0.100000000000D+01
0.178203363984D-04 0.000000000000D+00 0.000000000000D+00 0.181766718019D-02 0.000000000000D+00  5 -1 21 25 24 -2 2 0.83307087D-02 0.89996423D-01 0.25758438D+05 0.25758438D+05 0.25758438D+05 0.12219085D+01  1  2 12  4  5  2        2 0.202611777318D-01 0.100000000000D+01
-.584715609626D-04 0.000000000000D+00 -.138749245912D-04 0.181766718019D-02 0.000000000000D+00  5 -1 21 25 24 -2 2 0.83307087D-02 0.91833405D-01 0.22234267D+05 0.22234267D+05 0.22234267D+05 0.12287945D+01  1  2  5  4  5  2        2 -.642897785708D-01 0.100000000000D+01
  </mgrwgt>
  </event>
  <event>
  4     66 0.45252658E-03 0.13642673E+03 0.75467711E-02 0.11762529E+00
       -1 -1    0    0    0  501 0.00000000E+00 0.00000000E+00 0.35588957E+02 0.35590395E+02 0.32000000E+00 0.0000E+00 0.9000E+01
        2 -1    0    0  501    0 0.00000000E+00 0.00000000E+00 -.75204113E+03 0.75204120E+03 0.32000000E+00 0.0000E+00 0.9000E+01
       25  1    1    2    0    0 0.87918370E+02 0.10868421E+02 -.17266436E+03 0.23083705E+03 0.12500000E+03 0.0000E+00 0.9000E+01
       24  1    1    2    0    0 -.87918370E+02 -.10868421E+02 -.54378781E+03 0.55679454E+03 0.80419002E+02 0.0000E+00 0.9000E+01
#aMCatNLO 1  0  0  2  1 0.65153979D+02 0.00000000D+00  -5  5  0 0.00000000D+00 0.00000000D+00 0.00000000D+00 0.00000000D+00 0.00000000D+00
  <mgrwgt>
 0.4745939626D+00    3    2    0
 0.163599977641245D+03 0.000000000000000D+00 0.000000000000000D+00 0.163599977641245D+03
 0.163599977641245D+03 0.000000000000000D+00 0.000000000000000D+00 -.163599977641245D+03
 0.177594148327673D+03 0.879183700679359D+02 0.108684208681663D+02 0.898160294861750D+02
 0.149605806954817D+03 -.879183700679359D+02 -.108684208681663D+02 -.898160294861750D+02
 0.000000000000000D+00 -.000000000000000D+00 -.000000000000000D+00 0.000000000000000D+00
 0.105428154740369D+04 0.000000000000000D+00 0.000000000000000D+00 0.105428154740369D+04
 0.168007735923551D+03 0.000000000000000D+00 0.000000000000000D+00 -.168007735923551D+03
 0.198720123534177D+03 0.124782109683330D+03 0.150729375953877D+02 0.898160294861750D+02
 0.134903694117998D+03 -.600478242239974D+02 -.768962844449430D+01 -.898160294861750D+02
 0.888665465675070D+03 -.647342854593327D+02 -.738330915089342D+01 0.886273811480144D+03
0.715420908170D-03 0.000000000000D+00 0.000000000000D+00 0.166819080994D-02 0.000000000000D+00  5 -1 2 25 24 21 0 0.54753400D-02 0.11569875D+00 0.18612251D+05 0.18612251D+05 0.18612251D+05 0.12372792D+01  1  2  2  2  5  2        2 0.463593260017D+00 0.100000000000D+01
-.381512786991D-04 0.000000000000D+00 -.274740466202D-05 0.166819080994D-02 0.000000000000D+00  5 -1 2 25 24 21 2 0.54753400D-02 0.11569875D+00 0.18612251D+05 0.18612251D+05 0.18612251D+05 0.12372792D+01  1  2  3  2  5  2        2 -.378460021174D-01 0.100000000000D+01
0.492407160500D-04 0.000000000000D+00 0.000000000000D+00 0.166819080994D-02 0.000000000000D+00  5 -1 2 25 24 21 2 0.54753400D-02 0.11569875D+00 0.18612251D+05 0.18612251D+05 0.18612251D+05 0.12372792D+01  1  2 15  2  5  2        2 0.488467046828D-01 0.100000000000D+01
  </mgrwgt>
  </event>
  <event>
  4     66 0.45252658E-03 0.10466325E+03 0.75467711E-02 0.10850599E+00
       -1 -1    0    0    0  501 0.00000000E+00 0.00000000E+00 0.63077520E+02 0.63078332E+02 0.32000000E+00 0.0000E+00 0.9000E+01
        2 -1    0    0  501    0 0.00000000E+00 0.00000000E+00 -.18636477E+03 0.18636504E+03 0.32000000E+00 0.0000E+00 0.9000E+01
       25  1    1    2    0    0 0.64526851E+01 -.18577928E+02 -.10553928E+03 0.16477353E+03 0.12500000E+03 0.0000E+00 0.9000E+01
       24  1    1    2    0    0 -.64526851E+01 0.18577928E+02 -.17747971E+02 0.84669847E+02 0.80419002E+02 0.0000E+00 0.9000E+01
#aMCatNLO 1  0  0  1  1 0.26381279D+03 0.00000000D+00  -5  5  0 0.00000000D+00 0.00000000D+00 0.00000000D+00 0.00000000D+00 0.00000000D+00
  <mgrwgt>
 0.5608969628D+00    3    2    0
 0.108423073873077D+03 0.000000000000000D+00 0.000000000000000D+00 0.108423073873077D+03
 0.108423073873077D+03 0.000000000000000D+00 0.000000000000000D+00 -.108423073873077D+03
 0.129538929840115D+03 0.645268505952682D+01 -.185779276358280D+02 -.277228751106862D+02
 0.873072179060399D+02 -.645268505952682D+01 0.185779276358280D+02 0.277228751106862D+02
 0.000000000000000D+00 -.000000000000000D+00 -.000000000000000D+00 -.000000000000000D+00
 0.209064622172399D+03 0.000000000000000D+00 0.000000000000000D+00 0.209064622172399D+03
 0.624839932163684D+03 0.000000000000000D+00 0.000000000000000D+00 -.624839932163684D+03
 0.188953332447738D+03 0.859154176586769D+02 0.109216963184470D+03 -.277228751106862D+02
 0.152542553487259D+03 0.533890144256788D+02 0.114817550941895D+03 0.277228751106862D+02
 0.492408668401086D+03 -.139304432084356D+03 -.224034514126365D+03 -.415775309991285D+03
0.446172599624D-03 0.000000000000D+00 0.000000000000D+00 0.288942446885D-02 0.000000000000D+00  5 -1 2 25 24 21 0 0.97043174D-02 0.28671586D-01 0.10954395D+05 0.10954395D+05 0.10954395D+05 0.12636910D+01  1  2  2  1  5  1       -1 0.549808886138D+00 0.100000000000D+01
-.247498272844D-04 0.000000000000D+00 -.171342026250D-05 0.288942446885D-02 0.000000000000D+00  5 -1 2 25 24 21 2 0.97043174D-02 0.28671586D-01 0.10954395D+05 0.10954395D+05 0.10954395D+05 0.12636910D+01  1  2  3  1  5  1       -1 -.487037956564D-01 0.100000000000D+01
0.303844596395D-04 0.000000000000D+00 0.000000000000D+00 0.288942446885D-02 0.000000000000D+00  5 -1 2 25 24 21 2 0.97043174D-02 0.28671586D-01 0.10954395D+05 0.10954395D+05 0.10954395D+05 0.12636910D+01  1  2 15  1  5  1       -1 0.597918723394D-01 0.100000000000D+01
  </mgrwgt>
  </event>
  <event>
  4     66 0.45252658E-03 0.12368679E+03 0.75467711E-02 0.11930435E+00
       -1 -1    0    0    0  501 0.00000000E+00 0.00000000E+00 0.13103493E+04 0.13103493E+04 0.32000000E+00 0.0000E+00 0.9000E+01
        2 -1    0    0  501    0 0.00000000E+00 0.00000000E+00 -.12127364E+02 0.12131585E+02 0.32000000E+00 0.0000E+00 0.9000E+01
       25  1    1    2    0    0 0.53870984E+02 0.41144290E+02 0.86921570E+03 0.88077005E+03 0.12500000E+03 0.0000E+00 0.9000E+01
       24  1    1    2    0    0 -.53870984E+02 -.41144290E+02 0.42900622E+03 0.44171086E+03 0.80419002E+02 0.0000E+00 0.9000E+01
#aMCatNLO 1  0  0  1  1 0.58195260D+02 0.00000000D+00  -5  5  0 0.00000000D+00 0.00000000D+00 0.00000000D+00 0.00000000D+00 0.00000000D+00
  <mgrwgt>
 0.4148099093D+00    3    2    0
 0.126071010043218D+03 0.000000000000000D+00 0.000000000000000D+00 0.126071010043218D+03
 0.126071010043218D+03 0.000000000000000D+00 0.000000000000000D+00 -.126071010043218D+03
 0.144230982035372D+03 0.538709838488963D+02 0.411442895379629D+02 0.241379517866769D+02
 0.107911038051064D+03 -.538709838488963D+02 -.411442895379629D+02 -.241379517866769D+02
 0.000000000000000D+00 0.000000000000000D+00 0.000000000000000D+00 -.000000000000000D+00
 0.133106065132945D+03 0.000000000000000D+00 0.000000000000000D+00 0.133106065132945D+03
 0.356942306145434D+03 0.000000000000000D+00 0.000000000000000D+00 -.356942306145434D+03
 0.132795113200978D+03 0.338588517408746D+02 0.167475231719238D+02 0.241379517866769D+02
 0.125975608792899D+03 -.707667584904523D+02 -.617419082363756D+02 -.241379517866769D+02
 0.231277649284502D+03 0.369079067495777D+02 0.449943850644518D+02 -.223836241012489D+03
0.370826721852D-02 0.000000000000D+00 0.000000000000D+00 0.259247399909D-02 0.000000000000D+00  5 -1 2 25 24 21 0 0.20159253D+00 0.18660760D-02 0.15298422D+05 0.15298422D+05 0.15298422D+05 0.12468484D+01  1  2  2  1  5  1       -1 0.406198121765D+00 0.100000000000D+01
-.205923535011D-03 0.000000000000D+00 -.142407225283D-04 0.259247399909D-02 0.000000000000D+00  5 -1 2 25 24 21 2 0.20159253D+00 0.18660760D-02 0.15298422D+05 0.15298422D+05 0.15298422D+05 0.12468484D+01  1  2  3  1  5  1       -1 -.350671257796D-01 0.100000000000D+01
0.256494252962D-03 0.000000000000D+00 0.000000000000D+00 0.259247399909D-02 0.000000000000D+00  5 -1 2 25 24 21 2 0.20159253D+00 0.18660760D-02 0.15298422D+05 0.15298422D+05 0.15298422D+05 0.12468484D+01  1  2 15  1  5  1       -1 0.436789132913D-01 0.100000000000D+01
  </mgrwgt>
  </event>
  <event>
  4     66 0.45252658E-03 0.10829816E+03 0.75467711E-02 0.11550173E+00
       -1 -1    0    0    0  501 0.00000000E+00 0.00000000E+00 0.97873442E+02 0.97873966E+02 0.32000000E+00 0.0000E+00 0.9000E+01
        2 -1    0    0  501    0 0.00000000E+00 0.00000000E+00 -.12094276E+03 0.12094319E+03 0.32000000E+00 0.0000E+00 0.9000E+01
       25  1    1    2    0    0 -.24601739E+02 0.22892054E+02 -.34812033E+01 0.12948517E+03 0.12500000E+03 0.0000E+00 0.9000E+01
       24  1    1    2    0    0 0.24601739E+02 -.22892054E+02 -.19588116E+02 0.89331976E+02 0.80419002E+02 0.0000E+00 0.9000E+01
#aMCatNLO 1  0  0  1  1 0.13337457D+03 0.00000000D+00  -5  5  0 0.00000000D+00 0.00000000D+00 0.00000000D+00 0.00000000D+00 0.00000000D+00
  <mgrwgt>
 0.3252777035D+00    3    2    0
 0.108798842034284D+03 0.000000000000000D+00 0.000000000000000D+00 0.108798842034284D+03
 0.108798842034284D+03 0.000000000000000D+00 0.000000000000000D+00 -.108798842034284D+03
 0.129841768306292D+03 -.246017393006275D+02 0.228920543230733D+02 0.102270752983609D+02
 0.877559157622747D+02 0.246017393006275D+02 -.228920543230733D+02 -.102270752983609D+02
 0.000000000000000D+00 -.000000000000000D+00 -.000000000000000D+00 -.000000000000000D+00
 0.187831824742547D+03 0.000000000000000D+00 0.000000000000000D+00 0.187831824742547D+03
 0.201457491865569D+03 0.000000000000000D+00 0.000000000000000D+00 -.201457491865569D+03
 0.153683501577798D+03 0.257988801714838D+02 0.849908428594043D+02 0.102270752983609D+02
 0.101537046296503D+03 0.582512357048582D+02 0.185676139001836D+02 -.102270752983609D+02
 0.134068768733816D+03 -.840501158763421D+02 -.103558456759588D+03 -.136256671230220D+02
0.313597248266D-03 0.000000000000D+00 0.000000000000D+00 0.302279322857D-02 0.000000000000D+00  5 -1 2 25 24 21 0 0.15057525D-01 0.18606652D-01 0.11728491D+05 0.11728491D+05 0.11728491D+05 0.12601906D+01  1  2  2  1  5  1       -1 0.318472158868D+00 0.100000000000D+01
-.174216186750D-04 0.000000000000D+00 -.120429600539D-05 0.302279322857D-02 0.000000000000D+00  5 -1 2 25 24 21 2 0.15057525D-01 0.18606652D-01 0.11728491D+05 0.11728491D+05 0.11728491D+05 0.12601906D+01  1  2  3  1  5  1       -1 -.280970175904D-01 0.100000000000D+01
0.216414118705D-04 0.000000000000D+00 0.000000000000D+00 0.302279322857D-02 0.000000000000D+00  5 -1 2 25 24 21 2 0.15057525D-01 0.18606652D-01 0.11728491D+05 0.11728491D+05 0.11728491D+05 0.12601906D+01  1  2 15  1  5  1       -1 0.349025622331D-01 0.100000000000D+01
  </mgrwgt>
  </event>
  <event>
  4     66 0.45252658E-03 0.10756033E+03 0.75467711E-02 0.11751789E+00
       -1 -1    0    0    0  501 0.00000000E+00 0.00000000E+00 0.25380407E+01 0.25581342E+01 0.32000000E+00 0.0000E+00 0.9000E+01
        2 -1    0    0  501    0 0.00000000E+00 0.00000000E+00 -.49586303E+04 0.49586303E+04 0.32000000E+00 0.0000E+00 0.9000E+01
       25  1    1    2    0    0 0.27335984E+02 0.15130170E+02 -.36344955E+04 0.36367786E+04 0.12500000E+03 0.0000E+00 0.9000E+01
       24  1    1    2    0    0 -.27335984E+02 -.15130170E+02 -.13215967E+04 0.13244098E+04 0.80419002E+02 0.0000E+00 0.9000E+01
#aMCatNLO 1  0  0  2  2 0.10560726D+03 0.00000000D+00  -5  5  0 0.00000000D+00 0.00000000D+00 0.00000000D+00 0.00000000D+00 0.00000000D+00
  <mgrwgt>
 0.1104595200D+00    3    2    0
 0.112405849609441D+03 0.000000000000000D+00 0.000000000000000D+00 0.112405849609441D+03
 0.112405849609441D+03 0.000000000000000D+00 0.000000000000000D+00 -.112405849609441D+03
 0.132773526375038D+03 0.273359842806386D+02 0.151301704566538D+02 -.320566874680475D+02
 0.920381728438442D+02 -.273359842806386D+02 -.151301704566538D+02 0.320566874680475D+02
 0.000000000000000D+00 -.000000000000000D+00 0.000000000000000D+00 0.000000000000000D+00
 0.295932609963969D+03 0.000000000000000D+00 0.000000000000000D+00 0.295932609963969D+03
 0.140425522143879D+03 0.000000000000000D+00 0.000000000000000D+00 -.140425522143879D+03
 0.149533393533439D+03 0.679362084322339D+02 -.330496014205085D+02 -.320566874680475D+02
 0.988477517347220D+02 0.116447022805321D+00 -.477076230523540D+02 0.320566874680475D+02
 0.187976986839686D+03 -.680526554550393D+02 0.807572244728625D+02 0.155507087820090D+03
0.211960342977D-02 0.000000000000D+00 0.000000000000D+00 0.274594656537D-02 0.000000000000D+00  5 -1 2 25 24 21 0 0.39201426D-03 0.76286774D+00 0.11569225D+05 0.11569225D+05 0.11569225D+05 0.12608891D+01  1  2  2  2  5  2        2 0.108135897767D+00 0.100000000000D+01
-.117477753984D-03 0.000000000000D+00 -.813983527470D-05 0.274594656537D-02 0.000000000000D+00  5 -1 2 25 24 21 2 0.39201426D-03 0.76286774D+00 0.11569225D+05 0.11569225D+05 0.11569225D+05 0.12608891D+01  1  2  3  2  5  2        2 -.952850392959D-02 0.100000000000D+01
0.146125894546D-03 0.000000000000D+00 0.000000000000D+00 0.274594656537D-02 0.000000000000D+00  5 -1 2 25 24 21 2 0.39201426D-03 0.76286774D+00 0.11569225D+05 0.11569225D+05 0.11569225D+05 0.12608891D+01  1  2 15  2  5  2        2 0.118521261530D-01 0.100000000000D+01
  </mgrwgt>
  </event>
  <event>
  4     66 0.45252658E-03 0.12415383E+03 0.75467711E-02 0.11956744E+00
       -1 -1    0    0    0  501 0.00000000E+00 0.00000000E+00 0.12170889E+02 0.12175095E+02 0.32000000E+00 0.0000E+00 0.9000E+01
        2 -1    0    0  501    0 0.00000000E+00 0.00000000E+00 -.13738498E+04 0.13738499E+04 0.32000000E+00 0.0000E+00 0.9000E+01
       25  1    1    2    0    0 0.27191732E+02 0.62997809E+02 -.96600106E+03 0.97646872E+03 0.12500000E+03 0.0000E+00 0.9000E+01
       24  1    1    2    0    0 -.27191732E+02 -.62997809E+02 -.39567788E+03 0.40955624E+03 0.80419002E+02 0.0000E+00 0.9000E+01
#aMCatNLO 1  0  0  2  2 0.53832943D+02 0.00000000D+00  -5  5  0 0.00000000D+00 0.00000000D+00 0.00000000D+00 0.00000000D+00 0.00000000D+00
  <mgrwgt>
 0.3788664593D+00    4    2    0
 0.129320976238191D+03 0.000000000000000D+00 0.000000000000000D+00 0.129320976238191D+03
 0.129320976238191D+03 0.000000000000000D+00 0.000000000000000D+00 -.129320976238191D+03
 0.147024569870136D+03 0.271917318969289D+02 0.629978091216156D+02 -.358205235559260D+02
 0.111617382606246D+03 -.271917318969289D+02 -.629978091216156D+02 0.358205235559260D+02
 0.000000000000000D+00 -.000000000000000D+00 0.000000000000000D+00 0.000000000000000D+00
 0.188720600127242D+03 0.000000000000000D+00 0.000000000000000D+00 0.188720600127242D+03
 0.144886358518321D+03 0.000000000000000D+00 0.000000000000000D+00 -.144886358518321D+03
 0.148580135104414D+03 0.536144427382515D+02 0.478898545591037D+02 -.358205235559260D+02
 0.115604734443499D+03 -.688141817551687D+01 -.746108225893168D+02 0.358205235559260D+02
 0.694220890976502D+02 -.467330245627346D+02 0.267209680302131D+02 0.438342416089209D+02
0.369548045913D-03 0.000000000000D+00 0.000000000000D+00 0.245207753158D-02 0.000000000000D+00  5 -1 2 25 24 21 0 0.18727709D-02 0.21136184D+00 0.15414174D+05 0.15414174D+05 0.15414174D+05 0.12464763D+01  1  2  2  2  5  2        2 0.488697916274D+00 0.100000000000D+01
-.204889428159D-04 0.000000000000D+00 -.141916180054D-05 0.245207753158D-02 0.000000000000D+00  5 -1 2 25 24 21 2 0.18727709D-02 0.21136184D+00 0.15414174D+05 0.15414174D+05 0.15414174D+05 0.12464763D+01  1  2  3  2  5  2        2 -.420975823760D-01 0.100000000000D+01
0.255236771733D-04 0.000000000000D+00 0.000000000000D+00 0.245207753158D-02 0.000000000000D+00  5 -1 2 25 24 21 2 0.18727709D-02 0.21136184D+00 0.15414174D+05 0.15414174D+05 0.15414174D+05 0.12464763D+01  1  2 15  2  5  2        2 0.524421934306D-01 0.100000000000D+01
-.584898335217D-04 0.000000000000D+00 0.000000000000D+00 0.245207753158D-02 0.000000000000D+00  5 -1 2 25 24 21 2 0.18727709D-02 0.21136184D+00 0.15414174D+05 0.15414174D+05 0.15414174D+05 0.12464763D+01  1  2  4  2  5  2        2 -.120176067987D+00 0.100000000000D+01
  </mgrwgt>
  </event>
  <event>
  5     66 -.45252658E-03 0.12239353E+03 0.75467711E-02 0.12308807E+00
       -1 -1    0    0    0  501 0.00000000E+00 0.00000000E+00 0.94187007E+02 0.94187551E+02 0.32000000E+00 0.0000E+00 0.9000E+01
        2 -1    0    0  502    0 0.00000000E+00 0.00000000E+00 -.17340977E+03 0.17341006E+03 0.32000000E+00 0.0000E+00 0.9000E+01
       25  1    1    2    0    0 -.18933574E+02 0.58075290E+02 -.41450651E+02 0.14517016E+03 0.12500000E+03 0.0000E+00 0.9000E+01
       24  1    1    2    0    0 0.28213604E+02 -.62832114E+02 -.32771594E+02 0.11083806E+03 0.80419002E+02 0.0000E+00 0.9000E+01
       21  1    1    2  502  501 -.92800295E+01 0.47568242E+01 -.50005130E+01 0.11589390E+02 0.75000000E+00 0.0000E+00 0.9000E+01
#aMCatNLO 2  0  0  2  1 0.10428151D+02 0.00000000D+00  -5  5  0 0.00000000D+00 0.00000000D+00 0.00000000D+00 0.00000000D+00 0.00000000D+00
  <mgrwgt>
 -.1518553467D+00    3    2    0
 0.122395385386564D+03 0.000000000000000D+00 0.000000000000000D+00 0.122395385386564D+03
 0.122395385386564D+03 0.000000000000000D+00 0.000000000000000D+00 -.122395385386564D+03
 0.141100714874082D+03 -.242429123797813D+02 0.607967889551509D+02 0.665875413307355D+00
 0.103690055899047D+03 0.242429123797813D+02 -.607967889551509D+02 -.665875413307355D+00
 0.000000000000000D+00 -.000000000000000D+00 0.000000000000000D+00 -.000000000000000D+00
 0.126933454389376D+03 0.000000000000000D+00 0.000000000000000D+00 0.126933454389376D+03
 0.128647398370492D+03 0.000000000000000D+00 0.000000000000000D+00 -.128647398370492D+03
 0.139128224826569D+03 -.189335740372438D+02 0.580752901628785D+02 0.665875413307355D+00
 0.105884566227196D+03 0.282136035513153D+02 -.628321143630719D+02 -.665875413307355D+00
 0.105680617061023D+02 -.928002951407151D+01 0.475682420019334D+01 -.171394398111568D+01
-.727058741253D-03 0.000000000000D+00 0.000000000000D+00 0.273941711058D-02 0.000000000000D+00  5 -1 2 25 24 21 2 0.13970865D-01 0.27125542D-01 0.16312048D+05 0.16312048D+05 0.16312048D+05 0.12436922D+01  1  2 13  2  5  2        2 -.854938299046D+00 0.100000000000D+01
-.276278108331D-04 0.000000000000D+00 0.000000000000D+00 0.273941711058D-02 0.000000000000D+00  5 -1 2 25 24 21 2 0.13970865D-01 0.25379325D-01 0.14980176D+05 0.14980176D+05 0.14980176D+05 0.12478880D+01  1  2  8  2  5  2        2 -.350699139739D-01 0.100000000000D+01
0.652355839726D-03 0.000000000000D+00 0.000000000000D+00 0.273941711058D-02 0.208153867479D-03  5 -1 2 25 24 21 2 0.14488865D-01 0.26675713D-01 0.16312048D+05 0.16312048D+05 0.16312048D+05 0.12436922D+01  1  2  1  2  5  2        2 0.738152866357D+00 0.100000000000D+01
  </mgrwgt>
  </event>
  <event>
  4     66 0.45252658E-03 0.18516708E+03 0.75467711E-02 0.11269247E+00
       -1 -1    0    0    0  501 0.00000000E+00 0.00000000E+00 0.14043290E+02 0.14046935E+02 0.32000000E+00 0.0000E+00 0.9000E+01
        2 -1    0    0  501    0 0.00000000E+00 0.00000000E+00 -.34033278E+04 0.34033279E+04 0.32000000E+00 0.0000E+00 0.9000E+01
       25  1    1    2    0    0 -.11256787E+03 0.15508356E+03 -.18687050E+04 0.18826593E+04 0.12500000E+03 0.0000E+00 0.9000E+01
       24  1    1    2    0    0 0.11256787E+03 -.15508356E+03 -.15205795E+04 0.15347155E+04 0.80419002E+02 0.0000E+00 0.9000E+01
#aMCatNLO 1  0  0  1  2 0.22018527D+02 0.00000000D+00  -5  5  0 0.00000000D+00 0.00000000D+00 0.00000000D+00 0.00000000D+00 0.00000000D+00
  <mgrwgt>
 0.2038527434D+00    9    2    0
 0.218632510120110D+03 0.000000000000000D+00 0.000000000000000D+00 0.218632510120110D+03
 0.218632510120110D+03 0.000000000000000D+00 0.000000000000000D+00 -.218632510120110D+03
 0.229104173324039D+03 -.112567873282486D+03 0.155083560826129D+03 -.118863493402185D+02
 0.208160846916181D+03 0.112567873282486D+03 -.155083560826129D+03 0.118863493402185D+02
 0.000000000000000D+00 0.000000000000000D+00 0.000000000000000D+00 0.000000000000000D+00
 0.230547080533290D+03 0.000000000000000D+00 0.000000000000000D+00 0.230547080533290D+03
 0.229324408748108D+03 0.000000000000000D+00 0.000000000000000D+00 -.229324408748108D+03
 0.225447159937526D+03 -.118265719187365D+03 0.145166650055562D+03 -.118863493402185D+02
 0.212371881945796D+03 0.107296453947247D+03 -.164258290373842D+03 0.118863493402185D+02
 0.220524473980758D+02 0.109692652401186D+02 0.190916403182792D+02 0.122267178518279D+01
0.270189077960D-02 0.000000000000D+00 0.000000000000D+00 0.211075713167D-02 0.000000000000D+00  5 -1 2 25 24 21 0 0.21607877D-02 0.52358918D+00 0.47658563D+05 0.47658563D+05 0.47658563D+05 0.11943501D+01  1  2  2  1  5  1       -1 0.223651738795D+00 0.100000000000D+01
-.150104641667D-03 0.000000000000D+00 -.103759720178D-04 0.211075713167D-02 0.000000000000D+00  5 -1 2 25 24 21 2 0.21607877D-02 0.52358918D+00 0.47658563D+05 0.47658563D+05 0.47658563D+05 0.11943501D+01  1  2  3  1  5  1       -1 -.177240071605D-01 0.100000000000D+01
0.184053125543D-03 0.000000000000D+00 0.000000000000D+00 0.211075713167D-02 0.000000000000D+00  5 -1 2 25 24 21 2 0.21607877D-02 0.52358918D+00 0.47658563D+05 0.47658563D+05 0.47658563D+05 0.11943501D+01  1  2 15  1  5  1       -1 0.217325652212D-01 0.100000000000D+01
0.329798196587D-02 0.000000000000D+00 0.000000000000D+00 0.211075713167D-02 0.000000000000D+00  5 -1 2 25 24 21 2 0.23286933D-02 0.52358918D+00 0.52714118D+05 0.52714118D+05 0.52714118D+05 0.11900149D+01  1  2 12  1  5  1       -1 0.345378820399D+00 0.100000000000D+01
-.265277332649D-02 0.000000000000D+00 0.000000000000D+00 0.211075713167D-02 0.000000000000D+00  5 -1 2 25 24 21 2 0.21607877D-02 0.52358918D+00 0.47658563D+05 0.47658563D+05 0.47658563D+05 0.11943501D+01  1  2  4  1  5  1       -1 -.313233307856D+00 0.100000000000D+01
-.106858913426D-01 0.000000000000D+00 -.247938589859D-02 0.211075713167D-02 0.000000000000D+00  5 -1 2 25 24 21 2 0.24804800D-02 0.52358918D+00 0.47658563D+05 0.47658563D+05 0.47658563D+05 0.11943501D+01  1  2  5  1  5  1       -1 -.103095867724D+01 0.100000000000D+01
0.109470392060D-01 0.000000000000D+00 0.245597006390D-02 0.211075713167D-02 0.000000000000D+00  5 -1 2 25 24 21 2 0.21607877D-02 0.52358918D+00 0.47658563D+05 0.47658563D+05 0.47658563D+05 0.11943501D+01  1  2  6  1  5  1       -1 0.129260094237D+01 0.100000000000D+01
0.415812443582D-04 0.000000000000D+00 0.000000000000D+00 0.211075713167D-02 0.000000000000D+00  5 21 2 25 24 1 2 0.23286933D-02 0.52358918D+00 0.52714118D+05 0.52714118D+05 0.52714118D+05 0.11900149D+01  1  2 12  3  5  1       -1 0.864512405081D-01 0.100000000000D+01
-.212903034327D-03 0.000000000000D+00 -.528325053226D-04 0.211075713167D-02 0.000000000000D+00  5 21 2 25 24 1 2 0.24804800D-02 0.52358918D+00 0.47658563D+05 0.47658563D+05 0.47658563D+05 0.11943501D+01  1  2  5  3  5  1       -1 -.404046571630D+00 0.100000000000D+01
  </mgrwgt>
  </event>
  <event>
  4     66 0.45252658E-03 0.10405571E+03 0.75467711E-02 0.11813372E+00
       -1 -1    0    0    0  501 0.00000000E+00 0.00000000E+00 0.23853477E+02 0.23855623E+02 0.32000000E+00 0.0000E+00 0.9000E+01
        2 -1    0    0  501    0 0.00000000E+00 0.00000000E+00 -.51166965E+03 0.51166975E+03 0.32000000E+00 0.0000E+00 0.9000E+01
       25  1    1    2    0    0 -.14888659E+02 -.66259352E+01 -.37782885E+03 0.39830291E+03 0.12500000E+03 0.0000E+00 0.9000E+01
       24  1    1    2    0    0 0.14888659E+02 0.66259352E+01 -.10998733E+03 0.13722246E+03 0.80419002E+02 0.0000E+00 0.9000E+01
#aMCatNLO 1  0  0  1  2 0.10195222D+03 0.00000000D+00  -5  5  0 0.00000000D+00 0.00000000D+00 0.00000000D+00 0.00000000D+00 0.00000000D+00
  <mgrwgt>
 0.5354122681D+00    3    2    0
 0.110479418041259D+03 0.000000000000000D+00 0.000000000000000D+00 0.110479418041259D+03
 0.110479418041259D+03 0.000000000000000D+00 0.000000000000000D+00 -.110479418041259D+03
 0.131202246347182D+03 -.148886594258650D+02 -.662593524602687D+01 -.363793107296277D+02
 0.897565897353352D+02 0.148886594258650D+02 0.662593524602687D+01 0.363793107296277D+02
 0.000000000000000D+00 0.000000000000000D+00 -.000000000000000D+00 -.000000000000000D+00
 0.132057667334565D+03 0.000000000000000D+00 0.000000000000000D+00 0.132057667334565D+03
 0.371898353027378D+03 0.000000000000000D+00 0.000000000000000D+00 -.371898353027378D+03
 0.150808779023696D+03 -.760661978964179D+02 0.296093212318962D+01 -.363793107296277D+02
 0.925367841588166D+02 -.246568153642423D+02 0.128229355069631D+02 0.363793107296277D+02
 0.260610457179430D+03 0.100723013260660D+03 -.157838676301527D+02 -.239840685692812D+03
0.294878817728D-03 0.000000000000D+00 0.000000000000D+00 0.272539772172D-02 0.000000000000D+00  5 -1 2 25 24 21 0 0.36699385D-02 0.78718581D-01 0.10827590D+05 0.10827590D+05 0.10827590D+05 0.12642909D+01  1  2  2  1  5  1       -1 0.524526837463D+00 0.100000000000D+01
-.163106826260D-04 0.000000000000D+00 -.113241230345D-05 0.272539772172D-02 0.000000000000D+00  5 -1 2 25 24 21 2 0.36699385D-02 0.78718581D-01 0.10827590D+05 0.10827590D+05 0.10827590D+05 0.12642909D+01  1  2  3  1  5  1       -1 -.463756797748D-01 0.100000000000D+01
0.201391721596D-04 0.000000000000D+00 0.000000000000D+00 0.272539772172D-02 0.000000000000D+00  5 -1 2 25 24 21 2 0.36699385D-02 0.78718581D-01 0.10827590D+05 0.10827590D+05 0.10827590D+05 0.12642909D+01  1  2 15  1  5  1       -1 0.572611104278D-01 0.100000000000D+01
  </mgrwgt>
  </event>
  <event>
  4     66 0.45252658E-03 0.53354982E+02 0.75467711E-02 0.12496364E+00
       -3 -1    0    0    0  501 0.00000000E+00 0.00000000E+00 0.50310401E+02 0.50312885E+02 0.50000000E+00 0.0000E+00 0.9000E+01
        4 -1    0    0  501    0 0.00000000E+00 0.00000000E+00 -.24862422E+03 0.24862905E+03 0.15500000E+01 0.0000E+00 0.9000E+01
       25  1    1    2    0    0 -.25809656E+02 0.83341781E+01 -.16256043E+03 0.20684895E+03 0.12500000E+03 0.0000E+00 0.9000E+01
       24  1    1    2    0    0 0.25809656E+02 -.83341781E+01 -.35753394E+02 0.92092986E+02 0.80419002E+02 0.0000E+00 0.9000E+01
#aMCatNLO 1  0  0  1  2 0.18673197D+02 0.00000000D+00  -5  5  0 0.00000000D+00 0.00000000D+00 0.00000000D+00 0.00000000D+00 0.00000000D+00
  <mgrwgt>
 0.3483779950D-01    9    2    0
 0.111845776516821D+03 0.000000000000000D+00 0.000000000000000D+00 0.111845776516821D+03
 0.111845776516821D+03 0.000000000000000D+00 0.000000000000000D+00 -.111845776516821D+03
 0.132315445401126D+03 -.258096559746497D+02 0.833417807588913D+01 -.338641436621105D+02
 0.913761076325152D+02 0.258096559746497D+02 -.833417807588913D+01 0.338641436621105D+02
 0.000000000000000D+00 -.000000000000000D+00 -.000000000000000D+00 0.000000000000000D+00
 0.156775423325053D+03 0.000000000000000D+00 0.000000000000000D+00 0.156775423325053D+03
 0.114191933749816D+03 0.000000000000000D+00 0.000000000000000D+00 -.114191933749816D+03
 0.133401909422120D+03 -.254545089129885D+02 0.193999275126978D+02 -.338641436621105D+02
 0.910676857858488D+02 0.260535029645987D+02 -.736340495383887D+00 0.338641436621105D+02
 0.464977618669010D+02 -.598994051610179D+00 -.186635870173139D+02 0.425834895752370D+02
0.204534396094D-03 0.000000000000D+00 0.000000000000D+00 0.273359681394D-02 0.000000000000D+00  5 -3 4 25 24 21 0 0.77406244D-02 0.38250443D-01 0.11318612D+05 0.11318612D+05 0.11318612D+05 0.12620105D+01  1  2  2  1  5  1       -3 0.282811942105D-01 0.100000000000D+01
-.113284562481D-04 0.000000000000D+00 -.785465936145D-06 0.273359681394D-02 0.000000000000D+00  5 -3 4 25 24 21 2 0.77406244D-02 0.38250443D-01 0.11318612D+05 0.11318612D+05 0.11318612D+05 0.12620105D+01  1  2  3  1  5  1       -3 -.249475585640D-02 0.100000000000D+01
0.139567450458D-04 0.000000000000D+00 0.000000000000D+00 0.273359681394D-02 0.000000000000D+00  5 -3 4 25 24 21 2 0.77406244D-02 0.38250443D-01 0.11318612D+05 0.11318612D+05 0.11318612D+05 0.12620105D+01  1  2 15  1  5  1       -3 0.307355836284D-02 0.100000000000D+01
0.749957876576D-03 0.000000000000D+00 0.000000000000D+00 0.273359681394D-02 0.000000000000D+00  5 -3 4 25 24 21 2 0.10906620D-01 0.38250443D-01 0.13484151D+05 0.13484151D+05 0.13484151D+05 0.12531318D+01  1  2 12  1  5  1       -3 0.946076301903D-01 0.100000000000D+01
-.731255335321D-03 0.000000000000D+00 0.000000000000D+00 0.273359681394D-02 0.000000000000D+00  5 -3 4 25 24 21 2 0.77406244D-02 0.38250443D-01 0.11318612D+05 0.11318612D+05 0.11318612D+05 0.12620105D+01  1  2  4  1  5  1       -3 -.161037257890D+00 0.100000000000D+01
-.846621436829D-03 0.000000000000D+00 -.847236253082D-04 0.273359681394D-02 0.000000000000D+00  5 -3 4 25 24 21 2 0.11045479D-01 0.38250443D-01 0.11318612D+05 0.11318612D+05 0.11318612D+05 0.12620105D+01  1  2  5  1  5  1       -3 -.104284029256D+00 0.100000000000D+01
0.828887447988D-03 0.000000000000D+00 0.796370072514D-04 0.273359681394D-02 0.000000000000D+00  5 -3 4 25 24 21 2 0.77406244D-02 0.38250443D-01 0.11318612D+05 0.11318612D+05 0.11318612D+05 0.12620105D+01  1  2  6  1  5  1       -3 0.182537829505D+00 0.100000000000D+01
0.319210619709D-04 0.000000000000D+00 0.000000000000D+00 0.273359681394D-02 0.000000000000D+00  5 21 4 25 24 3 2 0.10906620D-01 0.38250443D-01 0.13484151D+05 0.13484151D+05 0.13484151D+05 0.12531318D+01  1  2 12  3  5  1       -3 0.928961752300D-01 0.100000000000D+01
-.345385863150D-04 0.000000000000D+00 -.370167182827D-05 0.273359681394D-02 0.000000000000D+00  5 21 4 25 24 3 2 0.11045479D-01 0.38250443D-01 0.11318612D+05 0.11318612D+05 0.11318612D+05 0.12620105D+01  1  2  5  3  5  1       -3 -.987425449969D-01 0.100000000000D+01
  </mgrwgt>
  </event>
  <event>
  4     66 0.45252658E-03 0.68072039E+02 0.75467711E-02 0.12213376E+00
       -1 -1    0    0    0  501 0.00000000E+00 0.00000000E+00 0.28179180E+02 0.28180997E+02 0.32000000E+00 0.0000E+00 0.9000E+01
        2 -1    0    0  501    0 0.00000000E+00 0.00000000E+00 -.10069719E+04 0.10069719E+04 0.32000000E+00 0.0000E+00 0.9000E+01
       25  1    1    2    0    0 0.33178591E+02 -.27214187E+02 -.91354492E+03 0.92305512E+03 0.12500000E+03 0.0000E+00 0.9000E+01
       24  1    1    2    0    0 -.33178591E+02 0.27214187E+02 -.65247790E+02 0.11209782E+03 0.80419002E+02 0.0000E+00 0.9000E+01
#aMCatNLO 1  0  0  2  1 0.40680617D+02 0.00000000D+00  -5  5  0 0.00000000D+00 0.00000000D+00 0.00000000D+00 0.00000000D+00 0.00000000D+00
  <mgrwgt>
 0.2959889205D+00    9    2    0
 0.168453579287251D+03 0.000000000000000D+00 0.000000000000000D+00 0.168453579287251D+03
 0.168453579287251D+03 0.000000000000000D+00 0.000000000000000D+00 -.168453579287251D+03
 0.182044540198229D+03 0.331785905967097D+02 -.272141867638757D+02 -.125194983049567D+03
 0.154862618376273D+03 -.331785905967097D+02 0.272141867638757D+02 0.125194983049567D+03
 0.000000000000000D+00 -.000000000000000D+00 -.000000000000000D+00 -.000000000000000D+00
 0.179695636011902D+03 0.000000000000000D+00 0.000000000000000D+00 0.179695636011902D+03
 0.210973643038529D+03 0.000000000000000D+00 0.000000000000000D+00 -.210973643038529D+03
 0.180763308565946D+03 0.366666272748608D+02 -.566995478043846D+01 -.125194983049567D+03
 0.158590999012899D+03 -.301650457738046D+02 0.458276690027051D+02 0.125194983049567D+03
 0.513149714715871D+02 -.650158150105618D+01 -.401577142222666D+02 -.312780070266263D+02
0.380028339569D-03 0.000000000000D+00 0.000000000000D+00 0.111057395690D-02 0.000000000000D+00  5 -1 2 25 24 21 0 0.43354021D-02 0.15491890D+00 0.12467107D+05 0.12467107D+05 0.12467107D+05 0.12570851D+01  1  2  2  2  5  2        2 0.236466671852D+00 0.100000000000D+01
-.167715176315D-04 0.000000000000D+00 -.145940888770D-05 0.111057395690D-02 0.000000000000D+00  5 -1 2 25 24 21 2 0.43354021D-02 0.15491890D+00 0.12467107D+05 0.12467107D+05 0.12467107D+05 0.12570851D+01  1  2  3  2  5  2        2 -.164913287356D-01 0.100000000000D+01
0.257836423555D-04 0.000000000000D+00 0.000000000000D+00 0.111057395690D-02 0.000000000000D+00  5 -1 2 25 24 21 2 0.43354021D-02 0.15491890D+00 0.12467107D+05 0.12467107D+05 0.12467107D+05 0.12570851D+01  1  2 15  2  5  2        2 0.253528947963D-01 0.100000000000D+01
0.482266532217D-03 0.000000000000D+00 0.000000000000D+00 0.111057395690D-02 0.000000000000D+00  5 -1 2 25 24 21 2 0.43354021D-02 0.19822988D+00 0.18012632D+05 0.18012632D+05 0.18012632D+05 0.12388616D+01  1  2 12  2  5  2        2 0.322093409319D+00 0.100000000000D+01
-.562799449079D-03 0.000000000000D+00 0.000000000000D+00 0.111057395690D-02 0.000000000000D+00  5 -1 2 25 24 21 2 0.43354021D-02 0.15491890D+00 0.12467107D+05 0.12467107D+05 0.12467107D+05 0.12570851D+01  1  2  4  2  5  2        2 -.553397189862D+00 0.100000000000D+01
-.786849986124D-03 0.000000000000D+00 -.231290165204D-03 0.111057395690D-02 0.000000000000D+00  5 -1 2 25 24 21 2 0.43354021D-02 0.20075515D+00 0.12467107D+05 0.12467107D+05 0.12467107D+05 0.12570851D+01  1  2  5  2  5  2        2 -.527632123088D+00 0.100000000000D+01
0.826439339789D-03 0.000000000000D+00 0.223733196729D-03 0.111057395690D-02 0.000000000000D+00  5 -1 2 25 24 21 2 0.43354021D-02 0.15491890D+00 0.12467107D+05 0.12467107D+05 0.12467107D+05 0.12570851D+01  1  2  6  2  5  2        2 0.812632650900D+00 0.100000000000D+01
0.161536428037D-04 0.000000000000D+00 0.000000000000D+00 0.111057395690D-02 0.000000000000D+00  5 -1 21 25 24 -2 2 0.43354021D-02 0.19822988D+00 0.18012632D+05 0.18012632D+05 0.18012632D+05 0.12388616D+01  1  2 12  4  5  2        2 0.677017250512D-02 0.100000000000D+01
-.232348476741D-04 0.000000000000D+00 -.803817221463D-05 0.111057395690D-02 0.000000000000D+00  5 -1 21 25 24 -2 2 0.43354021D-02 0.20075515D+00 0.12467107D+05 0.12467107D+05 0.12467107D+05 0.12570851D+01  1  2  5  4  5  2        2 -.980623715990D-02 0.100000000000D+01
  </mgrwgt>
  </event>
  <event>
  4     66 0.45252658E-03 0.33695907E+02 0.75467711E-02 0.12021737E+00
       -3 -1    0    0    0  501 0.00000000E+00 0.00000000E+00 0.25983414E+02 0.25988225E+02 0.50000000E+00 0.0000E+00 0.9000E+01
        4 -1    0    0  501    0 0.00000000E+00 0.00000000E+00 -.66075461E+03 0.66075643E+03 0.15500000E+01 0.0000E+00 0.9000E+01
       25  1    1    2    0    0 -.58981578E+02 -.12274078E+02 -.22102966E+03 0.26097622E+03 0.12500000E+03 0.0000E+00 0.9000E+01
       24  1    1    2    0    0 0.58981578E+02 0.12274078E+02 -.41374154E+03 0.42576843E+03 0.80419002E+02 0.0000E+00 0.9000E+01
#aMCatNLO 1  0  0  1  2 0.51989246D+02 0.00000000D+00  -5  5  0 0.00000000D+00 0.00000000D+00 0.00000000D+00 0.00000000D+00 0.00000000D+00
  <mgrwgt>
 0.7235109013D-02    7    2    0
 0.131037921597588D+03 0.000000000000000D+00 0.000000000000000D+00 0.131037921597588D+03
 0.131037921597588D+03 0.000000000000000D+00 0.000000000000000D+00 -.131037921597588D+03
 0.148509551057938D+03 -.589815775920465D+02 -.122740775515667D+02 0.529207641709912D+02
 0.113566292137239D+03 0.589815775920465D+02 0.122740775515667D+02 -.529207641709912D+02
 0.000000000000000D+00 -.000000000000000D+00 -.000000000000000D+00 0.000000000000000D+00
 0.286784676857085D+03 0.000000000000000D+00 0.000000000000000D+00 0.286784676857085D+03
 0.138002282666380D+03 0.000000000000000D+00 0.000000000000000D+00 -.138002282666380D+03
 0.140144554010491D+03 -.347670228359158D+02 0.247847967202549D+01 0.529207641709912D+02
 0.127038209793250D+03 0.791653573626000D+02 0.245709117924724D+02 -.529207641709912D+02
 0.157604195719724D+03 -.443983345266843D+02 -.270493914644979D+02 0.148782394190704D+03
0.211935599586D-03 0.000000000000D+00 0.000000000000D+00 0.222978651196D-02 0.000000000000D+00  5 -3 4 25 24 21 0 0.39979582D-02 0.10165507D+00 0.14309282D+05 0.14309282D+05 0.14309282D+05 0.12501633D+01  1  2  2  1  5  1       -3 0.108420858392D-01 0.100000000000D+01
-.116552476531D-04 0.000000000000D+00 -.813888506334D-06 0.222978651196D-02 0.000000000000D+00  5 -3 4 25 24 21 2 0.39979582D-02 0.10165507D+00 0.14309282D+05 0.14309282D+05 0.14309282D+05 0.12501633D+01  1  2  3  1  5  1       -3 -.931888440580D-03 0.100000000000D+01
0.146351375579D-04 0.000000000000D+00 0.000000000000D+00 0.222978651196D-02 0.000000000000D+00  5 -3 4 25 24 21 2 0.39979582D-02 0.10165507D+00 0.14309282D+05 0.14309282D+05 0.14309282D+05 0.12501633D+01  1  2 15  1  5  1       -3 0.117014377750D-02 0.100000000000D+01
0.384470598046D-03 0.000000000000D+00 0.000000000000D+00 0.222978651196D-02 0.000000000000D+00  5 -3 4 25 24 21 2 0.87273590D-02 0.10165507D+00 0.22089173D+05 0.22089173D+05 0.22089173D+05 0.12291038D+01  1  2 12  1  5  1       -3 0.884035050379D-02 0.100000000000D+01
-.481378893777D-03 0.000000000000D+00 -.599681875602D-04 0.222978651196D-02 0.000000000000D+00  5 -3 4 25 24 21 2 0.91744044D-02 0.10165507D+00 0.14309282D+05 0.14309282D+05 0.14309282D+05 0.12501633D+01  1  2  5  1  5  1       -3 -.102268249890D-01 0.100000000000D+01
0.325158958182D-04 0.000000000000D+00 0.000000000000D+00 0.222978651196D-02 0.000000000000D+00  5 21 4 25 24 3 2 0.87273590D-02 0.10165507D+00 0.22089173D+05 0.22089173D+05 0.22089173D+05 0.12291038D+01  1  2 12  3  5  1       -3 0.172882525062D-01 0.100000000000D+01
-.397113538586D-04 0.000000000000D+00 -.541968167141D-05 0.222978651196D-02 0.000000000000D+00  5 21 4 25 24 3 2 0.91744044D-02 0.10165507D+00 0.14309282D+05 0.14309282D+05 0.14309282D+05 0.12501633D+01  1  2  5  3  5  1       -3 -.197470101837D-01 0.100000000000D+01
  </mgrwgt>
  </event>
  <event>
  4     66 0.45252658E-03 0.51808718E+03 0.75467711E-02 0.95312219E-01
       -1 -1    0    0    0  501 0.00000000E+00 0.00000000E+00 0.36103531E+03 0.36103545E+03 0.32000000E+00 0.0000E+00 0.9000E+01
        2 -1    0    0  501    0 0.00000000E+00 0.00000000E+00 -.77194625E+03 0.77194632E+03 0.32000000E+00 0.0000E+00 0.9000E+01
       25  1    1    2    0    0 0.50732953E+03 0.21211255E+01 -.31596731E+03 0.61061288E+03 0.12500000E+03 0.0000E+00 0.9000E+01
       24  1    1    2    0    0 -.50732953E+03 -.21211255E+01 -.94943641E+02 0.52236889E+03 0.80419002E+02 0.0000E+00 0.9000E+01
#aMCatNLO 1  0  0  2  2 0.49404301D+03 0.00000000D+00  -5  5  0 0.00000000D+00 0.00000000D+00 0.00000000D+00 0.00000000D+00 0.00000000D+00
  <mgrwgt>
 0.4096189393D+00    3    2    0
 0.527920419636988D+03 0.000000000000000D+00 0.000000000000000D+00 0.527920419636988D+03
 0.527920419636988D+03 0.000000000000000D+00 0.000000000000000D+00 -.527920419636988D+03
 0.532257145261243D+03 0.507329525335868D+03 0.212112545795115D+01 -.101414605609459D+03
 0.523583694012732D+03 -.507329525335868D+03 -.212112545795115D+01 0.101414605609459D+03
 0.000000000000000D+00 -.000000000000000D+00 -.000000000000000D+00 0.000000000000000D+00
 0.106045550118800D+04 0.000000000000000D+00 0.000000000000000D+00 0.106045550118800D+04
 0.710617508742136D+03 0.000000000000000D+00 0.000000000000000D+00 -.710617508742136D+03
 0.744995831366948D+03 0.694717186304978D+03 0.215585012409730D+03 -.101414605609459D+03
 0.420713555053574D+03 -.368790288395331D+03 0.155696757852603D+03 0.101414605609459D+03
 0.605363623509612D+03 -.325926897909646D+03 -.371281770262332D+03 0.349837992445862D+03
0.288836388939D-01 0.000000000000D+00 0.000000000000D+00 0.186122705102D-02 0.000000000000D+00  5 -1 2 25 24 21 0 0.55543909D-01 0.11876098D+00 0.26841433D+06 0.26841433D+06 0.26841433D+06 0.11261223D+01  1  2  2  2  5  2        2 0.402983558273D+00 0.100000000000D+01
-.160395688968D-02 0.000000000000D+00 -.110920778589D-03 0.186122705102D-02 0.000000000000D+00  5 -1 2 25 24 21 2 0.55543909D-01 0.11876098D+00 0.26841433D+06 0.26841433D+06 0.26841433D+06 0.11261223D+01  1  2  3  2  5  2        2 -.283791387428D-01 0.100000000000D+01
0.197898113795D-02 0.000000000000D+00 0.000000000000D+00 0.186122705102D-02 0.000000000000D+00  5 -1 2 25 24 21 2 0.55543909D-01 0.11876098D+00 0.26841433D+06 0.26841433D+06 0.26841433D+06 0.11261223D+01  1  2 15  2  5  2        2 0.350145198070D-01 0.100000000000D+01
  </mgrwgt>
  </event>
  <event>
  4     66 0.45252658E-03 0.45793891E+02 0.75467711E-02 0.12205716E+00
       -3 -1    0    0    0  501 0.00000000E+00 0.00000000E+00 0.49467298E+03 0.49467323E+03 0.50000000E+00 0.0000E+00 0.9000E+01
        4 -1    0    0  501    0 0.00000000E+00 0.00000000E+00 -.44709816E+02 0.44736676E+02 0.15500000E+01 0.0000E+00 0.9000E+01
       25  1    1    2    0    0 -.28739593E+02 0.47389348E+02 0.41289094E+03 0.43494326E+03 0.12500000E+03 0.0000E+00 0.9000E+01
       24  1    1    2    0    0 0.28739593E+02 -.47389348E+02 0.37072228E+02 0.10446665E+03 0.80419002E+02 0.0000E+00 0.9000E+01
#aMCatNLO 1  0  0  1  2 0.32773660D+02 0.00000000D+00  -5  5  0 0.00000000D+00 0.00000000D+00 0.00000000D+00 0.00000000D+00 0.00000000D+00
  <mgrwgt>
 0.6347645871D-01    9    2    0
 0.148741554745376D+03 0.000000000000000D+00 0.000000000000000D+00 0.148741554745376D+03
 0.148741554745376D+03 0.000000000000000D+00 0.000000000000000D+00 -.148741554745376D+03
 0.164133662319662D+03 -.287395932264336D+02 0.473893483985582D+02 0.907917647477129D+02
 0.133349447171090D+03 0.287395932264336D+02 -.473893483985582D+02 -.907917647477129D+02
 0.000000000000000D+00 0.000000000000000D+00 0.000000000000000D+00 0.000000000000000D+00
 0.169356624796892D+03 0.000000000000000D+00 0.000000000000000D+00 0.169356624796892D+03
 0.163261914896323D+03 0.000000000000000D+00 0.000000000000000D+00 -.163261914896323D+03
 0.164903219362734D+03 -.438371922077847D+02 0.374596821866882D+02 0.907917647477129D+02
 0.134379779225969D+03 0.164550478737587D+02 -.554688738295434D+02 -.907917647477129D+02
 0.333355411045122D+02 0.273821443340260D+02 0.180091916428552D+02 0.609470990056989D+01
0.984684640372D-03 0.000000000000D+00 0.000000000000D+00 0.159711441545D-02 0.000000000000D+00  5 -3 4 25 24 21 0 0.76105621D-01 0.68805188D-02 0.13736236D+05 0.13736236D+05 0.13736236D+05 0.12522037D+01  1  2  2  1  5  1       -3 0.445774581142D-01 0.100000000000D+01
-.509271960254D-04 0.000000000000D+00 -.378144829245D-05 0.159711441545D-02 0.000000000000D+00  5 -3 4 25 24 21 2 0.76105621D-01 0.68805188D-02 0.13736236D+05 0.13736236D+05 0.13736236D+05 0.12522037D+01  1  2  3  1  5  1       -3 -.361507986907D-02 0.100000000000D+01
0.672503220477D-04 0.000000000000D+00 0.000000000000D+00 0.159711441545D-02 0.000000000000D+00  5 -3 4 25 24 21 2 0.76105621D-01 0.68805188D-02 0.13736236D+05 0.13736236D+05 0.13736236D+05 0.12522037D+01  1  2 15  1  5  1       -3 0.477378109139D-02 0.100000000000D+01
0.783658732815D-03 0.000000000000D+00 0.000000000000D+00 0.159711441545D-02 0.000000000000D+00  5 -3 4 25 24 21 2 0.89932309D-01 0.68805188D-02 0.18157828D+05 0.18157828D+05 0.18157828D+05 0.12384731D+01  1  2 12  1  5  1       -3 0.387035194007D-01 0.100000000000D+01
-.734343974486D-03 0.000000000000D+00 0.000000000000D+00 0.159711441545D-02 0.000000000000D+00  5 -3 4 25 24 21 2 0.76105621D-01 0.68805188D-02 0.13736236D+05 0.13736236D+05 0.13736236D+05 0.12522037D+01  1  2  4  1  5  1       -3 -.521275924521D-01 0.100000000000D+01
-.185420155383D-02 0.000000000000D+00 -.586070144636D-03 0.159711441545D-02 0.000000000000D+00  5 -3 4 25 24 21 2 0.93510324D-01 0.68805188D-02 0.13736236D+05 0.13736236D+05 0.13736236D+05 0.12522037D+01  1  2  5  1  5  1       -3 -.839164751010D-01 0.100000000000D+01
0.194570587196D-02 0.000000000000D+00 0.573856914180D-03 0.159711441545D-02 0.000000000000D+00  5 -3 4 25 24 21 2 0.76105621D-01 0.68805188D-02 0.13736236D+05 0.13736236D+05 0.13736236D+05 0.12522037D+01  1  2  6  1  5  1       -3 0.138116422616D+00 0.100000000000D+01
0.194765213750D-04 0.000000000000D+00 0.000000000000D+00 0.159711441545D-02 0.000000000000D+00  5 21 4 25 24 3 2 0.89932309D-01 0.68805188D-02 0.18157828D+05 0.18157828D+05 0.18157828D+05 0.12384731D+01  1  2 12  3  5  1       -3 0.184795859189D-01 0.100000000000D+01
-.471669215236D-04 0.000000000000D+00 -.171517559793D-04 0.159711441545D-02 0.000000000000D+00  5 21 4 25 24 3 2 0.93510324D-01 0.68805188D-02 0.13736236D+05 0.13736236D+05 0.13736236D+05 0.12522037D+01  1  2  5  3  5  1       -3 -.415151610090D-01 0.100000000000D+01
  </mgrwgt>
  </event>
  <event>
  4     66 0.45252658E-03 0.10576779E+03 0.75467711E-02 0.11395555E+00
       -1 -1    0    0    0  501 0.00000000E+00 0.00000000E+00 0.91326118E+01 0.91382164E+01 0.32000000E+00 0.0000E+00 0.9000E+01
        2 -1    0    0  501    0 0.00000000E+00 0.00000000E+00 -.16700467E+04 0.16700467E+04 0.32000000E+00 0.0000E+00 0.9000E+01
       25  1    1    2    0    0 -.35393617E+01 0.24428210E+02 -.13820031E+04 0.13878641E+04 0.12500000E+03 0.0000E+00 0.9000E+01
       24  1    1    2    0    0 0.35393617E+01 -.24428210E+02 -.27891096E+03 0.29132079E+03 0.80419002E+02 0.0000E+00 0.9000E+01
#aMCatNLO 1  0  0  2  2 0.16091708D+03 0.00000000D+00  -5  5  0 0.00000000D+00 0.00000000D+00 0.00000000D+00 0.00000000D+00 0.00000000D+00
  <mgrwgt>
 0.4728523187D+00    5    2    0
 0.123517687241564D+03 0.000000000000000D+00 0.000000000000000D+00 0.123517687241564D+03
 0.123517687241564D+03 0.000000000000000D+00 0.000000000000000D+00 -.123517687241564D+03
 0.142053057054066D+03 -.353936165852367D+01 0.244282099748830D+02 -.628076945515357D+02
 0.104982317429062D+03 0.353936165852367D+01 -.244282099748830D+02 0.628076945515357D+02
 0.000000000000000D+00 0.000000000000000D+00 -.000000000000000D+00 -.000000000000000D+00
 0.172961895089887D+03 0.000000000000000D+00 0.000000000000000D+00 0.172961895089887D+03
 0.400778197705498D+03 0.000000000000000D+00 0.000000000000000D+00 -.400778197705498D+03
 0.184364558847499D+03 -.533992180699711D+02 0.107559321184496D+03 -.628076945515357D+02
 0.110458747766075D+03 -.293689743272344D+02 0.304397085361552D+02 0.628076945515357D+02
 0.278916786181810D+03 0.827681923972055D+02 -.137999029720651D+03 -.227816302615611D+03
0.332714807570D-03 0.000000000000D+00 0.000000000000D+00 0.210656876280D-02 0.000000000000D+00  5 -1 2 25 24 21 0 0.14054507D-02 0.25693069D+00 0.11186825D+05 0.11186825D+05 0.11186825D+05 0.12626114D+01  1  2  2  2  5  2        2 0.462524877377D+00 0.100000000000D+01
-.179432527698D-04 0.000000000000D+00 -.127771246689D-05 0.210656876280D-02 0.000000000000D+00  5 -1 2 25 24 21 2 0.14054507D-02 0.25693069D+00 0.11186825D+05 0.11186825D+05 0.11186825D+05 0.12626114D+01  1  2  3  2  5  2        2 -.397652373016D-01 0.100000000000D+01
0.226716955080D-04 0.000000000000D+00 0.000000000000D+00 0.210656876280D-02 0.000000000000D+00  5 -1 2 25 24 21 2 0.14054507D-02 0.25693069D+00 0.11186825D+05 0.11186825D+05 0.11186825D+05 0.12626114D+01  1  2 15  2  5  2        2 0.502442541200D-01 0.100000000000D+01
-.722643067621D-04 0.000000000000D+00 -.101815308655D-03 0.210656876280D-02 0.000000000000D+00  5 -1 2 25 24 21 2 0.14054507D-02 0.85144664D+00 0.11186825D+05 0.11186825D+05 0.11186825D+05 0.12626114D+01  1  2  5  2  5  2        2 -.151479458579D-03 0.100000000000D+01
-.605523009289D-05 0.000000000000D+00 -.141377742198D-04 0.210656876280D-02 0.000000000000D+00  5 -1 21 25 24 -2 2 0.14054507D-02 0.85144664D+00 0.11186825D+05 0.11186825D+05 0.11186825D+05 0.12626114D+01  1  2  5  4  5  2        2 -.960623378459D-07 0.100000000000D+01
  </mgrwgt>
  </event>
  <event>
  4     66 0.45252658E-03 0.72916264E+02 0.75467711E-02 0.12248659E+00
       -1 -1    0    0    0  501 0.00000000E+00 0.00000000E+00 0.68089432E+02 0.68090184E+02 0.32000000E+00 0.0000E+00 0.9000E+01
        2 -1    0    0  501    0 0.00000000E+00 0.00000000E+00 -.35563822E+03 0.35563837E+03 0.32000000E+00 0.0000E+00 0.9000E+01
       25  1    1    2    0    0 0.42556228E+02 0.67079043E+02 -.42848274E+02 0.15418043E+03 0.12500000E+03 0.0000E+00 0.9000E+01
       24  1    1    2    0    0 -.42556228E+02 -.67079043E+02 -.24470052E+03 0.26954812E+03 0.80419002E+02 0.0000E+00 0.9000E+01
#aMCatNLO 1  0  0  2  1 0.23843036D+01 0.00000000D+00  -5  5  0 0.00000000D+00 0.00000000D+00 0.00000000D+00 0.00000000D+00 0.00000000D+00
  <mgrwgt>
 0.4248398764D+00   11    2    0
 0.155612964034340D+03 0.000000000000000D+00 0.000000000000000D+00 0.155612964034340D+03
 0.155612964034340D+03 0.000000000000000D+00 0.000000000000000D+00 -.155612964034340D+03
 0.170325401559160D+03 0.425562283259412D+02 0.670790428302545D+02 0.841136841419784D+02
 0.140900526509519D+03 -.425562283259412D+02 -.670790428302545D+02 -.841136841419784D+02
 0.000000000000000D+00 0.000000000000000D+00 -.000000000000000D+00 -.000000000000000D+00
 0.156535976734300D+03 0.000000000000000D+00 0.000000000000000D+00 0.156535976734300D+03
 0.157164954715480D+03 0.000000000000000D+00 0.000000000000000D+00 -.157164954715480D+03
 0.170528499025437D+03 0.417414656634758D+02 0.680992449605476D+02 0.841136841419784D+02
 0.140706561990999D+03 -.432293699294326D+02 -.662361709983608D+02 -.841136841419784D+02
 0.246587043334396D+01 0.148790426595674D+01 -.186307396218677D+01 -.628977981180064D+00
0.365997236886D-03 0.000000000000D+00 0.000000000000D+00 0.173080353039D-02 0.000000000000D+00  5 -1 2 25 24 21 0 0.10475366D-01 0.54713642D-01 0.17049303D+05 0.17049303D+05 0.17049303D+05 0.12415317D+01  1  2  2  2  5  2        2 0.205389762978D+00 0.100000000000D+01
-.195722542382D-04 0.000000000000D+00 -.140552575893D-05 0.173080353039D-02 0.000000000000D+00  5 -1 2 25 24 21 2 0.10475366D-01 0.54713642D-01 0.17049303D+05 0.17049303D+05 0.17049303D+05 0.12415317D+01  1  2  3  2  5  2        2 -.169300206305D-01 0.100000000000D+01
0.252199934875D-04 0.000000000000D+00 0.000000000000D+00 0.173080353039D-02 0.000000000000D+00  5 -1 2 25 24 21 2 0.10475366D-01 0.54713642D-01 0.17049303D+05 0.17049303D+05 0.17049303D+05 0.12415317D+01  1  2 15  2  5  2        2 0.218153210584D-01 0.100000000000D+01
0.758431302235D-06 0.000000000000D+00 0.000000000000D+00 0.173080353039D-02 0.000000000000D+00  5 -1 2 25 24 21 2 0.10475366D-01 0.55420297D-01 0.17360950D+05 0.17360950D+05 0.17360950D+05 0.12406498D+01  1  2 12  2  5  2        2 0.646584273574D-03 0.100000000000D+01
-.537616128110D-02 0.000000000000D+00 0.000000000000D+00 0.173080353039D-02 0.000000000000D+00  5 -1 2 25 24 21 2 0.10475366D-01 0.54713642D-01 0.17049303D+05 0.17049303D+05 0.17049303D+05 0.12415317D+01  1  2  4  2  5  2        2 -.465038519804D+01 0.100000000000D+01
-.320339360363D-01 0.000000000000D+00 -.368676947661D-02 0.173080353039D-02 0.000000000000D+00  5 -1 2 25 24 21 2 0.10475366D-01 0.55542787D-01 0.17049303D+05 0.17049303D+05 0.17049303D+05 0.12415317D+01  1  2  5  2  5  2        2 -.272702547367D+02 0.100000000000D+01
0.320861748555D-01 0.000000000000D+00 0.368635250685D-02 0.173080353039D-02 0.000000000000D+00  5 -1 2 25 24 21 2 0.10475366D-01 0.54713642D-01 0.17049303D+05 0.17049303D+05 0.17049303D+05 0.12415317D+01  1  2  6  2  5  2        2 0.277545752086D+02 0.100000000000D+01
0.537591105955D-02 0.000000000000D+00 0.000000000000D+00 0.173080353039D-02 0.249951790869D-02  5 -1 2 25 24 21 2 0.10537500D-01 0.55259323D-01 0.17360950D+05 0.17360950D+05 0.17360950D+05 0.12406498D+01  1  2 11  2  5  2        2 0.455591373097D+01 0.100000000000D+01
0.533025482354D-07 0.000000000000D+00 0.000000000000D+00 0.173080353039D-02 0.000000000000D+00  5 -1 21 25 24 -2 2 0.10475366D-01 0.55420297D-01 0.17360950D+05 0.17360950D+05 0.17360950D+05 0.12406498D+01  1  2 12  4  5  2        2 0.127981296483D-03 0.100000000000D+01
-.880281208068D-04 0.000000000000D+00 -.101664338595D-04 0.173080353039D-02 0.000000000000D+00  5 -1 21 25 24 -2 2 0.10475366D-01 0.55542787D-01 0.17049303D+05 0.17049303D+05 0.17049303D+05 0.12415317D+01  1  2  5  4  5  2        2 -.210679134607D+00 0.100000000000D+01
0.144614866892D-04 0.000000000000D+00 0.000000000000D+00 0.173080353039D-02 0.460529702332D-05  5 -1 21 25 24 -2 2 0.10537500D-01 0.55259323D-01 0.17360950D+05 0.17360950D+05 0.17360950D+05 0.12406498D+01  1  2 11  4  5  2        2 0.346203771157D-01 0.100000000000D+01
  </mgrwgt>
  </event>
  <event>
  4     66 0.45252658E-03 0.11023939E+03 0.75467711E-02 0.12503608E+00
       -3 -1    0    0    0  501 0.00000000E+00 0.00000000E+00 0.11016115E+03 0.11016229E+03 0.50000000E+00 0.0000E+00 0.9000E+01
        4 -1    0    0  501    0 0.00000000E+00 0.00000000E+00 -.11437119E+03 0.11438169E+03 0.15500000E+01 0.0000E+00 0.9000E+01
       25  1    1    2    0    0 0.36883154E+02 0.13325036E+02 -.23288146E+02 0.13306112E+03 0.12500000E+03 0.0000E+00 0.9000E+01
       24  1    1    2    0    0 -.36883154E+02 -.13325036E+02 0.19078110E+02 0.91482861E+02 0.80419002E+02 0.0000E+00 0.9000E+01
#aMCatNLO 1  0  0  1  1 0.10675309D+02 0.00000000D+00  -5  5  0 0.00000000D+00 0.00000000D+00 0.00000000D+00 0.00000000D+00 0.00000000D+00
  <mgrwgt>
 0.6617360821D-01    4    2    0
 0.112252254303561D+03 0.000000000000000D+00 0.000000000000000D+00 0.112252254303561D+03
 0.112252254303561D+03 0.000000000000000D+00 0.000000000000000D+00 -.112252254303561D+03
 0.132647800260403D+03 0.368831536894949D+02 0.133250358589058D+02 -.207970023609117D+02
 0.918567083467197D+02 -.368831536894949D+02 -.133250358589058D+02 0.207970023609117D+02
 0.000000000000000D+00 0.000000000000000D+00 -.000000000000000D+00 -.000000000000000D+00
 0.112747458322689D+03 0.000000000000000D+00 0.000000000000000D+00 0.112747458322689D+03
 0.189720991250548D+03 0.000000000000000D+00 0.000000000000000D+00 -.189720991250548D+03
 0.133396284882530D+03 0.367574279566955D+02 0.196454830245928D+02 -.207970023609117D+02
 0.913618887263284D+02 -.369697381830652D+02 -.897228559216209D+01 0.207970023609117D+02
 0.777102759643793D+02 0.212310226369717D+00 -.106731974324307D+02 -.769735329278585D+02
0.415762945651D-03 0.000000000000D+00 0.000000000000D+00 0.286696161171D-02 0.000000000000D+00  5 -3 4 25 24 21 0 0.16948765D-01 0.17596463D-01 0.12152724D+05 0.12152724D+05 0.12152724D+05 0.12583809D+01  1  2  2  1  5  1       -3 0.660883729535D-01 0.100000000000D+01
-.230887467061D-04 0.000000000000D+00 -.159663918420D-05 0.286696161171D-02 0.000000000000D+00  5 -3 4 25 24 21 2 0.16948765D-01 0.17596463D-01 0.12152724D+05 0.12152724D+05 0.12152724D+05 0.12583809D+01  1  2  3  1  5  1       -3 -.581170931979D-02 0.100000000000D+01
0.287504333784D-04 0.000000000000D+00 0.000000000000D+00 0.286696161171D-02 0.000000000000D+00  5 -3 4 25 24 21 2 0.16948765D-01 0.17596463D-01 0.12152724D+05 0.12152724D+05 0.12152724D+05 0.12583809D+01  1  2 15  1  5  1       -3 0.723682249799D-02 0.100000000000D+01
-.532306422476D-05 0.000000000000D+00 0.000000000000D+00 0.286696161171D-02 0.000000000000D+00  5 -3 4 25 24 21 2 0.16948765D-01 0.17596463D-01 0.12152724D+05 0.12152724D+05 0.12152724D+05 0.12583809D+01  1  2  4  1  5  1       -3 -.133987792229D-02 0.100000000000D+01
  </mgrwgt>
  </event>
  <event>
  5     66 0.45252658E-03 0.11489773E+03 0.75467711E-02 0.12174935E+00
       -1 -1    0    0    0  501 0.00000000E+00 0.00000000E+00 0.18358579E+02 0.18361368E+02 0.32000000E+00 0.0000E+00 0.9000E+01
        2 -1    0    0  502    0 0.00000000E+00 0.00000000E+00 -.23650821E+04 0.23650821E+04 0.32000000E+00 0.0000E+00 0.9000E+01
       25  1    1    2    0    0 -.25553740E+02 -.23694585E+02 -.52041297E+03 0.53634792E+03 0.12500000E+03 0.0000E+00 0.9000E+01
       24  1    1    2    0    0 0.64305376E+02 0.12059958E+02 -.25506355E+03 0.27532754E+03 0.80419002E+02 0.0000E+00 0.9000E+01
       21  1    1    2  502  501 -.38751635E+02 0.11634627E+02 -.15712470E+04 0.15717680E+04 0.75000000E+00 0.0000E+00 0.9000E+01
#aMCatNLO 2  0  0  2  1 0.40460521D+02 0.00000000D+00  -5  5  0 0.00000000D+00 0.00000000D+00 0.00000000D+00 0.00000000D+00 0.00000000D+00
  <mgrwgt>
 0.3660216464D-01    2    2    0
 0.118127218028080D+03 0.000000000000000D+00 0.000000000000000D+00 0.118127218028080D+03
 0.118127218028080D+03 0.000000000000000D+00 0.000000000000000D+00 -.118127218028080D+03
 0.137508407644034D+03 -.475421734341475D+02 -.170928706619618D+02 -.270395578826423D+02
 0.987460284121261D+02 0.475421734341475D+02 0.170928706619618D+02 0.270395578826423D+02
 0.000000000000000D+00 -.000000000000000D+00 0.000000000000000D+00 -.000000000000000D+00
 0.121571450144138D+03 0.000000000000000D+00 0.000000000000000D+00 0.121571450144138D+03
 0.357176639194209D+03 0.000000000000000D+00 0.000000000000000D+00 -.357176639194209D+03
 0.132554006705879D+03 -.255537404696483D+02 -.236945848518903D+02 -.270395578826423D+02
 0.107139990622863D+03 0.643053758915349D+02 0.120599575976132D+02 0.270395578826423D+02
 0.239054092009605D+03 -.387516354218866D+02 0.116346272542771D+02 -.235605189050071D+03
-.112049243881D-02 0.000000000000D+00 0.000000000000D+00 0.269292163003D-02 0.000000000000D+00  5 -1 2 25 24 21 2 0.27445760D-02 0.36127244D+00 0.18755183D+05 0.18755183D+05 0.18755183D+05 0.12369104D+01  1  2 13  2  5  2        2 -.411556978744D+00 0.100000000000D+01
0.129831812711D-02 0.000000000000D+00 0.000000000000D+00 0.269292163003D-02 0.221856073137D-04  5 -1 2 25 24 21 2 0.28245995D-02 0.36385726D+00 0.18755183D+05 0.18755183D+05 0.18755183D+05 0.12369104D+01  1  2  1  2  5  2        2 0.448159143389D+00 0.100000000000D+01
  </mgrwgt>
  </event>
  <event>
  4     66 0.45252658E-03 0.16487915E+03 0.75467711E-02 0.10848934E+00
       -1 -1    0    0    0  501 0.00000000E+00 0.00000000E+00 0.10244794E+03 0.10244844E+03 0.32000000E+00 0.0000E+00 0.9000E+01
        2 -1    0    0  501    0 0.00000000E+00 0.00000000E+00 -.26970549E+03 0.26970568E+03 0.32000000E+00 0.0000E+00 0.9000E+01
       25  1    1    2    0    0 -.94865876E+02 0.85628854E+02 -.67006014E+02 0.19091003E+03 0.12500000E+03 0.0000E+00 0.9000E+01
       24  1    1    2    0    0 0.94865876E+02 -.85628854E+02 -.10025154E+03 0.18124409E+03 0.80419002E+02 0.0000E+00 0.9000E+01
#aMCatNLO 1  0  0  1  1 0.21038874D+03 0.00000000D+00  -5  5  0 0.00000000D+00 0.00000000D+00 0.00000000D+00 0.00000000D+00 0.00000000D+00
  <mgrwgt>
 0.3553195696D+00    5    2    0
 0.166225454712633D+03 0.000000000000000D+00 0.000000000000000D+00 0.166225454712633D+03
 0.166225454712633D+03 0.000000000000000D+00 0.000000000000000D+00 -.166225454712633D+03
 0.179998592018019D+03 -.948658763749865D+02 0.856288544723141D+02 0.210394370132479D+02
 0.152452317407247D+03 0.948658763749865D+02 -.856288544723141D+02 -.210394370132479D+02
 0.000000000000000D+00 -.000000000000000D+00 0.000000000000000D+00 0.000000000000000D+00
 0.458354134735703D+03 0.000000000000000D+00 0.000000000000000D+00 0.458354134735703D+03
 0.239009240574297D+03 0.000000000000000D+00 0.000000000000000D+00 -.239009240574297D+03
 0.144972498452857D+03 -.701547385332771D+02 -.526118419717557D+01 0.210394370132479D+02
 0.248457326824989D+03 0.125351460389055D+03 -.197757884209822D+03 -.210394370132479D+02
 0.303933550032154D+03 -.551967218557783D+02 0.203019068406998D+03 0.219344894161406D+03
0.872402826134D-03 0.000000000000D+00 0.000000000000D+00 0.226644306374D-02 0.000000000000D+00  5 -1 2 25 24 21 0 0.15761275D-01 0.41493206D-01 0.27185133D+05 0.27185133D+05 0.27185133D+05 0.12194152D+01  1  2  2  1  5  1       -1 0.352458928973D+00 0.100000000000D+01
-.484629265097D-04 0.000000000000D+00 -.335025656129D-05 0.226644306374D-02 0.000000000000D+00  5 -1 2 25 24 21 2 0.15761275D-01 0.41493206D-01 0.27185133D+05 0.27185133D+05 0.27185133D+05 0.12194152D+01  1  2  3  1  5  1       -1 -.291141601049D-01 0.100000000000D+01
0.601883983303D-04 0.000000000000D+00 0.000000000000D+00 0.226644306374D-02 0.000000000000D+00  5 -1 2 25 24 21 2 0.15761275D-01 0.41493206D-01 0.27185133D+05 0.27185133D+05 0.27185133D+05 0.12194152D+01  1  2 15  1  5  1       -1 0.361582510931D-01 0.100000000000D+01
-.482210504723D-04 0.000000000000D+00 -.277810591795D-03 0.226644306374D-02 0.000000000000D+00  5 -1 2 25 24 21 2 0.59833954D-01 0.41493206D-01 0.27185133D+05 0.27185133D+05 0.27185133D+05 0.12194152D+01  1  2  5  1  5  1       -1 -.296124288859D-02 0.100000000000D+01
-.205447637136D-05 0.000000000000D+00 -.439114087533D-04 0.226644306374D-02 0.000000000000D+00  5 21 2 25 24 1 2 0.59833954D-01 0.41493206D-01 0.27185133D+05 0.27185133D+05 0.27185133D+05 0.12194152D+01  1  2  5  3  5  1       -1 -.122220747122D-02 0.100000000000D+01
  </mgrwgt>
  </event>
  <event>
  4     66 0.45252658E-03 0.11356805E+03 0.75467711E-02 0.10514969E+00
       -3 -1    0    0    0  501 0.00000000E+00 0.00000000E+00 0.98700193E+03 0.98700206E+03 0.50000000E+00 0.0000E+00 0.9000E+01
        4 -1    0    0  501    0 0.00000000E+00 0.00000000E+00 -.13631190E+02 0.13719032E+02 0.15500000E+01 0.0000E+00 0.9000E+01
       25  1    1    2    0    0 0.32469677E+02 0.34694509E+02 0.46531297E+03 0.48414786E+03 0.12500000E+03 0.0000E+00 0.9000E+01
       24  1    1    2    0    0 -.32469677E+02 -.34694509E+02 0.50805777E+03 0.51657323E+03 0.80419002E+02 0.0000E+00 0.9000E+01
#aMCatNLO 1  0  0  1  1 0.34439987D+03 0.00000000D+00  -5  5  0 0.00000000D+00 0.00000000D+00 0.00000000D+00 0.00000000D+00 0.00000000D+00
  <mgrwgt>
 0.1087993420D+00    3    2    0
 0.116181001521835D+03 0.000000000000000D+00 0.000000000000000D+00 0.116181001521835D+03
 0.116181001521835D+03 0.000000000000000D+00 0.000000000000000D+00 -.116181001521835D+03
 0.135886856880442D+03 0.324696768988702D+02 0.346945090440020D+02 -.241298362432128D+02
 0.964751461632277D+02 -.324696768988702D+02 -.346945090440020D+02 0.241298362432128D+02
 0.000000000000000D+00 0.000000000000000D+00 0.000000000000000D+00 -.000000000000000D+00
 0.327917250426314D+03 0.000000000000000D+00 0.000000000000000D+00 0.327917250426314D+03
 0.454445142629429D+03 0.000000000000000D+00 0.000000000000000D+00 -.454445142629429D+03
 0.172891814345139D+03 -.670096393560297D+02 -.958855500260833D+02 -.241298362432128D+02
 0.242563806215788D+03 -.141697956924087D+03 -.178071401796963D+03 0.241298362432128D+02
 0.366906772494815D+03 0.208707596280117D+03 0.273956951823046D+03 -.126527892203115D+03
0.178049340029D-02 0.000000000000D+00 0.000000000000D+00 0.275531266215D-02 0.000000000000D+00  5 -3 4 25 24 21 0 0.15185322D+00 0.21038730D-02 0.12897702D+05 0.12897702D+05 0.12897702D+05 0.12553686D+01  1  2  2  1  5  1       -3 0.106528323712D+00 0.100000000000D+01
-.988540696403D-04 0.000000000000D+00 -.683756347179D-05 0.275531266215D-02 0.000000000000D+00  5 -3 4 25 24 21 2 0.15185322D+00 0.21038730D-02 0.12897702D+05 0.12897702D+05 0.12897702D+05 0.12553686D+01  1  2  3  1  5  1       -3 -.932098539491D-02 0.100000000000D+01
0.122939441771D-03 0.000000000000D+00 0.000000000000D+00 0.275531266215D-02 0.000000000000D+00  5 -3 4 25 24 21 2 0.15185322D+00 0.21038730D-02 0.12897702D+05 0.12897702D+05 0.12897702D+05 0.12553686D+01  1  2 15  1  5  1       -3 0.115920037018D-01 0.100000000000D+01
  </mgrwgt>
  </event>
  <event>
  5     66 0.45252658E-03 0.14511833E+03 0.75467711E-02 0.11235524E+00
       21 -1    0    0  502  501 0.00000000E+00 0.00000000E+00 0.53976304E+02 0.53981515E+02 0.75000000E+00 0.0000E+00 0.9000E+01
        2 -1    0    0  501    0 0.00000000E+00 0.00000000E+00 -.16277639E+04 0.16277640E+04 0.32000000E+00 0.0000E+00 0.9000E+01
       25  1    1    2    0    0 -.56260081E+02 0.17871879E+02 -.68997016E+03 0.70368205E+03 0.12500000E+03 0.0000E+00 0.9000E+01
       24  1    1    2    0    0 0.43706272E+02 -.16194771E+03 -.77516748E+03 0.79717573E+03 0.80419002E+02 0.0000E+00 0.9000E+01
        1  1    1    2  502    0 0.12553809E+02 0.14407583E+03 -.10865000E+03 0.18088772E+03 0.32000000E+00 0.0000E+00 0.9000E+01
#aMCatNLO 2  0  0  1  2 0.14462172D+03 0.00000000D+00  -5  5  0 0.00000000D+00 0.00000000D+00 0.00000000D+00 0.00000000D+00 0.00000000D+00
  <mgrwgt>
 0.2056753734D+00    2    2    0
 0.145799779114172D+03 0.000000000000000D+00 0.000000000000000D+00 0.145799779114172D+03
 0.145799779114172D+03 0.000000000000000D+00 0.000000000000000D+00 -.145799779114172D+03
 0.161502450444110D+03 -.501479491612622D+02 0.880187500603328D+02 -.139972973172781D+02
 0.130097107784234D+03 0.501479491612622D+02 -.880187500603328D+02 0.139972973172781D+02
 0.000000000000000D+00 0.000000000000000D+00 0.000000000000000D+00 0.000000000000000D+00
 0.491872774641533D+03 0.000000000000000D+00 0.000000000000000D+00 0.491872774641533D+03
 0.178633636518061D+03 0.000000000000000D+00 0.000000000000000D+00 -.178633636518061D+03
 0.138944323703980D+03 -.562600807031500D+02 0.178718794938615D+02 -.139972973172781D+02
 0.186548754995946D+03 0.437062718592018D+02 -.161947706078685D+03 0.139972973172781D+02
 0.345013332459668D+03 0.125538088439482D+02 0.144075826584823D+03 0.313239138123471D+03
-.818964399383D-09 0.000000000000D+00 0.000000000000D+00 0.242448309661D-02 0.000000000000D+00  5 21 2 25 24 1 2 0.78675500D-02 0.20439592D+00 0.54962602D+05 0.54962602D+05 0.54962602D+05 0.11882330D+01  1  2 13  3  5  1       -1 -.306834131672D-05 0.100000000000D+01
0.872763212238D-04 0.000000000000D+00 0.000000000000D+00 0.242448309661D-02 0.277807041790D-06  5 21 2 25 24 1 2 0.83044469D-02 0.25042553D+00 0.54962602D+05 0.54962602D+05 0.54962602D+05 0.11882330D+01  1  2  1  3  5  1       -1 0.205678441735D+00 0.100000000000D+01
  </mgrwgt>
  </event>
  <event>
  4     66 0.45252658E-03 0.58997362E+02 0.75467711E-02 0.12638230E+00
       -1 -1    0    0    0  501 0.00000000E+00 0.00000000E+00 0.25877540E+02 0.25879519E+02 0.32000000E+00 0.0000E+00 0.9000E+01
        2 -1    0    0  501    0 0.00000000E+00 0.00000000E+00 -.59847911E+03 0.59847920E+03 0.32000000E+00 0.0000E+00 0.9000E+01
       25  1    1    2    0    0 0.20859101E+02 -.62444573E+01 -.49322942E+03 0.50928809E+03 0.12500000E+03 0.0000E+00 0.9000E+01
       24  1    1    2    0    0 -.20859101E+02 0.62444573E+01 -.79372154E+02 0.11507063E+03 0.80419002E+02 0.0000E+00 0.9000E+01
#aMCatNLO 1  0  0  2  1 0.63136328D+01 0.00000000D+00  -5  5  0 0.00000000D+00 0.00000000D+00 0.00000000D+00 0.00000000D+00 0.00000000D+00
  <mgrwgt>
 0.5409710231D+00   11    2    0
 0.124450037259390D+03 0.000000000000000D+00 0.000000000000000D+00 0.124450037259390D+03
 0.124450037259390D+03 0.000000000000000D+00 0.000000000000000D+00 -.124450037259390D+03
 0.142846544498962D+03 0.208591014605280D+02 -.624445728801184D+01 -.656204230002479D+02
 0.106053530019818D+03 -.208591014605280D+02 0.624445728801184D+01 0.656204230002479D+02
 0.000000000000000D+00 -.000000000000000D+00 0.000000000000000D+00 -.000000000000000D+00
 0.126067950958140D+03 0.000000000000000D+00 0.000000000000000D+00 0.126067950958140D+03
 0.130805807216203D+03 0.000000000000000D+00 0.000000000000000D+00 -.130805807216203D+03
 0.143440025138587D+03 0.244436243817472D+02 -.681983314393116D+01 -.656204230002479D+02
 0.105540112733898D+03 -.182097900960612D+02 0.581919852208146D+01 0.656204230002479D+02
 0.789362030185797D+01 -.623383428568598D+01 0.100063462184970D+01 -.473785625806293D+01
0.180835885166D-03 0.000000000000D+00 0.000000000000D+00 0.204716256932D-02 0.000000000000D+00  5 -1 2 25 24 21 0 0.39813188D-02 0.92073869D-01 0.11045668D+05 0.11045668D+05 0.11045668D+05 0.12632640D+01  1  2  2  2  5  2        2 0.240414501599D+00 0.100000000000D+01
-.969753418472D-05 0.000000000000D+00 -.694457414221D-06 0.204716256932D-02 0.000000000000D+00  5 -1 2 25 24 21 2 0.39813188D-02 0.92073869D-01 0.11045668D+05 0.11045668D+05 0.11045668D+05 0.12632640D+01  1  2  3  2  5  2        2 -.205743257014D-01 0.100000000000D+01
0.123520048435D-04 0.000000000000D+00 0.000000000000D+00 0.204716256932D-02 0.000000000000D+00  5 -1 2 25 24 21 2 0.39813188D-02 0.92073869D-01 0.11045668D+05 0.11045668D+05 0.11045668D+05 0.12632640D+01  1  2 15  2  5  2        2 0.262060608268D-01 0.100000000000D+01
0.751693576035D-03 0.000000000000D+00 0.000000000000D+00 0.204716256932D-02 0.000000000000D+00  5 -1 2 25 24 21 2 0.39813188D-02 0.97354703D-01 0.11720620D+05 0.11720620D+05 0.11720620D+05 0.12602249D+01  1  2 12  2  5  2        2 0.149336272156D+01 0.100000000000D+01
-.926869386858D-03 0.000000000000D+00 0.000000000000D+00 0.204716256932D-02 0.000000000000D+00  5 -1 2 25 24 21 2 0.39813188D-02 0.92073869D-01 0.11045668D+05 0.11045668D+05 0.11045668D+05 0.12632640D+01  1  2  4  2  5  2        2 -.196644964427D+01 0.100000000000D+01
-.325178447300D-02 0.000000000000D+00 -.459883571348D-03 0.204716256932D-02 0.000000000000D+00  5 -1 2 25 24 21 2 0.39813188D-02 0.97627300D-01 0.11045668D+05 0.11045668D+05 0.11045668D+05 0.12632640D+01  1  2  5  2  5  2        2 -.645592470572D+01 0.100000000000D+01
0.327388929404D-02 0.000000000000D+00 0.459096002333D-03 0.204716256932D-02 0.000000000000D+00  5 -1 2 25 24 21 2 0.39813188D-02 0.92073869D-01 0.11045668D+05 0.11045668D+05 0.11045668D+05 0.12632640D+01  1  2  6  2  5  2        2 0.694589607655D+01 0.100000000000D+01
0.172914801281D-03 0.000000000000D+00 0.000000000000D+00 0.204716256932D-02 0.435741663314D-03  5 -1 2 25 24 21 2 0.40330780D-02 0.96776160D-01 0.11720620D+05 0.11720620D+05 0.11720620D+05 0.12602249D+01  1  2 11  2  5  2        2 0.339410234654D+00 0.100000000000D+01
0.102539501244D-04 0.000000000000D+00 0.000000000000D+00 0.204716256932D-02 0.000000000000D+00  5 -1 21 25 24 -2 2 0.39813188D-02 0.97354703D-01 0.11720620D+05 0.11720620D+05 0.11720620D+05 0.12602249D+01  1  2 12  4  5  2        2 0.311311905201D-01 0.100000000000D+01
-.322234620036D-04 0.000000000000D+00 -.463486466018D-05 0.204716256932D-02 0.000000000000D+00  5 -1 21 25 24 -2 2 0.39813188D-02 0.97627300D-01 0.11045668D+05 0.11045668D+05 0.11045668D+05 0.12632640D+01  1  2  5  4  5  2        2 -.976547832740D-01 0.100000000000D+01
0.170617071023D-05 0.000000000000D+00 0.000000000000D+00 0.204716256932D-02 0.379822363090D-05  5 -1 21 25 24 -2 2 0.40330780D-02 0.96776160D-01 0.11720620D+05 0.11720620D+05 0.11720620D+05 0.12602249D+01  1  2 11  4  5  2        2 0.515369632516D-02 0.100000000000D+01
  </mgrwgt>
  </event>
  <event>
  5     66 0.45252658E-03 0.11848593E+03 0.75467711E-02 0.11978296E+00
       -1 -1    0    0    0  501 0.00000000E+00 0.00000000E+00 0.25002323E+02 0.25004370E+02 0.32000000E+00 0.0000E+00 0.9000E+01
        2 -1    0    0  502    0 0.00000000E+00 0.00000000E+00 -.95927849E+03 0.95927855E+03 0.32000000E+00 0.0000E+00 0.9000E+01
       25  1    1    2    0    0 -.18901828E+02 0.17573221E+02 -.43514916E+03 0.45348196E+03 0.12500000E+03 0.0000E+00 0.9000E+01
       24  1    1    2    0    0 0.48325347E+02 -.69679730E+02 -.27457527E+03 0.29841146E+03 0.80419002E+02 0.0000E+00 0.9000E+01
       21  1    1    2  502  501 -.29423519E+02 0.52106509E+02 -.22455175E+03 0.23238951E+03 0.75000000E+00 0.0000E+00 0.9000E+01
#aMCatNLO 2  0  0  2  1 0.59840051D+02 0.00000000D+00  -5  5  0 0.00000000D+00 0.00000000D+00 0.00000000D+00 0.00000000D+00 0.00000000D+00
  <mgrwgt>
 0.2798500600D-01    2    2    0
 0.120472108927705D+03 0.000000000000000D+00 0.000000000000000D+00 0.120472108927705D+03
 0.120472108927705D+03 0.000000000000000D+00 0.000000000000000D+00 -.120472108927705D+03
 0.139476059566448D+03 -.350755572835186D+02 0.462154972182019D+02 -.215035878473432D+02
 0.101468158288963D+03 0.350755572835186D+02 -.462154972182019D+02 0.215035878473432D+02
 0.000000000000000D+00 -.000000000000000D+00 0.000000000000000D+00 -.000000000000000D+00
 0.147201580105928D+03 0.000000000000000D+00 0.000000000000000D+00 0.147201580105928D+03
 0.162936513258414D+03 0.000000000000000D+00 0.000000000000000D+00 -.162936513258414D+03
 0.129435317839517D+03 -.189018283403775D+02 0.175732210849109D+02 -.215035878473432D+02
 0.118828549526505D+03 0.483253471348970D+02 -.696797299233131D+02 0.215035878473432D+02
 0.618742259983196D+02 -.294235187945195D+02 0.521065088384022D+02 -.157349331524859D+02
-.631152745289D-04 0.000000000000D+00 0.000000000000D+00 0.269782841803D-02 0.000000000000D+00  5 -1 2 25 24 21 2 0.31481313D-02 0.15618608D+00 0.23156213D+05 0.23156213D+05 0.23156213D+05 0.12268810D+01  1  2 13  2  5  2        2 -.947699613201D-01 0.100000000000D+01
0.101466317486D-03 0.000000000000D+00 0.000000000000D+00 0.269782841803D-02 0.636594561311D-05  5 -1 2 25 24 21 2 0.38466157D-02 0.14757928D+00 0.23156213D+05 0.23156213D+05 0.23156213D+05 0.12268810D+01  1  2  1  2  5  2        2 0.122754967321D+00 0.100000000000D+01
  </mgrwgt>
  </event>
  <event>
  4     66 0.45252658E-03 0.70292685E+02 0.75467711E-02 0.12274086E+00
       -1 -1    0    0    0  501 0.00000000E+00 0.00000000E+00 0.36369997E+02 0.36371404E+02 0.32000000E+00 0.0000E+00 0.9000E+01
        2 -1    0    0  501    0 0.00000000E+00 0.00000000E+00 -.40543863E+03 0.40543876E+03 0.32000000E+00 0.0000E+00 0.9000E+01
       25  1    1    2    0    0 0.21516111E+02 -.39077160E+02 -.13050832E+03 0.18613809E+03 0.12500000E+03 0.0000E+00 0.9000E+01
       24  1    1    2    0    0 -.21516111E+02 0.39077160E+02 -.23856032E+03 0.25567207E+03 0.80419002E+02 0.0000E+00 0.9000E+01
#aMCatNLO 1  0  0  1  2 0.32723305D+02 0.00000000D+00  -5  5  0 0.00000000D+00 0.00000000D+00 0.00000000D+00 0.00000000D+00 0.00000000D+00
  <mgrwgt>
 0.3777867866D+00    9    2    0
 0.121433687821770D+03 0.000000000000000D+00 0.000000000000000D+00 0.121433687821770D+03
 0.121433687821770D+03 0.000000000000000D+00 0.000000000000000D+00 -.121433687821770D+03
 0.140287154701304D+03 0.215161111918919D+02 -.390771600100473D+02 0.454479735402448D+02
 0.102580220942236D+03 -.215161111918919D+02 0.390771600100473D+02 -.454479735402448D+02
 0.000000000000000D+00 0.000000000000000D+00 -.000000000000000D+00 0.000000000000000D+00
 0.151983565813111D+03 0.000000000000000D+00 0.000000000000000D+00 0.151983565813111D+03
 0.131620306578639D+03 0.000000000000000D+00 0.000000000000000D+00 -.131620306578639D+03
 0.135545019372573D+03 0.123473320655053D+02 -.230103752394569D+02 0.454479735402448D+02
 0.109516966362445D+03 -.285663121709976D+02 0.514314833239012D+02 -.454479735402448D+02
 0.385418866567317D+02 0.162189801054923D+02 -.284211080844442D+02 0.203632592344728D+02
0.246602602675D-03 0.000000000000D+00 0.000000000000D+00 0.242151100202D-02 0.000000000000D+00  5 -1 2 25 24 21 0 0.55955021D-02 0.62375292D-01 0.12620763D+05 0.12620763D+05 0.12620763D+05 0.12564650D+01  1  2  2  1  5  1       -1 0.305600965134D+00 0.100000000000D+01
-.135992707721D-04 0.000000000000D+00 -.947018926230D-06 0.242151100202D-02 0.000000000000D+00  5 -1 2 25 24 21 2 0.55955021D-02 0.62375292D-01 0.12620763D+05 0.12620763D+05 0.12620763D+05 0.12564650D+01  1  2  3  1  5  1       -1 -.266056264850D-01 0.100000000000D+01
0.170569891972D-04 0.000000000000D+00 0.000000000000D+00 0.242151100202D-02 0.000000000000D+00  5 -1 2 25 24 21 2 0.55955021D-02 0.62375292D-01 0.12620763D+05 0.12620763D+05 0.12620763D+05 0.12564650D+01  1  2 15  1  5  1       -1 0.333703101543D-01 0.100000000000D+01
0.222030994850D-03 0.000000000000D+00 0.000000000000D+00 0.242151100202D-02 0.000000000000D+00  5 -1 2 25 24 21 2 0.71933646D-02 0.62375292D-01 0.16908257D+05 0.16908257D+05 0.16908257D+05 0.12419369D+01  1  2 12  1  5  1       -1 0.295168058436D+00 0.100000000000D+01
-.234129467392D-03 0.000000000000D+00 0.000000000000D+00 0.242151100202D-02 0.000000000000D+00  5 -1 2 25 24 21 2 0.55955021D-02 0.62375292D-01 0.12620763D+05 0.12620763D+05 0.12620763D+05 0.12564650D+01  1  2  4  1  5  1       -1 -.458051116337D+00 0.100000000000D+01
-.389887815625D-03 0.000000000000D+00 -.115101575533D-03 0.242151100202D-02 0.000000000000D+00  5 -1 2 25 24 21 2 0.75792938D-02 0.62375292D-01 0.12620763D+05 0.12620763D+05 0.12620763D+05 0.12564650D+01  1  2  5  1  5  1       -1 -.485717281042D+00 0.100000000000D+01
0.410857084878D-03 0.000000000000D+00 0.109997948435D-03 0.242151100202D-02 0.000000000000D+00  5 -1 2 25 24 21 2 0.55955021D-02 0.62375292D-01 0.12620763D+05 0.12620763D+05 0.12620763D+05 0.12564650D+01  1  2  6  1  5  1       -1 0.803801198029D+00 0.100000000000D+01
0.754073902750D-05 0.000000000000D+00 0.000000000000D+00 0.242151100202D-02 0.000000000000D+00  5 21 2 25 24 1 2 0.71933646D-02 0.62375292D-01 0.16908257D+05 0.16908257D+05 0.16908257D+05 0.12419369D+01  1  2 12  3  5  1       -1 0.162784897157D+00 0.100000000000D+01
-.125695139749D-04 0.000000000000D+00 -.448625340988D-05 0.242151100202D-02 0.000000000000D+00  5 21 2 25 24 1 2 0.75792938D-02 0.62375292D-01 0.12620763D+05 0.12620763D+05 0.12620763D+05 0.12564650D+01  1  2  5  3  5  1       -1 -.252564618485D+00 0.100000000000D+01
  </mgrwgt>
  </event>
  <event>
  4     66 0.45252658E-03 0.16556233E+03 0.75467711E-02 0.11775222E+00
       -3 -1    0    0    0  501 0.00000000E+00 0.00000000E+00 0.10564284E+02 0.10576110E+02 0.50000000E+00 0.0000E+00 0.9000E+01
        4 -1    0    0  501    0 0.00000000E+00 0.00000000E+00 -.26467826E+04 0.26467831E+04 0.15500000E+01 0.0000E+00 0.9000E+01
       25  1    1    2    0    0 -.12482835E+03 0.31207119E+02 -.16144396E+04 0.16243756E+04 0.12500000E+03 0.0000E+00 0.9000E+01
       24  1    1    2    0    0 0.12482835E+03 -.31207119E+02 -.10217787E+04 0.10329835E+04 0.80419002E+02 0.0000E+00 0.9000E+01
#aMCatNLO 1  0  0  1  2 0.93622991D+01 0.00000000D+00  -5  5  0 0.00000000D+00 0.00000000D+00 0.00000000D+00 0.00000000D+00 0.00000000D+00
  <mgrwgt>
 0.2655203247D-02    6    2    0
 0.167265297816492D+03 0.000000000000000D+00 0.000000000000000D+00 0.167265297816492D+03
 0.167265297816492D+03 0.000000000000000D+00 0.000000000000000D+00 -.167265297816492D+03
 0.180952811253494D+03 -.124828345082186D+03 0.312071193070764D+02 -.237259324187564D+02
 0.153577784379491D+03 0.124828345082186D+03 -.312071193070764D+02 0.237259324187564D+02
 0.000000000000000D+00 -.000000000000000D+00 0.000000000000000D+00 -.000000000000000D+00
 0.167718673866788D+03 0.000000000000000D+00 0.000000000000000D+00 0.167718673866788D+03
 0.223824801525014D+03 0.000000000000000D+00 0.000000000000000D+00 -.223824801525014D+03
 0.179171689716563D+03 -.123362528918976D+03 0.263867577671779D+02 -.237259324187564D+02
 0.155489888685947D+03 0.126086344439310D+03 -.353440717234143D+02 0.237259324187564D+02
 0.568818969892927D+02 -.272381552033429D+01 0.895731395623639D+01 -.561061276582256D+02
0.123532303230D-02 0.000000000000D+00 0.000000000000D+00 0.225202467990D-02 0.000000000000D+00  5 -3 4 25 24 21 0 0.16262191D-02 0.40719827D+00 0.27410886D+05 0.27410886D+05 0.27410886D+05 0.12190340D+01  1  2  2  1  5  1       -3 0.265555112136D-02 0.100000000000D+01
-.686203189928D-04 0.000000000000D+00 -.474396571205D-05 0.225202467990D-02 0.000000000000D+00  5 -3 4 25 24 21 2 0.16262191D-02 0.40719827D+00 0.27410886D+05 0.27410886D+05 0.27410886D+05 0.12190340D+01  1  2  3  1  5  1       -3 -.219209073028D-03 0.100000000000D+01
0.850541582229D-04 0.000000000000D+00 0.000000000000D+00 0.225202467990D-02 0.000000000000D+00  5 -3 4 25 24 21 2 0.16262191D-02 0.40719827D+00 0.27410886D+05 0.27410886D+05 0.27410886D+05 0.12190340D+01  1  2 15  1  5  1       -3 0.271707323062D-03 0.100000000000D+01
-.165435520669D-04 0.000000000000D+00 0.000000000000D+00 0.225202467990D-02 0.000000000000D+00  5 -3 4 25 24 21 2 0.16262191D-02 0.40719827D+00 0.27410886D+05 0.27410886D+05 0.27410886D+05 0.12190340D+01  1  2  4  1  5  1       -3 -.528487300323D-04 0.100000000000D+01
0.462029739172D-09 0.000000000000D+00 0.000000000000D+00 0.225202467990D-02 0.211230247964D-03  5 -3 4 25 24 21 2 0.16306270D-02 0.54488930D+00 0.29006386D+05 0.29006386D+05 0.29006386D+05 0.12164366D+01  1  2 11  1  5  1       -3 0.136077799526D-09 0.100000000000D+01
0.310838220174D-09 0.000000000000D+00 0.000000000000D+00 0.225202467990D-02 0.124531814133D-06  5 21 4 25 24 3 2 0.16306270D-02 0.54488930D+00 0.29006386D+05 0.29006386D+05 0.29006386D+05 0.12164366D+01  1  2 11  3  5  1       -3 0.246984747884D-08 0.100000000000D+01
  </mgrwgt>
  </event>
  <event>
  4     66 0.45252658E-03 0.11359050E+03 0.75467711E-02 0.11094017E+00
       -1 -1    0    0    0  501 0.00000000E+00 0.00000000E+00 0.61808903E+02 0.61809732E+02 0.32000000E+00 0.0000E+00 0.9000E+01
        2 -1    0    0  501    0 0.00000000E+00 0.00000000E+00 -.21040828E+03 0.21040852E+03 0.32000000E+00 0.0000E+00 0.9000E+01
       25  1    1    2    0    0 -.47248691E+02 0.55216392E+01 -.99269717E+02 0.16656051E+03 0.12500000E+03 0.0000E+00 0.9000E+01
       24  1    1    2    0    0 0.47248691E+02 -.55216392E+01 -.49329658E+02 0.10565774E+03 0.80419002E+02 0.0000E+00 0.9000E+01
#aMCatNLO 1  0  0  1  2 0.20601130D+03 0.00000000D+00  -5  5  0 0.00000000D+00 0.00000000D+00 0.00000000D+00 0.00000000D+00 0.00000000D+00
  <mgrwgt>
 0.3536220439D+00    3    2    0
 0.114040566326633D+03 0.000000000000000D+00 0.000000000000000D+00 0.114040566326633D+03
 0.114040566326633D+03 0.000000000000000D+00 0.000000000000000D+00 -.114040566326633D+03
 0.134116282233287D+03 -.472486905372092D+02 0.552163920177336D+01 -.996242456047032D+01
 0.939648504199795D+02 0.472486905372092D+02 -.552163920177336D+01 0.996242456047032D+01
 0.000000000000000D+00 0.000000000000000D+00 0.000000000000000D+00 -.000000000000000D+00
 0.222508317775362D+03 0.000000000000000D+00 0.000000000000000D+00 0.222508317775362D+03
 0.307811613424755D+03 0.000000000000000D+00 0.000000000000000D+00 -.307811613424755D+03
 0.221787556402401D+03 -.181910303054153D+03 -.193419728717412D+02 -.996242456047032D+01
 0.855585954894801D+02 -.206767266300731D+02 -.180632328364586D+02 0.996242456047032D+01
 0.222973779308236D+03 0.202587029684226D+03 0.374052057081998D+02 -.853032956493928D+02
0.308242230601D-03 0.000000000000D+00 0.000000000000D+00 0.289036864431D-02 0.000000000000D+00  5 -1 2 25 24 21 0 0.95091445D-02 0.32370587D-01 0.12902801D+05 0.12902801D+05 0.12902801D+05 0.12553487D+01  1  2  2  1  5  1       -1 0.346261791705D+00 0.100000000000D+01
-.171242427846D-04 0.000000000000D+00 -.118373132755D-05 0.289036864431D-02 0.000000000000D+00  5 -1 2 25 24 21 2 0.95091445D-02 0.32370587D-01 0.12902801D+05 0.12902801D+05 0.12902801D+05 0.12553487D+01  1  2  3  1  5  1       -1 -.303146504011D-01 0.100000000000D+01
0.212819270730D-04 0.000000000000D+00 0.000000000000D+00 0.289036864431D-02 0.000000000000D+00  5 -1 2 25 24 21 2 0.95091445D-02 0.32370587D-01 0.12902801D+05 0.12902801D+05 0.12902801D+05 0.12553487D+01  1  2 15  1  5  1       -1 0.376749026042D-01 0.100000000000D+01
  </mgrwgt>
  </event>
  <event>
  4     66 0.45252658E-03 0.10285844E+03 0.75467711E-02 0.11102278E+00
       -1 -1    0    0    0  501 0.00000000E+00 0.00000000E+00 0.29103403E+02 0.29105163E+02 0.32000000E+00 0.0000E+00 0.9000E+01
        2 -1    0    0  501    0 0.00000000E+00 0.00000000E+00 -.83437287E+03 0.83437293E+03 0.32000000E+00 0.0000E+00 0.9000E+01
       25  1    1    2    0    0 -.40277465E+01 -.35994623E+01 -.11959059E+03 0.17307827E+03 0.12500000E+03 0.0000E+00 0.9000E+01
       24  1    1    2    0    0 0.40277465E+01 0.35994623E+01 -.68567887E+03 0.69039982E+03 0.80419002E+02 0.0000E+00 0.9000E+01
#aMCatNLO 1  0  0  1  2 0.21291180D+03 0.00000000D+00  -5  5  0 0.00000000D+00 0.00000000D+00 0.00000000D+00 0.00000000D+00 0.00000000D+00
  <mgrwgt>
 0.2882245115D+00    5    2    0
 0.155832847455588D+03 0.000000000000000D+00 0.000000000000000D+00 0.155832847455588D+03
 0.155832847455588D+03 0.000000000000000D+00 0.000000000000000D+00 -.155832847455588D+03
 0.170524525422006D+03 -.402774649369777D+01 -.359946230936570D+01 0.115863863648966D+03
 0.141141169489171D+03 0.402774649369777D+01 0.359946230936570D+01 -.115863863648966D+03
 0.000000000000000D+00 0.000000000000000D+00 -.000000000000000D+00 0.000000000000000D+00
 0.623416190913970D+03 0.000000000000000D+00 0.000000000000000D+00 0.623416190913970D+03
 0.214794959661089D+03 0.000000000000000D+00 0.000000000000000D+00 -.214794959661089D+03
 0.204204519120456D+03 -.100678785840952D+02 0.112020929072948D+03 0.115863863648966D+03
 0.173243411074758D+03 -.103971337216042D+01 0.100600932514986D+03 -.115863863648966D+03
 0.460763220379845D+03 0.111075919562556D+02 -.212621861587934D+03 0.408621231252881D+03
0.371151081975D-03 0.000000000000D+00 0.000000000000D+00 0.116212474461D-02 0.000000000000D+00  5 -1 2 25 24 21 0 0.44775867D-02 0.12836520D+00 0.10579858D+05 0.10579858D+05 0.10579858D+05 0.12654860D+01  1  2  2  1  5  1       -1 0.280361434686D+00 0.100000000000D+01
-.162928120816D-04 0.000000000000D+00 -.142531788111D-05 0.116212474461D-02 0.000000000000D+00  5 -1 2 25 24 21 2 0.44775867D-02 0.12836520D+00 0.10579858D+05 0.10579858D+05 0.10579858D+05 0.12654860D+01  1  2  3  1  5  1       -1 -.197096225078D-01 0.100000000000D+01
0.253313284511D-04 0.000000000000D+00 0.000000000000D+00 0.116212474461D-02 0.000000000000D+00  5 -1 2 25 24 21 2 0.44775867D-02 0.12836520D+00 0.10579858D+05 0.10579858D+05 0.10579858D+05 0.12654860D+01  1  2 15  1  5  1       -1 0.306436310007D-01 0.100000000000D+01
0.142806695455D-04 0.000000000000D+00 -.150147170567D-03 0.116212474461D-02 0.000000000000D+00  5 -1 2 25 24 21 2 0.24516940D-01 0.12836520D+00 0.10579858D+05 0.10579858D+05 0.10579858D+05 0.12654860D+01  1  2  5  1  5  1       -1 0.128686370170D-02 0.100000000000D+01
-.392949507002D-05 0.000000000000D+00 -.312399093233D-04 0.116212474461D-02 0.000000000000D+00  5 21 2 25 24 1 2 0.24516940D-01 0.12836520D+00 0.10579858D+05 0.10579858D+05 0.10579858D+05 0.12654860D+01  1  2  5  3  5  1       -1 -.435779541549D-02 0.100000000000D+01
  </mgrwgt>
  </event>
  <event>
  5     66 0.45252658E-03 0.14166513E+03 0.75467711E-02 0.11505463E+00
       21 -1    0    0  502  501 0.00000000E+00 0.00000000E+00 0.18694706E+03 0.18694856E+03 0.75000000E+00 0.0000E+00 0.9000E+01
        4 -1    0    0  501    0 0.00000000E+00 0.00000000E+00 -.88014914E+03 0.88015051E+03 0.15500000E+01 0.0000E+00 0.9000E+01
       25  1    1    2    0    0 0.87911303E+02 -.41532390E+02 -.13315314E+02 0.15892021E+03 0.12500000E+03 0.0000E+00 0.9000E+01
       24  1    1    2    0    0 -.23626219E+02 0.11487485E+03 -.76538293E+03 0.77848101E+03 0.80419002E+02 0.0000E+00 0.9000E+01
        3  1    1    2  502    0 -.64285084E+02 -.73342458E+02 0.85496160E+02 0.12969785E+03 0.50000000E+00 0.0000E+00 0.9000E+01
#aMCatNLO 2  0  0  1  2 0.97527884D+02 0.00000000D+00  -5  5  0 0.00000000D+00 0.00000000D+00 0.00000000D+00 0.00000000D+00 0.00000000D+00
  <mgrwgt>
 0.1151855843D-01    2    2    0
 0.256338838551586D+03 0.000000000000000D+00 0.000000000000000D+00 0.256338838551586D+03
 0.256338838551586D+03 0.000000000000000D+00 0.000000000000000D+00 -.256338838551586D+03
 0.265270165635471D+03 0.549246458211530D+02 -.791666645235042D+02 0.213211592756853D+03
 0.247407511467701D+03 -.549246458211530D+02 0.791666645235042D+02 -.213211592756853D+03
 0.000000000000000D+00 -.000000000000000D+00 -.000000000000000D+00 0.000000000000000D+00
 0.614752615481995D+03 0.000000000000000D+00 0.000000000000000D+00 0.614752615481995D+03
 0.267656631221757D+03 0.000000000000000D+00 0.000000000000000D+00 -.267656631221757D+03
 0.265589005674311D+03 0.879113034101732D+02 -.415323895517652D+02 0.213211592756853D+03
 0.256282711116419D+03 -.236262190419270D+02 0.114874847336918D+03 -.213211592756853D+03
 0.360537529913022D+03 -.642850843682462D+02 -.733424577851531D+02 0.347095984260238D+03
-.789667110100D-04 0.000000000000D+00 0.000000000000D+00 0.674102866657D-03 0.000000000000D+00  5 21 4 25 24 3 2 0.28626723D-01 0.12968202D+00 0.39619335D+05 0.39619335D+05 0.39619335D+05 0.12024222D+01  1  2 13  3  5  1       -3 -.256626293526D-02 0.100000000000D+01
0.486885665236D-03 0.000000000000D+00 0.000000000000D+00 0.674102866657D-03 0.950155313950D-07  5 21 4 25 24 3 2 0.28761288D-01 0.13540770D+00 0.39619335D+05 0.39619335D+05 0.39619335D+05 0.12024222D+01  1  2  1  3  5  1       -3 0.140848213664D-01 0.100000000000D+01
  </mgrwgt>
  </event>
  <event>
  5     66 0.45252658E-03 0.10408517E+03 0.75467711E-02 0.12380068E+00
       21 -1    0    0  502  501 0.00000000E+00 0.00000000E+00 0.72051420E+02 0.72055324E+02 0.75000000E+00 0.0000E+00 0.9000E+01
        2 -1    0    0  501    0 0.00000000E+00 0.00000000E+00 -.22656539E+03 0.22656562E+03 0.32000000E+00 0.0000E+00 0.9000E+01
       25  1    1    2    0    0 -.23232689E+02 0.60994626E+01 -.68981136E+02 0.14477693E+03 0.12500000E+03 0.0000E+00 0.9000E+01
       24  1    1    2    0    0 0.40090915E+01 0.23337720E+02 -.31864915E+02 0.89684507E+02 0.80419002E+02 0.0000E+00 0.9000E+01
        1  1    1    2  502    0 0.19223597E+02 -.29437182E+02 -.53667922E+02 0.64159509E+02 0.32000000E+00 0.0000E+00 0.9000E+01
#aMCatNLO 2  0  0  1  2 0.35158134D+02 0.00000000D+00  -5  5  0 0.00000000D+00 0.00000000D+00 0.00000000D+00 0.00000000D+00 0.00000000D+00
  <mgrwgt>
 0.9742224305D-01    1    2    0
 0.104362521009945D+03 0.000000000000000D+00 0.000000000000000D+00 0.104362521009945D+03
 0.104362521009945D+03 0.000000000000000D+00 0.000000000000000D+00 -.104362521009945D+03
 0.126299955917149D+03 -.116267629386088D+02 -.116727446249162D+02 -.743264967320944D+01
 0.824250861027413D+02 0.116267629386088D+02 0.116727446249162D+02 0.743264967320944D+01
 0.000000000000000D+00 0.000000000000000D+00 -.000000000000000D+00 -.000000000000000D+00
 0.114142225970852D+03 0.000000000000000D+00 0.000000000000000D+00 0.114142225970852D+03
 0.143021750817539D+03 0.000000000000000D+00 0.000000000000000D+00 -.143021750817539D+03
 0.127503747211398D+03 -.232326887852911D+02 0.609946256561516D+01 -.743264967320944D+01
 0.841616433460732D+02 0.400909146576575D+01 0.233377196999954D+02 0.743264967320944D+01
 0.454985862309198D+02 0.192235973195253D+02 -.294371822656106D+02 -.288795248466869D+02
0.512339899066D-05 0.000000000000D+00 0.000000000000D+00 0.317136184153D-02 0.422490874256D-06  5 21 2 25 24 1 2 0.11085099D-01 0.34856368D-01 0.15163196D+05 0.15163196D+05 0.15163196D+05 0.12472871D+01  1  2  1  3  5  1       -1 0.974222430545D-01 0.100000000000D+01
  </mgrwgt>
  </event>
  <event>
  4     66 0.45252658E-03 0.62969853E+02 0.75467711E-02 0.12317510E+00
       -1 -1    0    0    0  501 0.00000000E+00 0.00000000E+00 0.49328583E+01 0.49432267E+01 0.32000000E+00 0.0000E+00 0.9000E+01
        2 -1    0    0  501    0 0.00000000E+00 0.00000000E+00 -.25740692E+04 0.25740692E+04 0.32000000E+00 0.0000E+00 0.9000E+01
       25  1    1    2    0    0 -.11261212E+02 0.67210490E+01 -.20151736E+04 0.20190893E+04 0.12500000E+03 0.0000E+00 0.9000E+01
       24  1    1    2    0    0 0.11261212E+02 -.67210490E+01 -.55396266E+03 0.55992306E+03 0.80419002E+02 0.0000E+00 0.9000E+01
#aMCatNLO 1  0  0  2  1 0.42910934D+02 0.00000000D+00  -5  5  0 0.00000000D+00 0.00000000D+00 0.00000000D+00 0.00000000D+00 0.00000000D+00
  <mgrwgt>
 0.6055691320D+00    9    2    0
 0.112742689966115D+03 0.000000000000000D+00 0.000000000000000D+00 0.112742689966115D+03
 0.112742689966115D+03 0.000000000000000D+00 0.000000000000000D+00 -.112742689966115D+03
 0.133049514400546D+03 -.112612115500223D+02 0.672104895496441D+01 -.436484352250084D+02
 0.924358655316846D+02 0.112612115500223D+02 -.672104895496441D+01 0.436484352250084D+02
 0.000000000000000D+00 0.000000000000000D+00 -.000000000000000D+00 -.000000000000000D+00
 0.122961935927298D+03 0.000000000000000D+00 0.000000000000000D+00 0.122961935927298D+03
 0.170933065896979D+03 0.000000000000000D+00 0.000000000000000D+00 -.170933065896979D+03
 0.137833438913130D+03 -.359838073995058D+02 0.131543373099117D+02 -.436484352250084D+02
 0.916987043905092D+02 -.554414477977753D+01 -.234797648978069D+01 0.436484352250084D+02
 0.643628585206386D+02 0.415279521792833D+02 -.108063608201310D+02 -.479711299696811D+02
0.397060999559D-03 0.000000000000D+00 0.000000000000D+00 0.256726655217D-02 0.000000000000D+00  5 -1 2 25 24 21 0 0.75970038D-03 0.39601144D+00 0.10729580D+05 0.10729580D+05 0.10729580D+05 0.12647600D+01  1  2  2  2  5  2        2 0.453475553743D+00 0.100000000000D+01
-.218664034756D-04 0.000000000000D+00 -.152481878687D-05 0.256726655217D-02 0.000000000000D+00  5 -1 2 25 24 21 2 0.75970038D-03 0.39601144D+00 0.10729580D+05 0.10729580D+05 0.10729580D+05 0.12647600D+01  1  2  3  2  5  2        2 -.399475594430D-01 0.100000000000D+01
0.271038777719D-04 0.000000000000D+00 0.000000000000D+00 0.256726655217D-02 0.000000000000D+00  5 -1 2 25 24 21 2 0.75970038D-03 0.39601144D+00 0.10729580D+05 0.10729580D+05 0.10729580D+05 0.12647600D+01  1  2 15  2  5  2        2 0.495158597817D-01 0.100000000000D+01
0.287534711486D-03 0.000000000000D+00 0.000000000000D+00 0.256726655217D-02 0.000000000000D+00  5 -1 2 25 24 21 2 0.75970038D-03 0.61089173D+00 0.16166450D+05 0.16166450D+05 0.16166450D+05 0.12441318D+01  1  2 12  2  5  2        2 0.695184973274D-01 0.100000000000D+01
-.355266699176D-03 0.000000000000D+00 0.000000000000D+00 0.256726655217D-02 0.000000000000D+00  5 -1 2 25 24 21 2 0.75970038D-03 0.39601144D+00 0.10729580D+05 0.10729580D+05 0.10729580D+05 0.12647600D+01  1  2  4  2  5  2        2 -.649033920887D+00 0.100000000000D+01
-.437812408494D-03 0.000000000000D+00 -.119026943998D-03 0.256726655217D-02 0.000000000000D+00  5 -1 2 25 24 21 2 0.75970038D-03 0.61006327D+00 0.10729580D+05 0.10729580D+05 0.10729580D+05 0.12647600D+01  1  2  5  2  5  2        2 -.111491035183D+00 0.100000000000D+01
0.456287767121D-03 0.000000000000D+00 0.108717727699D-03 0.256726655217D-02 0.000000000000D+00  5 -1 2 25 24 21 2 0.75970038D-03 0.39601144D+00 0.10729580D+05 0.10729580D+05 0.10729580D+05 0.12647600D+01  1  2  6  2  5  2        2 0.833588510363D+00 0.100000000000D+01
0.145264597025D-04 0.000000000000D+00 0.000000000000D+00 0.256726655217D-02 0.000000000000D+00  5 -1 21 25 24 -2 2 0.75970038D-03 0.61089173D+00 0.16166450D+05 0.16166450D+05 0.16166450D+05 0.12441318D+01  1  2 12  4  5  2        2 0.168629910419D-03 0.100000000000D+01
-.175673096152D-04 0.000000000000D+00 -.599922610355D-05 0.256726655217D-02 0.000000000000D+00  5 -1 21 25 24 -2 2 0.75970038D-03 0.61006327D+00 0.10729580D+05 0.10729580D+05 0.10729580D+05 0.12647600D+01  1  2  5  4  5  2        2 -.225403613404D-03 0.100000000000D+01
  </mgrwgt>
  </event>
  <event>
  4     66 0.45252658E-03 0.74816826E+02 0.75467711E-02 0.12052042E+00
       -1 -1    0    0    0  501 0.00000000E+00 0.00000000E+00 0.13013348E+02 0.13017282E+02 0.32000000E+00 0.0000E+00 0.9000E+01
        2 -1    0    0  501    0 0.00000000E+00 0.00000000E+00 -.98493382E+03 0.98493388E+03 0.32000000E+00 0.0000E+00 0.9000E+01
       25  1    1    2    0    0 -.16735108E+02 0.43554649E+02 -.56291733E+03 0.57851360E+03 0.12500000E+03 0.0000E+00 0.9000E+01
       24  1    1    2    0    0 0.16735108E+02 -.43554649E+02 -.40900315E+03 0.41943755E+03 0.80419002E+02 0.0000E+00 0.9000E+01
#aMCatNLO 1  0  0  1  2 0.58573935D+02 0.00000000D+00  -5  5  0 0.00000000D+00 0.00000000D+00 0.00000000D+00 0.00000000D+00 0.00000000D+00
  <mgrwgt>
 0.2298957320D+00    7    2    0
 0.113222239836428D+03 0.000000000000000D+00 0.000000000000000D+00 0.113222239836428D+03
 0.113222239836428D+03 0.000000000000000D+00 0.000000000000000D+00 -.113222239836428D+03
 0.133443055240848D+03 -.167351077084593D+02 0.435546485566263D+02 0.223108742701144D+01
 0.930014244320079D+02 0.167351077084593D+02 -.435546485566263D+02 -.223108742701144D+01
 0.000000000000000D+00 0.000000000000000D+00 0.000000000000000D+00 0.000000000000000D+00
 0.223621531257164D+03 0.000000000000000D+00 0.000000000000000D+00 0.223621531257164D+03
 0.124989437603481D+03 0.000000000000000D+00 0.000000000000000D+00 -.124989437603481D+03
 0.137199503445397D+03 -.481854509488973D+02 0.295277549334170D+02 0.223108742701144D+01
 0.966979275774185D+02 -.530913308702332D+01 -.533864083653737D+02 -.223108742701144D+01
 0.114713537837830D+03 0.534945840359206D+02 0.238586534319566D+02 0.986320936536829D+02
0.165128296034D-03 0.000000000000D+00 0.000000000000D+00 0.292778127564D-02 0.000000000000D+00  5 -1 2 25 24 21 0 0.20023602D-02 0.15152859D+00 0.12814134D+05 0.12814134D+05 0.12814134D+05 0.12556967D+01  1  2  2  1  5  1       -1 0.324539266993D+00 0.100000000000D+01
-.917379377529D-05 0.000000000000D+00 -.634136136048D-06 0.292778127564D-02 0.000000000000D+00  5 -1 2 25 24 21 2 0.20023602D-02 0.15152859D+00 0.12814134D+05 0.12814134D+05 0.12814134D+05 0.12556967D+01  1  2  3  1  5  1       -1 -.284291717408D-01 0.100000000000D+01
0.114134640259D-04 0.000000000000D+00 0.000000000000D+00 0.292778127564D-02 0.000000000000D+00  5 -1 2 25 24 21 2 0.20023602D-02 0.15152859D+00 0.12814134D+05 0.12814134D+05 0.12814134D+05 0.12556967D+01  1  2 15  1  5  1       -1 0.353698084891D-01 0.100000000000D+01
0.109037480198D-03 0.000000000000D+00 0.000000000000D+00 0.292778127564D-02 0.000000000000D+00  5 -1 2 25 24 21 2 0.39644045D-02 0.15152859D+00 0.21378458D+05 0.21378458D+05 0.21378458D+05 0.12306520D+01  1  2 12  1  5  1       -1 0.122258623745D+00 0.100000000000D+01
-.175166605720D-03 0.000000000000D+00 -.471465870194D-04 0.292778127564D-02 0.000000000000D+00  5 -1 2 25 24 21 2 0.43718517D-02 0.15152859D+00 0.12814134D+05 0.12814134D+05 0.12814134D+05 0.12556967D+01  1  2  5  1  5  1       -1 -.175063828493D+00 0.100000000000D+01
0.806252100267D-05 0.000000000000D+00 0.000000000000D+00 0.292778127564D-02 0.000000000000D+00  5 21 2 25 24 1 2 0.39644045D-02 0.15152859D+00 0.21378458D+05 0.21378458D+05 0.21378458D+05 0.12306520D+01  1  2 12  3  5  1       -1 0.165238576135D+00 0.100000000000D+01
-.118539712797D-04 0.000000000000D+00 -.398830706097D-05 0.292778127564D-02 0.000000000000D+00  5 21 2 25 24 1 2 0.43718517D-02 0.15152859D+00 0.12814134D+05 0.12814134D+05 0.12814134D+05 0.12556967D+01  1  2  5  3  5  1       -1 -.214017543117D+00 0.100000000000D+01
  </mgrwgt>
  </event>
  <event>
  5     66 0.45252658E-03 0.10453145E+03 0.75467711E-02 0.12618822E+00
       -1 -1    0    0    0  502 0.00000000E+00 0.00000000E+00 0.16447998E+02 0.16451111E+02 0.32000000E+00 0.0000E+00 0.9000E+01
        2 -1    0    0  501    0 0.00000000E+00 0.00000000E+00 -.84324113E+03 0.84324119E+03 0.32000000E+00 0.0000E+00 0.9000E+01
       25  1    1    2    0    0 0.55577244E+01 0.23082563E+02 -.31795063E+03 0.34246357E+03 0.12500000E+03 0.0000E+00 0.9000E+01
       24  1    1    2    0    0 0.58596885E+00 -.16034586E+02 -.42301406E+03 0.43088927E+03 0.80419002E+02 0.0000E+00 0.9000E+01
       21  1    1    2  501  502 -.61436932E+01 -.70479778E+01 -.85828445E+02 0.86339466E+02 0.75000000E+00 0.0000E+00 0.9000E+01
#aMCatNLO 2  0  0  1  1 0.93498106D+01 0.00000000D+00  -5  5  0 0.00000000D+00 0.00000000D+00 0.00000000D+00 0.00000000D+00 0.00000000D+00
  <mgrwgt>
 0.1110115765D+00    1    2    0
 0.110632863073047D+03 0.000000000000000D+00 0.000000000000000D+00 0.110632863073047D+03
 0.110632863073047D+03 0.000000000000000D+00 0.000000000000000D+00 -.110632863073047D+03
 0.131326949331085D+03 0.190220079816122D+01 0.188889866332528D+02 0.355155661182773D+02
 0.899387768150089D+02 -.190220079816122D+01 -.188889866332528D+02 -.355155661182773D+02
 0.000000000000000D+00 -.000000000000000D+00 -.000000000000000D+00 -.000000000000000D+00
 0.112469014994147D+03 0.000000000000000D+00 0.000000000000000D+00 0.112469014994147D+03
 0.123310404342076D+03 0.000000000000000D+00 0.000000000000000D+00 -.123310404342076D+03
 0.132098631596116D+03 0.555772437468394D+01 0.230825633897068D+02 0.355155661182773D+02
 0.893645493729770D+02 0.585968854619235D+00 -.160345855594838D+02 -.355155661182773D+02
 0.143162383671299D+02 -.614369322930318D+01 -.704797783022300D+01 -.108413893479287D+02
0.408451480805D-04 0.000000000000D+00 0.000000000000D+00 0.273505401795D-02 0.266145577284D-03  5 -1 2 25 24 21 2 0.25304870D-02 0.12971846D+00 0.11945252D+05 0.11945252D+05 0.11945252D+05 0.12592569D+01  1  2  1  1  5  1       -1 0.111011576463D+00 0.100000000000D+01
  </mgrwgt>
  </event>
  <event>
  4     66 0.45252658E-03 0.90068679E+02 0.75467711E-02 0.12192836E+00
       -1 -1    0    0    0  501 0.00000000E+00 0.00000000E+00 0.16810040E+02 0.16813086E+02 0.32000000E+00 0.0000E+00 0.9000E+01
        2 -1    0    0  501    0 0.00000000E+00 0.00000000E+00 -.73607907E+03 0.73607914E+03 0.32000000E+00 0.0000E+00 0.9000E+01
       25  1    1    2    0    0 0.21749297E+02 -.28832697E+02 -.49778116E+03 0.51450504E+03 0.12500000E+03 0.0000E+00 0.9000E+01
       24  1    1    2    0    0 -.21749297E+02 0.28832697E+02 -.22148787E+03 0.23838718E+03 0.80419002E+02 0.0000E+00 0.9000E+01
#aMCatNLO 1  0  0  1  2 0.47984672D+02 0.00000000D+00  -5  5  0 0.00000000D+00 0.00000000D+00 0.00000000D+00 0.00000000D+00 0.00000000D+00
  <mgrwgt>
 0.2569351939D+00    9    2    0
 0.111241591195642D+03 0.000000000000000D+00 0.000000000000000D+00 0.111241591195642D+03
 0.111241591195642D+03 0.000000000000000D+00 0.000000000000000D+00 -.111241591195642D+03
 0.131822436784059D+03 0.217492973105514D+02 -.288326971579600D+02 -.211612495089930D+02
 0.906607456072240D+02 -.217492973105514D+02 0.288326971579600D+02 0.211612495089930D+02
 0.000000000000000D+00 -.000000000000000D+00 0.000000000000000D+00 0.000000000000000D+00
 0.196801575988833D+03 0.000000000000000D+00 0.000000000000000D+00 0.196801575988833D+03
 0.120734642805176D+03 0.000000000000000D+00 0.000000000000000D+00 -.120734642805176D+03
 0.142504770834674D+03 0.346709396089796D+02 -.550702930488979D+02 -.211612495089930D+02
 0.850942081384140D+02 -.134707067026732D+02 0.120228900220322D+02 0.211612495089930D+02
 0.899372398209214D+02 -.212002329063064D+02 0.430474030268657D+02 0.760669331836567D+02
0.135874810141D-03 0.000000000000D+00 0.000000000000D+00 0.288767356827D-02 0.000000000000D+00  5 -1 2 25 24 21 0 0.25863997D-02 0.11324317D+00 0.11910381D+05 0.11910381D+05 0.11910381D+05 0.12594058D+01  1  2  2  1  5  1       -1 0.266492576179D+00 0.100000000000D+01
-.754524478963D-05 0.000000000000D+00 -.521795047602D-06 0.288767356827D-02 0.000000000000D+00  5 -1 2 25 24 21 2 0.25863997D-02 0.11324317D+00 0.11910381D+05 0.11910381D+05 0.11910381D+05 0.12594058D+01  1  2  3  1  5  1       -1 -.234720436042D-01 0.100000000000D+01
0.939947363159D-05 0.000000000000D+00 0.000000000000D+00 0.288767356827D-02 0.000000000000D+00  5 -1 2 25 24 21 2 0.25863997D-02 0.11324317D+00 0.11910381D+05 0.11910381D+05 0.11910381D+05 0.12594058D+01  1  2 15  1  5  1       -1 0.292402514548D-01 0.100000000000D+01
0.122076950637D-03 0.000000000000D+00 0.000000000000D+00 0.288767356827D-02 0.000000000000D+00  5 -1 2 25 24 21 2 0.46111977D-02 0.11324317D+00 0.18405066D+05 0.18405066D+05 0.18405066D+05 0.12378194D+01  1  2 12  1  5  1       -1 0.160348034971D+00 0.100000000000D+01
-.149955481405D-03 0.000000000000D+00 0.000000000000D+00 0.288767356827D-02 0.000000000000D+00  5 -1 2 25 24 21 2 0.25863997D-02 0.11324317D+00 0.11910381D+05 0.11910381D+05 0.11910381D+05 0.12594058D+01  1  2  4  1  5  1       -1 -.466487396547D+00 0.100000000000D+01
-.165435694134D-03 0.000000000000D+00 -.405398888257D-04 0.288767356827D-02 0.000000000000D+00  5 -1 2 25 24 21 2 0.49624321D-02 0.11324317D+00 0.11910381D+05 0.11910381D+05 0.11910381D+05 0.12594058D+01  1  2  5  1  5  1       -1 -.199362793888D+00 0.100000000000D+01
0.163256276920D-03 0.000000000000D+00 0.332313234365D-04 0.288767356827D-02 0.000000000000D+00  5 -1 2 25 24 21 2 0.25863997D-02 0.11324317D+00 0.11910381D+05 0.11910381D+05 0.11910381D+05 0.12594058D+01  1  2  6  1  5  1       -1 0.507864033223D+00 0.100000000000D+01
0.775894459075D-05 0.000000000000D+00 0.000000000000D+00 0.288767356827D-02 0.000000000000D+00  5 21 2 25 24 1 2 0.46111977D-02 0.11324317D+00 0.18405066D+05 0.18405066D+05 0.18405066D+05 0.12378194D+01  1  2 12  3  5  1       -1 0.181210691689D+00 0.100000000000D+01
-.936043818026D-05 0.000000000000D+00 -.286718285092D-05 0.288767356827D-02 0.000000000000D+00  5 21 2 25 24 1 2 0.49624321D-02 0.11324317D+00 0.11910381D+05 0.11910381D+05 0.11910381D+05 0.12594058D+01  1  2  5  3  5  1       -1 -.198898159561D+00 0.100000000000D+01
  </mgrwgt>
  </event>
  <event>
  4     66 0.45252658E-03 0.66056960E+02 0.75467711E-02 0.12132091E+00
       -3 -1    0    0    0  501 0.00000000E+00 0.00000000E+00 0.42038415E+02 0.42041389E+02 0.50000000E+00 0.0000E+00 0.9000E+01
        4 -1    0    0  501    0 0.00000000E+00 0.00000000E+00 -.36723561E+03 0.36723888E+03 0.15500000E+01 0.0000E+00 0.9000E+01
       25  1    1    2    0    0 -.40180851E+02 -.54234293E+02 -.20860913E+03 0.25238587E+03 0.12500000E+03 0.0000E+00 0.9000E+01
       24  1    1    2    0    0 0.40180851E+02 0.54234293E+02 -.11658807E+03 0.15689440E+03 0.80419002E+02 0.0000E+00 0.9000E+01
#aMCatNLO 1  0  0  1  2 0.31199780D+02 0.00000000D+00  -5  5  0 0.00000000D+00 0.00000000D+00 0.00000000D+00 0.00000000D+00 0.00000000D+00
  <mgrwgt>
 0.3013323536D-01    9    2    0
 0.124254903139014D+03 0.000000000000000D+00 0.000000000000000D+00 0.124254903139014D+03
 0.124254903139014D+03 0.000000000000000D+00 0.000000000000000D+00 -.124254903139014D+03
 0.142680300878417D+03 -.401808507229124D+02 -.542342934674863D+02 -.132969510046927D+02
 0.105829505399610D+03 0.401808507229124D+02 0.542342934674863D+02 0.132969510046927D+02
 0.000000000000000D+00 0.000000000000000D+00 0.000000000000000D+00 0.000000000000000D+00
 0.199019717532988D+03 0.000000000000000D+00 0.000000000000000D+00 0.199019717532988D+03
 0.128528326983793D+03 0.000000000000000D+00 0.000000000000000D+00 -.128528326983793D+03
 0.151532500700829D+03 -.562222167326138D+02 -.632404317529265D+02 -.132969510046927D+02
 0.989281750507318D+02 0.290168467170679D+02 0.479664629201976D+02 0.132969510046927D+02
 0.770873687652202D+02 0.272053700155460D+02 0.152739688327289D+02 0.704913905491948D+02
0.275448860364D-03 0.000000000000D+00 0.000000000000D+00 0.268070828796D-02 0.000000000000D+00  5 -3 4 25 24 21 0 0.64679289D-02 0.56498267D-01 0.15258449D+05 0.15258449D+05 0.15258449D+05 0.12469776D+01  1  2  2  1  5  1       -3 0.239411351743D-01 0.100000000000D+01
-.153020688107D-04 0.000000000000D+00 -.105779615115D-05 0.268070828796D-02 0.000000000000D+00  5 -3 4 25 24 21 2 0.64679289D-02 0.56498267D-01 0.15258449D+05 0.15258449D+05 0.15258449D+05 0.12469776D+01  1  2  3  1  5  1       -3 -.206809858016D-02 0.100000000000D+01
0.190445829782D-04 0.000000000000D+00 0.000000000000D+00 0.268070828796D-02 0.000000000000D+00  5 -3 4 25 24 21 2 0.64679289D-02 0.56498267D-01 0.15258449D+05 0.15258449D+05 0.15258449D+05 0.12469776D+01  1  2 15  1  5  1       -3 0.257390523492D-02 0.100000000000D+01
0.687422197774D-03 0.000000000000D+00 0.000000000000D+00 0.268070828796D-02 0.000000000000D+00  5 -3 4 25 24 21 2 0.10414715D-01 0.56498267D-01 0.19624960D+05 0.19624960D+05 0.19624960D+05 0.12347322D+01  1  2 12  1  5  1       -3 0.428735385852D-01 0.100000000000D+01
-.661328897251D-03 0.000000000000D+00 0.000000000000D+00 0.268070828796D-02 0.000000000000D+00  5 -3 4 25 24 21 2 0.64679289D-02 0.56498267D-01 0.15258449D+05 0.15258449D+05 0.15258449D+05 0.12469776D+01  1  2  4  1  5  1       -3 -.893796368547D-01 0.100000000000D+01
-.760421654045D-03 0.000000000000D+00 -.919781741851D-04 0.268070828796D-02 0.000000000000D+00  5 -3 4 25 24 21 2 0.10674840D-01 0.56498267D-01 0.15258449D+05 0.15258449D+05 0.15258449D+05 0.12469776D+01  1  2  5  1  5  1       -3 -.454618367246D-01 0.100000000000D+01
0.724144835174D-03 0.000000000000D+00 0.815289955655D-04 0.268070828796D-02 0.000000000000D+00  5 -3 4 25 24 21 2 0.64679289D-02 0.56498267D-01 0.15258449D+05 0.15258449D+05 0.15258449D+05 0.12469776D+01  1  2  6  1  5  1       -3 0.978693093061D-01 0.100000000000D+01
0.373153670043D-04 0.000000000000D+00 0.000000000000D+00 0.268070828796D-02 0.000000000000D+00  5 21 4 25 24 3 2 0.10414715D-01 0.56498267D-01 0.19624960D+05 0.19624960D+05 0.19624960D+05 0.12347322D+01  1  2 12  3  5  1       -3 0.531198236250D-01 0.100000000000D+01
-.387864962594D-04 0.000000000000D+00 -.519446330670D-05 0.268070828796D-02 0.000000000000D+00  5 21 4 25 24 3 2 0.10674840D-01 0.56498267D-01 0.15258449D+05 0.15258449D+05 0.15258449D+05 0.12469776D+01  1  2  5  3  5  1       -3 -.533349044019D-01 0.100000000000D+01
  </mgrwgt>
  </event>
  <event>
  4     66 0.45252658E-03 0.92607706E+02 0.75467711E-02 0.12096213E+00
       -1 -1    0    0    0  501 0.00000000E+00 0.00000000E+00 0.99745470E+01 0.99796787E+01 0.32000000E+00 0.0000E+00 0.9000E+01
        2 -1    0    0  501    0 0.00000000E+00 0.00000000E+00 -.18395147E+04 0.18395147E+04 0.32000000E+00 0.0000E+00 0.9000E+01
       25  1    1    2    0    0 0.35379905E+02 -.79471759E+02 -.99469357E+03 0.10062842E+04 0.12500000E+03 0.0000E+00 0.9000E+01
       24  1    1    2    0    0 -.35379905E+02 0.79471759E+02 -.83484656E+03 0.84321023E+03 0.80419002E+02 0.0000E+00 0.9000E+01
#aMCatNLO 1  0  0  2  1 0.14439583D+02 0.00000000D+00  -5  5  0 0.00000000D+00 0.00000000D+00 0.00000000D+00 0.00000000D+00 0.00000000D+00
  <mgrwgt>
 0.8474530012D+00    9    2    0
 0.135473601967489D+03 0.000000000000000D+00 0.000000000000000D+00 0.135473601967489D+03
 0.135473601967489D+03 0.000000000000000D+00 0.000000000000000D+00 -.135473601967489D+03
 0.152373174859607D+03 0.353799052375785D+02 -.794717594450643D+02 0.500860987522454D+01
 0.118574029075371D+03 -.353799052375785D+02 0.794717594450643D+02 -.500860987522454D+01
 0.000000000000000D+00 0.000000000000000D+00 0.000000000000000D+00 -.000000000000000D+00
 0.141629544683293D+03 0.000000000000000D+00 0.000000000000000D+00 0.141629544683293D+03
 0.144406296451868D+03 0.000000000000000D+00 0.000000000000000D+00 -.144406296451868D+03
 0.153458203992458D+03 0.286927746367660D+02 -.841193133789882D+02 0.500860987522454D+01
 0.117873491307836D+03 -.405499288465868D+02 0.758785944544468D+02 -.500860987522454D+01
 0.147041458348674D+02 0.118571542098208D+02 0.824071892454143D+01 -.277675176857464D+01
0.276830786246D-03 0.000000000000D+00 0.000000000000D+00 0.254790946613D-02 0.000000000000D+00  5 -1 2 25 24 21 0 0.15349426D-02 0.28300265D+00 0.18327614D+05 0.18327614D+05 0.18327614D+05 0.12380231D+01  1  2  2  2  5  2        2 0.281217053997D+00 0.100000000000D+01
-.153794790996D-04 0.000000000000D+00 -.106310311041D-05 0.254790946613D-02 0.000000000000D+00  5 -1 2 25 24 21 2 0.15349426D-02 0.28300265D+00 0.18327614D+05 0.18327614D+05 0.18327614D+05 0.12380231D+01  1  2  3  2  5  2        2 -.239456379457D-01 0.100000000000D+01
0.191298828806D-04 0.000000000000D+00 0.000000000000D+00 0.254790946613D-02 0.000000000000D+00  5 -1 2 25 24 21 2 0.15349426D-02 0.28300265D+00 0.18327614D+05 0.18327614D+05 0.18327614D+05 0.12380231D+01  1  2 15  2  5  2        2 0.297849651758D-01 0.100000000000D+01
0.573448359920D-03 0.000000000000D+00 0.000000000000D+00 0.254790946613D-02 0.000000000000D+00  5 -1 2 25 24 21 2 0.15349426D-02 0.30773500D+00 0.20389421D+05 0.20389421D+05 0.20389421D+05 0.12329051D+01  1  2 12  2  5  2        2 0.733935671636D+00 0.100000000000D+01
-.500906388041D-03 0.000000000000D+00 0.000000000000D+00 0.254790946613D-02 0.000000000000D+00  5 -1 2 25 24 21 2 0.15349426D-02 0.28300265D+00 0.18327614D+05 0.18327614D+05 0.18327614D+05 0.12380231D+01  1  2  4  2  5  2        2 -.779904373555D+00 0.100000000000D+01
-.208612310603D-02 0.000000000000D+00 -.384451803926D-03 0.254790946613D-02 0.000000000000D+00  5 -1 2 25 24 21 2 0.15349426D-02 0.30842419D+00 0.18327614D+05 0.18327614D+05 0.18327614D+05 0.12380231D+01  1  2  5  2  5  2        2 -.267424044443D+01 0.100000000000D+01
0.211279003942D-02 0.000000000000D+00 0.383033818887D-03 0.254790946613D-02 0.000000000000D+00  5 -1 2 25 24 21 2 0.15349426D-02 0.28300265D+00 0.18327614D+05 0.18327614D+05 0.18327614D+05 0.12380231D+01  1  2  6  2  5  2        2 0.328958510309D+01 0.100000000000D+01
0.797956905772D-05 0.000000000000D+00 0.000000000000D+00 0.254790946613D-02 0.000000000000D+00  5 -1 21 25 24 -2 2 0.15349426D-02 0.30773500D+00 0.20389421D+05 0.20389421D+05 0.20389421D+05 0.12329051D+01  1  2 12  4  5  2        2 0.342063961211D-02 0.100000000000D+01
-.287556931713D-04 0.000000000000D+00 -.547550344277D-05 0.254790946613D-02 0.000000000000D+00  5 -1 21 25 24 -2 2 0.15349426D-02 0.30842419D+00 0.18327614D+05 0.18327614D+05 0.18327614D+05 0.12380231D+01  1  2  5  4  5  2        2 -.123999763727D-01 0.100000000000D+01
  </mgrwgt>
  </event>
  <event>
  4     66 0.45252658E-03 0.55283544E+02 0.75467711E-02 0.12103279E+00
       -1 -1    0    0    0  501 0.00000000E+00 0.00000000E+00 0.21635832E+02 0.21638198E+02 0.32000000E+00 0.0000E+00 0.9000E+01
        2 -1    0    0  501    0 0.00000000E+00 0.00000000E+00 -.60276164E+03 0.60276172E+03 0.32000000E+00 0.0000E+00 0.9000E+01
       25  1    1    2    0    0 -.25090253E+02 -.25281012E+02 -.43343173E+03 0.45250051E+03 0.12500000E+03 0.0000E+00 0.9000E+01
       24  1    1    2    0    0 0.25090253E+02 0.25281012E+02 -.14769408E+03 0.17189941E+03 0.80419002E+02 0.0000E+00 0.9000E+01
#aMCatNLO 1  0  0  2  1 0.58735917D+02 0.00000000D+00  -5  5  0 0.00000000D+00 0.00000000D+00 0.00000000D+00 0.00000000D+00 0.00000000D+00
  <mgrwgt>
 0.3516906260D+00    9    2    0
 0.114201640828059D+03 0.000000000000000D+00 0.000000000000000D+00 0.114201640828059D+03
 0.114201640828059D+03 0.000000000000000D+00 0.000000000000000D+00 -.114201640828059D+03
 0.134249041152668D+03 -.250902527041453D+02 -.252810119030912D+02 -.336028972978326D+02
 0.941542405034491D+02 0.250902527041453D+02 0.252810119030912D+02 0.336028972978326D+02
 0.000000000000000D+00 -.000000000000000D+00 0.000000000000000D+00 -.000000000000000D+00
 0.132699545017936D+03 0.000000000000000D+00 0.000000000000000D+00 0.132699545017936D+03
 0.176262810344625D+03 0.000000000000000D+00 0.000000000000000D+00 -.176262810344625D+03
 0.136682979441377D+03 0.378995524485659D+01 -.437460672678734D+02 -.336028972978326D+02
 0.991516384128474D+02 0.456958421380800D+02 0.121064755426379D+02 0.336028972978326D+02
 0.731277375083365D+02 -.494857973829365D+02 0.316395917252355D+02 -.435632653266892D+02
0.196171871673D-03 0.000000000000D+00 0.000000000000D+00 0.269149920928D-02 0.000000000000D+00  5 -1 2 25 24 21 0 0.33287781D-02 0.92732748D-01 0.11873300D+05 0.11873300D+05 0.11873300D+05 0.12595647D+01  1  2  2  2  5  2        2 0.336686887283D+00 0.100000000000D+01
-.108692383523D-04 0.000000000000D+00 -.753351640466D-06 0.269149920928D-02 0.000000000000D+00  5 -1 2 25 24 21 2 0.33287781D-02 0.92732748D-01 0.11873300D+05 0.11873300D+05 0.11873300D+05 0.12595647D+01  1  2  3  2  5  2        2 -.295957643011D-01 0.100000000000D+01
0.135589384373D-04 0.000000000000D+00 0.000000000000D+00 0.269149920928D-02 0.000000000000D+00  5 -1 2 25 24 21 2 0.33287781D-02 0.92732748D-01 0.11873300D+05 0.11873300D+05 0.11873300D+05 0.12595647D+01  1  2 15  2  5  2        2 0.369195276761D-01 0.100000000000D+01
0.842967871591D-04 0.000000000000D+00 0.000000000000D+00 0.269149920928D-02 0.000000000000D+00  5 -1 2 25 24 21 2 0.33287781D-02 0.14733214D+00 0.20236186D+05 0.20236186D+05 0.20236186D+05 0.12332651D+01  1  2 12  2  5  2        2 0.127238505453D+00 0.100000000000D+01
-.152846179604D-03 0.000000000000D+00 0.000000000000D+00 0.269149920928D-02 0.000000000000D+00  5 -1 2 25 24 21 2 0.33287781D-02 0.92732748D-01 0.11873300D+05 0.11873300D+05 0.11873300D+05 0.12595647D+01  1  2  4  2  5  2        2 -.416183669849D+00 0.100000000000D+01
-.182659639292D-03 0.000000000000D+00 -.787218200705D-04 0.269149920928D-02 0.000000000000D+00  5 -1 2 25 24 21 2 0.33287781D-02 0.15751386D+00 0.11873300D+05 0.11873300D+05 0.11873300D+05 0.12595647D+01  1  2  5  2  5  2        2 -.258748750355D+00 0.100000000000D+01
0.204829580475D-03 0.000000000000D+00 0.688336540218D-04 0.269149920928D-02 0.000000000000D+00  5 -1 2 25 24 21 2 0.33287781D-02 0.92732748D-01 0.11873300D+05 0.11873300D+05 0.11873300D+05 0.12595647D+01  1  2  6  2  5  2        2 0.557728866473D+00 0.100000000000D+01
0.447638974943D-05 0.000000000000D+00 0.000000000000D+00 0.269149920928D-02 0.000000000000D+00  5 -1 21 25 24 -2 2 0.33287781D-02 0.14733214D+00 0.20236186D+05 0.20236186D+05 0.20236186D+05 0.12332651D+01  1  2 12  4  5  2        2 0.613156761921D-02 0.100000000000D+01
-.700747176849D-05 0.000000000000D+00 -.464999554531D-05 0.269149920928D-02 0.000000000000D+00  5 -1 21 25 24 -2 2 0.33287781D-02 0.15751386D+00 0.11873300D+05 0.11873300D+05 0.11873300D+05 0.12595647D+01  1  2  5  4  5  2        2 -.848654399581D-02 0.100000000000D+01
  </mgrwgt>
  </event>
  <event>
  4     66 0.45252658E-03 0.18396489E+03 0.75467711E-02 0.10682318E+00
       -1 -1    0    0    0  501 0.00000000E+00 0.00000000E+00 0.40601375E+02 0.40602636E+02 0.32000000E+00 0.0000E+00 0.9000E+01
        2 -1    0    0  501    0 0.00000000E+00 0.00000000E+00 -.11360138E+04 0.11360139E+04 0.32000000E+00 0.0000E+00 0.9000E+01
       25  1    1    2    0    0 0.43825081E+02 0.14502142E+03 -.87795529E+03 0.89965680E+03 0.12500000E+03 0.0000E+00 0.9000E+01
       24  1    1    2    0    0 -.43825081E+02 -.14502142E+03 -.21745717E+03 0.27695972E+03 0.80419002E+02 0.0000E+00 0.9000E+01
#aMCatNLO 1  0  0  1  1 0.23768341D+03 0.00000000D+00  -5  5  0 0.00000000D+00 0.00000000D+00 0.00000000D+00 0.00000000D+00 0.00000000D+00
  <mgrwgt>
 0.3618981577D+00    5    2    0
 0.214766132124806D+03 0.000000000000000D+00 0.000000000000000D+00 0.214766132124806D+03
 0.214766132124806D+03 0.000000000000000D+00 0.000000000000000D+00 -.214766132124806D+03
 0.225426313917701D+03 0.438250807976929D+02 0.145021424398520D+03 -.110635309756975D+03
 0.204105950331911D+03 -.438250807976929D+02 -.145021424398520D+03 0.110635309756975D+03
 0.000000000000000D+00 -.000000000000000D+00 0.000000000000000D+00 0.000000000000000D+00
 0.472565783296055D+03 0.000000000000000D+00 0.000000000000000D+00 0.472565783296055D+03
 0.307641235878692D+03 0.000000000000000D+00 0.000000000000000D+00 -.307641235878692D+03
 0.199616073561113D+03 0.976847318471598D+02 0.493872273253142D+02 -.110635309756975D+03
 0.291292642737267D+03 0.189498238685686D+02 -.256485711432077D+03 0.110635309756975D+03
 0.289298302876367D+03 -.116634555715728D+03 0.207098484106763D+03 0.164924547417363D+03
0.107262961475D-02 0.000000000000D+00 0.000000000000D+00 0.158485920153D-02 0.000000000000D+00  5 -1 2 25 24 21 0 0.62464658D-02 0.17477146D+00 0.33843081D+05 0.33843081D+05 0.33843081D+05 0.12094423D+01  1  2  2  1  5  1       -1 0.331671634394D+00 0.100000000000D+01
-.578542237600D-04 0.000000000000D+00 -.411918015049D-05 0.158485920153D-02 0.000000000000D+00  5 -1 2 25 24 21 2 0.62464658D-02 0.17477146D+00 0.33843081D+05 0.33843081D+05 0.33843081D+05 0.12094423D+01  1  2  3  1  5  1       -1 -.261676024749D-01 0.100000000000D+01
0.734420946996D-04 0.000000000000D+00 0.000000000000D+00 0.158485920153D-02 0.000000000000D+00  5 -1 2 25 24 21 2 0.62464658D-02 0.17477146D+00 0.33843081D+05 0.33843081D+05 0.33843081D+05 0.12094423D+01  1  2 15  1  5  1       -1 0.332180334316D-01 0.100000000000D+01
0.506994973809D-04 0.000000000000D+00 -.319703628334D-03 0.158485920153D-02 0.000000000000D+00  5 -1 2 25 24 21 2 0.19990479D-01 0.17477146D+00 0.33843081D+05 0.33843081D+05 0.33843081D+05 0.12094423D+01  1  2  5  1  5  1       -1 0.377050656008D-02 0.100000000000D+01
0.206134646852D-04 0.000000000000D+00 -.428290662618D-04 0.158485920153D-02 0.000000000000D+00  5 21 2 25 24 1 2 0.19990479D-01 0.17477146D+00 0.33843081D+05 0.33843081D+05 0.33843081D+05 0.12094423D+01  1  2  5  3  5  1       -1 0.194055857792D-01 0.100000000000D+01
  </mgrwgt>
  </event>
  <event>
  5     66 -.45252658E-03 0.10532128E+03 0.75467711E-02 0.12509480E+00
       -1 -1    0    0    0  502 0.00000000E+00 0.00000000E+00 0.19874722E+02 0.19877298E+02 0.32000000E+00 0.0000E+00 0.9000E+01
        2 -1    0    0  501    0 0.00000000E+00 0.00000000E+00 -.71945847E+03 0.71945854E+03 0.32000000E+00 0.0000E+00 0.9000E+01
       25  1    1    2    0    0 -.11465547E+02 -.44260650E+01 -.28341572E+03 0.31000084E+03 0.12500000E+03 0.0000E+00 0.9000E+01
       24  1    1    2    0    0 0.30362783E+02 0.12980001E+01 -.35331618E+03 0.36362498E+03 0.80419002E+02 0.0000E+00 0.9000E+01
       21  1    1    2  501  502 -.18897236E+02 0.31280649E+01 -.62851839E+02 0.65710018E+02 0.75000000E+00 0.0000E+00 0.9000E+01
#aMCatNLO 2  0  0  1  2 0.19154381D+02 0.00000000D+00  -5  5  0 0.00000000D+00 0.00000000D+00 0.00000000D+00 0.00000000D+00 0.00000000D+00
  <mgrwgt>
 -.1125329210D+00    2    2    0
 0.109518642657131D+03 0.000000000000000D+00 0.000000000000000D+00 0.109518642657131D+03
 0.109518642657131D+03 0.000000000000000D+00 0.000000000000000D+00 -.109518642657131D+03
 0.130423266343665D+03 -.226351976015442D+02 -.257714958212412D+01 0.294318625527007D+02
 0.886140189705963D+02 0.226351976015442D+02 0.257714958212412D+01 -.294318625527007D+02
 0.000000000000000D+00 -.000000000000000D+00 0.000000000000000D+00 -.000000000000000D+00
 0.118446182591332D+03 0.000000000000000D+00 0.000000000000000D+00 0.118446182591332D+03
 0.120715336042869D+03 0.000000000000000D+00 0.000000000000000D+00 -.120715336042869D+03
 0.129004974171603D+03 -.114655473473213D+02 -.442606503806936D+01 0.294318625527007D+02
 0.908682226045278D+02 0.303627829301742D+02 0.129800013464362D+01 -.294318625527007D+02
 0.192883218580702D+02 -.188972355828530D+02 0.312806490342574D+01 -.226915345153614D+01
-.140563712051D-03 0.000000000000D+00 0.000000000000D+00 0.284194249107D-02 0.000000000000D+00  5 -1 2 25 24 21 2 0.31897305D-02 0.10041354D+00 0.13308723D+05 0.13308723D+05 0.13308723D+05 0.12537893D+01  1  2 13  1  5  1       -1 -.370175008072D+00 0.100000000000D+01
0.103123594333D-03 0.000000000000D+00 0.000000000000D+00 0.284194249107D-02 0.654751814324D-04  5 -1 2 25 24 21 2 0.30576666D-02 0.11067937D+00 0.13308723D+05 0.13308723D+05 0.13308723D+05 0.12537893D+01  1  2  1  1  5  1       -1 0.257642087031D+00 0.100000000000D+01
  </mgrwgt>
  </event>
  <event>
  4     66 0.45252658E-03 0.48421827E+02 0.75467711E-02 0.11861803E+00
       -1 -1    0    0    0  501 0.00000000E+00 0.00000000E+00 0.17810213E+02 0.17813087E+02 0.32000000E+00 0.0000E+00 0.9000E+01
        2 -1    0    0  501    0 0.00000000E+00 0.00000000E+00 -.73152130E+03 0.73152137E+03 0.32000000E+00 0.0000E+00 0.9000E+01
       25  1    1    2    0    0 0.39481394E+02 0.18970758E+02 -.34861578E+03 0.37292980E+03 0.12500000E+03 0.0000E+00 0.9000E+01
       24  1    1    2    0    0 -.39481394E+02 -.18970758E+02 -.36509531E+03 0.37640466E+03 0.80419002E+02 0.0000E+00 0.9000E+01
#aMCatNLO 1  0  0  2  1 0.84909250D+02 0.00000000D+00  -5  5  0 0.00000000D+00 0.00000000D+00 0.00000000D+00 0.00000000D+00 0.00000000D+00
  <mgrwgt>
 0.4840537186D+00    8    2    0
 0.114147506044595D+03 0.000000000000000D+00 0.000000000000000D+00 0.114147506044595D+03
 0.114147506044595D+03 0.000000000000000D+00 0.000000000000000D+00 -.114147506044595D+03
 0.134204413906541D+03 0.394813942347554D+02 0.189707584893620D+02 0.216137582020410D+02
 0.940905981826490D+02 -.394813942347554D+02 -.189707584893620D+02 -.216137582020410D+02
 0.000000000000000D+00 -.000000000000000D+00 0.000000000000000D+00 -.000000000000000D+00
 0.150377258839438D+03 0.000000000000000D+00 0.000000000000000D+00 0.150377258839438D+03
 0.184828952888264D+03 0.000000000000000D+00 0.000000000000000D+00 -.184828952888264D+03
 0.142297420052971D+03 0.585513947329531D+02 -.269839838597139D+02 0.216137582020410D+02
 0.101276374211104D+03 -.260071680152440D+02 -.514408464859161D+02 -.216137582020410D+02
 0.916324174636268D+02 -.325442267177091D+02 0.784248303456301D+02 -.344516940488253D+02
0.151368458773D-03 0.000000000000D+00 0.000000000000D+00 0.281810559942D-02 0.000000000000D+00  5 -1 2 25 24 21 0 0.27402592D-02 0.11254197D+00 0.12547025D+05 0.12547025D+05 0.12547025D+05 0.12567615D+01  1  2  2  2  5  2        2 0.275747643207D+00 0.100000000000D+01
-.840571728080D-05 0.000000000000D+00 -.581294737919D-06 0.281810559942D-02 0.000000000000D+00  5 -1 2 25 24 21 2 0.27402592D-02 0.11254197D+00 0.12547025D+05 0.12547025D+05 0.12547025D+05 0.12567615D+01  1  2  3  2  5  2        2 -.241856040915D-01 0.100000000000D+01
0.104801730851D-04 0.000000000000D+00 0.000000000000D+00 0.281810559942D-02 0.000000000000D+00  5 -1 2 25 24 21 2 0.27402592D-02 0.11254197D+00 0.12547025D+05 0.12547025D+05 0.12547025D+05 0.12567615D+01  1  2 15  2  5  2        2 0.301543947506D-01 0.100000000000D+01
0.879373685561D-05 0.000000000000D+00 0.000000000000D+00 0.281810559942D-02 0.000000000000D+00  5 -1 2 25 24 21 2 0.27402592D-02 0.19118618D+00 0.26324865D+05 0.26324865D+05 0.26324865D+05 0.12209006D+01  1  2 12  2  5  2        2 0.119079564595D-01 0.100000000000D+01
-.696854569517D-04 0.000000000000D+00 -.542659562862D-04 0.281810559942D-02 0.000000000000D+00  5 -1 2 25 24 21 2 0.27402592D-02 0.21730035D+00 0.12547025D+05 0.12547025D+05 0.12547025D+05 0.12567615D+01  1  2  5  2  5  2        2 -.798750352682D-01 0.100000000000D+01
0.941987827914D-04 0.000000000000D+00 0.443213863928D-04 0.281810559942D-02 0.000000000000D+00  5 -1 2 25 24 21 2 0.27402592D-02 0.11254197D+00 0.12547025D+05 0.12547025D+05 0.12547025D+05 0.12567615D+01  1  2  6  2  5  2        2 0.271036294749D+00 0.100000000000D+01
0.519538456546D-06 0.000000000000D+00 0.000000000000D+00 0.281810559942D-02 0.000000000000D+00  5 -1 21 25 24 -2 2 0.27402592D-02 0.19118618D+00 0.26324865D+05 0.26324865D+05 0.26324865D+05 0.12209006D+01  1  2 12  4  5  2        2 0.453858057176D-03 0.100000000000D+01
-.182004446984D-05 0.000000000000D+00 -.387271704712D-05 0.281810559942D-02 0.000000000000D+00  5 -1 21 25 24 -2 2 0.27402592D-02 0.21730035D+00 0.12547025D+05 0.12547025D+05 0.12547025D+05 0.12567615D+01  1  2  5  4  5  2        2 -.118578925341D-02 0.100000000000D+01
  </mgrwgt>
  </event>
  <event>
  4     66 0.45252658E-03 0.76955227E+02 0.75467711E-02 0.11734423E+00
       -1 -1    0    0    0  501 0.00000000E+00 0.00000000E+00 0.15959515E+02 0.15962723E+02 0.32000000E+00 0.0000E+00 0.9000E+01
        2 -1    0    0  501    0 0.00000000E+00 0.00000000E+00 -.17342154E+04 0.17342154E+04 0.32000000E+00 0.0000E+00 0.9000E+01
       25  1    1    2    0    0 0.88275054E+02 -.16716226E+02 -.43813911E+03 0.46439508E+03 0.12500000E+03 0.0000E+00 0.9000E+01
       24  1    1    2    0    0 -.88275054E+02 0.16716226E+02 -.12801168E+04 0.12857831E+04 0.80419002E+02 0.0000E+00 0.9000E+01
#aMCatNLO 1  0  0  1  2 0.66659960D+02 0.00000000D+00  -5  5  0 0.00000000D+00 0.00000000D+00 0.00000000D+00 0.00000000D+00 0.00000000D+00
  <mgrwgt>
 0.3868431713D+00    9    2    0
 0.166373285435866D+03 0.000000000000000D+00 0.000000000000000D+00 0.166373285435866D+03
 0.166373285435866D+03 0.000000000000000D+00 0.000000000000000D+00 -.166373285435866D+03
 0.180134184641586D+03 0.882750543224525D+02 -.167162256695980D+02 0.935489554202509D+02
 0.152612386230147D+03 -.882750543224525D+02 0.167162256695980D+02 -.935489554202509D+02
 0.000000000000000D+00 -.000000000000000D+00 0.000000000000000D+00 0.000000000000000D+00
 0.204730963398592D+03 0.000000000000000D+00 0.000000000000000D+00 0.204730963398592D+03
 0.201371561551826D+03 0.000000000000000D+00 0.000000000000000D+00 -.201371561551826D+03
 0.189062557439709D+03 0.924626892829665D+02 -.530932637533693D+02 0.935489554202509D+02
 0.150295410909399D+03 -.848393054749329D+02 -.131293477509556D+02 -.935489554202509D+02
 0.667445566013093D+02 -.762338380803357D+01 0.662226115043249D+02 0.335940184676554D+01
0.507242814748D-03 0.000000000000D+00 0.000000000000D+00 0.162352901924D-02 0.000000000000D+00  5 -1 2 25 24 21 0 0.24555591D-02 0.26680262D+00 0.18839808D+05 0.18839808D+05 0.18839808D+05 0.12366936D+01  1  2  2  1  5  1       -1 0.296336717929D+00 0.100000000000D+01
-.269122099132D-04 0.000000000000D+00 -.194794596873D-05 0.162352901924D-02 0.000000000000D+00  5 -1 2 25 24 21 2 0.24555591D-02 0.26680262D+00 0.18839808D+05 0.18839808D+05 0.18839808D+05 0.12366936D+01  1  2  3  1  5  1       -1 -.240460160421D-01 0.100000000000D+01
0.349628426766D-04 0.000000000000D+00 0.000000000000D+00 0.162352901924D-02 0.000000000000D+00  5 -1 2 25 24 21 2 0.24555591D-02 0.26680262D+00 0.18839808D+05 0.18839808D+05 0.18839808D+05 0.12366936D+01  1  2 15  1  5  1       -1 0.312392433989D-01 0.100000000000D+01
0.136877893944D-03 0.000000000000D+00 0.000000000000D+00 0.162352901924D-02 0.000000000000D+00  5 -1 2 25 24 21 2 0.32270607D-02 0.26680262D+00 0.30378439D+05 0.30378439D+05 0.30378439D+05 0.12143274D+01  1  2 12  1  5  1       -1 0.794478266674D-01 0.100000000000D+01
-.180247461587D-03 0.000000000000D+00 0.000000000000D+00 0.162352901924D-02 0.000000000000D+00  5 -1 2 25 24 21 2 0.24555591D-02 0.26680262D+00 0.18839808D+05 0.18839808D+05 0.18839808D+05 0.12366936D+01  1  2  4  1  5  1       -1 -.161050815479D+00 0.100000000000D+01
-.285575108719D-03 0.000000000000D+00 -.185317919877D-03 0.162352901924D-02 0.000000000000D+00  5 -1 2 25 24 21 2 0.37835776D-02 0.26680262D+00 0.18839808D+05 0.18839808D+05 0.18839808D+05 0.12366936D+01  1  2  5  1  5  1       -1 -.135890807530D+00 0.100000000000D+01
0.348662689210D-03 0.000000000000D+00 0.169253572009D-03 0.162352901924D-02 0.000000000000D+00  5 -1 2 25 24 21 2 0.24555591D-02 0.26680262D+00 0.18839808D+05 0.18839808D+05 0.18839808D+05 0.12366936D+01  1  2  6  1  5  1       -1 0.311529549044D+00 0.100000000000D+01
0.494401617774D-05 0.000000000000D+00 0.000000000000D+00 0.162352901924D-02 0.000000000000D+00  5 21 2 25 24 1 2 0.32270607D-02 0.26680262D+00 0.30378439D+05 0.30378439D+05 0.30378439D+05 0.12143274D+01  1  2 12  3  5  1       -1 0.542510221679D-01 0.100000000000D+01
-.738909227718D-05 0.000000000000D+00 -.934361091041D-05 0.162352901924D-02 0.000000000000D+00  5 21 2 25 24 1 2 0.37835776D-02 0.26680262D+00 0.18839808D+05 0.18839808D+05 0.18839808D+05 0.12366936D+01  1  2  5  3  5  1       -1 -.649735488454D-01 0.100000000000D+01
  </mgrwgt>
  </event>
  <event>
  4     66 0.45252658E-03 0.12754319E+03 0.75467711E-02 0.11783329E+00
       -1 -1    0    0    0  501 0.00000000E+00 0.00000000E+00 0.39160896E+03 0.39160910E+03 0.32000000E+00 0.0000E+00 0.9000E+01
        2 -1    0    0  501    0 0.00000000E+00 0.00000000E+00 -.44115851E+02 0.44117012E+02 0.32000000E+00 0.0000E+00 0.9000E+01
       25  1    1    2    0    0 -.99594883E+01 -.73784698E+02 0.14460940E+03 0.20513472E+03 0.12500000E+03 0.0000E+00 0.9000E+01
       24  1    1    2    0    0 0.99594883E+01 0.73784698E+02 0.20288371E+03 0.23059139E+03 0.80419002E+02 0.0000E+00 0.9000E+01
#aMCatNLO 1  0  0  1  2 0.73474609D+02 0.00000000D+00  -5  5  0 0.00000000D+00 0.00000000D+00 0.00000000D+00 0.00000000D+00 0.00000000D+00
  <mgrwgt>
 0.3448733223D+00    7    2    0
 0.131439887890098D+03 0.000000000000000D+00 0.000000000000000D+00 0.131439887890098D+03
 0.131439887890098D+03 0.000000000000000D+00 0.000000000000000D+00 -.131439887890098D+03
 0.148858086034954D+03 -.995948833228854D+01 -.737846975198106D+02 -.314699345734767D+02
 0.114021689745243D+03 0.995948833228854D+01 0.737846975198106D+02 0.314699345734767D+02
 0.000000000000000D+00 0.000000000000000D+00 -.000000000000000D+00 0.000000000000000D+00
 0.173404169897060D+03 0.000000000000000D+00 0.000000000000000D+00 0.173404169897060D+03
 0.173026159919196D+03 0.000000000000000D+00 0.000000000000000D+00 -.173026159919196D+03
 0.134151872524281D+03 -.123580660950327D+02 -.350520516104683D+02 -.314699345734767D+02
 0.138802875894558D+03 0.781673906612749D+01 0.108386180902099D+03 0.314699345734767D+02
 0.734755813974174D+02 0.454132702890521D+01 -.733341292916312D+02 0.378009977863505D+00
0.885028198053D-03 0.000000000000D+00 0.000000000000D+00 0.246910311606D-02 0.000000000000D+00  5 -1 2 25 24 21 0 0.60247632D-01 0.67871534D-02 0.16267266D+05 0.16267266D+05 0.16267266D+05 0.12438269D+01  1  2  2  1  5  1       -1 0.293446047705D+00 0.100000000000D+01
-.491140902533D-04 0.000000000000D+00 -.339874131380D-05 0.246910311606D-02 0.000000000000D+00  5 -1 2 25 24 21 2 0.60247632D-01 0.67871534D-02 0.16267266D+05 0.16267266D+05 0.16267266D+05 0.12438269D+01  1  2  3  1  5  1       -1 -.251940025498D-01 0.100000000000D+01
0.611659062076D-04 0.000000000000D+00 0.000000000000D+00 0.246910311606D-02 0.000000000000D+00  5 -1 2 25 24 21 2 0.60247632D-01 0.67871534D-02 0.16267266D+05 0.16267266D+05 0.16267266D+05 0.12438269D+01  1  2 15  1  5  1       -1 0.313762097396D-01 0.100000000000D+01
-.245550504856D-03 0.000000000000D+00 0.000000000000D+00 0.246910311606D-02 0.000000000000D+00  5 -1 2 25 24 21 2 0.60247632D-01 0.67871534D-02 0.16267266D+05 0.16267266D+05 0.16267266D+05 0.12438269D+01  1  2  4  1  5  1       -1 -.125959780860D+00 0.100000000000D+01
-.402256004379D-03 0.000000000000D+00 -.276624285029D-03 0.246910311606D-02 0.000000000000D+00  5 -1 2 25 24 21 2 0.10042824D+00 0.67871534D-02 0.16267266D+05 0.16267266D+05 0.16267266D+05 0.12438269D+01  1  2  5  1  5  1       -1 -.729795866770D-01 0.100000000000D+01
0.508345951858D-03 0.000000000000D+00 0.244062494555D-03 0.246910311606D-02 0.000000000000D+00  5 -1 2 25 24 21 2 0.60247632D-01 0.67871534D-02 0.16267266D+05 0.16267266D+05 0.16267266D+05 0.12438269D+01  1  2  6  1  5  1       -1 0.260765681320D+00 0.100000000000D+01
-.102935829017D-04 0.000000000000D+00 -.158690616626D-04 0.246910311606D-02 0.000000000000D+00  5 21 2 25 24 1 2 0.10042824D+00 0.67871534D-02 0.16267266D+05 0.16267266D+05 0.16267266D+05 0.12438269D+01  1  2  5  3  5  1       -1 -.165812463639D-01 0.100000000000D+01
  </mgrwgt>
  </event>
  <event>
  4     66 0.45252658E-03 0.12138597E+03 0.75467711E-02 0.12210840E+00
       -1 -1    0    0    0  501 0.00000000E+00 0.00000000E+00 0.13265275E+02 0.13269134E+02 0.32000000E+00 0.0000E+00 0.9000E+01
        2 -1    0    0  501    0 0.00000000E+00 0.00000000E+00 -.12417608E+04 0.12417609E+04 0.32000000E+00 0.0000E+00 0.9000E+01
       25  1    1    2    0    0 0.60489374E+02 0.19626897E+02 -.90133921E+03 0.91218504E+03 0.12500000E+03 0.0000E+00 0.9000E+01
       24  1    1    2    0    0 -.60489374E+02 -.19626897E+02 -.32715636E+03 0.34284498E+03 0.80419002E+02 0.0000E+00 0.9000E+01
#aMCatNLO 1  0  0  1  2 0.24737563D+02 0.00000000D+00  -5  5  0 0.00000000D+00 0.00000000D+00 0.00000000D+00 0.00000000D+00 0.00000000D+00
  <mgrwgt>
 0.3453881713D+00    4    2    0
 0.128353990093743D+03 0.000000000000000D+00 0.000000000000000D+00 0.128353990093743D+03
 0.128353990093743D+03 0.000000000000000D+00 0.000000000000000D+00 -.128353990093743D+03
 0.146190958073743D+03 0.604893740973036D+02 0.196268974061733D+02 -.412627767127097D+02
 0.110517022113743D+03 -.604893740973036D+02 -.196268974061733D+02 0.412627767127097D+02
 0.000000000000000D+00 -.000000000000000D+00 0.000000000000000D+00 -.000000000000000D+00
 0.133417710389049D+03 0.000000000000000D+00 0.000000000000000D+00 0.133417710389049D+03
 0.163180371532044D+03 0.000000000000000D+00 0.000000000000000D+00 -.163180371532044D+03
 0.146517023154912D+03 0.640579945277885D+02 0.601620056279844D+01 -.412627767127097D+02
 0.111380115461104D+03 -.577840612619930D+02 -.299449442775520D+02 0.412627767127097D+02
 0.387009433050770D+02 -.627393326579544D+01 0.239287437147536D+02 -.297626611429954D+02
0.293775304948D-03 0.000000000000D+00 0.000000000000D+00 0.240326281008D-02 0.000000000000D+00  5 -1 2 25 24 21 0 0.20411116D-02 0.19104043D+00 0.14734555D+05 0.14734555D+05 0.14734555D+05 0.12487075D+01  1  2  2  1  5  1       -1 0.403520349450D+00 0.100000000000D+01
-.162590270147D-04 0.000000000000D+00 -.112817452382D-05 0.240326281008D-02 0.000000000000D+00  5 -1 2 25 24 21 2 0.20411116D-02 0.19104043D+00 0.14734555D+05 0.14734555D+05 0.14734555D+05 0.12487075D+01  1  2  3  1  5  1       -1 -.348229969333D-01 0.100000000000D+01
0.203072725614D-04 0.000000000000D+00 0.000000000000D+00 0.240326281008D-02 0.000000000000D+00  5 -1 2 25 24 21 2 0.20411116D-02 0.19104043D+00 0.14734555D+05 0.14734555D+05 0.14734555D+05 0.12487075D+01  1  2 15  1  5  1       -1 0.434933830598D-01 0.100000000000D+01
-.311904428790D-04 0.000000000000D+00 0.000000000000D+00 0.240326281008D-02 0.000000000000D+00  5 -1 2 25 24 21 2 0.20411116D-02 0.19104043D+00 0.14734555D+05 0.14734555D+05 0.14734555D+05 0.12487075D+01  1  2  4  1  5  1       -1 -.668025642459D-01 0.100000000000D+01
  </mgrwgt>
  </event>
  <event>
  4     66 0.45252658E-03 0.41909353E+02 0.75467711E-02 0.12366162E+00
       -1 -1    0    0    0  501 0.00000000E+00 0.00000000E+00 0.30896373E+02 0.30898030E+02 0.32000000E+00 0.0000E+00 0.9000E+01
        2 -1    0    0  501    0 0.00000000E+00 0.00000000E+00 -.36166630E+03 0.36166644E+03 0.32000000E+00 0.0000E+00 0.9000E+01
       25  1    1    2    0    0 -.15815580E+02 -.11964557E+02 -.17273553E+03 0.21413978E+03 0.12500000E+03 0.0000E+00 0.9000E+01
       24  1    1    2    0    0 0.15815580E+02 0.11964557E+02 -.15803440E+03 0.17842469E+03 0.80419002E+02 0.0000E+00 0.9000E+01
#aMCatNLO 1  0  0  1  2 0.35612829D+02 0.00000000D+00  -5  5  0 0.00000000D+00 0.00000000D+00 0.00000000D+00 0.00000000D+00 0.00000000D+00
  <mgrwgt>
 0.3371664551D+00    9    2    0
 0.105709649797263D+03 0.000000000000000D+00 0.000000000000000D+00 0.105709649797263D+03
 0.105709649797263D+03 0.000000000000000D+00 0.000000000000000D+00 -.105709649797263D+03
 0.127367521295260D+03 -.158155803708782D+02 -.119645566283503D+02 0.142899364280514D+02
 0.840517782992662D+02 0.158155803708782D+02 0.119645566283503D+02 -.142899364280514D+02
 0.000000000000000D+00 -.000000000000000D+00 -.000000000000000D+00 0.000000000000000D+00
 0.133996652576870D+03 0.000000000000000D+00 0.000000000000000D+00 0.133996652576870D+03
 0.119030764089950D+03 0.000000000000000D+00 0.000000000000000D+00 -.119030764089950D+03
 0.126613347511366D+03 -.111770043179757D+02 0.876424893486322D+01 0.142899364280514D+02
 0.877843992568971D+02 0.189539080015361D+02 0.259890724512312D+02 -.142899364280514D+02
 0.386296698985565D+02 -.777690368356043D+01 -.347533213860944D+02 0.149658884869192D+02
0.146803433748D-03 0.000000000000D+00 0.000000000000D+00 0.309220871874D-02 0.000000000000D+00  5 -1 2 25 24 21 0 0.47534265D-02 0.55641108D-01 0.10961199D+05 0.10961199D+05 0.10961199D+05 0.12636590D+01  1  2  2  1  5  1       -1 0.259391398280D+00 0.100000000000D+01
-.815482524648D-05 0.000000000000D+00 -.563763839823D-06 0.309220871874D-02 0.000000000000D+00  5 -1 2 25 24 21 2 0.47534265D-02 0.55641108D-01 0.10961199D+05 0.10961199D+05 0.10961199D+05 0.12636590D+01  1  2  3  1  5  1       -1 -.230087921324D-01 0.100000000000D+01
0.101381210799D-04 0.000000000000D+00 0.000000000000D+00 0.309220871874D-02 0.000000000000D+00  5 -1 2 25 24 21 2 0.47534265D-02 0.55641108D-01 0.10961199D+05 0.10961199D+05 0.10961199D+05 0.12636590D+01  1  2 15  1  5  1       -1 0.286046498227D-01 0.100000000000D+01
0.890483731402D-04 0.000000000000D+00 0.000000000000D+00 0.309220871874D-02 0.000000000000D+00  5 -1 2 25 24 21 2 0.62616720D-02 0.55641108D-01 0.15379806D+05 0.15379806D+05 0.15379806D+05 0.12465864D+01  1  2 12  1  5  1       -1 0.165114877686D+00 0.100000000000D+01
-.959615391263D-04 0.000000000000D+00 0.000000000000D+00 0.309220871874D-02 0.000000000000D+00  5 -1 2 25 24 21 2 0.47534265D-02 0.55641108D-01 0.10961199D+05 0.10961199D+05 0.10961199D+05 0.12636590D+01  1  2  4  1  5  1       -1 -.270754926038D+00 0.100000000000D+01
-.171030508542D-03 0.000000000000D+00 -.611286542450D-04 0.309220871874D-02 0.000000000000D+00  5 -1 2 25 24 21 2 0.67753893D-02 0.55641108D-01 0.10961199D+05 0.10961199D+05 0.10961199D+05 0.12636590D+01  1  2  5  1  5  1       -1 -.285968419296D+00 0.100000000000D+01
0.184626321736D-03 0.000000000000D+00 0.574803213709D-04 0.309220871874D-02 0.000000000000D+00  5 -1 2 25 24 21 2 0.47534265D-02 0.55641108D-01 0.10961199D+05 0.10961199D+05 0.10961199D+05 0.12636590D+01  1  2  6  1  5  1       -1 0.520922095889D+00 0.100000000000D+01
0.323667194816D-05 0.000000000000D+00 0.000000000000D+00 0.309220871874D-02 0.000000000000D+00  5 21 2 25 24 1 2 0.62616720D-02 0.55641108D-01 0.15379806D+05 0.15379806D+05 0.15379806D+05 0.12465864D+01  1  2 12  3  5  1       -1 0.100505132401D+00 0.100000000000D+01
-.569505959202D-05 0.000000000000D+00 -.266476821771D-05 0.309220871874D-02 0.000000000000D+00  5 21 2 25 24 1 2 0.67753893D-02 0.55641108D-01 0.10961199D+05 0.10961199D+05 0.10961199D+05 0.12636590D+01  1  2  5  3  5  1       -1 -.157639561496D+00 0.100000000000D+01
  </mgrwgt>
  </event>
  <event>
  4     66 0.45252658E-03 0.11178893E+03 0.75467711E-02 0.12078146E+00
       -1 -1    0    0    0  501 0.00000000E+00 0.00000000E+00 0.31329536E+02 0.31331171E+02 0.32000000E+00 0.0000E+00 0.9000E+01
        2 -1    0    0  501    0 0.00000000E+00 0.00000000E+00 -.41412722E+03 0.41412734E+03 0.32000000E+00 0.0000E+00 0.9000E+01
       25  1    1    2    0    0 -.11988919E+02 -.41549444E+02 -.26722735E+03 0.29817034E+03 0.12500000E+03 0.0000E+00 0.9000E+01
       24  1    1    2    0    0 0.11988919E+02 0.41549444E+02 -.11557033E+03 0.14728818E+03 0.80419002E+02 0.0000E+00 0.9000E+01
#aMCatNLO 1  0  0  1  2 0.57423358D+02 0.00000000D+00  -5  5  0 0.00000000D+00 0.00000000D+00 0.00000000D+00 0.00000000D+00 0.00000000D+00
  <mgrwgt>
 0.3587396380D+00    3    2    0
 0.113907002971080D+03 0.000000000000000D+00 0.000000000000000D+00 0.113907002971080D+03
 0.113907002971080D+03 0.000000000000000D+00 0.000000000000000D+00 -.113907002971080D+03
 0.134006258957901D+03 -.119889188722639D+02 -.415494438695527D+02 -.215078352768774D+02
 0.938077469842585D+02 0.119889188722639D+02 0.415494438695527D+02 0.215078352768774D+02
 0.000000000000000D+00 -.000000000000000D+00 -.000000000000000D+00 -.000000000000000D+00
 0.121915283271487D+03 0.000000000000000D+00 0.000000000000000D+00 0.121915283271487D+03
 0.302909739977753D+03 0.000000000000000D+00 0.000000000000000D+00 -.302909739977753D+03
 0.128161976315241D+03 0.851463463065732D+01 -.162912919020443D+02 -.215078352768774D+02
 0.106777725208205D+03 0.276762310926861D+02 0.608745094475132D+02 0.215078352768774D+02
 0.189885321725793D+03 -.361908657233434D+02 -.445832175454689D+02 -.180994456706266D+03
0.232747147660D-03 0.000000000000D+00 0.000000000000D+00 0.282414350992D-02 0.000000000000D+00  5 -1 2 25 24 21 0 0.48200639D-02 0.63712015D-01 0.12496765D+05 0.12496765D+05 0.12496765D+05 0.12569647D+01  1  2  2  1  5  1       -1 0.351203541154D+00 0.100000000000D+01
-.129248583229D-04 0.000000000000D+00 -.893810330744D-06 0.282414350992D-02 0.000000000000D+00  5 -1 2 25 24 21 2 0.48200639D-02 0.63712015D-01 0.12496765D+05 0.12496765D+05 0.12496765D+05 0.12569647D+01  1  2  3  1  5  1       -1 -.308138869851D-01 0.100000000000D+01
0.160858676272D-04 0.000000000000D+00 0.000000000000D+00 0.282414350992D-02 0.000000000000D+00  5 -1 2 25 24 21 2 0.48200639D-02 0.63712015D-01 0.12496765D+05 0.12496765D+05 0.12496765D+05 0.12569647D+01  1  2 15  1  5  1       -1 0.383499837863D-01 0.100000000000D+01
  </mgrwgt>
  </event>
  <event>
  4     66 0.45252658E-03 0.11740929E+03 0.75467711E-02 0.12056325E+00
       -3 -1    0    0    0  501 0.00000000E+00 0.00000000E+00 0.48579632E+02 0.48582205E+02 0.50000000E+00 0.0000E+00 0.9000E+01
        4 -1    0    0  501    0 0.00000000E+00 0.00000000E+00 -.44616263E+03 0.44616533E+03 0.15500000E+01 0.0000E+00 0.9000E+01
       25  1    1    2    0    0 0.26417260E+02 0.49205688E+02 -.71849009E+02 0.15461679E+03 0.12500000E+03 0.0000E+00 0.9000E+01
       24  1    1    2    0    0 -.26417260E+02 -.49205688E+02 -.32573399E+03 0.34013074E+03 0.80419002E+02 0.0000E+00 0.9000E+01
#aMCatNLO 1  0  0  2  2 0.53028700D+02 0.00000000D+00  -5  5  0 0.00000000D+00 0.00000000D+00 0.00000000D+00 0.00000000D+00 0.00000000D+00
  <mgrwgt>
 0.1060125558D-01    4    2    0
 0.147226760189640D+03 0.000000000000000D+00 0.000000000000000D+00 0.147226760189640D+03
 0.147226760189640D+03 0.000000000000000D+00 0.000000000000000D+00 -.147226760189640D+03
 0.162777234902650D+03 0.264172596473716D+02 0.492056878765060D+02 0.880474694461778D+02
 0.131676285476630D+03 -.264172596473716D+02 -.492056878765060D+02 -.880474694461778D+02
 0.000000000000000D+00 -.000000000000000D+00 -.000000000000000D+00 0.000000000000000D+00
 0.186551664786971D+03 0.000000000000000D+00 0.000000000000000D+00 0.186551664786971D+03
 0.168617903099120D+03 0.000000000000000D+00 0.000000000000000D+00 -.168617903099120D+03
 0.175360757056123D+03 0.441829916143654D+02 0.736335622622324D+02 0.880474694461778D+02
 0.123829681855619D+03 -.129930049361600D+02 -.307473429900294D+02 -.880474694461778D+02
 0.559791289743486D+02 -.311899866782054D+02 -.428862192722030D+02 0.179337616878514D+02
0.463354288749D-03 0.000000000000D+00 0.000000000000D+00 0.164031658219D-02 0.000000000000D+00  5 -3 4 25 24 21 0 0.74741945D-02 0.68640810D-01 0.13784941D+05 0.13784941D+05 0.13784941D+05 0.12520266D+01  1  2  2  2  5  2        4 0.209772935249D-01 0.100000000000D+01
-.241389479841D-04 0.000000000000D+00 -.177940247278D-05 0.164031658219D-02 0.000000000000D+00  5 -3 4 25 24 21 2 0.74741945D-02 0.68640810D-01 0.13784941D+05 0.13784941D+05 0.13784941D+05 0.12520266D+01  1  2  3  2  5  2        4 -.171309615312D-02 0.100000000000D+01
0.316107081710D-04 0.000000000000D+00 0.000000000000D+00 0.164031658219D-02 0.000000000000D+00  5 -3 4 25 24 21 2 0.74741945D-02 0.68640810D-01 0.13784941D+05 0.13784941D+05 0.13784941D+05 0.12520266D+01  1  2 15  2  5  2        4 0.224335304922D-02 0.100000000000D+01
-.153678754906D-03 0.000000000000D+00 0.000000000000D+00 0.164031658219D-02 0.000000000000D+00  5 -3 4 25 24 21 2 0.74741945D-02 0.68640810D-01 0.13784941D+05 0.13784941D+05 0.13784941D+05 0.12520266D+01  1  2  4  2  5  2        4 -.109062948401D-01 0.100000000000D+01
  </mgrwgt>
  </event>
  <event>
  5     66 -.45252658E-03 0.12887956E+03 0.75467711E-02 0.12090011E+00
       -3 -1    0    0    0  501 0.00000000E+00 0.00000000E+00 0.31571762E+02 0.31575721E+02 0.50000000E+00 0.0000E+00 0.9000E+01
        4 -1    0    0  502    0 0.00000000E+00 0.00000000E+00 -.67215592E+03 0.67215771E+03 0.15500000E+01 0.0000E+00 0.9000E+01
       25  1    1    2    0    0 0.77027112E+02 -.37058171E+02 -.28744801E+03 0.32489667E+03 0.12500000E+03 0.0000E+00 0.9000E+01
       24  1    1    2    0    0 -.52419891E+02 0.48966496E+02 -.25213070E+03 0.27419459E+03 0.80419002E+02 0.0000E+00 0.9000E+01
       21  1    1    2  502  501 -.24607221E+02 -.11908325E+02 -.10100544E+03 0.10464218E+03 0.75000000E+00 0.0000E+00 0.9000E+01
#aMCatNLO 2  0  0  2  1 0.27337219D+02 0.00000000D+00  -5  5  0 0.00000000D+00 0.00000000D+00 0.00000000D+00 0.00000000D+00 0.00000000D+00
  <mgrwgt>
 -.6681639886D-03    2    2    0
 0.129438994292258D+03 0.000000000000000D+00 0.000000000000000D+00 0.129438994292258D+03
 0.129438994292258D+03 0.000000000000000D+00 0.000000000000000D+00 -.129438994292258D+03
 0.147126446392187D+03 0.628548311989706D+02 -.439166503652033D+02 0.119075288638121D+02
 0.111751542192328D+03 -.628548311989706D+02 0.439166503652033D+02 -.119075288638121D+02
 0.000000000000000D+00 -.000000000000000D+00 -.000000000000000D+00 -.000000000000000D+00
 0.138108174075145D+03 0.000000000000000D+00 0.000000000000000D+00 0.138108174075145D+03
 0.153660948147533D+03 0.000000000000000D+00 0.000000000000000D+00 -.153660948147533D+03
 0.151898891599919D+03 0.770271121748540D+02 -.370581707001847D+02 0.119075288638121D+02
 0.108418484888734D+03 -.524198911125788D+02 0.489664955178637D+02 -.119075288638121D+02
 0.314517457340252D+02 -.246072210622752D+02 -.119083248176790D+02 -.155527740723880D+02
-.384800484200D-03 0.000000000000D+00 0.000000000000D+00 0.260908677684D-02 0.000000000000D+00  5 -3 4 25 24 21 2 0.45525745D-02 0.10591693D+00 0.20525042D+05 0.20525042D+05 0.20525042D+05 0.12325890D+01  1  2 13  2  5  2        4 -.228588468556D-01 0.100000000000D+01
0.391210401194D-03 0.000000000000D+00 0.000000000000D+00 0.260908677684D-02 0.287309164294D-04  5 -3 4 25 24 21 2 0.48574833D-02 0.10340579D+00 0.20525042D+05 0.20525042D+05 0.20525042D+05 0.12325890D+01  1  2  1  2  5  2        4 0.221906828669D-01 0.100000000000D+01
  </mgrwgt>
  </event>
  <event>
  4     66 0.45252658E-03 0.70201277E+02 0.75467711E-02 0.12023370E+00
       -1 -1    0    0    0  501 0.00000000E+00 0.00000000E+00 0.83668877E+01 0.83730048E+01 0.32000000E+00 0.0000E+00 0.9000E+01
        2 -1    0    0  501    0 0.00000000E+00 0.00000000E+00 -.15105090E+04 0.15105090E+04 0.32000000E+00 0.0000E+00 0.9000E+01
       25  1    1    2    0    0 -.18887628E+01 0.39399031E+02 -.10312375E+04 0.10395344E+04 0.12500000E+03 0.0000E+00 0.9000E+01
       24  1    1    2    0    0 0.18887628E+01 -.39399031E+02 -.47090456E+03 0.47934765E+03 0.80419002E+02 0.0000E+00 0.9000E+01
#aMCatNLO 1  0  0  1  2 0.66447473D+02 0.00000000D+00  -5  5  0 0.00000000D+00 0.00000000D+00 0.00000000D+00 0.00000000D+00 0.00000000D+00
  <mgrwgt>
 0.2176918543D+00    7    2    0
 0.112440786021736D+03 0.000000000000000D+00 0.000000000000000D+00 0.112440786021736D+03
 0.112440786021736D+03 0.000000000000000D+00 0.000000000000000D+00 -.112440786021736D+03
 0.132802134358137D+03 -.188876284128962D+01 0.393990313764098D+02 -.213437529878603D+02
 0.920794376853339D+02 0.188876284128962D+01 -.393990313764098D+02 0.213437529878603D+02
 0.000000000000000D+00 0.000000000000000D+00 0.000000000000000D+00 0.000000000000000D+00
 0.216201472456817D+03 0.000000000000000D+00 0.000000000000000D+00 0.216201472456817D+03
 0.128401261829061D+03 0.000000000000000D+00 0.000000000000000D+00 -.128401261829061D+03
 0.128219074813661D+03 -.181935791592081D+02 0.534500064003095D+01 -.213437529878603D+02
 0.106273970156922D+03 -.105014788986930D+02 -.652771317375183D+02 0.213437529878603D+02
 0.110109689315296D+03 0.286950580579012D+02 0.599321310974873D+02 0.878002106277553D+02
0.168705169225D-03 0.000000000000D+00 0.000000000000D+00 0.285807535615D-02 0.000000000000D+00  5 -1 2 25 24 21 0 0.12876866D-02 0.23238647D+00 0.12171310D+05 0.12171310D+05 0.12171310D+05 0.12583033D+01  1  2  2  1  5  1       -1 0.321245546624D+00 0.100000000000D+01
-.936839198248D-05 0.000000000000D+00 -.647872270915D-06 0.285807535615D-02 0.000000000000D+00  5 -1 2 25 24 21 2 0.12876866D-02 0.23238647D+00 0.12171310D+05 0.12171310D+05 0.12171310D+05 0.12583033D+01  1  2  3  1  5  1       -1 -.282451850216D-01 0.100000000000D+01
0.116369997228D-04 0.000000000000D+00 0.000000000000D+00 0.285807535615D-02 0.000000000000D+00  5 -1 2 25 24 21 2 0.12876866D-02 0.23238647D+00 0.12171310D+05 0.12171310D+05 0.12171310D+05 0.12583033D+01  1  2 15  1  5  1       -1 0.350849122113D-01 0.100000000000D+01
0.546481021902D-04 0.000000000000D+00 0.000000000000D+00 0.285807535615D-02 0.000000000000D+00  5 -1 2 25 24 21 2 0.24915272D-02 0.23238647D+00 0.22050200D+05 0.22050200D+05 0.22050200D+05 0.12291872D+01  1  2 12  1  5  1       -1 0.617492095346D-01 0.100000000000D+01
-.122547955837D-03 0.000000000000D+00 -.480582073867D-04 0.285807535615D-02 0.000000000000D+00  5 -1 2 25 24 21 2 0.28603514D-02 0.23238647D+00 0.12171310D+05 0.12171310D+05 0.12171310D+05 0.12583033D+01  1  2  5  1  5  1       -1 -.117653266815D+00 0.100000000000D+01
0.391162434696D-05 0.000000000000D+00 0.000000000000D+00 0.285807535615D-02 0.000000000000D+00  5 21 2 25 24 1 2 0.24915272D-02 0.23238647D+00 0.22050200D+05 0.22050200D+05 0.22050200D+05 0.12291872D+01  1  2 12  3  5  1       -1 0.880929539391D-01 0.100000000000D+01
-.757601390070D-05 0.000000000000D+00 -.416035226919D-05 0.285807535615D-02 0.000000000000D+00  5 21 2 25 24 1 2 0.28603514D-02 0.23238647D+00 0.12171310D+05 0.12171310D+05 0.12171310D+05 0.12583033D+01  1  2  5  3  5  1       -1 -.142582316199D+00 0.100000000000D+01
  </mgrwgt>
  </event>
  <event>
  4     66 0.45252658E-03 0.13723071E+03 0.75467711E-02 0.11655609E+00
       -1 -1    0    0    0  501 0.00000000E+00 0.00000000E+00 0.17239660E+03 0.17239690E+03 0.32000000E+00 0.0000E+00 0.9000E+01
        2 -1    0    0  501    0 0.00000000E+00 0.00000000E+00 -.11104582E+03 0.11104628E+03 0.32000000E+00 0.0000E+00 0.9000E+01
       25  1    1    2    0    0 0.83735440E+02 0.32447891E+02 0.16390322E+02 0.15478415E+03 0.12500000E+03 0.0000E+00 0.9000E+01
       24  1    1    2    0    0 -.83735440E+02 -.32447891E+02 0.44960458E+02 0.12865904E+03 0.80419002E+02 0.0000E+00 0.9000E+01
#aMCatNLO 1  0  0  1  2 0.79028304D+02 0.00000000D+00  -5  5  0 0.00000000D+00 0.00000000D+00 0.00000000D+00 0.00000000D+00 0.00000000D+00
  <mgrwgt>
 0.3350329022D+00    3    2    0
 0.138361953844420D+03 0.000000000000000D+00 0.000000000000000D+00 0.138361953844420D+03
 0.138361953844420D+03 0.000000000000000D+00 0.000000000000000D+00 -.138361953844420D+03
 0.154908742522915D+03 0.837354395364338D+02 0.324478906939258D+02 -.175279509694130D+02
 0.121815165165924D+03 -.837354395364338D+02 -.324478906939258D+02 0.175279509694130D+02
 0.000000000000000D+00 0.000000000000000D+00 -.000000000000000D+00 -.000000000000000D+00
 0.152170966016141D+03 0.000000000000000D+00 0.000000000000000D+00 0.152170966016141D+03
 0.332527155900312D+03 0.000000000000000D+00 0.000000000000000D+00 -.332527155900312D+03
 0.143744498053357D+03 0.462290241937408D+02 0.509227746447499D+02 -.175279509694130D+02
 0.144042912947248D+03 -.117123269116593D+03 -.160017368499143D+02 0.175279509694130D+02
 0.196910710915848D+03 0.708942449228519D+02 -.349210377948356D+02 -.180356189884170D+03
0.714158851297D-03 0.000000000000D+00 0.000000000000D+00 0.248200483552D-02 0.000000000000D+00  5 -1 2 25 24 21 0 0.26522613D-01 0.17084031D-01 0.18832269D+05 0.18832269D+05 0.18832269D+05 0.12367128D+01  1  2  2  1  5  1       -1 0.328197799817D+00 0.100000000000D+01
-.396722405402D-04 0.000000000000D+00 -.274255803132D-05 0.248200483552D-02 0.000000000000D+00  5 -1 2 25 24 21 2 0.26522613D-01 0.17084031D-01 0.18832269D+05 0.18832269D+05 0.18832269D+05 0.12367128D+01  1  2  3  1  5  1       -1 -.278846576523D-01 0.100000000000D+01
0.493967216084D-04 0.000000000000D+00 0.000000000000D+00 0.248200483552D-02 0.000000000000D+00  5 -1 2 25 24 21 2 0.26522613D-01 0.17084031D-01 0.18832269D+05 0.18832269D+05 0.18832269D+05 0.12367128D+01  1  2 15  1  5  1       -1 0.347197600246D-01 0.100000000000D+01
  </mgrwgt>
  </event>
  <event>
  4     66 0.45252658E-03 0.11213112E+03 0.75467711E-02 0.12148403E+00
       -1 -1    0    0    0  501 0.00000000E+00 0.00000000E+00 0.10062377E+04 0.10062378E+04 0.32000000E+00 0.0000E+00 0.9000E+01
        2 -1    0    0  501    0 0.00000000E+00 0.00000000E+00 -.22289796E+02 0.22292093E+02 0.32000000E+00 0.0000E+00 0.9000E+01
       25  1    1    2    0    0 -.43783098E+02 -.52152398E+01 0.87991468E+03 0.88984212E+03 0.12500000E+03 0.0000E+00 0.9000E+01
       24  1    1    2    0    0 0.43783098E+02 0.52152398E+01 0.10403325E+03 0.13868775E+03 0.80419002E+02 0.0000E+00 0.9000E+01
#aMCatNLO 1  0  0  1  2 0.49790939D+02 0.00000000D+00  -5  5  0 0.00000000D+00 0.00000000D+00 0.00000000D+00 0.00000000D+00 0.00000000D+00
  <mgrwgt>
 0.2637965628D+00    4    2    0
 0.149766621283482D+03 0.000000000000000D+00 0.000000000000000D+00 0.149766621283482D+03
 0.149766621283482D+03 0.000000000000000D+00 0.000000000000000D+00 -.149766621283482D+03
 0.165053378718397D+03 -.437830984247624D+02 -.521523979599030D+01 0.983537462049939D+02
 0.134479863848567D+03 0.437830984247624D+02 0.521523979599030D+01 -.983537462049939D+02
 0.000000000000000D+00 0.000000000000000D+00 0.000000000000000D+00 -.000000000000000D+00
 0.158603329325085D+03 0.000000000000000D+00 0.000000000000000D+00 0.158603329325085D+03
 0.243213208956499D+03 0.000000000000000D+00 0.000000000000000D+00 -.243213208956499D+03
 0.174074571144915D+03 -.681238620905309D+02 -.190430129076231D+02 0.983537462049939D+02
 0.129568806939527D+03 0.248311179274198D+02 -.555121313588285D+01 -.983537462049939D+02
 0.981731601971433D+02 0.432927441631111D+02 0.245942260435060D+02 -.846098796314136D+02
0.277582089159D-02 0.000000000000D+00 0.000000000000D+00 0.146120767754D-02 0.000000000000D+00  5 -1 2 25 24 21 0 0.15480598D+00 0.34293799D-02 0.12573389D+05 0.12573389D+05 0.12573389D+05 0.12566553D+01  1  2  2  1  5  1       -1 0.280558921827D+00 0.100000000000D+01
-.138507726229D-03 0.000000000000D+00 -.106598831141D-04 0.146120767754D-02 0.000000000000D+00  5 -1 2 25 24 21 2 0.15480598D+00 0.34293799D-02 0.12573389D+05 0.12573389D+05 0.12573389D+05 0.12566553D+01  1  2  3  1  5  1       -1 -.221074657771D-01 0.100000000000D+01
0.189952787911D-03 0.000000000000D+00 0.000000000000D+00 0.146120767754D-02 0.000000000000D+00  5 -1 2 25 24 21 2 0.15480598D+00 0.34293799D-02 0.12573389D+05 0.12573389D+05 0.12573389D+05 0.12566553D+01  1  2 15  1  5  1       -1 0.303187040343D-01 0.100000000000D+01
-.156464617146D-03 0.000000000000D+00 0.000000000000D+00 0.146120767754D-02 0.000000000000D+00  5 -1 2 25 24 21 2 0.15480598D+00 0.34293799D-02 0.12573389D+05 0.12573389D+05 0.12573389D+05 0.12566553D+01  1  2  4  1  5  1       -1 -.249735972358D-01 0.100000000000D+01
  </mgrwgt>
  </event>
  <event>
  4     66 0.45252658E-03 0.10967280E+03 0.75467711E-02 0.11993721E+00
       -1 -1    0    0    0  501 0.00000000E+00 0.00000000E+00 0.50554687E+02 0.50555700E+02 0.32000000E+00 0.0000E+00 0.9000E+01
        2 -1    0    0  501    0 0.00000000E+00 0.00000000E+00 -.31841774E+03 0.31841790E+03 0.32000000E+00 0.0000E+00 0.9000E+01
       25  1    1    2    0    0 0.35944378E+02 0.11215767E+02 -.61484017E+02 0.14430203E+03 0.12500000E+03 0.0000E+00 0.9000E+01
       24  1    1    2    0    0 -.35944378E+02 -.11215767E+02 -.20637904E+03 0.22467157E+03 0.80419002E+02 0.0000E+00 0.9000E+01
#aMCatNLO 1  0  0  1  2 0.70594647D+02 0.00000000D+00  -5  5  0 0.00000000D+00 0.00000000D+00 0.00000000D+00 0.00000000D+00 0.00000000D+00
  <mgrwgt>
 0.2598628161D+00    4    2    0
 0.126876813484604D+03 0.000000000000000D+00 0.000000000000000D+00 0.126876813484604D+03
 0.126876813484604D+03 0.000000000000000D+00 0.000000000000000D+00 -.126876813484604D+03
 0.144921450235236D+03 0.359443784894690D+02 0.112157667243718D+02 0.629240412725876D+02
 0.108832176733972D+03 -.359443784894690D+02 -.112157667243718D+02 -.629240412725876D+02
 0.000000000000000D+00 0.000000000000000D+00 0.000000000000000D+00 -.000000000000000D+00
 0.160076373602806D+03 0.000000000000000D+00 0.000000000000000D+00 0.160076373602806D+03
 0.175594067192163D+03 0.000000000000000D+00 0.000000000000000D+00 -.175594067192163D+03
 0.139959567832346D+03 -.164374405598785D+01 0.124248268447652D+01 0.629240412725876D+02
 0.123430840912626D+03 -.665899119451477D+02 -.193469685245676D+02 -.629240412725876D+02
 0.722800320499965D+02 0.682336560011356D+02 0.181044858400911D+02 -.155176935893565D+02
0.385908128203D-03 0.000000000000D+00 0.000000000000D+00 0.208972356281D-02 0.000000000000D+00  5 -1 2 25 24 21 0 0.77777344D-02 0.48987435D-01 0.12028124D+05 0.12028124D+05 0.12028124D+05 0.12589050D+01  1  2  2  1  5  1       -1 0.377470877509D+00 0.100000000000D+01
-.208858594801D-04 0.000000000000D+00 -.148198882425D-05 0.208972356281D-02 0.000000000000D+00  5 -1 2 25 24 21 2 0.77777344D-02 0.48987435D-01 0.12028124D+05 0.12028124D+05 0.12028124D+05 0.12589050D+01  1  2  3  1  5  1       -1 -.323770871871D-01 0.100000000000D+01
0.264023864657D-04 0.000000000000D+00 0.000000000000D+00 0.208972356281D-02 0.000000000000D+00  5 -1 2 25 24 21 2 0.77777344D-02 0.48987435D-01 0.12028124D+05 0.12028124D+05 0.12028124D+05 0.12589050D+01  1  2 15  1  5  1       -1 0.409287618431D-01 0.100000000000D+01
-.813833099046D-04 0.000000000000D+00 0.000000000000D+00 0.208972356281D-02 0.000000000000D+00  5 -1 2 25 24 21 2 0.77777344D-02 0.48987435D-01 0.12028124D+05 0.12028124D+05 0.12028124D+05 0.12589050D+01  1  2  4  1  5  1       -1 -.126159736106D+00 0.100000000000D+01
  </mgrwgt>
  </event>
  <event>
  4     66 0.45252658E-03 0.10774276E+03 0.75467711E-02 0.11605848E+00
       -1 -1    0    0    0  501 0.00000000E+00 0.00000000E+00 0.95710964E+02 0.95711499E+02 0.32000000E+00 0.0000E+00 0.9000E+01
        2 -1    0    0  501    0 0.00000000E+00 0.00000000E+00 -.12443208E+03 0.12443249E+03 0.32000000E+00 0.0000E+00 0.9000E+01
       25  1    1    2    0    0 0.18373943E+02 0.26006172E+02 -.34288443E+02 0.13347142E+03 0.12500000E+03 0.0000E+00 0.9000E+01
       24  1    1    2    0    0 -.18373943E+02 -.26006172E+02 0.55673305E+01 0.86672567E+02 0.80419002E+02 0.0000E+00 0.9000E+01
#aMCatNLO 1  0  0  1  2 0.12585667D+03 0.00000000D+00  -5  5  0 0.00000000D+00 0.00000000D+00 0.00000000D+00 0.00000000D+00 0.00000000D+00
  <mgrwgt>
 0.2886562731D+00    5    2    0
 0.109131197497099D+03 0.000000000000000D+00 0.000000000000000D+00 0.109131197497099D+03
 0.109131197497099D+03 0.000000000000000D+00 0.000000000000000D+00 -.109131197497099D+03
 0.130110038231145D+03 0.183739433550390D+02 0.260061722541592D+02 -.170205540092786D+02
 0.881523567630525D+02 -.183739433550390D+02 -.260061722541592D+02 0.170205540092786D+02
 0.000000000000000D+00 -.000000000000000D+00 0.000000000000000D+00 0.000000000000000D+00
 0.299774106988102D+03 0.000000000000000D+00 0.000000000000000D+00 0.299774106988102D+03
 0.148759305039530D+03 0.000000000000000D+00 0.000000000000000D+00 -.148759305039530D+03
 0.158249792716371D+03 0.945614290881847D+02 0.136540750251234D+02 -.170205540092786D+02
 0.936993578992614D+02 0.296730570571122D+02 -.337959190208807D+02 0.170205540092786D+02
 0.196584261412000D+03 -.124234486145297D+03 0.201418439957573D+02 0.151014801948572D+03
0.296606541572D-03 0.000000000000D+00 0.000000000000D+00 0.297403894281D-02 0.000000000000D+00  5 -1 2 25 24 21 0 0.14724837D-01 0.19143469D-01 0.11608503D+05 0.11608503D+05 0.11608503D+05 0.12607159D+01  1  2  2  1  5  1       -1 0.301875017172D+00 0.100000000000D+01
-.164748564819D-04 0.000000000000D+00 -.113904721793D-05 0.297403894281D-02 0.000000000000D+00  5 -1 2 25 24 21 2 0.14724837D-01 0.19143469D-01 0.11608503D+05 0.11608503D+05 0.11608503D+05 0.12607159D+01  1  2  3  1  5  1       -1 -.266503261625D-01 0.100000000000D+01
0.205027677273D-04 0.000000000000D+00 0.000000000000D+00 0.297403894281D-02 0.000000000000D+00  5 -1 2 25 24 21 2 0.14724837D-01 0.19143469D-01 0.11608503D+05 0.11608503D+05 0.11608503D+05 0.12607159D+01  1  2 15  1  5  1       -1 0.331660216748D-01 0.100000000000D+01
-.512100319652D-04 0.000000000000D+00 -.921911274513D-04 0.297403894281D-02 0.000000000000D+00  5 -1 2 25 24 21 2 0.53106975D-01 0.19143469D-01 0.11608503D+05 0.11608503D+05 0.11608503D+05 0.12607159D+01  1  2  5  1  5  1       -1 -.974555021299D-02 0.100000000000D+01
-.516774679180D-05 0.000000000000D+00 -.139032962300D-04 0.297403894281D-02 0.000000000000D+00  5 21 2 25 24 1 2 0.53106975D-01 0.19143469D-01 0.11608503D+05 0.11608503D+05 0.11608503D+05 0.12607159D+01  1  2  5  3  5  1       -1 -.998888933722D-02 0.100000000000D+01
  </mgrwgt>
  </event>
  <event>
  4     66 0.45252658E-03 0.77646462E+02 0.75467711E-02 0.11817153E+00
       -1 -1    0    0    0  501 0.00000000E+00 0.00000000E+00 0.26113492E+02 0.26115452E+02 0.32000000E+00 0.0000E+00 0.9000E+01
        2 -1    0    0  501    0 0.00000000E+00 0.00000000E+00 -.13751559E+04 0.13751559E+04 0.32000000E+00 0.0000E+00 0.9000E+01
       25  1    1    2    0    0 0.23118493E+02 -.10714002E+03 -.29600923E+03 0.33949950E+03 0.12500000E+03 0.0000E+00 0.9000E+01
       24  1    1    2    0    0 -.23118493E+02 0.10714002E+03 -.10530331E+04 0.10617719E+04 0.80419002E+02 0.0000E+00 0.9000E+01
#aMCatNLO 1  0  0  2  1 0.30101112D+02 0.00000000D+00  -5  5  0 0.00000000D+00 0.00000000D+00 0.00000000D+00 0.00000000D+00 0.00000000D+00
  <mgrwgt>
 0.4618297366D+00    9    2    0
 0.189503353882729D+03 0.000000000000000D+00 0.000000000000000D+00 0.189503353882729D+03
 0.189503353882729D+03 0.000000000000000D+00 0.000000000000000D+00 -.189503353882729D+03
 0.201584649355865D+03 0.231184930326323D+02 -.107140018170768D+03 0.114008432329344D+03
 0.177422058409594D+03 -.231184930326323D+02 0.107140018170768D+03 -.114008432329344D+03
 0.000000000000000D+00 -.000000000000000D+00 0.000000000000000D+00 -.000000000000000D+00
 0.197399944470980D+03 0.000000000000000D+00 0.000000000000000D+00 0.197399944470980D+03
 0.221130687034800D+03 0.000000000000000D+00 0.000000000000000D+00 -.221130687034800D+03
 0.210904274094682D+03 0.254727228906931D+02 -.123324087581236D+03 0.114008432329344D+03
 0.169295885631038D+03 -.211396429598647D+02 0.935364837406346D+02 -.114008432329344D+03
 0.383304717800591D+02 -.433307993082834D+01 0.297876038406016D+02 -.237307425638209D+02
0.595475964020D-03 0.000000000000D+00 0.000000000000D+00 0.144481892114D-02 0.000000000000D+00  5 -1 2 25 24 21 0 0.40176140D-02 0.21156259D+00 0.22829965D+05 0.22829965D+05 0.22829965D+05 0.12275483D+01  1  2  2  2  5  2        2 0.261140611392D+00 0.100000000000D+01
-.310186169403D-04 0.000000000000D+00 -.228678449426D-05 0.144481892114D-02 0.000000000000D+00  5 -1 2 25 24 21 2 0.40176140D-02 0.21156259D+00 0.22829965D+05 0.22829965D+05 0.22829965D+05 0.12275483D+01  1  2  3  2  5  2        2 -.204979184083D-01 0.100000000000D+01
0.408866712783D-04 0.000000000000D+00 0.000000000000D+00 0.144481892114D-02 0.000000000000D+00  5 -1 2 25 24 21 2 0.40176140D-02 0.21156259D+00 0.22829965D+05 0.22829965D+05 0.22829965D+05 0.12275483D+01  1  2 15  2  5  2        2 0.270189884178D-01 0.100000000000D+01
0.123003743984D-02 0.000000000000D+00 0.000000000000D+00 0.144481892114D-02 0.000000000000D+00  5 -1 2 25 24 21 2 0.40176140D-02 0.25076298D+00 0.27670216D+05 0.27670216D+05 0.27670216D+05 0.12186005D+01  1  2 12  2  5  2        2 0.589498070190D+00 0.100000000000D+01
-.125382645351D-02 0.000000000000D+00 0.000000000000D+00 0.144481892114D-02 0.000000000000D+00  5 -1 2 25 24 21 2 0.40176140D-02 0.21156259D+00 0.22829965D+05 0.22829965D+05 0.22829965D+05 0.12275483D+01  1  2  4  2  5  2        2 -.828561518122D+00 0.100000000000D+01
-.226189960939D-02 0.000000000000D+00 -.476979184507D-03 0.144481892114D-02 0.000000000000D+00  5 -1 2 25 24 21 2 0.40176140D-02 0.25153501D+00 0.22829965D+05 0.22829965D+05 0.22829965D+05 0.12275483D+01  1  2  5  2  5  2        2 -.109270111451D+01 0.100000000000D+01
0.231672116829D-02 0.000000000000D+00 0.469924437990D-03 0.144481892114D-02 0.000000000000D+00  5 -1 2 25 24 21 2 0.40176140D-02 0.21156259D+00 0.22829965D+05 0.22829965D+05 0.22829965D+05 0.12275483D+01  1  2  6  2  5  2        2 0.153095031844D+01 0.100000000000D+01
0.310125489420D-04 0.000000000000D+00 0.000000000000D+00 0.144481892114D-02 0.000000000000D+00  5 -1 21 25 24 -2 2 0.40176140D-02 0.25076298D+00 0.27670216D+05 0.27670216D+05 0.27670216D+05 0.12186005D+01  1  2 12  4  5  2        2 0.664638306100D-02 0.100000000000D+01
-.535715507383D-04 0.000000000000D+00 -.121973299574D-04 0.144481892114D-02 0.000000000000D+00  5 -1 21 25 24 -2 2 0.40176140D-02 0.25153501D+00 0.22829965D+05 0.22829965D+05 0.22829965D+05 0.12275483D+01  1  2  5  4  5  2        2 -.116640838328D-01 0.100000000000D+01
  </mgrwgt>
  </event>
  <event>
  4     66 0.45252658E-03 0.60736896E+02 0.75467711E-02 0.12283876E+00
       -1 -1    0    0    0  501 0.00000000E+00 0.00000000E+00 0.90994222E+01 0.91050472E+01 0.32000000E+00 0.0000E+00 0.9000E+01
        2 -1    0    0  501    0 0.00000000E+00 0.00000000E+00 -.14047663E+04 0.14047664E+04 0.32000000E+00 0.0000E+00 0.9000E+01
       25  1    1    2    0    0 -.21862895E+01 0.38627673E+01 -.11113586E+04 0.11183750E+04 0.12500000E+03 0.0000E+00 0.9000E+01
       24  1    1    2    0    0 0.21862895E+01 -.38627673E+01 -.28430829E+03 0.29549640E+03 0.80419002E+02 0.0000E+00 0.9000E+01
#aMCatNLO 1  0  0  1  2 0.47610014D+02 0.00000000D+00  -5  5  0 0.00000000D+00 0.00000000D+00 0.00000000D+00 0.00000000D+00 0.00000000D+00
  <mgrwgt>
 0.4965027336D+00    9    2    0
 0.113077690466844D+03 0.000000000000000D+00 0.000000000000000D+00 0.113077690466844D+03
 0.113077690466844D+03 0.000000000000000D+00 0.000000000000000D+00 -.113077690466844D+03
 0.133324354525469D+03 -.218628945733278D+01 0.386276728935404D+01 -.461593184190363D+02
 0.928310264082191D+02 0.218628945733278D+01 -.386276728935404D+01 0.461593184190363D+02
 0.000000000000000D+00 -.000000000000000D+00 0.000000000000000D+00 0.000000000000000D+00
 0.143660435774368D+03 0.000000000000000D+00 0.000000000000000D+00 0.143660435774368D+03
 0.135719703071566D+03 0.000000000000000D+00 0.000000000000000D+00 -.135719703071566D+03
 0.135364606753497D+03 0.278865509422069D+01 -.236668013762805D+02 -.461593184190363D+02
 0.957478545768177D+02 0.567794565351162D+01 -.231843472614320D+02 0.461593184190363D+02
 0.482676775156199D+02 -.846660074773231D+01 0.468511486377126D+02 0.794073270280124D+01
0.202545388819D-03 0.000000000000D+00 0.000000000000D+00 0.251808078887D-02 0.000000000000D+00  5 -1 2 25 24 21 0 0.14003466D-02 0.21611833D+00 0.10569914D+05 0.10569914D+05 0.10569914D+05 0.12655347D+01  1  2  2  1  5  1       -1 0.386499672558D+00 0.100000000000D+01
-.111285481058D-04 0.000000000000D+00 -.777827624491D-06 0.251808078887D-02 0.000000000000D+00  5 -1 2 25 24 21 2 0.14003466D-02 0.21611833D+00 0.10569914D+05 0.10569914D+05 0.10569914D+05 0.12655347D+01  1  2  3  1  5  1       -1 -.340105277038D-01 0.100000000000D+01
0.138344858948D-04 0.000000000000D+00 0.000000000000D+00 0.251808078887D-02 0.000000000000D+00  5 -1 2 25 24 21 2 0.14003466D-02 0.21611833D+00 0.10569914D+05 0.10569914D+05 0.10569914D+05 0.12655347D+01  1  2 15  1  5  1       -1 0.422802832244D-01 0.100000000000D+01
0.631661204037D-04 0.000000000000D+00 0.000000000000D+00 0.251808078887D-02 0.000000000000D+00  5 -1 2 25 24 21 2 0.18872429D-02 0.21611833D+00 0.16737627D+05 0.16737627D+05 0.16737627D+05 0.12424320D+01  1  2 12  1  5  1       -1 0.123088910687D+00 0.100000000000D+01
-.816684377613D-04 0.000000000000D+00 0.000000000000D+00 0.251808078887D-02 0.000000000000D+00  5 -1 2 25 24 21 2 0.14003466D-02 0.21611833D+00 0.10569914D+05 0.10569914D+05 0.10569914D+05 0.12655347D+01  1  2  4  1  5  1       -1 -.249591109153D+00 0.100000000000D+01
-.132156032286D-03 0.000000000000D+00 -.731711025912D-04 0.251808078887D-02 0.000000000000D+00  5 -1 2 25 24 21 2 0.21765193D-02 0.21611833D+00 0.10569914D+05 0.10569914D+05 0.10569914D+05 0.12655347D+01  1  2  5  1  5  1       -1 -.215146329502D+00 0.100000000000D+01
0.155625626697D-03 0.000000000000D+00 0.665900130882D-04 0.251808078887D-02 0.000000000000D+00  5 -1 2 25 24 21 2 0.14003466D-02 0.21611833D+00 0.10569914D+05 0.10569914D+05 0.10569914D+05 0.12655347D+01  1  2  6  1  5  1       -1 0.475615474532D+00 0.100000000000D+01
0.243226794455D-05 0.000000000000D+00 0.000000000000D+00 0.251808078887D-02 0.000000000000D+00  5 21 2 25 24 1 2 0.18872429D-02 0.21611833D+00 0.16737627D+05 0.16737627D+05 0.16737627D+05 0.12424320D+01  1  2 12  3  5  1       -1 0.995832148451D-01 0.100000000000D+01
-.392470981803D-05 0.000000000000D+00 -.374478619186D-05 0.251808078887D-02 0.000000000000D+00  5 21 2 25 24 1 2 0.21765193D-02 0.21611833D+00 0.10569914D+05 0.10569914D+05 0.10569914D+05 0.12655347D+01  1  2  5  3  5  1       -1 -.131816855856D+00 0.100000000000D+01
  </mgrwgt>
  </event>
  <event>
  4     66 0.45252658E-03 0.61921301E+02 0.75467711E-02 0.10877969E+00
       -1 -1    0    0    0  501 0.00000000E+00 0.00000000E+00 0.31815641E+02 0.31817250E+02 0.32000000E+00 0.0000E+00 0.9000E+01
        2 -1    0    0  501    0 0.00000000E+00 0.00000000E+00 -.14250040E+04 0.14250041E+04 0.32000000E+00 0.0000E+00 0.9000E+01
       25  1    1    2    0    0 -.34855561E+02 -.17421187E+03 -.91418609E+03 0.93964137E+03 0.12500000E+03 0.0000E+00 0.9000E+01
       24  1    1    2    0    0 0.34855561E+02 0.17421187E+03 -.47900229E+03 0.51717994E+03 0.80419002E+02 0.0000E+00 0.9000E+01
#aMCatNLO 1  0  0  2  1 0.15203386D+03 0.00000000D+00  -5  5  0 0.00000000D+00 0.00000000D+00 0.00000000D+00 0.00000000D+00 0.00000000D+00
  <mgrwgt>
 0.3644428081D+00    7    2    0
 0.212928660844696D+03 0.000000000000000D+00 0.000000000000000D+00 0.212928660844696D+03
 0.212928660844696D+03 0.000000000000000D+00 0.000000000000000D+00 -.212928660844696D+03
 0.223680834846660D+03 -.348555612287236D+02 -.174211866029373D+03 -.533238357931384D+02
 0.202176486842732D+03 0.348555612287236D+02 0.174211866029373D+03 0.533238357931384D+02
 0.000000000000000D+00 0.000000000000000D+00 0.000000000000000D+00 -.000000000000000D+00
 0.250734778806601D+03 0.000000000000000D+00 0.000000000000000D+00 0.250734778806601D+03
 0.460576202360542D+03 0.000000000000000D+00 0.000000000000000D+00 -.460576202360542D+03
 0.298169065714009D+03 -.776910131346166D+02 -.253772470459639D+03 -.533238357931384D+02
 0.154013147381282D+03 0.561814271089341D+01 0.119907625365130D+03 0.533238357931384D+02
 0.259128768071853D+03 0.720728704237232D+02 0.133864845094509D+03 -.209841423553941D+03
0.127143310989D-02 0.000000000000D+00 0.000000000000D+00 0.200181535634D-02 0.000000000000D+00  5 -1 2 25 24 21 0 0.48948405D-02 0.21923152D+00 0.42487425D+05 0.42487425D+05 0.42487425D+05 0.11993487D+01  1  2  2  2  5  2        2 0.392968864358D+00 0.100000000000D+01
-.705445967182D-04 0.000000000000D+00 -.488263791800D-05 0.200181535634D-02 0.000000000000D+00  5 -1 2 25 24 21 2 0.48948405D-02 0.21923152D+00 0.42487425D+05 0.42487425D+05 0.42487425D+05 0.11993487D+01  1  2  3  2  5  2        2 -.313631230809D-01 0.100000000000D+01
0.868986166319D-04 0.000000000000D+00 0.000000000000D+00 0.200181535634D-02 0.000000000000D+00  5 -1 2 25 24 21 2 0.48948405D-02 0.21923152D+00 0.42487425D+05 0.42487425D+05 0.42487425D+05 0.11993487D+01  1  2 15  2  5  2        2 0.386338874382D-01 0.100000000000D+01
0.169255591211D-03 0.000000000000D+00 0.000000000000D+00 0.200181535634D-02 0.000000000000D+00  5 -1 2 25 24 21 2 0.48948405D-02 0.47253793D+00 0.86990624D+05 0.86990624D+05 0.86990624D+05 0.11691731D+01  1  2 12  2  5  2        2 0.897898210295D-02 0.100000000000D+01
-.934861146592D-03 0.000000000000D+00 -.382940884949D-03 0.200181535634D-02 0.000000000000D+00  5 -1 2 25 24 21 2 0.48948405D-02 0.49287382D+00 0.42487425D+05 0.42487425D+05 0.42487425D+05 0.11993487D+01  1  2  5  2  5  2        2 -.445771788190D-01 0.100000000000D+01
0.140715677256D-04 0.000000000000D+00 0.000000000000D+00 0.200181535634D-02 0.000000000000D+00  5 -1 21 25 24 -2 2 0.48948405D-02 0.47253793D+00 0.86990624D+05 0.86990624D+05 0.86990624D+05 0.11691731D+01  1  2 12  4  5  2        2 0.808467584997D-04 0.100000000000D+01
-.580288004899D-04 0.000000000000D+00 -.336851971604D-04 0.200181535634D-02 0.000000000000D+00  5 -1 21 25 24 -2 2 0.48948405D-02 0.49287382D+00 0.42487425D+05 0.42487425D+05 0.42487425D+05 0.11993487D+01  1  2  5  4  5  2        2 -.279470609756D-03 0.100000000000D+01
  </mgrwgt>
  </event>
  <event>
  4     66 0.45252658E-03 0.12149512E+03 0.75467711E-02 0.11495250E+00
       -1 -1    0    0    0  501 0.00000000E+00 0.00000000E+00 0.15539846E+02 0.15543141E+02 0.32000000E+00 0.0000E+00 0.9000E+01
        2 -1    0    0  501    0 0.00000000E+00 0.00000000E+00 -.11344881E+04 0.11344881E+04 0.32000000E+00 0.0000E+00 0.9000E+01
       25  1    1    2    0    0 0.24046454E+02 -.59091612E+02 -.86179030E+03 0.87314236E+03 0.12500000E+03 0.0000E+00 0.9000E+01
       24  1    1    2    0    0 -.24046454E+02 0.59091612E+02 -.25715795E+03 0.27688892E+03 0.80419002E+02 0.0000E+00 0.9000E+01
#aMCatNLO 1  0  0  2  1 0.12643358D+03 0.00000000D+00  -5  5  0 0.00000000D+00 0.00000000D+00 0.00000000D+00 0.00000000D+00 0.00000000D+00
  <mgrwgt>
 0.3742619042D+00    3    2    0
 0.132784376995218D+03 0.000000000000000D+00 0.000000000000000D+00 0.132784376995218D+03
 0.132784376995218D+03 0.000000000000000D+00 0.000000000000000D+00 -.132784376995218D+03
 0.150026209680774D+03 0.240464541779232D+02 -.590916123680032D+02 -.530359593143970D+02
 0.115542544309662D+03 -.240464541779232D+02 0.590916123680032D+02 0.530359593143970D+02
 0.000000000000000D+00 -.000000000000000D+00 -.000000000000000D+00 0.000000000000000D+00
 0.219126933466442D+03 0.000000000000000D+00 0.000000000000000D+00 0.219126933466442D+03
 0.202521959845379D+03 0.000000000000000D+00 0.000000000000000D+00 -.202521959845379D+03
 0.162487897057683D+03 0.857375936931239D+02 -.247703196899527D+02 -.530359593143970D+02
 0.131641686954683D+03 0.247483892166129D+02 0.862381704391322D+02 0.530359593143970D+02
 0.127519309299456D+03 -.110485982909737D+03 -.614678507491796D+02 0.166049736210635D+02
0.292201847541D-03 0.000000000000D+00 0.000000000000D+00 0.221721502112D-02 0.000000000000D+00  5 -1 2 25 24 21 0 0.23910025D-02 0.17453689D+00 0.14761065D+05 0.14761065D+05 0.14761065D+05 0.12486183D+01  1  2  2  2  5  2        2 0.366280255656D+00 0.100000000000D+01
-.160776131881D-04 0.000000000000D+00 -.112213203307D-05 0.221721502112D-02 0.000000000000D+00  5 -1 2 25 24 21 2 0.23910025D-02 0.17453689D+00 0.14761065D+05 0.14761065D+05 0.14761065D+05 0.12486183D+01  1  2  3  2  5  2        2 -.314203867739D-01 0.100000000000D+01
0.201617722676D-04 0.000000000000D+00 0.000000000000D+00 0.221721502112D-02 0.000000000000D+00  5 -1 2 25 24 21 2 0.23910025D-02 0.17453689D+00 0.14761065D+05 0.14761065D+05 0.14761065D+05 0.12486183D+01  1  2 15  2  5  2        2 0.394020353196D-01 0.100000000000D+01
  </mgrwgt>
  </event>
  <event>
  4     66 0.45252658E-03 0.14334436E+03 0.75467711E-02 0.11541826E+00
       -3 -1    0    0    0  501 0.00000000E+00 0.00000000E+00 0.31955692E+03 0.31955732E+03 0.50000000E+00 0.0000E+00 0.9000E+01
        4 -1    0    0  501    0 0.00000000E+00 0.00000000E+00 -.68688943E+02 0.68706430E+02 0.15500000E+01 0.0000E+00 0.9000E+01
       25  1    1    2    0    0 0.89197709E+02 0.42430641E+02 0.18735586E+03 0.24593456E+03 0.12500000E+03 0.0000E+00 0.9000E+01
       24  1    1    2    0    0 -.89197709E+02 -.42430641E+02 0.63512118E+02 0.14232918E+03 0.80419002E+02 0.0000E+00 0.9000E+01
#aMCatNLO 1  0  0  2  1 0.89283135D+02 0.00000000D+00  -5  5  0 0.00000000D+00 0.00000000D+00 0.00000000D+00 0.00000000D+00 0.00000000D+00
  <mgrwgt>
 0.5328833133D-01    7    2    0
 0.148167128579145D+03 0.000000000000000D+00 0.000000000000000D+00 0.148167128579145D+03
 0.148167128579145D+03 0.000000000000000D+00 0.000000000000000D+00 -.148167128579145D+03
 0.163618909506278D+03 0.891977090174919D+02 0.424306412925036D+02 0.372767613073001D+02
 0.132715347652011D+03 -.891977090174919D+02 -.424306412925036D+02 -.372767613073001D+02
 0.000000000000000D+00 0.000000000000000D+00 -.000000000000000D+00 -.000000000000000D+00
 0.191613162975501D+03 0.000000000000000D+00 0.000000000000000D+00 0.191613162975501D+03
 0.208801750452639D+03 0.000000000000000D+00 0.000000000000000D+00 -.208801750452639D+03
 0.161270063085311D+03 0.557650008385426D+02 0.767055473577762D+02 0.372767613073001D+02
 0.148222214811877D+03 -.118107596193526D+03 -.127924898746623D+02 -.372767613073001D+02
 0.909226355309517D+02 0.623425953549837D+02 -.639130574831138D+02 -.171885874771382D+02
0.958539891944D-03 0.000000000000D+00 0.000000000000D+00 0.228452731548D-02 0.000000000000D+00  5 -3 4 25 24 21 0 0.49163979D-01 0.10568905D-01 0.20547605D+05 0.20547605D+05 0.20547605D+05 0.12325366D+01  1  2  2  2  5  2        4 0.542310654607D-01 0.100000000000D+01
-.531813171885D-04 0.000000000000D+00 -.368104557442D-05 0.228452731548D-02 0.000000000000D+00  5 -3 4 25 24 21 2 0.49163979D-01 0.10568905D-01 0.20547605D+05 0.20547605D+05 0.20547605D+05 0.12325366D+01  1  2  3  2  5  2        4 -.457084720760D-02 0.100000000000D+01
0.661955095144D-04 0.000000000000D+00 0.000000000000D+00 0.228452731548D-02 0.000000000000D+00  5 -3 4 25 24 21 2 0.49163979D-01 0.10568905D-01 0.20547605D+05 0.20547605D+05 0.20547605D+05 0.12325366D+01  1  2 15  2  5  2        4 0.568939574677D-02 0.100000000000D+01
-.420204516870D-03 0.000000000000D+00 0.000000000000D+00 0.228452731548D-02 0.000000000000D+00  5 -3 4 25 24 21 2 0.49163979D-01 0.10568905D-01 0.20547605D+05 0.20547605D+05 0.20547605D+05 0.12325366D+01  1  2  4  2  5  2        4 -.361158907694D-01 0.100000000000D+01
-.508259511354D-03 0.000000000000D+00 -.398283618434D-03 0.228452731548D-02 0.000000000000D+00  5 -3 4 25 24 21 2 0.49163979D-01 0.19123116D-01 0.20547605D+05 0.20547605D+05 0.20547605D+05 0.12325366D+01  1  2  5  2  5  2        4 -.155640509628D-01 0.100000000000D+01
0.682019442482D-03 0.000000000000D+00 0.337235230474D-03 0.228452731548D-02 0.000000000000D+00  5 -3 4 25 24 21 2 0.49163979D-01 0.10568905D-01 0.20547605D+05 0.20547605D+05 0.20547605D+05 0.12325366D+01  1  2  6  2  5  2        4 0.586184552960D-01 0.100000000000D+01
-.116780304865D-04 0.000000000000D+00 -.258730747677D-04 0.228452731548D-02 0.000000000000D+00  5 -3 21 25 24 -4 2 0.49163979D-01 0.19123116D-01 0.20547605D+05 0.20547605D+05 0.20547605D+05 0.12325366D+01  1  2  5  4  5  2        4 -.899979623600D-02 0.100000000000D+01
  </mgrwgt>
  </event>
  <event>
  4     66 0.45252658E-03 0.68152419E+02 0.75467711E-02 0.11766984E+00
       -3 -1    0    0    0  501 0.00000000E+00 0.00000000E+00 0.21078572E+02 0.21084501E+02 0.50000000E+00 0.0000E+00 0.9000E+01
        4 -1    0    0  501    0 0.00000000E+00 0.00000000E+00 -.12629626E+04 0.12629635E+04 0.15500000E+01 0.0000E+00 0.9000E+01
       25  1    1    2    0    0 0.48714136E+02 0.11218133E+03 -.56174033E+03 0.58833232E+03 0.12500000E+03 0.0000E+00 0.9000E+01
       24  1    1    2    0    0 -.48714136E+02 -.11218133E+03 -.68014366E+03 0.69571569E+03 0.80419002E+02 0.0000E+00 0.9000E+01
#aMCatNLO 1  0  0  2  1 0.20333189D+02 0.00000000D+00  -5  5  0 0.00000000D+00 0.00000000D+00 0.00000000D+00 0.00000000D+00 0.00000000D+00
  <mgrwgt>
 0.9305304213D-02    9    2    0
 0.163174338025424D+03 0.000000000000000D+00 0.000000000000000D+00 0.163174338025424D+03
 0.163174338025424D+03 0.000000000000000D+00 0.000000000000000D+00 -.163174338025424D+03
 0.177205012450778D+03 0.487141362389010D+02 0.112181326397576D+03 0.286164179424832D+02
 0.149143663600071D+03 -.487141362389010D+02 -.112181326397576D+03 -.286164179424832D+02
 0.000000000000000D+00 -.000000000000000D+00 0.000000000000000D+00 -.000000000000000D+00
 0.166581972740062D+03 0.000000000000000D+00 0.000000000000000D+00 0.166581972740062D+03
 0.196927201839210D+03 0.000000000000000D+00 0.000000000000000D+00 -.196927201839210D+03
 0.179838583272274D+03 0.597656351086641D+02 0.111022905373521D+03 0.286164179424832D+02
 0.147142909986467D+03 -.395432373001129D+02 -.113142622441250D+03 -.286164179424832D+02
 0.365276813205307D+02 -.202223978085512D+02 0.211971706772915D+01 -.303452290991473D+02
0.461877985375D-03 0.000000000000D+00 0.000000000000D+00 0.225211626650D-02 0.000000000000D+00  5 -3 4 25 24 21 0 0.32433865D-02 0.19430246D+00 0.25800669D+05 0.25800669D+05 0.25800669D+05 0.12218325D+01  1  2  2  2  5  2        4 0.666649523747D-02 0.100000000000D+01
-.256521573632D-04 0.000000000000D+00 -.177373307910D-05 0.225211626650D-02 0.000000000000D+00  5 -3 4 25 24 21 2 0.32433865D-02 0.19430246D+00 0.25800669D+05 0.25800669D+05 0.25800669D+05 0.12218325D+01  1  2  3  2  5  2        4 -.552735763294D-03 0.100000000000D+01
0.318322559303D-04 0.000000000000D+00 0.000000000000D+00 0.225211626650D-02 0.000000000000D+00  5 -3 4 25 24 21 2 0.32433865D-02 0.19430246D+00 0.25800669D+05 0.25800669D+05 0.25800669D+05 0.12218325D+01  1  2 15  2  5  2        4 0.685900450005D-03 0.100000000000D+01
0.178682976454D-02 0.000000000000D+00 0.000000000000D+00 0.225211626650D-02 0.000000000000D+00  5 -3 4 25 24 21 2 0.32433865D-02 0.23624088D+00 0.29277577D+05 0.29277577D+05 0.29277577D+05 0.12160110D+01  1  2 12  2  5  2        4 0.213431833423D-01 0.100000000000D+01
-.180410651379D-02 0.000000000000D+00 0.000000000000D+00 0.225211626650D-02 0.000000000000D+00  5 -3 4 25 24 21 2 0.32433865D-02 0.19430246D+00 0.25800669D+05 0.25800669D+05 0.25800669D+05 0.12218325D+01  1  2  4  2  5  2        4 -.388736969310D-01 0.100000000000D+01
-.256695564577D-02 0.000000000000D+00 -.338470152093D-03 0.225211626650D-02 0.000000000000D+00  5 -3 4 25 24 21 2 0.32433865D-02 0.23645253D+00 0.25800669D+05 0.25800669D+05 0.25800669D+05 0.12218325D+01  1  2  5  2  5  2        4 -.306872628962D-01 0.100000000000D+01
0.258975523331D-02 0.000000000000D+00 0.332049963062D-03 0.225211626650D-02 0.000000000000D+00  5 -3 4 25 24 21 2 0.32433865D-02 0.19430246D+00 0.25800669D+05 0.25800669D+05 0.25800669D+05 0.12218325D+01  1  2  6  2  5  2        4 0.558023372211D-01 0.100000000000D+01
0.502340777140D-04 0.000000000000D+00 0.000000000000D+00 0.225211626650D-02 0.000000000000D+00  5 -3 21 25 24 -4 2 0.32433865D-02 0.23624088D+00 0.29277577D+05 0.29277577D+05 0.29277577D+05 0.12160110D+01  1  2 12  4  5  2        4 0.133342507727D-01 0.100000000000D+01
-.686449861427D-04 0.000000000000D+00 -.954914363350D-05 0.225211626650D-02 0.000000000000D+00  5 -3 21 25 24 -4 2 0.32433865D-02 0.23645253D+00 0.25800669D+05 0.25800669D+05 0.25800669D+05 0.12218325D+01  1  2  5  4  5  2        4 -.184131672200D-01 0.100000000000D+01
  </mgrwgt>
  </event>
  <event>
  5     66 0.45252658E-03 0.11039818E+03 0.75467711E-02 0.12276707E+00
       -1 -1    0    0    0  501 0.00000000E+00 0.00000000E+00 0.57941759E+03 0.57941768E+03 0.32000000E+00 0.0000E+00 0.9000E+01
       21 -1    0    0  501  502 0.00000000E+00 0.00000000E+00 -.13184379E+03 0.13184593E+03 0.75000000E+00 0.0000E+00 0.9000E+01
       25  1    1    2    0    0 -.12992065E+02 -.16302223E+02 0.35925561E+03 0.38095164E+03 0.12500000E+03 0.0000E+00 0.9000E+01
       24  1    1    2    0    0 0.14884373E+02 0.52208307E+02 0.19496057E+03 0.21777073E+03 0.80419002E+02 0.0000E+00 0.9000E+01
       -2  1    1    2    0  502 -.18923077E+01 -.35906084E+02 -.10664239E+03 0.11254123E+03 0.32000000E+00 0.0000E+00 0.9000E+01
#aMCatNLO 2  0  0  2  1 0.35955913D+02 0.00000000D+00  -5  5  0 0.00000000D+00 0.00000000D+00 0.00000000D+00 0.00000000D+00 0.00000000D+00
  <mgrwgt>
 0.2124522882D+00    2    2    0
 0.111825838787887D+03 0.000000000000000D+00 0.000000000000000D+00 0.111825838787887D+03
 0.111825838787887D+03 0.000000000000000D+00 0.000000000000000D+00 -.111825838787887D+03
 0.132299157264398D+03 -.140859330818116D+02 -.370581094087025D+02 0.175028577420180D+02
 0.913525203113767D+02 0.140859330818116D+02 0.370581094087025D+02 -.175028577420180D+02
 0.000000000000000D+00 -.000000000000000D+00 -.000000000000000D+00 -.000000000000000D+00
 0.113841196905989D+03 0.000000000000000D+00 0.000000000000000D+00 0.113841196905989D+03
 0.671051808387950D+03 0.000000000000000D+00 0.000000000000000D+00 -.671051808387950D+03
 0.127929301811834D+03 -.129920649058401D+02 -.163022232351456D+02 0.175028577420180D+02
 0.985942082050122D+02 0.148843725845146D+02 0.522083073928927D+02 -.175028577420180D+02
 0.558369495277093D+03 -.189230767867445D+01 -.359060841577472D+02 -.557210611481961D+03
-.408843691812D-02 0.000000000000D+00 0.000000000000D+00 0.290213749305D-02 0.000000000000D+00  5 -1 21 25 24 -2 2 0.87563213D-01 0.20079082D-01 0.16862373D+05 0.16862373D+05 0.16862373D+05 0.12420695D+01  1  2 13  4  5  2        2 -.185525816184D+01 0.100000000000D+01
0.482104864878D-02 0.000000000000D+00 0.000000000000D+00 0.290213749305D-02 0.129874077043D-04  5 -1 21 25 24 -2 2 0.89141303D-01 0.20283823D-01 0.16862373D+05 0.16862373D+05 0.16862373D+05 0.12420695D+01  1  2  1  4  5  2        2 0.206771045000D+01 0.100000000000D+01
  </mgrwgt>
  </event>
  <event>
  4     66 0.45252658E-03 0.11863248E+03 0.75467711E-02 0.10637621E+00
       -1 -1    0    0    0  501 0.00000000E+00 0.00000000E+00 0.21650584E+02 0.21652949E+02 0.32000000E+00 0.0000E+00 0.9000E+01
        2 -1    0    0  501    0 0.00000000E+00 0.00000000E+00 -.90515088E+03 0.90515094E+03 0.32000000E+00 0.0000E+00 0.9000E+01
       25  1    1    2    0    0 -.37550433E+02 0.44608977E+02 -.24966927E+03 0.28523629E+03 0.12500000E+03 0.0000E+00 0.9000E+01
       24  1    1    2    0    0 0.37550433E+02 -.44608977E+02 -.63383102E+03 0.64156760E+03 0.80419002E+02 0.0000E+00 0.9000E+01
#aMCatNLO 1  0  0  1  1 0.30734380D+03 0.00000000D+00  -5  5  0 0.00000000D+00 0.00000000D+00 0.00000000D+00 0.00000000D+00 0.00000000D+00
  <mgrwgt>
 0.3202372428D+00    5    2    0
 0.139993453920666D+03 0.000000000000000D+00 0.000000000000000D+00 0.139993453920666D+03
 0.139993453920666D+03 0.000000000000000D+00 0.000000000000000D+00 -.139993453920666D+03
 0.156347404389699D+03 -.375504334750949D+02 0.446089773391551D+02 0.736173549238435D+02
 0.123639503451633D+03 0.375504334750949D+02 -.446089773391551D+02 -.736173549238435D+02
 0.000000000000000D+00 0.000000000000000D+00 0.000000000000000D+00 0.000000000000000D+00
 0.137732884964228D+04 0.000000000000000D+00 0.000000000000000D+00 0.137732884964228D+04
 0.228071176306657D+03 0.000000000000000D+00 0.000000000000000D+00 -.228071176306657D+03
 0.254446706505559D+03 -.208381424261846D+03 -.166070324907052D+02 0.736173549238435D+02
 0.161309083509934D+03 -.809470039098852D+02 -.870716491199874D+02 -.736173549238435D+02
 0.118964423593345D+04 0.289328428171732D+03 0.103678681610693D+03 0.114925767333563D+04
0.331764136607D-03 0.000000000000D+00 0.000000000000D+00 0.187790202259D-02 0.000000000000D+00  5 -1 2 25 24 21 0 0.33310453D-02 0.13925417D+00 0.14073666D+05 0.14073666D+05 0.14073666D+05 0.12509909D+01  1  2  2  1  5  1       -1 0.350747793475D+00 0.100000000000D+01
-.178170456451D-04 0.000000000000D+00 -.127406164007D-05 0.187790202259D-02 0.000000000000D+00  5 -1 2 25 24 21 2 0.33310453D-02 0.13925417D+00 0.14073666D+05 0.14073666D+05 0.14073666D+05 0.12509909D+01  1  2  3  1  5  1       -1 -.294787819171D-01 0.100000000000D+01
0.226619498312D-04 0.000000000000D+00 0.000000000000D+00 0.187790202259D-02 0.000000000000D+00  5 -1 2 25 24 21 2 0.33310453D-02 0.13925417D+00 0.14073666D+05 0.14073666D+05 0.14073666D+05 0.12509909D+01  1  2 15  1  5  1       -1 0.374948063893D-01 0.100000000000D+01
-.253098340528D-03 0.000000000000D+00 -.327335103360D-03 0.187790202259D-02 0.000000000000D+00  5 -1 2 25 24 21 2 0.52390119D-01 0.13925417D+00 0.14073666D+05 0.14073666D+05 0.14073666D+05 0.12509909D+01  1  2  5  1  5  1       -1 -.541886043733D-02 0.100000000000D+01
-.152424166644D-03 0.000000000000D+00 -.100850759811D-03 0.187790202259D-02 0.000000000000D+00  5 21 2 25 24 1 2 0.52390119D-01 0.13925417D+00 0.14073666D+05 0.14073666D+05 0.14073666D+05 0.12509909D+01  1  2  5  3  5  1       -1 -.331077146939D-01 0.100000000000D+01
  </mgrwgt>
  </event>
  <event>
  4     66 0.45252658E-03 0.11524098E+03 0.75467711E-02 0.11864811E+00
       -1 -1    0    0    0  501 0.00000000E+00 0.00000000E+00 0.91265204E+01 0.91321287E+01 0.32000000E+00 0.0000E+00 0.9000E+01
        2 -1    0    0  501    0 0.00000000E+00 0.00000000E+00 -.14764236E+04 0.14764236E+04 0.32000000E+00 0.0000E+00 0.9000E+01
       25  1    1    2    0    0 0.34346252E+02 0.38070884E+02 -.76949369E+03 0.78126474E+03 0.12500000E+03 0.0000E+00 0.9000E+01
       24  1    1    2    0    0 -.34346252E+02 -.38070884E+02 -.69780340E+03 0.70429104E+03 0.80419002E+02 0.0000E+00 0.9000E+01
#aMCatNLO 1  0  0  2  2 0.80084619D+02 0.00000000D+00  -5  5  0 0.00000000D+00 0.00000000D+00 0.00000000D+00 0.00000000D+00 0.00000000D+00
  <mgrwgt>
 0.4749781301D+00    3    2    0
 0.116098241646608D+03 0.000000000000000D+00 0.000000000000000D+00 0.116098241646608D+03
 0.116098241646608D+03 0.000000000000000D+00 0.000000000000000D+00 -.116098241646608D+03
 0.135818144195832D+03 0.343462522218827D+02 0.380708843688554D+02 0.138748338542772D+02
 0.963783390973836D+02 -.343462522218827D+02 -.380708843688554D+02 -.138748338542772D+02
 0.000000000000000D+00 -.000000000000000D+00 -.000000000000000D+00 0.000000000000000D+00
 0.281770246731402D+03 0.000000000000000D+00 0.000000000000000D+00 0.281770246731402D+03
 0.132896247320378D+03 0.000000000000000D+00 0.000000000000000D+00 -.132896247320378D+03
 0.161268633737837D+03 0.639124748216868D+02 0.781361425676495D+02 0.138748338542772D+02
 0.843504883329003D+02 -.163600302191034D+02 -.136977123774168D+02 -.138748338542772D+02
 0.169047371981042D+03 -.475524446025833D+02 -.644384301902327D+02 0.148873999411024D+03
0.264718900024D-03 0.000000000000D+00 0.000000000000D+00 0.282773297443D-02 0.000000000000D+00  5 -1 2 25 24 21 0 0.14045141D-02 0.22714253D+00 0.13280484D+05 0.13280484D+05 0.13280484D+05 0.12538960D+01  1  2  2  2  5  2        2 0.465098330028D+00 0.100000000000D+01
-.147056233895D-04 0.000000000000D+00 -.101659027818D-05 0.282773297443D-02 0.000000000000D+00  5 -1 2 25 24 21 2 0.14045141D-02 0.22714253D+00 0.13280484D+05 0.13280484D+05 0.13280484D+05 0.12538960D+01  1  2  3  2  5  2        2 -.406224710841D-01 0.100000000000D+01
0.182821812566D-04 0.000000000000D+00 0.000000000000D+00 0.282773297443D-02 0.000000000000D+00  5 -1 2 25 24 21 2 0.14045141D-02 0.22714253D+00 0.13280484D+05 0.13280484D+05 0.13280484D+05 0.12538960D+01  1  2 15  2  5  2        2 0.505022711232D-01 0.100000000000D+01
  </mgrwgt>
  </event>
  <event>
  4     66 0.45252658E-03 0.12205288E+03 0.75467711E-02 0.11854866E+00
       -1 -1    0    0    0  501 0.00000000E+00 0.00000000E+00 0.32463723E+01 0.32621057E+01 0.32000000E+00 0.0000E+00 0.9000E+01
        2 -1    0    0  501    0 0.00000000E+00 0.00000000E+00 -.54593265E+04 0.54593265E+04 0.32000000E+00 0.0000E+00 0.9000E+01
       25  1    1    2    0    0 -.45731597E+01 0.64666372E+02 -.19929112E+04 0.19978795E+04 0.12500000E+03 0.0000E+00 0.9000E+01
       24  1    1    2    0    0 0.45731597E+01 -.64666372E+02 -.34631690E+04 0.34647091E+04 0.80419002E+02 0.0000E+00 0.9000E+01
#aMCatNLO 1  0  0  2  2 0.72310667D+02 0.00000000D+00  -5  5  0 0.00000000D+00 0.00000000D+00 0.00000000D+00 0.00000000D+00 0.00000000D+00
  <mgrwgt>
 0.2138587772D-01    3    2    0
 0.133289176503078D+03 0.000000000000000D+00 0.000000000000000D+00 0.133289176503078D+03
 0.133289176503078D+03 0.000000000000000D+00 0.000000000000000D+00 -.133289176503078D+03
 0.150465710048205D+03 -.457315973453434D+01 0.646663720666150D+02 0.530309007475353D+02
 0.116112642957952D+03 0.457315973453434D+01 -.646663720666150D+02 -.530309007475353D+02
 0.000000000000000D+00 -.000000000000000D+00 -.000000000000000D+00 0.000000000000000D+00
 0.238296974956492D+03 0.000000000000000D+00 0.000000000000000D+00 0.238296974956492D+03
 0.151152941449917D+03 0.000000000000000D+00 0.000000000000000D+00 -.151152941449917D+03
 0.170956151003521D+03 0.149209564206740D+02 0.102791508362005D+03 0.530309007475353D+02
 0.105255454188004D+03 0.179990523751294D+02 -.384090140651237D+02 -.530309007475353D+02
 0.113238311214884D+03 -.329200087958034D+02 -.643824942968816D+02 0.871440335065755D+02
0.281959113609D-02 0.000000000000D+00 0.000000000000D+00 0.221423084886D-02 0.000000000000D+00  5 -1 2 25 24 21 0 0.50065288D-03 0.83989760D+00 0.14896906D+05 0.14896906D+05 0.14896906D+05 0.12481641D+01  1  2  2  2  5  2        2 0.209422893530D-01 0.100000000000D+01
-.155166824813D-03 0.000000000000D+00 -.108279723780D-04 0.221423084886D-02 0.000000000000D+00  5 -1 2 25 24 21 2 0.50065288D-03 0.83989760D+00 0.14896906D+05 0.14896906D+05 0.14896906D+05 0.12481641D+01  1  2  3  2  5  2        2 -.179547883325D-02 0.100000000000D+01
0.193502113221D-03 0.000000000000D+00 0.000000000000D+00 0.221423084886D-02 0.000000000000D+00  5 -1 2 25 24 21 2 0.50065288D-03 0.83989760D+00 0.14896906D+05 0.14896906D+05 0.14896906D+05 0.12481641D+01  1  2 15  2  5  2        2 0.223906720329D-02 0.100000000000D+01
  </mgrwgt>
  </event>
  <event>
  4     66 0.45252658E-03 0.12215555E+03 0.75467711E-02 0.11982070E+00
       -1 -1    0    0    0  501 0.00000000E+00 0.00000000E+00 0.96738181E+01 0.96791093E+01 0.32000000E+00 0.0000E+00 0.9000E+01
        2 -1    0    0  501    0 0.00000000E+00 0.00000000E+00 -.17996045E+04 0.17996046E+04 0.32000000E+00 0.0000E+00 0.9000E+01
       25  1    1    2    0    0 -.56241065E+02 0.32620208E+02 -.67388779E+03 0.68845980E+03 0.12500000E+03 0.0000E+00 0.9000E+01
       24  1    1    2    0    0 0.56241065E+02 -.32620208E+02 -.11160429E+04 0.11208239E+04 0.80419002E+02 0.0000E+00 0.9000E+01
#aMCatNLO 1  0  0  2  2 0.53791049D+02 0.00000000D+00  -5  5  0 0.00000000D+00 0.00000000D+00 0.00000000D+00 0.00000000D+00 0.00000000D+00
  <mgrwgt>
 0.4246680015D+00    3    2    0
 0.131961582762455D+03 0.000000000000000D+00 0.000000000000000D+00 0.131961582762455D+03
 0.131961582762455D+03 0.000000000000000D+00 0.000000000000000D+00 -.131961582762455D+03
 0.149310920073213D+03 -.562410650859237D+02 0.326202075678431D+02 0.494127059504042D+02
 0.114612245451696D+03 0.562410650859237D+02 -.326202075678431D+02 -.494127059504042D+02
 0.000000000000000D+00 0.000000000000000D+00 0.000000000000000D+00 0.000000000000000D+00
 0.312401765718508D+03 0.000000000000000D+00 0.000000000000000D+00 0.312401765718508D+03
 0.138744637412130D+03 0.000000000000000D+00 0.000000000000000D+00 -.138744637412130D+03
 0.156896116927949D+03 -.799149410222401D+02 0.127819481746529D+02 0.494127059504042D+02
 0.112452939675755D+03 0.386859067368241D+02 -.473310975781992D+02 -.494127059504042D+02
 0.181797346526934D+03 0.412290342854159D+02 0.345491494035463D+02 0.173657128306378D+03
0.375141430399D-03 0.000000000000D+00 0.000000000000D+00 0.227142183859D-02 0.000000000000D+00  5 -1 2 25 24 21 0 0.14886889D-02 0.27686264D+00 0.14921979D+05 0.14921979D+05 0.14921979D+05 0.12480808D+01  1  2  2  2  5  2        2 0.415656643270D+00 0.100000000000D+01
-.206901081005D-04 0.000000000000D+00 -.144064186974D-05 0.227142183859D-02 0.000000000000D+00  5 -1 2 25 24 21 2 0.14886889D-02 0.27686264D+00 0.14921979D+05 0.14921979D+05 0.14921979D+05 0.12480808D+01  1  2  3  2  5  2        2 -.357098369684D-01 0.100000000000D+01
0.259112458116D-04 0.000000000000D+00 0.000000000000D+00 0.227142183859D-02 0.000000000000D+00  5 -1 2 25 24 21 2 0.14886889D-02 0.27686264D+00 0.14921979D+05 0.14921979D+05 0.14921979D+05 0.12480808D+01  1  2 15  2  5  2        2 0.447211952246D-01 0.100000000000D+01
  </mgrwgt>
  </event>
  <event>
  5     66 0.45252658E-03 0.14954045E+03 0.75467711E-02 0.11925079E+00
       21 -1    0    0  502  501 0.00000000E+00 0.00000000E+00 0.15434876E+03 0.15435058E+03 0.75000000E+00 0.0000E+00 0.9000E+01
        2 -1    0    0  501    0 0.00000000E+00 0.00000000E+00 -.19289833E+03 0.19289859E+03 0.32000000E+00 0.0000E+00 0.9000E+01
       25  1    1    2    0    0 0.11413466E+03 -.76516324E+01 -.88467630E+02 0.19114599E+03 0.12500000E+03 0.0000E+00 0.9000E+01
       24  1    1    2    0    0 -.10110651E+03 0.12948245E+02 0.32740425E+02 0.13390047E+03 0.80419002E+02 0.0000E+00 0.9000E+01
        1  1    1    2  502    0 -.13028149E+02 -.52966125E+01 0.17177641E+02 0.22202714E+02 0.32000000E+00 0.0000E+00 0.9000E+01
#aMCatNLO 2  0  0  1  2 0.14063668D+02 0.00000000D+00  -5  5  0 0.00000000D+00 0.00000000D+00 0.00000000D+00 0.00000000D+00 0.00000000D+00
  <mgrwgt>
 0.1690975516D-01    2    2    0
 0.159962413305683D+03 0.000000000000000D+00 0.000000000000000D+00 0.159962413305683D+03
 0.159962413305683D+03 0.000000000000000D+00 0.000000000000000D+00 -.159962413305683D+03
 0.174274813100705D+03 0.106952675828821D+03 -.105714798407662D+02 -.565338785890107D+02
 0.145650013510662D+03 -.106952675828821D+03 0.105714798407662D+02 0.565338785890107D+02
 0.000000000000000D+00 -.000000000000000D+00 -.000000000000000D+00 0.000000000000000D+00
 0.183528359064381D+03 0.000000000000000D+00 0.000000000000000D+00 0.183528359064381D+03
 0.162228967812114D+03 0.000000000000000D+00 0.000000000000000D+00 -.162228967812114D+03
 0.178623482280954D+03 0.114134663953081D+03 -.765163238627764D+01 -.565338785890107D+02
 0.141610309586710D+03 -.101106514892211D+03 0.129482448581895D+02 0.565338785890107D+02
 0.255235350088305D+02 -.130281490608699D+02 -.529661247191182D+01 0.212993912522667D+02
-.698248098532D-04 0.000000000000D+00 0.000000000000D+00 0.206803761672D-02 0.000000000000D+00  5 21 2 25 24 1 2 0.23878812D-01 0.29262022D-01 0.24545609D+05 0.24545609D+05 0.24545609D+05 0.12241526D+01  1  2 13  3  5  1       -1 -.384057382713D+00 0.100000000000D+01
0.732487824791D-04 0.000000000000D+00 0.000000000000D+00 0.206803761672D-02 0.183620342709D-05  5 21 2 25 24 1 2 0.23745979D-01 0.29676645D-01 0.24545609D+05 0.24545609D+05 0.24545609D+05 0.12241526D+01  1  2  1  3  5  1       -1 0.400967137878D+00 0.100000000000D+01
  </mgrwgt>
  </event>
  <event>
  4     66 0.45252658E-03 0.20611974E+03 0.75467711E-02 0.11238050E+00
       -1 -1    0    0    0  501 0.00000000E+00 0.00000000E+00 0.30843649E+02 0.30845308E+02 0.32000000E+00 0.0000E+00 0.9000E+01
        2 -1    0    0  501    0 0.00000000E+00 0.00000000E+00 -.15959316E+04 0.15959316E+04 0.32000000E+00 0.0000E+00 0.9000E+01
       25  1    1    2    0    0 0.63191412E+02 -.16604053E+03 -.51833228E+03 0.56201064E+03 0.12500000E+03 0.0000E+00 0.9000E+01
       24  1    1    2    0    0 -.63191412E+02 0.16604053E+03 -.10467556E+04 0.10647663E+04 0.80419002E+02 0.0000E+00 0.9000E+01
#aMCatNLO 1  0  0  1  2 0.52595970D+02 0.00000000D+00  -5  5  0 0.00000000D+00 0.00000000D+00 0.00000000D+00 0.00000000D+00 0.00000000D+00
  <mgrwgt>
 0.2915991250D+00    4    2    0
 0.221868718740869D+03 0.000000000000000D+00 0.000000000000000D+00 0.221868718740869D+03
 0.221868718740869D+03 0.000000000000000D+00 0.000000000000000D+00 -.221868718740869D+03
 0.232187640779091D+03 0.631914124434874D+02 -.166040528798677D+03 0.819968823810579D+02
 0.211549796702646D+03 -.631914124434874D+02 0.166040528798677D+03 -.819968823810579D+02
 0.000000000000000D+00 0.000000000000000D+00 0.000000000000000D+00 -.000000000000000D+00
 0.238796163026584D+03 0.000000000000000D+00 0.000000000000000D+00 0.238796163026584D+03
 0.268404840753288D+03 0.000000000000000D+00 0.000000000000000D+00 -.268404840753288D+03
 0.235589510660712D+03 0.382930783952536D+02 -.178010024886678D+03 0.819968823810579D+02
 0.211254141543662D+03 -.856959611564018D+02 0.155221808668261D+03 -.819968823810579D+02
 0.603573515754983D+02 0.474028827611482D+02 0.227882162184163D+02 -.296086777267045D+02
0.155536498955D-02 0.000000000000D+00 0.000000000000D+00 0.183293596290D-02 0.000000000000D+00  5 -1 2 25 24 21 0 0.47453069D-02 0.24552806D+00 0.42485346D+05 0.42485346D+05 0.42485346D+05 0.11993508D+01  1  2  2  1  5  1       -1 0.408712902612D+00 0.100000000000D+01
-.858396127807D-04 0.000000000000D+00 -.597301109689D-05 0.183293596290D-02 0.000000000000D+00  5 -1 2 25 24 21 2 0.47453069D-02 0.24552806D+00 0.42485346D+05 0.42485346D+05 0.42485346D+05 0.11993508D+01  1  2  3  1  5  1       -1 -.324463802435D-01 0.100000000000D+01
0.106608101682D-03 0.000000000000D+00 0.000000000000D+00 0.183293596290D-02 0.000000000000D+00  5 -1 2 25 24 21 2 0.47453069D-02 0.24552806D+00 0.42485346D+05 0.42485346D+05 0.42485346D+05 0.11993508D+01  1  2 15  1  5  1       -1 0.402966287029D-01 0.100000000000D+01
-.330602783001D-03 0.000000000000D+00 0.000000000000D+00 0.183293596290D-02 0.000000000000D+00  5 -1 2 25 24 21 2 0.47453069D-02 0.24552806D+00 0.42485346D+05 0.42485346D+05 0.42485346D+05 0.11993508D+01  1  2  4  1  5  1       -1 -.124964026041D+00 0.100000000000D+01
  </mgrwgt>
  </event>
  <event>
  4     66 0.45252658E-03 0.93744034E+02 0.75467711E-02 0.11323452E+00
       -1 -1    0    0    0  501 0.00000000E+00 0.00000000E+00 0.24905282E+02 0.24907337E+02 0.32000000E+00 0.0000E+00 0.9000E+01
        2 -1    0    0  501    0 0.00000000E+00 0.00000000E+00 -.15519021E+04 0.15519022E+04 0.32000000E+00 0.0000E+00 0.9000E+01
       25  1    1    2    0    0 0.16182774E+03 -.31631801E+02 -.71442615E+03 0.74378661E+03 0.12500000E+03 0.0000E+00 0.9000E+01
       24  1    1    2    0    0 -.16182774E+03 0.31631801E+02 -.81257071E+03 0.83302290E+03 0.80419002E+02 0.0000E+00 0.9000E+01
#aMCatNLO 1  0  0  1  2 0.50515373D+02 0.00000000D+00  -5  5  0 0.00000000D+00 0.00000000D+00 0.00000000D+00 0.00000000D+00 0.00000000D+00
  <mgrwgt>
 0.4632316549D+00    9    2    0
 0.196601644056201D+03 0.000000000000000D+00 0.000000000000000D+00 0.196601644056201D+03
 0.196601644056201D+03 0.000000000000000D+00 0.000000000000000D+00 -.196601644056201D+03
 0.208246745105065D+03 0.161827743159337D+03 -.316318006098807D+02 0.235141995608294D+02
 0.184956543007336D+03 -.161827743159337D+03 0.316318006098807D+02 -.235141995608294D+02
 0.000000000000000D+00 0.000000000000000D+00 0.000000000000000D+00 0.000000000000000D+00
 0.244626886583346D+03 0.000000000000000D+00 0.000000000000000D+00 0.244626886583346D+03
 0.211963591163935D+03 0.000000000000000D+00 0.000000000000000D+00 -.211963591163935D+03
 0.196516897016826D+03 0.141863523183460D+03 -.481218663614697D+02 0.235141995608294D+02
 0.199918001352443D+03 -.180810970077727D+03 0.159520164540341D+02 -.235141995608294D+02
 0.601555793780126D+02 0.389474468942663D+02 0.321698499074356D+02 0.326632954194114D+02
0.100972324617D-02 0.000000000000D+00 0.000000000000D+00 0.214455138038D-02 0.000000000000D+00  5 -1 2 25 24 21 0 0.38317424D-02 0.23875434D+00 0.38097314D+05 0.38097314D+05 0.38097314D+05 0.12041556D+01  1  2  2  1  5  1       -1 0.384413056304D+00 0.100000000000D+01
-.560921706215D-04 0.000000000000D+00 -.387760313151D-05 0.214455138038D-02 0.000000000000D+00  5 -1 2 25 24 21 2 0.38317424D-02 0.23875434D+00 0.38097314D+05 0.38097314D+05 0.38097314D+05 0.12041556D+01  1  2  3  1  5  1       -1 -.309644394267D-01 0.100000000000D+01
0.694672171614D-04 0.000000000000D+00 0.000000000000D+00 0.214455138038D-02 0.000000000000D+00  5 -1 2 25 24 21 2 0.38317424D-02 0.23875434D+00 0.38097314D+05 0.38097314D+05 0.38097314D+05 0.12041556D+01  1  2 15  1  5  1       -1 0.383478373916D-01 0.100000000000D+01
0.970727751471D-03 0.000000000000D+00 0.000000000000D+00 0.214455138038D-02 0.000000000000D+00  5 -1 2 25 24 21 2 0.48900671D-02 0.23875434D+00 0.49317467D+05 0.49317467D+05 0.49317467D+05 0.11928734D+01  1  2 12  1  5  1       -1 0.366065756211D+00 0.100000000000D+01
-.100117996301D-02 0.000000000000D+00 0.000000000000D+00 0.214455138038D-02 0.000000000000D+00  5 -1 2 25 24 21 2 0.38317424D-02 0.23875434D+00 0.38097314D+05 0.38097314D+05 0.38097314D+05 0.12041556D+01  1  2  4  1  5  1       -1 -.552679205965D+00 0.100000000000D+01
-.172339990239D-02 0.000000000000D+00 -.476760921381D-03 0.214455138038D-02 0.000000000000D+00  5 -1 2 25 24 21 2 0.51703558D-02 0.23875434D+00 0.38097314D+05 0.38097314D+05 0.38097314D+05 0.12041556D+01  1  2  5  1  5  1       -1 -.609344496469D+00 0.100000000000D+01
0.180523678647D-02 0.000000000000D+00 0.456133018173D-03 0.214455138038D-02 0.000000000000D+00  5 -1 2 25 24 21 2 0.38317424D-02 0.23875434D+00 0.38097314D+05 0.38097314D+05 0.38097314D+05 0.12041556D+01  1  2  6  1  5  1       -1 0.996540952260D+00 0.100000000000D+01
0.322568552585D-04 0.000000000000D+00 0.000000000000D+00 0.214455138038D-02 0.000000000000D+00  5 21 2 25 24 1 2 0.48900671D-02 0.23875434D+00 0.49317467D+05 0.49317467D+05 0.49317467D+05 0.11928734D+01  1  2 12  3  5  1       -1 0.210029233860D+00 0.100000000000D+01
-.558889503659D-04 0.000000000000D+00 -.184125276012D-04 0.214455138038D-02 0.000000000000D+00  5 21 2 25 24 1 2 0.51703558D-02 0.23875434D+00 0.38097314D+05 0.38097314D+05 0.38097314D+05 0.12041556D+01  1  2  5  3  5  1       -1 -.339177039217D+00 0.100000000000D+01
  </mgrwgt>
  </event>
  <event>
  4     66 0.45252658E-03 0.77626541E+02 0.75467711E-02 0.12535705E+00
       -1 -1    0    0    0  501 0.00000000E+00 0.00000000E+00 0.36053465E+01 0.36195198E+01 0.32000000E+00 0.0000E+00 0.9000E+01
        2 -1    0    0  501    0 0.00000000E+00 0.00000000E+00 -.34313423E+04 0.34313423E+04 0.32000000E+00 0.0000E+00 0.9000E+01
       25  1    1    2    0    0 -.34800371E+02 0.18914490E+02 -.18103731E+04 0.18151156E+04 0.12500000E+03 0.0000E+00 0.9000E+01
       24  1    1    2    0    0 0.34800371E+02 -.18914490E+02 -.16173638E+04 0.16198462E+04 0.80419002E+02 0.0000E+00 0.9000E+01
#aMCatNLO 1  0  0  2  1 0.68560347D+01 0.00000000D+00  -5  5  0 0.00000000D+00 0.00000000D+00 0.00000000D+00 0.00000000D+00 0.00000000D+00
  <mgrwgt>
 0.1018126856D+01   11    2    0
 0.111335285326155D+03 0.000000000000000D+00 0.000000000000000D+00 0.111335285326155D+03
 0.111335285326155D+03 0.000000000000000D+00 0.000000000000000D+00 -.111335285326155D+03
 0.131898811118544D+03 -.348003706603684D+02 0.189144903698361D+02 0.142643832826973D+02
 0.907717595337662D+02 0.348003706603684D+02 -.189144903698361D+02 -.142643832826973D+02
 0.000000000000000D+00 -.000000000000000D+00 0.000000000000000D+00 -.000000000000000D+00
 0.112339122981440D+03 0.000000000000000D+00 0.000000000000000D+00 0.112339122981440D+03
 0.123743848208376D+03 0.000000000000000D+00 0.000000000000000D+00 -.123743848208376D+03
 0.131370123492086D+03 -.347669537470387D+02 0.148625584285315D+02 0.142643832826973D+02
 0.914059709310101D+02 0.348234946094153D+02 -.217183599800366D+02 -.142643832826973D+02
 0.133068767667190D+02 -.565408623765925D-01 0.685580155150506D+01 -.114047252269359D+02
0.628411209311D-03 0.000000000000D+00 0.000000000000D+00 0.293487583539D-02 0.000000000000D+00  5 -1 2 25 24 21 0 0.55576010D-03 0.52789990D+00 0.12184758D+05 0.12184758D+05 0.12184758D+05 0.12582472D+01  1  2  2  2  5  2        2 0.357628815634D+00 0.100000000000D+01
-.349086121545D-04 0.000000000000D+00 -.241326450822D-05 0.293487583539D-02 0.000000000000D+00  5 -1 2 25 24 21 2 0.55576010D-03 0.52789990D+00 0.12184758D+05 0.12184758D+05 0.12184758D+05 0.12582472D+01  1  2  3  2  5  2        2 -.314523486098D-01 0.100000000000D+01
0.433962982430D-04 0.000000000000D+00 0.000000000000D+00 0.293487583539D-02 0.000000000000D+00  5 -1 2 25 24 21 2 0.55576010D-03 0.52789990D+00 0.12184758D+05 0.12184758D+05 0.12184758D+05 0.12582472D+01  1  2 15  2  5  2        2 0.390996781731D-01 0.100000000000D+01
0.291302883713D-02 0.000000000000D+00 0.000000000000D+00 0.293487583539D-02 0.000000000000D+00  5 -1 2 25 24 21 2 0.55576010D-03 0.58895304D+00 0.12965868D+05 0.12965868D+05 0.12965868D+05 0.12551028D+01  1  2 12  2  5  2        2 0.141976411924D+01 0.100000000000D+01
-.313593908366D-02 0.000000000000D+00 0.000000000000D+00 0.293487583539D-02 0.000000000000D+00  5 -1 2 25 24 21 2 0.55576010D-03 0.52789990D+00 0.12184758D+05 0.12184758D+05 0.12184758D+05 0.12582472D+01  1  2  4  2  5  2        2 -.282545318163D+01 0.100000000000D+01
-.472298904903D-02 0.000000000000D+00 -.465736308848D-03 0.293487583539D-02 0.000000000000D+00  5 -1 2 25 24 21 2 0.55576010D-03 0.58780033D+00 0.12184758D+05 0.12184758D+05 0.12184758D+05 0.12582472D+01  1  2  5  2  5  2        2 -.234345213438D+01 0.100000000000D+01
0.478919354687D-02 0.000000000000D+00 0.468798178111D-03 0.293487583539D-02 0.000000000000D+00  5 -1 2 25 24 21 2 0.55576010D-03 0.52789990D+00 0.12184758D+05 0.12184758D+05 0.12184758D+05 0.12582472D+01  1  2  6  2  5  2        2 0.431502072695D+01 0.100000000000D+01
0.178141821581D-03 0.000000000000D+00 0.000000000000D+00 0.293487583539D-02 0.527574198810D-03  5 -1 2 25 24 21 2 0.56077102D-03 0.58673551D+00 0.12965868D+05 0.12965868D+05 0.12965868D+05 0.12551028D+01  1  2 11  2  5  2        2 0.877590829705D-01 0.100000000000D+01
0.511233325416D-04 0.000000000000D+00 0.000000000000D+00 0.293487583539D-02 0.000000000000D+00  5 -1 21 25 24 -2 2 0.55576010D-03 0.58895304D+00 0.12965868D+05 0.12965868D+05 0.12965868D+05 0.12551028D+01  1  2 12  4  5  2        2 0.143093702104D-02 0.100000000000D+01
-.798621687519D-04 0.000000000000D+00 -.804851031637D-05 0.293487583539D-02 0.000000000000D+00  5 -1 21 25 24 -2 2 0.55576010D-03 0.58780033D+00 0.12184758D+05 0.12184758D+05 0.12184758D+05 0.12582472D+01  1  2  5  4  5  2        2 -.230879924626D-02 0.100000000000D+01
0.312946313897D-05 0.000000000000D+00 0.000000000000D+00 0.293487583539D-02 0.904472536859D-05  5 -1 21 25 24 -2 2 0.56077102D-03 0.58673551D+00 0.12965868D+05 0.12965868D+05 0.12965868D+05 0.12551028D+01  1  2 11  4  5  2        2 0.899603347666D-04 0.100000000000D+01
  </mgrwgt>
  </event>
  <event>
  4     66 0.45252658E-03 0.10347197E+03 0.75467711E-02 0.12671822E+00
       -1 -1    0    0    0  501 0.00000000E+00 0.00000000E+00 0.27189161E+02 0.27191044E+02 0.32000000E+00 0.0000E+00 0.9000E+01
        2 -1    0    0  501    0 0.00000000E+00 0.00000000E+00 -.45402332E+03 0.45402343E+03 0.32000000E+00 0.0000E+00 0.9000E+01
       25  1    1    2    0    0 -.12242400E+02 0.18908072E+00 -.16709402E+03 0.20903427E+03 0.12500000E+03 0.0000E+00 0.9000E+01
       24  1    1    2    0    0 0.12242400E+02 -.18908072E+00 -.25974014E+03 0.27218021E+03 0.80419002E+02 0.0000E+00 0.9000E+01
#aMCatNLO 1  0  0  1  2 0.59964198D+01 0.00000000D+00  -5  5  0 0.00000000D+00 0.00000000D+00 0.00000000D+00 0.00000000D+00 0.00000000D+00
  <mgrwgt>
 0.1325327900D+00    6    2    0
 0.111108024803571D+03 0.000000000000000D+00 0.000000000000000D+00 0.111108024803571D+03
 0.111108024803571D+03 0.000000000000000D+00 0.000000000000000D+00 -.111108024803571D+03
 0.131713611262829D+03 -.122424000858960D+02 0.189080724489997D+00 0.396681645720109D+02
 0.905024383443131D+02 0.122424000858960D+02 -.189080724489997D+00 -.396681645720109D+02
 0.000000000000000D+00 0.000000000000000D+00 -.000000000000000D+00 -.000000000000000D+00
 0.112675305654672D+03 0.000000000000000D+00 0.000000000000000D+00 0.112675305654672D+03
 0.117035982701416D+03 0.000000000000000D+00 0.000000000000000D+00 -.117035982701416D+03
 0.132027324320586D+03 -.150712931108824D+02 0.234674470423668D+01 0.396681645720109D+02
 0.902696161732509D+02 0.103034337172283D+02 0.128981503249419D+01 -.396681645720109D+02
 0.741434786225116D+01 0.476785939365413D+01 -.363655973673088D+01 -.436067704674405D+01
0.171655636658D-03 0.000000000000D+00 0.000000000000D+00 0.266185634461D-02 0.000000000000D+00  5 -1 2 25 24 21 0 0.41831013D-02 0.69849895D-01 0.10706449D+05 0.10706449D+05 0.10706449D+05 0.12648714D+01  1  2  2  1  5  1       -1 0.286991046340D+00 0.100000000000D+01
-.947764108801D-05 0.000000000000D+00 -.659202842732D-06 0.266185634461D-02 0.000000000000D+00  5 -1 2 25 24 21 2 0.41831013D-02 0.69849895D-01 0.10706449D+05 0.10706449D+05 0.10706449D+05 0.12648714D+01  1  2  3  1  5  1       -1 -.253514787660D-01 0.100000000000D+01
0.117581651977D-04 0.000000000000D+00 0.000000000000D+00 0.266185634461D-02 0.000000000000D+00  5 -1 2 25 24 21 2 0.41831013D-02 0.69849895D-01 0.10706449D+05 0.10706449D+05 0.10706449D+05 0.12648714D+01  1  2 15  1  5  1       -1 0.314515893320D-01 0.100000000000D+01
-.922531314699D-04 0.000000000000D+00 0.000000000000D+00 0.266185634461D-02 0.000000000000D+00  5 -1 2 25 24 21 2 0.41831013D-02 0.69849895D-01 0.10706449D+05 0.10706449D+05 0.10706449D+05 0.12648714D+01  1  2  4  1  5  1       -1 -.246765337687D+00 0.100000000000D+01
0.250345735012D-04 0.000000000000D+00 0.000000000000D+00 0.266185634461D-02 0.629631539937D-03  5 -1 2 25 24 21 2 0.42421078D-02 0.73576604D-01 0.11343337D+05 0.11343337D+05 0.11343337D+05 0.12618986D+01  1  2 11  1  5  1       -1 0.619073358559D-01 0.100000000000D+01
0.539782230756D-06 0.000000000000D+00 0.000000000000D+00 0.266185634461D-02 0.166517697740D-05  5 21 2 25 24 1 2 0.42421078D-02 0.73576604D-01 0.11343337D+05 0.11343337D+05 0.11343337D+05 0.12618986D+01  1  2 11  3  5  1       -1 0.242996349695D-01 0.100000000000D+01
  </mgrwgt>
  </event>
  <event>
  4     66 0.45252658E-03 0.69928514E+02 0.75467711E-02 0.12117783E+00
       -1 -1    0    0    0  501 0.00000000E+00 0.00000000E+00 0.17000478E+03 0.17000508E+03 0.32000000E+00 0.0000E+00 0.9000E+01
        2 -1    0    0  501    0 0.00000000E+00 0.00000000E+00 -.12569757E+03 0.12569797E+03 0.32000000E+00 0.0000E+00 0.9000E+01
       25  1    1    2    0    0 -.43209823E+02 -.39184223E+02 -.61091582E+02 0.15086310E+03 0.12500000E+03 0.0000E+00 0.9000E+01
       24  1    1    2    0    0 0.43209823E+02 0.39184223E+02 0.10539880E+03 0.14483996E+03 0.80419002E+02 0.0000E+00 0.9000E+01
#aMCatNLO 1  0  0  1  2 0.40828001D+02 0.00000000D+00  -5  5  0 0.00000000D+00 0.00000000D+00 0.00000000D+00 0.00000000D+00 0.00000000D+00
  <mgrwgt>
 0.3445548838D+00    9    2    0
 0.146182393340080D+03 0.000000000000000D+00 0.000000000000000D+00 0.146182393340080D+03
 0.146182393340080D+03 0.000000000000000D+00 0.000000000000000D+00 -.146182393340080D+03
 0.161843964881607D+03 -.432098232445650D+02 -.391842227767551D+02 -.846520928811215D+02
 0.130520821798552D+03 0.432098232445650D+02 0.391842227767551D+02 0.846520928811215D+02
 0.000000000000000D+00 -.000000000000000D+00 -.000000000000000D+00 0.000000000000000D+00
 0.168919308346907D+03 0.000000000000000D+00 0.000000000000000D+00 0.168919308346907D+03
 0.167148846944854D+03 0.000000000000000D+00 0.000000000000000D+00 -.167148846944854D+03
 0.156682594532002D+03 -.212884647749697D+02 -.361283803629588D+02 -.846520928811215D+02
 0.138519190930101D+03 0.617254615403062D+02 0.417653070148106D+02 0.846520928811215D+02
 0.408663698296577D+02 -.404369967653366D+02 -.563692665185179D+01 0.177046140205255D+01
0.568108203907D-03 0.000000000000D+00 0.000000000000D+00 0.169713334836D-02 0.000000000000D+00  5 -1 2 25 24 21 0 0.26154636D-01 0.19338142D-01 0.14076230D+05 0.14076230D+05 0.14076230D+05 0.12509819D+01  1  2  2  1  5  1       -1 0.229965938099D+00 0.100000000000D+01
-.298896098197D-04 0.000000000000D+00 -.218168508933D-05 0.169713334836D-02 0.000000000000D+00  5 -1 2 25 24 21 2 0.26154636D-01 0.19338142D-01 0.14076230D+05 0.14076230D+05 0.14076230D+05 0.12509819D+01  1  2  3  1  5  1       -1 -.189345382686D-01 0.100000000000D+01
0.387179531026D-04 0.000000000000D+00 0.000000000000D+00 0.169713334836D-02 0.000000000000D+00  5 -1 2 25 24 21 2 0.26154636D-01 0.19338142D-01 0.14076230D+05 0.14076230D+05 0.14076230D+05 0.12509819D+01  1  2 15  1  5  1       -1 0.245271373272D-01 0.100000000000D+01
0.308617938807D-03 0.000000000000D+00 0.000000000000D+00 0.169713334836D-02 0.000000000000D+00  5 -1 2 25 24 21 2 0.31832338D-01 0.19338142D-01 0.19925772D+05 0.19925772D+05 0.19925772D+05 0.12340039D+01  1  2 12  1  5  1       -1 0.138266777748D+00 0.100000000000D+01
-.290168140838D-03 0.000000000000D+00 0.000000000000D+00 0.169713334836D-02 0.000000000000D+00  5 -1 2 25 24 21 2 0.26154636D-01 0.19338142D-01 0.14076230D+05 0.14076230D+05 0.14076230D+05 0.12509819D+01  1  2  4  1  5  1       -1 -.183816376332D+00 0.100000000000D+01
-.711237690093D-03 0.000000000000D+00 -.284193203333D-03 0.169713334836D-02 0.000000000000D+00  5 -1 2 25 24 21 2 0.34277311D-01 0.19338142D-01 0.14076230D+05 0.14076230D+05 0.14076230D+05 0.12509819D+01  1  2  5  1  5  1       -1 -.286494236920D+00 0.100000000000D+01
0.769857627668D-03 0.000000000000D+00 0.274106886705D-03 0.169713334836D-02 0.000000000000D+00  5 -1 2 25 24 21 2 0.26154636D-01 0.19338142D-01 0.14076230D+05 0.14076230D+05 0.14076230D+05 0.12509819D+01  1  2  6  1  5  1       -1 0.487691167613D+00 0.100000000000D+01
0.871119152741D-05 0.000000000000D+00 0.000000000000D+00 0.169713334836D-02 0.000000000000D+00  5 21 2 25 24 1 2 0.31832338D-01 0.19338142D-01 0.19925772D+05 0.19925772D+05 0.19925772D+05 0.12340039D+01  1  2 12  3  5  1       -1 0.444442094672D-01 0.100000000000D+01
-.200897995364D-04 0.000000000000D+00 -.101892955325D-04 0.169713334836D-02 0.000000000000D+00  5 21 2 25 24 1 2 0.34277311D-01 0.19338142D-01 0.14076230D+05 0.14076230D+05 0.14076230D+05 0.12509819D+01  1  2  5  3  5  1       -1 -.910951948910D-01 0.100000000000D+01
  </mgrwgt>
  </event>
  <event>
  4     66 0.45252658E-03 0.10412776E+03 0.75467711E-02 0.11340700E+00
       -1 -1    0    0    0  501 0.00000000E+00 0.00000000E+00 0.85493530E+02 0.85494129E+02 0.32000000E+00 0.0000E+00 0.9000E+01
        2 -1    0    0  501    0 0.00000000E+00 0.00000000E+00 -.13641464E+03 0.13641502E+03 0.32000000E+00 0.0000E+00 0.9000E+01
       25  1    1    2    0    0 -.69202279E+01 0.15232056E+02 -.16525609E+01 0.12612548E+03 0.12500000E+03 0.0000E+00 0.9000E+01
       24  1    1    2    0    0 0.69202279E+01 -.15232056E+02 -.49268549E+02 0.95783667E+02 0.80419002E+02 0.0000E+00 0.9000E+01
#aMCatNLO 1  0  0  2  1 0.17045084D+03 0.00000000D+00  -5  5  0 0.00000000D+00 0.00000000D+00 0.00000000D+00 0.00000000D+00 0.00000000D+00
  <mgrwgt>
 0.4059051219D+00    3    2    0
 0.107993876097158D+03 0.000000000000000D+00 0.000000000000000D+00 0.107993876097158D+03
 0.107993876097158D+03 0.000000000000000D+00 0.000000000000000D+00 -.107993876097158D+03
 0.129193652363616D+03 -.692022790434262D+01 0.152320559354365D+02 0.280373809187427D+02
 0.867940998307000D+02 0.692022790434262D+01 -.152320559354365D+02 -.280373809187427D+02
 0.000000000000000D+00 -.000000000000000D+00 -.000000000000000D+00 0.000000000000000D+00
 0.277008275746645D+03 0.000000000000000D+00 0.000000000000000D+00 0.277008275746645D+03
 0.189662948322469D+03 0.000000000000000D+00 0.000000000000000D+00 -.189662948322469D+03
 0.168295140850525D+03 0.712542232921186D+02 0.826740307965699D+02 0.280373809187427D+02
 0.106848815969973D+03 0.578059386137993D+02 0.286676167828727D+02 -.280373809187427D+02
 0.191527267248617D+03 -.129060161905918D+03 -.111341647579443D+03 0.873453274241762D+02
0.364915270038D-03 0.000000000000D+00 0.000000000000D+00 0.289642307346D-02 0.000000000000D+00  5 -1 2 25 24 21 0 0.13152926D-01 0.20986943D-01 0.10842590D+05 0.10842590D+05 0.10842590D+05 0.12642195D+01  1  2  2  2  5  2        2 0.397805274032D+00 0.100000000000D+01
-.202403109995D-04 0.000000000000D+00 -.140137072134D-05 0.289642307346D-02 0.000000000000D+00  5 -1 2 25 24 21 2 0.13152926D-01 0.20986943D-01 0.10842590D+05 0.10842590D+05 0.10842590D+05 0.12642195D+01  1  2  3  2  5  2        2 -.352647378411D-01 0.100000000000D+01
0.248892450063D-04 0.000000000000D+00 0.000000000000D+00 0.289642307346D-02 0.000000000000D+00  5 -1 2 25 24 21 2 0.13152926D-01 0.20986943D-01 0.10842590D+05 0.10842590D+05 0.10842590D+05 0.12642195D+01  1  2 15  2  5  2        2 0.433645856642D-01 0.100000000000D+01
  </mgrwgt>
  </event>
  <event>
  4     66 0.45252658E-03 0.20324370E+03 0.75467711E-02 0.10788110E+00
       -1 -1    0    0    0  501 0.00000000E+00 0.00000000E+00 0.42438520E+02 0.42439727E+02 0.32000000E+00 0.0000E+00 0.9000E+01
        2 -1    0    0  501    0 0.00000000E+00 0.00000000E+00 -.11853586E+04 0.11853586E+04 0.32000000E+00 0.0000E+00 0.9000E+01
       25  1    1    2    0    0 -.97984018E+02 -.14418014E+03 -.85676875E+03 0.88321372E+03 0.12500000E+03 0.0000E+00 0.9000E+01
       24  1    1    2    0    0 0.97984018E+02 0.14418014E+03 -.28615133E+03 0.34458465E+03 0.80419002E+02 0.0000E+00 0.9000E+01
#aMCatNLO 1  0  0  1  1 0.18269732D+03 0.00000000D+00  -5  5  0 0.00000000D+00 0.00000000D+00 0.00000000D+00 0.00000000D+00 0.00000000D+00
  <mgrwgt>
 0.4140588598D+00    5    2    0
 0.224289169866544D+03 0.000000000000000D+00 0.000000000000000D+00 0.224289169866544D+03
 0.224289169866544D+03 0.000000000000000D+00 0.000000000000000D+00 -.224289169866544D+03
 0.234496733668084D+03 -.979840182098995D+02 -.144180144514836D+03 -.947361399051263D+02
 0.214081606065003D+03 0.979840182098995D+02 0.144180144514836D+03 0.947361399051263D+02
 0.000000000000000D+00 0.000000000000000D+00 -.000000000000000D+00 0.000000000000000D+00
 0.335753824118742D+03 0.000000000000000D+00 0.000000000000000D+00 0.335753824118742D+03
 0.331352607010997D+03 0.000000000000000D+00 0.000000000000000D+00 -.331352607010997D+03
 0.290499347518659D+03 -.200695983623556D+03 -.139681984743977D+03 -.947361399051263D+02
 0.193856758542205D+03 0.181736106698574D+02 0.147675355253397D+03 0.947361399051263D+02
 0.182750325068875D+03 0.182522372953699D+03 -.799337050941979D+01 0.440121710774408D+01
0.142556110727D-02 0.000000000000D+00 0.000000000000D+00 0.174373053621D-02 0.000000000000D+00  5 -1 2 25 24 21 0 0.65290992D-02 0.18236296D+00 0.41308000D+05 0.41308000D+05 0.41308000D+05 0.12005838D+01  1  2  2  1  5  1       -1 0.387035082162D+00 0.100000000000D+01
-.782630030841D-04 0.000000000000D+00 -.547453001079D-05 0.174373053621D-02 0.000000000000D+00  5 -1 2 25 24 21 2 0.65290992D-02 0.18236296D+00 0.41308000D+05 0.41308000D+05 0.41308000D+05 0.12005838D+01  1  2  3  1  5  1       -1 -.306271044626D-01 0.100000000000D+01
0.976212761918D-04 0.000000000000D+00 0.000000000000D+00 0.174373053621D-02 0.000000000000D+00  5 -1 2 25 24 21 2 0.65290992D-02 0.18236296D+00 0.41308000D+05 0.41308000D+05 0.41308000D+05 0.12005838D+01  1  2 15  1  5  1       -1 0.382026871686D-01 0.100000000000D+01
-.753220841713D-04 0.000000000000D+00 -.402509834541D-03 0.174373053621D-02 0.000000000000D+00  5 -1 2 25 24 21 2 0.14918461D-01 0.18236296D+00 0.41308000D+05 0.41308000D+05 0.41308000D+05 0.12005838D+01  1  2  5  1  5  1       -1 -.824185480142D-02 0.100000000000D+01
0.186954980226D-04 0.000000000000D+00 -.361722113368D-04 0.174373053621D-02 0.000000000000D+00  5 21 2 25 24 1 2 0.14918461D-01 0.18236296D+00 0.41308000D+05 0.41308000D+05 0.41308000D+05 0.12005838D+01  1  2  5  3  5  1       -1 0.276900496846D-01 0.100000000000D+01
  </mgrwgt>
  </event>
  <event>
  5     66 0.45252658E-03 0.13753523E+03 0.75467711E-02 0.11075459E+00
       21 -1    0    0  502  501 0.00000000E+00 0.00000000E+00 0.78249626E+03 0.78249662E+03 0.75000000E+00 0.0000E+00 0.9000E+01
        2 -1    0    0  501    0 0.00000000E+00 0.00000000E+00 -.19561233E+03 0.19561259E+03 0.32000000E+00 0.0000E+00 0.9000E+01
       25  1    1    2    0    0 -.75730233E+02 -.21686868E+02 0.18837958E+03 0.23941022E+03 0.12500000E+03 0.0000E+00 0.9000E+01
       24  1    1    2    0    0 -.51439712E+02 0.15792914E+03 0.49539231E+03 0.52864773E+03 0.80419002E+02 0.0000E+00 0.9000E+01
        1  1    1    2  502    0 0.12716994E+03 -.13624227E+03 -.96887963E+02 0.21005126E+03 0.32000000E+00 0.0000E+00 0.9000E+01
#aMCatNLO 2  0  0  1  1 0.18637100D+03 0.00000000D+00  -5  5  0 0.00000000D+00 0.00000000D+00 0.00000000D+00 0.00000000D+00 0.00000000D+00
  <mgrwgt>
 0.3263881470D-01    1    2    0
 0.148015924637363D+03 0.000000000000000D+00 0.000000000000000D+00 0.148015924637363D+03
 0.148015924637363D+03 0.000000000000000D+00 0.000000000000000D+00 -.148015924637363D+03
 0.163483490151117D+03 -.125401188819891D+02 -.893849739023729D+02 -.543592072319691D+02
 0.132548359123608D+03 0.125401188819891D+02 0.893849739023729D+02 0.543592072319691D+02
 0.000000000000000D+00 0.000000000000000D+00 -.000000000000000D+00 -.000000000000000D+00
 0.188539501457307D+03 0.000000000000000D+00 0.000000000000000D+00 0.188539501457307D+03
 0.811851922643365D+03 0.000000000000000D+00 0.000000000000000D+00 -.811851922643365D+03
 0.157433515450186D+03 -.757302327343522D+02 -.216868675957712D+02 -.543592072319691D+02
 0.192379300779997D+03 -.514397122416981D+02 0.157929136032061D+03 0.543592072319691D+02
 0.650578607870489D+03 0.127169944976050D+03 -.136242268436289D+03 -.623312421186058D+03
0.214492733134D-03 0.000000000000D+00 0.000000000000D+00 0.212749680749D-02 0.588211888442D-07  5 21 2 25 24 1 2 0.12038406D+00 0.30094246D-01 0.67252497D+05 0.67252497D+05 0.67252497D+05 0.11797386D+01  1  2  1  3  5  1       -1 0.326388146962D-01 0.100000000000D+01
  </mgrwgt>
  </event>
  <event>
  5     66 -.45252658E-03 0.13341902E+03 0.75467711E-02 0.12127662E+00
       -1 -1    0    0    0  501 0.00000000E+00 0.00000000E+00 0.45137058E+02 0.45138192E+02 0.32000000E+00 0.0000E+00 0.9000E+01
        2 -1    0    0  502    0 0.00000000E+00 0.00000000E+00 -.68148069E+03 0.68148076E+03 0.32000000E+00 0.0000E+00 0.9000E+01
       25  1    1    2    0    0 0.73261520E+02 -.35581348E+02 -.54473953E+03 0.56480035E+03 0.12500000E+03 0.0000E+00 0.9000E+01
       24  1    1    2    0    0 -.82599658E+02 0.25821381E+02 -.73203222E+02 0.13897976E+03 0.80419002E+02 0.0000E+00 0.9000E+01
       21  1    1    2  502  501 0.93381371E+01 0.97599661E+01 -.18400883E+02 0.22838843E+02 0.75000000E+00 0.0000E+00 0.9000E+01
#aMCatNLO 2  0  0  2  1 0.13507692D+02 0.00000000D+00  -5  5  0 0.00000000D+00 0.00000000D+00 0.00000000D+00 0.00000000D+00 0.00000000D+00
  <mgrwgt>
 -.4144808559D+00    3    2    0
 0.168278600480881D+03 0.000000000000000D+00 0.000000000000000D+00 0.168278600480881D+03
 0.168278600480881D+03 0.000000000000000D+00 0.000000000000000D+00 -.168278600480881D+03
 0.181883693492499D+03 0.782901486254510D+02 -.303255625949262D+02 -.102018090748550D+03
 0.154673507469262D+03 -.782901486254510D+02 0.303255625949262D+02 0.102018090748550D+03
 0.000000000000000D+00 0.000000000000000D+00 0.000000000000000D+00 0.000000000000000D+00
 0.177111212772586D+03 0.000000000000000D+00 0.000000000000000D+00 0.177111212772586D+03
 0.173658844603993D+03 0.000000000000000D+00 0.000000000000000D+00 -.173658844603993D+03
 0.180737305245535D+03 0.732615204005449D+02 -.355813475860426D+02 -.102018090748550D+03
 0.156090851628083D+03 -.825996575421718D+02 0.258213814802034D+02 0.102018090748550D+03
 0.139419005029615D+02 0.933813714162690D+01 0.975996610583918D+01 0.345236816859316D+01
-.120186873872D-02 0.000000000000D+00 0.000000000000D+00 0.150548465201D-02 0.000000000000D+00  5 -1 2 25 24 21 2 0.65975626D-02 0.10739539D+00 0.19717512D+05 0.19717512D+05 0.19717512D+05 0.12345068D+01  1  2 13  2  5  2        2 -.984411541778D+00 0.100000000000D+01
-.499877503607D-04 0.000000000000D+00 0.000000000000D+00 0.150548465201D-02 0.000000000000D+00  5 -1 2 25 24 21 2 0.65975626D-02 0.10158920D+00 0.17800636D+05 0.17800636D+05 0.17800636D+05 0.12394352D+01  1  2  8  2  5  2        2 -.439562030868D-01 0.100000000000D+01
0.786446533835D-03 0.000000000000D+00 0.000000000000D+00 0.150548465201D-02 0.672547203848D-04  5 -1 2 25 24 21 2 0.69438557D-02 0.10483724D+00 0.19717512D+05 0.19717512D+05 0.19717512D+05 0.12345068D+01  1  2  1  2  5  2        2 0.613886888986D+00 0.100000000000D+01
  </mgrwgt>
  </event>
  <event>
  5     66 0.45252658E-03 0.13369014E+03 0.75467711E-02 0.11155484E+00
       21 -1    0    0  502  501 0.00000000E+00 0.00000000E+00 0.10130830E+03 0.10131107E+03 0.75000000E+00 0.0000E+00 0.9000E+01
        2 -1    0    0  501    0 0.00000000E+00 0.00000000E+00 -.62479654E+03 0.62479662E+03 0.32000000E+00 0.0000E+00 0.9000E+01
       25  1    1    2    0    0 -.40927907E+02 0.81675853E+02 -.21868065E+03 0.26794079E+03 0.12500000E+03 0.0000E+00 0.9000E+01
       24  1    1    2    0    0 0.12451628E+03 0.70788675E+02 -.11357015E+03 0.19970162E+03 0.80419002E+02 0.0000E+00 0.9000E+01
        1  1    1    2  502    0 -.83588370E+02 -.15246453E+03 -.19123744E+03 0.25846529E+03 0.32000000E+00 0.0000E+00 0.9000E+01
#aMCatNLO 2  0  0  1  1 0.17387480D+03 0.00000000D+00  -5  5  0 0.00000000D+00 0.00000000D+00 0.00000000D+00 0.00000000D+00 0.00000000D+00
  <mgrwgt>
 0.8793721091D-01    1    2    0
 0.139701801006026D+03 0.000000000000000D+00 0.000000000000000D+00 0.139701801006026D+03
 0.139701801006026D+03 0.000000000000000D+00 0.000000000000000D+00 -.139701801006026D+03
 0.156089893320660D+03 -.843447784567423D+02 0.248382137261675D+01 -.402348577147595D+02
 0.123313708691392D+03 0.843447784567423D+02 -.248382137261675D+01 0.402348577147595D+02
 0.000000000000000D+00 -.000000000000000D+00 -.000000000000000D+00 -.000000000000000D+00
 0.246247052040274D+03 0.000000000000000D+00 0.000000000000000D+00 0.246247052040274D+03
 0.257050946536169D+03 0.000000000000000D+00 0.000000000000000D+00 -.257050946536169D+03
 0.159968378924319D+03 -.409279066875699D+02 0.816758528239605D+02 -.402348577147595D+02
 0.169119482530559D+03 0.124516276814147D+03 0.707886745888727D+02 0.402348577147595D+02
 0.174210137121565D+03 -.835883701265771D+02 -.152464527412833D+03 -.108038944958948D+02
0.285822330300D-04 0.000000000000D+00 0.000000000000D+00 0.231697773221D-02 0.103580751761D-06  5 21 2 25 24 1 2 0.15586103D-01 0.96122708D-01 0.60753454D+05 0.60753454D+05 0.60753454D+05 0.11839930D+01  1  2  1  3  5  1       -1 0.879372109135D-01 0.100000000000D+01
  </mgrwgt>
  </event>
  <event>
  5     66 0.45252658E-03 0.11239593E+03 0.75467711E-02 0.12187973E+00
       -1 -1    0    0    0  502 0.00000000E+00 0.00000000E+00 0.55115612E+01 0.55208429E+01 0.32000000E+00 0.0000E+00 0.9000E+01
        2 -1    0    0  501    0 0.00000000E+00 0.00000000E+00 -.34198111E+04 0.34198111E+04 0.32000000E+00 0.0000E+00 0.9000E+01
       25  1    1    2    0    0 -.35985905E+02 0.58430901E+02 -.19531310E+04 0.19583296E+04 0.12500000E+03 0.0000E+00 0.9000E+01
       24  1    1    2    0    0 0.26537899E+02 -.16286048E+02 -.87267388E+03 0.87692440E+03 0.80419002E+02 0.0000E+00 0.9000E+01
       21  1    1    2  501  502 0.94480059E+01 -.42144853E+02 -.58849470E+03 0.59007798E+03 0.75000000E+00 0.0000E+00 0.9000E+01
#aMCatNLO 2  0  0  1  2 0.43190896D+02 0.00000000D+00  -5  5  0 0.00000000D+00 0.00000000D+00 0.00000000D+00 0.00000000D+00 0.00000000D+00
  <mgrwgt>
 0.4965164762D-01    1    2    0
 0.113607496085675D+03 0.000000000000000D+00 0.000000000000000D+00 0.113607496085675D+03
 0.113607496085675D+03 0.000000000000000D+00 0.000000000000000D+00 -.113607496085675D+03
 0.133759740350268D+03 -.302720823215678D+02 0.329431733217392D+02 -.162793274425340D+02
 0.934552518210812D+02 0.302720823215678D+02 -.329431733217392D+02 0.162793274425340D+02
 0.000000000000000D+00 0.000000000000000D+00 -.000000000000000D+00 -.000000000000000D+00
 0.135015404927166D+03 0.000000000000000D+00 0.000000000000000D+00 0.135015404927166D+03
 0.139713907040879D+03 0.000000000000000D+00 0.000000000000000D+00 -.139713907040879D+03
 0.143524116647217D+03 -.359859046367284D+02 0.584309012839870D+02 -.162793274425340D+02
 0.877594888213732D+02 0.265378987303165D+02 -.162860477960867D+02 0.162793274425340D+02
 0.434457064994546D+02 0.944800590641184D+01 -.421448534879004D+02 -.469850211371385D+01
0.102260849667D-03 0.000000000000D+00 0.000000000000D+00 0.286859299320D-02 0.129917649969D-04  5 -1 2 25 24 21 2 0.84862759D-03 0.52611308D+00 0.18499420D+05 0.18499420D+05 0.18499420D+05 0.12375726D+01  1  2  1  1  5  1       -1 0.496516476228D-01 0.100000000000D+01
  </mgrwgt>
  </event>
  <event>
  5     66 0.45252658E-03 0.13020263E+03 0.75467711E-02 0.11871557E+00
       -1 -1    0    0    0  502 0.00000000E+00 0.00000000E+00 0.65908794E+02 0.65909571E+02 0.32000000E+00 0.0000E+00 0.9000E+01
        2 -1    0    0  501    0 0.00000000E+00 0.00000000E+00 -.46426700E+03 0.46426711E+03 0.32000000E+00 0.0000E+00 0.9000E+01
       25  1    1    2    0    0 0.72794772E+02 -.70225623E+02 -.28029798E+03 0.32314497E+03 0.12500000E+03 0.0000E+00 0.9000E+01
       24  1    1    2    0    0 -.66297252E+02 0.13780816E+02 -.44700373E+02 0.11423912E+03 0.80419002E+02 0.0000E+00 0.9000E+01
       21  1    1    2  501  502 -.64975203E+01 0.56444807E+02 -.73359852E+02 0.92792589E+02 0.75000000E+00 0.0000E+00 0.9000E+01
#aMCatNLO 2  0  0  1  2 0.56817551D+02 0.00000000D+00  -5  5  0 0.00000000D+00 0.00000000D+00 0.00000000D+00 0.00000000D+00 0.00000000D+00
  <mgrwgt>
 0.1136781202D+00    1    2    0
 0.143572873209811D+03 0.000000000000000D+00 0.000000000000000D+00 0.143572873209811D+03
 0.143572873209811D+03 0.000000000000000D+00 0.000000000000000D+00 -.143572873209811D+03
 0.159519102885536D+03 0.690839872730532D+02 -.379895475238816D+02 -.600461586347838D+02
 0.127626643534087D+03 -.690839872730532D+02 0.379895475238816D+02 0.600461586347838D+02
 0.000000000000000D+00 -.000000000000000D+00 0.000000000000000D+00 -.000000000000000D+00
 0.171660752193437D+03 0.000000000000000D+00 0.000000000000000D+00 0.171660752193437D+03
 0.178250711330919D+03 0.000000000000000D+00 0.000000000000000D+00 -.178250711330919D+03
 0.171642821545600D+03 0.727947724490439D+02 -.702256229978273D+02 -.600461586347838D+02
 0.121070201297315D+03 -.662972521533643D+02 0.137808155753380D+02 0.600461586347838D+02
 0.571984406814413D+02 -.649752029567958D+01 0.564448074224893D+02 -.658995913748237D+01
0.170175258828D-03 0.000000000000D+00 0.000000000000D+00 0.207480288345D-02 0.534443835042D-05  5 -1 2 25 24 21 2 0.10139740D-01 0.71424754D-01 0.26041136D+05 0.26041136D+05 0.26041136D+05 0.12214024D+01  1  2  1  1  5  1       -1 0.113678120193D+00 0.100000000000D+01
  </mgrwgt>
  </event>
  <event>
  4     66 0.45252658E-03 0.10380487E+03 0.75467711E-02 0.11542297E+00
       -1 -1    0    0    0  501 0.00000000E+00 0.00000000E+00 0.42294801E+02 0.42296011E+02 0.32000000E+00 0.0000E+00 0.9000E+01
        2 -1    0    0  501    0 0.00000000E+00 0.00000000E+00 -.25549129E+03 0.25549149E+03 0.32000000E+00 0.0000E+00 0.9000E+01
       25  1    1    2    0    0 0.81965617E+01 0.12189937E+02 -.12142560E+03 0.17488555E+03 0.12500000E+03 0.0000E+00 0.9000E+01
       24  1    1    2    0    0 -.81965617E+01 -.12189937E+02 -.91770887E+02 0.12290195E+03 0.80419002E+02 0.0000E+00 0.9000E+01
#aMCatNLO 1  0  0  2  2 0.13943970D+03 0.00000000D+00  -5  5  0 0.00000000D+00 0.00000000D+00 0.00000000D+00 0.00000000D+00 0.00000000D+00
  <mgrwgt>
 0.1775855549D+00    5    2    0
 0.103952696590686D+03 0.000000000000000D+00 0.000000000000000D+00 0.103952696590686D+03
 0.103952696590686D+03 0.000000000000000D+00 0.000000000000000D+00 -.103952696590686D+03
 0.125976617917346D+03 0.819656169106497D+01 0.121899366031718D+02 0.541572561603068D+01
 0.819287752640270D+02 -.819656169106497D+01 -.121899366031718D+02 -.541572561603068D+01
 0.000000000000000D+00 0.000000000000000D+00 0.000000000000000D+00 -.000000000000000D+00
 0.130902517993734D+03 0.000000000000000D+00 0.000000000000000D+00 0.130902517993734D+03
 0.972812548456010D+03 0.000000000000000D+00 0.000000000000000D+00 -.972812548456010D+03
 0.142852214427892D+03 -.268855045481086D+01 -.688853887225452D+02 0.541572561603068D+01
 0.107483727259752D+03 -.158660378920200D+02 -.693143161903736D+02 -.541572561603068D+01
 0.853379124762101D+03 0.185545883468308D+02 0.138199704912919D+03 -.841910030462276D+03
0.164042741191D-03 0.000000000000D+00 0.000000000000D+00 0.319172960323D-02 0.000000000000D+00  5 -1 2 25 24 21 0 0.65070010D-02 0.39306460D-01 0.10775451D+05 0.10775451D+05 0.10775451D+05 0.12645398D+01  1  2  2  2  5  2        2 0.262629740800D+00 0.100000000000D+01
-.911346318126D-05 0.000000000000D+00 -.629967319620D-06 0.319172960323D-02 0.000000000000D+00  5 -1 2 25 24 21 2 0.65070010D-02 0.39306460D-01 0.10775451D+05 0.10775451D+05 0.10775451D+05 0.12645398D+01  1  2  3  2  5  2        2 -.233311083267D-01 0.100000000000D+01
0.113049075657D-04 0.000000000000D+00 0.000000000000D+00 0.319172960323D-02 0.000000000000D+00  5 -1 2 25 24 21 2 0.65070010D-02 0.39306460D-01 0.10775451D+05 0.10775451D+05 0.10775451D+05 0.12645398D+01  1  2 15  2  5  2        2 0.289413604677D-01 0.100000000000D+01
-.954890442805D-03 0.000000000000D+00 -.138873883213D-03 0.319172960323D-02 0.000000000000D+00  5 -1 2 25 24 21 2 0.65070010D-02 0.38734118D+00 0.10775451D+05 0.10775451D+05 0.10775451D+05 0.12645398D+01  1  2  5  2  5  2        2 -.849125102506D-01 0.100000000000D+01
-.282207482411D-03 0.000000000000D+00 -.378698514818D-04 0.319172960323D-02 0.000000000000D+00  5 -1 21 25 24 -2 2 0.65070010D-02 0.38734118D+00 0.10775451D+05 0.10775451D+05 0.10775451D+05 0.12645398D+01  1  2  5  4  5  2        2 -.574192779820D-02 0.100000000000D+01
  </mgrwgt>
  </event>
  <event>
  4     66 0.45252658E-03 0.13196134E+03 0.75467711E-02 0.12242546E+00
       -1 -1    0    0    0  501 0.00000000E+00 0.00000000E+00 0.15553325E+02 0.15556617E+02 0.32000000E+00 0.0000E+00 0.9000E+01
        2 -1    0    0  501    0 0.00000000E+00 0.00000000E+00 -.12526455E+04 0.12526455E+04 0.32000000E+00 0.0000E+00 0.9000E+01
       25  1    1    2    0    0 -.57559207E+02 -.57927754E+02 -.48609320E+03 0.50850790E+03 0.12500000E+03 0.0000E+00 0.9000E+01
       24  1    1    2    0    0 0.57559207E+02 0.57927754E+02 -.75099896E+03 0.75969424E+03 0.80419002E+02 0.0000E+00 0.9000E+01
#aMCatNLO 1  0  0  1  2 0.44315402D+00 0.00000000D+00  -5  5  0 0.00000000D+00 0.00000000D+00 0.00000000D+00 0.00000000D+00 0.00000000D+00
  <mgrwgt>
 0.3346254097D+00    6    2    0
 0.139588380526244D+03 0.000000000000000D+00 0.000000000000000D+00 0.139588380526244D+03
 0.139588380526244D+03 0.000000000000000D+00 0.000000000000000D+00 -.139588380526244D+03
 0.155989788743577D+03 -.575592068708432D+02 -.579277535999291D+02 0.451566967296227D+02
 0.123186972308910D+03 0.575592068708432D+02 0.579277535999291D+02 -.451566967296227D+02
 0.000000000000000D+00 0.000000000000000D+00 0.000000000000000D+00 -.000000000000000D+00
 0.139655255330727D+03 0.000000000000000D+00 0.000000000000000D+00 0.139655255330727D+03
 0.140324645583643D+03 0.000000000000000D+00 0.000000000000000D+00 -.140324645583643D+03
 0.156112779326781D+03 -.576683040609603D+02 -.581501445942625D+02 0.451566967296227D+02
 0.123064333447967D+03 0.574731283560561D+02 0.577522854098346D+02 -.451566967296227D+02
 0.802788139622051D+00 0.195175704904205D+00 0.397859184427967D+00 -.669390252916259D+00
0.239409360744D-03 0.000000000000D+00 0.000000000000D+00 0.226916000485D-02 0.000000000000D+00  5 -1 2 25 24 21 0 0.23930756D-02 0.19271495D+00 0.17413794D+05 0.17413794D+05 0.17413794D+05 0.12405020D+01  1  2  2  1  5  1       -1 0.259040289952D+00 0.100000000000D+01
-.132494633794D-04 0.000000000000D+00 -.919394983190D-06 0.226916000485D-02 0.000000000000D+00  5 -1 2 25 24 21 2 0.23930756D-02 0.19271495D+00 0.17413794D+05 0.17413794D+05 0.17413794D+05 0.12405020D+01  1  2  3  1  5  1       -1 -.220607068557D-01 0.100000000000D+01
0.164904397230D-04 0.000000000000D+00 0.000000000000D+00 0.226916000485D-02 0.000000000000D+00  5 -1 2 25 24 21 2 0.23930756D-02 0.19271495D+00 0.17413794D+05 0.17413794D+05 0.17413794D+05 0.12405020D+01  1  2 15  1  5  1       -1 0.274570181626D-01 0.100000000000D+01
-.726411164725D-03 0.000000000000D+00 0.000000000000D+00 0.226916000485D-02 0.000000000000D+00  5 -1 2 25 24 21 2 0.23930756D-02 0.19271495D+00 0.17413794D+05 0.17413794D+05 0.17413794D+05 0.12405020D+01  1  2  4  1  5  1       -1 -.120949379630D+01 0.100000000000D+01
0.726418966322D-03 0.000000000000D+00 0.000000000000D+00 0.226916000485D-02 0.948070692544D-01  5 -1 2 25 24 21 2 0.23942221D-02 0.19373143D+00 0.17471881D+05 0.17471881D+05 0.17471881D+05 0.12403401D+01  1  2 11  1  5  1       -1 0.119849105908D+01 0.100000000000D+01
0.244320941186D-05 0.000000000000D+00 0.000000000000D+00 0.226916000485D-02 0.852593103198D-05  5 21 2 25 24 1 2 0.23942221D-02 0.19373143D+00 0.17471881D+05 0.17471881D+05 0.17471881D+05 0.12403401D+01  1  2 11  3  5  1       -1 0.811915456458D-01 0.100000000000D+01
  </mgrwgt>
  </event>
  <event>
  4     66 0.45252658E-03 0.10845155E+03 0.75467711E-02 0.11125171E+00
       -1 -1    0    0    0  501 0.00000000E+00 0.00000000E+00 0.16887742E+03 0.16887772E+03 0.32000000E+00 0.0000E+00 0.9000E+01
        2 -1    0    0  501    0 0.00000000E+00 0.00000000E+00 -.70760756E+02 0.70761479E+02 0.32000000E+00 0.0000E+00 0.9000E+01
       25  1    1    2    0    0 -.33139900E+02 0.79386529E+01 0.73213969E+02 0.14881720E+03 0.12500000E+03 0.0000E+00 0.9000E+01
       24  1    1    2    0    0 0.33139900E+02 -.79386529E+01 0.24902695E+02 0.90821998E+02 0.80419002E+02 0.0000E+00 0.9000E+01
#aMCatNLO 1  0  0  1  2 0.20442792D+03 0.00000000D+00  -5  5  0 0.00000000D+00 0.00000000D+00 0.00000000D+00 0.00000000D+00 0.00000000D+00
  <mgrwgt>
 0.3061437831D+00    5    2    0
 0.109316132997052D+03 0.000000000000000D+00 0.000000000000000D+00 0.109316132997052D+03
 0.109316132997052D+03 0.000000000000000D+00 0.000000000000000D+00 -.109316132997052D+03
 0.130259482790345D+03 -.331398995404268D+02 0.793865285959210D+01 0.134631982096939D+02
 0.883727832037598D+02 0.331398995404268D+02 -.793865285959210D+01 -.134631982096939D+02
 0.000000000000000D+00 0.000000000000000D+00 0.000000000000000D+00 0.000000000000000D+00
 0.382747422355012D+03 0.000000000000000D+00 0.000000000000000D+00 0.382747422355012D+03
 0.194481452120429D+03 0.000000000000000D+00 0.000000000000000D+00 -.194481452120429D+03
 0.173048526193295D+03 -.413415048464018D+02 -.111491769600598D+03 0.134631982096939D+02
 0.126268764567282D+03 0.273358811665611D+02 -.924558102327339D+02 -.134631982096939D+02
 0.277911583714863D+03 0.140056236798407D+02 0.203947579833332D+03 0.188265970234583D+03
0.360826917153D-03 0.000000000000D+00 0.000000000000D+00 0.299211844674D-02 0.000000000000D+00  5 -1 2 25 24 21 0 0.25981221D-01 0.10886349D-01 0.11761738D+05 0.11761738D+05 0.11761738D+05 0.12600462D+01  1  2  2  1  5  1       -1 0.287314184646D+00 0.100000000000D+01
-.200444030927D-04 0.000000000000D+00 -.138567036978D-05 0.299211844674D-02 0.000000000000D+00  5 -1 2 25 24 21 2 0.25981221D-01 0.10886349D-01 0.11761738D+05 0.11761738D+05 0.11761738D+05 0.12600462D+01  1  2  3  1  5  1       -1 -.253410250988D-01 0.100000000000D+01
0.249090640123D-04 0.000000000000D+00 0.000000000000D+00 0.299211844674D-02 0.000000000000D+00  5 -1 2 25 24 21 2 0.25981221D-01 0.10886349D-01 0.11761738D+05 0.11761738D+05 0.11761738D+05 0.12600462D+01  1  2 15  1  5  1       -1 0.314911456034D-01 0.100000000000D+01
0.121983089882D-03 0.000000000000D+00 -.143796489260D-03 0.299211844674D-02 0.000000000000D+00  5 -1 2 25 24 21 2 0.14362742D+00 0.10886349D-01 0.11761738D+05 0.11761738D+05 0.11761738D+05 0.12600462D+01  1  2  5  1  5  1       -1 0.544250287509D-02 0.100000000000D+01
0.186521776137D-04 0.000000000000D+00 -.300952774552D-04 0.299211844674D-02 0.000000000000D+00  5 21 2 25 24 1 2 0.14362742D+00 0.10886349D-01 0.11761738D+05 0.11761738D+05 0.11761738D+05 0.12600462D+01  1  2  5  3  5  1       -1 0.723697506475D-02 0.100000000000D+01
  </mgrwgt>
  </event>
  <event>
  4     66 0.45252658E-03 0.12229972E+03 0.75467711E-02 0.12189175E+00
       -1 -1    0    0    0  501 0.00000000E+00 0.00000000E+00 0.18509896E+02 0.18512662E+02 0.32000000E+00 0.0000E+00 0.9000E+01
        2 -1    0    0  501    0 0.00000000E+00 0.00000000E+00 -.86483054E+03 0.86483060E+03 0.32000000E+00 0.0000E+00 0.9000E+01
       25  1    1    2    0    0 0.81712724E+01 0.64767130E+02 -.37170458E+03 0.39755609E+03 0.12500000E+03 0.0000E+00 0.9000E+01
       24  1    1    2    0    0 -.81712724E+01 -.64767130E+02 -.47461607E+03 0.48578717E+03 0.80419002E+02 0.0000E+00 0.9000E+01
#aMCatNLO 1  0  0  2  2 0.25792478D+02 0.00000000D+00  -5  5  0 0.00000000D+00 0.00000000D+00 0.00000000D+00 0.00000000D+00 0.00000000D+00
  <mgrwgt>
 0.3955395961D+00    3    2    0
 0.126527354344714D+03 0.000000000000000D+00 0.000000000000000D+00 0.126527354344714D+03
 0.126527354344714D+03 0.000000000000000D+00 0.000000000000000D+00 -.126527354344714D+03
 0.144621829039648D+03 0.817127240755651D+01 0.647671304945154D+02 0.320768226219678D+02
 0.108432879649781D+03 -.817127240755651D+01 -.647671304945154D+02 -.320768226219678D+02
 0.000000000000000D+00 -.000000000000000D+00 0.000000000000000D+00 0.000000000000000D+00
 0.251703976739410D+03 0.000000000000000D+00 0.000000000000000D+00 0.251703976739410D+03
 0.128518498503955D+03 0.000000000000000D+00 0.000000000000000D+00 -.128518498503955D+03
 0.139308155361528D+03 0.124235056114707D+02 0.509754461386292D+02 0.320768226219678D+02
 0.115057599974447D+03 -.482420203659460D+01 -.756230115950046D+02 -.320768226219678D+02
 0.125856719907390D+03 -.759930357487615D+01 0.246475654563754D+02 0.123185478235455D+03
0.274555926077D-03 0.000000000000D+00 0.000000000000D+00 0.252074477507D-02 0.000000000000D+00  5 -1 2 25 24 21 0 0.28478937D-02 0.13305107D+00 0.14957222D+05 0.14957222D+05 0.14957222D+05 0.12479640D+01  1  2  2  2  5  2        2 0.387301573778D+00 0.100000000000D+01
-.152316888219D-04 0.000000000000D+00 -.105436704837D-05 0.252074477507D-02 0.000000000000D+00  5 -1 2 25 24 21 2 0.28478937D-02 0.13305107D+00 0.14957222D+05 0.14957222D+05 0.14957222D+05 0.12479640D+01  1  2  3  2  5  2        2 -.334634399048D-01 0.100000000000D+01
0.189814226365D-04 0.000000000000D+00 0.000000000000D+00 0.252074477507D-02 0.000000000000D+00  5 -1 2 25 24 21 2 0.28478937D-02 0.13305107D+00 0.14957222D+05 0.14957222D+05 0.14957222D+05 0.12479640D+01  1  2 15  2  5  2        2 0.417014622037D-01 0.100000000000D+01
  </mgrwgt>
  </event>
  <event>
  4     66 0.45252658E-03 0.13600772E+03 0.75467711E-02 0.10524041E+00
       -3 -1    0    0    0  501 0.00000000E+00 0.00000000E+00 0.76916584E+03 0.76916601E+03 0.50000000E+00 0.0000E+00 0.9000E+01
        4 -1    0    0  501    0 0.00000000E+00 0.00000000E+00 -.27885850E+02 0.27928894E+02 0.15500000E+01 0.0000E+00 0.9000E+01
       25  1    1    2    0    0 -.50422493E+02 0.72061931E+02 0.26295686E+03 0.30414907E+03 0.12500000E+03 0.0000E+00 0.9000E+01
       24  1    1    2    0    0 0.50422493E+02 -.72061931E+02 0.47832313E+03 0.49294582E+03 0.80419002E+02 0.0000E+00 0.9000E+01
#aMCatNLO 1  0  0  1  2 0.33009470D+03 0.00000000D+00  -5  5  0 0.00000000D+00 0.00000000D+00 0.00000000D+00 0.00000000D+00 0.00000000D+00
  <mgrwgt>
 0.7392564104D-01    5    2    0
 0.146513011409778D+03 0.000000000000000D+00 0.000000000000000D+00 0.146513011409778D+03
 0.146513011409778D+03 0.000000000000000D+00 0.000000000000000D+00 -.146513011409778D+03
 0.162139241390159D+03 -.504224929156475D+02 0.720619310319865D+02 -.541182400183985D+02
 0.130886781429397D+03 0.504224929156475D+02 -.720619310319865D+02 0.541182400183985D+02
 0.000000000000000D+00 0.000000000000000D+00 -.000000000000000D+00 0.000000000000000D+00
 0.391366411312523D+03 0.000000000000000D+00 0.000000000000000D+00 0.391366411312523D+03
 0.380305399155138D+03 0.000000000000000D+00 0.000000000000000D+00 -.380305399155138D+03
 0.336309616649835D+03 -.102007991074617D+03 0.290077134751070D+03 -.541182400183985D+02
 0.105082227583205D+03 0.260015745332508D+02 0.311479183667358D+02 0.541182400183985D+02
 0.330279966234622D+03 0.760064165413664D+02 -.321225053117806D+03 0.110610121573854D+02
0.194089806785D-02 0.000000000000D+00 0.000000000000D+00 0.213598835270D-02 0.000000000000D+00  5 -3 4 25 24 21 0 0.11833653D+00 0.42934543D-02 0.18498101D+05 0.18498101D+05 0.18498101D+05 0.12375760D+01  1  2  2  1  5  1       -3 0.716473264143D-01 0.100000000000D+01
-.107101919610D-03 0.000000000000D+00 -.745355963076D-05 0.213598835270D-02 0.000000000000D+00  5 -3 4 25 24 21 2 0.11833653D+00 0.42934543D-02 0.18498101D+05 0.18498101D+05 0.18498101D+05 0.12375760D+01  1  2  3  1  5  1       -3 -.605533641503D-02 0.100000000000D+01
0.133646808765D-03 0.000000000000D+00 0.000000000000D+00 0.213598835270D-02 0.000000000000D+00  5 -3 4 25 24 21 2 0.11833653D+00 0.42934543D-02 0.18498101D+05 0.18498101D+05 0.18498101D+05 0.12375760D+01  1  2 15  1  5  1       -3 0.755613336173D-02 0.100000000000D+01
0.764714614250D-03 0.000000000000D+00 -.590574609915D-03 0.213598835270D-02 0.000000000000D+00  5 -3 4 25 24 21 2 0.50492438D+00 0.42934543D-02 0.18498101D+05 0.18498101D+05 0.18498101D+05 0.12375760D+01  1  2  5  1  5  1       -3 0.279584052335D-03 0.100000000000D+01
0.133856706441D-03 0.000000000000D+00 -.103049908847D-03 0.213598835270D-02 0.000000000000D+00  5 21 4 25 24 3 2 0.50492438D+00 0.42934543D-02 0.18498101D+05 0.18498101D+05 0.18498101D+05 0.12375760D+01  1  2  5  3  5  1       -3 0.497933621856D-03 0.100000000000D+01
  </mgrwgt>
  </event>
  <event>
  4     66 0.45252658E-03 0.18667584E+03 0.75467711E-02 0.10548030E+00
       -1 -1    0    0    0  501 0.00000000E+00 0.00000000E+00 0.18738970E+02 0.18741702E+02 0.32000000E+00 0.0000E+00 0.9000E+01
        2 -1    0    0  501    0 0.00000000E+00 0.00000000E+00 -.20290617E+04 0.20290617E+04 0.32000000E+00 0.0000E+00 0.9000E+01
       25  1    1    2    0    0 -.11819095E+03 -.99915331E+02 -.13610750E+04 0.13755371E+04 0.12500000E+03 0.0000E+00 0.9000E+01
       24  1    1    2    0    0 0.11819095E+03 0.99915331E+02 -.64924768E+03 0.67226627E+03 0.80419002E+02 0.0000E+00 0.9000E+01
#aMCatNLO 1  0  0  2  2 0.27542608D+03 0.00000000D+00  -5  5  0 0.00000000D+00 0.00000000D+00 0.00000000D+00 0.00000000D+00 0.00000000D+00
  <mgrwgt>
 0.3851294744D+00    5    2    0
 0.195000893444429D+03 0.000000000000000D+00 0.000000000000000D+00 0.195000893444429D+03
 0.195000893444429D+03 0.000000000000000D+00 0.000000000000000D+00 -.195000893444429D+03
 0.206741588427756D+03 -.118190948472911D+03 -.999153306432095D+02 -.562575398250190D+02
 0.183260198461102D+03 0.118190948472911D+03 0.999153306432095D+02 0.562575398250190D+02
 0.000000000000000D+00 0.000000000000000D+00 -.000000000000000D+00 -.000000000000000D+00
 0.290841184745706D+03 0.000000000000000D+00 0.000000000000000D+00 0.290841184745706D+03
 0.602631296525305D+03 0.000000000000000D+00 0.000000000000000D+00 -.602631296525305D+03
 0.233412563658916D+03 -.187715398413820D+03 0.213176754127803D+02 -.562575398250190D+02
 0.244039967138591D+03 0.506968470719821D+02 0.217607923836497D+03 0.562575398250190D+02
 0.416019950473504D+03 0.137018551341838D+03 -.238925599249277D+03 -.311790111779599D+03
0.115570464480D-02 0.000000000000D+00 0.000000000000D+00 0.200694629502D-02 0.000000000000D+00  5 -1 2 25 24 21 0 0.28831305D-02 0.31216355D+00 0.34847869D+05 0.34847869D+05 0.34847869D+05 0.12081294D+01  1  2  2  2  5  2        2 0.377824921623D+00 0.100000000000D+01
-.640572075745D-04 0.000000000000D+00 -.443821014004D-05 0.200694629502D-02 0.000000000000D+00  5 -1 2 25 24 21 2 0.28831305D-02 0.31216355D+00 0.34847869D+05 0.34847869D+05 0.34847869D+05 0.12081294D+01  1  2  3  2  5  2        2 -.305660008269D-01 0.100000000000D+01
0.793658887388D-04 0.000000000000D+00 0.000000000000D+00 0.200694629502D-02 0.000000000000D+00  5 -1 2 25 24 21 2 0.28831305D-02 0.31216355D+00 0.34847869D+05 0.34847869D+05 0.34847869D+05 0.12081294D+01  1  2 15  2  5  2        2 0.378708019390D-01 0.100000000000D+01
-.201706935669D-03 0.000000000000D+00 -.319658388753D-03 0.200694629502D-02 0.000000000000D+00  5 -1 2 25 24 21 2 0.28831305D-02 0.96989128D+00 0.34847869D+05 0.34847869D+05 0.34847869D+05 0.12081294D+01  1  2  5  2  5  2        2 -.248332163959D-06 0.100000000000D+01
-.113314240086D-04 0.000000000000D+00 -.415054305525D-04 0.200694629502D-02 0.000000000000D+00  5 -1 21 25 24 -2 2 0.28831305D-02 0.96989128D+00 0.34847869D+05 0.34847869D+05 0.34847869D+05 0.12081294D+01  1  2  5  4  5  2        2 -.872634788160D-11 0.100000000000D+01
  </mgrwgt>
  </event>
  <event>
  4     66 0.45252658E-03 0.81444301E+02 0.75467711E-02 0.11930378E+00
       -1 -1    0    0    0  501 0.00000000E+00 0.00000000E+00 0.17389918E+02 0.17392862E+02 0.32000000E+00 0.0000E+00 0.9000E+01
        2 -1    0    0  501    0 0.00000000E+00 0.00000000E+00 -.95575331E+03 0.95575337E+03 0.32000000E+00 0.0000E+00 0.9000E+01
       25  1    1    2    0    0 0.66286923E+02 0.16817567E+01 -.67969918E+03 0.69427139E+03 0.12500000E+03 0.0000E+00 0.9000E+01
       24  1    1    2    0    0 -.66286923E+02 -.16817567E+01 -.25866421E+03 0.27887484E+03 0.80419002E+02 0.0000E+00 0.9000E+01
#aMCatNLO 1  0  0  2  1 0.59436900D+02 0.00000000D+00  -5  5  0 0.00000000D+00 0.00000000D+00 0.00000000D+00 0.00000000D+00 0.00000000D+00
  <mgrwgt>
 0.4848846363D+00    9    2    0
 0.128926064473616D+03 0.000000000000000D+00 0.000000000000000D+00 0.128926064473616D+03
 0.128926064473616D+03 0.000000000000000D+00 0.000000000000000D+00 -.128926064473616D+03
 0.146683885754788D+03 0.662869233622812D+02 0.168175673383736D+01 -.386571833631862D+02
 0.111168243192444D+03 -.662869233622812D+02 -.168175673383736D+01 0.386571833631862D+02
 0.000000000000000D+00 0.000000000000000D+00 -.000000000000000D+00 -.000000000000000D+00
 0.152983961089025D+03 0.000000000000000D+00 0.000000000000000D+00 0.152983961089025D+03
 0.175020243433633D+03 0.000000000000000D+00 0.000000000000000D+00 -.175020243433633D+03
 0.142331610870768D+03 0.479521980629270D+02 0.289740630293099D+02 -.386571833631862D+02
 0.122282193547095D+03 -.810966815884262D+02 0.203634308035008D+02 0.386571833631862D+02
 0.633904001047951D+02 0.331444835254992D+02 -.493374938328108D+02 -.220362823446079D+02
0.267219155156D-03 0.000000000000D+00 0.000000000000D+00 0.242677200086D-02 0.000000000000D+00  5 -1 2 25 24 21 0 0.26756025D-02 0.14703920D+00 0.15095670D+05 0.15095670D+05 0.15095670D+05 0.12475079D+01  1  2  2  2  5  2        2 0.362196062608D+00 0.100000000000D+01
-.148036481187D-04 0.000000000000D+00 -.102619191622D-05 0.242677200086D-02 0.000000000000D+00  5 -1 2 25 24 21 2 0.26756025D-02 0.14703920D+00 0.15095670D+05 0.15095670D+05 0.15095670D+05 0.12475079D+01  1  2  3  2  5  2        2 -.312270882661D-01 0.100000000000D+01
0.184605109177D-04 0.000000000000D+00 0.000000000000D+00 0.242677200086D-02 0.000000000000D+00  5 -1 2 25 24 21 2 0.26756025D-02 0.14703920D+00 0.15095670D+05 0.15095670D+05 0.15095670D+05 0.12475079D+01  1  2 15  2  5  2        2 0.389409420734D-01 0.100000000000D+01
0.114499862994D-03 0.000000000000D+00 0.000000000000D+00 0.242677200086D-02 0.000000000000D+00  5 -1 2 25 24 21 2 0.26756025D-02 0.20937847D+00 0.24403023D+05 0.24403023D+05 0.24403023D+05 0.12244246D+01  1  2 12  2  5  2        2 0.139071541252D+00 0.100000000000D+01
-.166552575470D-03 0.000000000000D+00 0.000000000000D+00 0.242677200086D-02 0.000000000000D+00  5 -1 2 25 24 21 2 0.26756025D-02 0.14703920D+00 0.15095670D+05 0.15095670D+05 0.15095670D+05 0.12475079D+01  1  2  4  2  5  2        2 -.351329073310D+00 0.100000000000D+01
-.270077711016D-03 0.000000000000D+00 -.117073917251D-03 0.242677200086D-02 0.000000000000D+00  5 -1 2 25 24 21 2 0.26756025D-02 0.22144146D+00 0.15095670D+05 0.15095670D+05 0.15095670D+05 0.12475079D+01  1  2  5  2  5  2        2 -.306767737668D+00 0.100000000000D+01
0.301553122505D-03 0.000000000000D+00 0.107901619704D-03 0.242677200086D-02 0.000000000000D+00  5 -1 2 25 24 21 2 0.26756025D-02 0.14703920D+00 0.15095670D+05 0.15095670D+05 0.15095670D+05 0.12475079D+01  1  2  6  2  5  2        2 0.636101716138D+00 0.100000000000D+01
0.498132897280D-05 0.000000000000D+00 0.000000000000D+00 0.242677200086D-02 0.000000000000D+00  5 -1 21 25 24 -2 2 0.26756025D-02 0.20937847D+00 0.24403023D+05 0.24403023D+05 0.24403023D+05 0.12244246D+01  1  2 12  4  5  2        2 0.348121637379D-02 0.100000000000D+01
-.895493553961D-05 0.000000000000D+00 -.566935576779D-05 0.242677200086D-02 0.000000000000D+00  5 -1 21 25 24 -2 2 0.26756025D-02 0.22144146D+00 0.15095670D+05 0.15095670D+05 0.15095670D+05 0.12475079D+01  1  2  5  4  5  2        2 -.558294286722D-02 0.100000000000D+01
  </mgrwgt>
  </event>
  <event>
  4     66 0.45252658E-03 0.31540731E+02 0.75467711E-02 0.12590827E+00
       -3 -1    0    0    0  501 0.00000000E+00 0.00000000E+00 0.23320540E+02 0.23325899E+02 0.50000000E+00 0.0000E+00 0.9000E+01
        4 -1    0    0  501    0 0.00000000E+00 0.00000000E+00 -.54527379E+03 0.54527599E+03 0.15500000E+01 0.0000E+00 0.9000E+01
       25  1    1    2    0    0 -.20825116E+02 0.10025886E+01 -.20556779E+03 0.24149080E+03 0.12500000E+03 0.0000E+00 0.9000E+01
       24  1    1    2    0    0 0.20825116E+02 -.10025886E+01 -.31638546E+03 0.32711109E+03 0.80419002E+02 0.0000E+00 0.9000E+01
#aMCatNLO 1  0  0  1  2 0.11542331D+02 0.00000000D+00  -5  5  0 0.00000000D+00 0.00000000D+00 0.00000000D+00 0.00000000D+00 0.00000000D+00
  <mgrwgt>
 0.3593347308D-01    6    2    0
 0.112775126103175D+03 0.000000000000000D+00 0.000000000000000D+00 0.112775126103175D+03
 0.112775126103175D+03 0.000000000000000D+00 0.000000000000000D+00 -.112775126103175D+03
 0.133076109932826D+03 -.208251158121516D+02 0.100258862549824D+01 0.406147805892382D+02
 0.924741422735242D+02 0.208251158121516D+02 -.100258862549824D+01 -.406147805892382D+02
 0.000000000000000D+00 0.000000000000000D+00 0.000000000000000D+00 -.000000000000000D+00
 0.117958994639633D+03 0.000000000000000D+00 0.000000000000000D+00 0.117958994639633D+03
 0.119535957846167D+03 0.000000000000000D+00 0.000000000000000D+00 -.119535957846167D+03
 0.134034693191350D+03 -.260636387465350D+02 -.338013489043585D+01 0.406147805892382D+02
 0.918107001334608D+02 0.172109588326623D+02 -.402631324839126D+01 -.406147805892382D+02
 0.116495591609889D+02 0.885267991387266D+01 0.740644813882711D+01 -.157696320653384D+01
0.186702018829D-03 0.000000000000D+00 0.000000000000D+00 0.261677967085D-02 0.000000000000D+00  5 -3 4 25 24 21 0 0.35883571D-02 0.83888856D-01 0.11004487D+05 0.11004487D+05 0.11004487D+05 0.12634562D+01  1  2  2  1  5  1       -3 0.170135636893D-01 0.100000000000D+01
-.103062902224D-04 0.000000000000D+00 -.716984912075D-06 0.261677967085D-02 0.000000000000D+00  5 -3 4 25 24 21 2 0.35883571D-02 0.83888856D-01 0.11004487D+05 0.11004487D+05 0.11004487D+05 0.12634562D+01  1  2  3  1  5  1       -3 -.149923254192D-02 0.100000000000D+01
0.127966525209D-04 0.000000000000D+00 0.000000000000D+00 0.261677967085D-02 0.000000000000D+00  5 -3 4 25 24 21 2 0.35883571D-02 0.83888856D-01 0.11004487D+05 0.11004487D+05 0.11004487D+05 0.12634562D+01  1  2 15  1  5  1       -3 0.186149986785D-02 0.100000000000D+01
0.263343983709D-03 0.000000000000D+00 0.000000000000D+00 0.261677967085D-02 0.000000000000D+00  5 -3 4 25 24 21 2 0.38553909D-02 0.83888856D-01 0.12278191D+05 0.12278191D+05 0.12278191D+05 0.12578593D+01  1  2 12  1  5  1       -3 0.343488394111D-01 0.100000000000D+01
-.182014727841D-03 0.000000000000D+00 0.000000000000D+00 0.261677967085D-02 0.000000000000D+00  5 -3 4 25 24 21 2 0.35883571D-02 0.83888856D-01 0.11004487D+05 0.11004487D+05 0.11004487D+05 0.12634562D+01  1  2  4  1  5  1       -3 -.264772674939D-01 0.100000000000D+01
0.319379926125D-05 0.000000000000D+00 0.000000000000D+00 0.261677967085D-02 0.000000000000D+00  5 21 4 25 24 3 2 0.38553909D-02 0.83888856D-01 0.12278191D+05 0.12278191D+05 0.12278191D+05 0.12578593D+01  1  2 12  3  5  1       -3 0.106860701508D-01 0.100000000000D+01
  </mgrwgt>
  </event>
  <event>
  5     66 0.45252658E-03 0.10781684E+03 0.75467711E-02 0.12202773E+00
       -1 -1    0    0    0  502 0.00000000E+00 0.00000000E+00 0.17165694E+03 0.17165724E+03 0.32000000E+00 0.0000E+00 0.9000E+01
        2 -1    0    0  501    0 0.00000000E+00 0.00000000E+00 -.12663789E+03 0.12663830E+03 0.32000000E+00 0.0000E+00 0.9000E+01
       25  1    1    2    0    0 0.18344437E+02 0.39172465E+02 0.78777759E+02 0.15395433E+03 0.12500000E+03 0.0000E+00 0.9000E+01
       24  1    1    2    0    0 0.28340260E+02 -.24870732E+02 -.81263513E+01 0.89190679E+02 0.80419002E+02 0.0000E+00 0.9000E+01
       21  1    1    2  501  502 -.46684697E+02 -.14301733E+02 -.25632360E+02 0.55150529E+02 0.75000000E+00 0.0000E+00 0.9000E+01
#aMCatNLO 2  0  0  1  2 0.48826228D+02 0.00000000D+00  -5  5  0 0.00000000D+00 0.00000000D+00 0.00000000D+00 0.00000000D+00 0.00000000D+00
  <mgrwgt>
 0.3437290797D-01    1    2    0
 0.113736398440477D+03 0.000000000000000D+00 0.000000000000000D+00 0.113736398440477D+03
 0.113736398440477D+03 0.000000000000000D+00 0.000000000000000D+00 -.113736398440477D+03
 0.133865803299428D+03 -.913507259874964D+01 0.307541902279517D+02 0.355778516079841D+02
 0.936069935815254D+02 0.913507259874964D+01 -.307541902279517D+02 -.355778516079841D+02
 0.000000000000000D+00 -.000000000000000D+00 -.000000000000000D+00 -.000000000000000D+00
 0.127267591543564D+03 0.000000000000000D+00 0.000000000000000D+00 0.127267591543564D+03
 0.170802978390699D+03 0.000000000000000D+00 0.000000000000000D+00 -.170802978390699D+03
 0.136973661430385D+03 0.183444374639220D+02 0.391724650071742D+02 0.355778516079841D+02
 0.956803172976023D+02 0.283402595873889D+02 -.248707323028290D+02 -.355778516079841D+02
 0.654165912062753D+02 -.466846970513109D+02 -.143017327043452D+02 -.435353868471353D+02
0.563305943164D-04 0.000000000000D+00 0.000000000000D+00 0.267402878035D-02 0.100534709062D-04  5 -1 2 25 24 21 2 0.26408392D-01 0.19482496D-01 0.18213983D+05 0.18213983D+05 0.18213983D+05 0.12383237D+01  1  2  1  1  5  1       -1 0.343729079665D-01 0.100000000000D+01
  </mgrwgt>
  </event>
  <event>
  5     66 0.45252658E-03 0.14491461E+03 0.75467711E-02 0.12021823E+00
       -1 -1    0    0    0  501 0.00000000E+00 0.00000000E+00 0.22676248E+02 0.22678506E+02 0.32000000E+00 0.0000E+00 0.9000E+01
        2 -1    0    0  502    0 0.00000000E+00 0.00000000E+00 -.10330065E+04 0.10330065E+04 0.32000000E+00 0.0000E+00 0.9000E+01
       25  1    1    2    0    0 -.37580688E+02 -.95548519E+02 -.67259211E+03 0.69177090E+03 0.12500000E+03 0.0000E+00 0.9000E+01
       24  1    1    2    0    0 0.42605858E+02 0.90217968E+02 -.32043125E+03 0.34510570E+03 0.80419002E+02 0.0000E+00 0.9000E+01
       21  1    1    2  502  501 -.50251695E+01 0.53305516E+01 -.17306854E+02 0.18808424E+02 0.75000000E+00 0.0000E+00 0.9000E+01
#aMCatNLO 2  0  0  2  1 0.73257838D+01 0.00000000D+00  -5  5  0 0.00000000D+00 0.00000000D+00 0.00000000D+00 0.00000000D+00 0.00000000D+00
  <mgrwgt>
 0.3948686016D+00    2    2    0
 0.149134178191603D+03 0.000000000000000D+00 0.000000000000000D+00 0.149134178191603D+03
 0.149134178191603D+03 0.000000000000000D+00 0.000000000000000D+00 -.149134178191603D+03
 0.164485763181503D+03 -.403601251069255D+02 -.926001744032076D+02 -.350261943586571D+02
 0.133782593201702D+03 0.403601251069255D+02 0.926001744032076D+02 0.350261943586571D+02
 0.000000000000000D+00 -.000000000000000D+00 0.000000000000000D+00 0.000000000000000D+00
 0.154268815447669D+03 0.000000000000000D+00 0.000000000000000D+00 0.154268815447669D+03
 0.151815237872081D+03 0.000000000000000D+00 0.000000000000000D+00 -.151815237872081D+03
 0.165510307608341D+03 -.375806881692425D+02 -.955485191412382D+02 -.350261943586571D+02
 0.132847999680648D+03 0.426058576600428D+02 0.902179675374075D+02 0.350261943586571D+02
 0.772574603075989D+01 -.502516949080031D+01 0.533055160383068D+01 0.245357757558838D+01
-.328731630429D-03 0.000000000000D+00 0.000000000000D+00 0.229471309879D-02 0.000000000000D+00  5 -1 2 25 24 21 2 0.33723087D-02 0.15609908D+00 0.21000245D+05 0.21000245D+05 0.21000245D+05 0.12314995D+01  1  2  8  2  5  2        2 -.448957623507D+00 0.100000000000D+01
0.667408827815D-03 0.000000000000D+00 0.000000000000D+00 0.229471309879D-02 0.344740521247D-03  5 -1 2 25 24 21 2 0.34884161D-02 0.15890535D+00 0.22087135D+05 0.22087135D+05 0.22087135D+05 0.12291081D+01  1  2  1  2  5  2        2 0.843826225110D+00 0.100000000000D+01
  </mgrwgt>
  </event>
  <event>
  5     66 0.45252658E-03 0.10303092E+03 0.75467711E-02 0.12665086E+00
       -1 -1    0    0    0  502 0.00000000E+00 0.00000000E+00 0.72816835E+01 0.72887115E+01 0.32000000E+00 0.0000E+00 0.9000E+01
        2 -1    0    0  501    0 0.00000000E+00 0.00000000E+00 -.16045000E+04 0.16045000E+04 0.32000000E+00 0.0000E+00 0.9000E+01
       25  1    1    2    0    0 -.30564852E+01 -.23218765E+01 -.96637522E+03 0.97443358E+03 0.12500000E+03 0.0000E+00 0.9000E+01
       24  1    1    2    0    0 0.49800039E+01 0.95803830E+01 -.52390776E+03 0.53015389E+03 0.80419002E+02 0.0000E+00 0.9000E+01
       21  1    1    2  501  502 -.19235187E+01 -.72585066E+01 -.10693532E+03 0.10720126E+03 0.75000000E+00 0.0000E+00 0.9000E+01
#aMCatNLO 2  0  0  1  2 0.75090507D+01 0.00000000D+00  -5  5  0 0.00000000D+00 0.00000000D+00 0.00000000D+00 0.00000000D+00 0.00000000D+00
  <mgrwgt>
 0.1547125864D+00    2    2    0
 0.103421089851551D+03 0.000000000000000D+00 0.000000000000000D+00 0.103421089851551D+03
 0.103421089851551D+03 0.000000000000000D+00 0.000000000000000D+00 -.103421089851551D+03
 0.125558218890643D+03 -.422282849217925D+01 -.672313892609207D+01 -.876546938256950D+01
 0.812839608124579D+02 0.422282849217925D+01 0.672313892609207D+01 0.876546938256950D+01
 0.000000000000000D+00 -.000000000000000D+00 -.000000000000000D+00 -.000000000000000D+00
 0.105398306418541D+03 0.000000000000000D+00 0.000000000000000D+00 0.105398306418541D+03
 0.110873088943961D+03 0.000000000000000D+00 0.000000000000000D+00 -.110873088943961D+03
 0.125365731623407D+03 -.305648519122576D+01 -.232187645043603D+01 -.876546938256950D+01
 0.816127048050742D+02 0.498000386065820D+01 0.958038304457167D+01 0.876546938256950D+01
 0.929295893402163D+01 -.192351866943244D+01 -.725850659413563D+01 -.547478252542024D+01
-.153223438079D-05 0.000000000000D+00 0.000000000000D+00 0.319876018937D-02 0.000000000000D+00  5 -1 2 25 24 21 2 0.10996205D-02 0.23022299D+00 0.10615370D+05 0.10615370D+05 0.10615370D+05 0.12653128D+01  1  2  8  1  5  1       -1 -.591603304882D-02 0.100000000000D+01
0.486925334751D-04 0.000000000000D+00 0.000000000000D+00 0.319876018937D-02 0.482780435831D-03  5 -1 2 25 24 21 2 0.11206431D-02 0.24681169D+00 0.11417840D+05 0.11417840D+05 0.11417840D+05 0.12615632D+01  1  2  1  1  5  1       -1 0.160628619459D+00 0.100000000000D+01
  </mgrwgt>
  </event>
  <event>
  4     66 0.45252658E-03 0.12680881E+03 0.75467711E-02 0.11112242E+00
       -1 -1    0    0    0  501 0.00000000E+00 0.00000000E+00 0.20774973E+03 0.20774998E+03 0.32000000E+00 0.0000E+00 0.9000E+01
        2 -1    0    0  501    0 0.00000000E+00 0.00000000E+00 -.84851129E+02 0.84851733E+02 0.32000000E+00 0.0000E+00 0.9000E+01
       25  1    1    2    0    0 -.37193930E+02 0.63062954E+02 0.26486183E+02 0.14726453E+03 0.12500000E+03 0.0000E+00 0.9000E+01
       24  1    1    2    0    0 0.37193930E+02 -.63062954E+02 0.96412417E+02 0.14533718E+03 0.80419002E+02 0.0000E+00 0.9000E+01
#aMCatNLO 1  0  0  2  2 0.19089684D+03 0.00000000D+00  -5  5  0 0.00000000D+00 0.00000000D+00 0.00000000D+00 0.00000000D+00 0.00000000D+00
  <mgrwgt>
 0.3132210639D+00    5    2    0
 0.132770190475697D+03 0.000000000000000D+00 0.000000000000000D+00 0.132770190475697D+03
 0.132770190475697D+03 0.000000000000000D+00 0.000000000000000D+00 -.132770190475697D+03
 0.150013865454279D+03 -.371939301823559D+02 0.630629540914855D+02 -.389722363661600D+02
 0.115526515497115D+03 0.371939301823559D+02 -.630629540914855D+02 0.389722363661600D+02
 0.000000000000000D+00 -.000000000000000D+00 -.000000000000000D+00 -.000000000000000D+00
 0.238584638612782D+03 0.000000000000000D+00 0.000000000000000D+00 0.238584638612782D+03
 0.284883690915563D+03 0.000000000000000D+00 0.000000000000000D+00 -.284883690915563D+03
 0.227270505097462D+03 -.253509949011593D+02 0.184025471979824D+03 -.389722363661600D+02
 0.997666472736944D+02 0.439519705153019D+02 0.596297193565552D+01 0.389722363661600D+02
 0.196431177157188D+03 -.186009756141427D+02 -.189988443915479D+03 -.462990523027812D+02
0.560790930471D-03 0.000000000000D+00 0.000000000000D+00 0.238606664323D-02 0.000000000000D+00  5 -1 2 25 24 21 0 0.31961562D-01 0.13054085D-01 0.16080474D+05 0.16080474D+05 0.16080474D+05 0.12443935D+01  1  2  2  2  5  2        2 0.257252866911D+00 0.100000000000D+01
-.310751092831D-04 0.000000000000D+00 -.215358483265D-05 0.238606664323D-02 0.000000000000D+00  5 -1 2 25 24 21 2 0.31961562D-01 0.13054085D-01 0.16080474D+05 0.16080474D+05 0.16080474D+05 0.12443935D+01  1  2  3  2  5  2        2 -.220743211265D-01 0.100000000000D+01
0.386920167292D-04 0.000000000000D+00 0.000000000000D+00 0.238606664323D-02 0.000000000000D+00  5 -1 2 25 24 21 2 0.31961562D-01 0.13054085D-01 0.16080474D+05 0.16080474D+05 0.16080474D+05 0.12443935D+01  1  2 15  2  5  2        2 0.274850200697D-01 0.100000000000D+01
0.191495780459D-03 0.000000000000D+00 -.240281978911D-03 0.238606664323D-02 0.000000000000D+00  5 -1 2 25 24 21 2 0.31961562D-01 0.48624145D-01 0.16080474D+05 0.16080474D+05 0.16080474D+05 0.12443935D+01  1  2  5  2  5  2        2 0.317246868238D-01 0.100000000000D+01
0.352680453890D-04 0.000000000000D+00 -.373336716996D-04 0.238606664323D-02 0.000000000000D+00  5 -1 21 25 24 -2 2 0.31961562D-01 0.48624145D-01 0.16080474D+05 0.16080474D+05 0.16080474D+05 0.12443935D+01  1  2  5  4  5  2        2 0.188328112556D-01 0.100000000000D+01
  </mgrwgt>
  </event>
  <event>
  4     66 0.45252658E-03 0.14209067E+03 0.75467711E-02 0.11611346E+00
       -1 -1    0    0    0  501 0.00000000E+00 0.00000000E+00 0.71213394E+03 0.71213401E+03 0.32000000E+00 0.0000E+00 0.9000E+01
        2 -1    0    0  501    0 0.00000000E+00 0.00000000E+00 -.34138760E+02 0.34140260E+02 0.32000000E+00 0.0000E+00 0.9000E+01
       25  1    1    2    0    0 0.20781528E+02 0.94717444E+02 0.21809682E+03 0.26943364E+03 0.12500000E+03 0.0000E+00 0.9000E+01
       24  1    1    2    0    0 -.20781528E+02 -.94717444E+02 0.45989837E+03 0.47684063E+03 0.80419002E+02 0.0000E+00 0.9000E+01
#aMCatNLO 1  0  0  1  2 0.79765820D+02 0.00000000D+00  -5  5  0 0.00000000D+00 0.00000000D+00 0.00000000D+00 0.00000000D+00 0.00000000D+00
  <mgrwgt>
 0.3097329725D+00    4    2    0
 0.155922918072701D+03 0.000000000000000D+00 0.000000000000000D+00 0.155922918072701D+03
 0.155922918072701D+03 0.000000000000000D+00 0.000000000000000D+00 -.155922918072701D+03
 0.170606109227063D+03 0.207815282275962D+02 0.947174438142698D+02 -.638606171862823D+02
 0.141239726918340D+03 -.207815282275962D+02 -.947174438142698D+02 0.638606171862823D+02
 0.000000000000000D+00 0.000000000000000D+00 -.000000000000000D+00 -.000000000000000D+00
 0.175539328900253D+03 0.000000000000000D+00 0.000000000000000D+00 0.175539328900253D+03
 0.269917571387744D+03 0.000000000000000D+00 0.000000000000000D+00 -.269917571387744D+03
 0.189677250967966D+03 -.109656535889388D+02 0.127098526933711D+03 -.638606171862823D+02
 0.132208460865193D+03 -.448770327501101D+02 -.701408203124632D+02 0.638606171862823D+02
 0.123571188454839D+03 0.558426863390489D+02 -.569577066212473D+02 -.943782424874916D+02
0.252382413932D-02 0.000000000000D+00 0.000000000000D+00 0.199982380713D-02 0.000000000000D+00  5 -1 2 25 24 21 0 0.10955919D+00 0.52522379D-02 0.20189759D+05 0.20189759D+05 0.20189759D+05 0.12333748D+01  1  2  2  1  5  1       -1 0.340029543317D+00 0.100000000000D+01
-.138741272678D-03 0.000000000000D+00 -.969214923315D-05 0.199982380713D-02 0.000000000000D+00  5 -1 2 25 24 21 2 0.10955919D+00 0.52522379D-02 0.20189759D+05 0.20189759D+05 0.20189759D+05 0.12333748D+01  1  2  3  1  5  1       -1 -.284350095649D-01 0.100000000000D+01
0.174128752131D-03 0.000000000000D+00 0.000000000000D+00 0.199982380713D-02 0.000000000000D+00  5 -1 2 25 24 21 2 0.10955919D+00 0.52522379D-02 0.20189759D+05 0.20189759D+05 0.20189759D+05 0.12333748D+01  1  2 15  1  5  1       -1 0.356876698388D-01 0.100000000000D+01
-.183211758719D-03 0.000000000000D+00 0.000000000000D+00 0.199982380713D-02 0.000000000000D+00  5 -1 2 25 24 21 2 0.10955919D+00 0.52522379D-02 0.20189759D+05 0.20189759D+05 0.20189759D+05 0.12333748D+01  1  2  4  1  5  1       -1 -.375492311047D-01 0.100000000000D+01
  </mgrwgt>
  </event>
  <event>
  5     66 0.45252658E-03 0.12678856E+03 0.75467711E-02 0.12250640E+00
       21 -1    0    0  502  501 0.00000000E+00 0.00000000E+00 0.60314066E+01 0.60778587E+01 0.75000000E+00 0.0000E+00 0.9000E+01
        2 -1    0    0  501    0 0.00000000E+00 0.00000000E+00 -.35573437E+04 0.35573437E+04 0.32000000E+00 0.0000E+00 0.9000E+01
       25  1    1    2    0    0 0.64700622E+02 0.23371861E+02 -.11099259E+04 0.11190590E+04 0.12500000E+03 0.0000E+00 0.9000E+01
       24  1    1    2    0    0 -.73815434E+02 -.21170659E+02 -.22597862E+04 0.22625202E+04 0.80419002E+02 0.0000E+00 0.9000E+01
        1  1    1    2  502    0 0.91148120E+01 -.22012020E+01 -.18160019E+03 0.18184240E+03 0.32000000E+00 0.0000E+00 0.9000E+01
#aMCatNLO 2  0  0  1  2 0.93768378D+01 0.00000000D+00  -5  5  0 0.00000000D+00 0.00000000D+00 0.00000000D+00 0.00000000D+00 0.00000000D+00
  <mgrwgt>
 0.1323574213D+00    1    2    0
 0.141448007294426D+03 0.000000000000000D+00 0.000000000000000D+00 0.141448007294426D+03
 0.141448007294426D+03 0.000000000000000D+00 0.000000000000000D+00 -.141448007294426D+03
 0.157633785059692D+03 0.697461125297666D+02 0.221533893193555D+02 0.621941904111262D+02
 0.125262229529159D+03 -.697461125297666D+02 -.221533893193555D+02 -.621941904111262D+02
 0.000000000000000D+00 0.000000000000000D+00 -.000000000000000D+00 -.000000000000000D+00
 0.144411782917136D+03 0.000000000000000D+00 0.000000000000000D+00 0.144411782917136D+03
 0.149141951695648D+03 0.000000000000000D+00 0.000000000000000D+00 -.149141951695648D+03
 0.155645532329141D+03 0.647006221874620D+02 0.233718613225736D+02 0.621941904111262D+02
 0.127405841379150D+03 -.738154341887970D+02 -.211706593610711D+02 -.621941904111262D+02
 0.105023609044924D+02 0.911481200133503D+01 -.220120196150246D+01 -.473016877851169D+01
0.161366850079D-04 0.000000000000D+00 0.000000000000D+00 0.205211429510D-02 0.757411963616D-06  5 21 2 25 24 1 2 0.93146747D-03 0.54727807D+00 0.17325188D+05 0.17325188D+05 0.17325188D+05 0.12407501D+01  1  2  1  3  5  1       -1 0.132357421273D+00 0.100000000000D+01
  </mgrwgt>
  </event>
  <event>
  4     66 0.45252658E-03 0.30274040E+03 0.75467711E-02 0.91388737E-01
       -1 -1    0    0    0  501 0.00000000E+00 0.00000000E+00 0.13642776E+03 0.13642814E+03 0.32000000E+00 0.0000E+00 0.9000E+01
        2 -1    0    0  501    0 0.00000000E+00 0.00000000E+00 -.14050166E+04 0.14050167E+04 0.32000000E+00 0.0000E+00 0.9000E+01
       25  1    1    2    0    0 -.53796807E+02 -.27887047E+03 -.11985558E+04 0.12380726E+04 0.12500000E+03 0.0000E+00 0.9000E+01
       24  1    1    2    0    0 0.53796807E+02 0.27887047E+03 -.70033078E+02 0.30337218E+03 0.80419002E+02 0.0000E+00 0.9000E+01
#aMCatNLO 1  0  0  1  2 0.11295032D+04 0.00000000D+00  -5  5  0 0.00000000D+00 0.00000000D+00 0.00000000D+00 0.00000000D+00 0.00000000D+00
  <mgrwgt>
 0.3340187421D+00    3    2    0
 0.437816848851309D+03 0.000000000000000D+00 0.000000000000000D+00 0.437816848851309D+03
 0.437816848851309D+03 0.000000000000000D+00 0.000000000000000D+00 -.437816848851309D+03
 0.443046081160240D+03 -.537968067463083D+02 -.278870465543200D+03 -.316230923635031D+03
 0.432587616542379D+03 0.537968067463083D+02 0.278870465543200D+03 0.316230923635031D+03
 0.000000000000000D+00 -.000000000000000D+00 -.000000000000000D+00 -.000000000000000D+00
 0.126451964477693D+04 0.000000000000000D+00 0.000000000000000D+00 0.126451964477693D+04
 0.129454745267169D+04 0.000000000000000D+00 0.000000000000000D+00 -.129454745267169D+04
 0.381157468248565D+03 0.159920440627707D+03 0.638707382768583D+02 -.316230923635031D+03
 0.104800730821279D+04 0.437717346789581D+03 0.894568962891885D+03 0.316230923635031D+03
 0.112990232098727D+04 -.597637787417288D+03 -.958439701168743D+03 -.300278078947547D+02
0.993867313724D-02 0.000000000000D+00 0.000000000000D+00 0.941969085350D-03 0.000000000000D+00  5 -1 2 25 24 21 0 0.20988918D-01 0.21615644D+00 0.91651751D+05 0.91651751D+05 0.91651751D+05 0.11670656D+01  1  2  2  1  5  1       -1 0.324297234237D+00 0.100000000000D+01
-.460776418792D-03 0.000000000000D+00 -.381671217597D-04 0.941969085350D-03 0.000000000000D+00  5 -1 2 25 24 21 2 0.20988918D-01 0.21615644D+00 0.91651751D+05 0.91651751D+05 0.91651751D+05 0.11670656D+01  1  2  3  1  5  1       -1 -.204783807231D-01 0.100000000000D+01
0.679516446984D-03 0.000000000000D+00 0.000000000000D+00 0.941969085350D-03 0.000000000000D+00  5 -1 2 25 24 21 2 0.20988918D-01 0.21615644D+00 0.91651751D+05 0.91651751D+05 0.91651751D+05 0.11670656D+01  1  2 15  1  5  1       -1 0.301998885825D-01 0.100000000000D+01
  </mgrwgt>
  </event>
  <event>
  4     66 0.45252658E-03 0.16502562E+03 0.75467711E-02 0.11044777E+00
       -1 -1    0    0    0  501 0.00000000E+00 0.00000000E+00 0.12467552E+03 0.12467593E+03 0.32000000E+00 0.0000E+00 0.9000E+01
        2 -1    0    0  501    0 0.00000000E+00 0.00000000E+00 -.21945030E+03 0.21945053E+03 0.32000000E+00 0.0000E+00 0.9000E+01
       25  1    1    2    0    0 0.37649494E+02 -.12232061E+03 -.39683382E+02 0.18324734E+03 0.12500000E+03 0.0000E+00 0.9000E+01
       24  1    1    2    0    0 -.37649494E+02 0.12232061E+03 -.55091392E+02 0.16087913E+03 0.80419002E+02 0.0000E+00 0.9000E+01
#aMCatNLO 1  0  0  2  2 0.16154344D+03 0.00000000D+00  -5  5  0 0.00000000D+00 0.00000000D+00 0.00000000D+00 0.00000000D+00 0.00000000D+00
  <mgrwgt>
 0.3566160068D+00    3    2    0
 0.165409162824948D+03 0.000000000000000D+00 0.000000000000000D+00 0.165409162824948D+03
 0.165409162824948D+03 0.000000000000000D+00 0.000000000000000D+00 -.165409162824948D+03
 0.179250270368853D+03 0.376494941923449D+02 -.122320608605699D+03 0.112180089453899D+02
 0.151568055281044D+03 -.376494941923449D+02 0.122320608605699D+03 -.112180089453899D+02
 0.000000000000000D+00 -.000000000000000D+00 0.000000000000000D+00 0.000000000000000D+00
 0.267525939734710D+03 0.000000000000000D+00 0.000000000000000D+00 0.267525939734710D+03
 0.262256966964901D+03 0.000000000000000D+00 0.000000000000000D+00 -.262256966964901D+03
 0.227961304499764D+03 0.130331647107608D+03 -.138669298645206D+03 0.112180089453899D+02
 0.140192259733688D+03 0.287557255991730D+02 0.110607044330068D+03 -.112180089453899D+02
 0.161629342466158D+03 -.159087372706781D+03 0.280622543151384D+02 0.526897276980973D+01
0.948327316604D-03 0.000000000000D+00 0.000000000000D+00 0.229544261005D-02 0.000000000000D+00  5 -1 2 25 24 21 0 0.19180899D-01 0.33761634D-01 0.27233456D+05 0.27233456D+05 0.27233456D+05 0.12193333D+01  1  2  2  2  5  2        2 0.349642081175D+00 0.100000000000D+01
-.526845057155D-04 0.000000000000D+00 -.364182659607D-05 0.229544261005D-02 0.000000000000D+00  5 -1 2 25 24 21 2 0.19180899D-01 0.33761634D-01 0.27233456D+05 0.27233456D+05 0.27233456D+05 0.12193333D+01  1  2  3  2  5  2        2 -.288797348094D-01 0.100000000000D+01
0.654068464052D-04 0.000000000000D+00 0.000000000000D+00 0.229544261005D-02 0.000000000000D+00  5 -1 2 25 24 21 2 0.19180899D-01 0.33761634D-01 0.27233456D+05 0.27233456D+05 0.27233456D+05 0.12193333D+01  1  2 15  2  5  2        2 0.358536604501D-01 0.100000000000D+01
  </mgrwgt>
  </event>
  <event>
  4     66 0.45252658E-03 0.10429137E+03 0.75467711E-02 0.12650141E+00
       -1 -1    0    0    0  501 0.00000000E+00 0.00000000E+00 0.46692020E+02 0.46693116E+02 0.32000000E+00 0.0000E+00 0.9000E+01
        2 -1    0    0  501    0 0.00000000E+00 0.00000000E+00 -.23959106E+03 0.23959128E+03 0.32000000E+00 0.0000E+00 0.9000E+01
       25  1    1    2    0    0 -.12675870E+02 0.12321239E+02 -.13951532E+03 0.18815423E+03 0.12500000E+03 0.0000E+00 0.9000E+01
       24  1    1    2    0    0 0.12675870E+02 -.12321239E+02 -.53383727E+02 0.98130163E+02 0.80419002E+02 0.0000E+00 0.9000E+01
#aMCatNLO 1  0  0  2  2 0.65776755D+01 0.00000000D+00  -5  5  0 0.00000000D+00 0.00000000D+00 0.00000000D+00 0.00000000D+00 0.00000000D+00
  <mgrwgt>
 0.1553753549D+00    6    2    0
 0.105769457406035D+03 0.000000000000000D+00 0.000000000000000D+00 0.105769457406035D+03
 0.105769457406035D+03 0.000000000000000D+00 0.000000000000000D+00 -.105769457406035D+03
 0.127415082405495D+03 -.126758702359548D+02 0.123212390186206D+02 -.172369546964167D+02
 0.841238324065755D+02 0.126758702359548D+02 -.123212390186206D+02 0.172369546964167D+02
 0.000000000000000D+00 -.000000000000000D+00 0.000000000000000D+00 0.000000000000000D+00
 0.115633765006574D+03 0.000000000000000D+00 0.000000000000000D+00 0.115633765006574D+03
 0.106922813767570D+03 0.000000000000000D+00 0.000000000000000D+00 -.106922813767570D+03
 0.127075571112018D+03 -.872087138957076D+01 0.122488598835034D+02 -.172369546964167D+02
 0.845655834270102D+02 0.152974456682845D+02 -.123692156097161D+02 0.172369546964167D+02
 0.109154242351166D+02 -.657657427871372D+01 0.120355726212683D+00 0.871095123900367D+01
0.203589512588D-03 0.000000000000D+00 0.000000000000D+00 0.306881514665D-02 0.000000000000D+00  5 -1 2 25 24 21 0 0.71834884D-02 0.36860264D-01 0.10876691D+05 0.10876691D+05 0.10876691D+05 0.12640577D+01  1  2  2  2  5  2        2 0.301265964130D+00 0.100000000000D+01
-.113078048578D-04 0.000000000000D+00 -.781837334689D-06 0.306881514665D-02 0.000000000000D+00  5 -1 2 25 24 21 2 0.71834884D-02 0.36860264D-01 0.10876691D+05 0.10876691D+05 0.10876691D+05 0.12640577D+01  1  2  3  2  5  2        2 -.267366347574D-01 0.100000000000D+01
0.140598954862D-04 0.000000000000D+00 0.000000000000D+00 0.306881514665D-02 0.000000000000D+00  5 -1 2 25 24 21 2 0.71834884D-02 0.36860264D-01 0.10876691D+05 0.10876691D+05 0.10876691D+05 0.12640577D+01  1  2 15  2  5  2        2 0.332437900253D-01 0.100000000000D+01
-.713478774182D-04 0.000000000000D+00 0.000000000000D+00 0.306881514665D-02 0.000000000000D+00  5 -1 2 25 24 21 2 0.71834884D-02 0.36860264D-01 0.10876691D+05 0.10876691D+05 0.10876691D+05 0.12640577D+01  1  2  4  2  5  2        2 -.168697829794D+00 0.100000000000D+01
0.656015121672D-05 0.000000000000D+00 0.000000000000D+00 0.306881514665D-02 0.603836969924D-03  5 -1 2 25 24 21 2 0.78534374D-02 0.37262205D-01 0.11585189D+05 0.11585189D+05 0.11585189D+05 0.12608186D+01  1  2 11  2  5  2        2 0.133909357723D-01 0.100000000000D+01
0.340082083559D-06 0.000000000000D+00 0.000000000000D+00 0.306881514665D-02 0.127145198661D-05  5 -1 21 25 24 -2 2 0.78534374D-02 0.37262205D-01 0.11585189D+05 0.11585189D+05 0.11585189D+05 0.12608186D+01  1  2 11  4  5  2        2 0.290912948544D-02 0.100000000000D+01
  </mgrwgt>
  </event>
  <event>
  4     66 0.45252658E-03 0.11052954E+03 0.75467711E-02 0.11991875E+00
       -1 -1    0    0    0  501 0.00000000E+00 0.00000000E+00 0.19360722E+02 0.19363366E+02 0.32000000E+00 0.0000E+00 0.9000E+01
        2 -1    0    0  501    0 0.00000000E+00 0.00000000E+00 -.84544792E+03 0.84544798E+03 0.32000000E+00 0.0000E+00 0.9000E+01
       25  1    1    2    0    0 -.38489919E+02 -.10873948E+02 -.68573245E+03 0.69817886E+03 0.12500000E+03 0.0000E+00 0.9000E+01
       24  1    1    2    0    0 0.38489919E+02 0.10873948E+02 -.14035474E+03 0.16663249E+03 0.80419002E+02 0.0000E+00 0.9000E+01
#aMCatNLO 1  0  0  2  2 0.69756458D+02 0.00000000D+00  -5  5  0 0.00000000D+00 0.00000000D+00 0.00000000D+00 0.00000000D+00 0.00000000D+00
  <mgrwgt>
 0.3625341158D+00    7    2    0
 0.127943939112772D+03 0.000000000000000D+00 0.000000000000000D+00 0.127943939112772D+03
 0.127943939112772D+03 0.000000000000000D+00 0.000000000000000D+00 -.127943939112772D+03
 0.145838073272495D+03 -.384899186094206D+02 -.108739479625592D+02 -.635926649620959D+02
 0.110049804953049D+03 0.384899186094206D+02 0.108739479625592D+02 0.635926649620959D+02
 0.000000000000000D+00 -.000000000000000D+00 -.000000000000000D+00 -.000000000000000D+00
 0.166677756487447D+03 0.000000000000000D+00 0.000000000000000D+00 0.166677756487447D+03
 0.168323622722267D+03 0.000000000000000D+00 0.000000000000000D+00 -.168323622722267D+03
 0.144934416867134D+03 -.257907164659391D+02 0.259190489757683D+02 -.635926649620959D+02
 0.120291090321414D+03 0.485498303624075D+02 0.400202122825961D+02 0.635926649620959D+02
 0.697758720211663D+02 -.227591138964683D+02 -.659392612583644D+02 -.164586623482019D+01
0.242833860884D-03 0.000000000000D+00 0.000000000000D+00 0.207336127626D-02 0.000000000000D+00  5 -1 2 25 24 21 0 0.29787807D-02 0.13006912D+00 0.12216778D+05 0.12216778D+05 0.12216778D+05 0.12581139D+01  1  2  2  2  5  2        2 0.327994082894D+00 0.100000000000D+01
-.131396442151D-04 0.000000000000D+00 -.932545965417D-06 0.207336127626D-02 0.000000000000D+00  5 -1 2 25 24 21 2 0.29787807D-02 0.13006912D+00 0.12216778D+05 0.12216778D+05 0.12216778D+05 0.12581139D+01  1  2  3  2  5  2        2 -.280918447142D-01 0.100000000000D+01
0.165556416918D-04 0.000000000000D+00 0.000000000000D+00 0.207336127626D-02 0.000000000000D+00  5 -1 2 25 24 21 2 0.29787807D-02 0.13006912D+00 0.12216778D+05 0.12216778D+05 0.12216778D+05 0.12581139D+01  1  2 15  2  5  2        2 0.353950615357D-01 0.100000000000D+01
-.936879143788D-04 0.000000000000D+00 0.000000000000D+00 0.207336127626D-02 0.000000000000D+00  5 -1 2 25 24 21 2 0.29787807D-02 0.13006912D+00 0.12216778D+05 0.12216778D+05 0.12216778D+05 0.12581139D+01  1  2  4  2  5  2        2 -.200299665596D+00 0.100000000000D+01
-.148423333197D-03 0.000000000000D+00 -.100920545461D-03 0.207336127626D-02 0.000000000000D+00  5 -1 2 25 24 21 2 0.29787807D-02 0.20607403D+00 0.12216778D+05 0.12216778D+05 0.12216778D+05 0.12581139D+01  1  2  5  2  5  2        2 -.164974920576D+00 0.100000000000D+01
0.184770365817D-03 0.000000000000D+00 0.911032927735D-04 0.207336127626D-02 0.000000000000D+00  5 -1 2 25 24 21 2 0.29787807D-02 0.13006912D+00 0.12216778D+05 0.12216778D+05 0.12216778D+05 0.12581139D+01  1  2  6  2  5  2        2 0.395028993126D+00 0.100000000000D+01
-.371678917116D-05 0.000000000000D+00 -.533434580673D-05 0.207336127626D-02 0.000000000000D+00  5 -1 21 25 24 -2 2 0.29787807D-02 0.20607403D+00 0.12216778D+05 0.12216778D+05 0.12216778D+05 0.12581139D+01  1  2  5  4  5  2        2 -.251759088211D-02 0.100000000000D+01
  </mgrwgt>
  </event>
  <event>
  4     66 0.45252658E-03 0.61881095E+02 0.75467711E-02 0.12309269E+00
       -1 -1    0    0    0  501 0.00000000E+00 0.00000000E+00 0.78085705E+02 0.78086361E+02 0.32000000E+00 0.0000E+00 0.9000E+01
        2 -1    0    0  501    0 0.00000000E+00 0.00000000E+00 -.17495225E+03 0.17495254E+03 0.32000000E+00 0.0000E+00 0.9000E+01
       25  1    1    2    0    0 -.39916655E+02 -.37275794E+02 -.52201960E+02 0.14605776E+03 0.12500000E+03 0.0000E+00 0.9000E+01
       24  1    1    2    0    0 0.39916655E+02 0.37275794E+02 -.44664584E+02 0.10698114E+03 0.80419002E+02 0.0000E+00 0.9000E+01
#aMCatNLO 1  0  0  1  2 0.20826399D+02 0.00000000D+00  -5  5  0 0.00000000D+00 0.00000000D+00 0.00000000D+00 0.00000000D+00 0.00000000D+00
  <mgrwgt>
 0.3425698485D+00    6    2    0
 0.116881947873431D+03 0.000000000000000D+00 0.000000000000000D+00 0.116881947873431D+03
 0.116881947873431D+03 0.000000000000000D+00 0.000000000000000D+00 -.116881947873431D+03
 0.136469626322173D+03 -.399166551226986D+02 -.372757943165824D+02 0.401680350489702D+01
 0.972942694246897D+02 0.399166551226986D+02 0.372757943165824D+02 -.401680350489702D+01
 0.000000000000000D+00 -.000000000000000D+00 -.000000000000000D+00 -.000000000000000D+00
 0.127684511517639D+03 0.000000000000000D+00 0.000000000000000D+00 0.127684511517639D+03
 0.127832201573359D+03 0.000000000000000D+00 0.000000000000000D+00 -.127832201573359D+03
 0.132182334032597D+03 -.322713826579109D+02 -.280996900562037D+02 0.401680350489702D+01
 0.102507456628009D+03 0.456025940326195D+02 0.441002428232752D+02 -.401680350489702D+01
 0.208269224303918D+02 -.133312113747086D+02 -.160005527670714D+02 -.147690055720347D+00
0.258408549120D-03 0.000000000000D+00 0.000000000000D+00 0.284298994203D-02 0.000000000000D+00  5 -1 2 25 24 21 0 0.12013258D-01 0.26915804D-01 0.13644788D+05 0.13644788D+05 0.13644788D+05 0.12525382D+01  1  2  2  1  5  1       -1 0.248547879056D+00 0.100000000000D+01
-.143560240547D-04 0.000000000000D+00 -.992356869153D-06 0.284298994203D-02 0.000000000000D+00  5 -1 2 25 24 21 2 0.12013258D-01 0.26915804D-01 0.13644788D+05 0.13644788D+05 0.13644788D+05 0.12525382D+01  1  2  3  1  5  1       -1 -.216630358968D-01 0.100000000000D+01
0.178174549314D-04 0.000000000000D+00 0.000000000000D+00 0.284298994203D-02 0.000000000000D+00  5 -1 2 25 24 21 2 0.12013258D-01 0.26915804D-01 0.13644788D+05 0.13644788D+05 0.13644788D+05 0.12525382D+01  1  2 15  1  5  1       -1 0.268862858058D-01 0.100000000000D+01
0.232722255065D-03 0.000000000000D+00 0.000000000000D+00 0.284298994203D-02 0.000000000000D+00  5 -1 2 25 24 21 2 0.13636175D-01 0.26915804D-01 0.16304278D+05 0.16304278D+05 0.16304278D+05 0.12437155D+01  1  2 12  1  5  1       -1 0.286597353186D+00 0.100000000000D+01
-.184161833516D-03 0.000000000000D+00 0.000000000000D+00 0.284298994203D-02 0.000000000000D+00  5 -1 2 25 24 21 2 0.12013258D-01 0.26915804D-01 0.13644788D+05 0.13644788D+05 0.13644788D+05 0.12525382D+01  1  2  4  1  5  1       -1 -.277897584671D+00 0.100000000000D+01
0.462155540217D-05 0.000000000000D+00 0.000000000000D+00 0.284298994203D-02 0.000000000000D+00  5 21 2 25 24 1 2 0.13636175D-01 0.26915804D-01 0.16304278D+05 0.16304278D+05 0.16304278D+05 0.12437155D+01  1  2 12  3  5  1       -1 0.800989510272D-01 0.100000000000D+01
  </mgrwgt>
  </event>
  <event>
  4     66 0.45252658E-03 0.10530713E+03 0.75467711E-02 0.12514104E+00
       -1 -1    0    0    0  501 0.00000000E+00 0.00000000E+00 0.29339521E+02 0.29341266E+02 0.32000000E+00 0.0000E+00 0.9000E+01
        2 -1    0    0  501    0 0.00000000E+00 0.00000000E+00 -.46394936E+03 0.46394947E+03 0.32000000E+00 0.0000E+00 0.9000E+01
       25  1    1    2    0    0 -.21935320E+02 0.59145973E+01 -.14952942E+03 0.19621465E+03 0.12500000E+03 0.0000E+00 0.9000E+01
       24  1    1    2    0    0 0.21935320E+02 -.59145973E+01 -.28508042E+03 0.29707609E+03 0.80419002E+02 0.0000E+00 0.9000E+01
#aMCatNLO 1  0  0  2  2 0.18668311D+02 0.00000000D+00  -5  5  0 0.00000000D+00 0.00000000D+00 0.00000000D+00 0.00000000D+00 0.00000000D+00
  <mgrwgt>
 0.2477034958D+00    4    2    0
 0.116672659835687D+03 0.000000000000000D+00 0.000000000000000D+00 0.116672659835687D+03
 0.116672659835687D+03 0.000000000000000D+00 0.000000000000000D+00 -.116672659835687D+03
 0.136295474766209D+03 -.219353201193249D+02 0.591459728367173D+01 0.493489180426576D+02
 0.970498449051659D+02 0.219353201193249D+02 -.591459728367173D+01 -.493489180426576D+02
 0.000000000000000D+00 -.000000000000000D+00 -.000000000000000D+00 0.000000000000000D+00
 0.141017023623922D+03 0.000000000000000D+00 0.000000000000000D+00 0.141017023623922D+03
 0.120680017426961D+03 0.000000000000000D+00 0.000000000000000D+00 -.120680017426961D+03
 0.135719972636792D+03 -.137506436317178D+02 0.130581415317890D+02 0.493489180426576D+02
 0.983709158086100D+02 0.278153380399053D+02 -.782547378096393D+00 -.493489180426576D+02
 0.276061526054812D+02 -.140646944081875D+02 -.122755941536927D+02 0.203370061969612D+02
0.249669637741D-03 0.000000000000D+00 0.000000000000D+00 0.241336666177D-02 0.000000000000D+00  5 -1 2 25 24 21 0 0.45139152D-02 0.71376967D-01 0.11089593D+05 0.11089593D+05 0.11089593D+05 0.12630599D+01  1  2  2  2  5  2        2 0.365463457959D+00 0.100000000000D+01
-.136933831707D-04 0.000000000000D+00 -.958797148451D-06 0.241336666177D-02 0.000000000000D+00  5 -1 2 25 24 21 2 0.45139152D-02 0.71376967D-01 0.11089593D+05 0.11089593D+05 0.11089593D+05 0.12630599D+01  1  2  3  2  5  2        2 -.319769407286D-01 0.100000000000D+01
0.170768491830D-04 0.000000000000D+00 0.000000000000D+00 0.241336666177D-02 0.000000000000D+00  5 -1 2 25 24 21 2 0.45139152D-02 0.71376967D-01 0.11089593D+05 0.11089593D+05 0.11089593D+05 0.12630599D+01  1  2 15  2  5  2        2 0.398780482040D-01 0.100000000000D+01
-.538114384121D-04 0.000000000000D+00 0.000000000000D+00 0.241336666177D-02 0.000000000000D+00  5 -1 2 25 24 21 2 0.45139152D-02 0.71376967D-01 0.11089593D+05 0.11089593D+05 0.11089593D+05 0.12630599D+01  1  2  4  2  5  2        2 -.125661069670D+00 0.100000000000D+01
  </mgrwgt>
  </event>
  <event>
  4     66 0.45252658E-03 0.20608010E+03 0.75467711E-02 0.10112117E+00
       -1 -1    0    0    0  501 0.00000000E+00 0.00000000E+00 0.25106112E+02 0.25108151E+02 0.32000000E+00 0.0000E+00 0.9000E+01
        2 -1    0    0  501    0 0.00000000E+00 0.00000000E+00 -.22747841E+04 0.22747841E+04 0.32000000E+00 0.0000E+00 0.9000E+01
       25  1    1    2    0    0 0.17499852E+03 -.30361817E+02 -.17515956E+04 0.17650095E+04 0.12500000E+03 0.0000E+00 0.9000E+01
       24  1    1    2    0    0 -.17499852E+03 0.30361817E+02 -.49808238E+03 0.53488279E+03 0.80419002E+02 0.0000E+00 0.9000E+01
#aMCatNLO 1  0  0  2  2 0.43622154D+03 0.00000000D+00  -5  5  0 0.00000000D+00 0.00000000D+00 0.00000000D+00 0.00000000D+00 0.00000000D+00
  <mgrwgt>
 0.5003979841D+00    3    2    0
 0.238984004715405D+03 0.000000000000000D+00 0.000000000000000D+00 0.238984004715405D+03
 0.238984004715405D+03 0.000000000000000D+00 0.000000000000000D+00 -.238984004715405D+03
 0.248563917873752D+03 0.174998515354465D+03 -.303618173072676D+02 -.120883005183864D+03
 0.229404091557059D+03 -.174998515354465D+03 0.303618173072676D+02 0.120883005183864D+03
 0.000000000000000D+00 0.000000000000000D+00 -.000000000000000D+00 0.000000000000000D+00
 0.602911363658759D+03 0.000000000000000D+00 0.000000000000000D+00 0.602911363658759D+03
 0.493842142231712D+03 0.000000000000000D+00 0.000000000000000D+00 -.493842142231712D+03
 0.177327435669861D+03 0.205364578507375D+02 0.280280644695864D+02 -.120883005183864D+03
 0.469775841427547D+03 -.428576734577603D+03 0.126219677036132D+03 0.120883005183864D+03
 0.449650228793064D+03 0.408040276726866D+03 -.154247741505719D+03 0.109069221427047D+03
0.310983520392D-02 0.000000000000D+00 0.000000000000D+00 0.156451099871D-02 0.000000000000D+00  5 -1 2 25 24 21 0 0.38626373D-02 0.34996694D+00 0.42469007D+05 0.42469007D+05 0.42469007D+05 0.11993677D+01  1  2  2  2  5  2        2 0.490385796655D+00 0.100000000000D+01
-.168159243916D-03 0.000000000000D+00 -.119425860215D-04 0.156451099871D-02 0.000000000000D+00  5 -1 2 25 24 21 2 0.38626373D-02 0.34996694D+00 0.42469007D+05 0.42469007D+05 0.42469007D+05 0.11993677D+01  1  2  3  2  5  2        2 -.381439733455D-01 0.100000000000D+01
0.212298375679D-03 0.000000000000D+00 0.000000000000D+00 0.156451099871D-02 0.000000000000D+00  5 -1 2 25 24 21 2 0.38626373D-02 0.34996694D+00 0.42469007D+05 0.42469007D+05 0.42469007D+05 0.11993677D+01  1  2 15  2  5  2        2 0.481561607593D-01 0.100000000000D+01
  </mgrwgt>
  </event>
  <event>
  5     66 0.45252658E-03 0.19460570E+03 0.75467711E-02 0.10921761E+00
       -1 -1    0    0    0  501 0.00000000E+00 0.00000000E+00 0.87859783E+02 0.87860366E+02 0.32000000E+00 0.0000E+00 0.9000E+01
        2 -1    0    0  502    0 0.00000000E+00 0.00000000E+00 -.11326810E+04 0.11326810E+04 0.32000000E+00 0.0000E+00 0.9000E+01
       25  1    1    2    0    0 -.19531215E+03 -.67367375E+02 -.33826142E+03 0.41560917E+03 0.12500000E+03 0.0000E+00 0.9000E+01
       24  1    1    2    0    0 0.13828010E+03 -.76136204E+02 -.16611015E+03 0.24285367E+03 0.80419002E+02 0.0000E+00 0.9000E+01
       21  1    1    2  502  501 0.57032050E+02 0.14350358E+03 -.54044964E+03 0.56207856E+03 0.75000000E+00 0.0000E+00 0.9000E+01
#aMCatNLO 2  0  0  2  1 0.15442128D+03 0.00000000D+00  -5  5  0 0.00000000D+00 0.00000000D+00 0.00000000D+00 0.00000000D+00 0.00000000D+00
  <mgrwgt>
 0.1139739318D+00    2    2    0
 0.197063887546253D+03 0.000000000000000D+00 0.000000000000000D+00 0.197063887546253D+03
 0.197063887546253D+03 0.000000000000000D+00 0.000000000000000D+00 -.197063887546253D+03
 0.208681673229437D+03 -.163766606389550D+03 0.120072539612661D+02 -.309736214511213D+02
 0.185446101863070D+03 0.163766606389550D+03 -.120072539612661D+02 0.309736214511213D+02
 0.000000000000000D+00 0.000000000000000D+00 0.000000000000000D+00 -.000000000000000D+00
 0.241357381603760D+03 0.000000000000000D+00 0.000000000000000D+00 0.241357381603760D+03
 0.412322290227169D+03 0.000000000000000D+00 0.000000000000000D+00 -.412322290227169D+03
 0.243453410011108D+03 -.195312145977800D+03 -.673673752923931D+02 -.309736214511213D+02
 0.179846288856447D+03 0.138280095831380D+03 -.761362038200820D+02 0.309736214511213D+02
 0.230379972963373D+03 0.570320501464192D+02 0.143503579112475D+03 -.170964908623409D+03
-.698224717436D-04 0.000000000000D+00 0.000000000000D+00 0.212165859528D-02 0.000000000000D+00  5 -1 2 25 24 21 2 0.11036307D-01 0.17446431D+00 0.82098111D+05 0.82098111D+05 0.82098111D+05 0.11715242D+01  1  2 13  2  5  2        2 -.124390218605D-01 0.100000000000D+01
0.974290258558D-03 0.000000000000D+00 0.000000000000D+00 0.212165859528D-02 0.868311778550D-06  5 -1 2 25 24 21 2 0.13516907D-01 0.17425826D+00 0.82098111D+05 0.82098111D+05 0.82098111D+05 0.11715242D+01  1  2  1  2  5  2        2 0.126412953643D+00 0.100000000000D+01
  </mgrwgt>
  </event>
  <event>
  4     66 0.45252658E-03 0.67723150E+02 0.75467711E-02 0.12462668E+00
       -1 -1    0    0    0  501 0.00000000E+00 0.00000000E+00 0.10525759E+02 0.10530622E+02 0.32000000E+00 0.0000E+00 0.9000E+01
        2 -1    0    0  501    0 0.00000000E+00 0.00000000E+00 -.13861964E+04 0.13861964E+04 0.32000000E+00 0.0000E+00 0.9000E+01
       25  1    1    2    0    0 0.52549764E+02 0.62444978E+01 -.60342086E+03 0.61849997E+03 0.12500000E+03 0.0000E+00 0.9000E+01
       24  1    1    2    0    0 -.52549764E+02 -.62444978E+01 -.77224975E+03 0.77822706E+03 0.80419002E+02 0.0000E+00 0.9000E+01
#aMCatNLO 1  0  0  2  1 0.41369717D+01 0.00000000D+00  -5  5  0 0.00000000D+00 0.00000000D+00 0.00000000D+00 0.00000000D+00 0.00000000D+00
  <mgrwgt>
 0.7469008865D+00   11    2    0
 0.120806420561342D+03 0.000000000000000D+00 0.000000000000000D+00 0.120806420561342D+03
 0.120806420561342D+03 0.000000000000000D+00 0.000000000000000D+00 -.120806420561342D+03
 0.139757780934153D+03 0.525497635112614D+02 0.624449782776466D+01 0.332680918212677D+02
 0.101855060188531D+03 -.525497635112614D+02 -.624449782776466D+01 -.332680918212677D+02
 0.000000000000000D+00 0.000000000000000D+00 -.000000000000000D+00 -.000000000000000D+00
 0.122225040580060D+03 0.000000000000000D+00 0.000000000000000D+00 0.122225040580060D+03
 0.123878303710062D+03 0.000000000000000D+00 0.000000000000000D+00 -.123878303710062D+03
 0.139263504245700D+03 0.509703348241018D+02 0.803633307440612D+01 0.332680918212677D+02
 0.102384751551600D+03 -.537058839753848D+02 -.493289863128227D+01 -.332680918212677D+02
 0.445508849282201D+01 0.273554915128300D+01 -.310343444312385D+01 -.165326313000156D+01
0.152119832425D-03 0.000000000000D+00 0.000000000000D+00 0.258622472286D-02 0.000000000000D+00  5 -1 2 25 24 21 0 0.16197245D-02 0.21326136D+00 0.13457077D+05 0.13457077D+05 0.13457077D+05 0.12532327D+01  1  2  2  2  5  2        2 0.243080054734D+00 0.100000000000D+01
-.843419839952D-05 0.000000000000D+00 -.584180210585D-06 0.258622472286D-02 0.000000000000D+00  5 -1 2 25 24 21 2 0.16197245D-02 0.21326136D+00 0.13457077D+05 0.13457077D+05 0.13457077D+05 0.12532327D+01  1  2  3  2  5  2        2 -.211675563727D-01 0.100000000000D+01
0.105087674684D-04 0.000000000000D+00 0.000000000000D+00 0.258622472286D-02 0.000000000000D+00  5 -1 2 25 24 21 2 0.16197245D-02 0.21326136D+00 0.13457077D+05 0.13457077D+05 0.13457077D+05 0.12532327D+01  1  2 15  2  5  2        2 0.263741635255D-01 0.100000000000D+01
0.355972090657D-04 0.000000000000D+00 0.000000000000D+00 0.258622472286D-02 0.000000000000D+00  5 -1 2 25 24 21 2 0.16197245D-02 0.21991285D+00 0.13947321D+05 0.13947321D+05 0.13947321D+05 0.12514412D+01  1  2 12  2  5  2        2 0.846443147043D-01 0.100000000000D+01
-.968346434913D-03 0.000000000000D+00 0.000000000000D+00 0.258622472286D-02 0.000000000000D+00  5 -1 2 25 24 21 2 0.16197245D-02 0.21326136D+00 0.13457077D+05 0.13457077D+05 0.13457077D+05 0.12532327D+01  1  2  4  2  5  2        2 -.243028759561D+01 0.100000000000D+01
-.472490049399D-02 0.000000000000D+00 -.612721020144D-03 0.258622472286D-02 0.000000000000D+00  5 -1 2 25 24 21 2 0.16197245D-02 0.22010290D+00 0.13457077D+05 0.13457077D+05 0.13457077D+05 0.12532327D+01  1  2  5  2  5  2        2 -.112388305250D+02 0.100000000000D+01
0.474218917547D-02 0.000000000000D+00 0.612415677876D-03 0.258622472286D-02 0.000000000000D+00  5 -1 2 25 24 21 2 0.16197245D-02 0.21326136D+00 0.13457077D+05 0.13457077D+05 0.13457077D+05 0.12532327D+01  1  2  6  2  5  2        2 0.119016119786D+02 0.100000000000D+01
0.935209762932D-03 0.000000000000D+00 0.000000000000D+00 0.258622472286D-02 0.126270421097D-02  5 -1 2 25 24 21 2 0.16387448D-02 0.21868420D+00 0.13947321D+05 0.13947321D+05 0.13947321D+05 0.12514412D+01  1  2 11  2  5  2        2 0.220804757173D+01 0.100000000000D+01
0.808691019262D-06 0.000000000000D+00 0.000000000000D+00 0.258622472286D-02 0.000000000000D+00  5 -1 21 25 24 -2 2 0.16197245D-02 0.21991285D+00 0.13947321D+05 0.13947321D+05 0.13947321D+05 0.12514412D+01  1  2 12  4  5  2        2 0.106985230449D-02 0.100000000000D+01
-.264754004596D-04 0.000000000000D+00 -.346185766889D-05 0.258622472286D-02 0.000000000000D+00  5 -1 21 25 24 -2 2 0.16197245D-02 0.22010290D+00 0.13457077D+05 0.13457077D+05 0.13457077D+05 0.12532327D+01  1  2  5  4  5  2        2 -.350683233599D-01 0.100000000000D+01
0.561284610512D-05 0.000000000000D+00 0.000000000000D+00 0.258622472286D-02 0.575436555465D-05  5 -1 21 25 24 -2 2 0.16387448D-02 0.21868420D+00 0.13947321D+05 0.13947321D+05 0.13947321D+05 0.12514412D+01  1  2 11  4  5  2        2 0.742695120100D-02 0.100000000000D+01
  </mgrwgt>
  </event>
  <event>
  4     66 0.45252658E-03 0.13997914E+03 0.75467711E-02 0.11760164E+00
       -1 -1    0    0    0  501 0.00000000E+00 0.00000000E+00 0.16719468E+03 0.16719499E+03 0.32000000E+00 0.0000E+00 0.9000E+01
        2 -1    0    0  501    0 0.00000000E+00 0.00000000E+00 -.12150919E+03 0.12150961E+03 0.32000000E+00 0.0000E+00 0.9000E+01
       25  1    1    2    0    0 -.69255611E+02 0.63397308E+02 -.16093760E+01 0.15634305E+03 0.12500000E+03 0.0000E+00 0.9000E+01
       24  1    1    2    0    0 0.69255611E+02 -.63397308E+02 0.47294869E+02 0.13236155E+03 0.80419002E+02 0.0000E+00 0.9000E+01
#aMCatNLO 1  0  0  2  2 0.57908018D+02 0.00000000D+00  -5  5  0 0.00000000D+00 0.00000000D+00 0.00000000D+00 0.00000000D+00 0.00000000D+00
  <mgrwgt>
 0.3150025191D+00    4    2    0
 0.142533485468894D+03 0.000000000000000D+00 0.000000000000000D+00 0.142533485468894D+03
 0.142533485468894D+03 0.000000000000000D+00 0.000000000000000D+00 -.142533485468894D+03
 0.158595998806555D+03 -.692556108051004D+02 0.633973080902980D+02 -.266858115178280D+02
 0.126470972131234D+03 0.692556108051004D+02 -.633973080902980D+02 0.266858115178280D+02
 0.000000000000000D+00 0.000000000000000D+00 -.000000000000000D+00 0.000000000000000D+00
 0.237742626112953D+03 0.000000000000000D+00 0.000000000000000D+00 0.237742626112953D+03
 0.154527500237836D+03 0.000000000000000D+00 0.000000000000000D+00 -.154527500237836D+03
 0.180671096089936D+03 -.904842165611059D+02 0.900972750936273D+02 -.266858115178280D+02
 0.110218086442940D+03 0.544455134310411D+02 -.447701257049635D+02 0.266858115178280D+02
 0.101380943817913D+03 0.360387031300649D+02 -.453271493886638D+02 0.832151258751173D+02
0.811695758574D-03 0.000000000000D+00 0.000000000000D+00 0.239693080532D-02 0.000000000000D+00  5 -1 2 25 24 21 0 0.25722314D-01 0.18693777D-01 0.19594160D+05 0.19594160D+05 0.19594160D+05 0.12348074D+01  1  2  2  2  5  2        2 0.354269148683D+00 0.100000000000D+01
-.450762792686D-04 0.000000000000D+00 -.311712543733D-05 0.239693080532D-02 0.000000000000D+00  5 -1 2 25 24 21 2 0.25722314D-01 0.18693777D-01 0.19594160D+05 0.19594160D+05 0.19594160D+05 0.12348074D+01  1  2  3  2  5  2        2 -.299976053483D-01 0.100000000000D+01
0.561236445421D-04 0.000000000000D+00 0.000000000000D+00 0.239693080532D-02 0.000000000000D+00  5 -1 2 25 24 21 2 0.25722314D-01 0.18693777D-01 0.19594160D+05 0.19594160D+05 0.19594160D+05 0.12348074D+01  1  2 15  2  5  2        2 0.373494655504D-01 0.100000000000D+01
-.700518604794D-04 0.000000000000D+00 0.000000000000D+00 0.239693080532D-02 0.000000000000D+00  5 -1 2 25 24 21 2 0.25722314D-01 0.18693777D-01 0.19594160D+05 0.19594160D+05 0.19594160D+05 0.12348074D+01  1  2  4  2  5  2        2 -.466184897838D-01 0.100000000000D+01
  </mgrwgt>
  </event>
  <event>
  4     66 0.45252658E-03 0.91716376E+02 0.75467711E-02 0.11320848E+00
       -1 -1    0    0    0  501 0.00000000E+00 0.00000000E+00 0.17550919E+02 0.17553836E+02 0.32000000E+00 0.0000E+00 0.9000E+01
        2 -1    0    0  501    0 0.00000000E+00 0.00000000E+00 -.19187713E+04 0.19187714E+04 0.32000000E+00 0.0000E+00 0.9000E+01
       25  1    1    2    0    0 -.10383957E+02 -.14526729E+03 -.12248085E+04 0.12397545E+04 0.12500000E+03 0.0000E+00 0.9000E+01
       24  1    1    2    0    0 0.10383957E+02 0.14526729E+03 -.67641196E+03 0.69657072E+03 0.80419002E+02 0.0000E+00 0.9000E+01
#aMCatNLO 1  0  0  2  1 0.78173517D+02 0.00000000D+00  -5  5  0 0.00000000D+00 0.00000000D+00 0.00000000D+00 0.00000000D+00 0.00000000D+00
  <mgrwgt>
 0.3990462208D+00    7    2    0
 0.183518528819485D+03 0.000000000000000D+00 0.000000000000000D+00 0.183518528819485D+03
 0.183518528819485D+03 0.000000000000000D+00 0.000000000000000D+00 -.183518528819485D+03
 0.195993814155165D+03 -.103839572948200D+02 -.145267289785870D+03 -.397261014480012D+02
 0.171043243483804D+03 0.103839572948200D+02 0.145267289785870D+03 0.397261014480012D+02
 0.000000000000000D+00 0.000000000000000D+00 -.000000000000000D+00 -.000000000000000D+00
 0.192862949694257D+03 0.000000000000000D+00 0.000000000000000D+00 0.192862949694257D+03
 0.479856768691724D+03 0.000000000000000D+00 0.000000000000000D+00 -.479856768691724D+03
 0.170334993198048D+03 -.172366814460159D+02 -.107302113605701D+03 -.397261014480012D+02
 0.204934643801905D+03 0.335073277957151D+01 0.184232466545466D+03 0.397261014480012D+02
 0.297450081386028D+03 0.138859486664444D+02 -.769303529397648D+02 -.286993818997467D+03
0.956666858302D-03 0.000000000000D+00 0.000000000000D+00 0.212176560895D-02 0.000000000000D+00  5 -1 2 25 24 21 0 0.27003678D-02 0.29519582D+00 0.32093197D+05 0.32093197D+05 0.32093197D+05 0.12118361D+01  1  2  2  2  5  2        2 0.392615264665D+00 0.100000000000D+01
-.531105768805D-04 0.000000000000D+00 -.367385263205D-05 0.212176560895D-02 0.000000000000D+00  5 -1 2 25 24 21 2 0.27003678D-02 0.29519582D+00 0.32093197D+05 0.32093197D+05 0.32093197D+05 0.12118361D+01  1  2  3  2  5  2        2 -.320092307794D-01 0.100000000000D+01
0.656890073172D-04 0.000000000000D+00 0.000000000000D+00 0.212176560895D-02 0.000000000000D+00  5 -1 2 25 24 21 2 0.27003678D-02 0.29519582D+00 0.32093197D+05 0.32093197D+05 0.32093197D+05 0.12118361D+01  1  2 15  2  5  2        2 0.395901290926D-01 0.100000000000D+01
0.224746517963D-02 0.000000000000D+00 0.000000000000D+00 0.212176560895D-02 0.000000000000D+00  5 -1 2 25 24 21 2 0.27003678D-02 0.76577193D+00 0.49474790D+05 0.49474790D+05 0.49474790D+05 0.11927362D+01  1  2 12  2  5  2        2 0.891669410168D-02 0.100000000000D+01
-.277339035529D-02 0.000000000000D+00 -.260367981049D-03 0.212176560895D-02 0.000000000000D+00  5 -1 2 25 24 21 2 0.27003678D-02 0.77450500D+00 0.32093197D+05 0.32093197D+05 0.32093197D+05 0.12118361D+01  1  2  5  2  5  2        2 -.100659889350D-01 0.100000000000D+01
0.237278203212D-03 0.000000000000D+00 0.000000000000D+00 0.212176560895D-02 0.000000000000D+00  5 -1 21 25 24 -2 2 0.27003678D-02 0.76577193D+00 0.49474790D+05 0.49474790D+05 0.49474790D+05 0.11927362D+01  1  2 12  4  5  2        2 0.136105279981D-04 0.100000000000D+01
-.281303383141D-03 0.000000000000D+00 -.278706073822D-04 0.212176560895D-02 0.000000000000D+00  5 -1 21 25 24 -2 2 0.27003678D-02 0.77450500D+00 0.32093197D+05 0.32093197D+05 0.32093197D+05 0.12118361D+01  1  2  5  4  5  2        2 -.142578845066D-04 0.100000000000D+01
  </mgrwgt>
  </event>
  <event>
  4     66 0.45252658E-03 0.11549352E+03 0.75467711E-02 0.11085086E+00
       -1 -1    0    0    0  501 0.00000000E+00 0.00000000E+00 0.77128863E+01 0.77195217E+01 0.32000000E+00 0.0000E+00 0.9000E+01
        2 -1    0    0  501    0 0.00000000E+00 0.00000000E+00 -.31501933E+04 0.31501933E+04 0.32000000E+00 0.0000E+00 0.9000E+01
       25  1    1    2    0    0 0.45489207E+02 -.24826089E+02 -.66717022E+03 0.68075451E+03 0.12500000E+03 0.0000E+00 0.9000E+01
       24  1    1    2    0    0 -.45489207E+02 0.24826089E+02 -.24753102E+04 0.24771583E+04 0.80419002E+02 0.0000E+00 0.9000E+01
#aMCatNLO 1  0  0  1  2 0.20555205D+03 0.00000000D+00  -5  5  0 0.00000000D+00 0.00000000D+00 0.00000000D+00 0.00000000D+00 0.00000000D+00
  <mgrwgt>
 0.4389709889D+00    3    2    0
 0.155908901274811D+03 0.000000000000000D+00 0.000000000000000D+00 0.155908901274811D+03
 0.155908901274811D+03 0.000000000000000D+00 0.000000000000000D+00 -.155908901274811D+03
 0.170593412503403D+03 0.454892074257825D+02 -.248260892225878D+02 0.103882191405661D+03
 0.141224390046219D+03 -.454892074257825D+02 0.248260892225878D+02 -.103882191405661D+03
 0.000000000000000D+00 0.000000000000000D+00 0.000000000000000D+00 -.000000000000000D+00
 0.273979662082632D+03 0.000000000000000D+00 0.000000000000000D+00 0.273979662082632D+03
 0.307810721687366D+03 0.000000000000000D+00 0.000000000000000D+00 -.307810721687366D+03
 0.174734734442678D+03 -.580623263216608D+02 -.272852339485601D+02 0.103882191405661D+03
 0.198738138402138D+03 -.147431784504456D+03 0.224051540446845D+02 -.103882191405661D+03
 0.208317510925182D+03 0.205494110826116D+03 0.488007990387562D+01 -.338310596047338D+02
0.147746758499D-02 0.000000000000D+00 0.000000000000D+00 0.139869983360D-02 0.000000000000D+00  5 -1 2 25 24 21 0 0.11871096D-02 0.48464564D+00 0.13338753D+05 0.13338753D+05 0.13338753D+05 0.12536761D+01  1  2  2  1  5  1       -1 0.426493081947D+00 0.100000000000D+01
-.730961665030D-04 0.000000000000D+00 -.567386455250D-05 0.139869983360D-02 0.000000000000D+00  5 -1 2 25 24 21 2 0.11871096D-02 0.48464564D+00 0.13338753D+05 0.13338753D+05 0.13338753D+05 0.12536761D+01  1  2  3  1  5  1       -1 -.331634194772D-01 0.100000000000D+01
0.100598974626D-03 0.000000000000D+00 0.000000000000D+00 0.139869983360D-02 0.000000000000D+00  5 -1 2 25 24 21 2 0.11871096D-02 0.48464564D+00 0.13338753D+05 0.13338753D+05 0.13338753D+05 0.12536761D+01  1  2 15  1  5  1       -1 0.456413264075D-01 0.100000000000D+01
  </mgrwgt>
  </event>
  <event>
  5     66 0.45252658E-03 0.13399015E+03 0.75467711E-02 0.11378738E+00
       -1 -1    0    0    0  501 0.00000000E+00 0.00000000E+00 0.10473904E+03 0.10473953E+03 0.32000000E+00 0.0000E+00 0.9000E+01
       21 -1    0    0  501  502 0.00000000E+00 0.00000000E+00 -.46060699E+03 0.46060760E+03 0.75000000E+00 0.0000E+00 0.9000E+01
       25  1    1    2    0    0 -.70411673E+02 -.50222388E+02 -.17074387E+03 0.22860131E+03 0.12500000E+03 0.0000E+00 0.9000E+01
       24  1    1    2    0    0 -.43910693E+02 0.11422910E+03 -.69891445E+02 0.16226049E+03 0.80419002E+02 0.0000E+00 0.9000E+01
       -2  1    1    2    0  502 0.11432237E+03 -.64006715E+02 -.11523264E+03 0.17448532E+03 0.32000000E+00 0.0000E+00 0.9000E+01
#aMCatNLO 2  0  0  2  1 0.13102085D+03 0.00000000D+00  -5  5  0 0.00000000D+00 0.00000000D+00 0.00000000D+00 0.00000000D+00 0.00000000D+00
  <mgrwgt>
 0.1686891914D-01    1    2    0
 0.139374614912217D+03 0.000000000000000D+00 0.000000000000000D+00 0.139374614912217D+03
 0.139374614912217D+03 0.000000000000000D+00 0.000000000000000D+00 -.139374614912217D+03
 0.155801178765680D+03 -.952446979300277D+01 -.843118669452689D+02 -.380762507626574D+02
 0.122948051058753D+03 0.952446979300277D+01 0.843118669452689D+02 0.380762507626574D+02
 0.000000000000000D+00 0.000000000000000D+00 -.000000000000000D+00 -.000000000000000D+00
 0.214744914694782D+03 0.000000000000000D+00 0.000000000000000D+00 0.214744914694782D+03
 0.224656108263800D+03 0.000000000000000D+00 0.000000000000000D+00 -.224656108263800D+03
 0.156700009027515D+03 -.704116731332463D+02 -.502223878729330D+02 -.380762507626574D+02
 0.151305828697076D+03 -.439106926825862D+02 0.114229103293920D+03 0.380762507626574D+02
 0.131395185233991D+03 0.114322365815832D+03 -.640067154209873D+02 -.991119356901760D+01
0.254452234151D-04 0.000000000000D+00 0.000000000000D+00 0.233902400522D-02 0.130140339928D-06  5 -1 21 25 24 -2 2 0.16113768D-01 0.70862635D-01 0.46109178D+05 0.46109178D+05 0.46109178D+05 0.11957819D+01  1  2  1  4  5  2        2 0.168689191422D-01 0.100000000000D+01
  </mgrwgt>
  </event>
  <event>
  4     66 0.45252658E-03 0.14450268E+03 0.75467711E-02 0.11351679E+00
       -1 -1    0    0    0  501 0.00000000E+00 0.00000000E+00 0.76231888E+02 0.76232560E+02 0.32000000E+00 0.0000E+00 0.9000E+01
        2 -1    0    0  501    0 0.00000000E+00 0.00000000E+00 -.55241288E+03 0.55241298E+03 0.32000000E+00 0.0000E+00 0.9000E+01
       25  1    1    2    0    0 -.83138503E+02 0.56337612E+02 -.28520090E+02 0.16286293E+03 0.12500000E+03 0.0000E+00 0.9000E+01
       24  1    1    2    0    0 0.83138503E+02 -.56337612E+02 -.44766091E+03 0.46578261E+03 0.80419002E+02 0.0000E+00 0.9000E+01
#aMCatNLO 1  0  0  2  1 0.12215842D+03 0.00000000D+00  -5  5  0 0.00000000D+00 0.00000000D+00 0.00000000D+00 0.00000000D+00 0.00000000D+00
  <mgrwgt>
 0.2327003712D+00    4    2    0
 0.205211397230139D+03 0.000000000000000D+00 0.000000000000000D+00 0.205211397230139D+03
 0.205211397230139D+03 0.000000000000000D+00 0.000000000000000D+00 -.205211397230139D+03
 0.216367921878912D+03 -.831385032562356D+02 0.563376120939159D+02 0.145272641464481D+03
 0.194054872581365D+03 0.831385032562356D+02 -.563376120939159D+02 -.145272641464481D+03
 0.000000000000000D+00 -.000000000000000D+00 -.000000000000000D+00 0.000000000000000D+00
 0.309105140823347D+03 0.000000000000000D+00 0.000000000000000D+00 0.309105140823347D+03
 0.253379890518975D+03 0.000000000000000D+00 0.000000000000000D+00 -.253379890518975D+03
 0.208757337280378D+03 -.254187305030764D+02 0.787678465488178D+02 0.145272641464481D+03
 0.219459371016429D+03 0.139281834324964D+03 -.345199919113791D+02 -.145272641464481D+03
 0.134268323045515D+03 -.113863103821888D+03 -.442478546374387D+02 0.557252503043711D+02
0.109326887651D-02 0.000000000000D+00 0.000000000000D+00 0.112128208706D-02 0.000000000000D+00  5 -1 2 25 24 21 0 0.11728042D-01 0.84986656D-01 0.20881025D+05 0.20881025D+05 0.20881025D+05 0.12317702D+01  1  2  2  2  5  2        2 0.321512958527D+00 0.100000000000D+01
-.516524095123D-04 0.000000000000D+00 -.419844035012D-05 0.112128208706D-02 0.000000000000D+00  5 -1 2 25 24 21 2 0.11728042D-01 0.84986656D-01 0.20881025D+05 0.20881025D+05 0.20881025D+05 0.12317702D+01  1  2  3  2  5  2        2 -.230473767949D-01 0.100000000000D+01
0.743310358930D-04 0.000000000000D+00 0.000000000000D+00 0.112128208706D-02 0.000000000000D+00  5 -1 2 25 24 21 2 0.11728042D-01 0.84986656D-01 0.20881025D+05 0.20881025D+05 0.20881025D+05 0.12317702D+01  1  2 15  2  5  2        2 0.331666113538D-01 0.100000000000D+01
-.221720112568D-03 0.000000000000D+00 0.000000000000D+00 0.112128208706D-02 0.000000000000D+00  5 -1 2 25 24 21 2 0.11728042D-01 0.84986656D-01 0.20881025D+05 0.20881025D+05 0.20881025D+05 0.12317702D+01  1  2  4  2  5  2        2 -.989318218766D-01 0.100000000000D+01
  </mgrwgt>
  </event>
  <event>
  4     66 0.45252658E-03 0.13087981E+03 0.75467711E-02 0.10987029E+00
       -1 -1    0    0    0  501 0.00000000E+00 0.00000000E+00 0.57529956E+02 0.57530846E+02 0.32000000E+00 0.0000E+00 0.9000E+01
        2 -1    0    0  501    0 0.00000000E+00 0.00000000E+00 -.56029516E+03 0.56029525E+03 0.32000000E+00 0.0000E+00 0.9000E+01
       25  1    1    2    0    0 -.50364958E+02 -.62070786E+02 -.47969318E+03 0.50211549E+03 0.12500000E+03 0.0000E+00 0.9000E+01
       24  1    1    2    0    0 0.50364958E+02 0.62070786E+02 -.23072021E+02 0.11571061E+03 0.80419002E+02 0.0000E+00 0.9000E+01
#aMCatNLO 1  0  0  1  1 0.21209583D+03 0.00000000D+00  -5  5  0 0.00000000D+00 0.00000000D+00 0.00000000D+00 0.00000000D+00 0.00000000D+00
  <mgrwgt>
 0.3477784610D+00    3    2    0
 0.179538460905066D+03 0.000000000000000D+00 0.000000000000000D+00 0.179538460905066D+03
 0.179538460905066D+03 0.000000000000000D+00 0.000000000000000D+00 -.179538460905066D+03
 0.192290302487455D+03 -.503649583183478D+02 -.620707856759757D+02 -.122315775637794D+03
 0.166786619322677D+03 0.503649583183478D+02 0.620707856759757D+02 0.122315775637794D+03
 0.000000000000000D+00 0.000000000000000D+00 -.000000000000000D+00 -.000000000000000D+00
 0.313239905689203D+03 0.000000000000000D+00 0.000000000000000D+00 0.313239905689203D+03
 0.315910968898759D+03 0.000000000000000D+00 0.000000000000000D+00 -.315910968898759D+03
 0.193131362297413D+03 -.707914041535621D+02 0.412571355155267D+02 -.122315775637794D+03
 0.223906859684269D+03 0.296591186724076D+02 0.166812030648276D+03 0.122315775637794D+03
 0.212112652606280D+03 0.411322854811545D+02 -.208069166163802D+03 -.267106320955553D+01
0.761918834986D-03 0.000000000000D+00 0.000000000000D+00 0.126030675737D-02 0.000000000000D+00  5 -1 2 25 24 21 0 0.88508379D-02 0.86199331D-01 0.17129524D+05 0.17129524D+05 0.17129524D+05 0.12413030D+01  1  2  2  1  5  1       -1 0.337808803710D+00 0.100000000000D+01
-.371860868092D-04 0.000000000000D+00 -.292596894418D-05 0.126030675737D-02 0.000000000000D+00  5 -1 2 25 24 21 2 0.88508379D-02 0.86199331D-01 0.17129524D+05 0.17129524D+05 0.17129524D+05 0.12413030D+01  1  2  3  1  5  1       -1 -.254037799807D-01 0.100000000000D+01
0.517796844265D-04 0.000000000000D+00 0.000000000000D+00 0.126030675737D-02 0.000000000000D+00  5 -1 2 25 24 21 2 0.88508379D-02 0.86199331D-01 0.17129524D+05 0.17129524D+05 0.17129524D+05 0.12413030D+01  1  2 15  1  5  1       -1 0.353734373124D-01 0.100000000000D+01
  </mgrwgt>
  </event>
  <event>
  4     66 0.45252658E-03 0.50808255E+03 0.75467711E-02 0.89392923E-01
       -1 -1    0    0    0  501 0.00000000E+00 0.00000000E+00 0.12963791E+04 0.12963791E+04 0.32000000E+00 0.0000E+00 0.9000E+01
        2 -1    0    0  501    0 0.00000000E+00 0.00000000E+00 -.19980294E+03 0.19980320E+03 0.32000000E+00 0.0000E+00 0.9000E+01
       25  1    1    2    0    0 0.46563196E+03 0.17409465E+03 0.59655566E+03 0.78652764E+03 0.12500000E+03 0.0000E+00 0.9000E+01
       24  1    1    2    0    0 -.46563196E+03 -.17409465E+03 0.50002048E+03 0.70965469E+03 0.80419002E+02 0.0000E+00 0.9000E+01
#aMCatNLO 1  0  0  2  1 0.12386428D+04 0.00000000D+00  -5  5  0 0.00000000D+00 0.00000000D+00 0.00000000D+00 0.00000000D+00 0.00000000D+00
  <mgrwgt>
 0.2106378420D+00    5    2    0
 0.508940643243418D+03 0.000000000000000D+00 0.000000000000000D+00 0.508940643243418D+03
 0.508940643243418D+03 0.000000000000000D+00 0.000000000000000D+00 -.508940643243418D+03
 0.513439097123652D+03 0.465631963330036D+03 0.174094652053927D+03 0.295403674112169D+02
 0.504442189363184D+03 -.465631963330036D+03 -.174094652053927D+03 -.295403674112169D+02
 0.000000000000000D+00 -.000000000000000D+00 0.000000000000000D+00 -.000000000000000D+00
 0.915032156627748D+03 0.000000000000000D+00 0.000000000000000D+00 0.915032156627748D+03
 0.418332286994911D+04 0.000000000000000D+00 0.000000000000000D+00 -.418332286994911D+04
 0.116534609890496D+04 0.112815215672159D+04 -.262310137453080D+03 0.295403674112169D+02
 0.437875137984369D+03 -.937533814677566D+02 -.419052610858148D+03 -.295403674112169D+02
 0.349513378968753D+04 -.103439877525383D+04 0.681362748311228D+03 -.326829071332136D+04
0.657117285208D-01 0.000000000000D+00 0.000000000000D+00 0.192829379930D-02 0.000000000000D+00  5 -1 2 25 24 21 0 0.19944296D+00 0.30738937D-01 0.25814788D+06 0.25814788D+06 0.25814788D+06 0.11275317D+01  1  2  2  2  5  2        2 0.207779659947D+00 0.100000000000D+01
-.365063894527D-02 0.000000000000D+00 -.252350339815D-03 0.192829379930D-02 0.000000000000D+00  5 -1 2 25 24 21 2 0.19944296D+00 0.30738937D-01 0.25814788D+06 0.25814788D+06 0.25814788D+06 0.11275317D+01  1  2  3  2  5  2        2 -.146752855581D-01 0.100000000000D+01
0.450894730460D-02 0.000000000000D+00 0.000000000000D+00 0.192829379930D-02 0.000000000000D+00  5 -1 2 25 24 21 2 0.19944296D+00 0.30738937D-01 0.25814788D+06 0.25814788D+06 0.25814788D+06 0.11275317D+01  1  2 15  2  5  2        2 0.181256186256D-01 0.100000000000D+01
-.198261962906D-02 0.000000000000D+00 -.620112300170D-01 0.192829379930D-02 0.000000000000D+00  5 -1 2 25 24 21 2 0.19944296D+00 0.33945072D+00 0.25814788D+06 0.25814788D+06 0.25814788D+06 0.11275317D+01  1  2  5  2  5  2        2 -.253927718134D-03 0.100000000000D+01
-.114790923285D-01 0.000000000000D+00 -.175214024074D-01 0.192829379930D-02 0.000000000000D+00  5 -1 21 25 24 -2 2 0.19944296D+00 0.33945072D+00 0.25814788D+06 0.25814788D+06 0.25814788D+06 0.11275317D+01  1  2  5  4  5  2        2 -.338223253432D-03 0.100000000000D+01
  </mgrwgt>
  </event>
  <event>
  4     66 0.45252658E-03 0.16349999E+03 0.75467711E-02 0.10960631E+00
       -1 -1    0    0    0  501 0.00000000E+00 0.00000000E+00 0.16259269E+02 0.16262418E+02 0.32000000E+00 0.0000E+00 0.9000E+01
        2 -1    0    0  501    0 0.00000000E+00 0.00000000E+00 -.17303818E+04 0.17303818E+04 0.32000000E+00 0.0000E+00 0.9000E+01
       25  1    1    2    0    0 0.21514924E+02 0.12417457E+03 -.11212853E+04 0.11352480E+04 0.12500000E+03 0.0000E+00 0.9000E+01
       24  1    1    2    0    0 -.21514924E+02 -.12417457E+03 -.59283720E+03 0.61139626E+03 0.80419002E+02 0.0000E+00 0.9000E+01
#aMCatNLO 1  0  0  2  2 0.18487855D+03 0.00000000D+00  -5  5  0 0.00000000D+00 0.00000000D+00 0.00000000D+00 0.00000000D+00 0.00000000D+00
  <mgrwgt>
 0.4844739713D+00    3    2    0
 0.167742418973214D+03 0.000000000000000D+00 0.000000000000000D+00 0.167742418973214D+03
 0.167742418973214D+03 0.000000000000000D+00 0.000000000000000D+00 -.167742418973214D+03
 0.181391000085980D+03 0.215149235939584D+02 0.124174572512824D+03 -.373561041356739D+02
 0.154093837860449D+03 -.215149235939584D+02 -.124174572512824D+03 0.373561041356739D+02
 0.000000000000000D+00 -.000000000000000D+00 -.000000000000000D+00 0.000000000000000D+00
 0.365218773340387D+03 0.000000000000000D+00 0.000000000000000D+00 0.365218773340387D+03
 0.240723279775780D+03 0.000000000000000D+00 0.000000000000000D+00 -.240723279775780D+03
 0.276538229090660D+03 0.445439167446955D+02 0.239726413049219D+03 -.373561041356739D+02
 0.106515495206377D+03 -.840903263127632D+01 -.584135636534880D+02 0.373561041356739D+02
 0.222888328819129D+03 -.361348841134192D+02 -.181312849395731D+03 0.124495493564607D+03
0.828889456136D-03 0.000000000000D+00 0.000000000000D+00 0.218654695693D-02 0.000000000000D+00  5 -1 2 25 24 21 0 0.25016705D-02 0.26621283D+00 0.26732248D+05 0.26732248D+05 0.26732248D+05 0.12201905D+01  1  2  2  2  5  2        2 0.475182155158D+00 0.100000000000D+01
-.460126733456D-04 0.000000000000D+00 -.318315376317D-05 0.218654695693D-02 0.000000000000D+00  5 -1 2 25 24 21 2 0.25016705D-02 0.26621283D+00 0.26732248D+05 0.26732248D+05 0.26732248D+05 0.12201905D+01  1  2  3  2  5  2        2 -.392731959613D-01 0.100000000000D+01
0.568990117063D-04 0.000000000000D+00 0.000000000000D+00 0.218654695693D-02 0.000000000000D+00  5 -1 2 25 24 21 2 0.25016705D-02 0.26621283D+00 0.26732248D+05 0.26732248D+05 0.26732248D+05 0.12201905D+01  1  2 15  2  5  2        2 0.485650120775D-01 0.100000000000D+01
  </mgrwgt>
  </event>
  <event>
  4     66 0.45252658E-03 0.67113343E+02 0.75467711E-02 0.11683489E+00
       -1 -1    0    0    0  501 0.00000000E+00 0.00000000E+00 0.43386996E+03 0.43387007E+03 0.32000000E+00 0.0000E+00 0.9000E+01
        2 -1    0    0  501    0 0.00000000E+00 0.00000000E+00 -.45946008E+02 0.45947122E+02 0.32000000E+00 0.0000E+00 0.9000E+01
       25  1    1    2    0    0 0.92524290E+02 -.24209430E+02 0.21998884E+03 0.27049386E+03 0.12500000E+03 0.0000E+00 0.9000E+01
       24  1    1    2    0    0 -.92524290E+02 0.24209430E+02 0.16793511E+03 0.20932334E+03 0.80419002E+02 0.0000E+00 0.9000E+01
#aMCatNLO 1  0  0  1  2 0.68368092D+02 0.00000000D+00  -5  5  0 0.00000000D+00 0.00000000D+00 0.00000000D+00 0.00000000D+00 0.00000000D+00
  <mgrwgt>
 0.2170096535D+00    7    2    0
 0.141190962641858D+03 0.000000000000000D+00 0.000000000000000D+00 0.141190962641858D+03
 0.141190962641858D+03 0.000000000000000D+00 0.000000000000000D+00 -.141190962641858D+03
 0.157406207361272D+03 0.925242897985319D+02 -.242094303026483D+02 0.220757730516021D+01
 0.124975717922444D+03 -.925242897985319D+02 0.242094303026483D+02 -.220757730516021D+01
 0.000000000000000D+00 -.000000000000000D+00 0.000000000000000D+00 0.000000000000000D+00
 0.316936259099474D+03 0.000000000000000D+00 0.000000000000000D+00 0.316936259099474D+03
 0.152077326839523D+03 0.000000000000000D+00 0.000000000000000D+00 -.152077326839523D+03
 0.168023856132542D+03 0.928861936191740D+02 -.630420325420446D+02 0.220757730516021D+01
 0.122516584642506D+03 -.922490588966411D+02 -.532309057030330D+01 -.220757730516021D+01
 0.178473145163949D+03 -.637134722532948D+00 0.683651231123479D+02 0.164858932259951D+03
0.948500983783D-03 0.000000000000D+00 0.000000000000D+00 0.248815059341D-02 0.000000000000D+00  5 -1 2 25 24 21 0 0.66749319D-01 0.70687114D-02 0.19929949D+05 0.19929949D+05 0.19929949D+05 0.12339938D+01  1  2  2  1  5  1       -1 0.246474033440D+00 0.100000000000D+01
-.526944981158D-04 0.000000000000D+00 -.364249352377D-05 0.248815059341D-02 0.000000000000D+00  5 -1 2 25 24 21 2 0.66749319D-01 0.70687114D-02 0.19929949D+05 0.19929949D+05 0.19929949D+05 0.12339938D+01  1  2  3  1  5  1       -1 -.208508921005D-01 0.100000000000D+01
0.656162017895D-04 0.000000000000D+00 0.000000000000D+00 0.248815059341D-02 0.000000000000D+00  5 -1 2 25 24 21 2 0.66749319D-01 0.70687114D-02 0.19929949D+05 0.19929949D+05 0.19929949D+05 0.12339938D+01  1  2 15  1  5  1       -1 0.259639315769D-01 0.100000000000D+01
0.104540245647D-02 0.000000000000D+00 0.000000000000D+00 0.248815059341D-02 0.000000000000D+00  5 -1 2 25 24 21 2 0.14915361D+00 0.70687114D-02 0.32197662D+05 0.32197662D+05 0.32197662D+05 0.12116891D+01  1  2 12  1  5  1       -1 0.669355394810D-01 0.100000000000D+01
-.147595785522D-02 0.000000000000D+00 -.251272491963D-03 0.248815059341D-02 0.000000000000D+00  5 -1 2 25 24 21 2 0.15467260D+00 0.70687114D-02 0.19929949D+05 0.19929949D+05 0.19929949D+05 0.12339938D+01  1  2  5  1  5  1       -1 -.891096239968D-01 0.100000000000D+01
0.912175375961D-04 0.000000000000D+00 0.000000000000D+00 0.248815059341D-02 0.000000000000D+00  5 21 2 25 24 1 2 0.14915361D+00 0.70687114D-02 0.32197662D+05 0.32197662D+05 0.32197662D+05 0.12116891D+01  1  2 12  3  5  1       -1 0.490380057266D-01 0.100000000000D+01
-.119212109620D-03 0.000000000000D+00 -.230000411427D-04 0.248815059341D-02 0.000000000000D+00  5 21 2 25 24 1 2 0.15467260D+00 0.70687114D-02 0.19929949D+05 0.19929949D+05 0.19929949D+05 0.12339938D+01  1  2  5  3  5  1       -1 -.614413406567D-01 0.100000000000D+01
  </mgrwgt>
  </event>
  <event>
  4     66 0.45252658E-03 0.46105955E+02 0.75467711E-02 0.12382849E+00
       -1 -1    0    0    0  501 0.00000000E+00 0.00000000E+00 0.26952483E+02 0.26954383E+02 0.32000000E+00 0.0000E+00 0.9000E+01
        2 -1    0    0  501    0 0.00000000E+00 0.00000000E+00 -.53948989E+03 0.53948999E+03 0.32000000E+00 0.0000E+00 0.9000E+01
       25  1    1    2    0    0 0.59394149E+02 -.16876774E+02 -.31202273E+03 0.34175382E+03 0.12500000E+03 0.0000E+00 0.9000E+01
       24  1    1    2    0    0 -.59394149E+02 0.16876774E+02 -.20051468E+03 0.22469055E+03 0.80419002E+02 0.0000E+00 0.9000E+01
#aMCatNLO 1  0  0  2  1 0.50675428D+01 0.00000000D+00  -5  5  0 0.00000000D+00 0.00000000D+00 0.00000000D+00 0.00000000D+00 0.00000000D+00
  <mgrwgt>
 0.5669016362D+00   11    2    0
 0.120586720968843D+03 0.000000000000000D+00 0.000000000000000D+00 0.120586720968843D+03
 0.120586720968843D+03 0.000000000000000D+00 0.000000000000000D+00 -.120586720968843D+03
 0.139572609240893D+03 0.593941485150608D+02 -.168767741990211D+02 -.655918174143758D+01
 0.101600832696792D+03 -.593941485150608D+02 0.168767741990211D+02 0.655918174143758D+01
 0.000000000000000D+00 0.000000000000000D+00 0.000000000000000D+00 -.000000000000000D+00
 0.122362135811096D+03 0.000000000000000D+00 0.000000000000000D+00 0.122362135811096D+03
 0.124284429476640D+03 0.000000000000000D+00 0.000000000000000D+00 -.124284429476640D+03
 0.138387931738365D+03 0.564836431731455D+02 -.171112489197607D+02 -.655918174143758D+01
 0.102838743996105D+03 -.615348209931303D+02 0.167043183803487D+02 0.655918174143758D+01
 0.541988955326604D+01 0.505117781998474D+01 0.406930539411998D+00 -.192229366554396D+01
0.165707588273D-03 0.000000000000D+00 0.000000000000D+00 0.276511358519D-02 0.000000000000D+00  5 -1 2 25 24 21 0 0.41466893D-02 0.82998598D-01 0.14497037D+05 0.14497037D+05 0.14497037D+05 0.12495147D+01  1  2  2  2  5  2        2 0.235567203080D+00 0.100000000000D+01
-.920595128694D-05 0.000000000000D+00 -.636360770780D-06 0.276511358519D-02 0.000000000000D+00  5 -1 2 25 24 21 2 0.41466893D-02 0.82998598D-01 0.14497037D+05 0.14497037D+05 0.14497037D+05 0.12495147D+01  1  2  3  2  5  2        2 -.204326084698D-01 0.100000000000D+01
0.114612712110D-04 0.000000000000D+00 0.000000000000D+00 0.276511358519D-02 0.000000000000D+00  5 -1 2 25 24 21 2 0.41466893D-02 0.82998598D-01 0.14497037D+05 0.14497037D+05 0.14497037D+05 0.12495147D+01  1  2 15  2  5  2        2 0.254382909405D-01 0.100000000000D+01
0.172837710684D-03 0.000000000000D+00 0.000000000000D+00 0.276511358519D-02 0.000000000000D+00  5 -1 2 25 24 21 2 0.41466893D-02 0.86140675D-01 0.15120305D+05 0.15120305D+05 0.15120305D+05 0.12474272D+01  1  2 12  2  5  2        2 0.367468664506D+00 0.100000000000D+01
-.743586991301D-03 0.000000000000D+00 0.000000000000D+00 0.276511358519D-02 0.000000000000D+00  5 -1 2 25 24 21 2 0.41466893D-02 0.82998598D-01 0.14497037D+05 0.14497037D+05 0.14497037D+05 0.12495147D+01  1  2  4  2  5  2        2 -.165039129395D+01 0.100000000000D+01
-.427005984503D-02 0.000000000000D+00 -.593490869706D-03 0.276511358519D-02 0.000000000000D+00  5 -1 2 25 24 21 2 0.41466893D-02 0.86525361D-01 0.14497037D+05 0.14497037D+05 0.14497037D+05 0.12495147D+01  1  2  5  2  5  2        2 -.904911383751D+01 0.100000000000D+01
0.429155438125D-02 0.000000000000D+00 0.592977362763D-03 0.276511358519D-02 0.000000000000D+00  5 -1 2 25 24 21 2 0.41466893D-02 0.82998598D-01 0.14497037D+05 0.14497037D+05 0.14497037D+05 0.12495147D+01  1  2  6  2  5  2        2 0.952510475732D+01 0.100000000000D+01
0.581977076505D-03 0.000000000000D+00 0.000000000000D+00 0.276511358519D-02 0.894020557239D-03  5 -1 2 25 24 21 2 0.42077416D-02 0.85543693D-01 0.15120305D+05 0.15120305D+05 0.15120305D+05 0.12474272D+01  1  2 11  2  5  2        2 0.122052835723D+01 0.100000000000D+01
0.301181055772D-05 0.000000000000D+00 0.000000000000D+00 0.276511358519D-02 0.000000000000D+00  5 -1 21 25 24 -2 2 0.41466893D-02 0.86140675D-01 0.15120305D+05 0.15120305D+05 0.15120305D+05 0.12474272D+01  1  2 12  4  5  2        2 0.111781522266D-01 0.100000000000D+01
-.309673987217D-04 0.000000000000D+00 -.435494758996D-05 0.276511358519D-02 0.000000000000D+00  5 -1 21 25 24 -2 2 0.41466893D-02 0.86525361D-01 0.14497037D+05 0.14497037D+05 0.14497037D+05 0.12495147D+01  1  2  5  4  5  2        2 -.114137266153D+00 0.100000000000D+01
0.425198192196D-05 0.000000000000D+00 0.000000000000D+00 0.276511358519D-02 0.488700072240D-05  5 -1 21 25 24 -2 2 0.42077416D-02 0.85543693D-01 0.15120305D+05 0.15120305D+05 0.15120305D+05 0.12474272D+01  1  2 11  4  5  2        2 0.156912170179D-01 0.100000000000D+01
  </mgrwgt>
  </event>
  <event>
  4     66 0.45252658E-03 0.18041257E+03 0.75467711E-02 0.11043266E+00
       -3 -1    0    0    0  501 0.00000000E+00 0.00000000E+00 0.52035302E+03 0.52035326E+03 0.50000000E+00 0.0000E+00 0.9000E+01
        4 -1    0    0  501    0 0.00000000E+00 0.00000000E+00 -.93877833E+02 0.93890628E+02 0.15500000E+01 0.0000E+00 0.9000E+01
       25  1    1    2    0    0 -.13969552E+03 0.46354993E+02 0.40036584E+03 0.44450133E+03 0.12500000E+03 0.0000E+00 0.9000E+01
       24  1    1    2    0    0 0.13969552E+03 -.46354993E+02 0.26109353E+02 0.16974257E+03 0.80419002E+02 0.0000E+00 0.9000E+01
#aMCatNLO 1  0  0  1  2 0.14359792D+03 0.00000000D+00  -5  5  0 0.00000000D+00 0.00000000D+00 0.00000000D+00 0.00000000D+00 0.00000000D+00
  <mgrwgt>
 0.4565421886D-01    3    2    0
 0.221028544150763D+03 0.000000000000000D+00 0.000000000000000D+00 0.221028544150763D+03
 0.221028544150763D+03 0.000000000000000D+00 0.000000000000000D+00 -.221028544150763D+03
 0.231386690516898D+03 -.139695522041612D+03 0.463549934718404D+02 0.127480101388844D+03
 0.210670397784628D+03 0.139695522041612D+03 -.463549934718404D+02 -.127480101388844D+03
 0.000000000000000D+00 -.000000000000000D+00 -.000000000000000D+00 -.000000000000000D+00
 0.268213313438732D+03 0.000000000000000D+00 0.000000000000000D+00 0.268213313438732D+03
 0.376332042718331D+03 0.000000000000000D+00 0.000000000000000D+00 -.376332042718331D+03
 0.198102837707778D+03 -.716922651398010D+02 0.472099266774353D+02 0.127480101388844D+03
 0.266692634105550D+03 0.215278833763414D+03 -.454047642339511D+02 -.127480101388844D+03
 0.179749884343735D+03 -.143586568623613D+03 -.180516244348417D+01 -.108118729279598D+03
0.361124043255D-02 0.000000000000D+00 0.000000000000D+00 0.143677234304D-02 0.000000000000D+00  5 -3 4 25 24 21 0 0.80055314D-01 0.14443746D-01 0.32548695D+05 0.32548695D+05 0.32548695D+05 0.12111992D+01  1  2  2  1  5  1       -3 0.446335749193D-01 0.100000000000D+01
-.190567838336D-03 0.000000000000D+00 -.138681141224D-04 0.143677234304D-02 0.000000000000D+00  5 -3 4 25 24 21 2 0.80055314D-01 0.14443746D-01 0.32548695D+05 0.32548695D+05 0.32548695D+05 0.12111992D+01  1  2  3  1  5  1       -3 -.345530225317D-02 0.100000000000D+01
0.246858691016D-03 0.000000000000D+00 0.000000000000D+00 0.143677234304D-02 0.000000000000D+00  5 -3 4 25 24 21 2 0.80055314D-01 0.14443746D-01 0.32548695D+05 0.32548695D+05 0.32548695D+05 0.12111992D+01  1  2 15  1  5  1       -3 0.447594619705D-02 0.100000000000D+01
  </mgrwgt>
  </event>
  <event>
  4     66 0.45252658E-03 0.68879833E+02 0.75467711E-02 0.12178814E+00
       -1 -1    0    0    0  501 0.00000000E+00 0.00000000E+00 0.17972371E+03 0.17972399E+03 0.32000000E+00 0.0000E+00 0.9000E+01
        2 -1    0    0  501    0 0.00000000E+00 0.00000000E+00 -.95681684E+02 0.95682219E+02 0.32000000E+00 0.0000E+00 0.9000E+01
       25  1    1    2    0    0 -.24100544E+02 0.57930853E+02 -.50802262E+01 0.13995581E+03 0.12500000E+03 0.0000E+00 0.9000E+01
       24  1    1    2    0    0 0.24100544E+02 -.57930853E+02 0.89122250E+02 0.13545040E+03 0.80419002E+02 0.0000E+00 0.9000E+01
#aMCatNLO 1  0  0  1  2 0.29560417D+02 0.00000000D+00  -5  5  0 0.00000000D+00 0.00000000D+00 0.00000000D+00 0.00000000D+00 0.00000000D+00
  <mgrwgt>
 0.3723853453D+00    9    2    0
 0.131134968311496D+03 0.000000000000000D+00 0.000000000000000D+00 0.131134968311496D+03
 0.131134968311496D+03 0.000000000000000D+00 0.000000000000000D+00 -.131134968311496D+03
 0.148593667855077D+03 -.241005444575094D+02 0.579308530433045D+02 -.501822493432846D+02
 0.113676268767916D+03 0.241005444575094D+02 -.579308530433045D+02 0.501822493432846D+02
 0.000000000000000D+00 -.000000000000000D+00 -.000000000000000D+00 0.000000000000000D+00
 0.154027976841919D+03 0.000000000000000D+00 0.000000000000000D+00 0.154027976841919D+03
 0.141866811384366D+03 0.000000000000000D+00 0.000000000000000D+00 -.141866811384366D+03
 0.147110234871810D+03 -.750508370437523D+01 0.586671694687737D+02 -.501822493432846D+02
 0.116820320219572D+03 0.370364477749779D+02 -.573569058518031D+02 0.501822493432846D+02
 0.319642331349029D+02 -.295313640706027D+02 -.131026361697057D+01 0.121611654575531D+02
0.509685537232D-03 0.000000000000D+00 0.000000000000D+00 0.226710216317D-02 0.000000000000D+00  5 -1 2 25 24 21 0 0.27649864D-01 0.14720322D-01 0.14624519D+05 0.14624519D+05 0.14624519D+05 0.12490796D+01  1  2  2  1  5  1       -1 0.257892213076D+00 0.100000000000D+01
-.280899829729D-04 0.000000000000D+00 -.195732666625D-05 0.226710216317D-02 0.000000000000D+00  5 -1 2 25 24 21 2 0.27649864D-01 0.14720322D-01 0.14624519D+05 0.14624519D+05 0.14624519D+05 0.12490796D+01  1  2  3  1  5  1       -1 -.221752042450D-01 0.100000000000D+01
0.351567684166D-04 0.000000000000D+00 0.000000000000D+00 0.226710216317D-02 0.000000000000D+00  5 -1 2 25 24 21 2 0.27649864D-01 0.14720322D-01 0.14624519D+05 0.14624519D+05 0.14624519D+05 0.12490796D+01  1  2 15  1  5  1       -1 0.277539691280D-01 0.100000000000D+01
0.480918054247D-03 0.000000000000D+00 0.000000000000D+00 0.226710216317D-02 0.000000000000D+00  5 -1 2 25 24 21 2 0.33455284D-01 0.14720322D-01 0.18678653D+05 0.18678653D+05 0.18678653D+05 0.12371075D+01  1  2 12  1  5  1       -1 0.272288726682D+00 0.100000000000D+01
-.475009595656D-03 0.000000000000D+00 0.000000000000D+00 0.226710216317D-02 0.000000000000D+00  5 -1 2 25 24 21 2 0.27649864D-01 0.14720322D-01 0.14624519D+05 0.14624519D+05 0.14624519D+05 0.12490796D+01  1  2  4  1  5  1       -1 -.374989006302D+00 0.100000000000D+01
-.102484895487D-02 0.000000000000D+00 -.288073099097D-03 0.226710216317D-02 0.000000000000D+00  5 -1 2 25 24 21 2 0.34887976D-01 0.14720322D-01 0.14624519D+05 0.14624519D+05 0.14624519D+05 0.12490796D+01  1  2  5  1  5  1       -1 -.547051432042D+00 0.100000000000D+01
0.107038162712D-02 0.000000000000D+00 0.280457247941D-03 0.226710216317D-02 0.000000000000D+00  5 -1 2 25 24 21 2 0.27649864D-01 0.14720322D-01 0.14624519D+05 0.14624519D+05 0.14624519D+05 0.12490796D+01  1  2  6  1  5  1       -1 0.844996282997D+00 0.100000000000D+01
0.132606428103D-04 0.000000000000D+00 0.000000000000D+00 0.226710216317D-02 0.000000000000D+00  5 21 2 25 24 1 2 0.33455284D-01 0.14720322D-01 0.18678653D+05 0.18678653D+05 0.18678653D+05 0.12371075D+01  1  2 12  3  5  1       -1 0.845447928440D-01 0.100000000000D+01
-.285857125894D-04 0.000000000000D+00 -.923890188017D-05 0.226710216317D-02 0.000000000000D+00  5 21 2 25 24 1 2 0.34887976D-01 0.14720322D-01 0.14624519D+05 0.14624519D+05 0.14624519D+05 0.12490796D+01  1  2  5  3  5  1       -1 -.170874996813D+00 0.100000000000D+01
  </mgrwgt>
  </event>
  <event>
  4     66 0.45252658E-03 0.13096819E+03 0.75467711E-02 0.10981535E+00
       -1 -1    0    0    0  501 0.00000000E+00 0.00000000E+00 0.23221420E+02 0.23223625E+02 0.32000000E+00 0.0000E+00 0.9000E+01
        2 -1    0    0  501    0 0.00000000E+00 0.00000000E+00 -.80550124E+03 0.80550131E+03 0.32000000E+00 0.0000E+00 0.9000E+01
       25  1    1    2    0    0 0.13317635E+02 -.78960637E+02 -.55743178E+03 0.57685989E+03 0.12500000E+03 0.0000E+00 0.9000E+01
       24  1    1    2    0    0 -.13317635E+02 0.78960637E+02 -.22484804E+03 0.25186504E+03 0.80419002E+02 0.0000E+00 0.9000E+01
#aMCatNLO 1  0  0  2  2 0.21499102D+03 0.00000000D+00  -5  5  0 0.00000000D+00 0.00000000D+00 0.00000000D+00 0.00000000D+00 0.00000000D+00
  <mgrwgt>
 0.3777136254D+00    5    2    0
 0.136769231768188D+03 0.000000000000000D+00 0.000000000000000D+00 0.136769231768188D+03
 0.136769231768188D+03 0.000000000000000D+00 0.000000000000000D+00 -.136769231768188D+03
 0.153508713169149D+03 0.133176345954837D+02 -.789606371252670D+02 -.390868700768084D+02
 0.120029750367227D+03 -.133176345954837D+02 0.789606371252670D+02 0.390868700768084D+02
 0.000000000000000D+00 0.000000000000000D+00 0.000000000000000D+00 -.000000000000000D+00
 0.210427880637250D+03 0.000000000000000D+00 0.000000000000000D+00 0.210427880637250D+03
 0.490794832315857D+03 0.000000000000000D+00 0.000000000000000D+00 -.490794832315857D+03
 0.257174455909663D+03 0.115649010317363D+02 -.221025271007991D+03 -.390868700768084D+02
 0.907399424608244D+02 -.142171677213946D+02 0.605061426663568D+01 0.390868700768084D+02
 0.353308314582620D+03 0.265226668965829D+01 0.214974656741356D+03 -.280366951678607D+03
0.333941510322D-03 0.000000000000D+00 0.000000000000D+00 0.235041822569D-02 0.000000000000D+00  5 -1 2 25 24 21 0 0.35727007D-02 0.12392344D+00 0.17152667D+05 0.17152667D+05 0.17152667D+05 0.12412372D+01  1  2  2  2  5  2        2 0.372068836142D+00 0.100000000000D+01
-.185099350732D-04 0.000000000000D+00 -.128242332845D-05 0.235041822569D-02 0.000000000000D+00  5 -1 2 25 24 21 2 0.35727007D-02 0.12392344D+00 0.17152667D+05 0.17152667D+05 0.17152667D+05 0.12412372D+01  1  2  3  2  5  2        2 -.317736695157D-01 0.100000000000D+01
0.230197261942D-04 0.000000000000D+00 0.000000000000D+00 0.235041822569D-02 0.000000000000D+00  5 -1 2 25 24 21 2 0.35727007D-02 0.12392344D+00 0.17152667D+05 0.17152667D+05 0.17152667D+05 0.12412372D+01  1  2 15  2  5  2        2 0.395150587803D-01 0.100000000000D+01
-.273840953394D-04 0.000000000000D+00 -.133142492382D-03 0.235041822569D-02 0.000000000000D+00  5 -1 2 25 24 21 2 0.35727007D-02 0.50451019D+00 0.17152667D+05 0.17152667D+05 0.17152667D+05 0.12412372D+01  1  2  5  2  5  2        2 -.207006388849D-02 0.100000000000D+01
-.343339885840D-05 0.000000000000D+00 -.223573462743D-04 0.235041822569D-02 0.000000000000D+00  5 -1 21 25 24 -2 2 0.35727007D-02 0.50451019D+00 0.17152667D+05 0.17152667D+05 0.17152667D+05 0.12412372D+01  1  2  5  4  5  2        2 -.265361174320D-04 0.100000000000D+01
  </mgrwgt>
  </event>
  <event>
  4     66 0.45252658E-03 0.59400406E+02 0.75467711E-02 0.11925698E+00
       -1 -1    0    0    0  501 0.00000000E+00 0.00000000E+00 0.22670376E+02 0.22672634E+02 0.32000000E+00 0.0000E+00 0.9000E+01
        2 -1    0    0  501    0 0.00000000E+00 0.00000000E+00 -.89286023E+03 0.89286028E+03 0.32000000E+00 0.0000E+00 0.9000E+01
       25  1    1    2    0    0 0.94132925E+02 -.24215514E+02 -.49338676E+03 0.51817265E+03 0.12500000E+03 0.0000E+00 0.9000E+01
       24  1    1    2    0    0 -.94132925E+02 0.24215514E+02 -.37680309E+03 0.39736027E+03 0.80419002E+02 0.0000E+00 0.9000E+01
#aMCatNLO 1  0  0  2  1 0.27419628D+02 0.00000000D+00  -5  5  0 0.00000000D+00 0.00000000D+00 0.00000000D+00 0.00000000D+00 0.00000000D+00
  <mgrwgt>
 0.5356147223D+00    9    2    0
 0.142276269314417D+03 0.000000000000000D+00 0.000000000000000D+00 0.142276269314417D+03
 0.142276269314417D+03 0.000000000000000D+00 0.000000000000000D+00 -.142276269314417D+03
 0.158367821492721D+03 0.941329245414037D+02 -.242155135395898D+02 -.282281874137151D+01
 0.126184717136113D+03 -.941329245414037D+02 0.242155135395898D+02 0.282281874137151D+01
 0.000000000000000D+00 0.000000000000000D+00 -.000000000000000D+00 -.000000000000000D+00
 0.151718799131618D+03 0.000000000000000D+00 0.000000000000000D+00 0.151718799131618D+03
 0.164334352890020D+03 0.000000000000000D+00 0.000000000000000D+00 -.164334352890020D+03
 0.152064658128569D+03 0.857288738828049D+02 -.118849538870811D+02 -.282281874137151D+01
 0.133805912676439D+03 -.101171409774557D+03 0.345424934158833D+02 0.282281874137151D+01
 0.301825812166294D+02 0.154425358917525D+02 -.226575395288022D+02 -.126155537584021D+02
0.276993093758D-03 0.000000000000D+00 0.000000000000D+00 0.247703833318D-02 0.000000000000D+00  5 -1 2 25 24 21 0 0.34879282D-02 0.13736329D+00 0.20234465D+05 0.20234465D+05 0.20234465D+05 0.12332692D+01  1  2  2  2  5  2        2 0.281731111450D+00 0.100000000000D+01
-.153885044648D-04 0.000000000000D+00 -.106372641399D-05 0.247703833318D-02 0.000000000000D+00  5 -1 2 25 24 21 2 0.34879282D-02 0.13736329D+00 0.20234465D+05 0.20234465D+05 0.20234465D+05 0.12332692D+01  1  2  3  2  5  2        2 -.238055401784D-01 0.100000000000D+01
0.191288267881D-04 0.000000000000D+00 0.000000000000D+00 0.247703833318D-02 0.000000000000D+00  5 -1 2 25 24 21 2 0.34879282D-02 0.13736329D+00 0.20234465D+05 0.20234465D+05 0.20234465D+05 0.12332692D+01  1  2 15  2  5  2        2 0.295917030608D-01 0.100000000000D+01
0.417057761204D-03 0.000000000000D+00 0.000000000000D+00 0.247703833318D-02 0.000000000000D+00  5 -1 2 25 24 21 2 0.34879282D-02 0.16268251D+00 0.24528919D+05 0.24528919D+05 0.24528919D+05 0.12241844D+01  1  2 12  2  5  2        2 0.507293750918D+00 0.100000000000D+01
-.407182039754D-03 0.000000000000D+00 0.000000000000D+00 0.247703833318D-02 0.000000000000D+00  5 -1 2 25 24 21 2 0.34879282D-02 0.13736329D+00 0.20234465D+05 0.20234465D+05 0.20234465D+05 0.12332692D+01  1  2  4  2  5  2        2 -.629898014424D+00 0.100000000000D+01
-.980411224014D-03 0.000000000000D+00 -.228792153597D-03 0.247703833318D-02 0.000000000000D+00  5 -1 2 25 24 21 2 0.34879282D-02 0.16529295D+00 0.20234465D+05 0.20234465D+05 0.20234465D+05 0.12332692D+01  1  2  5  2  5  2        2 -.117797780968D+01 0.100000000000D+01
0.100928461679D-02 0.000000000000D+00 0.224928303563D-03 0.247703833318D-02 0.000000000000D+00  5 -1 2 25 24 21 2 0.34879282D-02 0.13736329D+00 0.20234465D+05 0.20234465D+05 0.20234465D+05 0.12332692D+01  1  2  6  2  5  2        2 0.156133206781D+01 0.100000000000D+01
0.104751859833D-04 0.000000000000D+00 0.000000000000D+00 0.247703833318D-02 0.000000000000D+00  5 -1 21 25 24 -2 2 0.34879282D-02 0.16268251D+00 0.24528919D+05 0.24528919D+05 0.24528919D+05 0.12241844D+01  1  2 12  4  5  2        2 0.101319180708D-01 0.100000000000D+01
-.241220411191D-04 0.000000000000D+00 -.616689168977D-05 0.247703833318D-02 0.000000000000D+00  5 -1 21 25 24 -2 2 0.34879282D-02 0.16529295D+00 0.20234465D+05 0.20234465D+05 0.20234465D+05 0.12332692D+01  1  2  5  4  5  2        2 -.227844646851D-01 0.100000000000D+01
  </mgrwgt>
  </event>
  <event>
  4     66 0.45252658E-03 0.10325290E+03 0.75467711E-02 0.12656827E+00
       -1 -1    0    0    0  501 0.00000000E+00 0.00000000E+00 0.86903317E+01 0.86962213E+01 0.32000000E+00 0.0000E+00 0.9000E+01
        2 -1    0    0  501    0 0.00000000E+00 0.00000000E+00 -.13269421E+04 0.13269421E+04 0.32000000E+00 0.0000E+00 0.9000E+01
       25  1    1    2    0    0 -.97217504E+01 0.34914897E+01 -.96984101E+03 0.97791783E+03 0.12500000E+03 0.0000E+00 0.9000E+01
       24  1    1    2    0    0 0.97217504E+01 -.34914897E+01 -.34841075E+03 0.35772052E+03 0.80419002E+02 0.0000E+00 0.9000E+01
#aMCatNLO 1  0  0  1  2 0.79004002D+01 0.00000000D+00  -5  5  0 0.00000000D+00 0.00000000D+00 0.00000000D+00 0.00000000D+00 0.00000000D+00
  <mgrwgt>
 0.5538349238D+00    6    2    0
 0.107403565407212D+03 0.000000000000000D+00 0.000000000000000D+00 0.107403565407212D+03
 0.107403565407212D+03 0.000000000000000D+00 0.000000000000000D+00 -.107403565407212D+03
 0.128719859728794D+03 -.972175036994878D+01 0.349148973058451D+01 -.289326693861110D+02
 0.860872710856310D+02 0.972175036994878D+01 -.349148973058451D+01 0.289326693861110D+02
 0.000000000000000D+00 -.000000000000000D+00 0.000000000000000D+00 -.000000000000000D+00
 0.107636062741085D+03 0.000000000000000D+00 0.000000000000000D+00 0.107636062741085D+03
 0.205075133666276D+03 0.000000000000000D+00 0.000000000000000D+00 -.205075133666276D+03
 0.128470396950372D+03 -.652253246787408D+01 0.102462558096432D-01 -.289326693861110D+02
 0.864819693367589D+02 0.118683581397581D+02 -.582733071431476D+01 0.289326693861110D+02
 0.977588301202301D+02 -.534582567188398D+01 0.581708445850512D+01 -.974390709251913D+02
0.244212244616D-03 0.000000000000D+00 0.000000000000D+00 0.290024657994D-02 0.000000000000D+00  5 -1 2 25 24 21 0 0.13374301D-02 0.20414539D+00 0.10661161D+05 0.10661161D+05 0.10661161D+05 0.12650904D+01  1  2  2  1  5  1       -1 0.546731647888D+00 0.100000000000D+01
-.135417235968D-04 0.000000000000D+00 -.937839321888D-06 0.290024657994D-02 0.000000000000D+00  5 -1 2 25 24 21 2 0.13374301D-02 0.20414539D+00 0.10661161D+05 0.10661161D+05 0.10661161D+05 0.12650904D+01  1  2  3  1  5  1       -1 -.485203378382D-01 0.100000000000D+01
0.166948063499D-04 0.000000000000D+00 0.000000000000D+00 0.290024657994D-02 0.000000000000D+00  5 -1 2 25 24 21 2 0.13374301D-02 0.20414539D+00 0.10661161D+05 0.10661161D+05 0.10661161D+05 0.12650904D+01  1  2 15  1  5  1       -1 0.598179130192D-01 0.100000000000D+01
-.134577275259D-05 0.000000000000D+00 0.000000000000D+00 0.290024657994D-02 0.000000000000D+00  5 -1 2 25 24 21 2 0.13374301D-02 0.20414539D+00 0.10661161D+05 0.10661161D+05 0.10661161D+05 0.12650904D+01  1  2  4  1  5  1       -1 -.482193777938D-02 0.100000000000D+01
0.105328014642D-07 0.000000000000D+00 0.000000000000D+00 0.290024657994D-02 0.479205638498D-03  5 -1 2 25 24 21 2 0.13403253D-02 0.38979287D+00 0.11509977D+05 0.11509977D+05 0.11509977D+05 0.12611518D+01  1  2 11  1  5  1       -1 0.900034915315D-05 0.100000000000D+01
0.323803773521D-07 0.000000000000D+00 0.000000000000D+00 0.290024657994D-02 0.256825922432D-06  5 21 2 25 24 1 2 0.13403253D-02 0.38979287D+00 0.11509977D+05 0.11509977D+05 0.11509977D+05 0.12611518D+01  1  2 11  3  5  1       -1 0.618638186303D-03 0.100000000000D+01
  </mgrwgt>
  </event>
  <event>
  4     66 0.45252658E-03 0.10895726E+03 0.75467711E-02 0.11573291E+00
       -1 -1    0    0    0  501 0.00000000E+00 0.00000000E+00 0.17472714E+02 0.17475644E+02 0.32000000E+00 0.0000E+00 0.9000E+01
        2 -1    0    0  501    0 0.00000000E+00 0.00000000E+00 -.11150714E+04 0.11150714E+04 0.32000000E+00 0.0000E+00 0.9000E+01
       25  1    1    2    0    0 -.26204803E+01 -.35499672E+02 -.26334807E+03 0.29367380E+03 0.12500000E+03 0.0000E+00 0.9000E+01
       24  1    1    2    0    0 0.26204803E+01 0.35499672E+02 -.83425060E+03 0.83887327E+03 0.80419002E+02 0.0000E+00 0.9000E+01
#aMCatNLO 1  0  0  1  2 0.13014815D+03 0.00000000D+00  -5  5  0 0.00000000D+00 0.00000000D+00 0.00000000D+00 0.00000000D+00 0.00000000D+00
  <mgrwgt>
 0.4296861742D+00    3    2    0
 0.139588712038190D+03 0.000000000000000D+00 0.000000000000000D+00 0.139588712038190D+03
 0.139588712038190D+03 0.000000000000000D+00 0.000000000000000D+00 -.139588712038190D+03
 0.155990081303500D+03 -.262048027972844D+01 -.354996723232160D+02 0.862601403495279D+02
 0.123187342772880D+03 0.262048027972844D+01 0.354996723232160D+02 -.862601403495279D+02
 0.000000000000000D+00 0.000000000000000D+00 0.000000000000000D+00 -.000000000000000D+00
 0.188625946665247D+03 0.000000000000000D+00 0.000000000000000D+00 0.188625946665247D+03
 0.276350221281079D+03 0.000000000000000D+00 0.000000000000000D+00 -.276350221281079D+03
 0.180966827751460D+03 -.685351234884841D+02 -.706124477817083D+02 0.862601403495279D+02
 0.127056832665652D+03 -.463316411810300D+02 0.942284378566681D+01 -.862601403495279D+02
 0.156952507529214D+03 0.114866764669514D+03 0.611896039960415D+02 -.877242746158324D+02
0.387961319900D-03 0.000000000000D+00 0.000000000000D+00 0.164388908246D-02 0.000000000000D+00  5 -1 2 25 24 21 0 0.26883388D-02 0.17154967D+00 0.11871684D+05 0.11871684D+05 0.11871684D+05 0.12595717D+01  1  2  2  1  5  1       -1 0.418390434463D+00 0.100000000000D+01
-.199449621807D-04 0.000000000000D+00 -.148987362098D-05 0.164388908246D-02 0.000000000000D+00  5 -1 2 25 24 21 2 0.26883388D-02 0.17154967D+00 0.11871684D+05 0.11871684D+05 0.11871684D+05 0.12595717D+01  1  2  3  1  5  1       -1 -.341249719183D-01 0.100000000000D+01
0.265469632794D-04 0.000000000000D+00 0.000000000000D+00 0.164388908246D-02 0.000000000000D+00  5 -1 2 25 24 21 2 0.26883388D-02 0.17154967D+00 0.11871684D+05 0.11871684D+05 0.11871684D+05 0.12595717D+01  1  2 15  1  5  1       -1 0.454207116673D-01 0.100000000000D+01
  </mgrwgt>
  </event>
  <event>
  4     66 0.45252658E-03 0.51198522E+02 0.75467711E-02 0.11922712E+00
       -1 -1    0    0    0  501 0.00000000E+00 0.00000000E+00 0.88078633E+02 0.88079214E+02 0.32000000E+00 0.0000E+00 0.9000E+01
        2 -1    0    0  501    0 0.00000000E+00 0.00000000E+00 -.20159880E+03 0.20159905E+03 0.32000000E+00 0.0000E+00 0.9000E+01
       25  1    1    2    0    0 -.79552080E+02 0.25123519E+02 -.56704572E+02 0.16062420E+03 0.12500000E+03 0.0000E+00 0.9000E+01
       24  1    1    2    0    0 0.79552080E+02 -.25123519E+02 -.56815590E+02 0.12905407E+03 0.80419002E+02 0.0000E+00 0.9000E+01
#aMCatNLO 1  0  0  1  2 0.43977916D+02 0.00000000D+00  -5  5  0 0.00000000D+00 0.00000000D+00 0.00000000D+00 0.00000000D+00 0.00000000D+00
  <mgrwgt>
 0.3640340299D+00    9    2    0
 0.133254145647931D+03 0.000000000000000D+00 0.000000000000000D+00 0.133254145647931D+03
 0.133254145647931D+03 0.000000000000000D+00 0.000000000000000D+00 -.133254145647931D+03
 0.150435194689785D+03 -.795520797969803D+02 0.251235187529807D+02 0.678404059517031D+01
 0.116073096606078D+03 0.795520797969803D+02 -.251235187529807D+02 -.678404059517031D+01
 0.000000000000000D+00 -.000000000000000D+00 0.000000000000000D+00 0.000000000000000D+00
 0.162539392551092D+03 0.000000000000000D+00 0.000000000000000D+00 0.162539392551092D+03
 0.152649316773514D+03 0.000000000000000D+00 0.000000000000000D+00 -.152649316773514D+03
 0.139129512811358D+03 -.558589791148699D+02 0.237859744507877D+02 0.678404059517031D+01
 0.130982920119900D+03 0.997669848830452D+02 -.262647088183930D+02 -.678404059517031D+01
 0.450762763933480D+02 -.439080057681754D+02 0.247873436760524D+01 0.989007577757804D+01
0.371659584928D-03 0.000000000000D+00 0.000000000000D+00 0.257208610688D-02 0.000000000000D+00  5 -1 2 25 24 21 0 0.13550623D-01 0.31015264D-01 0.17709864D+05 0.17709864D+05 0.17709864D+05 0.12396832D+01  1  2  2  1  5  1       -1 0.256933453343D+00 0.100000000000D+01
-.206477109992D-04 0.000000000000D+00 -.142727066634D-05 0.257208610688D-02 0.000000000000D+00  5 -1 2 25 24 21 2 0.13550623D-01 0.31015264D-01 0.17709864D+05 0.17709864D+05 0.17709864D+05 0.12396832D+01  1  2  3  1  5  1       -1 -.219365672867D-01 0.100000000000D+01
0.256503188738D-04 0.000000000000D+00 0.000000000000D+00 0.257208610688D-02 0.000000000000D+00  5 -1 2 25 24 21 2 0.13550623D-01 0.31015264D-01 0.17709864D+05 0.17709864D+05 0.17709864D+05 0.12396832D+01  1  2 15  1  5  1       -1 0.272514442846D-01 0.100000000000D+01
0.201644963628D-03 0.000000000000D+00 0.000000000000D+00 0.257208610688D-02 0.000000000000D+00  5 -1 2 25 24 21 2 0.17334597D-01 0.31015264D-01 0.24609617D+05 0.24609617D+05 0.24609617D+05 0.12240311D+01  1  2 12  1  5  1       -1 0.143193254270D+00 0.100000000000D+01
-.203569876020D-03 0.000000000000D+00 0.000000000000D+00 0.257208610688D-02 0.000000000000D+00  5 -1 2 25 24 21 2 0.13550623D-01 0.31015264D-01 0.17709864D+05 0.17709864D+05 0.17709864D+05 0.12396832D+01  1  2  4  1  5  1       -1 -.216276965666D+00 0.100000000000D+01
-.436357231124D-03 0.000000000000D+00 -.161759046594D-03 0.257208610688D-02 0.000000000000D+00  5 -1 2 25 24 21 2 0.18837818D-01 0.31015264D-01 0.17709864D+05 0.17709864D+05 0.17709864D+05 0.12396832D+01  1  2  5  1  5  1       -1 -.275995255588D+00 0.100000000000D+01
0.472188497363D-03 0.000000000000D+00 0.153361598232D-03 0.257208610688D-02 0.000000000000D+00  5 -1 2 25 24 21 2 0.13550623D-01 0.31015264D-01 0.17709864D+05 0.17709864D+05 0.17709864D+05 0.12396832D+01  1  2  6  1  5  1       -1 0.501663101774D+00 0.100000000000D+01
0.674900773090D-05 0.000000000000D+00 0.000000000000D+00 0.257208610688D-02 0.000000000000D+00  5 21 2 25 24 1 2 0.17334597D-01 0.31015264D-01 0.24609617D+05 0.24609617D+05 0.24609617D+05 0.12240311D+01  1  2 12  3  5  1       -1 0.632403547925D-01 0.100000000000D+01
-.138619159089D-04 0.000000000000D+00 -.668936127320D-05 0.257208610688D-02 0.000000000000D+00  5 21 2 25 24 1 2 0.18837818D-01 0.31015264D-01 0.17709864D+05 0.17709864D+05 0.17709864D+05 0.12396832D+01  1  2  5  3  5  1       -1 -.114038790006D+00 0.100000000000D+01
  </mgrwgt>
  </event>
  <event>
  4     66 0.45252658E-03 0.15259412E+03 0.75467711E-02 0.11005898E+00
       -1 -1    0    0    0  501 0.00000000E+00 0.00000000E+00 0.13546051E+02 0.13549830E+02 0.32000000E+00 0.0000E+00 0.9000E+01
        2 -1    0    0  501    0 0.00000000E+00 0.00000000E+00 -.19914804E+04 0.19914804E+04 0.32000000E+00 0.0000E+00 0.9000E+01
       25  1    1    2    0    0 0.28876713E+02 0.10784293E+03 -.70341089E+03 0.72310154E+03 0.12500000E+03 0.0000E+00 0.9000E+01
       24  1    1    2    0    0 -.28876713E+02 -.10784293E+03 -.12745235E+04 0.12819287E+04 0.80419002E+02 0.0000E+00 0.9000E+01
#aMCatNLO 1  0  0  1  2 0.18561507D+03 0.00000000D+00  -5  5  0 0.00000000D+00 0.00000000D+00 0.00000000D+00 0.00000000D+00 0.00000000D+00
  <mgrwgt>
 0.3708796051D+00    5    2    0
 0.164257449607681D+03 0.000000000000000D+00 0.000000000000000D+00 0.164257449607681D+03
 0.164257449607681D+03 0.000000000000000D+00 0.000000000000000D+00 -.164257449607681D+03
 0.178195605940167D+03 0.288767125291036D+02 0.107842927918297D+03 0.605368676750289D+02
 0.150319293275194D+03 -.288767125291036D+02 -.107842927918297D+03 -.605368676750289D+02
 0.000000000000000D+00 0.000000000000000D+00 -.000000000000000D+00 0.000000000000000D+00
 0.295467571141394D+03 0.000000000000000D+00 0.000000000000000D+00 0.295467571141394D+03
 0.269307944961940D+03 0.000000000000000D+00 0.000000000000000D+00 -.269307944961940D+03
 0.218030237303648D+03 -.637830950129777D+02 0.155496587812552D+03 0.605368676750289D+02
 0.159295872276177D+03 -.101282089768584D+03 -.706058419258775D+02 -.605368676750289D+02
 0.187449406523509D+03 0.165065184781562D+03 -.848907458866748D+02 0.261596261794543D+02
0.538759440362D-03 0.000000000000D+00 0.000000000000D+00 0.202036989602D-02 0.000000000000D+00  5 -1 2 25 24 21 0 0.20843006D-02 0.30638189D+00 0.23284965D+05 0.23284965D+05 0.23284965D+05 0.12266206D+01  1  2  2  1  5  1       -1 0.295199607465D+00 0.100000000000D+01
-.297336605335D-04 0.000000000000D+00 -.206897810961D-05 0.202036989602D-02 0.000000000000D+00  5 -1 2 25 24 21 2 0.20843006D-02 0.30638189D+00 0.23284965D+05 0.23284965D+05 0.23284965D+05 0.12266206D+01  1  2  3  1  5  1       -1 -.245126217530D-01 0.100000000000D+01
0.371713895749D-04 0.000000000000D+00 0.000000000000D+00 0.202036989602D-02 0.000000000000D+00  5 -1 2 25 24 21 2 0.20843006D-02 0.30638189D+00 0.23284965D+05 0.23284965D+05 0.23284965D+05 0.12266206D+01  1  2 15  1  5  1       -1 0.306443336049D-01 0.100000000000D+01
0.135863168587D-03 0.000000000000D+00 -.167965779945D-03 0.202036989602D-02 0.000000000000D+00  5 -1 2 25 24 21 2 0.73619363D-02 0.30638189D+00 0.23284965D+05 0.23284965D+05 0.23284965D+05 0.12266206D+01  1  2  5  1  5  1       -1 0.174432601269D-01 0.100000000000D+01
0.252412393462D-04 0.000000000000D+00 -.248344358484D-04 0.202036989602D-02 0.000000000000D+00  5 21 2 25 24 1 2 0.73619363D-02 0.30638189D+00 0.23284965D+05 0.23284965D+05 0.23284965D+05 0.12266206D+01  1  2  5  3  5  1       -1 0.521050256923D-01 0.100000000000D+01
  </mgrwgt>
  </event>
  <event>
  5     66 0.45252658E-03 0.16844293E+03 0.75467711E-02 0.11353557E+00
       21 -1    0    0  502  501 0.00000000E+00 0.00000000E+00 0.59746876E+02 0.59751583E+02 0.75000000E+00 0.0000E+00 0.9000E+01
        2 -1    0    0  501    0 0.00000000E+00 0.00000000E+00 -.94844220E+03 0.94844225E+03 0.32000000E+00 0.0000E+00 0.9000E+01
       25  1    1    2    0    0 -.11804118E+03 0.67269207E+02 -.29927053E+03 0.35163435E+03 0.12500000E+03 0.0000E+00 0.9000E+01
       24  1    1    2    0    0 0.14133726E+03 0.17489364E+02 -.20518495E+03 0.26239317E+03 0.80419002E+02 0.0000E+00 0.9000E+01
        1  1    1    2  502    0 -.23296079E+02 -.84758571E+02 -.38423984E+03 0.39416631E+03 0.32000000E+00 0.0000E+00 0.9000E+01
#aMCatNLO 2  0  0  1  2 0.87901778D+02 0.00000000D+00  -5  5  0 0.00000000D+00 0.00000000D+00 0.00000000D+00 0.00000000D+00 0.00000000D+00
  <mgrwgt>
 0.1058748027D+00    1    2    0
 0.169431214733573D+03 0.000000000000000D+00 0.000000000000000D+00 0.169431214733573D+03
 0.169431214733573D+03 0.000000000000000D+00 0.000000000000000D+00 -.169431214733573D+03
 0.182943754409379D+03 -.130500361143294D+03 0.219387213330697D+02 -.182144317819349D+02
 0.155918675057767D+03 0.130500361143294D+03 -.219387213330697D+02 0.182144317819349D+02
 0.000000000000000D+00 -.000000000000000D+00 -.000000000000000D+00 -.000000000000000D+00
 0.190896041392239D+03 0.000000000000000D+00 0.000000000000000D+00 0.190896041392239D+03
 0.296856626416942D+03 0.000000000000000D+00 0.000000000000000D+00 -.296856626416942D+03
 0.185514504491742D+03 -.118041177726802D+03 0.672692070158957D+02 -.182144317819349D+02
 0.164563299300174D+03 0.141337256785459D+03 0.174893636651147D+02 0.182144317819349D+02
 0.137674864017265D+03 -.232960790586564D+02 -.847585706810104D+02 -.105960585024703D+03
0.220409596755D-04 0.000000000000D+00 0.000000000000D+00 0.225889513382D-02 0.738671156238D-07  5 21 2 25 24 1 2 0.91921849D-02 0.14591442D+00 0.47539722D+05 0.47539722D+05 0.47539722D+05 0.11944581D+01  1  2  1  3  5  1       -1 0.105874802725D+00 0.100000000000D+01
  </mgrwgt>
  </event>
  <event>
  4     66 0.45252658E-03 0.11419373E+03 0.75467711E-02 0.11862431E+00
       -1 -1    0    0    0  501 0.00000000E+00 0.00000000E+00 0.41369519E+01 0.41493097E+01 0.32000000E+00 0.0000E+00 0.9000E+01
        2 -1    0    0  501    0 0.00000000E+00 0.00000000E+00 -.34850678E+04 0.34850678E+04 0.32000000E+00 0.0000E+00 0.9000E+01
       25  1    1    2    0    0 0.47500060E+02 0.11823586E+02 -.14810094E+04 0.14870810E+04 0.12500000E+03 0.0000E+00 0.9000E+01
       24  1    1    2    0    0 -.47500060E+02 -.11823586E+02 -.19999214E+04 0.20021361E+04 0.80419002E+02 0.0000E+00 0.9000E+01
#aMCatNLO 1  0  0  2  2 0.81724358D+02 0.00000000D+00  -5  5  0 0.00000000D+00 0.00000000D+00 0.00000000D+00 0.00000000D+00 0.00000000D+00
  <mgrwgt>
 0.6110592655D+00    3    2    0
 0.120162985050206D+03 0.000000000000000D+00 0.000000000000000D+00 0.120162985050206D+03
 0.120162985050206D+03 0.000000000000000D+00 0.000000000000000D+00 -.120162985050206D+03
 0.139215824079220D+03 0.475000597884327D+02 0.118235859838973D+02 0.368780803273839D+02
 0.101110146021192D+03 -.475000597884327D+02 -.118235859838973D+02 -.368780803273839D+02
 0.000000000000000D+00 0.000000000000000D+00 -.000000000000000D+00 0.000000000000000D+00
 0.274686576292782D+03 0.000000000000000D+00 0.000000000000000D+00 0.274686576292782D+03
 0.138220436786888D+03 0.000000000000000D+00 0.000000000000000D+00 -.138220436786888D+03
 0.144076859740860D+03 0.282581366483302D+02 0.545401358388371D+02 0.368780803273839D+02
 0.109764513114424D+03 -.618231758271789D+02 0.199733449097749D+02 -.368780803273839D+02
 0.159065640224385D+03 0.335650391788488D+02 -.745134807486120D+02 0.136466139505894D+03
0.137991898098D-02 0.000000000000D+00 0.000000000000D+00 0.255363820298D-02 0.000000000000D+00  5 -1 2 25 24 21 0 0.63740587D-03 0.53616523D+00 0.13040207D+05 0.13040207D+05 0.13040207D+05 0.12548147D+01  1  2  2  2  5  2        2 0.598229524887D+00 0.100000000000D+01
-.764201760360D-04 0.000000000000D+00 -.529925222799D-05 0.255363820298D-02 0.000000000000D+00  5 -1 2 25 24 21 2 0.63740587D-03 0.53616523D+00 0.13040207D+05 0.13040207D+05 0.13040207D+05 0.12548147D+01  1  2  3  2  5  2        2 -.521652761362D-01 0.100000000000D+01
0.952152656170D-04 0.000000000000D+00 0.000000000000D+00 0.255363820298D-02 0.000000000000D+00  5 -1 2 25 24 21 2 0.63740587D-03 0.53616523D+00 0.13040207D+05 0.13040207D+05 0.13040207D+05 0.12548147D+01  1  2 15  2  5  2        2 0.649950167736D-01 0.100000000000D+01
  </mgrwgt>
  </event>
  <event>
  4     66 0.45252658E-03 0.11719310E+03 0.75467711E-02 0.12085351E+00
       -1 -1    0    0    0  501 0.00000000E+00 0.00000000E+00 0.18368804E+02 0.18371591E+02 0.32000000E+00 0.0000E+00 0.9000E+01
        2 -1    0    0  501    0 0.00000000E+00 0.00000000E+00 -.79029419E+03 0.79029425E+03 0.32000000E+00 0.0000E+00 0.9000E+01
       25  1    1    2    0    0 0.50095479E+02 -.23668570E+02 -.35412947E+03 0.37960827E+03 0.12500000E+03 0.0000E+00 0.9000E+01
       24  1    1    2    0    0 -.50095479E+02 0.23668570E+02 -.41779592E+03 0.42905758E+03 0.80419002E+02 0.0000E+00 0.9000E+01
#aMCatNLO 1  0  0  2  2 0.47879279D+02 0.00000000D+00  -5  5  0 0.00000000D+00 0.00000000D+00 0.00000000D+00 0.00000000D+00 0.00000000D+00
  <mgrwgt>
 0.4014435464D+00    3    2    0
 0.120490298082899D+03 0.000000000000000D+00 0.000000000000000D+00 0.120490298082899D+03
 0.120490298082899D+03 0.000000000000000D+00 0.000000000000000D+00 -.120490298082899D+03
 0.139491379894749D+03 0.500954785375054D+02 -.236685698739185D+02 0.276240274971429D+02
 0.101489216271049D+03 -.500954785375054D+02 0.236685698739185D+02 -.276240274971429D+02
 0.000000000000000D+00 0.000000000000000D+00 -.000000000000000D+00 0.000000000000000D+00
 0.229144923414996D+03 0.000000000000000D+00 0.000000000000000D+00 0.229144923414996D+03
 0.128236940026892D+03 0.000000000000000D+00 0.000000000000000D+00 -.128236940026892D+03
 0.131235908013315D+03 0.268544675497330D+02 -.106589975859182D+02 0.276240274971429D+02
 0.114455103336399D+03 -.686335592146480D+02 0.340455926625121D+02 -.276240274971429D+02
 0.111690852092174D+03 0.417790916649150D+02 -.233865950765938D+02 0.100907983388105D+03
0.246886468327D-03 0.000000000000D+00 0.000000000000D+00 0.264777126881D-02 0.000000000000D+00  5 -1 2 25 24 21 0 0.28261892D-02 0.12158394D+00 0.13734224D+05 0.13734224D+05 0.13734224D+05 0.12522111D+01  1  2  2  2  5  2        2 0.393047742078D+00 0.100000000000D+01
-.137030764377D-04 0.000000000000D+00 -.948109045078D-06 0.264777126881D-02 0.000000000000D+00  5 -1 2 25 24 21 2 0.28261892D-02 0.12158394D+00 0.13734224D+05 0.13734224D+05 0.13734224D+05 0.12522111D+01  1  2  3  2  5  2        2 -.342074877140D-01 0.100000000000D+01
0.170663268856D-04 0.000000000000D+00 0.000000000000D+00 0.264777126881D-02 0.000000000000D+00  5 -1 2 25 24 21 2 0.28261892D-02 0.12158394D+00 0.13734224D+05 0.13734224D+05 0.13734224D+05 0.12522111D+01  1  2 15  2  5  2        2 0.426032920356D-01 0.100000000000D+01
  </mgrwgt>
  </event>
  <event>
  4     66 0.45252658E-03 0.14333218E+03 0.75467711E-02 0.12078661E+00
       -1 -1    0    0    0  501 0.00000000E+00 0.00000000E+00 0.74282603E+02 0.74283292E+02 0.32000000E+00 0.0000E+00 0.9000E+01
        2 -1    0    0  501    0 0.00000000E+00 0.00000000E+00 -.41538833E+03 0.41538845E+03 0.32000000E+00 0.0000E+00 0.9000E+01
       25  1    1    2    0    0 -.22359738E+02 0.96193473E+02 -.42253857E+02 0.16481362E+03 0.12500000E+03 0.0000E+00 0.9000E+01
       24  1    1    2    0    0 0.22359738E+02 -.96193473E+02 -.29885187E+03 0.32485812E+03 0.80419002E+02 0.0000E+00 0.9000E+01
#aMCatNLO 1  0  0  1  2 0.16057897D+01 0.00000000D+00  -5  5  0 0.00000000D+00 0.00000000D+00 0.00000000D+00 0.00000000D+00 0.00000000D+00
  <mgrwgt>
 0.3293739949D+00    6    2    0
 0.175659684984378D+03 0.000000000000000D+00 0.000000000000000D+00 0.175659684984378D+03
 0.175659684984378D+03 0.000000000000000D+00 0.000000000000000D+00 -.175659684984378D+03
 0.188693102479184D+03 -.223597384593862D+02 0.961934730934037D+02 0.101128357810637D+03
 0.162626267489573D+03 0.223597384593862D+02 -.961934730934037D+02 -.101128357810637D+03
 0.000000000000000D+00 -.000000000000000D+00 -.000000000000000D+00 -.000000000000000D+00
 0.176185387788050D+03 0.000000000000000D+00 0.000000000000000D+00 0.176185387788050D+03
 0.176892059445616D+03 0.000000000000000D+00 0.000000000000000D+00 -.176892059445616D+03
 0.188666427580692D+03 -.215090334400162D+02 0.963350280171259D+02 0.101128357810637D+03
 0.162656612193172D+03 0.230930438523023D+02 -.960714531374897D+02 -.101128357810637D+03
 0.175440745980322D+01 -.158401041228610D+01 -.263574879636205D+00 -.706671657566075D+00
0.630761333977D-03 0.000000000000D+00 0.000000000000D+00 0.155307325132D-02 0.000000000000D+00  5 -1 2 25 24 21 0 0.11428155D-01 0.63905959D-01 0.20544113D+05 0.20544113D+05 0.20544113D+05 0.12325447D+01  1  2  2  1  5  1       -1 0.263671421734D+00 0.100000000000D+01
-.332798895082D-04 0.000000000000D+00 -.242228960574D-05 0.155307325132D-02 0.000000000000D+00  5 -1 2 25 24 21 2 0.11428155D-01 0.63905959D-01 0.20544113D+05 0.20544113D+05 0.20544113D+05 0.12325447D+01  1  2  3  1  5  1       -1 -.211341726448D-01 0.100000000000D+01
0.431815736792D-04 0.000000000000D+00 0.000000000000D+00 0.155307325132D-02 0.000000000000D+00  5 -1 2 25 24 21 2 0.11428155D-01 0.63905959D-01 0.20544113D+05 0.20544113D+05 0.20544113D+05 0.12325447D+01  1  2 15  1  5  1       -1 0.274221713682D-01 0.100000000000D+01
-.384483397459D-02 0.000000000000D+00 0.000000000000D+00 0.155307325132D-02 0.000000000000D+00  5 -1 2 25 24 21 2 0.11428155D-01 0.63905959D-01 0.20544113D+05 0.20544113D+05 0.20544113D+05 0.12325447D+01  1  2  4  1  5  1       -1 -.244163626173D+01 0.100000000000D+01
0.384498510402D-02 0.000000000000D+00 0.000000000000D+00 0.155307325132D-02 0.487594774048D-02  5 -1 2 25 24 21 2 0.11462357D-01 0.64354304D-01 0.20775950D+05 0.20775950D+05 0.20775950D+05 0.12320103D+01  1  2 11  1  5  1       -1 0.241084543983D+01 0.100000000000D+01
0.985775907945D-05 0.000000000000D+00 0.000000000000D+00 0.155307325132D-02 0.273034677083D-05  5 21 2 25 24 1 2 0.11462357D-01 0.64354304D-01 0.20775950D+05 0.20775950D+05 0.20775950D+05 0.12320103D+01  1  2 11  3  5  1       -1 0.902053963720D-01 0.100000000000D+01
  </mgrwgt>
  </event>
  <event>
  4     66 0.45252658E-03 0.10693886E+03 0.75467711E-02 0.12222111E+00
       -1 -1    0    0    0  501 0.00000000E+00 0.00000000E+00 0.98388158E+01 0.98440183E+01 0.32000000E+00 0.0000E+00 0.9000E+01
        2 -1    0    0  501    0 0.00000000E+00 0.00000000E+00 -.14010789E+04 0.14010790E+04 0.32000000E+00 0.0000E+00 0.9000E+01
       25  1    1    2    0    0 0.15520360E+02 0.24642880E+02 -.10976418E+04 0.11051202E+04 0.12500000E+03 0.0000E+00 0.9000E+01
       24  1    1    2    0    0 -.15520360E+02 -.24642880E+02 -.29359835E+03 0.30580281E+03 0.80419002E+02 0.0000E+00 0.9000E+01
#aMCatNLO 1  0  0  2  2 0.48419474D+02 0.00000000D+00  -5  5  0 0.00000000D+00 0.00000000D+00 0.00000000D+00 0.00000000D+00 0.00000000D+00
  <mgrwgt>
 0.4539407142D+00    4    2    0
 0.117425097736271D+03 0.000000000000000D+00 0.000000000000000D+00 0.117425097736271D+03
 0.117425097736271D+03 0.000000000000000D+00 0.000000000000000D+00 -.117425097736271D+03
 0.136922173366127D+03 0.155203597078806D+02 0.246428795820733D+02 -.476920169393708D+02
 0.979280221064142D+02 -.155203597078806D+02 -.246428795820733D+02 0.476920169393708D+02
 0.000000000000000D+00 -.000000000000000D+00 -.000000000000000D+00 0.000000000000000D+00
 0.189646302896607D+03 0.000000000000000D+00 0.000000000000000D+00 0.189646302896607D+03
 0.128297657858408D+03 0.000000000000000D+00 0.000000000000000D+00 -.128297657858408D+03
 0.145717485203058D+03 0.264779574111333D+02 0.513125207477893D+02 -.476920169393708D+02
 0.940721303693927D+02 -.807674602520242D+01 -.652590620256053D+01 0.476920169393708D+02
 0.781543451825653D+02 -.184012113859308D+02 -.447866145452287D+02 0.613486450381991D+02
0.305808085795D-03 0.000000000000D+00 0.000000000000D+00 0.243296277930D-02 0.000000000000D+00  5 -1 2 25 24 21 0 0.15140670D-02 0.21555101D+00 0.11435919D+05 0.11435919D+05 0.11435919D+05 0.12614822D+01  1  2  2  2  5  2        2 0.525826946612D+00 0.100000000000D+01
-.168085855026D-04 0.000000000000D+00 -.117438357057D-05 0.243296277930D-02 0.000000000000D+00  5 -1 2 25 24 21 2 0.15140670D-02 0.21555101D+00 0.11435919D+05 0.11435919D+05 0.11435919D+05 0.12614822D+01  1  2  3  2  5  2        2 -.459925268273D-01 0.100000000000D+01
0.208473951254D-04 0.000000000000D+00 0.000000000000D+00 0.243296277930D-02 0.000000000000D+00  5 -1 2 25 24 21 2 0.15140670D-02 0.21555101D+00 0.11435919D+05 0.11435919D+05 0.11435919D+05 0.12614822D+01  1  2 15  2  5  2        2 0.570437280064D-01 0.100000000000D+01
-.303105969638D-04 0.000000000000D+00 0.000000000000D+00 0.243296277930D-02 0.000000000000D+00  5 -1 2 25 24 21 2 0.15140670D-02 0.21555101D+00 0.11435919D+05 0.11435919D+05 0.11435919D+05 0.12614822D+01  1  2  4  2  5  2        2 -.829374335985D-01 0.100000000000D+01
  </mgrwgt>
  </event>
  <event>
  4     66 0.45252658E-03 0.10680360E+03 0.75467711E-02 0.12076709E+00
       -1 -1    0    0    0  501 0.00000000E+00 0.00000000E+00 0.13957115E+02 0.13960782E+02 0.32000000E+00 0.0000E+00 0.9000E+01
        2 -1    0    0  501    0 0.00000000E+00 0.00000000E+00 -.11145379E+04 0.11145380E+04 0.32000000E+00 0.0000E+00 0.9000E+01
       25  1    1    2    0    0 0.22009498E+02 0.18329929E+02 -.91838296E+03 0.92729319E+03 0.12500000E+03 0.0000E+00 0.9000E+01
       24  1    1    2    0    0 -.22009498E+02 -.18329929E+02 -.18219783E+03 0.20120554E+03 0.80419002E+02 0.0000E+00 0.9000E+01
#aMCatNLO 1  0  0  2  2 0.65820475D+02 0.00000000D+00  -5  5  0 0.00000000D+00 0.00000000D+00 0.00000000D+00 0.00000000D+00 0.00000000D+00
  <mgrwgt>
 0.3013866721D+00    4    2    0
 0.124731025539656D+03 0.000000000000000D+00 0.000000000000000D+00 0.124731025539656D+03
 0.124731025539656D+03 0.000000000000000D+00 0.000000000000000D+00 -.124731025539656D+03
 0.143086089979333D+03 0.220094978332213D+02 0.183299289422645D+02 -.634682980366952D+02
 0.106375961099979D+03 -.220094978332213D+02 -.183299289422645D+02 0.634682980366952D+02
 0.000000000000000D+00 -.000000000000000D+00 -.000000000000000D+00 0.000000000000000D+00
 0.178881824704827D+03 0.000000000000000D+00 0.000000000000000D+00 0.178881824704827D+03
 0.150712506559369D+03 0.000000000000000D+00 0.000000000000000D+00 -.150712506559369D+03
 0.153643076614494D+03 0.278394228314911D+02 0.563731910778689D+02 -.634682980366952D+02
 0.104356244843929D+03 -.178691803528887D+02 0.868777424871345D+01 0.634682980366952D+02
 0.715950098057741D+02 -.997024247860244D+01 -.650609653265823D+02 0.281693181454576D+02
0.303242924516D-03 0.000000000000D+00 0.000000000000D+00 0.208839321304D-02 0.000000000000D+00  5 -1 2 25 24 21 0 0.21475341D-02 0.17146766D+00 0.11407009D+05 0.11407009D+05 0.11407009D+05 0.12616118D+01  1  2  2  2  5  2        2 0.451582212965D+00 0.100000000000D+01
-.163536507416D-04 0.000000000000D+00 -.116453267584D-05 0.208839321304D-02 0.000000000000D+00  5 -1 2 25 24 21 2 0.21475341D-02 0.17146766D+00 0.11407009D+05 0.11407009D+05 0.11407009D+05 0.12616118D+01  1  2  3  2  5  2        2 -.387625514331D-01 0.100000000000D+01
0.206694775478D-04 0.000000000000D+00 0.000000000000D+00 0.208839321304D-02 0.000000000000D+00  5 -1 2 25 24 21 2 0.21475341D-02 0.17146766D+00 0.11407009D+05 0.11407009D+05 0.11407009D+05 0.12616118D+01  1  2 15  2  5  2        2 0.489922219328D-01 0.100000000000D+01
-.676822804298D-04 0.000000000000D+00 0.000000000000D+00 0.208839321304D-02 0.000000000000D+00  5 -1 2 25 24 21 2 0.21475341D-02 0.17146766D+00 0.11407009D+05 0.11407009D+05 0.11407009D+05 0.12616118D+01  1  2  4  2  5  2        2 -.160425211332D+00 0.100000000000D+01
  </mgrwgt>
  </event>
  <event>
  4     66 0.45252658E-03 0.10332918E+03 0.75467711E-02 0.12296553E+00
       -1 -1    0    0    0  501 0.00000000E+00 0.00000000E+00 0.42321204E+03 0.42321216E+03 0.32000000E+00 0.0000E+00 0.9000E+01
        2 -1    0    0  501    0 0.00000000E+00 0.00000000E+00 -.25370688E+02 0.25372706E+02 0.32000000E+00 0.0000E+00 0.9000E+01
       25  1    1    2    0    0 -.96363173E+00 0.10991292E+02 0.22485469E+03 0.25750023E+03 0.12500000E+03 0.0000E+00 0.9000E+01
       24  1    1    2    0    0 0.96363173E+00 -.10991292E+02 0.17298666E+03 0.19108464E+03 0.80419002E+02 0.0000E+00 0.9000E+01
#aMCatNLO 1  0  0  2  1 0.45455527D+02 0.00000000D+00  -5  5  0 0.00000000D+00 0.00000000D+00 0.00000000D+00 0.00000000D+00 0.00000000D+00
  <mgrwgt>
 0.2859603706D+00    3    2    0
 0.103622682615175D+03 0.000000000000000D+00 0.000000000000000D+00 0.103622682615175D+03
 0.103622682615175D+03 0.000000000000000D+00 0.000000000000000D+00 -.103622682615175D+03
 0.125716744973218D+03 -.963631725087008D+00 0.109912917739422D+02 -.761333604273855D+01
 0.815286202571325D+02 0.963631725087008D+00 -.109912917739422D+02 0.761333604273855D+01
 0.000000000000000D+00 -.000000000000000D+00 0.000000000000000D+00 0.000000000000000D+00
 0.258747952701025D+03 0.000000000000000D+00 0.000000000000000D+00 0.258747952701025D+03
 0.109469493986244D+03 0.000000000000000D+00 0.000000000000000D+00 -.109469493986244D+03
 0.127185217958260D+03 0.217869752946696D+02 -.429470475118344D+01 -.761333604273855D+01
 0.849865199968919D+02 0.159430351067262D+02 -.210558631430203D+02 0.761333604273855D+01
 0.156045708732117D+03 -.377300104013958D+02 0.253505678942037D+02 0.149278458714781D+03
0.484976609339D-03 0.000000000000D+00 0.000000000000D+00 0.319629158998D-02 0.000000000000D+00  5 -1 2 25 24 21 0 0.65109709D-01 0.39033473D-02 0.10676920D+05 0.10676920D+05 0.10676920D+05 0.12650141D+01  1  2  2  2  5  2        2 0.279876154154D+00 0.100000000000D+01
-.269428814144D-04 0.000000000000D+00 -.186243787714D-05 0.319629158998D-02 0.000000000000D+00  5 -1 2 25 24 21 2 0.65109709D-01 0.39033473D-02 0.10676920D+05 0.10676920D+05 0.10676920D+05 0.12650141D+01  1  2  3  2  5  2        2 -.248816882714D-01 0.100000000000D+01
0.335311128885D-04 0.000000000000D+00 0.000000000000D+00 0.319629158998D-02 0.000000000000D+00  5 -1 2 25 24 21 2 0.65109709D-01 0.39033473D-02 0.10676920D+05 0.10676920D+05 0.10676920D+05 0.12650141D+01  1  2 15  2  5  2        2 0.309659047023D-01 0.100000000000D+01
  </mgrwgt>
  </event>
  <event>
  5     66 0.45252658E-03 0.20305158E+03 0.75467711E-02 0.11115593E+00
       -1 -1    0    0    0  501 0.00000000E+00 0.00000000E+00 0.36062709E+02 0.36064129E+02 0.32000000E+00 0.0000E+00 0.9000E+01
        2 -1    0    0  502    0 0.00000000E+00 0.00000000E+00 -.21858859E+04 0.21858859E+04 0.32000000E+00 0.0000E+00 0.9000E+01
       25  1    1    2    0    0 0.57446636E+02 -.17297129E+03 -.64174991E+03 0.67873937E+03 0.12500000E+03 0.0000E+00 0.9000E+01
       24  1    1    2    0    0 0.32216360E+02 0.17456475E+03 -.60308445E+03 0.63378925E+03 0.80419002E+02 0.0000E+00 0.9000E+01
       21  1    1    2  502  501 -.89662997E+02 -.15934575E+01 -.90498880E+03 0.90942140E+03 0.75000000E+00 0.0000E+00 0.9000E+01
#aMCatNLO 2  0  0  2  1 0.89677155D+02 0.00000000D+00  -5  5  0 0.00000000D+00 0.00000000D+00 0.00000000D+00 0.00000000D+00 0.00000000D+00
  <mgrwgt>
 0.4791740602D-01    2    2    0
 0.203148224839625D+03 0.000000000000000D+00 0.000000000000000D+00 0.203148224839625D+03
 0.203148224839625D+03 0.000000000000000D+00 0.000000000000000D+00 -.203148224839625D+03
 0.214418055098860D+03 0.996268145870809D+01 -.173815160223541D+03 0.625598968946499D+01
 0.191878394580391D+03 -.996268145870809D+01 0.173815160223541D+03 -.625598968946499D+01
 0.000000000000000D+00 -.000000000000000D+00 -.000000000000000D+00 -.000000000000000D+00
 0.221659154076950D+03 0.000000000000000D+00 0.000000000000000D+00 0.221659154076950D+03
 0.355636017195917D+03 0.000000000000000D+00 0.000000000000000D+00 -.355636017195917D+03
 0.221095729550451D+03 0.574466362000074D+02 -.172971293016372D+03 0.625598968946499D+01
 0.194979740894344D+03 0.322163604996939D+02 0.174564750491083D+03 -.625598968946499D+01
 0.161219700828072D+03 -.896629966997013D+02 -.159345747471094D+01 -.133976863118967D+03
-.997553270136D-03 0.000000000000D+00 0.000000000000D+00 0.215291870931D-02 0.000000000000D+00  5 -1 2 25 24 21 2 0.50848648D-02 0.33929696D+00 0.63898666D+05 0.63898666D+05 0.63898666D+05 0.11818742D+01  1  2 13  2  5  2        2 -.157687037877D+00 0.100000000000D+01
0.144811066066D-02 0.000000000000D+00 0.000000000000D+00 0.215291870931D-02 0.232919997021D-05  5 -1 2 25 24 21 2 0.55481993D-02 0.33628899D+00 0.63898666D+05 0.63898666D+05 0.63898666D+05 0.11818742D+01  1  2  1  2  5  2        2 0.205604443902D+00 0.100000000000D+01
  </mgrwgt>
  </event>
  <event>
  4     66 0.45252658E-03 0.14828283E+03 0.75467711E-02 0.96050861E-01
       -1 -1    0    0    0  501 0.00000000E+00 0.00000000E+00 0.95241255E+02 0.95241792E+02 0.32000000E+00 0.0000E+00 0.9000E+01
        2 -1    0    0  501    0 0.00000000E+00 0.00000000E+00 -.26611750E+03 0.26611769E+03 0.32000000E+00 0.0000E+00 0.9000E+01
       25  1    1    2    0    0 0.10503462E+03 0.12157403E+02 -.27702950E+02 0.16604977E+03 0.12500000E+03 0.0000E+00 0.9000E+01
       24  1    1    2    0    0 -.10503462E+03 -.12157403E+02 -.14317329E+03 0.19530971E+03 0.80419002E+02 0.0000E+00 0.9000E+01
#aMCatNLO 1  0  0  2  2 0.74208238D+03 0.00000000D+00  -5  5  0 0.00000000D+00 0.00000000D+00 0.00000000D+00 0.00000000D+00 0.00000000D+00
  <mgrwgt>
 0.4999363360D+00    3    2    0
 0.159202689120094D+03 0.000000000000000D+00 0.000000000000000D+00 0.159202689120094D+03
 0.159202689120094D+03 0.000000000000000D+00 0.000000000000000D+00 -.159202689120094D+03
 0.173583388491826D+03 0.105034621587311D+03 0.121574030319975D+02 0.576725114749838D+02
 0.144821989748362D+03 -.105034621587311D+03 -.121574030319975D+02 -.576725114749838D+02
 0.000000000000000D+00 0.000000000000000D+00 -.000000000000000D+00 0.000000000000000D+00
 0.971407710310617D+03 0.000000000000000D+00 0.000000000000000D+00 0.971407710310617D+03
 0.646280964307367D+03 0.000000000000000D+00 0.000000000000000D+00 -.646280964307367D+03
 0.224939464997086D+03 -.137606973882562D+03 0.112742915840539D+03 0.576725114749838D+02
 0.582567959918857D+03 -.547907737572654D+03 0.171432798780839D+03 -.576725114749838D+02
 0.810181249702041D+03 0.685514711455216D+03 -.284175714621378D+03 0.325126746003250D+03
0.107109877759D-02 0.000000000000D+00 0.000000000000D+00 0.205888126798D-02 0.000000000000D+00  5 -1 2 25 24 21 0 0.14652557D-01 0.40941209D-01 0.21987797D+05 0.21987797D+05 0.21987797D+05 0.12293212D+01  1  2  2  2  5  2        2 0.489804784253D+00 0.100000000000D+01
-.591401884029D-04 0.000000000000D+00 -.411330133275D-05 0.205888126798D-02 0.000000000000D+00  5 -1 2 25 24 21 2 0.14652557D-01 0.40941209D-01 0.21987797D+05 0.21987797D+05 0.21987797D+05 0.12293212D+01  1  2  3  2  5  2        2 -.408702146763D-01 0.100000000000D+01
0.738007886902D-04 0.000000000000D+00 0.000000000000D+00 0.205888126798D-02 0.000000000000D+00  5 -1 2 25 24 21 2 0.14652557D-01 0.40941209D-01 0.21987797D+05 0.21987797D+05 0.21987797D+05 0.12293212D+01  1  2 15  2  5  2        2 0.510017664553D-01 0.100000000000D+01
  </mgrwgt>
  </event>
  <event>
  5     66 0.45252658E-03 0.11654780E+03 0.75467711E-02 0.12245691E+00
       21 -1    0    0  502  501 0.00000000E+00 0.00000000E+00 0.30767089E+03 0.30767181E+03 0.75000000E+00 0.0000E+00 0.9000E+01
        2 -1    0    0  501    0 0.00000000E+00 0.00000000E+00 -.13750511E+03 0.13750549E+03 0.32000000E+00 0.0000E+00 0.9000E+01
       25  1    1    2    0    0 -.63152139E+02 -.33378888E+02 0.16328612E+03 0.21769175E+03 0.12500000E+03 0.0000E+00 0.9000E+01
       24  1    1    2    0    0 0.37004711E+02 0.20757920E+02 0.96910966E+02 0.13288789E+03 0.80419002E+02 0.0000E+00 0.9000E+01
        1  1    1    2  502    0 0.26147428E+02 0.12620968E+02 -.90031306E+02 0.94597649E+02 0.32000000E+00 0.0000E+00 0.9000E+01
#aMCatNLO 2  0  0  1  2 0.29034063D+02 0.00000000D+00  -5  5  0 0.00000000D+00 0.00000000D+00 0.00000000D+00 0.00000000D+00 0.00000000D+00
  <mgrwgt>
 0.6989862964D-01    1    2    0
 0.116576783671610D+03 0.000000000000000D+00 0.000000000000000D+00 0.116576783671610D+03
 0.116576783671610D+03 0.000000000000000D+00 0.000000000000000D+00 -.116576783671610D+03
 0.136215736980329D+03 -.475003410321876D+02 -.258240022204504D+02 0.256232555273422D+01
 0.969378303628912D+02 0.475003410321876D+02 0.258240022204504D+02 -.256232555273422D+01
 0.000000000000000D+00 0.000000000000000D+00 0.000000000000000D+00 -.000000000000000D+00
 0.118355380195040D+03 0.000000000000000D+00 0.000000000000000D+00 0.118355380195040D+03
 0.357453389890079D+03 0.000000000000000D+00 0.000000000000000D+00 -.357453389890079D+03
 0.143992736942414D+03 -.631521387219880D+02 -.333788878599590D+02 0.256232555273422D+01
 0.909616475413527D+02 0.370047105003743D+02 0.207579203585531D+02 -.256232555273422D+01
 0.240854385601353D+03 0.261474282216137D+02 0.126209675014059D+02 -.239098009695039D+03
0.330958935116D-04 0.000000000000D+00 0.000000000000D+00 0.285119235232D-02 0.172436223814D-06  5 21 2 25 24 1 2 0.47334040D-01 0.21154713D-01 0.17414702D+05 0.17414702D+05 0.17414702D+05 0.12404995D+01  1  2  1  3  5  1       -1 0.698986296386D-01 0.100000000000D+01
  </mgrwgt>
  </event>
  <event>
  4     66 0.45252658E-03 0.48449229E+02 0.75467711E-02 0.12508792E+00
       -1 -1    0    0    0  501 0.00000000E+00 0.00000000E+00 0.69768061E+01 0.69841408E+01 0.32000000E+00 0.0000E+00 0.9000E+01
        2 -1    0    0  501    0 0.00000000E+00 0.00000000E+00 -.16467672E+04 0.16467673E+04 0.32000000E+00 0.0000E+00 0.9000E+01
       25  1    1    2    0    0 0.15302839E+02 -.13877083E+02 -.11518711E+04 0.11588178E+04 0.12500000E+03 0.0000E+00 0.9000E+01
       24  1    1    2    0    0 -.15302839E+02 0.13877083E+02 -.48791934E+03 0.49493358E+03 0.80419002E+02 0.0000E+00 0.9000E+01
#aMCatNLO 1  0  0  1  2 0.20113391D+02 0.00000000D+00  -5  5  0 0.00000000D+00 0.00000000D+00 0.00000000D+00 0.00000000D+00 0.00000000D+00
  <mgrwgt>
 0.2707141995D+00    9    2    0
 0.107215979022637D+03 0.000000000000000D+00 0.000000000000000D+00 0.107215979022637D+03
 0.107215979022637D+03 0.000000000000000D+00 0.000000000000000D+00 -.107215979022637D+03
 0.128569568592751D+03 0.153028388324504D+02 -.138770829370609D+02 -.218719834709186D+02
 0.858623894525227D+02 -.153028388324504D+02 0.138770829370609D+02 0.218719834709186D+02
 0.000000000000000D+00 -.000000000000000D+00 -.000000000000000D+00 0.000000000000000D+00
 0.121213071224960D+03 0.000000000000000D+00 0.000000000000000D+00 0.121213071224960D+03
 0.115163574064570D+03 0.000000000000000D+00 0.000000000000000D+00 -.115163574064570D+03
 0.128873613298971D+03 0.221235335952606D+02 -.394636605499154D+01 -.218719834709186D+02
 0.864995817323206D+02 -.107362840473152D+02 0.205258429643977D+02 0.218719834709186D+02
 0.210034502582381D+02 -.113872495479454D+02 -.165794769094062D+02 0.604949716039011D+01
0.144328099738D-03 0.000000000000D+00 0.000000000000D+00 0.298523648533D-02 0.000000000000D+00  5 -1 2 25 24 21 0 0.10739214D-02 0.25334937D+00 0.10996187D+05 0.10996187D+05 0.10996187D+05 0.12634950D+01  1  2  2  1  5  1       -1 0.301984225800D+00 0.100000000000D+01
-.801342594501D-05 0.000000000000D+00 -.554257905456D-06 0.298523648533D-02 0.000000000000D+00  5 -1 2 25 24 21 2 0.10739214D-02 0.25334937D+00 0.10996187D+05 0.10996187D+05 0.10996187D+05 0.12634950D+01  1  2  3  1  5  1       -1 -.267669346476D-01 0.100000000000D+01
0.994976043465D-05 0.000000000000D+00 0.000000000000D+00 0.298523648533D-02 0.000000000000D+00  5 -1 2 25 24 21 2 0.10739214D-02 0.25334937D+00 0.10996187D+05 0.10996187D+05 0.10996187D+05 0.12634950D+01  1  2 15  1  5  1       -1 0.332347973440D-01 0.100000000000D+01
0.147153314731D-03 0.000000000000D+00 0.000000000000D+00 0.298523648533D-02 0.000000000000D+00  5 -1 2 25 24 21 2 0.12497641D-02 0.25334937D+00 0.13317864D+05 0.13317864D+05 0.13317864D+05 0.12537548D+01  1  2 12  1  5  1       -1 0.392431002273D+00 0.100000000000D+01
-.137402523006D-03 0.000000000000D+00 0.000000000000D+00 0.298523648533D-02 0.000000000000D+00  5 -1 2 25 24 21 2 0.10739214D-02 0.25334937D+00 0.10996187D+05 0.10996187D+05 0.10996187D+05 0.12634950D+01  1  2  4  1  5  1       -1 -.458960297250D+00 0.100000000000D+01
-.356887615244D-03 0.000000000000D+00 -.941579656798D-04 0.298523648533D-02 0.000000000000D+00  5 -1 2 25 24 21 2 0.13152359D-02 0.25334937D+00 0.10996187D+05 0.10996187D+05 0.10996187D+05 0.12634950D+01  1  2  5  1  5  1       -1 -.894008481219D+00 0.100000000000D+01
0.370242966036D-03 0.000000000000D+00 0.922562023835D-04 0.298523648533D-02 0.000000000000D+00  5 -1 2 25 24 21 2 0.10739214D-02 0.25334937D+00 0.10996187D+05 0.10996187D+05 0.10996187D+05 0.12634950D+01  1  2  6  1  5  1       -1 0.123670816248D+01 0.100000000000D+01
0.338632244068D-05 0.000000000000D+00 0.000000000000D+00 0.298523648533D-02 0.000000000000D+00  5 21 2 25 24 1 2 0.12497641D-02 0.25334937D+00 0.13317864D+05 0.13317864D+05 0.13317864D+05 0.12537548D+01  1  2 12  3  5  1       -1 0.203750647221D+00 0.100000000000D+01
-.920876502103D-05 0.000000000000D+00 -.272231417833D-05 0.298523648533D-02 0.000000000000D+00  5 21 2 25 24 1 2 0.13152359D-02 0.25334937D+00 0.10996187D+05 0.10996187D+05 0.10996187D+05 0.12634950D+01  1  2  5  3  5  1       -1 -.517658922497D+00 0.100000000000D+01
  </mgrwgt>
  </event>
  <event>
  5     66 0.45252658E-03 0.10723720E+03 0.75467711E-02 0.12288655E+00
       21 -1    0    0  502  501 0.00000000E+00 0.00000000E+00 0.13587462E+02 0.13608145E+02 0.75000000E+00 0.0000E+00 0.9000E+01
        2 -1    0    0  501    0 0.00000000E+00 0.00000000E+00 -.15681592E+04 0.15681592E+04 0.32000000E+00 0.0000E+00 0.9000E+01
       25  1    1    2    0    0 0.38563278E+02 -.83155657E+01 -.11445039E+04 0.11519854E+04 0.12500000E+03 0.0000E+00 0.9000E+01
       24  1    1    2    0    0 -.19663418E+02 -.26913520E+02 -.24724944E+03 0.26212686E+03 0.80419002E+02 0.0000E+00 0.9000E+01
        1  1    1    2  502    0 -.18899859E+02 0.35229086E+02 -.16281840E+03 0.16765508E+03 0.32000000E+00 0.0000E+00 0.9000E+01
#aMCatNLO 2  0  0  1  2 0.39978659D+02 0.00000000D+00  -5  5  0 0.00000000D+00 0.00000000D+00 0.00000000D+00 0.00000000D+00 0.00000000D+00
  <mgrwgt>
 0.6716963246D-01    2    2    0
 0.123630430970055D+03 0.000000000000000D+00 0.000000000000000D+00 0.123630430970055D+03
 0.123630430970055D+03 0.000000000000000D+00 0.000000000000000D+00 -.123630430970055D+03
 0.142148897608434D+03 0.276822473424184D+02 0.119665294729397D+02 -.605954160456004D+02
 0.105111964331676D+03 -.276822473424184D+02 -.119665294729397D+02 0.605954160456004D+02
 0.000000000000000D+00 -.000000000000000D+00 0.000000000000000D+00 0.000000000000000D+00
 0.152326377009089D+03 0.000000000000000D+00 0.000000000000000D+00 0.152326377009089D+03
 0.139985646009334D+03 0.000000000000000D+00 0.000000000000000D+00 -.139985646009334D+03
 0.144405953676094D+03 0.385632775878953D+02 -.831556570786620D+01 -.605954160456004D+02
 0.106066054787361D+03 -.196634181273004D+02 -.269135201264448D+02 0.605954160456004D+02
 0.418400145549665D+02 -.188998594605950D+02 0.352290858343110D+02 0.123407309997551D+02
-.423120362932D-05 0.000000000000D+00 0.000000000000D+00 0.214841364919D-02 0.000000000000D+00  5 21 2 25 24 1 2 0.21831865D-02 0.21306872D+00 0.16655051D+05 0.16655051D+05 0.16655051D+05 0.12426737D+01  1  2 13  3  5  1       -1 -.140315171972D+00 0.100000000000D+01
0.727625321580D-05 0.000000000000D+00 0.000000000000D+00 0.214841364919D-02 0.403013461871D-06  5 21 2 25 24 1 2 0.20919634D-02 0.24125583D+00 0.16655051D+05 0.16655051D+05 0.16655051D+05 0.12426737D+01  1  2  1  3  5  1       -1 0.207484804437D+00 0.100000000000D+01
  </mgrwgt>
  </event>
  <event>
  4     66 0.45252658E-03 0.48386712E+03 0.75467711E-02 0.94610742E-01
       -1 -1    0    0    0  501 0.00000000E+00 0.00000000E+00 0.34759941E+03 0.34759956E+03 0.32000000E+00 0.0000E+00 0.9000E+01
        2 -1    0    0  501    0 0.00000000E+00 0.00000000E+00 -.75626002E+03 0.75626009E+03 0.32000000E+00 0.0000E+00 0.9000E+01
       25  1    1    2    0    0 0.33483304E+03 -.33315237E+03 -.38862381E+03 0.62430532E+03 0.12500000E+03 0.0000E+00 0.9000E+01
       24  1    1    2    0    0 -.33483304E+03 0.33315237E+03 -.20036805E+02 0.47955433E+03 0.80419002E+02 0.0000E+00 0.9000E+01
#aMCatNLO 1  0  0  2  2 0.60753515D+03 0.00000000D+00  -5  5  0 0.00000000D+00 0.00000000D+00 0.00000000D+00 0.00000000D+00 0.00000000D+00
  <mgrwgt>
 0.4247904344D+00    3    2    0
 0.512714011292870D+03 0.000000000000000D+00 0.000000000000000D+00 0.512714011292870D+03
 0.512714011292870D+03 0.000000000000000D+00 0.000000000000000D+00 -.512714011292870D+03
 0.517179358369371D+03 0.334833040334798D+03 -.333152370279249D+03 -.169545928883083D+03
 0.508248664216370D+03 -.334833040334798D+03 0.333152370279249D+03 0.169545928883083D+03
 0.000000000000000D+00 0.000000000000000D+00 0.000000000000000D+00 0.000000000000000D+00
 0.115377277097878D+04 0.000000000000000D+00 0.000000000000000D+00 0.115377277097878D+04
 0.761362923991991D+03 0.000000000000000D+00 0.000000000000000D+00 -.761362923991991D+03
 0.779335189552605D+03 0.301995598025086D+03 -.686870566007627D+03 -.169545928883083D+03
 0.412554733347286D+03 -.358154667149203D+03 0.819365879891016D+02 0.169545928883083D+03
 0.723245772070875D+03 0.561590691241163D+02 0.604933978018526D+03 0.392409846986784D+03
0.270284844483D-01 0.000000000000D+00 0.000000000000D+00 0.172421525211D-02 0.000000000000D+00  5 -1 2 25 24 21 0 0.53476849D-01 0.11634771D+00 0.23412739D+06 0.23412739D+06 0.23412739D+06 0.11310854D+01  1  2  2  2  5  2        2 0.417730818473D+00 0.100000000000D+01
-.149546028843D-02 0.000000000000D+00 -.103796497045D-03 0.172421525211D-02 0.000000000000D+00  5 -1 2 25 24 21 2 0.53476849D-01 0.11634771D+00 0.23412739D+06 0.23412739D+06 0.23412739D+06 0.11310854D+01  1  2  3  2  5  2        2 -.295692639765D-01 0.100000000000D+01
0.185249911390D-02 0.000000000000D+00 0.000000000000D+00 0.172421525211D-02 0.000000000000D+00  5 -1 2 25 24 21 2 0.53476849D-01 0.11634771D+00 0.23412739D+06 0.23412739D+06 0.23412739D+06 0.11310854D+01  1  2 15  2  5  2        2 0.366288799101D-01 0.100000000000D+01
  </mgrwgt>
  </event>
  <event>
  5     66 0.45252658E-03 0.11494103E+03 0.75467711E-02 0.11362082E+00
       -1 -1    0    0    0  501 0.00000000E+00 0.00000000E+00 0.27078545E+03 0.27078564E+03 0.32000000E+00 0.0000E+00 0.9000E+01
        2 -1    0    0  502    0 0.00000000E+00 0.00000000E+00 -.65723853E+03 0.65723861E+03 0.32000000E+00 0.0000E+00 0.9000E+01
       25  1    1    2    0    0 0.13690892E+03 0.52766899E+01 0.19076595E+03 0.26606116E+03 0.12500000E+03 0.0000E+00 0.9000E+01
       24  1    1    2    0    0 0.15702237E+02 0.37135945E+02 -.34081272E+02 0.96199728E+02 0.80419002E+02 0.0000E+00 0.9000E+01
       21  1    1    2  502  501 -.15261116E+03 -.42412635E+02 -.54313776E+03 0.56576336E+03 0.75000000E+00 0.0000E+00 0.9000E+01
#aMCatNLO 2  0  0  2  2 0.15839506D+03 0.00000000D+00  -5  5  0 0.00000000D+00 0.00000000D+00 0.00000000D+00 0.00000000D+00 0.00000000D+00
  <mgrwgt>
 0.2286876983D+00    1    2    0
 0.142823202797350D+03 0.000000000000000D+00 0.000000000000000D+00 0.142823202797350D+03
 0.142823202797350D+03 0.000000000000000D+00 0.000000000000000D+00 -.142823202797350D+03
 0.158853133274794D+03 0.465711605245409D+02 -.198293543507448D+02 0.839478508637924D+02
 0.126793272319907D+03 -.465711605245409D+02 0.198293543507448D+02 -.839478508637924D+02
 0.000000000000000D+00 -.000000000000000D+00 -.000000000000000D+00 -.000000000000000D+00
 0.170431821531694D+03 0.000000000000000D+00 0.000000000000000D+00 0.170431821531694D+03
 0.104423246097673D+04 0.000000000000000D+00 0.000000000000000D+00 -.104423246097673D+04
 0.203578332285683D+03 0.136908919561751D+03 0.527668987192431D+01 0.839478508637924D+02
 0.123045098633724D+03 0.157022365122073D+02 0.371359454878624D+02 -.839478508637924D+02
 0.888040851589020D+03 -.152611156073958D+03 -.424126353597867D+02 -.873800639445039D+03
0.533167971177D-02 0.000000000000D+00 0.000000000000D+00 0.169966075457D-02 0.193224917182D-05  5 -1 2 25 24 21 2 0.41659284D-01 0.10111355D+00 0.47049809D+05 0.47049809D+05 0.47049809D+05 0.11949064D+01  1  2  1  2  5  2        2 0.228687698296D+00 0.100000000000D+01
  </mgrwgt>
  </event>
  <event>
  4     66 0.45252658E-03 0.11612972E+03 0.75467711E-02 0.10755264E+00
       -1 -1    0    0    0  501 0.00000000E+00 0.00000000E+00 0.69775934E+02 0.69776668E+02 0.32000000E+00 0.0000E+00 0.9000E+01
        2 -1    0    0  501    0 0.00000000E+00 0.00000000E+00 -.33299823E+03 0.33299839E+03 0.32000000E+00 0.0000E+00 0.9000E+01
       25  1    1    2    0    0 -.48862921E+02 -.21001961E+02 -.15224636E+02 0.13669476E+03 0.12500000E+03 0.0000E+00 0.9000E+01
       24  1    1    2    0    0 0.48862921E+02 0.21001961E+02 -.24799766E+03 0.26608030E+03 0.80419002E+02 0.0000E+00 0.9000E+01
#aMCatNLO 1  0  0  1  2 0.27822861D+03 0.00000000D+00  -5  5  0 0.00000000D+00 0.00000000D+00 0.00000000D+00 0.00000000D+00 0.00000000D+00
  <mgrwgt>
 0.3516670135D+00    5    2    0
 0.152431760182036D+03 0.000000000000000D+00 0.000000000000000D+00 0.152431760182036D+03
 0.152431760182036D+03 0.000000000000000D+00 0.000000000000000D+00 -.152431760182036D+03
 0.167451241743315D+03 -.488629211723590D+02 -.210019613240257D+02 0.979094015732201D+02
 0.137412278620757D+03 0.488629211723590D+02 0.210019613240257D+02 -.979094015732201D+02
 0.000000000000000D+00 -.000000000000000D+00 -.000000000000000D+00 0.000000000000000D+00
 0.417006347727011D+03 0.000000000000000D+00 0.000000000000000D+00 0.417006347727011D+03
 0.298246532794384D+03 0.000000000000000D+00 0.000000000000000D+00 -.298246532794384D+03
 0.181403849404180D+03 0.862947327312261D+02 -.157900210599841D+02 0.979094015732201D+02
 0.231334478241349D+03 0.191727244516765D+03 0.265110856512719D+02 -.979094015732201D+02
 0.302514552875866D+03 -.278021977247991D+03 -.107210645912877D+02 0.118759814932628D+03
0.498203314416D-03 0.000000000000D+00 0.000000000000D+00 0.148639889764D-02 0.000000000000D+00  5 -1 2 25 24 21 0 0.10734827D-01 0.51230566D-01 0.13486112D+05 0.13486112D+05 0.13486112D+05 0.12531246D+01  1  2  2  1  5  1       -1 0.286732444003D+00 0.100000000000D+01
-.251880570412D-04 0.000000000000D+00 -.191323190730D-05 0.148639889764D-02 0.000000000000D+00  5 -1 2 25 24 21 2 0.10734827D-01 0.51230566D-01 0.13486112D+05 0.13486112D+05 0.13486112D+05 0.12531246D+01  1  2  3  1  5  1       -1 -.227642512979D-01 0.100000000000D+01
0.339524273271D-04 0.000000000000D+00 0.000000000000D+00 0.148639889764D-02 0.000000000000D+00  5 -1 2 25 24 21 2 0.10734827D-01 0.51230566D-01 0.13486112D+05 0.13486112D+05 0.13486112D+05 0.12531246D+01  1  2 15  1  5  1       -1 0.306852404924D-01 0.100000000000D+01
0.335581678194D-03 0.000000000000D+00 -.191817010383D-03 0.148639889764D-02 0.000000000000D+00  5 -1 2 25 24 21 2 0.55259662D-01 0.51230566D-01 0.13486112D+05 0.13486112D+05 0.13486112D+05 0.12531246D+01  1  2  5  1  5  1       -1 0.202814465751D-01 0.100000000000D+01
0.606031750576D-04 0.000000000000D+00 -.383664256865D-04 0.148639889764D-02 0.000000000000D+00  5 21 2 25 24 1 2 0.55259662D-01 0.51230566D-01 0.13486112D+05 0.13486112D+05 0.13486112D+05 0.12531246D+01  1  2  5  3  5  1       -1 0.367321337441D-01 0.100000000000D+01
  </mgrwgt>
  </event>
  <event>
  4     66 0.45252658E-03 0.65265508E+02 0.75467711E-02 0.12678856E+00
       -1 -1    0    0    0  501 0.00000000E+00 0.00000000E+00 0.47712447E+01 0.47819636E+01 0.32000000E+00 0.0000E+00 0.9000E+01
        2 -1    0    0  501    0 0.00000000E+00 0.00000000E+00 -.22597301E+04 0.22597302E+04 0.32000000E+00 0.0000E+00 0.9000E+01
       25  1    1    2    0    0 0.11087204E+02 0.10465473E+02 -.13771461E+04 0.13828914E+04 0.12500000E+03 0.0000E+00 0.9000E+01
       24  1    1    2    0    0 -.11087204E+02 -.10465473E+02 -.87781283E+03 0.88162069E+03 0.80419002E+02 0.0000E+00 0.9000E+01
#aMCatNLO 1  0  0  2  1 0.44585178D+01 0.00000000D+00  -5  5  0 0.00000000D+00 0.00000000D+00 0.00000000D+00 0.00000000D+00 0.00000000D+00
  <mgrwgt>
 0.7114737943D+00   11    2    0
 0.103893635764959D+03 0.000000000000000D+00 0.000000000000000D+00 0.103893635764959D+03
 0.103893635764959D+03 0.000000000000000D+00 0.000000000000000D+00 -.103893635764959D+03
 0.125930077117217D+03 0.110872041877172D+02 0.104654732495983D+02 -.965451039627701D+00
 0.818571944127005D+02 -.110872041877172D+02 -.104654732495983D+02 0.965451039627701D+00
 0.000000000000000D+00 -.000000000000000D+00 0.000000000000000D+00 -.000000000000000D+00
 0.105019963778740D+03 0.000000000000000D+00 0.000000000000000D+00 0.105019963778740D+03
 0.108425470672847D+03 0.000000000000000D+00 0.000000000000000D+00 -.108425470672847D+03
 0.126156534009547D+03 0.137541563089277D+02 0.100180917255623D+02 -.965451039627701D+00
 0.816785655062311D+02 -.935707643575074D+01 -.107557023783088D+02 0.965451039627701D+00
 0.561033493580873D+01 -.439707987317698D+01 0.737610652746553D+00 -.340550689410735D+01
0.117553081131D-03 0.000000000000D+00 0.000000000000D+00 0.320069166384D-02 0.000000000000D+00  5 -1 2 25 24 21 0 0.73486392D-03 0.34765162D+00 0.10792912D+05 0.10792912D+05 0.10792912D+05 0.12644563D+01  1  2  2  2  5  2        2 0.205467954814D+00 0.100000000000D+01
-.653072671326D-05 0.000000000000D+00 -.451434783979D-06 0.320069166384D-02 0.000000000000D+00  5 -1 2 25 24 21 2 0.73486392D-03 0.34765162D+00 0.10792912D+05 0.10792912D+05 0.10792912D+05 0.12644563D+01  1  2  3  2  5  2        2 -.182506886688D-01 0.100000000000D+01
0.812466473301D-05 0.000000000000D+00 0.000000000000D+00 0.320069166384D-02 0.000000000000D+00  5 -1 2 25 24 21 2 0.73486392D-03 0.34765162D+00 0.10792912D+05 0.10792912D+05 0.10792912D+05 0.12644563D+01  1  2 15  2  5  2        2 0.227050882837D-01 0.100000000000D+01
0.822567429384D-04 0.000000000000D+00 0.000000000000D+00 0.320069166384D-02 0.000000000000D+00  5 -1 2 25 24 21 2 0.73486392D-03 0.36464748D+00 0.11266147D+05 0.11266147D+05 0.11266147D+05 0.12622488D+01  1  2 12  2  5  2        2 0.201008544840D+00 0.100000000000D+01
-.668536385314D-03 0.000000000000D+00 0.000000000000D+00 0.320069166384D-02 0.000000000000D+00  5 -1 2 25 24 21 2 0.73486392D-03 0.34765162D+00 0.10792912D+05 0.10792912D+05 0.10792912D+05 0.12644563D+01  1  2  4  2  5  2        2 -.186828357208D+01 0.100000000000D+01
-.212339844672D-02 0.000000000000D+00 -.268172080348D-03 0.320069166384D-02 0.000000000000D+00  5 -1 2 25 24 21 2 0.73486392D-03 0.36423654D+00 0.10792912D+05 0.10792912D+05 0.10792912D+05 0.12644563D+01  1  2  5  2  5  2        2 -.521933269423D+01 0.100000000000D+01
0.213386932031D-02 0.000000000000D+00 0.267881135062D-03 0.320069166384D-02 0.000000000000D+00  5 -1 2 25 24 21 2 0.73486392D-03 0.34765162D+00 0.10792912D+05 0.10792912D+05 0.10792912D+05 0.12644563D+01  1  2  6  2  5  2        2 0.596328499644D+01 0.100000000000D+01
0.586501371261D-03 0.000000000000D+00 0.000000000000D+00 0.320069166384D-02 0.136953022402D-02  5 -1 2 25 24 21 2 0.74283070D-03 0.36281616D+00 0.11266147D+05 0.11266147D+05 0.11266147D+05 0.12622488D+01  1  2 11  2  5  2        2 0.143184388513D+01 0.100000000000D+01
0.126747762972D-05 0.000000000000D+00 0.000000000000D+00 0.320069166384D-02 0.000000000000D+00  5 -1 21 25 24 -2 2 0.73486392D-03 0.36464748D+00 0.11266147D+05 0.11266147D+05 0.11266147D+05 0.12622488D+01  1  2 12  4  5  2        2 0.802061857833D-03 0.100000000000D+01
-.171177463770D-04 0.000000000000D+00 -.218786924482D-05 0.320069166384D-02 0.000000000000D+00  5 -1 21 25 24 -2 2 0.73486392D-03 0.36423654D+00 0.10792912D+05 0.10792912D+05 0.10792912D+05 0.12644563D+01  1  2  5  4  5  2        2 -.109664342442D-01 0.100000000000D+01
0.500229633760D-05 0.000000000000D+00 0.000000000000D+00 0.320069166384D-02 0.103657352773D-04  5 -1 21 25 24 -2 2 0.74283070D-03 0.36281616D+00 0.11266147D+05 0.11266147D+05 0.11266147D+05 0.12622488D+01  1  2 11  4  5  2        2 0.319465211448D-02 0.100000000000D+01
  </mgrwgt>
  </event>
  <event>
  5     66 0.45252658E-03 0.15569137E+03 0.75467711E-02 0.11311787E+00
       -1 -1    0    0    0  501 0.00000000E+00 0.00000000E+00 0.20693238E+02 0.20695712E+02 0.32000000E+00 0.0000E+00 0.9000E+01
        2 -1    0    0  502    0 0.00000000E+00 0.00000000E+00 -.29291331E+04 0.29291331E+04 0.32000000E+00 0.0000E+00 0.9000E+01
       25  1    1    2    0    0 0.24420265E+02 0.17873109E+03 -.20287570E+04 0.20405933E+04 0.12500000E+03 0.0000E+00 0.9000E+01
       24  1    1    2    0    0 0.23872867E+02 -.71361319E+02 -.36472801E+03 0.38099355E+03 0.80419002E+02 0.0000E+00 0.9000E+01
       21  1    1    2  502  501 -.48293132E+02 -.10736977E+03 -.51495481E+03 0.52824191E+03 0.75000000E+00 0.0000E+00 0.9000E+01
#aMCatNLO 2  0  0  2  2 0.11773060D+03 0.00000000D+00  -5  5  0 0.00000000D+00 0.00000000D+00 0.00000000D+00 0.00000000D+00 0.00000000D+00
  <mgrwgt>
 0.2702598656D-01    1    2    0
 0.174249841311895D+03 0.000000000000000D+00 0.000000000000000D+00 0.174249841311895D+03
 0.174249841311895D+03 0.000000000000000D+00 0.000000000000000D+00 -.174249841311895D+03
 0.187388711305523D+03 -.391428594114896D+01 0.115735087209809D+03 -.779717710383290D+02
 0.161110971318267D+03 0.391428594114896D+01 -.115735087209809D+03 0.779717710383290D+02
 0.000000000000000D+00 -.000000000000000D+00 -.000000000000000D+00 0.000000000000000D+00
 0.270885871634687D+03 0.000000000000000D+00 0.000000000000000D+00 0.270885871634687D+03
 0.223770836875111D+03 0.000000000000000D+00 0.000000000000000D+00 -.223770836875111D+03
 0.232907167093814D+03 0.244202651402685D+02 0.178731088664762D+03 -.779717710383290D+02
 0.134941338042779D+03 0.238728668206692D+02 -.713613194196557D+02 0.779717710383290D+02
 0.126808203373204D+03 -.482931319609378D+02 -.107369769245106D+03 0.471150347595757D+02
0.208874570743D-03 0.000000000000D+00 0.000000000000D+00 0.183599575946D-02 0.107826299713D-05  5 -1 2 25 24 21 2 0.31837519D-02 0.45063396D+00 0.50026658D+05 0.50026658D+05 0.50026658D+05 0.11922588D+01  1  2  1  2  5  2        2 0.270259865606D-01 0.100000000000D+01
  </mgrwgt>
  </event>
  <event>
  4     66 0.45252658E-03 0.96742884E+02 0.75467711E-02 0.11753949E+00
       -1 -1    0    0    0  501 0.00000000E+00 0.00000000E+00 0.75419211E+01 0.75487067E+01 0.32000000E+00 0.0000E+00 0.9000E+01
        2 -1    0    0  501    0 0.00000000E+00 0.00000000E+00 -.38745752E+04 0.38745752E+04 0.32000000E+00 0.0000E+00 0.9000E+01
       25  1    1    2    0    0 0.23523663E+02 0.13342546E+03 -.20449496E+04 0.20532412E+04 0.12500000E+03 0.0000E+00 0.9000E+01
       24  1    1    2    0    0 -.23523663E+02 -.13342546E+03 -.18220837E+04 0.18288827E+04 0.80419002E+02 0.0000E+00 0.9000E+01
#aMCatNLO 1  0  0  2  1 0.28437569D+01 0.00000000D+00  -5  5  0 0.00000000D+00 0.00000000D+00 0.00000000D+00 0.00000000D+00 0.00000000D+00
  <mgrwgt>
 0.1539083714D+00    8    2    0
 0.170982272001241D+03 0.000000000000000D+00 0.000000000000000D+00 0.170982272001241D+03
 0.170982272001241D+03 0.000000000000000D+00 0.000000000000000D+00 -.170982272001241D+03
 0.184372233338232D+03 0.235236625503725D+02 0.133425456279674D+03 0.352212193205440D+01
 0.157592310664251D+03 -.235236625503725D+02 -.133425456279674D+03 -.352212193205440D+01
 0.000000000000000D+00 0.000000000000000D+00 0.000000000000000D+00 0.000000000000000D+00
 0.172639940992853D+03 0.000000000000000D+00 0.000000000000000D+00 0.172639940992853D+03
 0.172212176612962D+03 0.000000000000000D+00 0.000000000000000D+00 -.172212176612962D+03
 0.183317684526161D+03 0.227669117258127D+02 0.132097069791869D+03 0.352212193205440D+01
 0.158658683528623D+03 -.241745457783200D+02 -.134568004734309D+03 -.352212193205440D+01
 0.287574955103007D+01 0.140763405250734D+01 0.247093494243945D+01 0.427764379890564D+00
0.281977120547D-02 0.000000000000D+00 0.000000000000D+00 0.227468470923D-02 0.000000000000D+00  5 -1 2 25 24 21 0 0.11608185D-02 0.59608901D+00 0.29222455D+05 0.29222455D+05 0.29222455D+05 0.12160972D+01  1  2  2  2  5  2        2 0.278319137989D+00 0.100000000000D+01
-.156653947176D-03 0.000000000000D+00 -.108286638918D-04 0.227468470923D-02 0.000000000000D+00  5 -1 2 25 24 21 2 0.11608185D-02 0.59608901D+00 0.29222455D+05 0.29222455D+05 0.29222455D+05 0.12160972D+01  1  2  3  2  5  2        2 -.228668897855D-01 0.100000000000D+01
0.193117802123D-03 0.000000000000D+00 0.000000000000D+00 0.227468470923D-02 0.000000000000D+00  5 -1 2 25 24 21 2 0.11608185D-02 0.59608901D+00 0.29222455D+05 0.29222455D+05 0.29222455D+05 0.12160972D+01  1  2 15  2  5  2        2 0.281895450219D-01 0.100000000000D+01
0.996210901214D-05 0.000000000000D+00 0.000000000000D+00 0.227468470923D-02 0.000000000000D+00  5 -1 2 25 24 21 2 0.11608185D-02 0.60324209D+00 0.29712656D+05 0.29712656D+05 0.29712656D+05 0.12153373D+01  1  2 12  2  5  2        2 0.134234385611D-02 0.100000000000D+01
-.147897072374D-01 0.000000000000D+00 0.000000000000D+00 0.227468470923D-02 0.000000000000D+00  5 -1 2 25 24 21 2 0.11608185D-02 0.59608901D+00 0.29222455D+05 0.29222455D+05 0.29222455D+05 0.12160972D+01  1  2  4  2  5  2        2 -.215886424475D+01 0.100000000000D+01
0.147836853819D-01 0.000000000000D+00 0.000000000000D+00 0.227468470923D-02 0.221586953320D-02  5 -1 2 25 24 21 2 0.11720726D-02 0.60037678D+00 0.29712656D+05 0.29712656D+05 0.29712656D+05 0.12153373D+01  1  2 11  2  5  2        2 0.202744642519D+01 0.100000000000D+01
0.568421803463D-06 0.000000000000D+00 0.000000000000D+00 0.227468470923D-02 0.000000000000D+00  5 -1 21 25 24 -2 2 0.11608185D-02 0.60324209D+00 0.29712656D+05 0.29712656D+05 0.29712656D+05 0.12153373D+01  1  2 12  4  5  2        2 0.366079734987D-05 0.100000000000D+01
0.505920453787D-04 0.000000000000D+00 0.000000000000D+00 0.227468470923D-02 0.296000679171D-05  5 -1 21 25 24 -2 2 0.11720726D-02 0.60037678D+00 0.29712656D+05 0.29712656D+05 0.29712656D+05 0.12153373D+01  1  2 11  4  5  2        2 0.338393106043D-03 0.100000000000D+01
  </mgrwgt>
  </event>
  <event>
  4     66 0.45252658E-03 0.15318908E+03 0.75467711E-02 0.11066813E+00
       -1 -1    0    0    0  501 0.00000000E+00 0.00000000E+00 0.12496731E+04 0.12496731E+04 0.32000000E+00 0.0000E+00 0.9000E+01
        2 -1    0    0  501    0 0.00000000E+00 0.00000000E+00 -.18938521E+02 0.18941225E+02 0.32000000E+00 0.0000E+00 0.9000E+01
       25  1    1    2    0    0 -.11244554E+03 -.38318802E+00 0.73318466E+03 0.75221599E+03 0.12500000E+03 0.0000E+00 0.9000E+01
       24  1    1    2    0    0 0.11244554E+03 0.38318802E+00 0.49754992E+03 0.51639838E+03 0.80419002E+02 0.0000E+00 0.9000E+01
#aMCatNLO 1  0  0  1  1 0.17081110D+03 0.00000000D+00  -5  5  0 0.00000000D+00 0.00000000D+00 0.00000000D+00 0.00000000D+00 0.00000000D+00
  <mgrwgt>
 0.3825878577D+00    5    2    0
 0.153846356065072D+03 0.000000000000000D+00 0.000000000000000D+00 0.153846356065072D+03
 0.153846356065072D+03 0.000000000000000D+00 0.000000000000000D+00 -.153846356065072D+03
 0.168727735578792D+03 -.112445542361302D+03 -.383188023882716D+00 0.141386676726611D+02
 0.138964976551351D+03 0.112445542361302D+03 0.383188023882716D+00 -.141386676726611D+02
 0.000000000000000D+00 -.000000000000000D+00 -.000000000000000D+00 0.000000000000000D+00
 0.285055270517651D+03 0.000000000000000D+00 0.000000000000000D+00 0.285055270517651D+03
 0.242824051251899D+03 0.000000000000000D+00 0.000000000000000D+00 -.242824051251899D+03
 0.137500853664704D+03 -.420874287179571D+02 0.361971156154090D+02 0.141386676726611D+02
 0.214424190797838D+03 0.193639121504596D+03 0.425970227164721D+02 -.141386676726611D+02
 0.175954277307008D+03 -.151551692786639D+03 -.787941383318811D+02 0.422312192657517D+02
0.542750695815D-02 0.000000000000D+00 0.000000000000D+00 0.236133959471D-02 0.000000000000D+00  5 -1 2 25 24 21 0 0.19225761D+00 0.29138298D-02 0.23466895D+05 0.23466895D+05 0.23466895D+05 0.12262553D+01  1  2  2  1  5  1       -1 0.376531578348D+00 0.100000000000D+01
-.301521444077D-03 0.000000000000D+00 -.208430558147D-04 0.236133959471D-02 0.000000000000D+00  5 -1 2 25 24 21 2 0.19225761D+00 0.29138298D-02 0.23466895D+05 0.23466895D+05 0.23466895D+05 0.12262553D+01  1  2  3  1  5  1       -1 -.314543730597D-01 0.100000000000D+01
0.374796202018D-03 0.000000000000D+00 0.000000000000D+00 0.236133959471D-02 0.000000000000D+00  5 -1 2 25 24 21 2 0.19225761D+00 0.29138298D-02 0.23466895D+05 0.23466895D+05 0.23466895D+05 0.12262553D+01  1  2 15  1  5  1       -1 0.390983122136D-01 0.100000000000D+01
-.715044286154D-03 0.000000000000D+00 -.124686815779D-02 0.236133959471D-02 0.000000000000D+00  5 -1 2 25 24 21 2 0.43633603D+00 0.29138298D-02 0.23466895D+05 0.23466895D+05 0.23466895D+05 0.12262553D+01  1  2  5  1  5  1       -1 -.206761752376D-02 0.100000000000D+01
0.151791010507D-04 0.000000000000D+00 -.111059595120D-03 0.236133959471D-02 0.000000000000D+00  5 21 2 25 24 1 2 0.43633603D+00 0.29138298D-02 0.23466895D+05 0.23466895D+05 0.23466895D+05 0.12262553D+01  1  2  5  3  5  1       -1 0.479957680523D-03 0.100000000000D+01
  </mgrwgt>
  </event>
  <event>
  4     66 0.45252658E-03 0.10954773E+03 0.75467711E-02 0.12444096E+00
       -1 -1    0    0    0  501 0.00000000E+00 0.00000000E+00 0.96023812E+01 0.96077118E+01 0.32000000E+00 0.0000E+00 0.9000E+01
        2 -1    0    0  501    0 0.00000000E+00 0.00000000E+00 -.20127782E+04 0.20127783E+04 0.32000000E+00 0.0000E+00 0.9000E+01
       25  1    1    2    0    0 -.23086037E+02 0.29298528E+02 -.17358571E+04 0.17407517E+04 0.12500000E+03 0.0000E+00 0.9000E+01
       24  1    1    2    0    0 0.23086037E+02 -.29298528E+02 -.26731871E+03 0.28163429E+03 0.80419002E+02 0.0000E+00 0.9000E+01
#aMCatNLO 1  0  0  1  1 0.18951534D+02 0.00000000D+00  -5  5  0 0.00000000D+00 0.00000000D+00 0.00000000D+00 0.00000000D+00 0.00000000D+00
  <mgrwgt>
 0.2656503304D+00    4    2    0
 0.139042726531512D+03 0.000000000000000D+00 0.000000000000000D+00 0.139042726531512D+03
 0.139042726531512D+03 0.000000000000000D+00 0.000000000000000D+00 -.139042726531512D+03
 0.155508499812277D+03 -.230860371580911D+02 0.292985280359263D+02 -.846553285808300D+02
 0.122576953250746D+03 0.230860371580911D+02 -.292985280359263D+02 0.846553285808300D+02
 0.000000000000000D+00 0.000000000000000D+00 -.000000000000000D+00 -.000000000000000D+00
 0.143994682431666D+03 0.000000000000000D+00 0.000000000000000D+00 0.143994682431666D+03
 0.158760694971438D+03 0.000000000000000D+00 0.000000000000000D+00 -.158760694971438D+03
 0.158093385100523D+03 -.248064429102789D+02 0.398325764362917D+02 -.846553285808300D+02
 0.120637093732101D+03 0.217517759001956D+02 -.211288432673591D+02 0.846553285808300D+02
 0.240248985704794D+02 0.305466701008326D+01 -.187037331689325D+02 -.147660125397720D+02
0.446817434090D-03 0.000000000000D+00 0.000000000000D+00 0.167370571666D-02 0.000000000000D+00  5 -1 2 25 24 21 0 0.14777014D-02 0.30965860D+00 0.12000706D+05 0.12000706D+05 0.12000706D+05 0.12590211D+01  1  2  2  1  5  1       -1 0.388521455726D+00 0.100000000000D+01
-.231075443967D-04 0.000000000000D+00 -.171589659664D-05 0.167370571666D-02 0.000000000000D+00  5 -1 2 25 24 21 2 0.14777014D-02 0.30965860D+00 0.12000706D+05 0.12000706D+05 0.12000706D+05 0.12590211D+01  1  2  3  1  5  1       -1 -.318496540710D-01 0.100000000000D+01
0.304599358081D-04 0.000000000000D+00 0.000000000000D+00 0.167370571666D-02 0.000000000000D+00  5 -1 2 25 24 21 2 0.14777014D-02 0.30965860D+00 0.12000706D+05 0.12000706D+05 0.12000706D+05 0.12590211D+01  1  2 15  1  5  1       -1 0.419836223987D-01 0.100000000000D+01
-.964977861551D-04 0.000000000000D+00 0.000000000000D+00 0.167370571666D-02 0.000000000000D+00  5 -1 2 25 24 21 2 0.14777014D-02 0.30965860D+00 0.12000706D+05 0.12000706D+05 0.12000706D+05 0.12590211D+01  1  2  4  1  5  1       -1 -.133005093700D+00 0.100000000000D+01
  </mgrwgt>
  </event>
  <event>
  4     66 0.45252658E-03 0.14374311E+03 0.75467711E-02 0.11728584E+00
       -1 -1    0    0    0  501 0.00000000E+00 0.00000000E+00 0.10604778E+03 0.10604827E+03 0.32000000E+00 0.0000E+00 0.9000E+01
        2 -1    0    0  501    0 0.00000000E+00 0.00000000E+00 -.26563927E+03 0.26563946E+03 0.32000000E+00 0.0000E+00 0.9000E+01
       25  1    1    2    0    0 0.35836454E+00 0.99345488E+02 0.92322149E+01 0.15993714E+03 0.12500000E+03 0.0000E+00 0.9000E+01
       24  1    1    2    0    0 -.35836454E+00 -.99345488E+02 -.16882370E+03 0.21175059E+03 0.80419002E+02 0.0000E+00 0.9000E+01
#aMCatNLO 1  0  0  2  1 0.56832890D+02 0.00000000D+00  -5  5  0 0.00000000D+00 0.00000000D+00 0.00000000D+00 0.00000000D+00 0.00000000D+00
  <mgrwgt>
 0.2879123427D+00    4    2    0
 0.167840939862316D+03 0.000000000000000D+00 0.000000000000000D+00 0.167840939862316D+03
 0.167840939862316D+03 0.000000000000000D+00 0.000000000000000D+00 -.167840939862316D+03
 0.181481509399674D+03 0.358364535585927D+00 0.993454878397983D+02 0.862605580477896D+02
 0.154200370324959D+03 -.358364535585927D+00 -.993454878397983D+02 -.862605580477896D+02
 0.000000000000000D+00 0.000000000000000D+00 -.000000000000000D+00 0.000000000000000D+00
 0.230237051886350D+03 0.000000000000000D+00 0.000000000000000D+00 0.230237051886350D+03
 0.183686019535914D+03 0.000000000000000D+00 0.000000000000000D+00 -.183686019535914D+03
 0.186010698089263D+03 -.303104804255432D+02 0.103030921112604D+03 0.862605580477896D+02
 0.154448259477136D+03 -.261164535017318D+02 -.962501734176206D+02 -.862605580477896D+02
 0.734641138558650D+02 0.564269339272750D+02 -.678074769498299D+01 0.465510323504368D+02
0.995479045341D-03 0.000000000000D+00 0.000000000000D+00 0.172804828547D-02 0.000000000000D+00  5 -1 2 25 24 21 0 0.16315096D-01 0.40867632D-01 0.20662082D+05 0.20662082D+05 0.20662082D+05 0.12322719D+01  1  2  2  2  5  2        2 0.384534959530D+00 0.100000000000D+01
-.536891300750D-04 0.000000000000D+00 -.382290164976D-05 0.172804828547D-02 0.000000000000D+00  5 -1 2 25 24 21 2 0.16315096D-01 0.40867632D-01 0.20662082D+05 0.20662082D+05 0.20662082D+05 0.12322719D+01  1  2  3  2  5  2        2 -.314922137917D-01 0.100000000000D+01
0.683462199594D-04 0.000000000000D+00 0.000000000000D+00 0.172804828547D-02 0.000000000000D+00  5 -1 2 25 24 21 2 0.16315096D-01 0.40867632D-01 0.20662082D+05 0.20662082D+05 0.20662082D+05 0.12322719D+01  1  2 15  2  5  2        2 0.400895631539D-01 0.100000000000D+01
-.179383021104D-03 0.000000000000D+00 0.000000000000D+00 0.172804828547D-02 0.000000000000D+00  5 -1 2 25 24 21 2 0.16315096D-01 0.40867632D-01 0.20662082D+05 0.20662082D+05 0.20662082D+05 0.12322719D+01  1  2  4  2  5  2        2 -.105219966189D+00 0.100000000000D+01
  </mgrwgt>
  </event>
  <event>
  5     66 0.45252658E-03 0.15208582E+03 0.75467711E-02 0.11334657E+00
       -1 -1    0    0    0  502 0.00000000E+00 0.00000000E+00 0.37472753E+03 0.37472767E+03 0.32000000E+00 0.0000E+00 0.9000E+01
        2 -1    0    0  501    0 0.00000000E+00 0.00000000E+00 -.16996479E+03 0.16996509E+03 0.32000000E+00 0.0000E+00 0.9000E+01
       25  1    1    2    0    0 0.39294835E+02 0.43807564E+02 -.43574686E+02 0.14486870E+03 0.12500000E+03 0.0000E+00 0.9000E+01
       24  1    1    2    0    0 -.57314788E+02 -.15856256E+03 0.20095963E+03 0.27437030E+03 0.80419002E+02 0.0000E+00 0.9000E+01
       21  1    1    2  501  502 0.18019954E+02 0.11475500E+03 0.47377795E+02 0.12545376E+03 0.75000000E+00 0.0000E+00 0.9000E+01
#aMCatNLO 2  0  0  1  2 0.11616122D+03 0.00000000D+00  -5  5  0 0.00000000D+00 0.00000000D+00 0.00000000D+00 0.00000000D+00 0.00000000D+00
  <mgrwgt>
 0.4671565650D-01    1    2    0
 0.185403537928173D+03 0.000000000000000D+00 0.000000000000000D+00 0.185403537928173D+03
 0.185403537928173D+03 0.000000000000000D+00 0.000000000000000D+00 -.185403537928173D+03
 0.197751986274905D+03 0.481152100935300D+02 0.999776401115100D+02 -.105689385044379D+03
 0.173055089581441D+03 -.481152100935300D+02 -.999776401115100D+02 0.105689385044379D+03
 0.000000000000000D+00 0.000000000000000D+00 0.000000000000000D+00 0.000000000000000D+00
 0.252520760136440D+03 0.000000000000000D+00 0.000000000000000D+00 0.252520760136440D+03
 0.252216868113782D+03 0.000000000000000D+00 0.000000000000000D+00 -.252216868113782D+03
 0.173949512292743D+03 0.392948348895940D+02 0.438075640366339D+02 -.105689385044379D+03
 0.214626498858115D+03 -.573147884726106D+02 -.158562564841146D+03 0.105689385044379D+03
 0.116161617099364D+03 0.180199535830166D+02 0.114755000804512D+03 0.303892022658198D+00
0.448069548591D-03 0.000000000000D+00 0.000000000000D+00 0.153386240214D-02 0.948185757520D-06  5 -1 2 25 24 21 2 0.57650146D-01 0.26148338D-01 0.48647012D+05 0.48647012D+05 0.48647012D+05 0.11934635D+01  1  2  1  1  5  1       -1 0.467156564957D-01 0.100000000000D+01
  </mgrwgt>
  </event>
  <event>
  4     66 0.45252658E-03 0.56071418E+03 0.75467711E-02 0.93442343E-01
       -1 -1    0    0    0  501 0.00000000E+00 0.00000000E+00 0.24067303E+03 0.24067324E+03 0.32000000E+00 0.0000E+00 0.9000E+01
        2 -1    0    0  501    0 0.00000000E+00 0.00000000E+00 -.21061680E+04 0.21061680E+04 0.32000000E+00 0.0000E+00 0.9000E+01
       25  1    1    2    0    0 -.51080372E+03 0.20603524E+03 -.16600614E+04 0.17535107E+04 0.12500000E+03 0.0000E+00 0.9000E+01
       24  1    1    2    0    0 0.51080372E+03 -.20603524E+03 -.20543354E+03 0.59333053E+03 0.80419002E+02 0.0000E+00 0.9000E+01
#aMCatNLO 1  0  0  2  2 0.67386053D+03 0.00000000D+00  -5  5  0 0.00000000D+00 0.00000000D+00 0.00000000D+00 0.00000000D+00 0.00000000D+00
  <mgrwgt>
 0.1143612395D+00    3    2    0
 0.711967767590716D+03 0.000000000000000D+00 0.000000000000000D+00 0.711967767590716D+03
 0.711967767590716D+03 0.000000000000000D+00 0.000000000000000D+00 -.711967767590716D+03
 0.715183427225358D+03 -.510803718030604D+03 0.206035238588026D+03 -.438738392078805D+03
 0.708752107956075D+03 0.510803718030604D+03 -.206035238588026D+03 0.438738392078805D+03
 0.000000000000000D+00 -.000000000000000D+00 -.000000000000000D+00 0.000000000000000D+00
 0.133550822092311D+04 0.000000000000000D+00 0.000000000000000D+00 0.133550822092311D+04
 0.994884684147633D+03 0.000000000000000D+00 0.000000000000000D+00 -.994884684147633D+03
 0.557423895486956D+03 -.225674528773398D+03 0.227323623143004D+03 -.438738392078805D+03
 0.101791112432340D+04 0.897664675651674D+03 -.177151332115317D+03 0.438738392078805D+03
 0.755057885260386D+03 -.671990146878276D+03 -.501722910276868D+02 0.340623536775474D+03
0.225934931428D-01 0.000000000000D+00 0.000000000000D+00 0.119113737879D-02 0.000000000000D+00  5 -1 2 25 24 21 0 0.37026638D-01 0.32402586D+00 0.31440039D+06 0.31440039D+06 0.31440039D+06 0.11204623D+01  1  2  2  2  5  2        2 0.111984483902D+00 0.100000000000D+01
-.116815010140D-02 0.000000000000D+00 -.867649626718D-04 0.119113737879D-02 0.000000000000D+00  5 -1 2 25 24 21 2 0.37026638D-01 0.32402586D+00 0.31440039D+06 0.31440039D+06 0.31440039D+06 0.11204623D+01  1  2  3  2  5  2        2 -.726888157332D-02 0.100000000000D+01
0.155010808404D-02 0.000000000000D+00 0.000000000000D+00 0.119113737879D-02 0.000000000000D+00  5 -1 2 25 24 21 2 0.37026638D-01 0.32402586D+00 0.31440039D+06 0.31440039D+06 0.31440039D+06 0.11204623D+01  1  2 15  2  5  2        2 0.964563721323D-02 0.100000000000D+01
  </mgrwgt>
  </event>
  <event>
  4     66 0.45252658E-03 0.75237970E+02 0.75467711E-02 0.11665735E+00
       -1 -1    0    0    0  501 0.00000000E+00 0.00000000E+00 0.16501743E+04 0.16501743E+04 0.32000000E+00 0.0000E+00 0.9000E+01
        2 -1    0    0  501    0 0.00000000E+00 0.00000000E+00 -.14167842E+02 0.14171455E+02 0.32000000E+00 0.0000E+00 0.9000E+01
       25  1    1    2    0    0 -.35943533E+02 -.76154135E+02 0.49563249E+03 0.51804243E+03 0.12500000E+03 0.0000E+00 0.9000E+01
       24  1    1    2    0    0 0.35943533E+02 0.76154135E+02 0.11403740E+04 0.11463034E+04 0.80419002E+02 0.0000E+00 0.9000E+01
#aMCatNLO 1  0  0  2  1 0.82558666D+02 0.00000000D+00  -5  5  0 0.00000000D+00 0.00000000D+00 0.00000000D+00 0.00000000D+00 0.00000000D+00
  <mgrwgt>
 0.1942089177D+00    9    2    0
 0.152913181083767D+03 0.000000000000000D+00 0.000000000000000D+00 0.152913181083767D+03
 0.152913181083767D+03 0.000000000000000D+00 0.000000000000000D+00 -.152913181083767D+03
 0.167885376385578D+03 -.359435333061214D+02 -.761541346352765D+02 -.739534299106607D+02
 0.137940985781955D+03 0.359435333061214D+02 0.761541346352765D+02 0.739534299106607D+02
 0.000000000000000D+00 0.000000000000000D+00 -.000000000000000D+00 -.000000000000000D+00
 0.180287756377176D+03 0.000000000000000D+00 0.000000000000000D+00 0.180287756377176D+03
 0.236191520156140D+03 0.000000000000000D+00 0.000000000000000D+00 -.236191520156140D+03
 0.166442265356067D+03 -.676156825111910D+02 -.451335504902305D+02 -.739534299106607D+02
 0.150331624295775D+03 0.863435518805179D+01 0.102901503506854D+03 0.739534299106607D+02
 0.997053868814735D+02 0.589813273231392D+02 -.577679530166232D+02 -.559037637789642D+02
0.518324847646D-02 0.000000000000D+00 0.000000000000D+00 0.187472220276D-02 0.000000000000D+00  5 -1 2 25 24 21 0 0.25387325D+00 0.21799483D-02 0.17843750D+05 0.17843750D+05 0.17843750D+05 0.12393180D+01  1  2  2  2  5  2        2 0.214933160319D+00 0.100000000000D+01
-.281561694124D-03 0.000000000000D+00 -.199050389303D-04 0.187472220276D-02 0.000000000000D+00  5 -1 2 25 24 21 2 0.25387325D+00 0.21799483D-02 0.17843750D+05 0.17843750D+05 0.17843750D+05 0.12393180D+01  1  2  3  2  5  2        2 -.179324841865D-01 0.100000000000D+01
0.357833951732D-03 0.000000000000D+00 0.000000000000D+00 0.187472220276D-02 0.000000000000D+00  5 -1 2 25 24 21 2 0.25387325D+00 0.21799483D-02 0.17843750D+05 0.17843750D+05 0.17843750D+05 0.12393180D+01  1  2 15  2  5  2        2 0.227902154829D-01 0.100000000000D+01
0.137416088323D-02 0.000000000000D+00 0.000000000000D+00 0.187472220276D-02 0.000000000000D+00  5 -1 2 25 24 21 2 0.25387325D+00 0.34762954D-02 0.32861093D+05 0.32861093D+05 0.32861093D+05 0.12107682D+01  1  2 12  2  5  2        2 0.443803934136D-01 0.100000000000D+01
-.369949013943D-02 0.000000000000D+00 0.000000000000D+00 0.187472220276D-02 0.000000000000D+00  5 -1 2 25 24 21 2 0.25387325D+00 0.21799483D-02 0.17843750D+05 0.17843750D+05 0.17843750D+05 0.12393180D+01  1  2  4  2  5  2        2 -.235618160452D+00 0.100000000000D+01
-.353289670299D-02 0.000000000000D+00 -.213501372158D-02 0.187472220276D-02 0.000000000000D+00  5 -1 2 25 24 21 2 0.25387325D+00 0.40483132D-02 0.17843750D+05 0.17843750D+05 0.17843750D+05 0.12393180D+01  1  2  5  2  5  2        2 -.979740091025D-01 0.100000000000D+01
0.434722442451D-02 0.000000000000D+00 0.178248194082D-02 0.187472220276D-02 0.000000000000D+00  5 -1 2 25 24 21 2 0.25387325D+00 0.21799483D-02 0.17843750D+05 0.17843750D+05 0.17843750D+05 0.12393180D+01  1  2  6  2  5  2        2 0.276871942719D+00 0.100000000000D+01
0.734186621707D-04 0.000000000000D+00 0.000000000000D+00 0.187472220276D-02 0.000000000000D+00  5 -1 21 25 24 -2 2 0.25387325D+00 0.34762954D-02 0.32861093D+05 0.32861093D+05 0.32861093D+05 0.12107682D+01  1  2 12  4  5  2        2 0.384759767125D-01 0.100000000000D+01
-.119815180585D-03 0.000000000000D+00 -.144071150085D-03 0.187472220276D-02 0.000000000000D+00  5 -1 21 25 24 -2 2 0.25387325D+00 0.40483132D-02 0.17843750D+05 0.17843750D+05 0.17843750D+05 0.12393180D+01  1  2  5  4  5  2        2 -.517181171977D-01 0.100000000000D+01
  </mgrwgt>
  </event>
  <event>
  4     66 0.45252658E-03 0.93370810E+02 0.75467711E-02 0.11656477E+00
       -1 -1    0    0    0  501 0.00000000E+00 0.00000000E+00 0.48606657E+03 0.48606668E+03 0.32000000E+00 0.0000E+00 0.9000E+01
        2 -1    0    0  501    0 0.00000000E+00 0.00000000E+00 -.84063049E+02 0.84063658E+02 0.32000000E+00 0.0000E+00 0.9000E+01
       25  1    1    2    0    0 -.64991409E+02 0.78419042E+02 0.40954222E+03 0.44014004E+03 0.12500000E+03 0.0000E+00 0.9000E+01
       24  1    1    2    0    0 0.64991409E+02 -.78419042E+02 -.75386896E+01 0.12999030E+03 0.80419002E+02 0.0000E+00 0.9000E+01
#aMCatNLO 1  0  0  2  1 0.65529322D+02 0.00000000D+00  -5  5  0 0.00000000D+00 0.00000000D+00 0.00000000D+00 0.00000000D+00 0.00000000D+00
  <mgrwgt>
 0.1955538419D+00    9    2    0
 0.202139659141220D+03 0.000000000000000D+00 0.000000000000000D+00 0.202139659141220D+03
 0.202139659141220D+03 0.000000000000000D+00 0.000000000000000D+00 -.202139659141220D+03
 0.213465719653709D+03 -.649914094805127D+02 0.784190419791688D+02 0.139889899621387D+03
 0.190813598628731D+03 0.649914094805127D+02 -.784190419791688D+02 -.139889899621387D+03
 0.000000000000000D+00 -.000000000000000D+00 0.000000000000000D+00 -.000000000000000D+00
 0.228520302977842D+03 0.000000000000000D+00 0.000000000000000D+00 0.228520302977842D+03
 0.249993165109193D+03 0.000000000000000D+00 0.000000000000000D+00 -.249993165109193D+03
 0.199959466967453D+03 -.398906122749065D+02 0.565538987706334D+02 0.139889899621387D+03
 0.209596218152986D+03 0.893019883601240D+02 -.995958310799699D+02 -.139889899621387D+03
 0.689577829665971D+02 -.494113760852175D+02 0.430419323093364D+02 -.214728621313510D+02
0.165624449032D-02 0.000000000000D+00 0.000000000000D+00 0.117291768777D-02 0.000000000000D+00  5 -1 2 25 24 21 0 0.74779528D-01 0.12932832D-01 0.21171967D+05 0.21171967D+05 0.21171967D+05 0.12311126D+01  1  2  2  2  5  2        2 0.163244160891D+00 0.100000000000D+01
-.799230790706D-04 0.000000000000D+00 -.636041494201D-05 0.117291768777D-02 0.000000000000D+00  5 -1 2 25 24 21 2 0.74779528D-01 0.12932832D-01 0.21171967D+05 0.21171967D+05 0.21171967D+05 0.12311126D+01  1  2  3  2  5  2        2 -.119393580789D-01 0.100000000000D+01
0.112784403954D-03 0.000000000000D+00 0.000000000000D+00 0.117291768777D-02 0.000000000000D+00  5 -1 2 25 24 21 2 0.74779528D-01 0.12932832D-01 0.21171967D+05 0.21171967D+05 0.21171967D+05 0.12311126D+01  1  2 15  2  5  2        2 0.168483672074D-01 0.100000000000D+01
0.105753204228D-02 0.000000000000D+00 0.000000000000D+00 0.117291768777D-02 0.000000000000D+00  5 -1 2 25 24 21 2 0.74779528D-01 0.16677663D-01 0.33213307D+05 0.33213307D+05 0.33213307D+05 0.12102876D+01  1  2 12  2  5  2        2 0.113463226896D+00 0.100000000000D+01
-.138614680504D-02 0.000000000000D+00 0.000000000000D+00 0.117291768777D-02 0.000000000000D+00  5 -1 2 25 24 21 2 0.74779528D-01 0.12932832D-01 0.21171967D+05 0.21171967D+05 0.21171967D+05 0.12311126D+01  1  2  4  2  5  2        2 -.207070388776D+00 0.100000000000D+01
-.210972730878D-02 0.000000000000D+00 -.973203133802D-03 0.117291768777D-02 0.000000000000D+00  5 -1 2 25 24 21 2 0.74779528D-01 0.18012029D-01 0.21171967D+05 0.21171967D+05 0.21171967D+05 0.12311126D+01  1  2  5  2  5  2        2 -.213856296214D+00 0.100000000000D+01
0.235289471957D-02 0.000000000000D+00 0.922140750877D-03 0.117291768777D-02 0.000000000000D+00  5 -1 2 25 24 21 2 0.74779528D-01 0.12932832D-01 0.21171967D+05 0.21171967D+05 0.21171967D+05 0.12311126D+01  1  2  6  2  5  2        2 0.351488617626D+00 0.100000000000D+01
0.362429510834D-04 0.000000000000D+00 0.000000000000D+00 0.117291768777D-02 0.000000000000D+00  5 -1 21 25 24 -2 2 0.74779528D-01 0.16677663D-01 0.33213307D+05 0.33213307D+05 0.33213307D+05 0.12102876D+01  1  2 12  4  5  2        2 0.300651834088D-01 0.100000000000D+01
-.622180602502D-04 0.000000000000D+00 -.404072050659D-04 0.117291768777D-02 0.000000000000D+00  5 -1 21 25 24 -2 2 0.74779528D-01 0.18012029D-01 0.21171967D+05 0.21171967D+05 0.21171967D+05 0.12311126D+01  1  2  5  4  5  2        2 -.466896710885D-01 0.100000000000D+01
  </mgrwgt>
  </event>
  <event>
  4     66 0.45252658E-03 0.82257242E+02 0.75467711E-02 0.11233356E+00
       -1 -1    0    0    0  501 0.00000000E+00 0.00000000E+00 0.79777574E+02 0.79778215E+02 0.32000000E+00 0.0000E+00 0.9000E+01
        2 -1    0    0  501    0 0.00000000E+00 0.00000000E+00 -.66841597E+03 0.66841605E+03 0.32000000E+00 0.0000E+00 0.9000E+01
       25  1    1    2    0    0 0.18744750E+03 0.41212669E+02 -.18635387E+03 0.29527583E+03 0.12500000E+03 0.0000E+00 0.9000E+01
       24  1    1    2    0    0 -.18744750E+03 -.41212669E+02 -.40228453E+03 0.45291843E+03 0.80419002E+02 0.0000E+00 0.9000E+01
#aMCatNLO 1  0  0  1  2 0.31285808D+02 0.00000000D+00  -5  5  0 0.00000000D+00 0.00000000D+00 0.00000000D+00 0.00000000D+00 0.00000000D+00
  <mgrwgt>
 0.3764479931D+00    9    2    0
 0.230921790205082D+03 0.000000000000000D+00 0.000000000000000D+00 0.230921790205082D+03
 0.230921790205082D+03 0.000000000000000D+00 0.000000000000000D+00 -.230921790205082D+03
 0.240836168615946D+03 0.187447504018189D+03 0.412126694517240D+02 0.744446722581425D+02
 0.221007411794218D+03 -.187447504018189D+03 -.412126694517240D+02 -.744446722581425D+02
 0.000000000000000D+00 0.000000000000000D+00 -.000000000000000D+00 0.000000000000000D+00
 0.256520510300496D+03 0.000000000000000D+00 0.000000000000000D+00 0.256520510300496D+03
 0.241211903123020D+03 0.000000000000000D+00 0.000000000000000D+00 -.241211903123020D+03
 0.243406278475365D+03 0.186455969258207D+03 0.575654297437925D+02 0.744446722581425D+02
 0.219495757093564D+03 -.188349478238868D+03 -.263369749065901D+02 -.744446722581425D+02
 0.348303778545868D+02 0.189350898066139D+01 -.312284548372025D+02 0.153086071774754D+02
0.144798967496D-02 0.000000000000D+00 0.000000000000D+00 0.188268250895D-02 0.000000000000D+00  5 -1 2 25 24 21 0 0.12273528D-01 0.10283328D+00 0.47771437D+05 0.47771437D+05 0.47771437D+05 0.11942478D+01  1  2  2  1  5  1       -1 0.321720667094D+00 0.100000000000D+01
-.801481361847D-04 0.000000000000D+00 -.556066161629D-05 0.188268250895D-02 0.000000000000D+00  5 -1 2 25 24 21 2 0.12273528D-01 0.10283328D+00 0.47771437D+05 0.47771437D+05 0.47771437D+05 0.11942478D+01  1  2  3  1  5  1       -1 -.253977850553D-01 0.100000000000D+01
0.992431305437D-04 0.000000000000D+00 0.000000000000D+00 0.188268250895D-02 0.000000000000D+00  5 -1 2 25 24 21 2 0.12273528D-01 0.10283328D+00 0.47771437D+05 0.47771437D+05 0.47771437D+05 0.11942478D+01  1  2 15  1  5  1       -1 0.314487125684D-01 0.100000000000D+01
0.240277262085D-02 0.000000000000D+00 0.000000000000D+00 0.188268250895D-02 0.000000000000D+00  5 -1 2 25 24 21 2 0.13885222D-01 0.10283328D+00 0.55110881D+05 0.55110881D+05 0.55110881D+05 0.11881183D+01  1  2 12  1  5  1       -1 0.621460507749D+00 0.100000000000D+01
-.233505777868D-02 0.000000000000D+00 0.000000000000D+00 0.188268250895D-02 0.000000000000D+00  5 -1 2 25 24 21 2 0.12273528D-01 0.10283328D+00 0.47771437D+05 0.47771437D+05 0.47771437D+05 0.11942478D+01  1  2  4  1  5  1       -1 -.739946034654D+00 0.100000000000D+01
-.584396654846D-02 0.000000000000D+00 -.123807364692D-02 0.188268250895D-02 0.000000000000D+00  5 -1 2 25 24 21 2 0.14223655D-01 0.10283328D+00 0.47771437D+05 0.47771437D+05 0.47771437D+05 0.11942478D+01  1  2  5  1  5  1       -1 -.146890592904D+01 0.100000000000D+01
0.597479638496D-02 0.000000000000D+00 0.122473361588D-02 0.188268250895D-02 0.000000000000D+00  5 -1 2 25 24 21 2 0.12273528D-01 0.10283328D+00 0.47771437D+05 0.47771437D+05 0.47771437D+05 0.11942478D+01  1  2  6  1  5  1       -1 0.189332655204D+01 0.100000000000D+01
0.466646469393D-04 0.000000000000D+00 0.000000000000D+00 0.188268250895D-02 0.000000000000D+00  5 21 2 25 24 1 2 0.13885222D-01 0.10283328D+00 0.55110881D+05 0.55110881D+05 0.55110881D+05 0.11881183D+01  1  2 12  3  5  1       -1 0.165115247051D+00 0.100000000000D+01
-.123141472242D-03 0.000000000000D+00 -.278535633644D-04 0.188268250895D-02 0.000000000000D+00  5 21 2 25 24 1 2 0.14223655D-01 0.10283328D+00 0.47771437D+05 0.47771437D+05 0.47771437D+05 0.11942478D+01  1  2  5  3  5  1       -1 -.422373944688D+00 0.100000000000D+01
  </mgrwgt>
  </event>
  <event>
  5     66 0.45252658E-03 0.10418860E+03 0.75467711E-02 0.12384486E+00
       -3 -1    0    0    0  501 0.00000000E+00 0.00000000E+00 0.58562001E+02 0.58564135E+02 0.50000000E+00 0.0000E+00 0.9000E+01
        4 -1    0    0  502    0 0.00000000E+00 0.00000000E+00 -.28011913E+03 0.28012342E+03 0.15500000E+01 0.0000E+00 0.9000E+01
       25  1    1    2    0    0 0.65959865E+01 0.19591512E+02 -.72708025E+02 0.14607803E+03 0.12500000E+03 0.0000E+00 0.9000E+01
       24  1    1    2    0    0 -.24090385E+02 0.10109541E+02 -.12409778E+03 0.15016665E+03 0.80419002E+02 0.0000E+00 0.9000E+01
       21  1    1    2  502  501 0.17494398E+02 -.29701053E+02 -.24751328E+02 0.42442870E+02 0.75000000E+00 0.0000E+00 0.9000E+01
#aMCatNLO 2  0  0  2  2 0.34470372D+02 0.00000000D+00  -5  5  0 0.00000000D+00 0.00000000D+00 0.00000000D+00 0.00000000D+00 0.00000000D+00
  <mgrwgt>
 0.1928740154D-01    1    2    0
 0.109361994102371D+03 0.000000000000000D+00 0.000000000000000D+00 0.109361994102371D+03
 0.109361994102371D+03 0.000000000000000D+00 0.000000000000000D+00 -.109361994102371D+03
 0.130296561272610D+03 0.169742935276909D+02 0.197177838425594D+01 0.325603950944438D+02
 0.884274269321326D+02 -.169742935276909D+02 -.197177838425594D+01 -.325603950944438D+02
 0.000000000000000D+00 0.000000000000000D+00 -.000000000000000D+00 0.000000000000000D+00
 0.130404795688252D+03 0.000000000000000D+00 0.000000000000000D+00 0.130404795688252D+03
 0.125795883966745D+03 0.000000000000000D+00 0.000000000000000D+00 -.125795883966745D+03
 0.130814806965477D+03 0.659598652268906D+01 0.195915123076627D+02 0.325603950944438D+02
 0.906087453791104D+02 -.240903849249533D+02 0.101095405566830D+02 -.325603950944438D+02
 0.347771273104098D+02 0.174943984022642D+02 -.297010528643457D+02 0.460891172150726D+01
0.140869766347D-03 0.000000000000D+00 0.000000000000D+00 0.280450897733D-02 0.201238261378D-04  5 -3 4 25 24 21 2 0.90097476D-02 0.43094382D-01 0.15095128D+05 0.15095128D+05 0.15095128D+05 0.12475097D+01  1  2  1  2  5  2        4 0.192874015382D-01 0.100000000000D+01
  </mgrwgt>
  </event>
  <event>
  4     66 0.45252658E-03 0.10781034E+03 0.75467711E-02 0.11834305E+00
       -1 -1    0    0    0  501 0.00000000E+00 0.00000000E+00 0.21864461E+03 0.21864485E+03 0.32000000E+00 0.0000E+00 0.9000E+01
        2 -1    0    0  501    0 0.00000000E+00 0.00000000E+00 -.60656139E+02 0.60656983E+02 0.32000000E+00 0.0000E+00 0.9000E+01
       25  1    1    2    0    0 0.29908802E+02 -.11549345E+02 0.44376043E+02 0.13646302E+03 0.12500000E+03 0.0000E+00 0.9000E+01
       24  1    1    2    0    0 -.29908802E+02 0.11549345E+02 0.11361243E+03 0.14283881E+03 0.80419002E+02 0.0000E+00 0.9000E+01
#aMCatNLO 1  0  0  1  2 0.94031953D+02 0.00000000D+00  -5  5  0 0.00000000D+00 0.00000000D+00 0.00000000D+00 0.00000000D+00 0.00000000D+00
  <mgrwgt>
 0.3950957469D+00    3    2    0
 0.115162009842294D+03 0.000000000000000D+00 0.000000000000000D+00 0.115162009842294D+03
 0.115162009842294D+03 0.000000000000000D+00 0.000000000000000D+00 -.115162009842294D+03
 0.135042229148492D+03 0.299088023014331D+02 -.115493445229486D+02 -.397929621840081D+02
 0.952817905360956D+02 -.299088023014331D+02 0.115493445229486D+02 0.397929621840081D+02
 0.000000000000000D+00 0.000000000000000D+00 0.000000000000000D+00 -.000000000000000D+00
 0.163937942062833D+03 0.000000000000000D+00 0.000000000000000D+00 0.163937942062833D+03
 0.180283445782211D+03 0.000000000000000D+00 0.000000000000000D+00 -.180283445782211D+03
 0.139585141553981D+03 -.112440218195178D+02 -.463584283231133D+02 -.397929621840081D+02
 0.109194202858653D+03 -.605494648530447D+02 -.143680357111974D+02 0.397929621840081D+02
 0.954420434324099D+02 0.717934866725625D+02 0.607264640343106D+02 -.163455037193777D+02
0.620037518793D-03 0.000000000000D+00 0.000000000000D+00 0.258974894494D-02 0.000000000000D+00  5 -1 2 25 24 21 0 0.33637716D-01 0.93317966D-02 0.11623070D+05 0.11623070D+05 0.11623070D+05 0.12606518D+01  1  2  2  1  5  1       -1 0.387021585070D+00 0.100000000000D+01
-.342642771092D-04 0.000000000000D+00 -.238110733179D-05 0.258974894494D-02 0.000000000000D+00  5 -1 2 25 24 21 2 0.33637716D-01 0.93317966D-02 0.11623070D+05 0.11623070D+05 0.11623070D+05 0.12606518D+01  1  2  3  1  5  1       -1 -.339898364164D-01 0.100000000000D+01
0.424036313132D-04 0.000000000000D+00 0.000000000000D+00 0.258974894494D-02 0.000000000000D+00  5 -1 2 25 24 21 2 0.33637716D-01 0.93317966D-02 0.11623070D+05 0.11623070D+05 0.11623070D+05 0.12606518D+01  1  2 15  1  5  1       -1 0.420639982336D-01 0.100000000000D+01
  </mgrwgt>
  </event>
  <event>
  4     66 0.45252658E-03 0.14498168E+03 0.75467711E-02 0.10016692E+00
       -1 -1    0    0    0  501 0.00000000E+00 0.00000000E+00 0.44431727E+03 0.44431739E+03 0.32000000E+00 0.0000E+00 0.9000E+01
        2 -1    0    0  501    0 0.00000000E+00 0.00000000E+00 -.42407497E+03 0.42407509E+03 0.32000000E+00 0.0000E+00 0.9000E+01
       25  1    1    2    0    0 0.98468434E+02 0.40051888E+03 0.95673648E+02 0.44146331E+03 0.12500000E+03 0.0000E+00 0.9000E+01
       24  1    1    2    0    0 -.98468434E+02 -.40051888E+03 -.75431343E+02 0.42692917E+03 0.80419002E+02 0.0000E+00 0.9000E+01
#aMCatNLO 1  0  0  1  2 0.22007685D+03 0.00000000D+00  -5  5  0 0.00000000D+00 0.00000000D+00 0.00000000D+00 0.00000000D+00 0.00000000D+00
  <mgrwgt>
 0.3858766861D+00    9    2    0
 0.434078260139501D+03 0.000000000000000D+00 0.000000000000000D+00 0.434078260139501D+03
 0.434078260139501D+03 0.000000000000000D+00 0.000000000000000D+00 -.434078260139501D+03
 0.439352530292242D+03 0.984684340691122D+02 0.400518883816986D+03 0.854063058103289D+02
 0.428803989986760D+03 -.984684340691122D+02 -.400518883816986D+03 -.854063058103289D+02
 0.000000000000000D+00 0.000000000000000D+00 0.000000000000000D+00 0.000000000000000D+00
 0.670753811213022D+03 0.000000000000000D+00 0.000000000000000D+00 0.670753811213022D+03
 0.502119734940514D+03 0.000000000000000D+00 0.000000000000000D+00 -.502119734940514D+03
 0.355498679587938D+03 0.421561620794671D+02 0.318877613067035D+03 0.854063058103289D+02
 0.540118181317208D+03 -.167112990646552D+03 -.500039443564241D+03 -.854063058103289D+02
 0.277256685248390D+03 0.124956828567085D+03 0.181161830497206D+03 0.168634076272509D+03
0.178372480798D-01 0.000000000000D+00 0.000000000000D+00 0.187460623304D-02 0.000000000000D+00  5 -1 2 25 24 21 0 0.68356522D-01 0.65242321D-01 0.18112858D+06 0.18112858D+06 0.18112858D+06 0.11405911D+01  1  2  2  1  5  1       -1 0.339488551821D+00 0.100000000000D+01
-.990488559127D-03 0.000000000000D+00 -.684997292816D-04 0.187460623304D-02 0.000000000000D+00  5 -1 2 25 24 21 2 0.68356522D-01 0.65242321D-01 0.18112858D+06 0.18112858D+06 0.18112858D+06 0.11405911D+01  1  2  3  1  5  1       -1 -.245248678480D-01 0.100000000000D+01
0.122252666238D-02 0.000000000000D+00 0.000000000000D+00 0.187460623304D-02 0.000000000000D+00  5 -1 2 25 24 21 2 0.68356522D-01 0.65242321D-01 0.18112858D+06 0.18112858D+06 0.18112858D+06 0.11405911D+01  1  2 15  1  5  1       -1 0.302702182264D-01 0.100000000000D+01
0.642569281514D-02 0.000000000000D+00 0.000000000000D+00 0.187460623304D-02 0.000000000000D+00  5 -1 2 25 24 21 2 0.10861742D+00 0.65242321D-01 0.30166836D+06 0.30166836D+06 0.30166836D+06 0.11219334D+01  1  2 12  1  5  1       -1 0.559718280990D-01 0.100000000000D+01
-.106722791785D-01 0.000000000000D+00 0.000000000000D+00 0.187460623304D-02 0.000000000000D+00  5 -1 2 25 24 21 2 0.68356522D-01 0.65242321D-01 0.18112858D+06 0.18112858D+06 0.18112858D+06 0.11405911D+01  1  2  4  1  5  1       -1 -.264249631232D+00 0.100000000000D+01
-.128645954498D-01 0.000000000000D+00 -.538334009874D-02 0.187460623304D-02 0.000000000000D+00  5 -1 2 25 24 21 2 0.11708659D+00 0.65242321D-01 0.18112858D+06 0.18112858D+06 0.18112858D+06 0.11405911D+01  1  2  5  1  5  1       -1 -.984885049501D-01 0.100000000000D+01
0.143312316879D-01 0.000000000000D+00 0.468790618840D-02 0.187460623304D-02 0.000000000000D+00  5 -1 2 25 24 21 2 0.68356522D-01 0.65242321D-01 0.18112858D+06 0.18112858D+06 0.18112858D+06 0.11405911D+01  1  2  6  1  5  1       -1 0.354846666330D+00 0.100000000000D+01
0.341293606695D-03 0.000000000000D+00 0.000000000000D+00 0.187460623304D-02 0.000000000000D+00  5 21 2 25 24 1 2 0.10861742D+00 0.65242321D-01 0.30166836D+06 0.30166836D+06 0.30166836D+06 0.11219334D+01  1  2 12  3  5  1       -1 0.238640751432D-01 0.100000000000D+01
-.506852241468D-03 0.000000000000D+00 -.322108075003D-03 0.187460623304D-02 0.000000000000D+00  5 21 2 25 24 1 2 0.11708659D+00 0.65242321D-01 0.18112858D+06 0.18112858D+06 0.18112858D+06 0.11405911D+01  1  2  5  3  5  1       -1 -.313016494749D-01 0.100000000000D+01
  </mgrwgt>
  </event>
  <event>
  4     66 -.45252658E-03 0.85660128E+02 0.75467711E-02 0.12235623E+00
       -1 -1    0    0    0  501 0.00000000E+00 0.00000000E+00 0.38301753E+02 0.38303090E+02 0.32000000E+00 0.0000E+00 0.9000E+01
        2 -1    0    0  501    0 0.00000000E+00 0.00000000E+00 -.48084116E+03 0.48084127E+03 0.32000000E+00 0.0000E+00 0.9000E+01
       25  1    1    2    0    0 0.69883964E+02 -.43766947E+02 -.19279515E+03 0.24411941E+03 0.12500000E+03 0.0000E+00 0.9000E+01
       24  1    1    2    0    0 -.69883964E+02 0.43766947E+02 -.24974426E+03 0.27502495E+03 0.80419002E+02 0.0000E+00 0.9000E+01
#aMCatNLO 1  0  0  1  2 0.38994390D+00 0.00000000D+00  -5  5  0 0.00000000D+00 0.00000000D+00 0.00000000D+00 0.00000000D+00 0.00000000D+00
  <mgrwgt>
 -.1344946465D+00    9    2    0
 0.135710847480780D+03 0.000000000000000D+00 0.000000000000000D+00 0.135710847480780D+03
 0.135710847480780D+03 0.000000000000000D+00 0.000000000000000D+00 -.135710847480780D+03
 0.152580877061367D+03 0.698839642368728D+02 -.437669472855138D+02 0.292678990134687D+02
 0.118840817900192D+03 -.698839642368728D+02 0.437669472855138D+02 -.292678990134687D+02
 0.000000000000000D+00 0.000000000000000D+00 0.000000000000000D+00 0.000000000000000D+00
 0.138680574696945D+03 0.000000000000000D+00 0.000000000000000D+00 0.138680574696945D+03
 0.135723788662475D+03 0.000000000000000D+00 0.000000000000000D+00 -.135723788662475D+03
 0.152550784757692D+03 0.697240469839756D+02 -.439168451701799D+02 0.292678990134687D+02
 0.118871190314424D+03 -.700085473466941D+02 0.436501697378196D+02 -.292678990134687D+02
 0.298238828730410D+01 0.284500362718507D+00 0.266675432360351D+00 0.295678603447006D+01
0.169457800736D-03 0.000000000000D+00 0.000000000000D+00 0.244222660190D-02 0.000000000000D+00  5 -1 2 25 24 21 0 0.58926884D-02 0.73975674D-01 0.17546701D+05 0.17546701D+05 0.17546701D+05 0.12401325D+01  1  2  2  1  5  1       -1 0.163885708048D+00 0.100000000000D+01
-.940760997174D-05 0.000000000000D+00 -.650762574089D-06 0.244222660190D-02 0.000000000000D+00  5 -1 2 25 24 21 2 0.58926884D-02 0.73975674D-01 0.17546701D+05 0.17546701D+05 0.17546701D+05 0.12401325D+01  1  2  3  1  5  1       -1 -.139924904763D-01 0.100000000000D+01
0.117111397845D-04 0.000000000000D+00 0.000000000000D+00 0.244222660190D-02 0.000000000000D+00  5 -1 2 25 24 21 2 0.58926884D-02 0.73975674D-01 0.17546701D+05 0.17546701D+05 0.17546701D+05 0.12401325D+01  1  2 15  1  5  1       -1 0.174186655689D-01 0.100000000000D+01
-.105470999270D+00 0.000000000000D+00 0.000000000000D+00 0.244222660190D-02 0.000000000000D+00  5 -1 2 25 24 21 2 0.58926884D-02 0.73975674D-01 0.17546701D+05 0.17546701D+05 0.17546701D+05 0.12401325D+01  1  2  4  1  5  1       -1 -.156873207674D+03 0.100000000000D+01
-.111439471880D+00 0.000000000000D+00 -.921481445923D-03 0.244222660190D-02 0.000000000000D+00  5 -1 2 25 24 21 2 0.60219711D-02 0.73975674D-01 0.17546701D+05 0.17546701D+05 0.17546701D+05 0.12401325D+01  1  2  5  1  5  1       -1 -.160483051276D+03 0.100000000000D+01
0.111433444070D+00 0.000000000000D+00 0.921264484313D-03 0.244222660190D-02 0.000000000000D+00  5 -1 2 25 24 21 2 0.58926884D-02 0.73975674D-01 0.17546701D+05 0.17546701D+05 0.17546701D+05 0.12401325D+01  1  2  6  1  5  1       -1 0.165741501781D+03 0.100000000000D+01
0.105495512252D+00 0.000000000000D+00 0.000000000000D+00 0.244222660190D-02 0.131739897546D+00  5 -1 2 25 24 21 2 0.60216367D-02 0.73982729D-01 0.17598483D+05 0.17598483D+05 0.17598483D+05 0.12399894D+01  1  2 11  1  5  1       -1 0.151899885876D+03 0.100000000000D+01
-.438901292427D-03 0.000000000000D+00 -.363053887943D-05 0.244222660190D-02 0.000000000000D+00  5 21 2 25 24 1 2 0.60219711D-02 0.73975674D-01 0.17546701D+05 0.17546701D+05 0.17546701D+05 0.12401325D+01  1  2  5  3  5  1       -1 -.106507072085D+02 0.100000000000D+01
0.414791654084D-03 0.000000000000D+00 0.000000000000D+00 0.244222660190D-02 0.517829047569D-03  5 21 2 25 24 1 2 0.60216367D-02 0.73982729D-01 0.17598483D+05 0.17598483D+05 0.17598483D+05 0.12399894D+01  1  2 11  3  5  1       -1 0.100637719720D+02 0.100000000000D+01
  </mgrwgt>
  </event>
  <event>
  4     66 0.45252658E-03 0.11127555E+03 0.75467711E-02 0.12163485E+00
       -1 -1    0    0    0  501 0.00000000E+00 0.00000000E+00 0.12412773E+02 0.12416897E+02 0.32000000E+00 0.0000E+00 0.9000E+01
        2 -1    0    0  501    0 0.00000000E+00 0.00000000E+00 -.12364184E+04 0.12364185E+04 0.32000000E+00 0.0000E+00 0.9000E+01
       25  1    1    2    0    0 0.12879464E+02 -.39919561E+02 -.43253734E+03 0.45218691E+03 0.12500000E+03 0.0000E+00 0.9000E+01
       24  1    1    2    0    0 -.12879464E+02 0.39919561E+02 -.79146833E+03 0.79664847E+03 0.80419002E+02 0.0000E+00 0.9000E+01
#aMCatNLO 1  0  0  1  2 0.47615796D+02 0.00000000D+00  -5  5  0 0.00000000D+00 0.00000000D+00 0.00000000D+00 0.00000000D+00 0.00000000D+00
  <mgrwgt>
 0.4208591854D+00    4    2    0
 0.123895046040003D+03 0.000000000000000D+00 0.000000000000000D+00 0.123895046040003D+03
 0.123895046040003D+03 0.000000000000000D+00 0.000000000000000D+00 -.123895046040003D+03
 0.142373960932760D+03 0.128794644408746D+02 -.399195614641498D+02 0.537205059535860D+02
 0.105416131147247D+03 -.128794644408746D+02 0.399195614641498D+02 -.537205059535860D+02
 0.000000000000000D+00 -.000000000000000D+00 -.000000000000000D+00 -.000000000000000D+00
 0.135911474175210D+03 0.000000000000000D+00 0.000000000000000D+00 0.135911474175210D+03
 0.184298680611213D+03 0.000000000000000D+00 0.000000000000000D+00 -.184298680611213D+03
 0.139714606096515D+03 0.268498135411055D+02 -.169813400414357D+02 0.537205059535860D+02
 0.112608983270075D+03 -.208183803189062D+01 0.576484201799944D+02 -.537205059535860D+02
 0.678865654198341D+02 -.247679755092148D+02 -.406670801385587D+02 -.483872064360032D+02
0.314987662203D-03 0.000000000000D+00 0.000000000000D+00 0.226829484105D-02 0.000000000000D+00  5 -1 2 25 24 21 0 0.19099778D-02 0.19021854D+00 0.12382247D+05 0.12382247D+05 0.12382247D+05 0.12574312D+01  1  2  2  1  5  1       -1 0.476588347688D+00 0.100000000000D+01
-.172537783726D-04 0.000000000000D+00 -.120963556101D-05 0.226829484105D-02 0.000000000000D+00  5 -1 2 25 24 21 2 0.19099778D-02 0.19021854D+00 0.12382247D+05 0.12382247D+05 0.12382247D+05 0.12574312D+01  1  2  3  1  5  1       -1 -.412764701876D-01 0.100000000000D+01
0.215087222295D-04 0.000000000000D+00 0.000000000000D+00 0.226829484105D-02 0.000000000000D+00  5 -1 2 25 24 21 2 0.19099778D-02 0.19021854D+00 0.12382247D+05 0.12382247D+05 0.12382247D+05 0.12574312D+01  1  2 15  1  5  1       -1 0.514556355544D-01 0.100000000000D+01
-.275500224201D-04 0.000000000000D+00 0.000000000000D+00 0.226829484105D-02 0.000000000000D+00  5 -1 2 25 24 21 2 0.19099778D-02 0.19021854D+00 0.12382247D+05 0.12382247D+05 0.12382247D+05 0.12574312D+01  1  2  4  1  5  1       -1 -.659083277024D-01 0.100000000000D+01
  </mgrwgt>
  </event>
  <event>
  4     66 0.45252658E-03 0.30186169E+03 0.75467711E-02 0.10612921E+00
       -1 -1    0    0    0  501 0.00000000E+00 0.00000000E+00 0.19205840E+03 0.19205867E+03 0.32000000E+00 0.0000E+00 0.9000E+01
        2 -1    0    0  501    0 0.00000000E+00 0.00000000E+00 -.47880079E+03 0.47880089E+03 0.32000000E+00 0.0000E+00 0.9000E+01
       25  1    1    2    0    0 0.26611288E+03 -.96518541E+02 -.11494231E+03 0.33010397E+03 0.12500000E+03 0.0000E+00 0.9000E+01
       24  1    1    2    0    0 -.26611288E+03 0.96518541E+02 -.17180008E+03 0.34075560E+03 0.80419002E+02 0.0000E+00 0.9000E+01
#aMCatNLO 1  0  0  2  2 0.95357109D+02 0.00000000D+00  -5  5  0 0.00000000D+00 0.00000000D+00 0.00000000D+00 0.00000000D+00 0.00000000D+00
  <mgrwgt>
 0.5207389380D+00    4    2    0
 0.303245511139105D+03 0.000000000000000D+00 0.000000000000000D+00 0.303245511139105D+03
 0.303245511139105D+03 0.000000000000000D+00 0.000000000000000D+00 -.303245511139105D+03
 0.310795321201610D+03 0.266112882460020D+03 -.965185407325239D+02 0.289281310231995D+02
 0.295695701076601D+03 -.266112882460020D+03 0.965185407325239D+02 -.289281310231995D+02
 0.000000000000000D+00 -.000000000000000D+00 0.000000000000000D+00 0.000000000000000D+00
 0.476862116511763D+03 0.000000000000000D+00 0.000000000000000D+00 0.476862116511763D+03
 0.320351403326160D+03 0.000000000000000D+00 0.000000000000000D+00 -.320351403326160D+03
 0.359120017130168D+03 0.315220153951335D+03 -.114636837369030D+03 0.289281310231995D+02
 0.254821623732612D+03 -.225757926866080D+03 0.816294411348534D+02 -.289281310231995D+02
 0.183271878975144D+03 -.894622270852543D+02 0.330073962341763D+02 0.156510713185603D+03
0.733725921325D-02 0.000000000000D+00 0.000000000000D+00 0.198889638420D-02 0.000000000000D+00  5 -1 2 25 24 21 0 0.29547475D-01 0.73661688D-01 0.91120479D+05 0.91120479D+05 0.91120479D+05 0.11672997D+01  1  2  2  2  5  2        2 0.574373637512D+00 0.100000000000D+01
-.407615143726D-03 0.000000000000D+00 -.281770073236D-04 0.198889638420D-02 0.000000000000D+00  5 -1 2 25 24 21 2 0.29547475D-01 0.73661688D-01 0.91120479D+05 0.91120479D+05 0.91120479D+05 0.11672997D+01  1  2  3  2  5  2        2 -.434786180453D-01 0.100000000000D+01
0.502932665882D-03 0.000000000000D+00 0.000000000000D+00 0.198889638420D-02 0.000000000000D+00  5 -1 2 25 24 21 2 0.29547475D-01 0.73661688D-01 0.91120479D+05 0.91120479D+05 0.91120479D+05 0.11672997D+01  1  2 15  2  5  2        2 0.536457430961D-01 0.100000000000D+01
-.598146653274D-03 0.000000000000D+00 0.000000000000D+00 0.198889638420D-02 0.000000000000D+00  5 -1 2 25 24 21 2 0.29547475D-01 0.73661688D-01 0.91120479D+05 0.91120479D+05 0.91120479D+05 0.11672997D+01  1  2  4  2  5  2        2 -.638018245227D-01 0.100000000000D+01
  </mgrwgt>
  </event>
  <event>
  4     66 0.45252658E-03 0.18048337E+03 0.75467711E-02 0.10528331E+00
       -1 -1    0    0    0  501 0.00000000E+00 0.00000000E+00 0.66875615E+02 0.66876381E+02 0.32000000E+00 0.0000E+00 0.9000E+01
        2 -1    0    0  501    0 0.00000000E+00 0.00000000E+00 -.11820142E+04 0.11820142E+04 0.32000000E+00 0.0000E+00 0.9000E+01
       25  1    1    2    0    0 0.27966325E+02 0.25932515E+03 -.58722468E+03 0.65459107E+03 0.12500000E+03 0.0000E+00 0.9000E+01
       24  1    1    2    0    0 -.27966325E+02 -.25932515E+03 -.52791390E+03 0.59429955E+03 0.80419002E+02 0.0000E+00 0.9000E+01
#aMCatNLO 1  0  0  2  1 0.16415667D+03 0.00000000D+00  -5  5  0 0.00000000D+00 0.00000000D+00 0.00000000D+00 0.00000000D+00 0.00000000D+00
  <mgrwgt>
 0.3842033193D+00    7    2    0
 0.281155529578353D+03 0.000000000000000D+00 0.000000000000000D+00 0.281155529578353D+03
 0.281155529578353D+03 0.000000000000000D+00 0.000000000000000D+00 -.281155529578353D+03
 0.289298517250837D+03 0.279663250583071D+02 0.259325150011576D+03 -.608139110234021D+01
 0.273012541905868D+03 -.279663250583071D+02 -.259325150011576D+03 0.608139110234021D+01
 0.000000000000000D+00 -.000000000000000D+00 -.000000000000000D+00 -.000000000000000D+00
 0.316949588368549D+03 0.000000000000000D+00 0.000000000000000D+00 0.316949588368549D+03
 0.572912826048605D+03 0.000000000000000D+00 0.000000000000000D+00 -.572912826048605D+03
 0.337565077467437D+03 0.110938465957609D+03 0.293224922165271D+03 -.608139110234021D+01
 0.248217425483566D+03 0.410240688002019D+02 -.231137874050653D+03 0.608139110234021D+01
 0.304079911466152D+03 -.151962534757811D+03 -.620870481146180D+02 -.255963237680056D+03
0.325067543817D-02 0.000000000000D+00 0.000000000000D+00 0.202469924487D-02 0.000000000000D+00  5 -1 2 25 24 21 0 0.10288618D-01 0.18184840D+00 0.79011417D+05 0.79011417D+05 0.79011417D+05 0.11730888D+01  1  2  2  2  5  2        2 0.441647854857D+00 0.100000000000D+01
-.180593067857D-03 0.000000000000D+00 -.124834496051D-04 0.202469924487D-02 0.000000000000D+00  5 -1 2 25 24 21 2 0.10288618D-01 0.18184840D+00 0.79011417D+05 0.79011417D+05 0.79011417D+05 0.11730888D+01  1  2  3  2  5  2        2 -.337648905501D-01 0.100000000000D+01
0.222389304287D-03 0.000000000000D+00 0.000000000000D+00 0.202469924487D-02 0.000000000000D+00  5 -1 2 25 24 21 2 0.10288618D-01 0.18184840D+00 0.79011417D+05 0.79011417D+05 0.79011417D+05 0.11730888D+01  1  2 15  2  5  2        2 0.415793950889D-01 0.100000000000D+01
0.164084279090D-02 0.000000000000D+00 0.000000000000D+00 0.202469924487D-02 0.000000000000D+00  5 -1 2 25 24 21 2 0.10288618D-01 0.37091053D+00 0.14055372D+06 0.14055372D+06 0.14055372D+06 0.11502300D+01  1  2 12  2  5  2        2 0.633308937901D-01 0.100000000000D+01
-.346861719900D-02 0.000000000000D+00 -.103895922595D-02 0.202469924487D-02 0.000000000000D+00  5 -1 2 25 24 21 2 0.10288618D-01 0.38362831D+00 0.79011417D+05 0.79011417D+05 0.79011417D+05 0.11730888D+01  1  2  5  2  5  2        2 -.128020797715D+00 0.100000000000D+01
0.126478454291D-03 0.000000000000D+00 0.000000000000D+00 0.202469924487D-02 0.000000000000D+00  5 -1 21 25 24 -2 2 0.10288618D-01 0.37091053D+00 0.14055372D+06 0.14055372D+06 0.14055372D+06 0.11502300D+01  1  2 12  4  5  2        2 0.974948611088D-03 0.100000000000D+01
-.215582356210D-03 0.000000000000D+00 -.838897793053D-04 0.202469924487D-02 0.000000000000D+00  5 -1 21 25 24 -2 2 0.10288618D-01 0.38362831D+00 0.79011417D+05 0.79011417D+05 0.79011417D+05 0.11730888D+01  1  2  5  4  5  2        2 -.154408481479D-02 0.100000000000D+01
  </mgrwgt>
  </event>
  <event>
  4     66 0.45252658E-03 0.10405358E+03 0.75467711E-02 0.12077628E+00
       -1 -1    0    0    0  501 0.00000000E+00 0.00000000E+00 0.25745477E+03 0.25745497E+03 0.32000000E+00 0.0000E+00 0.9000E+01
        2 -1    0    0  501    0 0.00000000E+00 0.00000000E+00 -.49645143E+02 0.49646175E+02 0.32000000E+00 0.0000E+00 0.9000E+01
       25  1    1    2    0    0 0.15055300E+02 0.62040344E+01 0.18141208E+03 0.22090834E+03 0.12500000E+03 0.0000E+00 0.9000E+01
       24  1    1    2    0    0 -.15055300E+02 -.62040344E+01 0.26397539E+02 0.86192796E+02 0.80419002E+02 0.0000E+00 0.9000E+01
#aMCatNLO 1  0  0  2  1 0.68937378D+02 0.00000000D+00  -5  5  0 0.00000000D+00 0.00000000D+00 0.00000000D+00 0.00000000D+00 0.00000000D+00
  <mgrwgt>
 0.4772207083D+00    3    2    0
 0.113055595479211D+03 0.000000000000000D+00 0.000000000000000D+00 0.113055595479211D+03
 0.113055595479211D+03 0.000000000000000D+00 0.000000000000000D+00 -.113055595479211D+03
 0.133306216438776D+03 0.150553001749349D+02 0.620403436184349D+01 0.433635242513966D+02
 0.928049745196470D+02 -.150553001749349D+02 -.620403436184349D+01 -.433635242513966D+02
 0.000000000000000D+00 0.000000000000000D+00 0.000000000000000D+00 0.000000000000000D+00
 0.420832237392962D+03 0.000000000000000D+00 0.000000000000000D+00 0.420832237392962D+03
 0.122119077429792D+03 0.000000000000000D+00 0.000000000000000D+00 -.122119077429792D+03
 0.134834433188780D+03 -.124294729075885D+02 -.228130958240604D+02 0.433635242513966D+02
 0.101552183807449D+03 -.349771673032649D+02 -.272366042969619D+02 -.433635242513966D+02
 0.306564697826525D+03 0.474066402108534D+02 0.500497001210223D+02 0.298713159963171D+03
0.775252874247D-03 0.000000000000D+00 0.000000000000D+00 0.256708613369D-02 0.000000000000D+00  5 -1 2 25 24 21 0 0.39608520D-01 0.76378090D-02 0.10827147D+05 0.10827147D+05 0.10827147D+05 0.12642930D+01  1  2  2  2  5  2        2 0.467329263913D+00 0.100000000000D+01
-.427090803760D-04 0.000000000000D+00 -.297717516588D-05 0.256708613369D-02 0.000000000000D+00  5 -1 2 25 24 21 2 0.39608520D-01 0.76378090D-02 0.10827147D+05 0.10827147D+05 0.10827147D+05 0.12642930D+01  1  2  3  2  5  2        2 -.411524101509D-01 0.100000000000D+01
0.529746879311D-04 0.000000000000D+00 0.000000000000D+00 0.256708613369D-02 0.000000000000D+00  5 -1 2 25 24 21 2 0.39608520D-01 0.76378090D-02 0.10827147D+05 0.10827147D+05 0.10827147D+05 0.12642930D+01  1  2 15  2  5  2        2 0.510438545190D-01 0.100000000000D+01
  </mgrwgt>
  </event>
  <event>
  4     66 0.45252658E-03 0.14596654E+03 0.75467711E-02 0.11355826E+00
       -1 -1    0    0    0  501 0.00000000E+00 0.00000000E+00 0.83255913E+01 0.83317387E+01 0.32000000E+00 0.0000E+00 0.9000E+01
        2 -1    0    0  501    0 0.00000000E+00 0.00000000E+00 -.25951040E+04 0.25951040E+04 0.32000000E+00 0.0000E+00 0.9000E+01
       25  1    1    2    0    0 0.76444214E+02 -.68281882E+02 -.15847888E+04 0.15930118E+04 0.12500000E+03 0.0000E+00 0.9000E+01
       24  1    1    2    0    0 -.76444214E+02 0.68281882E+02 -.10019896E+04 0.10104239E+04 0.80419002E+02 0.0000E+00 0.9000E+01
#aMCatNLO 1  0  0  2  1 0.11988101D+03 0.00000000D+00  -5  5  0 0.00000000D+00 0.00000000D+00 0.00000000D+00 0.00000000D+00 0.00000000D+00
  <mgrwgt>
 0.6187707563D+00    6    2    0
 0.147016335622039D+03 0.000000000000000D+00 0.000000000000000D+00 0.147016335622039D+03
 0.147016335622039D+03 0.000000000000000D+00 0.000000000000000D+00 -.147016335622039D+03
 0.162589067738647D+03 0.764442142716822D+02 -.682818816965371D+02 -.174376513466606D+02
 0.131443603505431D+03 -.764442142716822D+02 0.682818816965371D+02 0.174376513466606D+02
 0.000000000000000D+00 0.000000000000000D+00 0.000000000000000D+00 -.000000000000000D+00
 0.217732081759273D+03 0.000000000000000D+00 0.000000000000000D+00 0.217732081759273D+03
 0.219697190629775D+03 0.000000000000000D+00 0.000000000000000D+00 -.219697190629775D+03
 0.175204488852693D+03 0.318876325501644D+02 -.117263464557344D+03 -.174376513466606D+02
 0.142327665467557D+03 -.112555950807131D+03 0.285838180880250D+02 0.174376513466606D+02
 0.119897118068799D+03 0.806683182569661D+02 0.886796464693187D+02 -.196510887050232D+01
0.657857201133D-03 0.000000000000D+00 0.000000000000D+00 0.240308329772D-02 0.000000000000D+00  5 -1 2 25 24 21 0 0.12813346D-02 0.39924724D+00 0.21306230D+05 0.21306230D+05 0.21306230D+05 0.12308125D+01  1  2  2  2  5  2        2 0.349910476644D+00 0.100000000000D+01
-.365453402074D-04 0.000000000000D+00 -.252634487013D-05 0.240308329772D-02 0.000000000000D+00  5 -1 2 25 24 21 2 0.12813346D-02 0.39924724D+00 0.21306230D+05 0.21306230D+05 0.21306230D+05 0.12308125D+01  1  2  3  2  5  2        2 -.294470056486D-01 0.100000000000D+01
0.452245099022D-04 0.000000000000D+00 0.000000000000D+00 0.240308329772D-02 0.000000000000D+00  5 -1 2 25 24 21 2 0.12813346D-02 0.39924724D+00 0.21306230D+05 0.21306230D+05 0.21306230D+05 0.12308125D+01  1  2 15  2  5  2        2 0.364403885963D-01 0.100000000000D+01
-.281258259208D-03 0.000000000000D+00 -.180289135554D-03 0.240308329772D-02 0.000000000000D+00  5 -1 2 25 24 21 2 0.12813346D-02 0.65778561D+00 0.21306230D+05 0.21306230D+05 0.21306230D+05 0.12308125D+01  1  2  5  2  5  2        2 -.180535696791D-01 0.100000000000D+01
0.347417284302D-03 0.000000000000D+00 0.159935640754D-03 0.240308329772D-02 0.000000000000D+00  5 -1 2 25 24 21 2 0.12813346D-02 0.39924724D+00 0.21306230D+05 0.21306230D+05 0.21306230D+05 0.12308125D+01  1  2  6  2  5  2        2 0.279937159572D+00 0.100000000000D+01
-.772146786283D-05 0.000000000000D+00 -.101538590279D-04 0.240308329772D-02 0.000000000000D+00  5 -1 21 25 24 -2 2 0.12813346D-02 0.65778561D+00 0.21306230D+05 0.21306230D+05 0.21306230D+05 0.12308125D+01  1  2  5  4  5  2        2 -.166931560593D-04 0.100000000000D+01
  </mgrwgt>
  </event>
  <event>
  4     66 0.45252658E-03 0.10490016E+03 0.75467711E-02 0.11636123E+00
       -1 -1    0    0    0  501 0.00000000E+00 0.00000000E+00 0.43394041E+02 0.43395221E+02 0.32000000E+00 0.0000E+00 0.9000E+01
        2 -1    0    0  501    0 0.00000000E+00 0.00000000E+00 -.28608121E+03 0.28608139E+03 0.32000000E+00 0.0000E+00 0.9000E+01
       25  1    1    2    0    0 0.20349788E+02 -.44891271E+01 -.89270458E+02 0.15501123E+03 0.12500000E+03 0.0000E+00 0.9000E+01
       24  1    1    2    0    0 -.20349788E+02 0.44891271E+01 -.15341671E+03 0.17446538E+03 0.80419002E+02 0.0000E+00 0.9000E+01
#aMCatNLO 1  0  0  2  1 0.12461835D+03 0.00000000D+00  -5  5  0 0.00000000D+00 0.00000000D+00 0.00000000D+00 0.00000000D+00 0.00000000D+00
  <mgrwgt>
 0.3014337175D+00    5    2    0
 0.111420121860943D+03 0.000000000000000D+00 0.000000000000000D+00 0.111420121860943D+03
 0.111420121860943D+03 0.000000000000000D+00 0.000000000000000D+00 -.111420121860943D+03
 0.131967990353357D+03 0.203497876208771D+02 -.448912705316336D+01 0.368277661552993D+02
 0.908722533685293D+02 -.203497876208771D+02 0.448912705316336D+01 -.368277661552993D+02
 0.000000000000000D+00 0.000000000000000D+00 0.000000000000000D+00 -.000000000000000D+00
 0.162661517871417D+03 0.000000000000000D+00 0.000000000000000D+00 0.162661517871417D+03
 0.238578615502594D+03 0.000000000000000D+00 0.000000000000000D+00 -.238578615502594D+03
 0.146937575427642D+03 -.201962703379064D+02 -.648188041929404D+02 0.368277661552993D+02
 0.108380868687591D+03 -.493163254980729D+02 -.386110401632102D+02 -.368277661552993D+02
 0.145921689258778D+03 0.695125958359793D+02 0.103429844356151D+03 -.759170976311770D+02
0.221466063631D-03 0.000000000000D+00 0.000000000000D+00 0.269993589884D-02 0.000000000000D+00  5 -1 2 25 24 21 0 0.66761108D-02 0.44012599D-01 0.11004043D+05 0.11004043D+05 0.11004043D+05 0.12634582D+01  1  2  2  2  5  2        2 0.303327722206D+00 0.100000000000D+01
-.122492782053D-04 0.000000000000D+00 -.850487997696D-06 0.269993589884D-02 0.000000000000D+00  5 -1 2 25 24 21 2 0.66761108D-02 0.44012599D-01 0.11004043D+05 0.11004043D+05 0.11004043D+05 0.12634582D+01  1  2  3  2  5  2        2 -.267816418191D-01 0.100000000000D+01
0.151380294642D-04 0.000000000000D+00 0.000000000000D+00 0.269993589884D-02 0.000000000000D+00  5 -1 2 25 24 21 2 0.66761108D-02 0.44012599D-01 0.11004043D+05 0.11004043D+05 0.11004043D+05 0.12634582D+01  1  2 15  2  5  2        2 0.330975651106D-01 0.100000000000D+01
-.150461041140D-04 0.000000000000D+00 -.832500651067D-04 0.269993589884D-02 0.000000000000D+00  5 -1 2 25 24 21 2 0.66761108D-02 0.12679460D+00 0.11004043D+05 0.11004043D+05 0.11004043D+05 0.12634582D+01  1  2  5  2  5  2        2 -.102357789098D-01 0.100000000000D+01
0.266390674357D-05 0.000000000000D+00 -.994554741658D-05 0.269993589884D-02 0.000000000000D+00  5 -1 21 25 24 -2 2 0.66761108D-02 0.12679460D+00 0.11004043D+05 0.11004043D+05 0.11004043D+05 0.12634582D+01  1  2  5  4  5  2        2 0.202585086940D-02 0.100000000000D+01
  </mgrwgt>
  </event>
  <event>
  4     66 0.45252658E-03 0.61390422E+02 0.75467711E-02 0.12631236E+00
       -1 -1    0    0    0  501 0.00000000E+00 0.00000000E+00 0.28663262E+03 0.28663279E+03 0.32000000E+00 0.0000E+00 0.9000E+01
        2 -1    0    0  501    0 0.00000000E+00 0.00000000E+00 -.41783528E+02 0.41784753E+02 0.32000000E+00 0.0000E+00 0.9000E+01
       25  1    1    2    0    0 -.12863786E+02 -.24046066E+02 0.18332658E+03 0.22355609E+03 0.12500000E+03 0.0000E+00 0.9000E+01
       24  1    1    2    0    0 0.12863786E+02 0.24046066E+02 0.61522503E+02 0.10486145E+03 0.80419002E+02 0.0000E+00 0.9000E+01
#aMCatNLO 1  0  0  1  2 0.43527850D+01 0.00000000D+00  -5  5  0 0.00000000D+00 0.00000000D+00 0.00000000D+00 0.00000000D+00 0.00000000D+00
  <mgrwgt>
 0.2312227224D+00   11    2    0
 0.109438350187057D+03 0.000000000000000D+00 0.000000000000000D+00 0.109438350187057D+03
 0.109438350187057D+03 0.000000000000000D+00 0.000000000000000D+00 -.109438350187057D+03
 0.130358311128483D+03 -.128637863754406D+02 -.240460658989018D+02 0.249919786160116D+02
 0.885183892456308D+02 0.128637863754406D+02 0.240460658989018D+02 -.249919786160116D+02
 0.000000000000000D+00 -.000000000000000D+00 -.000000000000000D+00 0.000000000000000D+00
 0.111814093490270D+03 0.000000000000000D+00 0.000000000000000D+00 0.111814093490270D+03
 0.111472084863905D+03 0.000000000000000D+00 0.000000000000000D+00 -.111472084863905D+03
 0.129939764321424D+03 -.105551513380769D+02 -.228764537678863D+02 0.249919786160116D+02
 0.889802135325117D+02 0.144380565376323D+02 0.248436304551852D+02 -.249919786160116D+02
 0.436620050023980D+01 -.388290519955536D+01 -.196717668729887D+01 0.342008626365085D+00
0.279489137342D-03 0.000000000000D+00 0.000000000000D+00 0.289497321678D-02 0.000000000000D+00  5 -1 2 25 24 21 0 0.44097433D-01 0.64283431D-02 0.11327051D+05 0.11327051D+05 0.11327051D+05 0.12619723D+01  1  2  2  1  5  1       -1 0.173743349902D+00 0.100000000000D+01
-.155124926994D-04 0.000000000000D+00 -.107331187857D-05 0.289497321678D-02 0.000000000000D+00  5 -1 2 25 24 21 2 0.44097433D-01 0.64283431D-02 0.11327051D+05 0.11327051D+05 0.11327051D+05 0.12619723D+01  1  2  3  1  5  1       -1 -.153576397722D-01 0.100000000000D+01
0.192985702591D-04 0.000000000000D+00 0.000000000000D+00 0.289497321678D-02 0.000000000000D+00  5 -1 2 25 24 21 2 0.44097433D-01 0.64283431D-02 0.11327051D+05 0.11327051D+05 0.11327051D+05 0.12619723D+01  1  2 15  1  5  1       -1 0.191059229423D-01 0.100000000000D+01
0.606015637590D-04 0.000000000000D+00 0.000000000000D+00 0.289497321678D-02 0.000000000000D+00  5 -1 2 25 24 21 2 0.45456257D-01 0.64283431D-02 0.11801003D+05 0.11801003D+05 0.11801003D+05 0.12598761D+01  1  2 12  1  5  1       -1 0.567481789519D-01 0.100000000000D+01
-.820611821778D-03 0.000000000000D+00 0.000000000000D+00 0.289497321678D-02 0.000000000000D+00  5 -1 2 25 24 21 2 0.44097433D-01 0.64283431D-02 0.11327051D+05 0.11327051D+05 0.11327051D+05 0.12619723D+01  1  2  4  1  5  1       -1 -.812420092366D+00 0.100000000000D+01
-.575107853298D-02 0.000000000000D+00 -.837850302495D-03 0.289497321678D-02 0.000000000000D+00  5 -1 2 25 24 21 2 0.45813825D-01 0.64283431D-02 0.11327051D+05 0.11327051D+05 0.11327051D+05 0.12619723D+01  1  2  5  1  5  1       -1 -.531999856781D+01 0.100000000000D+01
0.577946785166D-02 0.000000000000D+00 0.837239862710D-03 0.289497321678D-02 0.000000000000D+00  5 -1 2 25 24 21 2 0.44097433D-01 0.64283431D-02 0.11327051D+05 0.11327051D+05 0.11327051D+05 0.12619723D+01  1  2  6  1  5  1       -1 0.572177451173D+01 0.100000000000D+01
0.772101123078D-03 0.000000000000D+00 0.000000000000D+00 0.289497321678D-02 0.129401029098D-02  5 -1 2 25 24 21 2 0.45054723D-01 0.65478034D-02 0.11801003D+05 0.11801003D+05 0.11801003D+05 0.12598761D+01  1  2 11  1  5  1       -1 0.717533754295D+00 0.100000000000D+01
0.112918335129D-05 0.000000000000D+00 0.000000000000D+00 0.289497321678D-02 0.000000000000D+00  5 21 2 25 24 1 2 0.45456257D-01 0.64283431D-02 0.11801003D+05 0.11801003D+05 0.11801003D+05 0.12598761D+01  1  2 12  3  5  1       -1 0.111422308009D-01 0.100000000000D+01
-.384794438012D-04 0.000000000000D+00 -.566950604256D-05 0.289497321678D-02 0.000000000000D+00  5 21 2 25 24 1 2 0.45813825D-01 0.64283431D-02 0.11327051D+05 0.11327051D+05 0.11327051D+05 0.12619723D+01  1  2  5  3  5  1       -1 -.374714790403D+00 0.100000000000D+01
0.546832509599D-05 0.000000000000D+00 0.000000000000D+00 0.289497321678D-02 0.510899490262D-05  5 21 2 25 24 1 2 0.45054723D-01 0.65478034D-02 0.11801003D+05 0.11801003D+05 0.11801003D+05 0.12598761D+01  1  2 11  3  5  1       -1 0.536658641643D-01 0.100000000000D+01
  </mgrwgt>
  </event>
  <event>
  4     66 0.45252658E-03 0.51325860E+02 0.75467711E-02 0.11512232E+00
       -1 -1    0    0    0  501 0.00000000E+00 0.00000000E+00 0.56343052E+02 0.56343961E+02 0.32000000E+00 0.0000E+00 0.9000E+01
        2 -1    0    0  501    0 0.00000000E+00 0.00000000E+00 -.56062962E+03 0.56062971E+03 0.32000000E+00 0.0000E+00 0.9000E+01
       25  1    1    2    0    0 -.36961123E+02 0.10304287E+03 -.10830140E+03 0.19833848E+03 0.12500000E+03 0.0000E+00 0.9000E+01
       24  1    1    2    0    0 0.36961123E+02 -.10304287E+03 -.39598517E+03 0.41863520E+03 0.80419002E+02 0.0000E+00 0.9000E+01
#aMCatNLO 1  0  0  1  2 0.82964467D+02 0.00000000D+00  -5  5  0 0.00000000D+00 0.00000000D+00 0.00000000D+00 0.00000000D+00 0.00000000D+00
  <mgrwgt>
 0.2219348382D+00    9    2    0
 0.177729830686803D+03 0.000000000000000D+00 0.000000000000000D+00 0.177729830686803D+03
 0.177729830686803D+03 0.000000000000000D+00 0.000000000000000D+00 -.177729830686803D+03
 0.190611438701396D+03 -.369611226655637D+02 0.103042873814089D+03 0.934010820668103D+02
 0.164848222672210D+03 0.369611226655637D+02 -.103042873814089D+03 -.934010820668103D+02
 0.000000000000000D+00 -.000000000000000D+00 0.000000000000000D+00 0.000000000000000D+00
 0.309202938626585D+03 0.000000000000000D+00 0.000000000000000D+00 0.309202938626585D+03
 0.196088518286314D+03 0.000000000000000D+00 0.000000000000000D+00 -.196088518286314D+03
 0.177617045240541D+03 0.133394338050256D+01 0.848367445378885D+02 0.934010820668103D+02
 0.187396206178500D+03 0.735938772064205D+02 -.120458711773784D+03 -.934010820668103D+02
 0.140278205493858D+03 -.749278205869231D+02 0.356219672358958D+02 0.113114420340272D+03
0.617553541463D-03 0.000000000000D+00 0.000000000000D+00 0.166201840113D-02 0.000000000000D+00  5 -1 2 25 24 21 0 0.86682388D-02 0.86250788D-01 0.22800175D+05 0.22800175D+05 0.22800175D+05 0.12276097D+01  1  2  2  1  5  1       -1 0.284198243475D+00 0.100000000000D+01
-.332001875868D-04 0.000000000000D+00 -.237156820480D-05 0.166201840113D-02 0.000000000000D+00  5 -1 2 25 24 21 2 0.86682388D-02 0.86250788D-01 0.22800175D+05 0.22800175D+05 0.22800175D+05 0.12276097D+01  1  2  3  1  5  1       -1 -.230254403463D-01 0.100000000000D+01
0.423700229360D-04 0.000000000000D+00 0.000000000000D+00 0.166201840113D-02 0.000000000000D+00  5 -1 2 25 24 21 2 0.86682388D-02 0.86250788D-01 0.22800175D+05 0.22800175D+05 0.22800175D+05 0.12276097D+01  1  2 15  1  5  1       -1 0.293850278114D-01 0.100000000000D+01
0.314808520645D-03 0.000000000000D+00 0.000000000000D+00 0.166201840113D-02 0.000000000000D+00  5 -1 2 25 24 21 2 0.15240963D-01 0.86250788D-01 0.39303415D+05 0.39303415D+05 0.39303415D+05 0.12027758D+01  1  2 12  1  5  1       -1 0.881675412937D-01 0.100000000000D+01
-.571380952614D-03 0.000000000000D+00 0.000000000000D+00 0.166201840113D-02 0.000000000000D+00  5 -1 2 25 24 21 2 0.86682388D-02 0.86250788D-01 0.22800175D+05 0.22800175D+05 0.22800175D+05 0.12276097D+01  1  2  4  1  5  1       -1 -.396271798315D+00 0.100000000000D+01
-.570188071011D-03 0.000000000000D+00 -.183746229190D-03 0.166201840113D-02 0.000000000000D+00  5 -1 2 25 24 21 2 0.16525582D-01 0.86250788D-01 0.22800175D+05 0.22800175D+05 0.22800175D+05 0.12276097D+01  1  2  5  1  5  1       -1 -.145625846011D+00 0.100000000000D+01
0.593442470433D-03 0.000000000000D+00 0.151170084533D-03 0.166201840113D-02 0.000000000000D+00  5 -1 2 25 24 21 2 0.86682388D-02 0.86250788D-01 0.22800175D+05 0.22800175D+05 0.22800175D+05 0.12276097D+01  1  2  6  1  5  1       -1 0.411572198686D+00 0.100000000000D+01
0.195974370193D-04 0.000000000000D+00 0.000000000000D+00 0.166201840113D-02 0.000000000000D+00  5 21 2 25 24 1 2 0.15240963D-01 0.86250788D-01 0.39303415D+05 0.39303415D+05 0.39303415D+05 0.12027758D+01  1  2 12  3  5  1       -1 0.739960363614D-01 0.100000000000D+01
-.294275824941D-04 0.000000000000D+00 -.128773476808D-04 0.166201840113D-02 0.000000000000D+00  5 21 2 25 24 1 2 0.16525582D-01 0.86250788D-01 0.22800175D+05 0.22800175D+05 0.22800175D+05 0.12276097D+01  1  2  5  3  5  1       -1 -.100461124782D+00 0.100000000000D+01
  </mgrwgt>
  </event>
  <event>
  4     66 0.45252658E-03 0.16749612E+03 0.75467711E-02 0.10947129E+00
       -1 -1    0    0    0  501 0.00000000E+00 0.00000000E+00 0.11330035E+03 0.11330080E+03 0.32000000E+00 0.0000E+00 0.9000E+01
        2 -1    0    0  501    0 0.00000000E+00 0.00000000E+00 -.27798107E+03 0.27798125E+03 0.32000000E+00 0.0000E+00 0.9000E+01
       25  1    1    2    0    0 0.68445027E+02 0.11185237E+03 -.15279559E+03 0.23699613E+03 0.12500000E+03 0.0000E+00 0.9000E+01
       24  1    1    2    0    0 -.68445027E+02 -.11185237E+03 -.11885128E+02 0.15428592E+03 0.80419002E+02 0.0000E+00 0.9000E+01
#aMCatNLO 1  0  0  1  1 0.18219238D+03 0.00000000D+00  -5  5  0 0.00000000D+00 0.00000000D+00 0.00000000D+00 0.00000000D+00 0.00000000D+00
  <mgrwgt>
 0.2819160424D+00    5    2    0
 0.177469649529638D+03 0.000000000000000D+00 0.000000000000000D+00 0.177469649529638D+03
 0.177469649529638D+03 0.000000000000000D+00 0.000000000000000D+00 -.177469649529638D+03
 0.190370142754679D+03 0.684450267284011D+02 0.111852366392367D+03 -.584817723826231D+02
 0.164569156304598D+03 -.684450267284011D+02 -.111852366392367D+03 0.584817723826231D+02
 0.000000000000000D+00 -.000000000000000D+00 0.000000000000000D+00 0.000000000000000D+00
 0.609956629216407D+03 0.000000000000000D+00 0.000000000000000D+00 0.609956629216407D+03
 0.219701307781204D+03 0.000000000000000D+00 0.000000000000000D+00 -.219701307781204D+03
 0.190232139420881D+03 0.124911172819495D+03 0.392472683443165D+02 -.584817723826231D+02
 0.208736491510950D+03 -.130614091481466D+02 -.183065531501652D+03 0.584817723826231D+02
 0.430689306065780D+03 -.111849763671349D+03 0.143818263157335D+03 0.390255321435203D+03
0.104481329331D-02 0.000000000000D+00 0.000000000000D+00 0.201616680976D-02 0.000000000000D+00  5 -1 2 25 24 21 0 0.17430872D-01 0.42766367D-01 0.28054950D+05 0.28054950D+05 0.28054950D+05 0.12179657D+01  1  2  2  1  5  1       -1 0.348579575755D+00 0.100000000000D+01
-.578090831078D-04 0.000000000000D+00 -.401235815196D-05 0.201616680976D-02 0.000000000000D+00  5 -1 2 25 24 21 2 0.17430872D-01 0.42766367D-01 0.28054950D+05 0.28054950D+05 0.28054950D+05 0.12179657D+01  1  2  3  1  5  1       -1 -.286107636217D-01 0.100000000000D+01
0.717114051277D-04 0.000000000000D+00 0.000000000000D+00 0.201616680976D-02 0.000000000000D+00  5 -1 2 25 24 21 2 0.17430872D-01 0.42766367D-01 0.28054950D+05 0.28054950D+05 0.28054950D+05 0.12179657D+01  1  2 15  1  5  1       -1 0.354912749137D-01 0.100000000000D+01
-.681113801881D-03 0.000000000000D+00 -.344010691112D-03 0.201616680976D-02 0.000000000000D+00  5 -1 2 25 24 21 2 0.70652540D-01 0.42766367D-01 0.28054950D+05 0.28054950D+05 0.28054950D+05 0.12179657D+01  1  2  5  1  5  1       -1 -.292288818813D-01 0.100000000000D+01
-.110689868709D-03 0.000000000000D+00 -.575540932031D-04 0.201616680976D-02 0.000000000000D+00  5 21 2 25 24 1 2 0.70652540D-01 0.42766367D-01 0.28054950D+05 0.28054950D+05 0.28054950D+05 0.12179657D+01  1  2  5  3  5  1       -1 -.443151627239D-01 0.100000000000D+01
  </mgrwgt>
  </event>
  <event>
  4     66 0.45252658E-03 0.95055034E+02 0.75467711E-02 0.11879310E+00
       -3 -1    0    0    0  501 0.00000000E+00 0.00000000E+00 0.13196363E+03 0.13196458E+03 0.50000000E+00 0.0000E+00 0.9000E+01
        4 -1    0    0  501    0 0.00000000E+00 0.00000000E+00 -.19928005E+03 0.19928608E+03 0.15500000E+01 0.0000E+00 0.9000E+01
       25  1    1    2    0    0 0.85056847E+02 0.83599415E+02 -.79074827E+00 0.17276908E+03 0.12500000E+03 0.0000E+00 0.9000E+01
       24  1    1    2    0    0 -.85056847E+02 -.83599415E+02 -.66525669E+02 0.15848158E+03 0.80419002E+02 0.0000E+00 0.9000E+01
#aMCatNLO 1  0  0  1  2 0.47255602D+01 0.00000000D+00  -5  5  0 0.00000000D+00 0.00000000D+00 0.00000000D+00 0.00000000D+00 0.00000000D+00
  <mgrwgt>
 0.4439192769D-01    8    2    0
 0.162169276330045D+03 0.000000000000000D+00 0.000000000000000D+00 0.162169276330045D+03
 0.162169276330045D+03 0.000000000000000D+00 0.000000000000000D+00 -.162169276330045D+03
 0.176286907383340D+03 0.850568472457081D+02 0.835994149415247D+02 0.350505958984614D+02
 0.148051645276750D+03 -.850568472457081D+02 -.835994149415247D+02 -.350505958984614D+02
 0.000000000000000D+00 -.000000000000000D+00 0.000000000000000D+00 -.000000000000000D+00
 0.164526112289609D+03 0.000000000000000D+00 0.000000000000000D+00 0.164526112289609D+03
 0.164572653253178D+03 0.000000000000000D+00 0.000000000000000D+00 -.164572653253178D+03
 0.177453120106826D+03 0.876268690798354D+02 0.834122136025409D+02 0.350505958984614D+02
 0.146919856050097D+03 -.829137954564209D+02 -.837555156248493D+02 -.350505958984614D+02
 0.472578938586303D+01 -.471307362341443D+01 0.343302022308360D+00 -.465409635683007D-01
0.652923690639D-03 0.000000000000D+00 0.000000000000D+00 0.222367337369D-02 0.000000000000D+00  5 -3 4 25 24 21 0 0.20302634D-01 0.30659006D-01 0.25060481D+05 0.25060481D+05 0.25060481D+05 0.12231852D+01  1  2  2  1  5  1       -3 0.292779947856D-01 0.100000000000D+01
-.362478865683D-04 0.000000000000D+00 -.250739889081D-05 0.222367337369D-02 0.000000000000D+00  5 -3 4 25 24 21 2 0.20302634D-01 0.30659006D-01 0.25060481D+05 0.25060481D+05 0.25060481D+05 0.12231852D+01  1  2  3  1  5  1       -3 -.243190156954D-02 0.100000000000D+01
0.450224118734D-04 0.000000000000D+00 0.000000000000D+00 0.222367337369D-02 0.000000000000D+00  5 -3 4 25 24 21 2 0.20302634D-01 0.30659006D-01 0.25060481D+05 0.25060481D+05 0.25060481D+05 0.12231852D+01  1  2 15  1  5  1       -3 0.302059194247D-02 0.100000000000D+01
0.142581853878D-03 0.000000000000D+00 0.000000000000D+00 0.222367337369D-02 0.000000000000D+00  5 -3 4 25 24 21 2 0.20745949D-01 0.30659006D-01 0.25818102D+05 0.25818102D+05 0.25818102D+05 0.12218012D+01  1  2 12  1  5  1       -3 0.920741448920D-02 0.100000000000D+01
-.196838055377D-02 0.000000000000D+00 0.000000000000D+00 0.222367337369D-02 0.000000000000D+00  5 -3 4 25 24 21 2 0.20302634D-01 0.30659006D-01 0.25060481D+05 0.25060481D+05 0.25060481D+05 0.12231852D+01  1  2  4  1  5  1       -3 -.132060327135D+00 0.100000000000D+01
0.186161658220D-02 0.000000000000D+00 0.000000000000D+00 0.222367337369D-02 0.792937870417D-03  5 -3 4 25 24 21 2 0.20597696D-01 0.31113377D-01 0.25818102D+05 0.25818102D+05 0.25818102D+05 0.12218012D+01  1  2 11  1  5  1       -3 0.118392657422D+00 0.100000000000D+01
0.400393284651D-05 0.000000000000D+00 0.000000000000D+00 0.222367337369D-02 0.000000000000D+00  5 21 4 25 24 3 2 0.20745949D-01 0.30659006D-01 0.25818102D+05 0.25818102D+05 0.25818102D+05 0.12218012D+01  1  2 12  3  5  1       -3 0.546414594614D-02 0.100000000000D+01
0.100539979372D-04 0.000000000000D+00 0.000000000000D+00 0.222367337369D-02 0.211002698611D-05  5 21 4 25 24 3 2 0.20597696D-01 0.31113377D-01 0.25818102D+05 0.25818102D+05 0.25818102D+05 0.12218012D+01  1  2 11  3  5  1       -3 0.135213518137D-01 0.100000000000D+01
  </mgrwgt>
  </event>
  <event>
  4     66 0.45252658E-03 0.12290043E+03 0.75467711E-02 0.11677999E+00
       -1 -1    0    0    0  501 0.00000000E+00 0.00000000E+00 0.61074265E+01 0.61158040E+01 0.32000000E+00 0.0000E+00 0.9000E+01
        2 -1    0    0  501    0 0.00000000E+00 0.00000000E+00 -.26090394E+04 0.26090394E+04 0.32000000E+00 0.0000E+00 0.9000E+01
       25  1    1    2    0    0 0.25722201E+02 -.61186568E+02 -.11913250E+04 0.11997024E+04 0.12500000E+03 0.0000E+00 0.9000E+01
       24  1    1    2    0    0 -.25722201E+02 0.61186568E+02 -.14116070E+04 0.14154529E+04 0.80419002E+02 0.0000E+00 0.9000E+01
#aMCatNLO 1  0  0  1  2 0.96280283D+02 0.00000000D+00  -5  5  0 0.00000000D+00 0.00000000D+00 0.00000000D+00 0.00000000D+00 0.00000000D+00
  <mgrwgt>
 0.4999043250D+00    3    2    0
 0.126275478081169D+03 0.000000000000000D+00 0.000000000000000D+00 0.126275478081169D+03
 0.126275478081169D+03 0.000000000000000D+00 0.000000000000000D+00 -.126275478081169D+03
 0.144406045046322D+03 0.257222009407144D+02 -.611865680824760D+02 0.286823658538559D+02
 0.108144911116016D+03 -.257222009407144D+02 0.611865680824760D+02 -.286823658538559D+02
 0.000000000000000D+00 -.000000000000000D+00 0.000000000000000D+00 -.000000000000000D+00
 0.168636352161283D+03 0.000000000000000D+00 0.000000000000000D+00 0.168636352161283D+03
 0.204327540779971D+03 0.000000000000000D+00 0.000000000000000D+00 -.204327540779971D+03
 0.167414947439726D+03 0.826168251803426D+02 -.689532211893861D+02 0.286823658538559D+02
 0.102866162564597D+03 0.127787211804805D+02 0.559308288908073D+02 -.286823658538559D+02
 0.102682782936931D+03 -.953955463608231D+02 0.130223922985788D+02 -.356911886186884D+02
0.603018289393D-03 0.000000000000D+00 0.000000000000D+00 0.255427683699D-02 0.000000000000D+00  5 -1 2 25 24 21 0 0.94025001D-03 0.40139133D+00 0.15104516D+05 0.15104516D+05 0.15104516D+05 0.12474789D+01  1  2  2  1  5  1       -1 0.489570950665D+00 0.100000000000D+01
-.334711209801D-04 0.000000000000D+00 -.231574900963D-05 0.255427683699D-02 0.000000000000D+00  5 -1 2 25 24 21 2 0.94025001D-03 0.40139133D+00 0.15104516D+05 0.15104516D+05 0.15104516D+05 0.12474789D+01  1  2  3  1  5  1       -1 -.422884564336D-01 0.100000000000D+01
0.416499398000D-04 0.000000000000D+00 0.000000000000D+00 0.255427683699D-02 0.000000000000D+00  5 -1 2 25 24 21 2 0.94025001D-03 0.40139133D+00 0.15104516D+05 0.15104516D+05 0.15104516D+05 0.12474789D+01  1  2 15  1  5  1       -1 0.526218307939D-01 0.100000000000D+01
  </mgrwgt>
  </event>
  <event>
  5     66 -.45252658E-03 0.38417368E+03 0.75467711E-02 0.10464441E+00
       -1 -1    0    0    0  502 0.00000000E+00 0.00000000E+00 0.12931388E+04 0.12931389E+04 0.32000000E+00 0.0000E+00 0.9000E+01
        2 -1    0    0  501    0 0.00000000E+00 0.00000000E+00 -.12494756E+03 0.12494797E+03 0.32000000E+00 0.0000E+00 0.9000E+01
       25  1    1    2    0    0 -.81434142E+02 -.36780704E+03 0.44192959E+03 0.59400362E+03 0.12500000E+03 0.0000E+00 0.9000E+01
       24  1    1    2    0    0 0.86502449E+02 0.35232606E+03 0.67818785E+03 0.77331901E+03 0.80419002E+02 0.0000E+00 0.9000E+01
       21  1    1    2  501  502 -.50683069E+01 0.15480983E+02 0.48073846E+02 0.50764217E+02 0.75000000E+00 0.0000E+00 0.9000E+01
#aMCatNLO 2  0  0  1  2 0.16289523D+02 0.00000000D+00  -5  5  0 0.00000000D+00 0.00000000D+00 0.00000000D+00 0.00000000D+00 0.00000000D+00
  <mgrwgt>
 -.7141809808D-01    3    2    0
 0.391995780077418D+03 0.000000000000000D+00 0.000000000000000D+00 0.391995780077418D+03
 0.391995780077418D+03 0.000000000000000D+00 0.000000000000000D+00 -.391995780077418D+03
 0.397836266449377D+03 -.840272656531825D+02 -.359886428730695D+03 -.779093829053713D+02
 0.386155293705460D+03 0.840272656531825D+02 0.359886428730695D+03 0.779093829053713D+02
 0.000000000000000D+00 -.000000000000000D+00 0.000000000000000D+00 0.000000000000000D+00
 0.407652395433002D+03 0.000000000000000D+00 0.000000000000000D+00 0.407652395433002D+03
 0.396340409745890D+03 0.000000000000000D+00 0.000000000000000D+00 -.396340409745890D+03
 0.404485365847698D+03 -.814341424274040D+02 -.367807041378171D+03 -.779093829053713D+02
 0.379675405263116D+03 0.865024492859905D+02 0.352326058829275D+03 0.779093829053713D+02
 0.198320340680785D+02 -.506830685858646D+01 0.154809825488955D+02 0.113119856871120D+02
-.623454591336D-01 0.000000000000D+00 0.000000000000D+00 0.188497486519D-02 0.000000000000D+00  5 -1 2 25 24 21 2 0.19997319D+00 0.19011681D-01 0.15397647D+06 0.15397647D+06 0.15397647D+06 0.11467347D+01  1  2 13  1  5  1       -1 -.452363617009D+00 0.100000000000D+01
-.676611455009D-01 0.000000000000D+00 0.000000000000D+00 0.188497486519D-02 0.000000000000D+00  5 -1 2 25 24 21 2 0.19130026D+00 0.19011681D-01 0.14758942D+06 0.14758942D+06 0.14758942D+06 0.11483541D+01  1  2  8  1  5  1       -1 -.564616028477D+00 0.100000000000D+01
0.129905720536D+00 0.000000000000D+00 0.000000000000D+00 0.188497486519D-02 0.498392850183D-04  5 -1 2 25 24 21 2 0.19894094D+00 0.19222394D-01 0.15397647D+06 0.15397647D+06 0.15397647D+06 0.11467347D+01  1  2  1  1  5  1       -1 0.945561547409D+00 0.100000000000D+01
  </mgrwgt>
  </event>
  <event>
  4     66 0.45252658E-03 0.43926552E+02 0.75467711E-02 0.12456992E+00
       -1 -1    0    0    0  501 0.00000000E+00 0.00000000E+00 0.36281963E+01 0.36422807E+01 0.32000000E+00 0.0000E+00 0.9000E+01
        2 -1    0    0  501    0 0.00000000E+00 0.00000000E+00 -.50129098E+04 0.50129098E+04 0.32000000E+00 0.0000E+00 0.9000E+01
       25  1    1    2    0    0 0.36690865E+02 -.26511997E+02 -.41866790E+04 0.41887893E+04 0.12500000E+03 0.0000E+00 0.9000E+01
       24  1    1    2    0    0 -.36690865E+02 0.26511997E+02 -.82260256E+03 0.82776282E+03 0.80419002E+02 0.0000E+00 0.9000E+01
#aMCatNLO 1  0  0  1  2 0.11606095D+02 0.00000000D+00  -5  5  0 0.00000000D+00 0.00000000D+00 0.00000000D+00 0.00000000D+00 0.00000000D+00
  <mgrwgt>
 0.8483318465D-01    6    2    0
 0.134993236569639D+03 0.000000000000000D+00 0.000000000000000D+00 0.134993236569639D+03
 0.134993236569639D+03 0.000000000000000D+00 0.000000000000000D+00 -.134993236569639D+03
 0.151952945586071D+03 0.366908653345154D+02 -.265119965810325D+02 -.735907066862056D+02
 0.118033527553208D+03 -.366908653345154D+02 0.265119965810325D+02 0.735907066862056D+02
 0.000000000000000D+00 -.000000000000000D+00 0.000000000000000D+00 -.000000000000000D+00
 0.140120041708801D+03 0.000000000000000D+00 0.000000000000000D+00 0.140120041708801D+03
 0.141850109236013D+03 0.000000000000000D+00 0.000000000000000D+00 -.141850109236013D+03
 0.153907097103279D+03 0.402615551874705D+02 -.320282625515240D+02 -.735907066862056D+02
 0.116328720513823D+03 -.339548593700533D+02 0.222852120608555D+02 0.735907066862056D+02
 0.117343333277121D+02 -.630669581741719D+01 0.974305049066855D+01 -.173006752721152D+01
0.224420631927D-02 0.000000000000D+00 0.000000000000D+00 0.187796433373D-02 0.000000000000D+00  5 -1 2 25 24 21 0 0.55926825D-03 0.77121797D+00 0.12681903D+05 0.12681903D+05 0.12681903D+05 0.12562207D+01  1  2  2  1  5  1       -1 0.598514288266D-01 0.100000000000D+01
-.119697650438D-03 0.000000000000D+00 -.861834317910D-05 0.187796433373D-02 0.000000000000D+00  5 -1 2 25 24 21 2 0.55926825D-03 0.77121797D+00 0.12681903D+05 0.12681903D+05 0.12681903D+05 0.12562207D+01  1  2  3  1  5  1       -1 -.503766435107D-02 0.100000000000D+01
0.152860682489D-03 0.000000000000D+00 0.000000000000D+00 0.187796433373D-02 0.000000000000D+00  5 -1 2 25 24 21 2 0.55926825D-03 0.77121797D+00 0.12681903D+05 0.12681903D+05 0.12681903D+05 0.12562207D+01  1  2 15  1  5  1       -1 0.643338284447D-02 0.100000000000D+01
0.132317537827D-02 0.000000000000D+00 0.000000000000D+00 0.187796433373D-02 0.000000000000D+00  5 -1 2 25 24 21 2 0.59410351D-03 0.77121797D+00 0.14027145D+05 0.14027145D+05 0.14027145D+05 0.12511562D+01  1  2 12  1  5  1       -1 0.504603872397D-01 0.100000000000D+01
-.964290377519D-03 0.000000000000D+00 0.000000000000D+00 0.187796433373D-02 0.000000000000D+00  5 -1 2 25 24 21 2 0.55926825D-03 0.77121797D+00 0.12681903D+05 0.12681903D+05 0.12681903D+05 0.12562207D+01  1  2  4  1  5  1       -1 -.405836809755D-01 0.100000000000D+01
0.142849685728D-04 0.000000000000D+00 0.000000000000D+00 0.187796433373D-02 0.000000000000D+00  5 21 2 25 24 1 2 0.59410351D-03 0.77121797D+00 0.14027145D+05 0.14027145D+05 0.14027145D+05 0.12511562D+01  1  2 12  3  5  1       -1 0.137093310620D-01 0.100000000000D+01
  </mgrwgt>
  </event>
  <event>
  4     66 -.45252658E-03 0.17117869E+03 0.75467711E-02 0.11594502E+00
       -1 -1    0    0    0  501 0.00000000E+00 0.00000000E+00 0.48067273E+02 0.48068338E+02 0.32000000E+00 0.0000E+00 0.9000E+01
        2 -1    0    0  501    0 0.00000000E+00 0.00000000E+00 -.76025336E+03 0.76025342E+03 0.32000000E+00 0.0000E+00 0.9000E+01
       25  1    1    2    0    0 0.14860262E+03 0.51734416E+02 -.31561690E+03 0.37416335E+03 0.12500000E+03 0.0000E+00 0.9000E+01
       24  1    1    2    0    0 -.14860262E+03 -.51734416E+02 -.39656919E+03 0.43415841E+03 0.80419002E+02 0.0000E+00 0.9000E+01
#aMCatNLO 1  0  0  1  2 0.14744504D+00 0.00000000D+00  -5  5  0 0.00000000D+00 0.00000000D+00 0.00000000D+00 0.00000000D+00 0.00000000D+00
  <mgrwgt>
 -.2074905362D+00    9    2    0
 0.191164231484428D+03 0.000000000000000D+00 0.000000000000000D+00 0.191164231484428D+03
 0.191164231484428D+03 0.000000000000000D+00 0.000000000000000D+00 -.191164231484428D+03
 0.203140561960215D+03 0.148602621268395D+03 0.517344160484201D+02 0.296967853782687D+02
 0.179187901008641D+03 -.148602621268395D+03 -.517344160484201D+02 -.296967853782687D+02
 0.000000000000000D+00 -.000000000000000D+00 -.000000000000000D+00 0.000000000000000D+00
 0.191253213865872D+03 0.000000000000000D+00 0.000000000000000D+00 0.191253213865872D+03
 0.191225335082511D+03 0.000000000000000D+00 0.000000000000000D+00 -.191225335082511D+03
 0.203198145934665D+03 0.148680966638028D+03 0.517354579477552D+02 0.296967853782687D+02
 0.179130345465295D+03 -.148533534629782D+03 -.517334972790892D+02 -.296967853782687D+02
 0.150057548422848D+00 -.147432008245778D+00 -.196066866595394D-02 0.278787833607287D-01
0.227924153508D-03 0.000000000000D+00 0.000000000000D+00 0.214170678119D-02 0.000000000000D+00  5 -1 2 25 24 21 0 0.73950522D-02 0.11696214D+00 0.35658303D+05 0.35658303D+05 0.35658303D+05 0.12071007D+01  1  2  2  1  5  1       -1 0.940814714674D-01 0.100000000000D+01
-.126601372728D-04 0.000000000000D+00 -.875288763280D-06 0.214170678119D-02 0.000000000000D+00  5 -1 2 25 24 21 2 0.73950522D-02 0.11696214D+00 0.35658303D+05 0.35658303D+05 0.35658303D+05 0.12071007D+01  1  2  3  1  5  1       -1 -.761446158088D-02 0.100000000000D+01
0.156394045490D-04 0.000000000000D+00 0.000000000000D+00 0.214170678119D-02 0.000000000000D+00  5 -1 2 25 24 21 2 0.73950522D-02 0.11696214D+00 0.35658303D+05 0.35658303D+05 0.35658303D+05 0.12071007D+01  1  2 15  1  5  1       -1 0.940634706560D-02 0.100000000000D+01
-.445963512946D-01 0.000000000000D+00 0.000000000000D+00 0.214170678119D-02 0.000000000000D+00  5 -1 2 25 24 21 2 0.73950522D-02 0.11696214D+00 0.35658303D+05 0.35658303D+05 0.35658303D+05 0.12071007D+01  1  2  4  1  5  1       -1 -.268225530468D+02 0.100000000000D+01
-.500167098457D+00 0.000000000000D+00 -.337813979788D-01 0.214170678119D-02 0.000000000000D+00  5 -1 2 25 24 21 2 0.74008714D-02 0.11696214D+00 0.35658303D+05 0.35658303D+05 0.35658303D+05 0.12071007D+01  1  2  5  1  5  1       -1 -.300467984492D+03 0.100000000000D+01
0.500193526449D+00 0.000000000000D+00 0.337813875279D-01 0.214170678119D-02 0.000000000000D+00  5 -1 2 25 24 21 2 0.73950522D-02 0.11696214D+00 0.35658303D+05 0.35658303D+05 0.35658303D+05 0.12071007D+01  1  2  6  1  5  1       -1 0.300842266405D+03 0.100000000000D+01
0.445963552249D-01 0.000000000000D+00 0.000000000000D+00 0.214170678119D-02 0.765526756428D+00  5 -1 2 25 24 21 2 0.73984944D-02 0.11699953D+00 0.35686122D+05 0.35686122D+05 0.35686122D+05 0.12070659D+01  1  2 11  1  5  1       -1 0.267918410310D+02 0.100000000000D+01
-.736731500844D-04 0.000000000000D+00 -.497642994337D-05 0.214170678119D-02 0.000000000000D+00  5 21 2 25 24 1 2 0.74008714D-02 0.11696214D+00 0.35658303D+05 0.35658303D+05 0.35658303D+05 0.12071007D+01  1  2  5  3  5  1       -1 -.705361987459D+00 0.100000000000D+01
0.610204868478D-05 0.000000000000D+00 0.000000000000D+00 0.214170678119D-02 0.667551776678D-04  5 21 2 25 24 1 2 0.73984944D-02 0.11699953D+00 0.35686122D+05 0.35686122D+05 0.35686122D+05 0.12070659D+01  1  2 11  3  5  1       -1 0.584281966652D-01 0.100000000000D+01
  </mgrwgt>
  </event>
  <event>
  4     66 0.45252658E-03 0.11255912E+03 0.75467711E-02 0.11269680E+00
       -1 -1    0    0    0  501 0.00000000E+00 0.00000000E+00 0.69709407E+02 0.69710142E+02 0.32000000E+00 0.0000E+00 0.9000E+01
        2 -1    0    0  501    0 0.00000000E+00 0.00000000E+00 -.25324405E+03 0.25324425E+03 0.32000000E+00 0.0000E+00 0.9000E+01
       25  1    1    2    0    0 -.44931464E+02 -.42807092E+01 -.18879740E+02 0.13423340E+03 0.12500000E+03 0.0000E+00 0.9000E+01
       24  1    1    2    0    0 0.44931464E+02 0.42807092E+01 -.16465490E+03 0.18872099E+03 0.80419002E+02 0.0000E+00 0.9000E+01
#aMCatNLO 1  0  0  1  1 0.17654116D+03 0.00000000D+00  -5  5  0 0.00000000D+00 0.00000000D+00 0.00000000D+00 0.00000000D+00 0.00000000D+00
  <mgrwgt>
 0.3742088905D+00    3    2    0
 0.132867015740842D+03 0.000000000000000D+00 0.000000000000000D+00 0.132867015740842D+03
 0.132867015740842D+03 0.000000000000000D+00 0.000000000000000D+00 -.132867015740842D+03
 0.150098124595375D+03 -.449314637464536D+02 -.428070920385840D+01 0.697659379737831D+02
 0.115635906886309D+03 0.449314637464536D+02 0.428070920385840D+01 -.697659379737831D+02
 0.000000000000000D+00 0.000000000000000D+00 0.000000000000000D+00 -.000000000000000D+00
 0.223544779573088D+03 0.000000000000000D+00 0.000000000000000D+00 0.223544779573088D+03
 0.281206376627460D+03 0.000000000000000D+00 0.000000000000000D+00 -.281206376627460D+03
 0.207089146947860D+03 -.136655957724270D+03 -.609817833512052D+02 0.697659379737831D+02
 0.111942757627387D+03 -.135099744169979D+02 -.318458713296344D+02 -.697659379737831D+02
 0.185719251625301D+03 0.150165932141268D+03 0.928276546808397D+02 -.576615970543728D+02
0.476378643893D-03 0.000000000000D+00 0.000000000000D+00 0.194922946312D-02 0.000000000000D+00  5 -1 2 25 24 21 0 0.10724596D-01 0.38960695D-01 0.12669556D+05 0.12669556D+05 0.12669556D+05 0.12562699D+01  1  2  2  1  5  1       -1 0.365702728003D+00 0.100000000000D+01
-.255801653963D-04 0.000000000000D+00 -.182941942593D-05 0.194922946312D-02 0.000000000000D+00  5 -1 2 25 24 21 2 0.10724596D-01 0.38960695D-01 0.12669556D+05 0.12669556D+05 0.12669556D+05 0.12562699D+01  1  2  3  1  5  1       -1 -.309916837815D-01 0.100000000000D+01
0.326010502466D-04 0.000000000000D+00 0.000000000000D+00 0.194922946312D-02 0.000000000000D+00  5 -1 2 25 24 21 2 0.10724596D-01 0.38960695D-01 0.12669556D+05 0.12669556D+05 0.12669556D+05 0.12562699D+01  1  2 15  1  5  1       -1 0.394978462623D-01 0.100000000000D+01
  </mgrwgt>
  </event>
  <event>
  5     66 0.45252658E-03 0.12576181E+03 0.75467711E-02 0.11235926E+00
       21 -1    0    0  502  501 0.00000000E+00 0.00000000E+00 0.10032383E+03 0.10032663E+03 0.75000000E+00 0.0000E+00 0.9000E+01
        2 -1    0    0  501    0 0.00000000E+00 0.00000000E+00 -.13418388E+04 0.13418388E+04 0.32000000E+00 0.0000E+00 0.9000E+01
       25  1    1    2    0    0 -.68801524E+01 -.59747568E+02 -.15827757E+03 0.21046115E+03 0.12500000E+03 0.0000E+00 0.9000E+01
       24  1    1    2    0    0 0.13443343E+03 -.47184611E+02 -.10491167E+04 0.10617965E+04 0.80419002E+02 0.0000E+00 0.9000E+01
        1  1    1    2  502    0 -.12755328E+03 0.10693218E+03 -.34120654E+02 0.16990777E+03 0.32000000E+00 0.0000E+00 0.9000E+01
#aMCatNLO 2  0  0  1  2 0.16644618D+03 0.00000000D+00  -5  5  0 0.00000000D+00 0.00000000D+00 0.00000000D+00 0.00000000D+00 0.00000000D+00
  <mgrwgt>
 0.1789638626D+00    1    2    0
 0.182437852677442D+03 0.000000000000000D+00 0.000000000000000D+00 0.182437852677442D+03
 0.182437852677442D+03 0.000000000000000D+00 0.000000000000000D+00 -.182437852677442D+03
 0.194987035743389D+03 -.711845319630239D+02 -.583905725387167D+01 0.131505178329923D+03
 0.169888669611496D+03 0.711845319630239D+02 0.583905725387167D+01 -.131505178329923D+03
 0.000000000000000D+00 -.000000000000000D+00 0.000000000000000D+00 0.000000000000000D+00
 0.620305618986222D+03 0.000000000000000D+00 0.000000000000000D+00 0.620305618986222D+03
 0.217022676671534D+03 0.000000000000000D+00 0.000000000000000D+00 -.217022676671534D+03
 0.191143193280566D+03 -.688015241587041D+01 -.597475682571393D+02 0.131505178329923D+03
 0.209903700147162D+03 0.134433433132475D+03 -.471846109418176D+02 -.131505178329923D+03
 0.436281402230027D+03 -.127553280716604D+03 0.106932179198957D+03 0.403282942314688D+03
0.162011063237D-03 0.000000000000D+00 0.000000000000D+00 0.113542207667D-02 0.114685900164D-06  5 21 2 25 24 1 2 0.15434650D-01 0.20643690D+00 0.54935188D+05 0.54935188D+05 0.54935188D+05 0.11882542D+01  1  2  1  3  5  1       -1 0.178963862584D+00 0.100000000000D+01
  </mgrwgt>
  </event>
  <event>
  4     66 0.45252658E-03 0.80998280E+02 0.75467711E-02 0.11814448E+00
       -1 -1    0    0    0  501 0.00000000E+00 0.00000000E+00 0.71808637E+01 0.71879903E+01 0.32000000E+00 0.0000E+00 0.9000E+01
        2 -1    0    0  501    0 0.00000000E+00 0.00000000E+00 -.31279910E+04 0.31279910E+04 0.32000000E+00 0.0000E+00 0.9000E+01
       25  1    1    2    0    0 -.94056932E+02 -.43884637E+02 -.14078628E+04 0.14172068E+04 0.12500000E+03 0.0000E+00 0.9000E+01
       24  1    1    2    0    0 0.94056932E+02 0.43884637E+02 -.17129474E+04 0.17179722E+04 0.80419002E+02 0.0000E+00 0.9000E+01
#aMCatNLO 1  0  0  1  2 0.37032904D+02 0.00000000D+00  -5  5  0 0.00000000D+00 0.00000000D+00 0.00000000D+00 0.00000000D+00 0.00000000D+00
  <mgrwgt>
 0.3587669020D+00    9    2    0
 0.149909553946201D+03 0.000000000000000D+00 0.000000000000000D+00 0.149909553946201D+03
 0.149909553946201D+03 0.000000000000000D+00 0.000000000000000D+00 -.149909553946201D+03
 0.165181736079629D+03 -.940569316046369D+02 -.438846372417850D+02 0.297899003952316D+02
 0.134637371812773D+03 0.940569316046369D+02 0.438846372417850D+02 -.297899003952316D+02
 0.000000000000000D+00 -.000000000000000D+00 0.000000000000000D+00 0.000000000000000D+00
 0.189587740575721D+03 0.000000000000000D+00 0.000000000000000D+00 0.189587740575721D+03
 0.159945203380379D+03 0.000000000000000D+00 0.000000000000000D+00 -.159945203380379D+03
 0.155255991482097D+03 -.743969228414570D+02 -.453550724534033D+02 0.297899003952316D+02
 0.146841564711577D+03 0.111326678212902D+03 0.425929774152606D+02 -.297899003952316D+02
 0.474353877624260D+02 -.369297553714450D+02 0.276209503814267D+01 0.296425371953417D+02
0.952905529261D-03 0.000000000000D+00 0.000000000000D+00 0.232310909598D-02 0.000000000000D+00  5 -1 2 25 24 21 0 0.11052977D-02 0.48122994D+00 0.21575738D+05 0.21575738D+05 0.21575738D+05 0.12302165D+01  1  2  2  1  5  1       -1 0.312503401191D+00 0.100000000000D+01
-.529124886763D-04 0.000000000000D+00 -.365940813815D-05 0.232310909598D-02 0.000000000000D+00  5 -1 2 25 24 21 2 0.11052977D-02 0.48122994D+00 0.21575738D+05 0.21575738D+05 0.21575738D+05 0.12302165D+01  1  2  3  1  5  1       -1 -.262619030552D-01 0.100000000000D+01
0.656916694244D-04 0.000000000000D+00 0.000000000000D+00 0.232310909598D-02 0.000000000000D+00  5 -1 2 25 24 21 2 0.11052977D-02 0.48122994D+00 0.21575738D+05 0.21575738D+05 0.21575738D+05 0.12302165D+01  1  2 15  1  5  1       -1 0.326045570169D-01 0.100000000000D+01
0.994405033269D-03 0.000000000000D+00 0.000000000000D+00 0.232310909598D-02 0.000000000000D+00  5 -1 2 25 24 21 2 0.14276129D-02 0.48122994D+00 0.27754256D+05 0.27754256D+05 0.27754256D+05 0.12184610D+01  1  2 12  1  5  1       -1 0.334256154174D+00 0.100000000000D+01
-.103066520155D-02 0.000000000000D+00 0.000000000000D+00 0.232310909598D-02 0.000000000000D+00  5 -1 2 25 24 21 2 0.11052977D-02 0.48122994D+00 0.21575738D+05 0.21575738D+05 0.21575738D+05 0.12302165D+01  1  2  4  1  5  1       -1 -.511547089969D+00 0.100000000000D+01
-.157204759328D-02 0.000000000000D+00 -.419334511875D-03 0.232310909598D-02 0.000000000000D+00  5 -1 2 25 24 21 2 0.15376018D-02 0.48122994D+00 0.21575738D+05 0.21575738D+05 0.21575738D+05 0.12302165D+01  1  2  5  1  5  1       -1 -.485961121073D+00 0.100000000000D+01
0.164204435207D-02 0.000000000000D+00 0.397480016693D-03 0.232310909598D-02 0.000000000000D+00  5 -1 2 25 24 21 2 0.11052977D-02 0.48122994D+00 0.21575738D+05 0.21575738D+05 0.21575738D+05 0.12302165D+01  1  2  6  1  5  1       -1 0.814991142266D+00 0.100000000000D+01
0.342359018241D-04 0.000000000000D+00 0.000000000000D+00 0.232310909598D-02 0.000000000000D+00  5 21 2 25 24 1 2 0.14276129D-02 0.48122994D+00 0.27754256D+05 0.27754256D+05 0.27754256D+05 0.12184610D+01  1  2 12  3  5  1       -1 0.251377044580D+00 0.100000000000D+01
-.542287998435D-04 0.000000000000D+00 -.173666979638D-04 0.232310909598D-02 0.000000000000D+00  5 21 2 25 24 1 2 0.15376018D-02 0.48122994D+00 0.21575738D+05 0.21575738D+05 0.21575738D+05 0.12302165D+01  1  2  5  3  5  1       -1 -.363195283143D+00 0.100000000000D+01
  </mgrwgt>
  </event>
  <event>
  4     66 0.45252658E-03 0.10422155E+03 0.75467711E-02 0.12649237E+00
       -1 -1    0    0    0  501 0.00000000E+00 0.00000000E+00 0.31329415E+02 0.31331049E+02 0.32000000E+00 0.0000E+00 0.9000E+01
        2 -1    0    0  501    0 0.00000000E+00 0.00000000E+00 -.44227386E+03 0.44227397E+03 0.32000000E+00 0.0000E+00 0.9000E+01
       25  1    1    2    0    0 0.38525681E+01 0.16844443E+02 -.34756976E+03 0.36976792E+03 0.12500000E+03 0.0000E+00 0.9000E+01
       24  1    1    2    0    0 -.38525681E+01 -.16844443E+02 -.63374687E+02 0.10383711E+03 0.80419002E+02 0.0000E+00 0.9000E+01
#aMCatNLO 1  0  0  1  1 0.68051900D+01 0.00000000D+00  -5  5  0 0.00000000D+00 0.00000000D+00 0.00000000D+00 0.00000000D+00 0.00000000D+00
  <mgrwgt>
 0.1671281947D-01    6    2    0
 0.117714041666026D+03 0.000000000000000D+00 0.000000000000000D+00 0.117714041666026D+03
 0.117714041666026D+03 0.000000000000000D+00 0.000000000000000D+00 -.117714041666026D+03
 0.137163259270014D+03 0.385256810711748D+01 0.168444429747997D+02 -.537604143717451D+02
 0.982648240620393D+02 -.385256810711748D+01 -.168444429747997D+02 0.537604143717451D+02
 0.000000000000000D+00 -.000000000000000D+00 0.000000000000000D+00 -.000000000000000D+00
 0.119853393311214D+03 0.000000000000000D+00 0.000000000000000D+00 0.119853393311214D+03
 0.123302265232836D+03 0.000000000000000D+00 0.000000000000000D+00 -.123302265232836D+03
 0.137179881444353D+03 0.763218482628032D+01 0.156488809325928D+02 -.537604143717451D+02
 0.983465354025598D+02 -.114385966456367D+01 -.177012571011908D+02 0.537604143717451D+02
 0.762924169713770D+01 -.648832516171665D+01 0.205237616859796D+01 -.344887192162166D+01
0.229253352333D-03 0.000000000000D+00 0.000000000000D+00 0.232147093911D-02 0.000000000000D+00  5 -1 2 25 24 21 0 0.48200446D-02 0.68042267D-01 0.10862132D+05 0.10862132D+05 0.10862132D+05 0.12641267D+01  1  2  2  1  5  1       -1 0.320565286556D+00 0.100000000000D+01
-.125067951638D-04 0.000000000000D+00 -.880393236754D-06 0.232147093911D-02 0.000000000000D+00  5 -1 2 25 24 21 2 0.48200446D-02 0.68042267D-01 0.10862132D+05 0.10862132D+05 0.10862132D+05 0.12641267D+01  1  2  3  1  5  1       -1 -.279465393817D-01 0.100000000000D+01
0.156703029474D-04 0.000000000000D+00 0.000000000000D+00 0.232147093911D-02 0.000000000000D+00  5 -1 2 25 24 21 2 0.48200446D-02 0.68042267D-01 0.10862132D+05 0.10862132D+05 0.10862132D+05 0.12641267D+01  1  2 15  1  5  1       -1 0.350154242321D-01 0.100000000000D+01
-.154567796119D-03 0.000000000000D+00 0.000000000000D+00 0.232147093911D-02 0.000000000000D+00  5 -1 2 25 24 21 2 0.48200446D-02 0.68042267D-01 0.10862132D+05 0.10862132D+05 0.10862132D+05 0.12641267D+01  1  2  4  1  5  1       -1 -.345383045362D+00 0.100000000000D+01
0.127708141620D-04 0.000000000000D+00 0.000000000000D+00 0.232147093911D-02 0.425567220721D-03  5 -1 2 25 24 21 2 0.49076448D-02 0.71272428D-01 0.11595409D+05 0.11595409D+05 0.11595409D+05 0.12607736D+01  1  2 11  1  5  1       -1 0.263758508056D-01 0.100000000000D+01
0.221453098550D-06 0.000000000000D+00 0.000000000000D+00 0.232147093911D-02 0.143732590633D-05  5 21 2 25 24 1 2 0.49076448D-02 0.71272428D-01 0.11595409D+05 0.11595409D+05 0.11595409D+05 0.12607736D+01  1  2 11  3  5  1       -1 0.808584262242D-02 0.100000000000D+01
  </mgrwgt>
  </event>
  <event>
  4     66 0.45252658E-03 0.10725944E+03 0.75467711E-02 0.10336805E+00
       -1 -1    0    0    0  501 0.00000000E+00 0.00000000E+00 0.30155019E+03 0.30155036E+03 0.32000000E+00 0.0000E+00 0.9000E+01
        2 -1    0    0  501    0 0.00000000E+00 0.00000000E+00 -.39559820E+02 0.39561114E+02 0.32000000E+00 0.0000E+00 0.9000E+01
       25  1    1    2    0    0 -.25783059E+02 -.15789833E+02 0.12456610E+03 0.17904133E+03 0.12500000E+03 0.0000E+00 0.9000E+01
       24  1    1    2    0    0 0.25783059E+02 0.15789833E+02 0.13742427E+03 0.16207014E+03 0.80419002E+02 0.0000E+00 0.9000E+01
#aMCatNLO 1  0  0  1  1 0.40400446D+03 0.00000000D+00  -5  5  0 0.00000000D+00 0.00000000D+00 0.00000000D+00 0.00000000D+00 0.00000000D+00
  <mgrwgt>
 0.3657284480D+00    3    2    0
 0.109222345813186D+03 0.000000000000000D+00 0.000000000000000D+00 0.109222345813186D+03
 0.109222345813186D+03 0.000000000000000D+00 0.000000000000000D+00 -.109222345813186D+03
 0.130183679268917D+03 -.257830594116555D+02 -.157898332391996D+02 -.202164626392836D+02
 0.882610123574547D+02 0.257830594116555D+02 0.157898332391996D+02 0.202164626392836D+02
 0.000000000000000D+00 0.000000000000000D+00 0.000000000000000D+00 -.000000000000000D+00
 0.350857059794669D+03 0.000000000000000D+00 0.000000000000000D+00 0.350857059794669D+03
 0.566265825987033D+03 0.000000000000000D+00 0.000000000000000D+00 -.566265825987033D+03
 0.323635836057565D+03 -.168140168034321D+03 -.245835987830147D+03 -.202164626392836D+02
 0.135643693126651D+03 -.444528502468262D+02 -.977099497183085D+02 0.202164626392836D+02
 0.457843356597485D+03 0.212593018281147D+03 0.343545937548455D+03 -.215408766192365D+03
0.587657052422D-03 0.000000000000D+00 0.000000000000D+00 0.294628127148D-02 0.000000000000D+00  5 -1 2 25 24 21 0 0.46392449D-01 0.60862388D-02 0.11504587D+05 0.11504587D+05 0.11504587D+05 0.12611757D+01  1  2  2  1  5  1       -1 0.358072362678D+00 0.100000000000D+01
-.326345590863D-04 0.000000000000D+00 -.225675781496D-05 0.294628127148D-02 0.000000000000D+00  5 -1 2 25 24 21 2 0.46392449D-01 0.60862388D-02 0.11504587D+05 0.11504587D+05 0.11504587D+05 0.12611757D+01  1  2  3  1  5  1       -1 -.316282966085D-01 0.100000000000D+01
0.405342247290D-04 0.000000000000D+00 0.000000000000D+00 0.294628127148D-02 0.000000000000D+00  5 -1 2 25 24 21 2 0.46392449D-01 0.60862388D-02 0.11504587D+05 0.11504587D+05 0.11504587D+05 0.12611757D+01  1  2 15  1  5  1       -1 0.392843819073D-01 0.100000000000D+01
  </mgrwgt>
  </event>
  <event>
  4     66 0.45252658E-03 0.11976297E+03 0.75467711E-02 0.11510904E+00
       -1 -1    0    0    0  501 0.00000000E+00 0.00000000E+00 0.48934570E+02 0.48935617E+02 0.32000000E+00 0.0000E+00 0.9000E+01
        2 -1    0    0  501    0 0.00000000E+00 0.00000000E+00 -.56356939E+03 0.56356948E+03 0.32000000E+00 0.0000E+00 0.9000E+01
       25  1    1    2    0    0 -.67018716E+02 0.98979129E+02 -.18769776E+03 0.25523288E+03 0.12500000E+03 0.0000E+00 0.9000E+01
       24  1    1    2    0    0 0.67018716E+02 -.98979129E+02 -.32693706E+03 0.35727221E+03 0.80419002E+02 0.0000E+00 0.9000E+01
#aMCatNLO 1  0  0  1  2 0.71680730D+02 0.00000000D+00  -5  5  0 0.00000000D+00 0.00000000D+00 0.00000000D+00 0.00000000D+00 0.00000000D+00
  <mgrwgt>
 0.2911767517D+00    9    2    0
 0.166067378013548D+03 0.000000000000000D+00 0.000000000000000D+00 0.166067378013548D+03
 0.166067378013548D+03 0.000000000000000D+00 0.000000000000000D+00 -.166067378013548D+03
 0.179853625732956D+03 -.670187160134193D+02 0.989791294809630D+02 0.493350820450688D+02
 0.152281130294140D+03 0.670187160134193D+02 -.989791294809630D+02 -.493350820450688D+02
 0.000000000000000D+00 0.000000000000000D+00 0.000000000000000D+00 0.000000000000000D+00
 0.303674702245474D+03 0.000000000000000D+00 0.000000000000000D+00 0.303674702245474D+03
 0.179492411078168D+03 0.000000000000000D+00 0.000000000000000D+00 -.179492411078168D+03
 0.173465558079860D+03 -.868866863146613D+02 0.669481385911599D+02 0.493350820450688D+02
 0.166316170710095D+03 0.491032390045019D+02 -.127862325507446D+03 -.493350820450688D+02
 0.143385384533687D+03 0.377834473101594D+02 0.609141869162860D+02 0.124182291167306D+03
0.559190317782D-03 0.000000000000D+00 0.000000000000D+00 0.211270874722D-02 0.000000000000D+00  5 -1 2 25 24 21 0 0.75284829D-02 0.86703070D-01 0.25125872D+05 0.25125872D+05 0.25125872D+05 0.12230639D+01  1  2  2  1  5  1       -1 0.317421119790D+00 0.100000000000D+01
-.309842212706D-04 0.000000000000D+00 -.214743805848D-05 0.211270874722D-02 0.000000000000D+00  5 -1 2 25 24 21 2 0.75284829D-02 0.86703070D-01 0.25125872D+05 0.25125872D+05 0.25125872D+05 0.12230639D+01  1  2  3  1  5  1       -1 -.263096477657D-01 0.100000000000D+01
0.385134582431D-04 0.000000000000D+00 0.000000000000D+00 0.211270874722D-02 0.000000000000D+00  5 -1 2 25 24 21 2 0.75284829D-02 0.86703070D-01 0.25125872D+05 0.25125872D+05 0.25125872D+05 0.12230639D+01  1  2 15  1  5  1       -1 0.327029526340D-01 0.100000000000D+01
0.529222499930D-03 0.000000000000D+00 0.000000000000D+00 0.211270874722D-02 0.000000000000D+00  5 -1 2 25 24 21 2 0.13843788D-01 0.86703070D-01 0.39365176D+05 0.39365176D+05 0.39365176D+05 0.12027064D+01  1  2 12  1  5  1       -1 0.171462596107D+00 0.100000000000D+01
-.659626863332D-03 0.000000000000D+00 0.000000000000D+00 0.211270874722D-02 0.000000000000D+00  5 -1 2 25 24 21 2 0.75284829D-02 0.86703070D-01 0.25125872D+05 0.25125872D+05 0.25125872D+05 0.12230639D+01  1  2  4  1  5  1       -1 -.560109298196D+00 0.100000000000D+01
-.720514780889D-03 0.000000000000D+00 -.164164633471D-03 0.211270874722D-02 0.000000000000D+00  5 -1 2 25 24 21 2 0.14784184D-01 0.86703070D-01 0.25125872D+05 0.25125872D+05 0.25125872D+05 0.12230639D+01  1  2  5  1  5  1       -1 -.216667387413D+00 0.100000000000D+01
0.697699176511D-03 0.000000000000D+00 0.132765998524D-03 0.211270874722D-02 0.000000000000D+00  5 -1 2 25 24 21 2 0.75284829D-02 0.86703070D-01 0.25125872D+05 0.25125872D+05 0.25125872D+05 0.12230639D+01  1  2  6  1  5  1       -1 0.592437661095D+00 0.100000000000D+01
0.352034097859D-04 0.000000000000D+00 0.000000000000D+00 0.211270874722D-02 0.000000000000D+00  5 21 2 25 24 1 2 0.13843788D-01 0.86703070D-01 0.39365176D+05 0.39365176D+05 0.39365176D+05 0.12027064D+01  1  2 12  3  5  1       -1 0.157341801758D+00 0.100000000000D+01
-.429707117888D-04 0.000000000000D+00 -.119999062893D-04 0.211270874722D-02 0.000000000000D+00  5 21 2 25 24 1 2 0.14784184D-01 0.86703070D-01 0.25125872D+05 0.25125872D+05 0.25125872D+05 0.12230639D+01  1  2  5  3  5  1       -1 -.177103046287D+00 0.100000000000D+01
  </mgrwgt>
  </event>
  <event>
  4     66 0.45252658E-03 0.11237099E+03 0.75467711E-02 0.11609057E+00
       -1 -1    0    0    0  501 0.00000000E+00 0.00000000E+00 0.16327625E+02 0.16330761E+02 0.32000000E+00 0.0000E+00 0.9000E+01
        2 -1    0    0  501    0 0.00000000E+00 0.00000000E+00 -.21511211E+04 0.21511211E+04 0.32000000E+00 0.0000E+00 0.9000E+01
       25  1    1    2    0    0 0.11518805E+03 0.82528580E+02 -.76446634E+03 0.78747256E+03 0.12500000E+03 0.0000E+00 0.9000E+01
       24  1    1    2    0    0 -.11518805E+03 -.82528580E+02 -.13703271E+04 0.13799793E+04 0.80419002E+02 0.0000E+00 0.9000E+01
#aMCatNLO 1  0  0  2  1 0.22117639D+02 0.00000000D+00  -5  5  0 0.00000000D+00 0.00000000D+00 0.00000000D+00 0.00000000D+00 0.00000000D+00
  <mgrwgt>
 0.5830584375D+00    9    2    0
 0.187419643022639D+03 0.000000000000000D+00 0.000000000000000D+00 0.187419643022639D+03
 0.187419643022639D+03 0.000000000000000D+00 0.000000000000000D+00 -.187419643022639D+03
 0.199635257002497D+03 0.115188051575459D+03 0.825285795111687D+02 0.644203552968397D+02
 0.175204029042781D+03 -.115188051575459D+03 -.825285795111687D+02 -.644203552968397D+02
 0.000000000000000D+00 -.000000000000000D+00 0.000000000000000D+00 -.000000000000000D+00
 0.191686211176997D+03 0.000000000000000D+00 0.000000000000000D+00 0.191686211176997D+03
 0.218780989681797D+03 0.000000000000000D+00 0.000000000000000D+00 -.218780989681797D+03
 0.203226823210130D+03 0.125308158642397D+03 0.763152990766738D+02 0.644203552968397D+02
 0.172264428802970D+03 -.106459461399072D+03 -.878875325543483D+02 -.644203552968397D+02
 0.349759488456932D+02 -.188486972433255D+02 0.115722334776745D+02 -.270947785048003D+02
0.839728144671D-03 0.000000000000D+00 0.000000000000D+00 0.195881500125D-02 0.000000000000D+00  5 -1 2 25 24 21 0 0.25121854D-02 0.33094194D+00 0.30956039D+05 0.30956039D+05 0.30956039D+05 0.12134711D+01  1  2  2  2  5  2        2 0.290166826701D+00 0.100000000000D+01
-.464250867856D-04 0.000000000000D+00 -.322477718104D-05 0.195881500125D-02 0.000000000000D+00  5 -1 2 25 24 21 2 0.25121854D-02 0.33094194D+00 0.30956039D+05 0.30956039D+05 0.30956039D+05 0.12134711D+01  1  2  3  2  5  2        2 -.236222164772D-01 0.100000000000D+01
0.577116303210D-04 0.000000000000D+00 0.000000000000D+00 0.195881500125D-02 0.000000000000D+00  5 -1 2 25 24 21 2 0.25121854D-02 0.33094194D+00 0.30956039D+05 0.30956039D+05 0.30956039D+05 0.12134711D+01  1  2 15  2  5  2        2 0.293650851100D-01 0.100000000000D+01
0.252558010486D-02 0.000000000000D+00 0.000000000000D+00 0.195881500125D-02 0.000000000000D+00  5 -1 2 25 24 21 2 0.25121854D-02 0.38966781D+00 0.35086837D+05 0.35086837D+05 0.35086837D+05 0.12078233D+01  1  2 12  2  5  2        2 0.797576853825D+00 0.100000000000D+01
-.256385648173D-02 0.000000000000D+00 0.000000000000D+00 0.195881500125D-02 0.000000000000D+00  5 -1 2 25 24 21 2 0.25121854D-02 0.33094194D+00 0.30956039D+05 0.30956039D+05 0.30956039D+05 0.12134711D+01  1  2  4  2  5  2        2 -.130455271107D+01 0.100000000000D+01
-.409555789885D-02 0.000000000000D+00 -.606009880522D-03 0.195881500125D-02 0.000000000000D+00  5 -1 2 25 24 21 2 0.25121854D-02 0.38906749D+00 0.30956039D+05 0.30956039D+05 0.30956039D+05 0.12134711D+01  1  2  5  2  5  2        2 -.131372149197D+01 0.100000000000D+01
0.414705548849D-02 0.000000000000D+00 0.598162111009D-03 0.195881500125D-02 0.000000000000D+00  5 -1 2 25 24 21 2 0.25121854D-02 0.33094194D+00 0.30956039D+05 0.30956039D+05 0.30956039D+05 0.12134711D+01  1  2  6  2  5  2        2 0.211012298037D+01 0.100000000000D+01
0.616950572696D-04 0.000000000000D+00 0.000000000000D+00 0.195881500125D-02 0.000000000000D+00  5 -1 21 25 24 -2 2 0.25121854D-02 0.38966781D+00 0.35086837D+05 0.35086837D+05 0.35086837D+05 0.12078233D+01  1  2 12  4  5  2        2 0.392741722485D-02 0.100000000000D+01
-.944764425805D-04 0.000000000000D+00 -.146921001935D-04 0.195881500125D-02 0.000000000000D+00  5 -1 21 25 24 -2 2 0.25121854D-02 0.38906749D+00 0.30956039D+05 0.30956039D+05 0.30956039D+05 0.12134711D+01  1  2  5  4  5  2        2 -.620430617096D-02 0.100000000000D+01
  </mgrwgt>
  </event>
  <event>
  4     66 0.45252658E-03 0.11029591E+03 0.75467711E-02 0.11076780E+00
       -1 -1    0    0    0  501 0.00000000E+00 0.00000000E+00 0.92847032E+02 0.92847584E+02 0.32000000E+00 0.0000E+00 0.9000E+01
        2 -1    0    0  501    0 0.00000000E+00 0.00000000E+00 -.31446744E+03 0.31446761E+03 0.32000000E+00 0.0000E+00 0.9000E+01
       25  1    1    2    0    0 0.26139619E+02 0.29439195E+02 -.27389520E+03 0.30363387E+03 0.12500000E+03 0.0000E+00 0.9000E+01
       24  1    1    2    0    0 -.26139619E+02 -.29439195E+02 0.52274792E+02 0.10368132E+03 0.80419002E+02 0.0000E+00 0.9000E+01
#aMCatNLO 1  0  0  2  1 0.21393510D+03 0.00000000D+00  -5  5  0 0.00000000D+00 0.00000000D+00 0.00000000D+00 0.00000000D+00 0.00000000D+00
  <mgrwgt>
 0.3164731912D+00    5    2    0
 0.170872801515192D+03 0.000000000000000D+00 0.000000000000000D+00 0.170872801515192D+03
 0.170872801515192D+03 0.000000000000000D+00 0.000000000000000D+00 -.170872801515192D+03
 0.184271341195621D+03 0.261396194321769D+02 0.294391948196736D+02 -.129541426927231D+03
 0.157474261834763D+03 -.261396194321769D+02 -.294391948196736D+02 0.129541426927231D+03
 0.000000000000000D+00 -.000000000000000D+00 0.000000000000000D+00 -.000000000000000D+00
 0.251421095533092D+03 0.000000000000000D+00 0.000000000000000D+00 0.251421095533092D+03
 0.431221301105078D+03 0.000000000000000D+00 0.000000000000000D+00 -.431221301105078D+03
 0.232259895270664D+03 0.145390122140851D+03 0.200097487406815D+02 -.129541426927231D+03
 0.170925277277698D+03 0.678792840735814D+02 -.368735130059820D+02 0.129541426927231D+03
 0.279457224089808D+03 -.213269406214433D+03 0.168637642653005D+02 -.179800205571987D+03
0.694621288842D-03 0.000000000000D+00 0.000000000000D+00 0.105447165468D-02 0.000000000000D+00  5 -1 2 25 24 21 0 0.14284214D-01 0.48379662D-01 0.12165188D+05 0.12165188D+05 0.12165188D+05 0.12583288D+01  1  2  2  2  5  2        2 0.272797053305D+00 0.100000000000D+01
-.295989371234D-04 0.000000000000D+00 -.266752864714D-05 0.105447165468D-02 0.000000000000D+00  5 -1 2 25 24 21 2 0.14284214D-01 0.48379662D-01 0.12165188D+05 0.12165188D+05 0.12165188D+05 0.12583288D+01  1  2  3  2  5  2        2 -.184058547834D-01 0.100000000000D+01
0.471725844430D-04 0.000000000000D+00 0.000000000000D+00 0.105447165468D-02 0.000000000000D+00  5 -1 2 25 24 21 2 0.14284214D-01 0.48379662D-01 0.12165188D+05 0.12165188D+05 0.12165188D+05 0.12583288D+01  1  2 15  2  5  2        2 0.293338823417D-01 0.100000000000D+01
0.180810290012D-03 0.000000000000D+00 -.272747733028D-03 0.105447165468D-02 0.000000000000D+00  5 -1 2 25 24 21 2 0.14284214D-01 0.16109511D+00 0.12165188D+05 0.12165188D+05 0.12165188D+05 0.12583288D+01  1  2  5  2  5  2        2 0.281317145439D-01 0.100000000000D+01
0.357258832825D-04 0.000000000000D+00 -.380565207923D-04 0.105447165468D-02 0.000000000000D+00  5 -1 21 25 24 -2 2 0.14284214D-01 0.16109511D+00 0.12165188D+05 0.12165188D+05 0.12165188D+05 0.12583288D+01  1  2  5  4  5  2        2 0.461639576919D-02 0.100000000000D+01
  </mgrwgt>
  </event>
  <event>
  5     66 0.45252658E-03 0.13089548E+03 0.75467711E-02 0.11712116E+00
       21 -1    0    0  502  501 0.00000000E+00 0.00000000E+00 0.38151356E+02 0.38158727E+02 0.75000000E+00 0.0000E+00 0.9000E+01
        2 -1    0    0  501    0 0.00000000E+00 0.00000000E+00 -.10520406E+04 0.10520407E+04 0.32000000E+00 0.0000E+00 0.9000E+01
       25  1    1    2    0    0 0.16213483E+01 -.98354806E+02 -.66471062E+03 0.68347751E+03 0.12500000E+03 0.0000E+00 0.9000E+01
       24  1    1    2    0    0 -.64523991E+02 0.49703304E+02 -.27542965E+03 0.29826578E+03 0.80419002E+02 0.0000E+00 0.9000E+01
        1  1    1    2  502    0 0.62902642E+02 0.48651502E+02 -.73748980E+02 0.10845610E+03 0.32000000E+00 0.0000E+00 0.9000E+01
#aMCatNLO 2  0  0  1  2 0.79521764D+02 0.00000000D+00  -5  5  0 0.00000000D+00 0.00000000D+00 0.00000000D+00 0.00000000D+00 0.00000000D+00
  <mgrwgt>
 0.1730797419D+00    2    2    0
 0.135676485178483D+03 0.000000000000000D+00 0.000000000000000D+00 0.135676485178483D+03
 0.135676485178483D+03 0.000000000000000D+00 0.000000000000000D+00 -.135676485178483D+03
 0.152550787371641D+03 0.374371744101929D+02 -.706533666839821D+02 -.354020123172024D+02
 0.118802182985324D+03 -.374371744101929D+02 0.706533666839821D+02 0.354020123172024D+02
 0.000000000000000D+00 0.000000000000000D+00 0.000000000000000D+00 0.000000000000000D+00
 0.259330049880869D+03 0.000000000000000D+00 0.000000000000000D+00 0.259330049880869D+03
 0.154786249457052D+03 0.000000000000000D+00 0.000000000000000D+00 -.154786249457052D+03
 0.162955819498292D+03 0.162134830041830D+01 -.983548059931053D+02 -.354020123172024D+02
 0.119809357900247D+03 -.645239905657292D+02 0.497033042308591D+02 0.354020123172024D+02
 0.131351121939382D+03 0.629026422653110D+02 0.486515017622462D+02 0.104543800423817D+03
-.663414993401D-05 0.000000000000D+00 0.000000000000D+00 0.239344122668D-02 0.000000000000D+00  5 21 2 25 24 1 2 0.59094854D-02 0.14187059D+00 0.31160209D+05 0.31160209D+05 0.31160209D+05 0.12131727D+01  1  2 13  3  5  1       -1 -.737567725870D-01 0.100000000000D+01
0.263312804786D-04 0.000000000000D+00 0.000000000000D+00 0.239344122668D-02 0.330221487378D-06  5 21 2 25 24 1 2 0.58700032D-02 0.16185278D+00 0.31160209D+05 0.31160209D+05 0.31160209D+05 0.12131727D+01  1  2  1  3  5  1       -1 0.246836514532D+00 0.100000000000D+01
  </mgrwgt>
  </event>
  <event>
  5     66 -.45252658E-03 0.11520793E+03 0.75467711E-02 0.12224713E+00
       -1 -1    0    0    0  502 0.00000000E+00 0.00000000E+00 0.61538202E+01 0.61621347E+01 0.32000000E+00 0.0000E+00 0.9000E+01
        2 -1    0    0  501    0 0.00000000E+00 0.00000000E+00 -.29563432E+04 0.29563432E+04 0.32000000E+00 0.0000E+00 0.9000E+01
       25  1    1    2    0    0 -.48049233E+02 0.66391205E+01 -.16887194E+04 0.16940339E+04 0.12500000E+03 0.0000E+00 0.9000E+01
       24  1    1    2    0    0 0.41337366E+02 -.39891937E+02 -.97645948E+03 0.98144816E+03 0.80419002E+02 0.0000E+00 0.9000E+01
       21  1    1    2  501  502 0.67118671E+01 0.33252817E+02 -.28501051E+03 0.28702326E+03 0.75000000E+00 0.0000E+00 0.9000E+01
#aMCatNLO 2  0  0  1  2 0.33923428D+02 0.00000000D+00  -5  5  0 0.00000000D+00 0.00000000D+00 0.00000000D+00 0.00000000D+00 0.00000000D+00
  <mgrwgt>
 -.6257562946D-01    2    2    0
 0.116055172596245D+03 0.000000000000000D+00 0.000000000000000D+00 0.116055172596245D+03
 0.116055172596245D+03 0.000000000000000D+00 0.000000000000000D+00 -.116055172596245D+03
 0.135782393367114D+03 -.441578902327708D+02 0.259181220947220D+02 -.137909399888208D+02
 0.963279518253770D+02 0.441578902327708D+02 -.259181220947220D+02 0.137909399888208D+02
 0.000000000000000D+00 0.000000000000000D+00 0.000000000000000D+00 0.000000000000000D+00
 0.140196379254477D+03 0.000000000000000D+00 0.000000000000000D+00 0.140196379254477D+03
 0.129846896474013D+03 0.000000000000000D+00 0.000000000000000D+00 -.129846896474013D+03
 0.134788711347429D+03 -.480492326685401D+02 0.663912049067088D+01 -.137909399888208D+02
 0.997875264351165D+02 0.413373655367898D+02 -.398919373103277D+02 0.137909399888208D+02
 0.354670379459443D+02 0.671186713175031D+01 0.332528168196568D+02 0.103494827804643D+02
-.201169878469D-03 0.000000000000D+00 0.000000000000D+00 0.282906108136D-02 0.000000000000D+00  5 -1 2 25 24 21 2 0.98612133D-03 0.40650148D+00 0.17800193D+05 0.17800193D+05 0.17800193D+05 0.12394365D+01  1  2 13  1  5  1       -1 -.225160328515D+00 0.100000000000D+01
0.205362894942D-03 0.000000000000D+00 0.000000000000D+00 0.282906108136D-02 0.206364192238D-04  5 -1 2 25 24 21 2 0.94735435D-03 0.45480916D+00 0.17800193D+05 0.17800193D+05 0.17800193D+05 0.12394365D+01  1  2  1  1  5  1       -1 0.162584699053D+00 0.100000000000D+01
  </mgrwgt>
  </event>
  <event>
  4     66 0.45252658E-03 0.13664554E+03 0.75467711E-02 0.10300666E+00
       -1 -1    0    0    0  501 0.00000000E+00 0.00000000E+00 0.35183845E+02 0.35185301E+02 0.32000000E+00 0.0000E+00 0.9000E+01
        2 -1    0    0  501    0 0.00000000E+00 0.00000000E+00 -.55556247E+03 0.55556256E+03 0.32000000E+00 0.0000E+00 0.9000E+01
       25  1    1    2    0    0 0.35253153E+02 0.81632276E+02 -.35271632E+03 0.38463023E+03 0.12500000E+03 0.0000E+00 0.9000E+01
       24  1    1    2    0    0 -.35253153E+02 -.81632276E+02 -.16766231E+03 0.20611763E+03 0.80419002E+02 0.0000E+00 0.9000E+01
#aMCatNLO 1  0  0  1  2 0.40116143D+03 0.00000000D+00  -5  5  0 0.00000000D+00 0.00000000D+00 0.00000000D+00 0.00000000D+00 0.00000000D+00
  <mgrwgt>
 0.5339422079D+00    3    2    0
 0.139811591495965D+03 0.000000000000000D+00 0.000000000000000D+00 0.139811591495965D+03
 0.139811591495965D+03 0.000000000000000D+00 0.000000000000000D+00 -.139811591495965D+03
 0.156186814658155D+03 0.352531534230455D+02 0.816322757328022D+02 -.293718880134685D+02
 0.123436368333775D+03 -.352531534230455D+02 -.816322757328022D+02 0.293718880134685D+02
 0.000000000000000D+00 -.000000000000000D+00 -.000000000000000D+00 -.000000000000000D+00
 0.285366359437565D+03 0.000000000000000D+00 0.000000000000000D+00 0.285366359437565D+03
 0.122897469658801D+04 0.000000000000000D+00 0.000000000000000D+00 -.122897469658801D+04
 0.393186290244683D+03 0.231260196605286D+03 0.290906295045303D+03 -.293718880134685D+02
 0.958122938584054D+02 0.429710654446612D+02 0.188664493580438D+01 0.293718880134685D+02
 0.102534247192248D+04 -.274231262049948D+03 -.292792939981107D+03 -.943608337150442D+03
0.558247109191D-03 0.000000000000D+00 0.000000000000D+00 0.240337156689D-02 0.000000000000D+00  5 -1 2 25 24 21 0 0.54130183D-02 0.85471268D-01 0.18672003D+05 0.18672003D+05 0.18672003D+05 0.12371247D+01  1  2  2  1  5  1       -1 0.523239081307D+00 0.100000000000D+01
-.309939442968D-04 0.000000000000D+00 -.214381588913D-05 0.240337156689D-02 0.000000000000D+00  5 -1 2 25 24 21 2 0.54130183D-02 0.85471268D-01 0.18672003D+05 0.18672003D+05 0.18672003D+05 0.12371247D+01  1  2  3  1  5  1       -1 -.444608194833D-01 0.100000000000D+01
0.384551677341D-04 0.000000000000D+00 0.000000000000D+00 0.240337156689D-02 0.000000000000D+00  5 -1 2 25 24 21 2 0.54130183D-02 0.85471268D-01 0.18672003D+05 0.18672003D+05 0.18672003D+05 0.12371247D+01  1  2 15  1  5  1       -1 0.551639460424D-01 0.100000000000D+01
  </mgrwgt>
  </event>
  <event>
  4     66 -.45252658E-03 0.81677362E+02 0.75467711E-02 0.12259136E+00
       -3 -1    0    0    0  501 0.00000000E+00 0.00000000E+00 0.30834968E+03 0.30835009E+03 0.50000000E+00 0.0000E+00 0.9000E+01
        4 -1    0    0  501    0 0.00000000E+00 0.00000000E+00 -.67800497E+02 0.67818212E+02 0.15500000E+01 0.0000E+00 0.9000E+01
       25  1    1    2    0    0 -.55522039E+02 0.49730762E+02 0.45625533E+02 0.15252060E+03 0.12500000E+03 0.0000E+00 0.9000E+01
       24  1    1    2    0    0 0.55522039E+02 -.49730762E+02 0.19492365E+03 0.22364770E+03 0.80419002E+02 0.0000E+00 0.9000E+01
#aMCatNLO 1  0  0  2  1 0.68328004D+01 0.00000000D+00  -5  5  0 0.00000000D+00 0.00000000D+00 0.00000000D+00 0.00000000D+00 0.00000000D+00
  <mgrwgt>
 -.3976355674D-01   11    2    0
 0.144601763007054D+03 0.000000000000000D+00 0.000000000000000D+00 0.144601763007054D+03
 0.144601763007054D+03 0.000000000000000D+00 0.000000000000000D+00 -.144601763007054D+03
 0.160434529937397D+03 -.555220388181118D+02 0.497307624151674D+02 -.675158712549849D+02
 0.128768996076711D+03 0.555220388181118D+02 -.497307624151674D+02 0.675158712549849D+02
 0.000000000000000D+00 -.000000000000000D+00 -.000000000000000D+00 -.000000000000000D+00
 0.145592536560021D+03 0.000000000000000D+00 0.000000000000000D+00 0.145592536560021D+03
 0.156922771160980D+03 0.000000000000000D+00 0.000000000000000D+00 -.156922771160980D+03
 0.160766436261936D+03 -.534854565377956D+02 0.529316549522782D+02 -.675158712549849D+02
 0.128517795281533D+03 0.571533717696896D+02 -.471667994853527D+02 0.675158712549849D+02
 0.132310761775321D+02 -.366791523189391D+01 -.576485546692555D+01 -.113302346009584D+02
0.649423906452D-03 0.000000000000D+00 0.000000000000D+00 0.197013589084D-02 0.000000000000D+00  5 -3 4 25 24 21 0 0.47439807D-01 0.10432240D-01 0.16279990D+05 0.16279990D+05 0.16279990D+05 0.12437886D+01  1  2  2  2  5  2        4 0.395247384240D-01 0.100000000000D+01
-.353921764452D-04 0.000000000000D+00 -.249395879802D-05 0.197013589084D-02 0.000000000000D+00  5 -3 4 25 24 21 2 0.47439807D-01 0.10432240D-01 0.16279990D+05 0.16279990D+05 0.16279990D+05 0.12437886D+01  1  2  3  2  5  2        4 -.333227738837D-02 0.100000000000D+01
0.448082381258D-04 0.000000000000D+00 0.000000000000D+00 0.197013589084D-02 0.000000000000D+00  5 -3 4 25 24 21 2 0.47439807D-01 0.10432240D-01 0.16279990D+05 0.16279990D+05 0.16279990D+05 0.12437886D+01  1  2 15  2  5  2        4 0.421882725836D-02 0.100000000000D+01
0.749428640434D-02 0.000000000000D+00 0.000000000000D+00 0.197013589084D-02 0.000000000000D+00  5 -3 4 25 24 21 2 0.47439807D-01 0.11355059D-01 0.17172742D+05 0.17172742D+05 0.17172742D+05 0.12411803D+01  1  2 12  2  5  2        4 0.611513363209D+00 0.100000000000D+01
-.811407459273D-02 0.000000000000D+00 0.000000000000D+00 0.197013589084D-02 0.000000000000D+00  5 -3 4 25 24 21 2 0.47439807D-01 0.10432240D-01 0.16279990D+05 0.16279990D+05 0.16279990D+05 0.12437886D+01  1  2  4  2  5  2        4 -.763963960645D+00 0.100000000000D+01
-.127184656407D-01 0.000000000000D+00 -.122142847419D-02 0.197013589084D-02 0.000000000000D+00  5 -3 4 25 24 21 2 0.47439807D-01 0.11389040D-01 0.16279990D+05 0.16279990D+05 0.16279990D+05 0.12437886D+01  1  2  5  2  5  2        4 -.103203259472D+01 0.100000000000D+01
0.127810943946D-01 0.000000000000D+00 0.121674092274D-02 0.197013589084D-02 0.000000000000D+00  5 -3 4 25 24 21 2 0.47439807D-01 0.10432240D-01 0.16279990D+05 0.16279990D+05 0.16279990D+05 0.12437886D+01  1  2  6  2  5  2        4 0.120337758588D+01 0.100000000000D+01
0.494001043466D-03 0.000000000000D+00 0.000000000000D+00 0.197013589084D-02 0.347979619860D-03  5 -3 4 25 24 21 2 0.47764852D-01 0.11321134D-01 0.17172742D+05 0.17172742D+05 0.17172742D+05 0.12411803D+01  1  2 11  2  5  2        4 0.399712145257D-01 0.100000000000D+01
0.108751382105D-03 0.000000000000D+00 0.000000000000D+00 0.197013589084D-02 0.000000000000D+00  5 -3 21 25 24 -4 2 0.47439807D-01 0.11355059D-01 0.17172742D+05 0.17172742D+05 0.17172742D+05 0.12411803D+01  1  2 12  4  5  2        4 0.232484381261D+00 0.100000000000D+01
-.181191457866D-03 0.000000000000D+00 -.177036133628D-04 0.197013589084D-02 0.000000000000D+00  5 -3 21 25 24 -4 2 0.47439807D-01 0.11389040D-01 0.16279990D+05 0.16279990D+05 0.16279990D+05 0.12437886D+01  1  2  5  4  5  2        4 -.386190631826D+00 0.100000000000D+01
0.691702730140D-05 0.000000000000D+00 0.000000000000D+00 0.197013589084D-02 0.475780587296D-05  5 -3 21 25 24 -4 2 0.47764852D-01 0.11321134D-01 0.17172742D+05 0.17172742D+05 0.17172742D+05 0.12411803D+01  1  2 11  4  5  2        4 0.146657972777D-01 0.100000000000D+01
  </mgrwgt>
  </event>
  <event>
  4     66 0.45252658E-03 0.10871416E+03 0.75467711E-02 0.11507460E+00
       -1 -1    0    0    0  501 0.00000000E+00 0.00000000E+00 0.46170658E+02 0.46171767E+02 0.32000000E+00 0.0000E+00 0.9000E+01
        2 -1    0    0  501    0 0.00000000E+00 0.00000000E+00 -.26233186E+03 0.26233205E+03 0.32000000E+00 0.0000E+00 0.9000E+01
       25  1    1    2    0    0 -.59428847E+01 0.34363309E+02 -.10494324E+03 0.16689589E+03 0.12500000E+03 0.0000E+00 0.9000E+01
       24  1    1    2    0    0 0.59428847E+01 -.34363309E+02 -.11121796E+03 0.14160793E+03 0.80419002E+02 0.0000E+00 0.9000E+01
#aMCatNLO 1  0  0  2  1 0.13937960D+03 0.00000000D+00  -5  5  0 0.00000000D+00 0.00000000D+00 0.00000000D+00 0.00000000D+00 0.00000000D+00
  <mgrwgt>
 0.3879497369D+00    3    2    0
 0.110055602886640D+03 0.000000000000000D+00 0.000000000000000D+00 0.110055602886640D+03
 0.110055602886640D+03 0.000000000000000D+00 0.000000000000000D+00 -.110055602886640D+03
 0.130858233114976D+03 -.594288468627789D+01 0.343633092457392D+02 0.168143472445651D+02
 0.892529726583045D+02 0.594288468627789D+01 -.343633092457392D+02 -.168143472445651D+02
 0.000000000000000D+00 0.000000000000000D+00 0.000000000000000D+00 0.000000000000000D+00
 0.337851620988206D+03 0.000000000000000D+00 0.000000000000000D+00 0.337851620988206D+03
 0.153660581404464D+03 0.000000000000000D+00 0.000000000000000D+00 -.153660581404464D+03
 0.158196272566773D+03 -.897467655044423D+02 0.326168125703667D+02 0.168143472445651D+02
 0.102333219578284D+03 -.496025785568323D+02 -.355208924738549D+02 -.168143472445651D+02
 0.230982710247614D+03 0.139349344061275D+03 0.290407990348820D+01 0.184191039583742D+03
0.276741115219D-03 0.000000000000D+00 0.000000000000D+00 0.295115835104D-02 0.000000000000D+00  5 -1 2 25 24 21 0 0.71032785D-02 0.40358848D-01 0.11818768D+05 0.11818768D+05 0.11818768D+05 0.12597994D+01  1  2  2  2  5  2        2 0.379816578576D+00 0.100000000000D+01
-.153716949852D-04 0.000000000000D+00 -.106275875005D-05 0.295115835104D-02 0.000000000000D+00  5 -1 2 25 24 21 2 0.71032785D-02 0.40358848D-01 0.11818768D+05 0.11818768D+05 0.11818768D+05 0.12597994D+01  1  2  3  2  5  2        2 -.334830332690D-01 0.100000000000D+01
0.191055391731D-04 0.000000000000D+00 0.000000000000D+00 0.295115835104D-02 0.000000000000D+00  5 -1 2 25 24 21 2 0.71032785D-02 0.40358848D-01 0.11818768D+05 0.11818768D+05 0.11818768D+05 0.12597994D+01  1  2 15  2  5  2        2 0.416161916022D-01 0.100000000000D+01
  </mgrwgt>
  </event>
  <event>
  5     66 0.45252658E-03 0.12398134E+03 0.75467711E-02 0.11463395E+00
       -1 -1    0    0    0  501 0.00000000E+00 0.00000000E+00 0.10039892E+03 0.10039943E+03 0.32000000E+00 0.0000E+00 0.9000E+01
        2 -1    0    0  502    0 0.00000000E+00 0.00000000E+00 -.41750705E+03 0.41750718E+03 0.32000000E+00 0.0000E+00 0.9000E+01
       25  1    1    2    0    0 -.15466411E+02 -.91450117E+02 -.11838986E+03 0.19555944E+03 0.12500000E+03 0.0000E+00 0.9000E+01
       24  1    1    2    0    0 -.91847035E+02 0.20295684E+02 -.11365034E+03 0.16802205E+03 0.80419002E+02 0.0000E+00 0.9000E+01
       21  1    1    2  502  501 0.10731345E+03 0.71154433E+02 -.85067923E+02 0.15432512E+03 0.75000000E+00 0.0000E+00 0.9000E+01
#aMCatNLO 2  0  0  2  1 0.12875997D+03 0.00000000D+00  -5  5  0 0.00000000D+00 0.00000000D+00 0.00000000D+00 0.00000000D+00 0.00000000D+00
  <mgrwgt>
 0.4117683989D-01    1    2    0
 0.124267565113534D+03 0.000000000000000D+00 0.000000000000000D+00 0.124267565113534D+03
 0.124267565113534D+03 0.000000000000000D+00 0.000000000000000D+00 -.124267565113534D+03
 0.142691085436924D+03 0.451646172465203D+02 -.512485708960313D+02 0.833589786748965D+01
 0.105844044790144D+03 -.451646172465203D+02 0.512485708960313D+02 -.833589786748965D+01
 0.000000000000000D+00 0.000000000000000D+00 0.000000000000000D+00 0.000000000000000D+00
 0.213639886570396D+03 0.000000000000000D+00 0.000000000000000D+00 0.213639886570396D+03
 0.196203890869246D+03 0.000000000000000D+00 0.000000000000000D+00 -.196203890869246D+03
 0.155874375588115D+03 -.154664112694751D+02 -.914501169718831D+02 0.833589786748965D+01
 0.124034252463068D+03 -.918470350590719D+02 0.202956839574838D+02 -.833589786748965D+01
 0.129935149388459D+03 0.107313446328547D+03 0.711544330143993D+02 0.174359957011504D+02
0.108667675100D-03 0.000000000000D+00 0.000000000000D+00 0.269695074370D-02 0.159015078897D-05  5 -1 2 25 24 21 2 0.15445955D-01 0.64231562D-01 0.41649689D+05 0.41649689D+05 0.41649689D+05 0.12002220D+01  1  2  1  2  5  2        2 0.411768398902D-01 0.100000000000D+01
  </mgrwgt>
  </event>
  <event>
  4     66 0.45252658E-03 0.10602418E+03 0.75467711E-02 0.10886339E+00
       -1 -1    0    0    0  501 0.00000000E+00 0.00000000E+00 0.33108529E+02 0.33110075E+02 0.32000000E+00 0.0000E+00 0.9000E+01
        2 -1    0    0  501    0 0.00000000E+00 0.00000000E+00 -.10246054E+04 0.10246055E+04 0.32000000E+00 0.0000E+00 0.9000E+01
       25  1    1    2    0    0 0.18451473E+02 0.17912211E+02 -.99738963E+02 0.16196964E+03 0.12500000E+03 0.0000E+00 0.9000E+01
       24  1    1    2    0    0 -.18451473E+02 -.17912211E+02 -.89175792E+03 0.89574590E+03 0.80419002E+02 0.0000E+00 0.9000E+01
#aMCatNLO 1  0  0  2  1 0.25469992D+03 0.00000000D+00  -5  5  0 0.00000000D+00 0.00000000D+00 0.00000000D+00 0.00000000D+00 0.00000000D+00
  <mgrwgt>
 0.2288532030D+00    5    2    0
 0.184184749538655D+03 0.000000000000000D+00 0.000000000000000D+00 0.184184749538655D+03
 0.184184749538655D+03 0.000000000000000D+00 0.000000000000000D+00 -.184184749538655D+03
 0.196614910109179D+03 0.184514733156419D+02 0.179122111381635D+02 0.149569778705007D+03
 0.171754588968130D+03 -.184514733156419D+02 -.179122111381635D+02 -.149569778705007D+03
 0.000000000000000D+00 0.000000000000000D+00 -.000000000000000D+00 -.000000000000000D+00
 0.327089562448147D+03 0.000000000000000D+00 0.000000000000000D+00 0.327089562448147D+03
 0.381128173950745D+03 0.000000000000000D+00 0.000000000000000D+00 -.381128173950745D+03
 0.240610373987711D+03 -.675421484080381D+02 0.123835744262584D+03 0.149569778705007D+03
 0.207237968312222D+03 -.929918619717437D+02 0.739036836765974D+02 -.149569778705007D+03
 0.260369394098959D+03 0.160534010379782D+03 -.197739427939181D+03 -.540386115025974D+02
0.426339534789D-03 0.000000000000D+00 0.000000000000D+00 0.838129794161D-03 0.000000000000D+00  5 -1 2 25 24 21 0 0.50937426D-02 0.15763172D+00 0.11241128D+05 0.11241128D+05 0.11241128D+05 0.12623629D+01  1  2  2  2  5  2        2 0.204014234931D+00 0.100000000000D+01
-.149019647874D-04 0.000000000000D+00 -.163725607137D-05 0.838129794161D-03 0.000000000000D+00  5 -1 2 25 24 21 2 0.50937426D-02 0.15763172D+00 0.11241128D+05 0.11241128D+05 0.11241128D+05 0.12623629D+01  1  2  3  2  5  2        2 -.113636228205D-01 0.100000000000D+01
0.290347660753D-04 0.000000000000D+00 0.000000000000D+00 0.838129794161D-03 0.000000000000D+00  5 -1 2 25 24 21 2 0.50937426D-02 0.15763172D+00 0.11241128D+05 0.11241128D+05 0.11241128D+05 0.12623629D+01  1  2 15  2  5  2        2 0.221407133266D-01 0.100000000000D+01
0.151740057632D-03 0.000000000000D+00 -.139532388281D-03 0.838129794161D-03 0.000000000000D+00  5 -1 2 25 24 21 2 0.50937426D-02 0.42995562D+00 0.11241128D+05 0.11241128D+05 0.11241128D+05 0.12623629D+01  1  2  5  2  5  2        2 0.136641912742D-01 0.100000000000D+01
0.250501797968D-04 0.000000000000D+00 -.156466253690D-04 0.838129794161D-03 0.000000000000D+00  5 -1 21 25 24 -2 2 0.50937426D-02 0.42995562D+00 0.11241128D+05 0.11241128D+05 0.11241128D+05 0.12623629D+01  1  2  5  4  5  2        2 0.397686293656D-03 0.100000000000D+01
  </mgrwgt>
  </event>
  <event>
  4     66 0.45252658E-03 0.97043294E+02 0.75467711E-02 0.11500441E+00
       -1 -1    0    0    0  501 0.00000000E+00 0.00000000E+00 0.71570040E+01 0.71641542E+01 0.32000000E+00 0.0000E+00 0.9000E+01
        2 -1    0    0  501    0 0.00000000E+00 0.00000000E+00 -.36315525E+04 0.36315525E+04 0.32000000E+00 0.0000E+00 0.9000E+01
       25  1    1    2    0    0 -.11716630E+03 0.29323173E+02 -.22415189E+04 0.22482482E+04 0.12500000E+03 0.0000E+00 0.9000E+01
       24  1    1    2    0    0 0.11716630E+03 -.29323173E+02 -.13828766E+04 0.13904685E+04 0.80419002E+02 0.0000E+00 0.9000E+01
#aMCatNLO 1  0  0  1  2 0.72340944D+02 0.00000000D+00  -5  5  0 0.00000000D+00 0.00000000D+00 0.00000000D+00 0.00000000D+00 0.00000000D+00
  <mgrwgt>
 0.5505665394D+00    9    2    0
 0.161257775963655D+03 0.000000000000000D+00 0.000000000000000D+00 0.161257775963655D+03
 0.161257775963655D+03 0.000000000000000D+00 0.000000000000000D+00 -.161257775963655D+03
 0.175455206119975D+03 -.117166296681143D+03 0.293231725709893D+02 -.239110816777736D+02
 0.147060345807336D+03 0.117166296681143D+03 -.293231725709893D+02 0.239110816777736D+02
 0.000000000000000D+00 0.000000000000000D+00 -.000000000000000D+00 0.000000000000000D+00
 0.215365698218675D+03 0.000000000000000D+00 0.000000000000000D+00 0.215365698218675D+03
 0.191377793162771D+03 0.000000000000000D+00 0.000000000000000D+00 -.191377793162771D+03
 0.194396435852535D+03 -.130175453493213D+03 0.681732040687808D+02 -.239110816777736D+02
 0.136132675398833D+03 0.107205269061239D+03 0.424046435901541D+00 0.239110816777736D+02
 0.762143801300786D+02 0.229701844319748D+02 -.685972505046823D+02 0.239879050559035D+02
0.255421974553D-02 0.000000000000D+00 0.000000000000D+00 0.228243481795D-02 0.000000000000D+00  5 -1 2 25 24 21 0 0.11016286D-02 0.55870094D+00 0.25427762D+05 0.25427762D+05 0.25427762D+05 0.12225085D+01  1  2  2  1  5  1       -1 0.403295391259D+00 0.100000000000D+01
-.141879432443D-03 0.000000000000D+00 -.980887636432D-05 0.228243481795D-02 0.000000000000D+00  5 -1 2 25 24 21 2 0.11016286D-02 0.55870094D+00 0.25427762D+05 0.25427762D+05 0.25427762D+05 0.12225085D+01  1  2  3  1  5  1       -1 -.334802121460D-01 0.100000000000D+01
0.175901291706D-03 0.000000000000D+00 0.000000000000D+00 0.228243481795D-02 0.000000000000D+00  5 -1 2 25 24 21 2 0.11016286D-02 0.55870094D+00 0.25427762D+05 0.25427762D+05 0.25427762D+05 0.12225085D+01  1  2 15  1  5  1       -1 0.415085714797D-01 0.100000000000D+01
0.707572217673D-03 0.000000000000D+00 0.000000000000D+00 0.228243481795D-02 0.000000000000D+00  5 -1 2 25 24 21 2 0.15461986D-02 0.55870094D+00 0.39855633D+05 0.39855633D+05 0.39855633D+05 0.12021598D+01  1  2 12  1  5  1       -1 0.979013822359D-01 0.100000000000D+01
-.934074236293D-03 0.000000000000D+00 0.000000000000D+00 0.228243481795D-02 0.000000000000D+00  5 -1 2 25 24 21 2 0.11016286D-02 0.55870094D+00 0.25427762D+05 0.25427762D+05 0.25427762D+05 0.12225085D+01  1  2  4  1  5  1       -1 -.220419570707D+00 0.100000000000D+01
-.100059433908D-02 0.000000000000D+00 -.766282615565D-03 0.228243481795D-02 0.000000000000D+00  5 -1 2 25 24 21 2 0.20976387D-02 0.55870094D+00 0.25427762D+05 0.25427762D+05 0.25427762D+05 0.12225085D+01  1  2  5  1  5  1       -1 -.933339782270D-01 0.100000000000D+01
0.134154942979D-02 0.000000000000D+00 0.630866837294D-03 0.228243481795D-02 0.000000000000D+00  5 -1 2 25 24 21 2 0.11016286D-02 0.55870094D+00 0.25427762D+05 0.25427762D+05 0.25427762D+05 0.12225085D+01  1  2  6  1  5  1       -1 0.316574141440D+00 0.100000000000D+01
0.298711019718D-04 0.000000000000D+00 0.000000000000D+00 0.228243481795D-02 0.000000000000D+00  5 21 2 25 24 1 2 0.15461986D-02 0.55870094D+00 0.39855633D+05 0.39855633D+05 0.39855633D+05 0.12021598D+01  1  2 12  3  5  1       -1 0.885154749991D-01 0.100000000000D+01
-.261371744881D-04 0.000000000000D+00 -.536089305494D-04 0.228243481795D-02 0.000000000000D+00  5 21 2 25 24 1 2 0.20976387D-02 0.55870094D+00 0.25427762D+05 0.25427762D+05 0.25427762D+05 0.12225085D+01  1  2  5  3  5  1       -1 -.499946609219D-01 0.100000000000D+01
  </mgrwgt>
  </event>
  <event>
  4     66 0.45252658E-03 0.13122311E+03 0.75467711E-02 0.11126763E+00
       -1 -1    0    0    0  501 0.00000000E+00 0.00000000E+00 0.83906445E+01 0.83967443E+01 0.32000000E+00 0.0000E+00 0.9000E+01
        2 -1    0    0  501    0 0.00000000E+00 0.00000000E+00 -.20721505E+04 0.20721505E+04 0.32000000E+00 0.0000E+00 0.9000E+01
       25  1    1    2    0    0 0.71812058E+02 0.36343116E+02 -.10647077E+04 0.10750374E+04 0.12500000E+03 0.0000E+00 0.9000E+01
       24  1    1    2    0    0 -.71812058E+02 -.36343116E+02 -.99905211E+03 0.10055099E+04 0.80419002E+02 0.0000E+00 0.9000E+01
#aMCatNLO 1  0  0  2  2 0.18238712D+03 0.00000000D+00  -5  5  0 0.00000000D+00 0.00000000D+00 0.00000000D+00 0.00000000D+00 0.00000000D+00
  <mgrwgt>
 0.4165759445D+00    5    2    0
 0.131882709720885D+03 0.000000000000000D+00 0.000000000000000D+00 0.131882709720885D+03
 0.131882709720885D+03 0.000000000000000D+00 0.000000000000000D+00 -.131882709720885D+03
 0.149242422880045D+03 0.718120584957031D+02 0.363431155197990D+02 0.130578327463025D+02
 0.114522996561724D+03 -.718120584957031D+02 -.363431155197990D+02 -.130578327463025D+02
 0.000000000000000D+00 -.000000000000000D+00 0.000000000000000D+00 -.000000000000000D+00
 0.220185887883624D+03 0.000000000000000D+00 0.000000000000000D+00 0.220185887883624D+03
 0.299305483390494D+03 0.000000000000000D+00 0.000000000000000D+00 -.299305483390494D+03
 0.175889704469926D+03 0.108359169927290D+03 -.583092740064230D+02 0.130578327463025D+02
 0.144792783586816D+03 -.426631620445800D+02 -.111835065309479D+03 -.130578327463025D+02
 0.198808883217376D+03 -.656960078827104D+02 0.170144339315902D+03 -.791195955068694D+02
0.413446190546D-03 0.000000000000D+00 0.000000000000D+00 0.257301224962D-02 0.000000000000D+00  5 -1 2 25 24 21 0 0.12913395D-02 0.31879285D+00 0.17219505D+05 0.17219505D+05 0.17219505D+05 0.12410479D+01  1  2  2  2  5  2        2 0.408719773461D+00 0.100000000000D+01
-.229685307255D-04 0.000000000000D+00 -.158774223458D-05 0.257301224962D-02 0.000000000000D+00  5 -1 2 25 24 21 2 0.12913395D-02 0.31879285D+00 0.17219505D+05 0.17219505D+05 0.17219505D+05 0.12410479D+01  1  2  3  2  5  2        2 -.349717146917D-01 0.100000000000D+01
0.285286568525D-04 0.000000000000D+00 0.000000000000D+00 0.257301224962D-02 0.000000000000D+00  5 -1 2 25 24 21 2 0.12913395D-02 0.31879285D+00 0.17219505D+05 0.17219505D+05 0.17219505D+05 0.12410479D+01  1  2 15  2  5  2        2 0.434375215334D-01 0.100000000000D+01
-.557903996357D-04 0.000000000000D+00 -.108161565743D-03 0.257301224962D-02 0.000000000000D+00  5 -1 2 25 24 21 2 0.12913395D-02 0.77776103D+00 0.17219505D+05 0.17219505D+05 0.17219505D+05 0.12410479D+01  1  2  5  2  5  2        2 -.609839439686D-03 0.100000000000D+01
0.130257563927D-05 0.000000000000D+00 -.105790896967D-04 0.257301224962D-02 0.000000000000D+00  5 -1 21 25 24 -2 2 0.12913395D-02 0.77776103D+00 0.17219505D+05 0.17219505D+05 0.17219505D+05 0.12410479D+01  1  2  5  4  5  2        2 0.203671827378D-06 0.100000000000D+01
  </mgrwgt>
  </event>
  <event>
  4     66 0.45252658E-03 0.67870344E+02 0.75467711E-02 0.12001651E+00
       -3 -1    0    0    0  501 0.00000000E+00 0.00000000E+00 0.18361437E+03 0.18361505E+03 0.50000000E+00 0.0000E+00 0.9000E+01
        4 -1    0    0  501    0 0.00000000E+00 0.00000000E+00 -.92180014E+02 0.92193044E+02 0.15500000E+01 0.0000E+00 0.9000E+01
       25  1    1    2    0    0 0.77343103E+02 0.13861858E+02 0.56257774E+02 0.15800014E+03 0.12500000E+03 0.0000E+00 0.9000E+01
       24  1    1    2    0    0 -.77343103E+02 -.13861858E+02 0.35176583E+02 0.11780796E+03 0.80419002E+02 0.0000E+00 0.9000E+01
#aMCatNLO 1  0  0  1  2 0.37707040D+02 0.00000000D+00  -5  5  0 0.00000000D+00 0.00000000D+00 0.00000000D+00 0.00000000D+00 0.00000000D+00
  <mgrwgt>
 0.7237368265D-01    9    2    0
 0.130105595498580D+03 0.000000000000000D+00 0.000000000000000D+00 0.130105595498580D+03
 0.130105595498580D+03 0.000000000000000D+00 0.000000000000000D+00 -.130105595498580D+03
 0.147702425232412D+03 0.773431031548933D+02 0.138618583072651D+02 0.411092424852477D+01
 0.112508765764747D+03 -.773431031548933D+02 -.138618583072651D+02 -.411092424852477D+01
 0.000000000000000D+00 -.000000000000000D+00 -.000000000000000D+00 0.000000000000000D+00
 0.196223140686207D+03 0.000000000000000D+00 0.000000000000000D+00 0.196223140686207D+03
 0.136953450006176D+03 0.000000000000000D+00 0.000000000000000D+00 -.136953450006176D+03
 0.158914673994018D+03 0.937582038191070D+02 0.286596079711994D+02 0.411092424852477D+01
 0.104014374994925D+03 -.657512866493272D+02 -.341216309622170D+01 -.411092424852477D+01
 0.702475417034396D+02 -.280069171697797D+02 -.252474448749777D+02 0.592696906800309D+02
0.591715016786D-03 0.000000000000D+00 0.000000000000D+00 0.261715469607D-02 0.000000000000D+00  5 -3 4 25 24 21 0 0.28249419D-01 0.14182595D-01 0.16910251D+05 0.16910251D+05 0.16910251D+05 0.12419311D+01  1  2  2  1  5  1       -3 0.572408319483D-01 0.100000000000D+01
-.328730461431D-04 0.000000000000D+00 -.227234146660D-05 0.261715469607D-02 0.000000000000D+00  5 -3 4 25 24 21 2 0.28249419D-01 0.14182595D-01 0.16910251D+05 0.16910251D+05 0.16910251D+05 0.12419311D+01  1  2  3  1  5  1       -3 -.490487900600D-02 0.100000000000D+01
0.409098736424D-04 0.000000000000D+00 0.000000000000D+00 0.261715469607D-02 0.000000000000D+00  5 -3 4 25 24 21 2 0.28249419D-01 0.14182595D-01 0.16910251D+05 0.16910251D+05 0.16910251D+05 0.12419311D+01  1  2 15  1  5  1       -3 0.610402758215D-02 0.100000000000D+01
0.905494209714D-03 0.000000000000D+00 0.000000000000D+00 0.261715469607D-02 0.000000000000D+00  5 -3 4 25 24 21 2 0.43045251D-01 0.14182595D-01 0.22575309D+05 0.22575309D+05 0.22575309D+05 0.12280765D+01  1  2 12  1  5  1       -3 0.610775062488D-01 0.100000000000D+01
-.926637905102D-03 0.000000000000D+00 0.000000000000D+00 0.261715469607D-02 0.000000000000D+00  5 -3 4 25 24 21 2 0.28249419D-01 0.14182595D-01 0.16910251D+05 0.16910251D+05 0.16910251D+05 0.12419311D+01  1  2  4  1  5  1       -3 -.138260591584D+00 0.100000000000D+01
-.111341301236D-02 0.000000000000D+00 -.205677602888D-03 0.261715469607D-02 0.000000000000D+00  5 -3 4 25 24 21 2 0.44272008D-01 0.14182595D-01 0.16910251D+05 0.16910251D+05 0.16910251D+05 0.12419311D+01  1  2  5  1  5  1       -3 -.710246819926D-01 0.100000000000D+01
0.111094272103D-02 0.000000000000D+00 0.186532763162D-03 0.261715469607D-02 0.000000000000D+00  5 -3 4 25 24 21 2 0.28249419D-01 0.14182595D-01 0.16910251D+05 0.16910251D+05 0.16910251D+05 0.12419311D+01  1  2  6  1  5  1       -3 0.165760106487D+00 0.100000000000D+01
0.447746237418D-04 0.000000000000D+00 0.000000000000D+00 0.261715469607D-02 0.000000000000D+00  5 21 4 25 24 3 2 0.43045251D-01 0.14182595D-01 0.22575309D+05 0.22575309D+05 0.22575309D+05 0.12280765D+01  1  2 12  3  5  1       -3 0.604152578711D-01 0.100000000000D+01
-.496200618247D-04 0.000000000000D+00 -.106750985363D-04 0.261715469607D-02 0.000000000000D+00  5 21 4 25 24 3 2 0.44272008D-01 0.14182595D-01 0.16910251D+05 0.16910251D+05 0.16910251D+05 0.12419311D+01  1  2  5  3  5  1       -3 -.640338949052D-01 0.100000000000D+01
  </mgrwgt>
  </event>
  <event>
  4     66 0.45252658E-03 0.29720571E+03 0.75467711E-02 0.10020328E+00
       -1 -1    0    0    0  501 0.00000000E+00 0.00000000E+00 0.11959727E+03 0.11959770E+03 0.32000000E+00 0.0000E+00 0.9000E+01
        2 -1    0    0  501    0 0.00000000E+00 0.00000000E+00 -.74080855E+03 0.74080861E+03 0.32000000E+00 0.0000E+00 0.9000E+01
       25  1    1    2    0    0 -.26876200E+03 -.71494441E+02 -.29499423E+03 0.42425353E+03 0.12500000E+03 0.0000E+00 0.9000E+01
       24  1    1    2    0    0 0.26876200E+03 0.71494441E+02 -.32621705E+03 0.43615278E+03 0.80419002E+02 0.0000E+00 0.9000E+01
#aMCatNLO 1  0  0  2  2 0.38640180D+03 0.00000000D+00  -5  5  0 0.00000000D+00 0.00000000D+00 0.00000000D+00 0.00000000D+00 0.00000000D+00
  <mgrwgt>
 0.5346511992D+00    3    2    0
 0.297655661300265D+03 0.000000000000000D+00 0.000000000000000D+00 0.297655661300265D+03
 0.297655661300265D+03 0.000000000000000D+00 0.000000000000000D+00 -.297655661300265D+03
 0.305347253663758D+03 -.268761997823911D+03 -.714944408486931D+02 0.163547783057994D+02
 0.289964068936773D+03 0.268761997823911D+03 0.714944408486931D+02 -.163547783057994D+02
 0.000000000000000D+00 -.000000000000000D+00 0.000000000000000D+00 0.000000000000000D+00
 0.564677106213539D+03 0.000000000000000D+00 0.000000000000000D+00 0.564677106213539D+03
 0.532760226872177D+03 0.000000000000000D+00 0.000000000000000D+00 -.532760226872177D+03
 0.312132565362043D+03 -.172950447930854D+03 -.227205638456828D+03 0.163547783057994D+02
 0.397587040813467D+03 0.375446192879538D+03 -.101886782986152D+03 -.163547783057994D+02
 0.387717726910207D+03 -.202495744948684D+03 0.329092421442980D+03 0.319168793413614D+02
0.509674189978D-02 0.000000000000D+00 0.000000000000D+00 0.200519138779D-02 0.000000000000D+00  5 -1 2 25 24 21 0 0.18399618D-01 0.11397058D+00 0.88331235D+05 0.88331235D+05 0.88331235D+05 0.11685544D+01  1  2  2  2  5  2        2 0.525222918485D+00 0.100000000000D+01
-.283151539887D-03 0.000000000000D+00 -.195728308981D-04 0.200519138779D-02 0.000000000000D+00  5 -1 2 25 24 21 2 0.18399618D-01 0.11397058D+00 0.88331235D+05 0.88331235D+05 0.88331235D+05 0.11685544D+01  1  2  3  2  5  2        2 -.398444499148D-01 0.100000000000D+01
0.350152896373D-03 0.000000000000D+00 0.000000000000D+00 0.200519138779D-02 0.000000000000D+00  5 -1 2 25 24 21 2 0.18399618D-01 0.11397058D+00 0.88331235D+05 0.88331235D+05 0.88331235D+05 0.11685544D+01  1  2 15  2  5  2        2 0.492727305938D-01 0.100000000000D+01
  </mgrwgt>
  </event>
  <event>
  4     66 0.45252658E-03 0.50147159E+02 0.75467711E-02 0.12131115E+00
       -1 -1    0    0    0  501 0.00000000E+00 0.00000000E+00 0.50849373E+03 0.50849383E+03 0.32000000E+00 0.0000E+00 0.9000E+01
        2 -1    0    0  501    0 0.00000000E+00 0.00000000E+00 -.40304887E+02 0.40306157E+02 0.32000000E+00 0.0000E+00 0.9000E+01
       25  1    1    2    0    0 -.38866382E+02 -.64906309E+02 0.13930297E+03 0.20187556E+03 0.12500000E+03 0.0000E+00 0.9000E+01
       24  1    1    2    0    0 0.38866382E+02 0.64906309E+02 0.32888587E+03 0.34692443E+03 0.80419002E+02 0.0000E+00 0.9000E+01
#aMCatNLO 1  0  0  2  1 0.23209114D+02 0.00000000D+00  -5  5  0 0.00000000D+00 0.00000000D+00 0.00000000D+00 0.00000000D+00 0.00000000D+00
  <mgrwgt>
 0.2504383090D+00    9    2    0
 0.143161301841550D+03 0.000000000000000D+00 0.000000000000000D+00 0.143161301841550D+03
 0.143161301841550D+03 0.000000000000000D+00 0.000000000000000D+00 -.143161301841550D+03
 0.159153374992305D+03 -.388663820003350D+02 -.649063090099785D+02 -.630981154421155D+02
 0.127169228690796D+03 0.388663820003350D+02 0.649063090099785D+02 0.630981154421155D+02
 0.000000000000000D+00 0.000000000000000D+00 0.000000000000000D+00 -.000000000000000D+00
 0.150256497727769D+03 0.000000000000000D+00 0.000000000000000D+00 0.150256497727769D+03
 0.163955810383700D+03 0.000000000000000D+00 0.000000000000000D+00 -.163955810383700D+03
 0.165753800047050D+03 -.440675624511734D+02 -.769805169981520D+02 -.630981154421155D+02
 0.121507920963128D+03 0.348855073730093D+02 0.556649629964166D+02 0.630981154421155D+02
 0.269505871012909D+02 0.918205507816411D+01 0.213155540017354D+02 -.136993126559303D+02
0.953282603917D-03 0.000000000000D+00 0.000000000000D+00 0.203509056576D-02 0.000000000000D+00  5 -1 2 25 24 21 0 0.78229910D-01 0.62008572D-02 0.16450914D+05 0.16450914D+05 0.16450914D+05 0.12432770D+01  1  2  2  2  5  2        2 0.212576664623D+00 0.100000000000D+01
-.521823657020D-04 0.000000000000D+00 -.366085620412D-05 0.203509056576D-02 0.000000000000D+00  5 -1 2 25 24 21 2 0.78229910D-01 0.62008572D-02 0.16450914D+05 0.16450914D+05 0.16450914D+05 0.12432770D+01  1  2  3  2  5  2        2 -.179867820191D-01 0.100000000000D+01
0.657406872960D-04 0.000000000000D+00 0.000000000000D+00 0.203509056576D-02 0.000000000000D+00  5 -1 2 25 24 21 2 0.78229910D-01 0.62008572D-02 0.16450914D+05 0.16450914D+05 0.16450914D+05 0.12432770D+01  1  2 15  2  5  2        2 0.226602109021D-01 0.100000000000D+01
0.192737467344D-02 0.000000000000D+00 0.000000000000D+00 0.203509056576D-02 0.000000000000D+00  5 -1 2 25 24 21 2 0.78229910D-01 0.72390149D-02 0.19645315D+05 0.19645315D+05 0.19645315D+05 0.12346825D+01  1  2 12  2  5  2        2 0.539837482166D+00 0.100000000000D+01
-.191873273007D-02 0.000000000000D+00 0.000000000000D+00 0.203509056576D-02 0.000000000000D+00  5 -1 2 25 24 21 2 0.78229910D-01 0.62008572D-02 0.16450914D+05 0.16450914D+05 0.16450914D+05 0.12432770D+01  1  2  4  2  5  2        2 -.661369543221D+00 0.100000000000D+01
-.399831398613D-02 0.000000000000D+00 -.915391014533D-03 0.203509056576D-02 0.000000000000D+00  5 -1 2 25 24 21 2 0.78229910D-01 0.74474551D-02 0.16450914D+05 0.16450914D+05 0.16450914D+05 0.12432770D+01  1  2  5  2  5  2        2 -.109171412078D+01 0.100000000000D+01
0.411196158343D-02 0.000000000000D+00 0.900244126464D-03 0.203509056576D-02 0.000000000000D+00  5 -1 2 25 24 21 2 0.78229910D-01 0.62008572D-02 0.16450914D+05 0.16450914D+05 0.16450914D+05 0.12432770D+01  1  2  6  2  5  2        2 0.141735537814D+01 0.100000000000D+01
0.450968941616D-04 0.000000000000D+00 0.000000000000D+00 0.203509056576D-02 0.000000000000D+00  5 -1 21 25 24 -2 2 0.78229910D-01 0.72390149D-02 0.19645315D+05 0.19645315D+05 0.19645315D+05 0.12346825D+01  1  2 12  4  5  2        2 0.156342219813D+00 0.100000000000D+01
-.978520916068D-04 0.000000000000D+00 -.244754537387D-04 0.203509056576D-02 0.000000000000D+00  5 -1 21 25 24 -2 2 0.78229910D-01 0.74474551D-02 0.16450914D+05 0.16450914D+05 0.16450914D+05 0.12432770D+01  1  2  5  4  5  2        2 -.327263200673D+00 0.100000000000D+01
  </mgrwgt>
  </event>
  <event>
  4     66 0.45252658E-03 0.48447372E+02 0.75467711E-02 0.11833244E+00
       -1 -1    0    0    0  501 0.00000000E+00 0.00000000E+00 0.29358661E+02 0.29360405E+02 0.32000000E+00 0.0000E+00 0.9000E+01
        2 -1    0    0  501    0 0.00000000E+00 0.00000000E+00 -.41393125E+03 0.41393137E+03 0.32000000E+00 0.0000E+00 0.9000E+01
       25  1    1    2    0    0 0.32242048E+01 0.36299139E+02 -.25765015E+03 0.28868084E+03 0.12500000E+03 0.0000E+00 0.9000E+01
       24  1    1    2    0    0 -.32242048E+01 -.36299139E+02 -.12692243E+03 0.15461094E+03 0.80419002E+02 0.0000E+00 0.9000E+01
#aMCatNLO 1  0  0  1  2 0.92470174D+02 0.00000000D+00  -5  5  0 0.00000000D+00 0.00000000D+00 0.00000000D+00 0.00000000D+00 0.00000000D+00
  <mgrwgt>
 0.2269656144D+00    7    2    0
 0.110240106380455D+03 0.000000000000000D+00 0.000000000000000D+00 0.110240106380455D+03
 0.110240106380455D+03 0.000000000000000D+00 0.000000000000000D+00 -.110240106380455D+03
 0.131007920260334D+03 0.322420484101292D+01 0.362991393561383D+02 -.144931761903600D+02
 0.894722925005753D+02 -.322420484101292D+01 -.362991393561383D+02 0.144931761903600D+02
 0.000000000000000D+00 -.000000000000000D+00 -.000000000000000D+00 0.000000000000000D+00
 0.227252031785173D+03 0.000000000000000D+00 0.000000000000000D+00 0.227252031785173D+03
 0.139390009517228D+03 0.000000000000000D+00 0.000000000000000D+00 -.139390009517228D+03
 0.145253017699300D+03 0.584004364767714D+02 0.430438847455814D+02 -.144931761903600D+02
 0.938332789644730D+02 0.333865109046870D+02 -.318238435827678D+02 0.144931761903600D+02
 0.127555744638628D+03 -.917869473814585D+02 -.112200411628136D+02 0.878620222679452D+02
0.165772045070D-03 0.000000000000D+00 0.000000000000D+00 0.296148864540D-02 0.000000000000D+00  5 -1 2 25 24 21 0 0.45168607D-02 0.63681874D-01 0.11934953D+05 0.11934953D+05 0.11934953D+05 0.12593009D+01  1  2  2  1  5  1       -1 0.274759178206D+00 0.100000000000D+01
-.920864147433D-05 0.000000000000D+00 -.636608301850D-06 0.296148864540D-02 0.000000000000D+00  5 -1 2 25 24 21 2 0.45168607D-02 0.63681874D-01 0.11934953D+05 0.11934953D+05 0.11934953D+05 0.12593009D+01  1  2  3  1  5  1       -1 -.242044640783D-01 0.100000000000D+01
0.114660239383D-04 0.000000000000D+00 0.000000000000D+00 0.296148864540D-02 0.000000000000D+00  5 -1 2 25 24 21 2 0.45168607D-02 0.63681874D-01 0.11934953D+05 0.11934953D+05 0.11934953D+05 0.12593009D+01  1  2 15  1  5  1       -1 0.301378835641D-01 0.100000000000D+01
0.357759618971D-05 0.000000000000D+00 0.000000000000D+00 0.296148864540D-02 0.000000000000D+00  5 -1 2 25 24 21 2 0.93558171D-02 0.63681874D-01 0.27176440D+05 0.27176440D+05 0.27176440D+05 0.12194299D+01  1  2 12  1  5  1       -1 0.305499519867D-02 0.100000000000D+01
-.538449915676D-04 0.000000000000D+00 -.469687403235D-04 0.296148864540D-02 0.000000000000D+00  5 -1 2 25 24 21 2 0.11711212D-01 0.63681874D-01 0.11934953D+05 0.11934953D+05 0.11934953D+05 0.12593009D+01  1  2  5  1  5  1       -1 -.340603439702D-01 0.100000000000D+01
0.281698691449D-06 0.000000000000D+00 0.000000000000D+00 0.296148864540D-02 0.000000000000D+00  5 21 2 25 24 1 2 0.93558171D-02 0.63681874D-01 0.27176440D+05 0.27176440D+05 0.27176440D+05 0.12194299D+01  1  2 12  3  5  1       -1 0.365971574662D-02 0.100000000000D+01
-.284583045979D-05 0.000000000000D+00 -.495564292391D-05 0.296148864540D-02 0.000000000000D+00  5 21 2 25 24 1 2 0.11711212D-01 0.63681874D-01 0.11934953D+05 0.11934953D+05 0.11934953D+05 0.12593009D+01  1  2  5  3  5  1       -1 -.263813503019D-01 0.100000000000D+01
  </mgrwgt>
  </event>
  <event>
  4     66 0.45252658E-03 0.26933221E+03 0.75467711E-02 0.10069288E+00
       -1 -1    0    0    0  501 0.00000000E+00 0.00000000E+00 0.20094692E+03 0.20094717E+03 0.32000000E+00 0.0000E+00 0.9000E+01
        2 -1    0    0  501    0 0.00000000E+00 0.00000000E+00 -.81744902E+03 0.81744908E+03 0.32000000E+00 0.0000E+00 0.9000E+01
       25  1    1    2    0    0 -.83727669E+02 0.23357154E+03 0.67871458E+02 0.28600266E+03 0.12500000E+03 0.0000E+00 0.9000E+01
       24  1    1    2    0    0 0.83727669E+02 -.23357154E+03 -.68437356E+03 0.73239359E+03 0.80419002E+02 0.0000E+00 0.9000E+01
#aMCatNLO 1  0  0  1  2 0.41520812D+03 0.00000000D+00  -5  5  0 0.00000000D+00 0.00000000D+00 0.00000000D+00 0.00000000D+00 0.00000000D+00
  <mgrwgt>
 0.3527564068D+00    3    2    0
 0.405294982878449D+03 0.000000000000000D+00 0.000000000000000D+00 0.405294982878449D+03
 0.405294982878449D+03 0.000000000000000D+00 0.000000000000000D+00 -.405294982878449D+03
 0.410943821645580D+03 -.837276692089908D+02 0.233571543305514D+03 0.302793388493514D+03
 0.399646144111318D+03 0.837276692089908D+02 -.233571543305514D+03 -.302793388493514D+03
 0.000000000000000D+00 -.000000000000000D+00 0.000000000000000D+00 -.000000000000000D+00
 0.529540520204764D+03 0.000000000000000D+00 0.000000000000000D+00 0.529540520204764D+03
 0.103647177800021D+04 0.000000000000000D+00 0.000000000000000D+00 -.103647177800021D+04
 0.340608298257149D+03 -.771937640641850D+02 0.524051477991388D+02 0.302793388493514D+03
 0.570135287171439D+03 0.921588341480447D+02 -.467343495618349D+03 -.302793388493514D+03
 0.655268712776390D+03 -.149650700838598D+02 0.414938347819210D+03 -.506931257795449D+03
0.889376841260D-02 0.000000000000D+00 0.000000000000D+00 0.877422794579D-03 0.000000000000D+00  5 -1 2 25 24 21 0 0.30914935D-01 0.12576141D+00 0.72539839D+05 0.72539839D+05 0.72539839D+05 0.11766009D+01  1  2  2  1  5  1       -1 0.341552435577D+00 0.100000000000D+01
-.393766262822D-03 0.000000000000D+00 -.341544124874D-04 0.877422794579D-03 0.000000000000D+00  5 -1 2 25 24 21 2 0.30914935D-01 0.12576141D+00 0.72539839D+05 0.72539839D+05 0.72539839D+05 0.11766009D+01  1  2  3  1  5  1       -1 -.209347828815D-01 0.100000000000D+01
0.604503862512D-03 0.000000000000D+00 0.000000000000D+00 0.877422794579D-03 0.000000000000D+00  5 -1 2 25 24 21 2 0.30914935D-01 0.12576141D+00 0.72539839D+05 0.72539839D+05 0.72539839D+05 0.11766009D+01  1  2 15  1  5  1       -1 0.321387541482D-01 0.100000000000D+01
  </mgrwgt>
  </event>
  <event>
  4     66 0.45252658E-03 0.35332248E+02 0.75467711E-02 0.12273547E+00
       -3 -1    0    0    0  501 0.00000000E+00 0.00000000E+00 0.20666149E+03 0.20666210E+03 0.50000000E+00 0.0000E+00 0.9000E+01
        4 -1    0    0  501    0 0.00000000E+00 0.00000000E+00 -.14599748E+03 0.14600571E+03 0.15500000E+01 0.0000E+00 0.9000E+01
       25  1    1    2    0    0 0.59841200E+02 -.35911706E+02 0.15457857E+03 0.21068971E+03 0.12500000E+03 0.0000E+00 0.9000E+01
       24  1    1    2    0    0 -.59841200E+02 0.35911706E+02 -.93914557E+02 0.14197810E+03 0.80419002E+02 0.0000E+00 0.9000E+01
#aMCatNLO 1  0  0  2  1 0.10150233D+02 0.00000000D+00  -5  5  0 0.00000000D+00 0.00000000D+00 0.00000000D+00 0.00000000D+00 0.00000000D+00
  <mgrwgt>
 0.7454451333D-01    6    2    0
 0.173705540016949D+03 0.000000000000000D+00 0.000000000000000D+00 0.173705540016949D+03
 0.173705540016949D+03 0.000000000000000D+00 0.000000000000000D+00 -.173705540016949D+03
 0.186885580280397D+03 0.598411995863240D+02 -.359117055645519D+02 0.120127433803671D+03
 0.160525499753501D+03 -.598411995863240D+02 0.359117055645519D+02 -.120127433803671D+03
 0.000000000000000D+00 -.000000000000000D+00 -.000000000000000D+00 0.000000000000000D+00
 0.179566854866428D+03 0.000000000000000D+00 0.000000000000000D+00 0.179566854866428D+03
 0.178230321294636D+03 0.000000000000000D+00 0.000000000000000D+00 -.178230321294636D+03
 0.186268919609715D+03 0.608809308576785D+02 -.305617787148875D+02 0.120127433803671D+03
 0.161290407361054D+03 -.589445145340338D+02 0.405255895258288D+02 -.120127433803671D+03
 0.102378491902955D+02 -.193641632364476D+01 -.996381081094130D+01 0.133653357179155D+01
0.796854469973D-03 0.000000000000D+00 0.000000000000D+00 0.124954332408D-02 0.000000000000D+00  5 -3 4 25 24 21 0 0.31794755D-01 0.22461830D-01 0.15580305D+05 0.15580305D+05 0.15580305D+05 0.12459476D+01  1  2  2  2  5  2        4 0.271923195842D-01 0.100000000000D+01
-.383910285774D-04 0.000000000000D+00 -.306013098129D-05 0.124954332408D-02 0.000000000000D+00  5 -3 4 25 24 21 2 0.31794755D-01 0.22461830D-01 0.15580305D+05 0.15580305D+05 0.15580305D+05 0.12459476D+01  1  2  3  2  5  2        4 -.203374531954D-02 0.100000000000D+01
0.541608628367D-04 0.000000000000D+00 0.000000000000D+00 0.124954332408D-02 0.000000000000D+00  5 -3 4 25 24 21 2 0.31794755D-01 0.22461830D-01 0.15580305D+05 0.15580305D+05 0.15580305D+05 0.12459476D+01  1  2 15  2  5  2        4 0.286914431257D-02 0.100000000000D+01
0.171461745073D-02 0.000000000000D+00 0.000000000000D+00 0.124954332408D-02 0.000000000000D+00  5 -3 4 25 24 21 2 0.31794755D-01 0.23414822D-01 0.16917709D+05 0.16917709D+05 0.16917709D+05 0.12419096D+01  1  2 12  2  5  2        4 0.842286626727D-01 0.100000000000D+01
-.116931036203D-02 0.000000000000D+00 0.000000000000D+00 0.124954332408D-02 0.000000000000D+00  5 -3 4 25 24 21 2 0.31794755D-01 0.22461830D-01 0.15580305D+05 0.15580305D+05 0.15580305D+05 0.12459476D+01  1  2  4  2  5  2        4 -.619436249559D-01 0.100000000000D+01
0.195983149888D-04 0.000000000000D+00 0.000000000000D+00 0.124954332408D-02 0.000000000000D+00  5 -3 21 25 24 -4 2 0.31794755D-01 0.23414822D-01 0.16917709D+05 0.16917709D+05 0.16917709D+05 0.12419096D+01  1  2 12  4  5  2        4 0.242317570366D-01 0.100000000000D+01
  </mgrwgt>
  </event>
  <event>
  4     66 0.45252658E-03 0.60717960E+02 0.75467711E-02 0.11666201E+00
       -1 -1    0    0    0  501 0.00000000E+00 0.00000000E+00 0.40197914E+02 0.40199187E+02 0.32000000E+00 0.0000E+00 0.9000E+01
        2 -1    0    0  501    0 0.00000000E+00 0.00000000E+00 -.86500476E+03 0.86500482E+03 0.32000000E+00 0.0000E+00 0.9000E+01
       25  1    1    2    0    0 0.36607946E+02 -.13678796E+03 -.58967997E+03 0.61919186E+03 0.12500000E+03 0.0000E+00 0.9000E+01
       24  1    1    2    0    0 -.36607946E+02 0.13678796E+03 -.23512687E+03 0.28601215E+03 0.80419002E+02 0.0000E+00 0.9000E+01
#aMCatNLO 1  0  0  2  1 0.10555833D+02 0.00000000D+00  -5  5  0 0.00000000D+00 0.00000000D+00 0.00000000D+00 0.00000000D+00 0.00000000D+00
  <mgrwgt>
 0.5576039117D+00    9    2    0
 0.186472490518368D+03 0.000000000000000D+00 0.000000000000000D+00 0.186472490518368D+03
 0.186472490518368D+03 0.000000000000000D+00 0.000000000000000D+00 -.186472490518368D+03
 0.198750151448637D+03 0.366079455349464D+02 -.136787955478712D+03 -.618509196416729D+02
 0.174194829588099D+03 -.366079455349464D+02 0.136787955478712D+03 0.618509196416729D+02
 0.000000000000000D+00 -.000000000000000D+00 -.000000000000000D+00 -.000000000000000D+00
 0.188745353914911D+03 0.000000000000000D+00 0.000000000000000D+00 0.188745353914911D+03
 0.199219622554987D+03 0.000000000000000D+00 0.000000000000000D+00 -.199219622554987D+03
 0.197896864541714D+03 0.415427550628540D+02 -.134114996315508D+03 -.618509196416729D+02
 0.175197472707949D+03 -.322610466731381D+02 0.139142470496663D+03 0.618509196416729D+02
 0.148706392202348D+02 -.928170838971588D+01 -.502747418115555D+01 -.104742686400758D+02
0.581570816547D-03 0.000000000000D+00 0.000000000000D+00 0.197902054515D-02 0.000000000000D+00  5 -1 2 25 24 21 0 0.61843969D-02 0.13307776D+00 0.30927717D+05 0.30927717D+05 0.30927717D+05 0.12135127D+01  1  2  2  2  5  2        2 0.266332367084D+00 0.100000000000D+01
-.321746848168D-04 0.000000000000D+00 -.223338506665D-05 0.197902054515D-02 0.000000000000D+00  5 -1 2 25 24 21 2 0.61843969D-02 0.13307776D+00 0.30927717D+05 0.30927717D+05 0.30927717D+05 0.12135127D+01  1  2  3  2  5  2        2 -.216982281677D-01 0.100000000000D+01
0.399938972847D-04 0.000000000000D+00 0.000000000000D+00 0.197902054515D-02 0.000000000000D+00  5 -1 2 25 24 21 2 0.61843969D-02 0.13307776D+00 0.30927717D+05 0.30927717D+05 0.30927717D+05 0.12135127D+01  1  2 15  2  5  2        2 0.269714128838D-01 0.100000000000D+01
0.359621585565D-02 0.000000000000D+00 0.000000000000D+00 0.197902054515D-02 0.000000000000D+00  5 -1 2 25 24 21 2 0.61843969D-02 0.14295106D+00 0.32843478D+05 0.32843478D+05 0.32843478D+05 0.12107923D+01  1  2 12  2  5  2        2 0.219876269903D+01 0.100000000000D+01
-.365415483220D-02 0.000000000000D+00 0.000000000000D+00 0.197902054515D-02 0.000000000000D+00  5 -1 2 25 24 21 2 0.61843969D-02 0.13307776D+00 0.30927717D+05 0.30927717D+05 0.30927717D+05 0.12135127D+01  1  2  4  2  5  2        2 -.246431894394D+01 0.100000000000D+01
-.877071709485D-02 0.000000000000D+00 -.114531936317D-02 0.197902054515D-02 0.000000000000D+00  5 -1 2 25 24 21 2 0.61843969D-02 0.14312582D+00 0.30927717D+05 0.30927717D+05 0.30927717D+05 0.12135127D+01  1  2  5  2  5  2        2 -.537320292515D+01 0.100000000000D+01
0.883370015206D-02 0.000000000000D+00 0.114229183696D-02 0.197902054515D-02 0.000000000000D+00  5 -1 2 25 24 21 2 0.61843969D-02 0.13307776D+00 0.30927717D+05 0.30927717D+05 0.30927717D+05 0.12135127D+01  1  2  6  2  5  2        2 0.595734325158D+01 0.100000000000D+01
0.481827326494D-04 0.000000000000D+00 0.000000000000D+00 0.197902054515D-02 0.000000000000D+00  5 -1 21 25 24 -2 2 0.61843969D-02 0.14295106D+00 0.32843478D+05 0.32843478D+05 0.32843478D+05 0.12107923D+01  1  2 12  4  5  2        2 0.271907448959D-01 0.100000000000D+01
-.105599078544D-03 0.000000000000D+00 -.140604398217D-04 0.197902054515D-02 0.000000000000D+00  5 -1 21 25 24 -2 2 0.61843969D-02 0.14312582D+00 0.30927717D+05 0.30927717D+05 0.30927717D+05 0.12135127D+01  1  2  5  4  5  2        2 -.597764665088D-01 0.100000000000D+01
  </mgrwgt>
  </event>
  <event>
  4     66 0.45252658E-03 0.18069211E+03 0.75467711E-02 0.10822836E+00
       -1 -1    0    0    0  501 0.00000000E+00 0.00000000E+00 0.30606030E+02 0.30607703E+02 0.32000000E+00 0.0000E+00 0.9000E+01
        2 -1    0    0  501    0 0.00000000E+00 0.00000000E+00 -.13251462E+04 0.13251462E+04 0.32000000E+00 0.0000E+00 0.9000E+01
       25  1    1    2    0    0 0.69775180E+02 -.12998268E+03 -.38505673E+03 0.43088021E+03 0.12500000E+03 0.0000E+00 0.9000E+01
       24  1    1    2    0    0 -.69775180E+02 0.12998268E+03 -.90948341E+03 0.92487370E+03 0.80419002E+02 0.0000E+00 0.9000E+01
#aMCatNLO 1  0  0  2  2 0.20329816D+03 0.00000000D+00  -5  5  0 0.00000000D+00 0.00000000D+00 0.00000000D+00 0.00000000D+00 0.00000000D+00
  <mgrwgt>
 0.3231062008D+00    5    2    0
 0.201391718527330D+03 0.000000000000000D+00 0.000000000000000D+00 0.201391718527330D+03
 0.201391718527330D+03 0.000000000000000D+00 0.000000000000000D+00 -.201391718527330D+03
 0.212759842441008D+03 0.697751800632443D+02 -.129982677111741D+03 0.887562868394655D+02
 0.190023594613651D+03 -.697751800632443D+02 0.129982677111741D+03 -.887562868394655D+02
 0.000000000000000D+00 -.000000000000000D+00 0.000000000000000D+00 -.000000000000000D+00
 0.277277548919208D+03 0.000000000000000D+00 0.000000000000000D+00 0.277277548919208D+03
 0.425497133354203D+03 0.000000000000000D+00 0.000000000000000D+00 -.425497133354203D+03
 0.301417390852089D+03 0.176108030640174D+03 -.190619323780646D+03 0.887562868394655D+02
 0.149763992026229D+03 0.493552853365415D+00 0.899117083883596D+02 -.887562868394655D+02
 0.251593299395093D+03 -.176601583493539D+03 0.100707615392287D+03 -.148219584434995D+03
0.891398870068D-03 0.000000000000D+00 0.000000000000D+00 0.176020006042D-02 0.000000000000D+00  5 -1 2 25 24 21 0 0.47087517D-02 0.20386877D+00 0.32649640D+05 0.32649640D+05 0.32649640D+05 0.12110594D+01  1  2  2  2  5  2        2 0.329934991238D+00 0.100000000000D+01
-.488138897712D-04 0.000000000000D+00 -.342320637178D-05 0.176020006042D-02 0.000000000000D+00  5 -1 2 25 24 21 2 0.47087517D-02 0.20386877D+00 0.32649640D+05 0.32649640D+05 0.32649640D+05 0.12110594D+01  1  2  3  2  5  2        2 -.264990694418D-01 0.100000000000D+01
0.612646346012D-04 0.000000000000D+00 0.000000000000D+00 0.176020006042D-02 0.000000000000D+00  5 -1 2 25 24 21 2 0.47087517D-02 0.20386877D+00 0.32649640D+05 0.32649640D+05 0.32649640D+05 0.12110594D+01  1  2 15  2  5  2        2 0.332580708941D-01 0.100000000000D+01
-.227295599956D-03 0.000000000000D+00 -.272726524700D-03 0.176020006042D-02 0.000000000000D+00  5 -1 2 25 24 21 2 0.47087517D-02 0.47772819D+00 0.32649640D+05 0.32649640D+05 0.32649640D+05 0.12110594D+01  1  2  5  2  5  2        2 -.135610810665D-01 0.100000000000D+01
-.388667163543D-05 0.000000000000D+00 -.253302740878D-04 0.176020006042D-02 0.000000000000D+00  5 -1 21 25 24 -2 2 0.47087517D-02 0.47772819D+00 0.32649640D+05 0.32649640D+05 0.32649640D+05 0.12110594D+01  1  2  5  4  5  2        2 -.267107756668D-04 0.100000000000D+01
  </mgrwgt>
  </event>
  <event>
  4     66 0.45252658E-03 0.77997673E+02 0.75467711E-02 0.11796691E+00
       -1 -1    0    0    0  501 0.00000000E+00 0.00000000E+00 0.14544854E+03 0.14544889E+03 0.32000000E+00 0.0000E+00 0.9000E+01
        2 -1    0    0  501    0 0.00000000E+00 0.00000000E+00 -.12949161E+03 0.12949200E+03 0.32000000E+00 0.0000E+00 0.9000E+01
       25  1    1    2    0    0 0.89760756E+02 0.16425117E+01 0.63048403E+01 0.15402741E+03 0.12500000E+03 0.0000E+00 0.9000E+01
       24  1    1    2    0    0 -.89760756E+02 -.16425117E+01 0.96520904E+01 0.12091348E+03 0.80419002E+02 0.0000E+00 0.9000E+01
#aMCatNLO 1  0  0  1  2 0.56374378D+02 0.00000000D+00  -5  5  0 0.00000000D+00 0.00000000D+00 0.00000000D+00 0.00000000D+00 0.00000000D+00
  <mgrwgt>
 0.3685243441D+00    9    2    0
 0.137238723397809D+03 0.000000000000000D+00 0.000000000000000D+00 0.137238723397809D+03
 0.137238723397809D+03 0.000000000000000D+00 0.000000000000000D+00 -.137238723397809D+03
 0.153920939282104D+03 0.897607563386035D+02 0.164251165615534D+01 -.263900103571473D+01
 0.120556507513513D+03 -.897607563386035D+02 -.164251165615534D+01 0.263900103571473D+01
 0.000000000000000D+00 -.000000000000000D+00 0.000000000000000D+00 0.000000000000000D+00
 0.181414112805821D+03 0.000000000000000D+00 0.000000000000000D+00 0.181414112805821D+03
 0.159336241433564D+03 0.000000000000000D+00 0.000000000000000D+00 -.159336241433564D+03
 0.161396117345336D+03 0.977376336699776D+02 -.293955325224110D+02 -.263900103571473D+01
 0.118810840525092D+03 -.837052514672120D+02 -.252044921046369D+02 0.263900103571473D+01
 0.605433963689570D+02 -.140323822027656D+02 0.546000246270479D+02 0.220778713722566D+02
0.541717439617D-03 0.000000000000D+00 0.000000000000D+00 0.252988760013D-02 0.000000000000D+00  5 -1 2 25 24 21 0 0.22376755D-01 0.19921843D-01 0.18827398D+05 0.18827398D+05 0.18827398D+05 0.12367253D+01  1  2  2  1  5  1       -1 0.275958870522D+00 0.100000000000D+01
-.300954120230D-04 0.000000000000D+00 -.208033760561D-05 0.252988760013D-02 0.000000000000D+00  5 -1 2 25 24 21 2 0.22376755D-01 0.19921843D-01 0.18827398D+05 0.18827398D+05 0.18827398D+05 0.12367253D+01  1  2  3  1  5  1       -1 -.234486762112D-01 0.100000000000D+01
0.374864424924D-04 0.000000000000D+00 0.000000000000D+00 0.252988760013D-02 0.000000000000D+00  5 -1 2 25 24 21 2 0.22376755D-01 0.19921843D-01 0.18827398D+05 0.18827398D+05 0.18827398D+05 0.12367253D+01  1  2 15  1  5  1       -1 0.292073573089D-01 0.100000000000D+01
0.241059205650D-03 0.000000000000D+00 0.000000000000D+00 0.252988760013D-02 0.000000000000D+00  5 -1 2 25 24 21 2 0.30917155D-01 0.19921843D-01 0.28313185D+05 0.28313185D+05 0.28313185D+05 0.12175450D+01  1  2 12  1  5  1       -1 0.107622520534D+00 0.100000000000D+01
-.290582326673D-03 0.000000000000D+00 0.000000000000D+00 0.252988760013D-02 0.000000000000D+00  5 -1 2 25 24 21 2 0.22376755D-01 0.19921843D-01 0.18827398D+05 0.18827398D+05 0.18827398D+05 0.12367253D+01  1  2  4  1  5  1       -1 -.226405635704D+00 0.100000000000D+01
-.477042578612D-03 0.000000000000D+00 -.198452018819D-03 0.252988760013D-02 0.000000000000D+00  5 -1 2 25 24 21 2 0.33952800D-01 0.19921843D-01 0.18827398D+05 0.18827398D+05 0.18827398D+05 0.12367253D+01  1  2  5  1  5  1       -1 -.185752181614D+00 0.100000000000D+01
0.529199963053D-03 0.000000000000D+00 0.182368962206D-03 0.252988760013D-02 0.000000000000D+00  5 -1 2 25 24 21 2 0.22376755D-01 0.19921843D-01 0.18827398D+05 0.18827398D+05 0.18827398D+05 0.12367253D+01  1  2  6  1  5  1       -1 0.412323266255D+00 0.100000000000D+01
0.983443002807D-05 0.000000000000D+00 0.000000000000D+00 0.252988760013D-02 0.000000000000D+00  5 21 2 25 24 1 2 0.30917155D-01 0.19921843D-01 0.28313185D+05 0.28313185D+05 0.28313185D+05 0.12175450D+01  1  2 12  3  5  1       -1 0.500048480922D-01 0.100000000000D+01
-.162522769284D-04 0.000000000000D+00 -.973977653807D-05 0.252988760013D-02 0.000000000000D+00  5 21 2 25 24 1 2 0.33952800D-01 0.19921843D-01 0.18827398D+05 0.18827398D+05 0.18827398D+05 0.12367253D+01  1  2  5  3  5  1       -1 -.709860251188D-01 0.100000000000D+01
  </mgrwgt>
  </event>
  <event>
  4     66 0.45252658E-03 0.40921371E+02 0.75467711E-02 0.12389219E+00
       -1 -1    0    0    0  501 0.00000000E+00 0.00000000E+00 0.80705490E+01 0.80768905E+01 0.32000000E+00 0.0000E+00 0.9000E+01
        2 -1    0    0  501    0 0.00000000E+00 0.00000000E+00 -.15695468E+04 0.15695469E+04 0.32000000E+00 0.0000E+00 0.9000E+01
       25  1    1    2    0    0 -.16895176E+02 -.32818129E+02 -.11041398E+04 0.11118058E+04 0.12500000E+03 0.0000E+00 0.9000E+01
       24  1    1    2    0    0 0.16895176E+02 0.32818129E+02 -.45733645E+03 0.46581791E+03 0.80419002E+02 0.0000E+00 0.9000E+01
#aMCatNLO 1  0  0  2  1 0.24836929D+02 0.00000000D+00  -5  5  0 0.00000000D+00 0.00000000D+00 0.00000000D+00 0.00000000D+00 0.00000000D+00
  <mgrwgt>
 0.7121480575D+00    9    2    0
 0.112570567125636D+03 0.000000000000000D+00 0.000000000000000D+00 0.112570567125636D+03
 0.112570567125636D+03 0.000000000000000D+00 0.000000000000000D+00 -.112570567125636D+03
 0.132908441135387D+03 -.168951764093627D+02 -.328181289479481D+02 -.260226276822874D+02
 0.922326931158856D+02 0.168951764093627D+02 0.328181289479481D+02 0.260226276822874D+02
 0.000000000000000D+00 -.000000000000000D+00 -.000000000000000D+00 -.000000000000000D+00
 0.123523151642088D+03 0.000000000000000D+00 0.000000000000000D+00 0.123523151642088D+03
 0.128270345124845D+03 0.000000000000000D+00 0.000000000000000D+00 -.128270345124845D+03
 0.130264916824611D+03 -.444708312410735D+01 -.254360935585466D+02 -.260226276822874D+02
 0.962420441666987D+02 0.258100267946522D+02 0.381048615846145D+02 0.260226276822874D+02
 0.252865357756242D+02 -.213629436705448D+02 -.126687680260679D+02 -.474719348275697D+01
0.172498297988D-03 0.000000000000D+00 0.000000000000D+00 0.281153542113D-02 0.000000000000D+00  5 -1 2 25 24 21 0 0.12421132D-02 0.24146923D+00 0.11970719D+05 0.11970719D+05 0.11970719D+05 0.12591485D+01  1  2  2  2  5  2        2 0.322269233820D+00 0.100000000000D+01
-.957379393706D-05 0.000000000000D+00 -.662438884120D-06 0.281153542113D-02 0.000000000000D+00  5 -1 2 25 24 21 2 0.12421132D-02 0.24146923D+00 0.11970719D+05 0.11970719D+05 0.11970719D+05 0.12591485D+01  1  2  3  2  5  2        2 -.283577646968D-01 0.100000000000D+01
0.118987756135D-04 0.000000000000D+00 0.000000000000D+00 0.281153542113D-02 0.000000000000D+00  5 -1 2 25 24 21 2 0.12421132D-02 0.24146923D+00 0.11970719D+05 0.11970719D+05 0.11970719D+05 0.12591485D+01  1  2 15  2  5  2        2 0.352444058486D-01 0.100000000000D+01
0.179211932853D-03 0.000000000000D+00 0.000000000000D+00 0.281153542113D-02 0.000000000000D+00  5 -1 2 25 24 21 2 0.12421132D-02 0.28550902D+00 0.15022588D+05 0.15022588D+05 0.15022588D+05 0.12477480D+01  1  2 12  2  5  2        2 0.374973164867D+00 0.100000000000D+01
-.162755902322D-03 0.000000000000D+00 0.000000000000D+00 0.281153542113D-02 0.000000000000D+00  5 -1 2 25 24 21 2 0.12421132D-02 0.24146923D+00 0.11970719D+05 0.11970719D+05 0.11970719D+05 0.12591485D+01  1  2  4  2  5  2        2 -.482086162645D+00 0.100000000000D+01
-.496236483681D-03 0.000000000000D+00 -.128394928509D-03 0.281153542113D-02 0.000000000000D+00  5 -1 2 25 24 21 2 0.12421132D-02 0.28909040D+00 0.11970719D+05 0.11970719D+05 0.11970719D+05 0.12591485D+01  1  2  5  2  5  2        2 -.102379852234D+01 0.100000000000D+01
0.513065572779D-03 0.000000000000D+00 0.126342704787D-03 0.281153542113D-02 0.000000000000D+00  5 -1 2 25 24 21 2 0.12421132D-02 0.24146923D+00 0.11970719D+05 0.11970719D+05 0.11970719D+05 0.12591485D+01  1  2  6  2  5  2        2 0.151971025098D+01 0.100000000000D+01
0.446663298807D-05 0.000000000000D+00 0.000000000000D+00 0.281153542113D-02 0.000000000000D+00  5 -1 21 25 24 -2 2 0.12421132D-02 0.28550902D+00 0.15022588D+05 0.15022588D+05 0.15022588D+05 0.12477480D+01  1  2 12  4  5  2        2 0.360410112685D-02 0.100000000000D+01
-.118560316060D-04 0.000000000000D+00 -.338623363906D-05 0.281153542113D-02 0.000000000000D+00  5 -1 21 25 24 -2 2 0.12421132D-02 0.28909040D+00 0.11970719D+05 0.11970719D+05 0.11970719D+05 0.12591485D+01  1  2  5  4  5  2        2 -.941064944007D-02 0.100000000000D+01
  </mgrwgt>
  </event>
  <event>
  4     66 0.45252658E-03 0.12550216E+03 0.75467711E-02 0.92125895E-01
       -1 -1    0    0    0  501 0.00000000E+00 0.00000000E+00 0.44292448E+02 0.44293603E+02 0.32000000E+00 0.0000E+00 0.9000E+01
        2 -1    0    0  501    0 0.00000000E+00 0.00000000E+00 -.78121573E+03 0.78121579E+03 0.32000000E+00 0.0000E+00 0.9000E+01
       25  1    1    2    0    0 0.45414889E+02 0.54543132E+02 -.69603069E+03 0.71071878E+03 0.12500000E+03 0.0000E+00 0.9000E+01
       24  1    1    2    0    0 -.45414889E+02 -.54543132E+02 -.40892591E+02 0.11479062E+03 0.80419002E+02 0.0000E+00 0.9000E+01
#aMCatNLO 1  0  0  1  1 0.10785500D+04 0.00000000D+00  -5  5  0 0.00000000D+00 0.00000000D+00 0.00000000D+00 0.00000000D+00 0.00000000D+00
  <mgrwgt>
 0.3761046509D+00    5    2    0
 0.186017367089038D+03 0.000000000000000D+00 0.000000000000000D+00 0.186017367089038D+03
 0.186017367089038D+03 0.000000000000000D+00 0.000000000000000D+00 -.186017367089038D+03
 0.198325067424951D+03 0.454148891471735D+02 0.545431324904354D+02 -.136639551049438D+03
 0.173709666753125D+03 -.454148891471735D+02 -.545431324904354D+02 0.136639551049438D+03
 0.000000000000000D+00 -.000000000000000D+00 0.000000000000000D+00 0.000000000000000D+00
 0.153330211340378D+04 0.000000000000000D+00 0.000000000000000D+00 0.153330211340378D+04
 0.872495441751912D+03 0.000000000000000D+00 0.000000000000000D+00 -.872495441751912D+03
 0.461354894136268D+03 0.838151851570146D+02 -.414159372910466D+03 -.136639551049438D+03
 0.679557035623585D+03 0.425418654986959D+01 -.660788985756384D+03 0.136639551049438D+03
 0.126488562539584D+04 -.880693717068842D+02 0.107494835866685D+04 0.660806671651866D+03
0.788323089294D-03 0.000000000000D+00 0.000000000000D+00 0.108405423993D-02 0.000000000000D+00  5 -1 2 25 24 21 0 0.68143167D-02 0.12018713D+00 0.15750793D+05 0.15750793D+05 0.15750793D+05 0.12454117D+01  1  2  2  1  5  1       -1 0.350709372207D+00 0.100000000000D+01
-.355497833632D-04 0.000000000000D+00 -.302736823312D-05 0.108405423993D-02 0.000000000000D+00  5 -1 2 25 24 21 2 0.68143167D-02 0.12018713D+00 0.15750793D+05 0.15750793D+05 0.15750793D+05 0.12454117D+01  1  2  3  1  5  1       -1 -.245304742241D-01 0.100000000000D+01
0.535038706838D-04 0.000000000000D+00 0.000000000000D+00 0.108405423993D-02 0.000000000000D+00  5 -1 2 25 24 21 2 0.68143167D-02 0.12018713D+00 0.15750793D+05 0.15750793D+05 0.15750793D+05 0.12454117D+01  1  2 15  1  5  1       -1 0.369193619913D-01 0.100000000000D+01
0.894294311036D-02 0.000000000000D+00 -.191225923952D-02 0.108405423993D-02 0.000000000000D+00  5 -1 2 25 24 21 2 0.27635428D+00 0.12018713D+00 0.15750793D+05 0.15750793D+05 0.15750793D+05 0.12454117D+01  1  2  5  1  5  1       -1 0.356595590581D-02 0.100000000000D+01
0.251273449415D-02 0.000000000000D+00 -.665368837384D-03 0.108405423993D-02 0.000000000000D+00  5 21 2 25 24 1 2 0.27635428D+00 0.12018713D+00 0.15750793D+05 0.15750793D+05 0.15750793D+05 0.12454117D+01  1  2  5  3  5  1       -1 0.944043499237D-02 0.100000000000D+01
  </mgrwgt>
  </event>
  <event>
  5     66 0.45252658E-03 0.12636867E+03 0.75467711E-02 0.11502364E+00
       21 -1    0    0  502  501 0.00000000E+00 0.00000000E+00 0.42144882E+02 0.42151555E+02 0.75000000E+00 0.0000E+00 0.9000E+01
        2 -1    0    0  501    0 0.00000000E+00 0.00000000E+00 -.10293004E+04 0.10293004E+04 0.32000000E+00 0.0000E+00 0.9000E+01
       25  1    1    2    0    0 -.56984479E+02 -.83893936E+01 -.21354346E+03 0.25405398E+03 0.12500000E+03 0.0000E+00 0.9000E+01
       24  1    1    2    0    0 0.78283904E+01 0.11687662E+03 -.47873389E+03 0.49937439E+03 0.80419002E+02 0.0000E+00 0.9000E+01
        1  1    1    2  502    0 0.49156089E+02 -.10848723E+03 -.29487816E+03 0.31802364E+03 0.32000000E+00 0.0000E+00 0.9000E+01
#aMCatNLO 2  0  0  1  1 0.11910415D+03 0.00000000D+00  -5  5  0 0.00000000D+00 0.00000000D+00 0.00000000D+00 0.00000000D+00 0.00000000D+00
  <mgrwgt>
 0.1227520442D+00    1    2    0
 0.136217263861663D+03 0.000000000000000D+00 0.000000000000000D+00 0.136217263861663D+03
 0.136217263861663D+03 0.000000000000000D+00 0.000000000000000D+00 -.136217263861663D+03
 0.153024575552583D+03 -.311371742586240D+02 -.654342586301620D+02 0.504019334922528D+02
 0.119409952170742D+03 0.311371742586240D+02 0.654342586301620D+02 -.504019334922528D+02
 0.000000000000000D+00 0.000000000000000D+00 -.000000000000000D+00 -.000000000000000D+00
 0.204935477966711D+03 0.000000000000000D+00 0.000000000000000D+00 0.204935477966711D+03
 0.211692268223460D+03 0.000000000000000D+00 0.000000000000000D+00 -.211692268223460D+03
 0.146570691904016D+03 -.569844794712806D+02 -.838939359260443D+01 0.504019334922528D+02
 0.150761397523930D+03 0.782839039645833D+01 0.116876620557925D+03 -.504019334922528D+02
 0.119295656762225D+03 0.491560890748222D+02 -.108487226965321D+03 -.675679025674925D+01
0.153601516310D-04 0.000000000000D+00 0.000000000000D+00 0.223073882847D-02 0.133513102005D-06  5 21 2 25 24 1 2 0.64843385D-02 0.15835426D+00 0.39764960D+05 0.39764960D+05 0.39764960D+05 0.12022603D+01  1  2  1  3  5  1       -1 0.122752044224D+00 0.100000000000D+01
  </mgrwgt>
  </event>
  <event>
  4     66 0.45252658E-03 0.64115853E+02 0.75467711E-02 0.11786395E+00
       -1 -1    0    0    0  501 0.00000000E+00 0.00000000E+00 0.24289509E+03 0.24289530E+03 0.32000000E+00 0.0000E+00 0.9000E+01
        2 -1    0    0  501    0 0.00000000E+00 0.00000000E+00 -.91157040E+02 0.91157602E+02 0.32000000E+00 0.0000E+00 0.9000E+01
       25  1    1    2    0    0 0.36647424E+02 0.92519199E+02 0.12615363E+03 0.20357449E+03 0.12500000E+03 0.0000E+00 0.9000E+01
       24  1    1    2    0    0 -.36647424E+02 -.92519199E+02 0.25584413E+02 0.13047840E+03 0.80419002E+02 0.0000E+00 0.9000E+01
#aMCatNLO 1  0  0  2  1 0.46864727D+02 0.00000000D+00  -5  5  0 0.00000000D+00 0.00000000D+00 0.00000000D+00 0.00000000D+00 0.00000000D+00
  <mgrwgt>
 0.3832664382D+00    9    2    0
 0.148800961326895D+03 0.000000000000000D+00 0.000000000000000D+00 0.148800961326895D+03
 0.148800961326895D+03 0.000000000000000D+00 0.000000000000000D+00 -.148800961326895D+03
 0.164186923830039D+03 0.366474236083525D+02 0.925191985721914D+02 0.378088639765906D+02
 0.133414998823751D+03 -.366474236083525D+02 -.925191985721914D+02 -.378088639765906D+02
 0.000000000000000D+00 -.000000000000000D+00 0.000000000000000D+00 -.000000000000000D+00
 0.168688645028300D+03 0.000000000000000D+00 0.000000000000000D+00 0.168688645028300D+03
 0.181047658190253D+03 0.000000000000000D+00 0.000000000000000D+00 -.181047658190253D+03
 0.153455443735989D+03 0.426231087347698D+02 0.683910346375379D+02 0.378088639765906D+02
 0.147813882625862D+03 -.313567715556219D+02 -.113881388404645D+03 -.378088639765906D+02
 0.484669768567026D+02 -.112663371791479D+02 0.454903537671073D+02 -.123590131619531D+02
0.788749662936D-03 0.000000000000D+00 0.000000000000D+00 0.227662699344D-02 0.000000000000D+00  5 -1 2 25 24 21 0 0.37368534D-01 0.14024219D-01 0.20695675D+05 0.20695675D+05 0.20695675D+05 0.12321946D+01  1  2  2  2  5  2        2 0.256063327539D+00 0.100000000000D+01
-.437586683188D-04 0.000000000000D+00 -.302900638823D-05 0.227662699344D-02 0.000000000000D+00  5 -1 2 25 24 21 2 0.37368534D-01 0.14024219D-01 0.20695675D+05 0.20695675D+05 0.20695675D+05 0.12321946D+01  1  2  3  2  5  2        2 -.215690432303D-01 0.100000000000D+01
0.545270336840D-04 0.000000000000D+00 0.000000000000D+00 0.227662699344D-02 0.000000000000D+00  5 -1 2 25 24 21 2 0.37368534D-01 0.14024219D-01 0.20695675D+05 0.20695675D+05 0.20695675D+05 0.12321946D+01  1  2 15  2  5  2        2 0.268768678741D-01 0.100000000000D+01
0.624964528590D-03 0.000000000000D+00 0.000000000000D+00 0.227662699344D-02 0.000000000000D+00  5 -1 2 25 24 21 2 0.37368534D-01 0.17834058D-01 0.28643210D+05 0.28643210D+05 0.28643210D+05 0.12170136D+01  1  2 12  2  5  2        2 0.228571664163D+00 0.100000000000D+01
-.635499345461D-03 0.000000000000D+00 0.000000000000D+00 0.227662699344D-02 0.000000000000D+00  5 -1 2 25 24 21 2 0.37368534D-01 0.14024219D-01 0.20695675D+05 0.20695675D+05 0.20695675D+05 0.12321946D+01  1  2  4  2  5  2        2 -.313243372837D+00 0.100000000000D+01
-.132526444658D-02 0.000000000000D+00 -.478827113211D-03 0.227662699344D-02 0.000000000000D+00  5 -1 2 25 24 21 2 0.37368534D-01 0.19248008D-01 0.20695675D+05 0.20695675D+05 0.20695675D+05 0.12321946D+01  1  2  5  2  5  2        2 -.452450347466D+00 0.100000000000D+01
0.142774424461D-02 0.000000000000D+00 0.455789324967D-03 0.227662699344D-02 0.000000000000D+00  5 -1 2 25 24 21 2 0.37368534D-01 0.14024219D-01 0.20695675D+05 0.20695675D+05 0.20695675D+05 0.12321946D+01  1  2  6  2  5  2        2 0.703748046201D+00 0.100000000000D+01
0.205419814607D-04 0.000000000000D+00 0.000000000000D+00 0.227662699344D-02 0.000000000000D+00  5 -1 21 25 24 -2 2 0.37368534D-01 0.17834058D-01 0.28643210D+05 0.28643210D+05 0.28643210D+05 0.12170136D+01  1  2 12  4  5  2        2 0.556782219311D-01 0.100000000000D+01
-.415975882044D-04 0.000000000000D+00 -.192435039448D-04 0.227662699344D-02 0.000000000000D+00  5 -1 21 25 24 -2 2 0.37368534D-01 0.19248008D-01 0.20695675D+05 0.20695675D+05 0.20695675D+05 0.12321946D+01  1  2  5  4  5  2        2 -.100408926022D+00 0.100000000000D+01
  </mgrwgt>
  </event>
  <event>
  4     66 0.45252658E-03 0.10375231E+03 0.75467711E-02 0.11366495E+00
       -1 -1    0    0    0  501 0.00000000E+00 0.00000000E+00 0.17077713E+03 0.17077743E+03 0.32000000E+00 0.0000E+00 0.9000E+01
        2 -1    0    0  501    0 0.00000000E+00 0.00000000E+00 -.63059959E+02 0.63060771E+02 0.32000000E+00 0.0000E+00 0.9000E+01
       25  1    1    2    0    0 0.11593788E+02 -.84230138E+01 0.62899889E+02 0.14066542E+03 0.12500000E+03 0.0000E+00 0.9000E+01
       24  1    1    2    0    0 -.11593788E+02 0.84230138E+01 0.44817282E+02 0.93172785E+02 0.80419002E+02 0.0000E+00 0.9000E+01
#aMCatNLO 1  0  0  2  2 0.16656880D+03 0.00000000D+00  -5  5  0 0.00000000D+00 0.00000000D+00 0.00000000D+00 0.00000000D+00 0.00000000D+00
  <mgrwgt>
 0.2232242332D+00    3    2    0
 0.103775376370650D+03 0.000000000000000D+00 0.000000000000000D+00 0.103775376370650D+03
 0.103775376370650D+03 0.000000000000000D+00 0.000000000000000D+00 -.103775376370650D+03
 0.125836929809206D+03 0.115937884137525D+02 -.842301384112716D+01 -.213771182727070D+01
 0.817138229320943D+02 -.115937884137525D+02 0.842301384112716D+01 0.213771182727070D+01
 0.000000000000000D+00 0.000000000000000D+00 -.000000000000000D+00 0.000000000000000D+00
 0.218102878420441D+03 0.000000000000000D+00 0.000000000000000D+00 0.218102878420441D+03
 0.214627122093064D+03 0.000000000000000D+00 0.000000000000000D+00 -.214627122093064D+03
 0.149849346463357D+03 -.666479759650950D+02 0.488190958887501D+02 -.213771182727070D+01
 0.116275589585147D+03 -.677846194305450D+02 0.495325381522353D+02 0.213771182727070D+01
 0.166605064465001D+03 0.134432595395640D+03 -.983516340409854D+02 0.347575632737724D+01
0.243922274220D-03 0.000000000000D+00 0.000000000000D+00 0.320396424459D-02 0.000000000000D+00  5 -1 2 25 24 21 0 0.26273490D-01 0.97016176D-02 0.10764543D+05 0.10764543D+05 0.10764543D+05 0.12645921D+01  1  2  2  2  5  2        2 0.218510524252D+00 0.100000000000D+01
-.135512366427D-04 0.000000000000D+00 -.936725759215D-06 0.320396424459D-02 0.000000000000D+00  5 -1 2 25 24 21 2 0.26273490D-01 0.97016176D-02 0.10764543D+05 0.10764543D+05 0.10764543D+05 0.12645921D+01  1  2  3  2  5  2        2 -.194133623602D-01 0.100000000000D+01
0.168415777952D-04 0.000000000000D+00 0.000000000000D+00 0.320396424459D-02 0.000000000000D+00  5 -1 2 25 24 21 2 0.26273490D-01 0.97016176D-02 0.10764543D+05 0.10764543D+05 0.10764543D+05 0.12645921D+01  1  2 15  2  5  2        2 0.241270712833D-01 0.100000000000D+01
  </mgrwgt>
  </event>
  <event>
  4     66 0.45252658E-03 0.65944682E+02 0.75467711E-02 0.12453158E+00
       -1 -1    0    0    0  501 0.00000000E+00 0.00000000E+00 0.87020024E+02 0.87020613E+02 0.32000000E+00 0.0000E+00 0.9000E+01
        2 -1    0    0  501    0 0.00000000E+00 0.00000000E+00 -.18045259E+03 0.18045287E+03 0.32000000E+00 0.0000E+00 0.9000E+01
       25  1    1    2    0    0 -.16049113E+02 0.23706065E+01 0.19852749E+02 0.12760222E+03 0.12500000E+03 0.0000E+00 0.9000E+01
       24  1    1    2    0    0 0.16049113E+02 -.23706065E+01 -.11328531E+03 0.13987127E+03 0.80419002E+02 0.0000E+00 0.9000E+01
#aMCatNLO 1  0  0  1  2 0.27636491D+02 0.00000000D+00  -5  5  0 0.00000000D+00 0.00000000D+00 0.00000000D+00 0.00000000D+00 0.00000000D+00
  <mgrwgt>
 0.3598570270D+00    9    2    0
 0.125312031035724D+03 0.000000000000000D+00 0.000000000000000D+00 0.125312031035724D+03
 0.125312031035724D+03 0.000000000000000D+00 0.000000000000000D+00 -.125312031035724D+03
 0.143581992766332D+03 -.160491132432840D+02 0.237060645787364D+01 0.687575074873795D+02
 0.107042069305117D+03 0.160491132432840D+02 -.237060645787364D+01 -.687575074873795D+02
 0.000000000000000D+00 0.000000000000000D+00 0.000000000000000D+00 0.000000000000000D+00
 0.144171414131992D+03 0.000000000000000D+00 0.000000000000000D+00 0.144171414131992D+03
 0.136621100030427D+03 0.000000000000000D+00 0.000000000000000D+00 -.136621100030427D+03
 0.145804714924376D+03 -.294671263425360D+02 -.617321013853941D+01 0.687575074873795D+02
 0.106338490670321D+03 0.615528234923957D+01 -.867042715184462D+01 -.687575074873795D+02
 0.286493085677222D+02 0.233118439932964D+02 0.148436372903840D+02 0.755031410156507D+01
0.336160396725D-03 0.000000000000D+00 0.000000000000D+00 0.198100123687D-02 0.000000000000D+00  5 -1 2 25 24 21 0 0.13387763D-01 0.27762003D-01 0.10825097D+05 0.10825097D+05 0.10825097D+05 0.12643028D+01  1  2  2  1  5  1       -1 0.262235080161D+00 0.100000000000D+01
-.178900508910D-04 0.000000000000D+00 -.129094443649D-05 0.198100123687D-02 0.000000000000D+00  5 -1 2 25 24 21 2 0.13387763D-01 0.27762003D-01 0.10825097D+05 0.10825097D+05 0.10825097D+05 0.12643028D+01  1  2  3  1  5  1       -1 -.223078639686D-01 0.100000000000D+01
0.229943538000D-04 0.000000000000D+00 0.000000000000D+00 0.198100123687D-02 0.000000000000D+00  5 -1 2 25 24 21 2 0.13387763D-01 0.27762003D-01 0.10825097D+05 0.10825097D+05 0.10825097D+05 0.12643028D+01  1  2 15  1  5  1       -1 0.286726359662D-01 0.100000000000D+01
0.289659139982D-03 0.000000000000D+00 0.000000000000D+00 0.198100123687D-02 0.000000000000D+00  5 -1 2 25 24 21 2 0.15932804D-01 0.27762003D-01 0.14081380D+05 0.14081380D+05 0.14081380D+05 0.12509636D+01  1  2 12  1  5  1       -1 0.272262444276D+00 0.100000000000D+01
-.278304942324D-03 0.000000000000D+00 0.000000000000D+00 0.198100123687D-02 0.000000000000D+00  5 -1 2 25 24 21 2 0.13387763D-01 0.27762003D-01 0.10825097D+05 0.10825097D+05 0.10825097D+05 0.12643028D+01  1  2  4  1  5  1       -1 -.347030247872D+00 0.100000000000D+01
-.641663237546D-03 0.000000000000D+00 -.199428972259D-03 0.198100123687D-02 0.000000000000D+00  5 -1 2 25 24 21 2 0.16737660D-01 0.27762003D-01 0.10825097D+05 0.10825097D+05 0.10825097D+05 0.12643028D+01  1  2  5  1  5  1       -1 -.565248564558D+00 0.100000000000D+01
0.674189867934D-03 0.000000000000D+00 0.194557304802D-03 0.198100123687D-02 0.000000000000D+00  5 -1 2 25 24 21 2 0.13387763D-01 0.27762003D-01 0.10825097D+05 0.10825097D+05 0.10825097D+05 0.12643028D+01  1  2  6  1  5  1       -1 0.840675968698D+00 0.100000000000D+01
0.744012767434D-05 0.000000000000D+00 0.000000000000D+00 0.198100123687D-02 0.000000000000D+00  5 21 2 25 24 1 2 0.15932804D-01 0.27762003D-01 0.14081380D+05 0.14081380D+05 0.14081380D+05 0.12509636D+01  1  2 12  3  5  1       -1 0.950940639107D-01 0.100000000000D+01
-.171951350895D-04 0.000000000000D+00 -.620544400381D-05 0.198100123687D-02 0.000000000000D+00  5 21 2 25 24 1 2 0.16737660D-01 0.27762003D-01 0.10825097D+05 0.10825097D+05 0.10825097D+05 0.12643028D+01  1  2  5  3  5  1       -1 -.204496489604D+00 0.100000000000D+01
  </mgrwgt>
  </event>
  <event>
  5     66 -.45252658E-03 0.10887852E+03 0.75467711E-02 0.12422548E+00
       -1 -1    0    0    0  502 0.00000000E+00 0.00000000E+00 0.10022182E+03 0.10022233E+03 0.32000000E+00 0.0000E+00 0.9000E+01
        2 -1    0    0  501    0 0.00000000E+00 0.00000000E+00 -.15340427E+03 0.15340460E+03 0.32000000E+00 0.0000E+00 0.9000E+01
       25  1    1    2    0    0 0.17563551E+02 -.14442217E+02 -.55993163E+02 0.13884268E+03 0.12500000E+03 0.0000E+00 0.9000E+01
       24  1    1    2    0    0 -.37487979E+02 0.23939578E+02 0.75038272E+01 0.92206157E+02 0.80419002E+02 0.0000E+00 0.9000E+01
       21  1    1    2  501  502 0.19924428E+02 -.94973612E+01 -.46931110E+01 0.22578097E+02 0.75000000E+00 0.0000E+00 0.9000E+01
#aMCatNLO 2  0  0  1  2 0.22072215D+02 0.00000000D+00  -5  5  0 0.00000000D+00 0.00000000D+00 0.00000000D+00 0.00000000D+00 0.00000000D+00
  <mgrwgt>
 -.5870757442D-01    2    2    0
 0.112411262133193D+03 0.000000000000000D+00 0.000000000000000D+00 0.112411262133193D+03
 0.112411262133193D+03 0.000000000000000D+00 0.000000000000000D+00 -.112411262133193D+03
 0.132777958209381D+03 0.291791005805534D+02 -.199789917017570D+02 -.274664552890086D+02
 0.920445660570062D+02 -.291791005805534D+02 0.199789917017570D+02 0.274664552890086D+02
 0.000000000000000D+00 0.000000000000000D+00 -.000000000000000D+00 0.000000000000000D+00
 0.124010984722225D+03 0.000000000000000D+00 0.000000000000000D+00 0.124010984722225D+03
 0.123964688088735D+03 0.000000000000000D+00 0.000000000000000D+00 -.123964688088735D+03
 0.129986392088145D+03 0.175635511960337D+02 -.144422169812728D+02 -.274664552890086D+02
 0.959170167224234D+02 -.374879790288468D+02 0.239395782074111D+02 0.274664552890086D+02
 0.220722640003921D+02 0.199244278328131D+02 -.949736122613827D+01 0.462966334902168D-01
-.214168148582D-03 0.000000000000D+00 0.000000000000D+00 0.279976459478D-02 0.000000000000D+00  5 -1 2 25 24 21 2 0.16065588D-01 0.21400051D-01 0.14523133D+05 0.14523133D+05 0.14523133D+05 0.12494253D+01  1  2 13  1  5  1       -1 -.264336206591D+00 0.100000000000D+01
0.174141405200D-03 0.000000000000D+00 0.000000000000D+00 0.279976459478D-02 0.482926212076D-04  5 -1 2 25 24 21 2 0.15418015D-01 0.23599509D-01 0.14523133D+05 0.14523133D+05 0.14523133D+05 0.12494253D+01  1  2  1  1  5  1       -1 0.205628632172D+00 0.100000000000D+01
  </mgrwgt>
  </event>
  <event>
  4     66 0.45252658E-03 0.90052590E+02 0.75467711E-02 0.11550487E+00
       -1 -1    0    0    0  501 0.00000000E+00 0.00000000E+00 0.13658018E+03 0.13658056E+03 0.32000000E+00 0.0000E+00 0.9000E+01
        2 -1    0    0  501    0 0.00000000E+00 0.00000000E+00 -.13944702E+03 0.13944738E+03 0.32000000E+00 0.0000E+00 0.9000E+01
       25  1    1    2    0    0 -.25366162E+01 -.87534439E+02 0.23016509E+02 0.15434854E+03 0.12500000E+03 0.0000E+00 0.9000E+01
       24  1    1    2    0    0 0.25366162E+01 0.87534439E+02 -.25883343E+02 0.12167940E+03 0.80419002E+02 0.0000E+00 0.9000E+01
#aMCatNLO 1  0  0  2  1 0.98707887D+02 0.00000000D+00  -5  5  0 0.00000000D+00 0.00000000D+00 0.00000000D+00 0.00000000D+00 0.00000000D+00
  <mgrwgt>
 0.2090408870D+00    7    2    0
 0.138006525158597D+03 0.000000000000000D+00 0.000000000000000D+00 0.138006525158597D+03
 0.138006525158597D+03 0.000000000000000D+00 0.000000000000000D+00 -.138006525158597D+03
 0.154595929237689D+03 -.253661620314116D+01 -.875344385824246D+02 0.246209052872188D+02
 0.121417121079504D+03 0.253661620314116D+01 0.875344385824246D+02 -.246209052872188D+02
 0.000000000000000D+00 0.000000000000000D+00 -.000000000000000D+00 -.000000000000000D+00
 0.179331760656277D+03 0.000000000000000D+00 0.000000000000000D+00 0.179331760656277D+03
 0.220906381695918D+03 0.000000000000000D+00 0.000000000000000D+00 -.220906381695918D+03
 0.140280252830668D+03 -.344319239534298D+02 -.475584163943580D+02 0.246209052872188D+02
 0.152851886007150D+03 -.271297146820269D+02 0.124716769945672D+03 -.246209052872188D+02
 0.107106003514378D+03 0.615616386354566D+02 -.771583535513145D+02 -.415746210396410D+02
0.522361522077D-03 0.000000000000D+00 0.000000000000D+00 0.245011562222D-02 0.000000000000D+00  5 -1 2 25 24 21 0 0.21012393D-01 0.21453444D-01 0.18430423D+05 0.18430423D+05 0.18430423D+05 0.12377529D+01  1  2  2  2  5  2        2 0.270867078317D+00 0.100000000000D+01
-.290105690843D-04 0.000000000000D+00 -.200600578572D-05 0.245011562222D-02 0.000000000000D+00  5 -1 2 25 24 21 2 0.21012393D-01 0.21453444D-01 0.18430423D+05 0.18430423D+05 0.18430423D+05 0.12377529D+01  1  2  3  2  5  2        2 -.230467254577D-01 0.100000000000D+01
0.360702828738D-04 0.000000000000D+00 0.000000000000D+00 0.245011562222D-02 0.000000000000D+00  5 -1 2 25 24 21 2 0.21012393D-01 0.21453444D-01 0.18430423D+05 0.18430423D+05 0.18430423D+05 0.12377529D+01  1  2 15  2  5  2        2 0.286551395858D-01 0.100000000000D+01
0.431003803652D-04 0.000000000000D+00 0.000000000000D+00 0.245011562222D-02 0.000000000000D+00  5 -1 2 25 24 21 2 0.21012393D-01 0.35996798D-01 0.37571334D+05 0.37571334D+05 0.37571334D+05 0.12047726D+01  1  2 12  2  5  2        2 0.186939691689D-01 0.100000000000D+01
-.227950806449D-03 0.000000000000D+00 -.201943906815D-03 0.245011562222D-02 0.000000000000D+00  5 -1 2 25 24 21 2 0.21012393D-01 0.43651160D-01 0.18430423D+05 0.18430423D+05 0.18430423D+05 0.12377529D+01  1  2  5  2  5  2        2 -.838033492647D-01 0.100000000000D+01
0.249802874080D-05 0.000000000000D+00 0.000000000000D+00 0.245011562222D-02 0.000000000000D+00  5 -1 21 25 24 -2 2 0.21012393D-01 0.35996798D-01 0.37571334D+05 0.37571334D+05 0.37571334D+05 0.12047726D+01  1  2 12  4  5  2        2 0.455066185518D-02 0.100000000000D+01
-.523811784172D-05 0.000000000000D+00 -.155134162920D-04 0.245011562222D-02 0.000000000000D+00  5 -1 21 25 24 -2 2 0.21012393D-01 0.43651160D-01 0.18430423D+05 0.18430423D+05 0.18430423D+05 0.12377529D+01  1  2  5  4  5  2        2 -.687588722848D-02 0.100000000000D+01
  </mgrwgt>
  </event>
  <event>
  4     66 0.45252658E-03 0.15812855E+03 0.75467711E-02 0.11183891E+00
       -3 -1    0    0    0  501 0.00000000E+00 0.00000000E+00 0.15060085E+03 0.15060168E+03 0.50000000E+00 0.0000E+00 0.9000E+01
        4 -1    0    0  501    0 0.00000000E+00 0.00000000E+00 -.16798035E+03 0.16798750E+03 0.15500000E+01 0.0000E+00 0.9000E+01
       25  1    1    2    0    0 -.11165884E+03 0.41236630E+02 0.76424680E+01 0.17277605E+03 0.12500000E+03 0.0000E+00 0.9000E+01
       24  1    1    2    0    0 0.11165884E+03 -.41236630E+02 -.25021967E+02 0.14581313E+03 0.80419002E+02 0.0000E+00 0.9000E+01
#aMCatNLO 1  0  0  2  2 0.13889050D+03 0.00000000D+00  -5  5  0 0.00000000D+00 0.00000000D+00 0.00000000D+00 0.00000000D+00 0.00000000D+00
  <mgrwgt>
 0.5364505401D-01    3    2    0
 0.159057394973175D+03 0.000000000000000D+00 0.000000000000000D+00 0.159057394973175D+03
 0.159057394973175D+03 0.000000000000000D+00 0.000000000000000D+00 -.159057394973175D+03
 0.173451230681307D+03 -.111658835736895D+03 0.412366301190709D+02 0.170931027951029D+02
 0.144663559265042D+03 0.111658835736895D+03 -.412366301190709D+02 -.170931027951029D+02
 0.000000000000000D+00 -.000000000000000D+00 0.000000000000000D+00 0.000000000000000D+00
 0.281247191671252D+03 0.000000000000000D+00 0.000000000000000D+00 0.281247191671252D+03
 0.218339014662817D+03 0.000000000000000D+00 0.000000000000000D+00 -.218339014662817D+03
 0.137358680481434D+03 -.497348610895316D+02 0.218329231401016D+02 0.170931027951029D+02
 0.209754544433580D+03 0.182271055231107D+03 -.633627747020512D+02 -.170931027951029D+02
 0.152472981419055D+03 -.132536194141576D+03 0.415298515619495D+02 0.629081770084351D+02
0.107663058447D-02 0.000000000000D+00 0.000000000000D+00 0.231880871443D-02 0.000000000000D+00  5 -3 4 25 24 21 0 0.23169976D-01 0.25843745D-01 0.25004640D+05 0.25004640D+05 0.25004640D+05 0.12232890D+01  1  2  2  2  5  2        4 0.525892504118D-01 0.100000000000D+01
-.598103156942D-04 0.000000000000D+00 -.413454492771D-05 0.231880871443D-02 0.000000000000D+00  5 -3 4 25 24 21 2 0.23169976D-01 0.25843745D-01 0.25004640D+05 0.25004640D+05 0.25004640D+05 0.12232890D+01  1  2  3  2  5  2        4 -.437184247627D-02 0.100000000000D+01
0.742545567455D-04 0.000000000000D+00 0.000000000000D+00 0.231880871443D-02 0.000000000000D+00  5 -3 4 25 24 21 2 0.23169976D-01 0.25843745D-01 0.25004640D+05 0.25004640D+05 0.25004640D+05 0.12232890D+01  1  2 15  2  5  2        4 0.542764607524D-02 0.100000000000D+01
  </mgrwgt>
  </event>
  <event>
  5     66 0.45252658E-03 0.12367215E+03 0.75467711E-02 0.12062227E+00
       -1 -1    0    0    0  502 0.00000000E+00 0.00000000E+00 0.33331218E+02 0.33332754E+02 0.32000000E+00 0.0000E+00 0.9000E+01
        2 -1    0    0  501    0 0.00000000E+00 0.00000000E+00 -.10284073E+04 0.10284074E+04 0.32000000E+00 0.0000E+00 0.9000E+01
       25  1    1    2    0    0 -.45936148E+02 0.88452208E+01 -.67737862E+03 0.69040217E+03 0.12500000E+03 0.0000E+00 0.9000E+01
       24  1    1    2    0    0 0.84496379E+02 -.17196939E+02 -.11454090E+03 0.16438432E+03 0.80419002E+02 0.0000E+00 0.9000E+01
       21  1    1    2  501  502 -.38560231E+02 0.83517186E+01 -.20315657E+03 0.20695361E+03 0.75000000E+00 0.0000E+00 0.9000E+01
#aMCatNLO 2  0  0  1  2 0.39454310D+02 0.00000000D+00  -5  5  0 0.00000000D+00 0.00000000D+00 0.00000000D+00 0.00000000D+00 0.00000000D+00
  <mgrwgt>
 0.5961199206D-01    1    2    0
 0.159661197667351D+03 0.000000000000000D+00 0.000000000000000D+00 0.159661197667351D+03
 0.159661197667351D+03 0.000000000000000D+00 0.000000000000000D+00 -.159661197667351D+03
 0.174000599130300D+03 -.664443209830456D+02 0.132870637475836D+02 -.100298627327461D+03
 0.145321796204402D+03 0.664443209830456D+02 -.132870637475836D+02 0.100298627327461D+03
 0.000000000000000D+00 -.000000000000000D+00 0.000000000000000D+00 -.000000000000000D+00
 0.170589107088074D+03 0.000000000000000D+00 0.000000000000000D+00 0.170589107088074D+03
 0.200937873861341D+03 0.000000000000000D+00 0.000000000000000D+00 -.200937873861341D+03
 0.166952634835601D+03 -.459361481163562D+02 0.884522080044896D+01 -.100298627327461D+03
 0.154797943655456D+03 0.844963788390723D+02 -.171969394049758D+02 0.100298627327461D+03
 0.497764024583584D+02 -.385602307227161D+02 0.835171860452684D+01 -.303487667732673D+02
0.824839764965D-04 0.000000000000D+00 0.000000000000D+00 0.148659991915D-02 0.785920985611D-05  5 -1 2 25 24 21 2 0.51279196D-02 0.15821410D+00 0.21145563D+05 0.21145563D+05 0.21145563D+05 0.12311719D+01  1  2  1  1  5  1       -1 0.596119920603D-01 0.100000000000D+01
  </mgrwgt>
  </event>
  <event>
  5     66 0.45252658E-03 0.15456744E+03 0.75467711E-02 0.11848547E+00
       -1 -1    0    0    0  501 0.00000000E+00 0.00000000E+00 0.52193757E+02 0.52194738E+02 0.32000000E+00 0.0000E+00 0.9000E+01
        2 -1    0    0  502    0 0.00000000E+00 0.00000000E+00 -.59591942E+03 0.59591951E+03 0.32000000E+00 0.0000E+00 0.9000E+01
       25  1    1    2    0    0 0.11815139E+03 -.32050456E+02 -.28084703E+03 0.33088826E+03 0.12500000E+03 0.0000E+00 0.9000E+01
       24  1    1    2    0    0 -.10150247E+03 0.36800008E+02 -.14415070E+03 0.19724003E+03 0.80419002E+02 0.0000E+00 0.9000E+01
       21  1    1    2  502  501 -.16648921E+02 -.47495524E+01 -.11872793E+03 0.11998596E+03 0.75000000E+00 0.0000E+00 0.9000E+01
#aMCatNLO 2  0  0  2  1 0.17313140D+02 0.00000000D+00  -5  5  0 0.00000000D+00 0.00000000D+00 0.00000000D+00 0.00000000D+00 0.00000000D+00
  <mgrwgt>
 0.1354770515D-01    2    2    0
 0.156522101937995D+03 0.000000000000000D+00 0.000000000000000D+00 0.156522101937995D+03
 0.156522101937995D+03 0.000000000000000D+00 0.000000000000000D+00 -.156522101937995D+03
 0.171149084217560D+03 0.108909080594339D+03 -.346870718365890D+02 -.245484875299632D+02
 0.141895119658430D+03 -.108909080594339D+03 0.346870718365890D+02 0.245484875299632D+02
 0.000000000000000D+00 -.000000000000000D+00 -.000000000000000D+00 -.000000000000000D+00
 0.158670147437338D+03 0.000000000000000D+00 0.000000000000000D+00 0.158670147437338D+03
 0.196018563193101D+03 0.000000000000000D+00 0.000000000000000D+00 -.196018563193101D+03
 0.176676568794493D+03 0.118151386001455D+03 -.320504556429620D+02 -.245484875299632D+02
 0.136846027504466D+03 -.101502465270539D+03 0.368000080621824D+02 0.245484875299632D+02
 0.411661143314808D+02 -.166489207309159D+02 -.474955241922041D+01 -.373484157557628D+02
-.299847203373D-02 0.000000000000D+00 0.000000000000D+00 0.230729276493D-02 0.000000000000D+00  5 -1 2 25 24 21 2 0.79210150D-02 0.92093805D-01 0.26716248D+05 0.26716248D+05 0.26716248D+05 0.12202181D+01  1  2 13  2  5  2        2 -.219420451542D+01 0.100000000000D+01
0.306403381386D-02 0.000000000000D+00 0.000000000000D+00 0.230729276493D-02 0.627549177828D-04  5 -1 2 25 24 21 2 0.80297198D-02 0.91678040D-01 0.26716248D+05 0.26716248D+05 0.26716248D+05 0.12202181D+01  1  2  1  2  5  2        2 0.220775222057D+01 0.100000000000D+01
  </mgrwgt>
  </event>
  <event>
  4     66 0.45252658E-03 0.53656161E+02 0.75467711E-02 0.12419129E+00
       -1 -1    0    0    0  501 0.00000000E+00 0.00000000E+00 0.21137094E+02 0.21139517E+02 0.32000000E+00 0.0000E+00 0.9000E+01
        2 -1    0    0  501    0 0.00000000E+00 0.00000000E+00 -.63889295E+03 0.63889303E+03 0.32000000E+00 0.0000E+00 0.9000E+01
       25  1    1    2    0    0 0.33974291E+02 -.40112695E+02 -.33522960E+03 0.36161743E+03 0.12500000E+03 0.0000E+00 0.9000E+01
       24  1    1    2    0    0 -.33974291E+02 0.40112695E+02 -.28252625E+03 0.29841511E+03 0.80419002E+02 0.0000E+00 0.9000E+01
#aMCatNLO 1  0  0  1  2 0.95685441D+01 0.00000000D+00  -5  5  0 0.00000000D+00 0.00000000D+00 0.00000000D+00 0.00000000D+00 0.00000000D+00
  <mgrwgt>
 0.5460936249D+00    8    2    0
 0.116211730352067D+03 0.000000000000000D+00 0.000000000000000D+00 0.116211730352067D+03
 0.116211730352067D+03 0.000000000000000D+00 0.000000000000000D+00 -.116211730352067D+03
 0.135912375067290D+03 0.339742912790531D+02 -.401126951120287D+02 0.915930779956008D+01
 0.965110856368434D+02 -.339742912790531D+02 0.401126951120287D+02 -.915930779956008D+01
 0.000000000000000D+00 -.000000000000000D+00 0.000000000000000D+00 -.000000000000000D+00
 0.120767973339046D+03 0.000000000000000D+00 0.000000000000000D+00 0.120767973339046D+03
 0.121444818766301D+03 0.000000000000000D+00 0.000000000000000D+00 -.121444818766301D+03
 0.137594806061915D+03 0.395695664952395D+02 -.407147042630524D+02 0.915930779956008D+01
 0.950255329505874D+02 -.300559294629217D+02 0.396911091168468D+02 -.915930779956008D+01
 0.959245309284443D+01 -.951363703231786D+01 0.102359514620564D+01 -.676845427254276D+00
0.161352005741D-03 0.000000000000D+00 0.000000000000D+00 0.284503811139D-02 0.000000000000D+00  5 -1 2 25 24 21 0 0.32520532D-02 0.98291415D-01 0.13418775D+05 0.13418775D+05 0.13418775D+05 0.12533757D+01  1  2  2  1  5  1       -1 0.269451222306D+00 0.100000000000D+01
-.896388810347D-05 0.000000000000D+00 -.619634187002D-06 0.284503811139D-02 0.000000000000D+00  5 -1 2 25 24 21 2 0.32520532D-02 0.98291415D-01 0.13418775D+05 0.13418775D+05 0.13418775D+05 0.12533757D+01  1  2  3  1  5  1       -1 -.235160718558D-01 0.100000000000D+01
0.111613634821D-04 0.000000000000D+00 0.000000000000D+00 0.284503811139D-02 0.000000000000D+00  5 -1 2 25 24 21 2 0.32520532D-02 0.98291415D-01 0.13418775D+05 0.13418775D+05 0.13418775D+05 0.12533757D+01  1  2 15  1  5  1       -1 0.292809797070D-01 0.100000000000D+01
0.274955822620D-03 0.000000000000D+00 0.000000000000D+00 0.284503811139D-02 0.000000000000D+00  5 -1 2 25 24 21 2 0.34497730D-02 0.98291415D-01 0.14573468D+05 0.14573468D+05 0.14573468D+05 0.12492533D+01  1  2 12  1  5  1       -1 0.659768640112D+00 0.100000000000D+01
-.199757406974D-03 0.000000000000D+00 0.000000000000D+00 0.284503811139D-02 0.000000000000D+00  5 -1 2 25 24 21 2 0.32520532D-02 0.98291415D-01 0.13418775D+05 0.13418775D+05 0.13418775D+05 0.12533757D+01  1  2  4  1  5  1       -1 -.524048212328D+00 0.100000000000D+01
0.109588261147D-08 0.000000000000D+00 0.000000000000D+00 0.284503811139D-02 0.259041876616D-03  5 -1 2 25 24 21 2 0.33795544D-02 0.10271754D+00 0.14573468D+05 0.14573468D+05 0.14573468D+05 0.12492533D+01  1  2 11  1  5  1       -1 0.257490033602D-05 0.100000000000D+01
0.298353903578D-05 0.000000000000D+00 0.000000000000D+00 0.284503811139D-02 0.000000000000D+00  5 21 2 25 24 1 2 0.34497730D-02 0.98291415D-01 0.14573468D+05 0.14573468D+05 0.14573468D+05 0.12492533D+01  1  2 12  3  5  1       -1 0.135153732797D+00 0.100000000000D+01
0.170504339751D-10 0.000000000000D+00 0.000000000000D+00 0.284503811139D-02 0.181068062142D-05  5 21 2 25 24 1 2 0.33795544D-02 0.10271754D+00 0.14573468D+05 0.14573468D+05 0.14573468D+05 0.12492533D+01  1  2 11  3  5  1       -1 0.759267494084D-06 0.100000000000D+01
  </mgrwgt>
  </event>
  <event>
  4     66 0.45252658E-03 0.65288169E+02 0.75467711E-02 0.12117692E+00
       -1 -1    0    0    0  501 0.00000000E+00 0.00000000E+00 0.47034529E+01 0.47143259E+01 0.32000000E+00 0.0000E+00 0.9000E+01
        2 -1    0    0  501    0 0.00000000E+00 0.00000000E+00 -.42094627E+04 0.42094627E+04 0.32000000E+00 0.0000E+00 0.9000E+01
       25  1    1    2    0    0 -.73315322E+02 -.59002385E+02 -.21422768E+04 0.21479831E+04 0.12500000E+03 0.0000E+00 0.9000E+01
       24  1    1    2    0    0 0.73315322E+02 0.59002385E+02 -.20624825E+04 0.20661940E+04 0.80419002E+02 0.0000E+00 0.9000E+01
#aMCatNLO 1  0  0  2  1 0.20701165D+01 0.00000000D+00  -5  5  0 0.00000000D+00 0.00000000D+00 0.00000000D+00 0.00000000D+00 0.00000000D+00
  <mgrwgt>
 0.4909131460D+00   11    2    0
 0.140790431423166D+03 0.000000000000000D+00 0.000000000000000D+00 0.140790431423166D+03
 0.140790431423166D+03 0.000000000000000D+00 0.000000000000000D+00 -.140790431423166D+03
 0.157051806491520D+03 -.733153222203682D+02 -.590023851319789D+02 0.135592034688967D+02
 0.124529056354813D+03 0.733153222203682D+02 0.590023851319789D+02 -.135592034688967D+02
 0.000000000000000D+00 -.000000000000000D+00 0.000000000000000D+00 -.000000000000000D+00
 0.140905712427346D+03 0.000000000000000D+00 0.000000000000000D+00 0.140905712427346D+03
 0.150404758732338D+03 0.000000000000000D+00 0.000000000000000D+00 -.150404758732338D+03
 0.157404331227084D+03 -.731424477146421D+02 -.601452727373107D+02 0.135592034688967D+02
 0.124184141021700D+03 0.734520540754878D+02 0.580984395686124D+02 -.135592034688967D+02
 0.972199891089961D+01 -.309606360845694D+00 0.204683316869830D+01 -.949904630499154D+01
0.123069298909D-02 0.000000000000D+00 0.000000000000D+00 0.247190144551D-02 0.000000000000D+00  5 -1 2 25 24 21 0 0.72444546D-03 0.64761049D+00 0.19635584D+05 0.19635584D+05 0.19635584D+05 0.12347062D+01  1  2  2  2  5  2        2 0.133696313306D+00 0.100000000000D+01
-.683699782613D-04 0.000000000000D+00 -.472618512702D-05 0.247190144551D-02 0.000000000000D+00  5 -1 2 25 24 21 2 0.72444546D-03 0.64761049D+00 0.19635584D+05 0.19635584D+05 0.19635584D+05 0.12347062D+01  1  2  3  2  5  2        2 -.113230238285D-01 0.100000000000D+01
0.848094076454D-04 0.000000000000D+00 0.000000000000D+00 0.247190144551D-02 0.000000000000D+00  5 -1 2 25 24 21 2 0.72444546D-03 0.64761049D+00 0.19635584D+05 0.19635584D+05 0.19635584D+05 0.12347062D+01  1  2 15  2  5  2        2 0.140456230655D-01 0.100000000000D+01
0.524833096921D-04 0.000000000000D+00 0.000000000000D+00 0.247190144551D-02 0.000000000000D+00  5 -1 2 25 24 21 2 0.72444546D-03 0.69208974D+00 0.19927703D+05 0.19927703D+05 0.19927703D+05 0.12339992D+01  1  2 12  2  5  2        2 0.490645055463D-02 0.100000000000D+01
-.472566529296D-01 0.000000000000D+00 0.000000000000D+00 0.247190144551D-02 0.000000000000D+00  5 -1 2 25 24 21 2 0.72444546D-03 0.64761049D+00 0.19635584D+05 0.19635584D+05 0.19635584D+05 0.12347062D+01  1  2  4  2  5  2        2 -.782636210786D+01 0.100000000000D+01
-.492234887840D-01 0.000000000000D+00 -.107956080055D-02 0.247190144551D-02 0.000000000000D+00  5 -1 2 25 24 21 2 0.72444546D-03 0.69191928D+00 0.19635584D+05 0.19635584D+05 0.19635584D+05 0.12347062D+01  1  2  5  2  5  2        2 -.462031835951D+01 0.100000000000D+01
0.520603463197D-01 0.000000000000D+00 0.114568924758D-02 0.247190144551D-02 0.000000000000D+00  5 -1 2 25 24 21 2 0.72444546D-03 0.64761049D+00 0.19635584D+05 0.19635584D+05 0.19635584D+05 0.12347062D+01  1  2  6  2  5  2        2 0.862192086193D+01 0.100000000000D+01
0.445506615470D-01 0.000000000000D+00 0.000000000000D+00 0.247190144551D-02 0.469464382018D-02  5 -1 2 25 24 21 2 0.72503864D-03 0.69183465D+00 0.19927703D+05 0.19927703D+05 0.19927703D+05 0.12339992D+01  1  2 11  2  5  2        2 0.417447604584D+01 0.100000000000D+01
0.770048620995D-06 0.000000000000D+00 0.000000000000D+00 0.247190144551D-02 0.000000000000D+00  5 -1 21 25 24 -2 2 0.72444546D-03 0.69208974D+00 0.19927703D+05 0.19927703D+05 0.19927703D+05 0.12339992D+01  1  2 12  4  5  2        2 0.191963002770D-05 0.100000000000D+01
-.553083377278D-03 0.000000000000D+00 -.121623964785D-04 0.247190144551D-02 0.000000000000D+00  5 -1 21 25 24 -2 2 0.72444546D-03 0.69191928D+00 0.19635584D+05 0.19635584D+05 0.19635584D+05 0.12347062D+01  1  2  5  4  5  2        2 -.138775613636D-02 0.100000000000D+01
0.502244598580D-03 0.000000000000D+00 0.000000000000D+00 0.247190144551D-02 0.528525386435D-04  5 -1 21 25 24 -2 2 0.72503864D-03 0.69183465D+00 0.19927703D+05 0.19927703D+05 0.19927703D+05 0.12339992D+01  1  2 11  4  5  2        2 0.125717901948D-02 0.100000000000D+01
  </mgrwgt>
  </event>
  <event>
  4     66 0.45252658E-03 0.14911922E+03 0.75467711E-02 0.10876575E+00
       -3 -1    0    0    0  501 0.00000000E+00 0.00000000E+00 0.34318990E+03 0.34319027E+03 0.50000000E+00 0.0000E+00 0.9000E+01
        4 -1    0    0  501    0 0.00000000E+00 0.00000000E+00 -.64877058E+02 0.64895571E+02 0.15500000E+01 0.0000E+00 0.9000E+01
       25  1    1    2    0    0 -.57392817E+02 -.90178805E+02 0.16121182E+03 0.23030502E+03 0.12500000E+03 0.0000E+00 0.9000E+01
       24  1    1    2    0    0 0.57392817E+02 0.90178805E+02 0.11710102E+03 0.17778081E+03 0.80419002E+02 0.0000E+00 0.9000E+01
#aMCatNLO 1  0  0  1  2 0.21992226D+03 0.00000000D+00  -5  5  0 0.00000000D+00 0.00000000D+00 0.00000000D+00 0.00000000D+00 0.00000000D+00
  <mgrwgt>
 0.9150206749D-01    3    2    0
 0.149228022773093D+03 0.000000000000000D+00 0.000000000000000D+00 0.149228022773093D+03
 0.149228022773093D+03 0.000000000000000D+00 0.000000000000000D+00 -.149228022773093D+03
 0.164569953657539D+03 -.573928174806029D+02 -.901788046350974D+02 0.566721651851985D+01
 0.133886091888647D+03 0.573928174806029D+02 0.901788046350974D+02 -.566721651851985D+01
 0.000000000000000D+00 0.000000000000000D+00 0.000000000000000D+00 -.000000000000000D+00
 0.246197453529533D+03 0.000000000000000D+00 0.000000000000000D+00 0.246197453529533D+03
 0.384134539687323D+03 0.000000000000000D+00 0.000000000000000D+00 -.384134539687323D+03
 0.273662994101501D+03 -.674474015032447D+02 -.233848594239928D+03 0.566721651851985D+01
 0.970684601857237D+02 0.520939188899835D+02 0.144629277835759D+02 -.566721651851985D+01
 0.259600538929632D+03 0.153534826132612D+02 0.219385666456353D+03 -.137937086157790D+03
0.164996168512D-02 0.000000000000D+00 0.000000000000D+00 0.241243264390D-02 0.000000000000D+00  5 -3 4 25 24 21 0 0.52799898D-01 0.99825379D-02 0.22236542D+05 0.22236542D+05 0.22236542D+05 0.12287897D+01  1  2  2  1  5  1       -3 0.896862305519D-01 0.100000000000D+01
-.916644787726D-04 0.000000000000D+00 -.633628731573D-05 0.241243264390D-02 0.000000000000D+00  5 -3 4 25 24 21 2 0.52799898D-01 0.99825379D-02 0.22236542D+05 0.22236542D+05 0.22236542D+05 0.12287897D+01  1  2  3  1  5  1       -3 -.752329549124D-02 0.100000000000D+01
0.113788792122D-03 0.000000000000D+00 0.000000000000D+00 0.241243264390D-02 0.000000000000D+00  5 -3 4 25 24 21 2 0.52799898D-01 0.99825379D-02 0.22236542D+05 0.22236542D+05 0.22236542D+05 0.12287897D+01  1  2 15  1  5  1       -3 0.933913243375D-02 0.100000000000D+01
  </mgrwgt>
  </event>
  <event>
  4     66 0.45252658E-03 0.16048451E+03 0.75467711E-02 0.10664137E+00
       -1 -1    0    0    0  501 0.00000000E+00 0.00000000E+00 0.37389786E+03 0.37389800E+03 0.32000000E+00 0.0000E+00 0.9000E+01
        2 -1    0    0  501    0 0.00000000E+00 0.00000000E+00 -.40720178E+03 0.40720191E+03 0.32000000E+00 0.0000E+00 0.9000E+01
       25  1    1    2    0    0 0.99110008E+02 -.28485529E+03 -.24132725E+03 0.40599159E+03 0.12500000E+03 0.0000E+00 0.9000E+01
       24  1    1    2    0    0 -.99110008E+02 0.28485529E+03 0.20802333E+03 0.37510832E+03 0.80419002E+02 0.0000E+00 0.9000E+01
#aMCatNLO 1  0  0  1  2 0.42002783D+02 0.00000000D+00  -5  5  0 0.00000000D+00 0.00000000D+00 0.00000000D+00 0.00000000D+00 0.00000000D+00
  <mgrwgt>
 0.4049819924D+00    9    2    0
 0.390194796391356D+03 0.000000000000000D+00 0.000000000000000D+00 0.390194796391356D+03
 0.390194796391356D+03 0.000000000000000D+00 0.000000000000000D+00 -.390194796391356D+03
 0.396062240120952D+03 0.991100077898010D+02 -.284855289679579D+03 -.224220802663569D+03
 0.384327352661760D+03 -.991100077898010D+02 0.284855289679579D+03 0.224220802663569D+03
 0.000000000000000D+00 0.000000000000000D+00 0.000000000000000D+00 0.000000000000000D+00
 0.437355877164179D+03 0.000000000000000D+00 0.000000000000000D+00 0.437355877164179D+03
 0.400225087573979D+03 0.000000000000000D+00 0.000000000000000D+00 -.400225087573979D+03
 0.403793980204624D+03 0.839937141597745D+02 -.300157735339343D+03 -.224220802663569D+03
 0.377725149643885D+03 -.113511857889385D+03 0.270276085680049D+03 0.224220802663569D+03
 0.560618348896501D+02 0.295181437296103D+02 0.298816496592937D+02 0.371307895901999D+02
0.103147299596D-01 0.000000000000D+00 0.000000000000D+00 0.132228697147D-02 0.000000000000D+00  5 -1 2 25 24 21 0 0.57522768D-01 0.62646449D-01 0.10196003D+06 0.10196003D+06 0.10196003D+06 0.11627981D+01  1  2  2  1  5  1       -1 0.290808158722D+00 0.100000000000D+01
-.545037823067D-03 0.000000000000D+00 -.396112789757D-04 0.132228697147D-02 0.000000000000D+00  5 -1 2 25 24 21 2 0.57522768D-01 0.62646449D-01 0.10196003D+06 0.10196003D+06 0.10196003D+06 0.11627981D+01  1  2  3  1  5  1       -1 -.207770535122D-01 0.100000000000D+01
0.706417330176D-03 0.000000000000D+00 0.000000000000D+00 0.132228697147D-02 0.000000000000D+00  5 -1 2 25 24 21 2 0.57522768D-01 0.62646449D-01 0.10196003D+06 0.10196003D+06 0.10196003D+06 0.11627981D+01  1  2 15  1  5  1       -1 0.269289030043D-01 0.100000000000D+01
0.275741010468D-01 0.000000000000D+00 0.000000000000D+00 0.132228697147D-02 0.000000000000D+00  5 -1 2 25 24 21 2 0.65154859D-01 0.62646449D-01 0.11621211D+06 0.11621211D+06 0.11621211D+06 0.11576247D+01  1  2 12  1  5  1       -1 0.815730297738D+00 0.100000000000D+01
-.279250365452D-01 0.000000000000D+00 0.000000000000D+00 0.132228697147D-02 0.000000000000D+00  5 -1 2 25 24 21 2 0.57522768D-01 0.62646449D-01 0.10196003D+06 0.10196003D+06 0.10196003D+06 0.11627981D+01  1  2  4  1  5  1       -1 -.106451323940D+01 0.100000000000D+01
-.525916779039D-01 0.000000000000D+00 -.925211007848D-02 0.132228697147D-02 0.000000000000D+00  5 -1 2 25 24 21 2 0.65699196D-01 0.62646449D-01 0.10196003D+06 0.10196003D+06 0.10196003D+06 0.11627981D+01  1  2  5  1  5  1       -1 -.154733439328D+01 0.100000000000D+01
0.534298681243D-01 0.000000000000D+00 0.917099272806D-02 0.132228697147D-02 0.000000000000D+00  5 -1 2 25 24 21 2 0.57522768D-01 0.62646449D-01 0.10196003D+06 0.10196003D+06 0.10196003D+06 0.11627981D+01  1  2  6  1  5  1       -1 0.203676732547D+01 0.100000000000D+01
0.539894909121D-03 0.000000000000D+00 0.000000000000D+00 0.132228697147D-02 0.000000000000D+00  5 21 2 25 24 1 2 0.65154859D-01 0.62646449D-01 0.11621211D+06 0.11621211D+06 0.11621211D+06 0.11576247D+01  1  2 12  3  5  1       -1 0.145772570156D+00 0.100000000000D+01
-.103499603357D-02 0.000000000000D+00 -.191156086634D-03 0.132228697147D-02 0.000000000000D+00  5 21 2 25 24 1 2 0.65699196D-01 0.62646449D-01 0.10196003D+06 0.10196003D+06 0.10196003D+06 0.11627981D+01  1  2  5  3  5  1       -1 -.278400576446D+00 0.100000000000D+01
  </mgrwgt>
  </event>
  <event>
  4     66 0.45252658E-03 0.50664307E+02 0.75467711E-02 0.12347172E+00
       -1 -1    0    0    0  501 0.00000000E+00 0.00000000E+00 0.20663609E+02 0.20666087E+02 0.32000000E+00 0.0000E+00 0.9000E+01
        2 -1    0    0  501    0 0.00000000E+00 0.00000000E+00 -.57349141E+03 0.57349149E+03 0.32000000E+00 0.0000E+00 0.9000E+01
       25  1    1    2    0    0 -.12188787E+02 0.22495693E+02 -.39625014E+03 0.41628572E+03 0.12500000E+03 0.0000E+00 0.9000E+01
       24  1    1    2    0    0 0.12188787E+02 -.22495693E+02 -.15657765E+03 0.17787187E+03 0.80419002E+02 0.0000E+00 0.9000E+01
#aMCatNLO 1  0  0  2  1 0.35512850D+02 0.00000000D+00  -5  5  0 0.00000000D+00 0.00000000D+00 0.00000000D+00 0.00000000D+00 0.00000000D+00
  <mgrwgt>
 0.4408270933D+00    9    2    0
 0.108863055992362D+03 0.000000000000000D+00 0.000000000000000D+00 0.108863055992362D+03
 0.108863055992362D+03 0.000000000000000D+00 0.000000000000000D+00 -.108863055992362D+03
 0.129893569884678D+03 -.121887873896025D+02 0.224956932619864D+02 -.243457746646006D+02
 0.878325421000460D+02 0.121887873896025D+02 -.224956932619864D+02 0.243457746646006D+02
 0.000000000000000D+00 0.000000000000000D+00 0.000000000000000D+00 -.000000000000000D+00
 0.121170226329794D+03 0.000000000000000D+00 0.000000000000000D+00 0.121170226329794D+03
 0.139311054377202D+03 0.000000000000000D+00 0.000000000000000D+00 -.139311054377202D+03
 0.131554644310543D+03 -.306771485611808D+02 0.121581352110089D+02 -.243457746646006D+02
 0.890486702243147D+02 -.319401843916374D+00 -.294895058078431D+02 0.243457746646006D+02
 0.398779661721377D+02 0.309965504050972D+02 0.173313705968342D+02 -.181408280474078D+02
0.152187708400D-03 0.000000000000D+00 0.000000000000D+00 0.291623721413D-02 0.000000000000D+00  5 -1 2 25 24 21 0 0.31792143D-02 0.88229644D-01 0.11234157D+05 0.11234157D+05 0.11234157D+05 0.12623947D+01  1  2  2  2  5  2        2 0.294516274960D+00 0.100000000000D+01
-.844752577091D-05 0.000000000000D+00 -.584440872199D-06 0.291623721413D-02 0.000000000000D+00  5 -1 2 25 24 21 2 0.31792143D-02 0.88229644D-01 0.11234157D+05 0.11234157D+05 0.11234157D+05 0.12623947D+01  1  2  3  2  5  2        2 -.260525095373D-01 0.100000000000D+01
0.105275982141D-04 0.000000000000D+00 0.000000000000D+00 0.291623721413D-02 0.000000000000D+00  5 -1 2 25 24 21 2 0.31792143D-02 0.88229644D-01 0.11234157D+05 0.11234157D+05 0.11234157D+05 0.12623947D+01  1  2 15  2  5  2        2 0.324675366865D-01 0.100000000000D+01
0.136056364200D-03 0.000000000000D+00 0.000000000000D+00 0.291623721413D-02 0.000000000000D+00  5 -1 2 25 24 21 2 0.31792143D-02 0.11681080D+00 0.15681441D+05 0.15681441D+05 0.15681441D+05 0.12456289D+01  1  2 12  2  5  2        2 0.298964417180D+00 0.100000000000D+01
-.147877249510D-03 0.000000000000D+00 0.000000000000D+00 0.291623721413D-02 0.000000000000D+00  5 -1 2 25 24 21 2 0.31792143D-02 0.88229644D-01 0.11234157D+05 0.11234157D+05 0.11234157D+05 0.12623947D+01  1  2  4  2  5  2        2 -.456059390368D+00 0.100000000000D+01
-.261511724191D-03 0.000000000000D+00 -.840451301476D-04 0.291623721413D-02 0.000000000000D+00  5 -1 2 25 24 21 2 0.31792143D-02 0.12194546D+00 0.11234157D+05 0.11234157D+05 0.11234157D+05 0.12623947D+01  1  2  5  2  5  2        2 -.553281655934D+00 0.100000000000D+01
0.278230298699D-03 0.000000000000D+00 0.798280416532D-04 0.291623721413D-02 0.000000000000D+00  5 -1 2 25 24 21 2 0.31792143D-02 0.88229644D-01 0.11234157D+05 0.11234157D+05 0.11234157D+05 0.12623947D+01  1  2  6  2  5  2        2 0.858073441501D+00 0.100000000000D+01
0.501079948149D-05 0.000000000000D+00 0.000000000000D+00 0.291623721413D-02 0.000000000000D+00  5 -1 21 25 24 -2 2 0.31792143D-02 0.11681080D+00 0.15681441D+05 0.15681441D+05 0.15681441D+05 0.12456289D+01  1  2 12  4  5  2        2 0.134073345900D-01 0.100000000000D+01
-.856078732203D-05 0.000000000000D+00 -.343138303675D-05 0.291623721413D-02 0.000000000000D+00  5 -1 21 25 24 -2 2 0.31792143D-02 0.12194546D+00 0.11234157D+05 0.11234157D+05 0.11234157D+05 0.12623947D+01  1  2  5  4  5  2        2 -.212083557403D-01 0.100000000000D+01
  </mgrwgt>
  </event>
  <event>
  4     66 0.45252658E-03 0.10999895E+03 0.75467711E-02 0.11559467E+00
       -1 -1    0    0    0  501 0.00000000E+00 0.00000000E+00 0.72500198E+01 0.72570784E+01 0.32000000E+00 0.0000E+00 0.9000E+01
        2 -1    0    0  501    0 0.00000000E+00 0.00000000E+00 -.17188651E+04 0.17188651E+04 0.32000000E+00 0.0000E+00 0.9000E+01
       25  1    1    2    0    0 -.33930998E+02 -.18317872E+02 -.86724988E+03 0.87705998E+03 0.12500000E+03 0.0000E+00 0.9000E+01
       24  1    1    2    0    0 0.33930998E+02 0.18317872E+02 -.84436518E+03 0.84906220E+03 0.80419002E+02 0.0000E+00 0.9000E+01
#aMCatNLO 1  0  0  2  2 0.13014411D+03 0.00000000D+00  -5  5  0 0.00000000D+00 0.00000000D+00 0.00000000D+00 0.00000000D+00 0.00000000D+00
  <mgrwgt>
 0.3541009485D+00    5    2    0
 0.111659856532060D+03 0.000000000000000D+00 0.000000000000000D+00 0.111659856532060D+03
 0.111659856532060D+03 0.000000000000000D+00 0.000000000000000D+00 -.111659856532060D+03
 0.132163608574317D+03 -.339309983759911D+02 -.183178715103674D+02 0.188510573688467D+02
 0.911561044898032D+02 0.339309983759911D+02 0.183178715103674D+02 -.188510573688467D+02
 0.000000000000000D+00 0.000000000000000D+00 0.000000000000000D+00 -.000000000000000D+00
 0.148358734381463D+03 0.000000000000000D+00 0.000000000000000D+00 0.148358734381463D+03
 0.350684447027023D+03 0.000000000000000D+00 0.000000000000000D+00 -.350684447027023D+03
 0.164155930283007D+03 -.360182178589203D+02 -.983335907278042D+02 0.188510573688467D+02
 0.943187937155199D+02 0.326245478374228D+02 -.317662621040062D+02 -.188510573688467D+02
 0.240568457409959D+03 0.339367002149752D+01 0.130099852831810D+03 -.202325712645561D+03
0.189947158266D-03 0.000000000000D+00 0.000000000000D+00 0.289630242869D-02 0.000000000000D+00  5 -1 2 25 24 21 0 0.11159329D-02 0.26444133D+00 0.12099770D+05 0.12099770D+05 0.12099770D+05 0.12586029D+01  1  2  2  2  5  2        2 0.346984521959D+00 0.100000000000D+01
-.105497382844D-04 0.000000000000D+00 -.729447101978D-06 0.289630242869D-02 0.000000000000D+00  5 -1 2 25 24 21 2 0.11159329D-02 0.26444133D+00 0.12099770D+05 0.12099770D+05 0.12099770D+05 0.12586029D+01  1  2  3  2  5  2        2 -.305278655257D-01 0.100000000000D+01
0.131006807692D-04 0.000000000000D+00 0.000000000000D+00 0.289630242869D-02 0.000000000000D+00  5 -1 2 25 24 21 2 0.11159329D-02 0.26444133D+00 0.12099770D+05 0.12099770D+05 0.12099770D+05 0.12586029D+01  1  2 15  2  5  2        2 0.379095490365D-01 0.100000000000D+01
-.785985502150D-04 0.000000000000D+00 -.567452613316D-04 0.289630242869D-02 0.000000000000D+00  5 -1 2 25 24 21 2 0.11159329D-02 0.84518986D+00 0.12099770D+05 0.12099770D+05 0.12099770D+05 0.12586029D+01  1  2  5  2  5  2        2 -.265039301831D-03 0.100000000000D+01
-.805356400002D-05 0.000000000000D+00 -.759157682915D-05 0.289630242869D-02 0.000000000000D+00  5 -1 21 25 24 -2 2 0.11159329D-02 0.84518986D+00 0.12099770D+05 0.12099770D+05 0.12099770D+05 0.12586029D+01  1  2  5  4  5  2        2 -.217684703304D-06 0.100000000000D+01
  </mgrwgt>
  </event>
  <event>
  4     66 0.45252658E-03 0.10758936E+03 0.75467711E-02 0.12596098E+00
       -1 -1    0    0    0  501 0.00000000E+00 0.00000000E+00 0.11005883E+02 0.11010534E+02 0.32000000E+00 0.0000E+00 0.9000E+01
        2 -1    0    0  501    0 0.00000000E+00 0.00000000E+00 -.12726690E+04 0.12726690E+04 0.32000000E+00 0.0000E+00 0.9000E+01
       25  1    1    2    0    0 0.28477876E+02 -.13083970E+02 -.99711048E+03 0.10054036E+04 0.12500000E+03 0.0000E+00 0.9000E+01
       24  1    1    2    0    0 -.28477876E+02 0.13083970E+02 -.26455264E+03 0.27827593E+03 0.80419002E+02 0.0000E+00 0.9000E+01
#aMCatNLO 1  0  0  2  2 0.57905708D+01 0.00000000D+00  -5  5  0 0.00000000D+00 0.00000000D+00 0.00000000D+00 0.00000000D+00 0.00000000D+00
  <mgrwgt>
 0.2738156519D+00    6    2    0
 0.118363244447418D+03 0.000000000000000D+00 0.000000000000000D+00 0.118363244447418D+03
 0.118363244447418D+03 0.000000000000000D+00 0.000000000000000D+00 -.118363244447418D+03
 0.137705786315848D+03 0.284778762419075D+02 -.130839701186450D+02 -.485355939033496D+02
 0.990207025789880D+02 -.284778762419075D+02 0.130839701186450D+02 0.485355939033496D+02
 0.000000000000000D+00 0.000000000000000D+00 0.000000000000000D+00 0.000000000000000D+00
 0.128218064813156D+03 0.000000000000000D+00 0.000000000000000D+00 0.128218064813156D+03
 0.119252333979333D+03 0.000000000000000D+00 0.000000000000000D+00 -.119252333979333D+03
 0.137837885156871D+03 0.274441493785800D+02 -.162910212649194D+02 -.485355939033496D+02
 0.989594147736992D+02 -.292206164566195D+02 0.107796807154375D+02 0.485355939033496D+02
 0.106730988619189D+02 0.177646707803947D+01 0.551134054948186D+01 0.896573083382355D+01
0.249653305342D-03 0.000000000000D+00 0.000000000000D+00 0.240772468251D-02 0.000000000000D+00  5 -1 2 25 24 21 0 0.16935737D-02 0.19579559D+00 0.11575471D+05 0.11575471D+05 0.11575471D+05 0.12608615D+01  1  2  2  2  5  2        2 0.427958957157D+00 0.100000000000D+01
-.137160338848D-04 0.000000000000D+00 -.958734427737D-06 0.240772468251D-02 0.000000000000D+00  5 -1 2 25 24 21 2 0.16935737D-02 0.19579559D+00 0.11575471D+05 0.11575471D+05 0.11575471D+05 0.12608615D+01  1  2  3  2  5  2        2 -.373790400833D-01 0.100000000000D+01
0.170313210091D-04 0.000000000000D+00 0.000000000000D+00 0.240772468251D-02 0.000000000000D+00  5 -1 2 25 24 21 2 0.16935737D-02 0.19579559D+00 0.11575471D+05 0.11575471D+05 0.11575471D+05 0.12608615D+01  1  2 15  2  5  2        2 0.464138858227D-01 0.100000000000D+01
-.817743748265D-04 0.000000000000D+00 0.000000000000D+00 0.240772468251D-02 0.000000000000D+00  5 -1 2 25 24 21 2 0.16935737D-02 0.19579559D+00 0.11575471D+05 0.11575471D+05 0.11575471D+05 0.12608615D+01  1  2  4  2  5  2        2 -.222852149542D+00 0.100000000000D+01
0.240973886332D-04 0.000000000000D+00 0.000000000000D+00 0.240772468251D-02 0.608180313975D-03  5 -1 2 25 24 21 2 0.18345792D-02 0.19726632D+00 0.12214684D+05 0.12214684D+05 0.12214684D+05 0.12581226D+01  1  2 11  2  5  2        2 0.577339424685D-01 0.100000000000D+01
0.125686972940D-05 0.000000000000D+00 0.000000000000D+00 0.240772468251D-02 0.881365342691D-06  5 -1 21 25 24 -2 2 0.18345792D-02 0.19726632D+00 0.12214684D+05 0.12214684D+05 0.12214684D+05 0.12581226D+01  1  2 11  4  5  2        2 0.194005603497D-02 0.100000000000D+01
  </mgrwgt>
  </event>
  <event>
  4     66 0.45252658E-03 0.15614286E+03 0.75467711E-02 0.11610340E+00
       -1 -1    0    0    0  501 0.00000000E+00 0.00000000E+00 0.28514204E+02 0.28515999E+02 0.32000000E+00 0.0000E+00 0.9000E+01
        2 -1    0    0  501    0 0.00000000E+00 0.00000000E+00 -.85888473E+03 0.85888479E+03 0.32000000E+00 0.0000E+00 0.9000E+01
       25  1    1    2    0    0 0.10778736E+03 0.43947246E+02 -.42430539E+03 0.45739429E+03 0.12500000E+03 0.0000E+00 0.9000E+01
       24  1    1    2    0    0 -.10778736E+03 -.43947246E+02 -.40606514E+03 0.43000650E+03 0.80419002E+02 0.0000E+00 0.9000E+01
#aMCatNLO 1  0  0  2  2 0.56944546D+02 0.00000000D+00  -5  5  0 0.00000000D+00 0.00000000D+00 0.00000000D+00 0.00000000D+00 0.00000000D+00
  <mgrwgt>
 0.3261835356D+00    4    2    0
 0.156496764241029D+03 0.000000000000000D+00 0.000000000000000D+00 0.156496764241029D+03
 0.156496764241029D+03 0.000000000000000D+00 0.000000000000000D+00 -.156496764241029D+03
 0.171126114710418D+03 0.107787359938212D+03 0.439472456517086D+02 0.104724291862942D+02
 0.141867413771640D+03 -.107787359938212D+03 -.439472456517086D+02 -.104724291862942D+02
 0.000000000000000D+00 -.000000000000000D+00 -.000000000000000D+00 0.000000000000000D+00
 0.215171344456004D+03 0.000000000000000D+00 0.000000000000000D+00 0.215171344456004D+03
 0.173514739858850D+03 0.000000000000000D+00 0.000000000000000D+00 -.173514739858850D+03
 0.194094139805185D+03 0.133021127496607D+03 0.651401794070616D+02 0.104724291862942D+02
 0.124037327058406D+03 -.894154916208871D+02 -.285173742577477D+02 -.104724291862942D+02
 0.705546174512635D+02 -.436056358757202D+02 -.366228051493139D+02 0.416566045971538D+02
0.580140008508D-03 0.000000000000D+00 0.000000000000D+00 0.235121172839D-02 0.000000000000D+00  5 -1 2 25 24 21 0 0.43869433D-02 0.13213626D+00 0.24380594D+05 0.24380594D+05 0.24380594D+05 0.12244675D+01  1  2  2  2  5  2        2 0.445008640586D+00 0.100000000000D+01
-.322297996216D-04 0.000000000000D+00 -.222789038704D-05 0.235121172839D-02 0.000000000000D+00  5 -1 2 25 24 21 2 0.43869433D-02 0.13213626D+00 0.24380594D+05 0.24380594D+05 0.24380594D+05 0.12244675D+01  1  2  3  2  5  2        2 -.370670288209D-01 0.100000000000D+01
0.400379395100D-04 0.000000000000D+00 0.000000000000D+00 0.235121172839D-02 0.000000000000D+00  5 -1 2 25 24 21 2 0.43869433D-02 0.13213626D+00 0.24380594D+05 0.24380594D+05 0.24380594D+05 0.12244675D+01  1  2 15  2  5  2        2 0.460470581626D-01 0.100000000000D+01
-.111126626600D-03 0.000000000000D+00 0.000000000000D+00 0.235121172839D-02 0.000000000000D+00  5 -1 2 25 24 21 2 0.43869433D-02 0.13213626D+00 0.24380594D+05 0.24380594D+05 0.24380594D+05 0.12244675D+01  1  2  4  2  5  2        2 -.127805134357D+00 0.100000000000D+01
  </mgrwgt>
  </event>
  <event>
  4     66 0.45252658E-03 0.13186465E+03 0.75467711E-02 0.98464100E-01
       -1 -1    0    0    0  501 0.00000000E+00 0.00000000E+00 0.73160451E+02 0.73161151E+02 0.32000000E+00 0.0000E+00 0.9000E+01
        2 -1    0    0  501    0 0.00000000E+00 0.00000000E+00 -.39906870E+03 0.39906883E+03 0.32000000E+00 0.0000E+00 0.9000E+01
       25  1    1    2    0    0 0.26538537E+02 0.77067020E+02 -.32511277E+03 0.35772466E+03 0.12500000E+03 0.0000E+00 0.9000E+01
       24  1    1    2    0    0 -.26538537E+02 -.77067020E+02 -.79548050E+00 0.11450532E+03 0.80419002E+02 0.0000E+00 0.9000E+01
#aMCatNLO 1  0  0  1  2 0.60149169D+03 0.00000000D+00  -5  5  0 0.00000000D+00 0.00000000D+00 0.00000000D+00 0.00000000D+00 0.00000000D+00
  <mgrwgt>
 0.4297181396D+00    3    2    0
 0.170869077243715D+03 0.000000000000000D+00 0.000000000000000D+00 0.170869077243715D+03
 0.170869077243715D+03 0.000000000000000D+00 0.000000000000000D+00 -.170869077243715D+03
 0.184267908959426D+03 0.265385367725389D+02 0.770670202063325D+02 -.108102001529891D+03
 0.157470245528004D+03 -.265385367725389D+02 -.770670202063325D+02 0.108102001529891D+03
 0.000000000000000D+00 -.000000000000000D+00 0.000000000000000D+00 -.000000000000000D+00
 0.585295006335506D+03 0.000000000000000D+00 0.000000000000000D+00 0.585295006335506D+03
 0.723709996291921D+03 0.000000000000000D+00 0.000000000000000D+00 -.723709996291921D+03
 0.354783669343786D+03 0.307769693170116D+03 -.619534120468357D+02 -.108102001529891D+03
 0.337009085479992D+03 0.231438621019692D+03 -.204592350070633D+03 0.108102001529891D+03
 0.617212247803648D+03 -.539208314189809D+03 0.266545762117469D+03 -.138414989956415D+03
0.941579527228D-03 0.000000000000D+00 0.000000000000D+00 0.142536366020D-02 0.000000000000D+00  5 -1 2 25 24 21 0 0.11255518D-01 0.61395248D-01 0.17388285D+05 0.17388285D+05 0.17388285D+05 0.12405733D+01  1  2  2  1  5  1       -1 0.418943825774D+00 0.100000000000D+01
-.480395266383D-04 0.000000000000D+00 -.361591330814D-05 0.142536366020D-02 0.000000000000D+00  5 -1 2 25 24 21 2 0.11255518D-01 0.61395248D-01 0.17388285D+05 0.17388285D+05 0.17388285D+05 0.12405733D+01  1  2  3  1  5  1       -1 -.328959441820D-01 0.100000000000D+01
0.637737743732D-04 0.000000000000D+00 0.000000000000D+00 0.142536366020D-02 0.000000000000D+00  5 -1 2 25 24 21 2 0.11255518D-01 0.61395248D-01 0.17388285D+05 0.17388285D+05 0.17388285D+05 0.12405733D+01  1  2 15  1  5  1       -1 0.436702579908D-01 0.100000000000D+01
  </mgrwgt>
  </event>
  <event>
  4     66 0.45252658E-03 0.10520239E+03 0.75467711E-02 0.12079810E+00
       -1 -1    0    0    0  501 0.00000000E+00 0.00000000E+00 0.54785006E+02 0.54785941E+02 0.32000000E+00 0.0000E+00 0.9000E+01
        2 -1    0    0  501    0 0.00000000E+00 0.00000000E+00 -.35794546E+03 0.35794560E+03 0.32000000E+00 0.0000E+00 0.9000E+01
       25  1    1    2    0    0 0.67631045E+02 -.51259403E+02 -.10978126E+03 0.18675762E+03 0.12500000E+03 0.0000E+00 0.9000E+01
       24  1    1    2    0    0 -.67631045E+02 0.51259403E+02 -.19337919E+03 0.22597392E+03 0.80419002E+02 0.0000E+00 0.9000E+01
#aMCatNLO 1  0  0  2  1 0.19355118D+02 0.00000000D+00  -5  5  0 0.00000000D+00 0.00000000D+00 0.00000000D+00 0.00000000D+00 0.00000000D+00
  <mgrwgt>
 0.2916922852D+00    9    2    0
 0.140036661634771D+03 0.000000000000000D+00 0.000000000000000D+00 0.140036661634771D+03
 0.140036661634771D+03 0.000000000000000D+00 0.000000000000000D+00 -.140036661634771D+03
 0.156385566162205D+03 0.676310453181172D+02 -.512594031000384D+02 0.403727706118845D+02
 0.123687757107338D+03 -.676310453181172D+02 0.512594031000384D+02 -.403727706118845D+02
 0.000000000000000D+00 -.000000000000000D+00 -.000000000000000D+00 -.000000000000000D+00
 0.141506468110678D+03 0.000000000000000D+00 0.000000000000000D+00 0.141506468110678D+03
 0.222827382992871D+03 0.000000000000000D+00 0.000000000000000D+00 -.222827382992871D+03
 0.154417400256461D+03 0.701589637514816D+02 -.408349445989887D+02 0.403727706118845D+02
 0.126323916602086D+03 -.655975733541624D+02 0.596448968017013D+02 -.403727706118845D+02
 0.835925342450025D+02 -.456139039731921D+01 -.188099522027125D+02 -.813209148821927D+02
0.311439402853D-03 0.000000000000D+00 0.000000000000D+00 0.231325859149D-02 0.000000000000D+00  5 -1 2 25 24 21 0 0.84285454D-02 0.55068615D-01 0.17955676D+05 0.17955676D+05 0.17955676D+05 0.12390150D+01  1  2  2  2  5  2        2 0.241936711687D+00 0.100000000000D+01
-.172613253854D-04 0.000000000000D+00 -.119600931083D-05 0.231325859149D-02 0.000000000000D+00  5 -1 2 25 24 21 2 0.84285454D-02 0.55068615D-01 0.17955676D+05 0.17955676D+05 0.17955676D+05 0.12390150D+01  1  2  3  2  5  2        2 -.205852178770D-01 0.100000000000D+01
0.214630247284D-04 0.000000000000D+00 0.000000000000D+00 0.231325859149D-02 0.000000000000D+00  5 -1 2 25 24 21 2 0.84285454D-02 0.55068615D-01 0.17955676D+05 0.17955676D+05 0.17955676D+05 0.12390150D+01  1  2 15  2  5  2        2 0.255960090242D-01 0.100000000000D+01
0.328459126915D-02 0.000000000000D+00 0.000000000000D+00 0.231325859149D-02 0.000000000000D+00  5 -1 2 25 24 21 2 0.84285454D-02 0.87771021D-01 0.20750402D+05 0.20750402D+05 0.20750402D+05 0.12320688D+01  1  2 12  2  5  2        2 0.234268994534D+01 0.100000000000D+01
-.300033996847D-02 0.000000000000D+00 0.000000000000D+00 0.231325859149D-02 0.000000000000D+00  5 -1 2 25 24 21 2 0.84285454D-02 0.55068615D-01 0.17955676D+05 0.17955676D+05 0.17955676D+05 0.12390150D+01  1  2  4  2  5  2        2 -.357809441495D+01 0.100000000000D+01
-.336120470995D-02 0.000000000000D+00 -.139084279385D-03 0.231325859149D-02 0.000000000000D+00  5 -1 2 25 24 21 2 0.84285454D-02 0.87998355D-01 0.17955676D+05 0.17955676D+05 0.17955676D+05 0.12390150D+01  1  2  5  2  5  2        2 -.240959326608D+01 0.100000000000D+01
0.309420256468D-02 0.000000000000D+00 0.125088842079D-03 0.231325859149D-02 0.000000000000D+00  5 -1 2 25 24 21 2 0.84285454D-02 0.55068615D-01 0.17955676D+05 0.17955676D+05 0.17955676D+05 0.12390150D+01  1  2  6  2  5  2        2 0.369003147369D+01 0.100000000000D+01
0.175340385912D-03 0.000000000000D+00 0.000000000000D+00 0.231325859149D-02 0.000000000000D+00  5 -1 21 25 24 -2 2 0.84285454D-02 0.87771021D-01 0.20750402D+05 0.20750402D+05 0.20750402D+05 0.12320688D+01  1  2 12  4  5  2        2 0.211417004287D+00 0.100000000000D+01
-.174377259430D-03 0.000000000000D+00 -.745636788283D-05 0.231325859149D-02 0.000000000000D+00  5 -1 21 25 24 -2 2 0.84285454D-02 0.87998355D-01 0.17955676D+05 0.17955676D+05 0.17955676D+05 0.12390150D+01  1  2  5  4  5  2        2 -.211705959916D+00 0.100000000000D+01
  </mgrwgt>
  </event>
  <event>
  4     66 0.45252658E-03 0.60239973E+02 0.75467711E-02 0.12143018E+00
       -1 -1    0    0    0  501 0.00000000E+00 0.00000000E+00 0.16865113E+03 0.16865143E+03 0.32000000E+00 0.0000E+00 0.9000E+01
        2 -1    0    0  501    0 0.00000000E+00 0.00000000E+00 -.84304592E+02 0.84305199E+02 0.32000000E+00 0.0000E+00 0.9000E+01
       25  1    1    2    0    0 0.29626509E+02 -.50425964E+02 0.60594002E+02 0.15072207E+03 0.12500000E+03 0.0000E+00 0.9000E+01
       24  1    1    2    0    0 -.29626509E+02 0.50425964E+02 0.23752536E+02 0.10223457E+03 0.80419002E+02 0.0000E+00 0.9000E+01
#aMCatNLO 1  0  0  2  1 0.38076942D+02 0.00000000D+00  -5  5  0 0.00000000D+00 0.00000000D+00 0.00000000D+00 0.00000000D+00 0.00000000D+00
  <mgrwgt>
 0.3526895582D+00    9    2    0
 0.119240009646556D+03 0.000000000000000D+00 0.000000000000000D+00 0.119240009646556D+03
 0.119240009646556D+03 0.000000000000000D+00 0.000000000000000D+00 -.119240009646556D+03
 0.138440326873917D+03 0.296265089673799D+02 -.504259639577725D+02 0.109643162254674D+02
 0.100039692419196D+03 -.296265089673799D+02 0.504259639577725D+02 -.109643162254674D+02
 0.000000000000000D+00 0.000000000000000D+00 0.000000000000000D+00 -.000000000000000D+00
 0.127852435654612D+03 0.000000000000000D+00 0.000000000000000D+00 0.127852435654612D+03
 0.171786409852497D+03 0.000000000000000D+00 0.000000000000000D+00 -.171786409852497D+03
 0.138049075037376D+03 0.866861988987896D+01 -.568962733189781D+02 0.109643162254674D+02
 0.103451593884775D+03 -.450511428850478D+02 0.456639312520169D+02 -.109643162254674D+02
 0.581381765849571D+02 0.363825229951688D+02 0.112323420669612D+02 -.439339741978851D+02
0.430268239792D-03 0.000000000000D+00 0.000000000000D+00 0.277749593559D-02 0.000000000000D+00  5 -1 2 25 24 21 0 0.25946398D-01 0.12970007D-01 0.14094735D+05 0.14094735D+05 0.14094735D+05 0.12509163D+01  1  2  2  2  5  2        2 0.280326341846D+00 0.100000000000D+01
-.239032386006D-04 0.000000000000D+00 -.165234333303D-05 0.277749593559D-02 0.000000000000D+00  5 -1 2 25 24 21 2 0.25946398D-01 0.12970007D-01 0.14094735D+05 0.14094735D+05 0.14094735D+05 0.12509163D+01  1  2  3  2  5  2        2 -.243690092496D-01 0.100000000000D+01
0.298023950341D-04 0.000000000000D+00 0.000000000000D+00 0.277749593559D-02 0.000000000000D+00  5 -1 2 25 24 21 2 0.25946398D-01 0.12970007D-01 0.14094735D+05 0.14094735D+05 0.14094735D+05 0.12509163D+01  1  2 15  2  5  2        2 0.303831147059D-01 0.100000000000D+01
0.627860615316D-03 0.000000000000D+00 0.000000000000D+00 0.277749593559D-02 0.000000000000D+00  5 -1 2 25 24 21 2 0.25946398D-01 0.18992513D-01 0.19398757D+05 0.19398757D+05 0.19398757D+05 0.12352881D+01  1  2 12  2  5  2        2 0.404724837200D+00 0.100000000000D+01
-.675892441142D-03 0.000000000000D+00 0.000000000000D+00 0.277749593559D-02 0.000000000000D+00  5 -1 2 25 24 21 2 0.25946398D-01 0.12970007D-01 0.14094735D+05 0.14094735D+05 0.14094735D+05 0.12509163D+01  1  2  4  2  5  2        2 -.689062659044D+00 0.100000000000D+01
-.862179245020D-03 0.000000000000D+00 -.211957250548D-03 0.277749593559D-02 0.000000000000D+00  5 -1 2 25 24 21 2 0.25946398D-01 0.19904181D-01 0.14094735D+05 0.14094735D+05 0.14094735D+05 0.12509163D+01  1  2  5  2  5  2        2 -.535639591179D+00 0.100000000000D+01
0.888291931574D-03 0.000000000000D+00 0.193899957589D-03 0.277749593559D-02 0.000000000000D+00  5 -1 2 25 24 21 2 0.25946398D-01 0.12970007D-01 0.14094735D+05 0.14094735D+05 0.14094735D+05 0.12509163D+01  1  2  6  2  5  2        2 0.905600896118D+00 0.100000000000D+01
0.288643136227D-04 0.000000000000D+00 0.000000000000D+00 0.277749593559D-02 0.000000000000D+00  5 -1 21 25 24 -2 2 0.25946398D-01 0.18992513D-01 0.19398757D+05 0.19398757D+05 0.19398757D+05 0.12352881D+01  1  2 12  4  5  2        2 0.132958585380D+00 0.100000000000D+01
-.352468441489D-04 0.000000000000D+00 -.106122904340D-04 0.277749593559D-02 0.000000000000D+00  5 -1 21 25 24 -2 2 0.25946398D-01 0.19904181D-01 0.14094735D+05 0.14094735D+05 0.14094735D+05 0.12509163D+01  1  2  5  4  5  2        2 -.152232957540D+00 0.100000000000D+01
  </mgrwgt>
  </event>
  <event>
  4     66 0.45252658E-03 0.14946472E+03 0.75467711E-02 0.11287968E+00
       -1 -1    0    0    0  501 0.00000000E+00 0.00000000E+00 0.25834017E+03 0.25834037E+03 0.32000000E+00 0.0000E+00 0.9000E+01
        2 -1    0    0  501    0 0.00000000E+00 0.00000000E+00 -.88101614E+02 0.88102195E+02 0.32000000E+00 0.0000E+00 0.9000E+01
       25  1    1    2    0    0 -.81846019E+02 -.69494264E+02 0.11710783E+03 0.20215704E+03 0.12500000E+03 0.0000E+00 0.9000E+01
       24  1    1    2    0    0 0.81846019E+02 0.69494264E+02 0.53130726E+02 0.14428553E+03 0.80419002E+02 0.0000E+00 0.9000E+01
#aMCatNLO 1  0  0  2  2 0.12852051D+03 0.00000000D+00  -5  5  0 0.00000000D+00 0.00000000D+00 0.00000000D+00 0.00000000D+00 0.00000000D+00
  <mgrwgt>
 0.2420066166D+00    5    2    0
 0.150865241552032D+03 0.000000000000000D+00 0.000000000000000D+00 0.150865241552032D+03
 0.150865241552032D+03 0.000000000000000D+00 0.000000000000000D+00 -.150865241552032D+03
 0.166040678835363D+03 -.818460185591860D+02 -.694942642494745D+02 0.204030269945823D+02
 0.135689804268702D+03 0.818460185591860D+02 0.694942642494745D+02 -.204030269945823D+02
 0.000000000000000D+00 -.000000000000000D+00 0.000000000000000D+00 -.000000000000000D+00
 0.218129130849361D+03 0.000000000000000D+00 0.000000000000000D+00 0.218129130849361D+03
 0.240241321547808D+03 0.000000000000000D+00 0.000000000000000D+00 -.240241321547808D+03
 0.153530424667825D+03 -.184414710306151D+02 -.847951645694961D+02 0.204030269945823D+02
 0.174431167877195D+03 0.143375611511995D+03 0.546458313657259D+02 -.204030269945823D+02
 0.130408859852150D+03 -.124934140481380D+03 0.301493332037702D+02 -.221121906984476D+02
0.861571733096D-03 0.000000000000D+00 0.000000000000D+00 0.236225577852D-02 0.000000000000D+00  5 -1 2 25 24 21 0 0.39744702D-01 0.13554154D-01 0.22339702D+05 0.22339702D+05 0.22339702D+05 0.12285713D+01  1  2  2  2  5  2        2 0.262012055901D+00 0.100000000000D+01
-.478600339463D-04 0.000000000000D+00 -.330866231214D-05 0.236225577852D-02 0.000000000000D+00  5 -1 2 25 24 21 2 0.39744702D-01 0.13554154D-01 0.22339702D+05 0.22339702D+05 0.22339702D+05 0.12285713D+01  1  2  3  2  5  2        2 -.219686584994D-01 0.100000000000D+01
0.595035483372D-04 0.000000000000D+00 0.000000000000D+00 0.236225577852D-02 0.000000000000D+00  5 -1 2 25 24 21 2 0.39744702D-01 0.13554154D-01 0.22339702D+05 0.22339702D+05 0.22339702D+05 0.12285713D+01  1  2 15  2  5  2        2 0.273132512691D-01 0.100000000000D+01
-.167888474703D-03 0.000000000000D+00 -.327534076895D-03 0.236225577852D-02 0.000000000000D+00  5 -1 2 25 24 21 2 0.39744702D-01 0.30713885D-01 0.22339702D+05 0.22339702D+05 0.22339702D+05 0.12285713D+01  1  2  5  2  5  2        2 -.305036978250D-01 0.100000000000D+01
0.579275336684D-05 0.000000000000D+00 -.291139355841D-04 0.236225577852D-02 0.000000000000D+00  5 -1 21 25 24 -2 2 0.39744702D-01 0.30713885D-01 0.22339702D+05 0.22339702D+05 0.22339702D+05 0.12285713D+01  1  2  5  4  5  2        2 0.515366577619D-02 0.100000000000D+01
  </mgrwgt>
  </event>
  <event>
  4     66 0.45252658E-03 0.16591738E+03 0.75467711E-02 0.10029155E+00
       -1 -1    0    0    0  501 0.00000000E+00 0.00000000E+00 0.10454417E+03 0.10454466E+03 0.32000000E+00 0.0000E+00 0.9000E+01
        2 -1    0    0  501    0 0.00000000E+00 0.00000000E+00 -.50836858E+03 0.50836868E+03 0.32000000E+00 0.0000E+00 0.9000E+01
       25  1    1    2    0    0 0.11201075E+03 -.64237570E+02 -.42299672E+03 0.45959123E+03 0.12500000E+03 0.0000E+00 0.9000E+01
       24  1    1    2    0    0 -.11201075E+03 0.64237570E+02 0.19172310E+02 0.15332210E+03 0.80419002E+02 0.0000E+00 0.9000E+01
#aMCatNLO 1  0  0  1  2 0.50133479D+03 0.00000000D+00  -5  5  0 0.00000000D+00 0.00000000D+00 0.00000000D+00 0.00000000D+00 0.00000000D+00
  <mgrwgt>
 0.3815240538D+00    5    2    0
 0.230536657592660D+03 0.000000000000000D+00 0.000000000000000D+00 0.230536657592660D+03
 0.230536657592660D+03 0.000000000000000D+00 0.000000000000000D+00 -.230536657592660D+03
 0.240467598881193D+03 0.112010752233525D+03 -.642375700580340D+02 -.159771061487383D+03
 0.220605716304127D+03 -.112010752233525D+03 0.642375700580340D+02 0.159771061487383D+03
 0.000000000000000D+00 0.000000000000000D+00 -.000000000000000D+00 0.000000000000000D+00
 0.641422945986237D+03 0.000000000000000D+00 0.000000000000000D+00 0.641422945986237D+03
 0.549406844627630D+03 0.000000000000000D+00 0.000000000000000D+00 -.549406844627630D+03
 0.227379499404439D+03 -.798886810502303D+01 0.102400305893140D+03 -.159771061487383D+03
 0.453741027671044D+03 -.284976136757835D+03 0.304426532397193D+03 0.159771061487383D+03
 0.509709263538383D+03 0.292965004862858D+03 -.406826838290334D+03 0.920161013586070D+02
0.162950724107D-02 0.000000000000D+00 0.000000000000D+00 0.112396689546D-02 0.000000000000D+00  5 -1 2 25 24 21 0 0.16083763D-01 0.78210596D-01 0.27528578D+05 0.27528578D+05 0.27528578D+05 0.12188367D+01  1  2  2  1  5  1       -1 0.322180224713D+00 0.100000000000D+01
-.786199931185D-04 0.000000000000D+00 -.625773686482D-05 0.112396689546D-02 0.000000000000D+00  5 -1 2 25 24 21 2 0.16083763D-01 0.78210596D-01 0.27528578D+05 0.27528578D+05 0.27528578D+05 0.12188367D+01  1  2  3  1  5  1       -1 -.230922718157D-01 0.100000000000D+01
0.109913781854D-03 0.000000000000D+00 0.000000000000D+00 0.112396689546D-02 0.000000000000D+00  5 -1 2 25 24 21 2 0.16083763D-01 0.78210596D-01 0.27528578D+05 0.27528578D+05 0.27528578D+05 0.12188367D+01  1  2 15  1  5  1       -1 0.322838864031D-01 0.100000000000D+01
0.172322016383D-02 0.000000000000D+00 -.717191573054D-03 0.112396689546D-02 0.000000000000D+00  5 -1 2 25 24 21 2 0.10033495D+00 0.78210596D-01 0.27528578D+05 0.27528578D+05 0.27528578D+05 0.12188367D+01  1  2  5  1  5  1       -1 0.185563461192D-01 0.100000000000D+01
0.335271294259D-03 0.000000000000D+00 -.160903228252D-03 0.112396689546D-02 0.000000000000D+00  5 21 2 25 24 1 2 0.10033495D+00 0.78210596D-01 0.27528578D+05 0.27528578D+05 0.27528578D+05 0.12188367D+01  1  2  5  3  5  1       -1 0.315958683684D-01 0.100000000000D+01
  </mgrwgt>
  </event>
  <event>
  4     66 0.45252658E-03 0.12369201E+03 0.75467711E-02 0.11361631E+00
       -1 -1    0    0    0  501 0.00000000E+00 0.00000000E+00 0.22523020E+02 0.22525293E+02 0.32000000E+00 0.0000E+00 0.9000E+01
        2 -1    0    0  501    0 0.00000000E+00 0.00000000E+00 -.73208347E+03 0.73208354E+03 0.32000000E+00 0.0000E+00 0.9000E+01
       25  1    1    2    0    0 -.54642198E+02 -.40130132E+02 -.50433440E+03 0.52399845E+03 0.12500000E+03 0.0000E+00 0.9000E+01
       24  1    1    2    0    0 0.54642198E+02 0.40130132E+02 -.20522605E+03 0.23061038E+03 0.80419002E+02 0.0000E+00 0.9000E+01
#aMCatNLO 1  0  0  1  2 0.14642125D+03 0.00000000D+00  -5  5  0 0.00000000D+00 0.00000000D+00 0.00000000D+00 0.00000000D+00 0.00000000D+00
  <mgrwgt>
 0.4582402628D+00    3    2    0
 0.128411894198628D+03 0.000000000000000D+00 0.000000000000000D+00 0.128411894198628D+03
 0.128411894198628D+03 0.000000000000000D+00 0.000000000000000D+00 -.128411894198628D+03
 0.146240819047802D+03 -.546421981882156D+02 -.401301321143125D+02 -.341347305455820D+02
 0.110582969349455D+03 0.546421981882156D+02 0.401301321143125D+02 0.341347305455820D+02
 0.000000000000000D+00 -.000000000000000D+00 -.000000000000000D+00 -.000000000000000D+00
 0.172718784419372D+03 0.000000000000000D+00 0.000000000000000D+00 0.172718784419372D+03
 0.363039574452858D+03 0.000000000000000D+00 0.000000000000000D+00 -.363039574452858D+03
 0.130212218729392D+03 0.107373775627859D+02 -.705342470616937D+01 -.341347305455820D+02
 0.165418702397085D+03 0.119915028432531D+03 0.731528350439736D+02 0.341347305455820D+02
 0.240127437745753D+03 -.130652405995316D+03 -.660994103378043D+02 -.190320790033486D+03
0.344091865011D-03 0.000000000000D+00 0.000000000000D+00 0.247867527768D-02 0.000000000000D+00  5 -1 2 25 24 21 0 0.34652602D-02 0.11262841D+00 0.15299713D+05 0.15299713D+05 0.15299713D+05 0.12468442D+01  1  2  2  1  5  1       -1 0.448771963229D+00 0.100000000000D+01
-.190836198984D-04 0.000000000000D+00 -.132140336311D-05 0.247867527768D-02 0.000000000000D+00  5 -1 2 25 24 21 2 0.34652602D-02 0.11262841D+00 0.15299713D+05 0.15299713D+05 0.15299713D+05 0.12468442D+01  1  2  3  1  5  1       -1 -.386933617544D-01 0.100000000000D+01
0.237533984363D-04 0.000000000000D+00 0.000000000000D+00 0.247867527768D-02 0.000000000000D+00  5 -1 2 25 24 21 2 0.34652602D-02 0.11262841D+00 0.15299713D+05 0.15299713D+05 0.15299713D+05 0.12468442D+01  1  2 15  1  5  1       -1 0.481616613350D-01 0.100000000000D+01
  </mgrwgt>
  </event>
  <event>
  4     66 0.45252658E-03 0.11278217E+03 0.75467711E-02 0.11367708E+00
       -1 -1    0    0    0  501 0.00000000E+00 0.00000000E+00 0.15344128E+03 0.15344162E+03 0.32000000E+00 0.0000E+00 0.9000E+01
        2 -1    0    0  501    0 0.00000000E+00 0.00000000E+00 -.38110739E+03 0.38110752E+03 0.32000000E+00 0.0000E+00 0.9000E+01
       25  1    1    2    0    0 0.15297739E+03 0.56596156E+02 -.27813587E+03 0.34581753E+03 0.12500000E+03 0.0000E+00 0.9000E+01
       24  1    1    2    0    0 -.15297739E+03 -.56596156E+02 0.50469761E+02 0.18873161E+03 0.80419002E+02 0.0000E+00 0.9000E+01
#aMCatNLO 1  0  0  1  2 0.42413855D+02 0.00000000D+00  -5  5  0 0.00000000D+00 0.00000000D+00 0.00000000D+00 0.00000000D+00 0.00000000D+00
  <mgrwgt>
 0.4183834575D+00    9    2    0
 0.241821695862188D+03 0.000000000000000D+00 0.000000000000000D+00 0.241821695862188D+03
 0.241821695862188D+03 0.000000000000000D+00 0.000000000000000D+00 -.241821695862188D+03
 0.251289192164555D+03 0.152977391247732D+03 0.565961556777799D+02 -.144623825935595D+03
 0.232354199559821D+03 -.152977391247732D+03 -.565961556777799D+02 0.144623825935595D+03
 0.000000000000000D+00 0.000000000000000D+00 0.000000000000000D+00 0.000000000000000D+00
 0.264348888167664D+03 0.000000000000000D+00 0.000000000000000D+00 0.264348888167664D+03
 0.263571691290243D+03 0.000000000000000D+00 0.000000000000000D+00 -.263571691290243D+03
 0.243864935764915D+03 0.147148928787877D+03 0.357246220967718D+02 -.144623825935595D+03
 0.241634668233489D+03 -.158556717292886D+03 -.765755399001027D+02 0.144623825935595D+03
 0.424209754595034D+02 0.114077885050094D+02 0.408509178033309D+02 0.777196877421300D+00
0.182425044199D-02 0.000000000000D+00 0.000000000000D+00 0.135642613205D-02 0.000000000000D+00  5 -1 2 25 24 21 0 0.23606388D-01 0.58631942D-01 0.37511583D+05 0.37511583D+05 0.37511583D+05 0.12048433D+01  1  2  2  1  5  1       -1 0.266732213336D+00 0.100000000000D+01
-.952744029710D-04 0.000000000000D+00 -.700560203343D-05 0.135642613205D-02 0.000000000000D+00  5 -1 2 25 24 21 2 0.23606388D-01 0.58631942D-01 0.37511583D+05 0.37511583D+05 0.37511583D+05 0.12048433D+01  1  2  3  1  5  1       -1 -.202221987346D-01 0.100000000000D+01
0.124411851831D-03 0.000000000000D+00 0.000000000000D+00 0.135642613205D-02 0.000000000000D+00  5 -1 2 25 24 21 2 0.23606388D-01 0.58631942D-01 0.37511583D+05 0.37511583D+05 0.37511583D+05 0.12048433D+01  1  2 15  1  5  1       -1 0.264066854707D-01 0.100000000000D+01
0.166951507672D-02 0.000000000000D+00 0.000000000000D+00 0.135642613205D-02 0.000000000000D+00  5 -1 2 25 24 21 2 0.26773524D-01 0.58631942D-01 0.46729615D+05 0.46729615D+05 0.46729615D+05 0.11952022D+01  1  2 12  1  5  1       -1 0.283318437114D+00 0.100000000000D+01
-.136226035198D-02 0.000000000000D+00 0.000000000000D+00 0.135642613205D-02 0.000000000000D+00  5 -1 2 25 24 21 2 0.23606388D-01 0.58631942D-01 0.37511583D+05 0.37511583D+05 0.37511583D+05 0.12048433D+01  1  2  4  1  5  1       -1 -.289142715220D+00 0.100000000000D+01
-.457144611616D-02 0.000000000000D+00 -.134784353395D-02 0.135642613205D-02 0.000000000000D+00  5 -1 2 25 24 21 2 0.28017303D-01 0.58631942D-01 0.37511583D+05 0.37511583D+05 0.37511583D+05 0.12048433D+01  1  2  5  1  5  1       -1 -.729799025024D+00 0.100000000000D+01
0.475198089832D-02 0.000000000000D+00 0.132830599696D-02 0.135642613205D-02 0.000000000000D+00  5 -1 2 25 24 21 2 0.23606388D-01 0.58631942D-01 0.37511583D+05 0.37511583D+05 0.37511583D+05 0.12048433D+01  1  2  6  1  5  1       -1 0.100861825540D+01 0.100000000000D+01
0.329755438659D-04 0.000000000000D+00 0.000000000000D+00 0.135642613205D-02 0.000000000000D+00  5 21 2 25 24 1 2 0.26773524D-01 0.58631942D-01 0.46729615D+05 0.46729615D+05 0.46729615D+05 0.11952022D+01  1  2 12  3  5  1       -1 0.653267248505D-01 0.100000000000D+01
-.104113436726D-03 0.000000000000D+00 -.341908003383D-04 0.135642613205D-02 0.000000000000D+00  5 21 2 25 24 1 2 0.28017303D-01 0.58631942D-01 0.37511583D+05 0.37511583D+05 0.37511583D+05 0.12048433D+01  1  2  5  3  5  1       -1 -.192854919697D+00 0.100000000000D+01
  </mgrwgt>
  </event>
  <event>
  4     66 0.45252658E-03 0.45533410E+02 0.75467711E-02 0.12268592E+00
       -1 -1    0    0    0  501 0.00000000E+00 0.00000000E+00 0.89671332E+01 0.89728412E+01 0.32000000E+00 0.0000E+00 0.9000E+01
        2 -1    0    0  501    0 0.00000000E+00 0.00000000E+00 -.16427211E+04 0.16427212E+04 0.32000000E+00 0.0000E+00 0.9000E+01
       25  1    1    2    0    0 0.99130747E+01 -.16238561E+02 -.53092516E+03 0.54577329E+03 0.12500000E+03 0.0000E+00 0.9000E+01
       24  1    1    2    0    0 -.99130747E+01 0.16238561E+02 -.11028288E+04 0.11059207E+04 0.80419002E+02 0.0000E+00 0.9000E+01
#aMCatNLO 1  0  0  1  2 0.46299528D+02 0.00000000D+00  -5  5  0 0.00000000D+00 0.00000000D+00 0.00000000D+00 0.00000000D+00 0.00000000D+00
  <mgrwgt>
 0.4748928880D+00    9    2    0
 0.121388792410682D+03 0.000000000000000D+00 0.000000000000000D+00 0.121388792410682D+03
 0.121388792410682D+03 0.000000000000000D+00 0.000000000000000D+00 -.121388792410682D+03
 0.140249232208630D+03 0.991307465386171D+01 -.162385605913106D+02 0.606867962240521D+02
 0.102528352612733D+03 -.991307465386171D+01 0.162385605913106D+02 -.606867962240521D+02
 0.000000000000000D+00 -.000000000000000D+00 -.000000000000000D+00 0.000000000000000D+00
 0.153422675887642D+03 0.000000000000000D+00 0.000000000000000D+00 0.153422675887642D+03
 0.141532280996908D+03 0.000000000000000D+00 0.000000000000000D+00 -.141532280996908D+03
 0.139689633320384D+03 0.100469340759474D+02 0.102159452287767D+02 0.606867962240521D+02
 0.107463359685376D+03 -.981266212558381D+01 0.360829897121561D+02 -.606867962240521D+02
 0.478019638787890D+02 -.234271950363625D+00 -.462989349409328D+02 0.118903948907341D+02
0.259075818817D-03 0.000000000000D+00 0.000000000000D+00 0.215935330233D-02 0.000000000000D+00  5 -1 2 25 24 21 0 0.13800004D-02 0.25272677D+00 0.10928442D+05 0.10928442D+05 0.10928442D+05 0.12638131D+01  1  2  2  1  5  1       -1 0.381399142525D+00 0.100000000000D+01
-.140023056169D-04 0.000000000000D+00 -.994919360486D-06 0.215935330233D-02 0.000000000000D+00  5 -1 2 25 24 21 2 0.13800004D-02 0.25272677D+00 0.10928442D+05 0.10928442D+05 0.10928442D+05 0.12638131D+01  1  2  3  1  5  1       -1 -.329244183384D-01 0.100000000000D+01
0.176983118889D-04 0.000000000000D+00 0.000000000000D+00 0.215935330233D-02 0.000000000000D+00  5 -1 2 25 24 21 2 0.13800004D-02 0.25272677D+00 0.10928442D+05 0.10928442D+05 0.10928442D+05 0.12638131D+01  1  2 15  1  5  1       -1 0.416150482966D-01 0.100000000000D+01
0.985672929075D-04 0.000000000000D+00 0.000000000000D+00 0.215935330233D-02 0.000000000000D+00  5 -1 2 25 24 21 2 0.18338189D-02 0.25272677D+00 0.17004897D+05 0.17004897D+05 0.17004897D+05 0.12416589D+01  1  2 12  1  5  1       -1 0.150507719742D+00 0.100000000000D+01
-.124128734973D-03 0.000000000000D+00 0.000000000000D+00 0.215935330233D-02 0.000000000000D+00  5 -1 2 25 24 21 2 0.13800004D-02 0.25272677D+00 0.10928442D+05 0.10928442D+05 0.10928442D+05 0.12638131D+01  1  2  4  1  5  1       -1 -.291870961103D+00 0.100000000000D+01
-.193737115620D-03 0.000000000000D+00 -.982169847362D-04 0.215935330233D-02 0.000000000000D+00  5 -1 2 25 24 21 2 0.20765911D-02 0.25272677D+00 0.10928442D+05 0.10928442D+05 0.10928442D+05 0.12638131D+01  1  2  5  1  5  1       -1 -.254161650223D+00 0.100000000000D+01
0.222685880847D-03 0.000000000000D+00 0.905506681391D-04 0.215935330233D-02 0.000000000000D+00  5 -1 2 25 24 21 2 0.13800004D-02 0.25272677D+00 0.10928442D+05 0.10928442D+05 0.10928442D+05 0.12638131D+01  1  2  6  1  5  1       -1 0.523613988983D+00 0.100000000000D+01
0.366485935485D-05 0.000000000000D+00 0.000000000000D+00 0.215935330233D-02 0.000000000000D+00  5 21 2 25 24 1 2 0.18338189D-02 0.25272677D+00 0.17004897D+05 0.17004897D+05 0.17004897D+05 0.12416589D+01  1  2 12  3  5  1       -1 0.118128554118D+00 0.100000000000D+01
-.591773155812D-05 0.000000000000D+00 -.474921483133D-05 0.215935330233D-02 0.000000000000D+00  5 21 2 25 24 1 2 0.20765911D-02 0.25272677D+00 0.10928442D+05 0.10928442D+05 0.10928442D+05 0.12638131D+01  1  2  5  3  5  1       -1 -.161414536038D+00 0.100000000000D+01
  </mgrwgt>
  </event>
  <event>
  4     66 0.45252658E-03 0.45051635E+02 0.75467711E-02 0.12630418E+00
       -1 -1    0    0    0  501 0.00000000E+00 0.00000000E+00 0.81156143E+01 0.81219207E+01 0.32000000E+00 0.0000E+00 0.9000E+01
        2 -1    0    0  501    0 0.00000000E+00 0.00000000E+00 -.17554752E+04 0.17554752E+04 0.32000000E+00 0.0000E+00 0.9000E+01
       25  1    1    2    0    0 0.26024059E+02 -.17517976E+02 -.13899188E+04 0.13958809E+04 0.12500000E+03 0.0000E+00 0.9000E+01
       24  1    1    2    0    0 -.26024059E+02 0.17517976E+02 -.35744076E+03 0.36771626E+03 0.80419002E+02 0.0000E+00 0.9000E+01
#aMCatNLO 1  0  0  2  1 0.21202334D+01 0.00000000D+00  -5  5  0 0.00000000D+00 0.00000000D+00 0.00000000D+00 0.00000000D+00 0.00000000D+00
  <mgrwgt>
 0.5169095236D+00   11    2    0
 0.119383190573769D+03 0.000000000000000D+00 0.000000000000000D+00 0.119383190573769D+03
 0.119383190573769D+03 0.000000000000000D+00 0.000000000000000D+00 -.119383190573769D+03
 0.138560480110127D+03 0.260240592520217D+02 -.175179759851223D+02 -.508908194646217D+02
 0.100205901037411D+03 -.260240592520217D+02 0.175179759851223D+02 0.508908194646217D+02
 0.000000000000000D+00 0.000000000000000D+00 -.000000000000000D+00 -.000000000000000D+00
 0.119478383771726D+03 0.000000000000000D+00 0.000000000000000D+00 0.119478383771726D+03
 0.131807967981277D+03 0.000000000000000D+00 0.000000000000000D+00 -.131807967981277D+03
 0.138290989251275D+03 0.251278799430303D+02 -.166766858783180D+02 -.508908194646217D+02
 0.100484805493834D+03 -.266737031174308D+02 0.181278304544583D+02 0.508908194646217D+02
 0.125105570078943D+02 0.154582317440049D+01 -.145114457614028D+01 -.123295842095506D+02
0.158113154531D-03 0.000000000000D+00 0.000000000000D+00 0.235661933117D-02 0.000000000000D+00  5 -1 2 25 24 21 0 0.12490434D-02 0.27007359D+00 0.11577502D+05 0.11577502D+05 0.11577502D+05 0.12608526D+01  1  2  2  2  5  2        2 0.235530966241D+00 0.100000000000D+01
-.866870563408D-05 0.000000000000D+00 -.607196145550D-06 0.235661933117D-02 0.000000000000D+00  5 -1 2 25 24 21 2 0.12490434D-02 0.27007359D+00 0.11577502D+05 0.11577502D+05 0.11577502D+05 0.12608526D+01  1  2  3  2  5  2        2 -.205287677674D-01 0.100000000000D+01
0.107908590298D-04 0.000000000000D+00 0.000000000000D+00 0.235661933117D-02 0.000000000000D+00  5 -1 2 25 24 21 2 0.12490434D-02 0.27007359D+00 0.11577502D+05 0.11577502D+05 0.11577502D+05 0.12608526D+01  1  2 15  2  5  2        2 0.255543386043D-01 0.100000000000D+01
0.218604703536D-04 0.000000000000D+00 0.000000000000D+00 0.235661933117D-02 0.000000000000D+00  5 -1 2 25 24 21 2 0.12490434D-02 0.29828264D+00 0.11810436D+05 0.11810436D+05 0.11810436D+05 0.12598354D+01  1  2 12  2  5  2        2 0.417713391535D-01 0.100000000000D+01
-.122698438103D-01 0.000000000000D+00 0.000000000000D+00 0.235661933117D-02 0.000000000000D+00  5 -1 2 25 24 21 2 0.12490434D-02 0.27007359D+00 0.11577502D+05 0.11577502D+05 0.11577502D+05 0.12608526D+01  1  2  4  2  5  2        2 -.290567917237D+02 0.100000000000D+01
-.129656319786D-01 0.000000000000D+00 -.195199617277D-03 0.235661933117D-02 0.000000000000D+00  5 -1 2 25 24 21 2 0.12490434D-02 0.29826133D+00 0.11577502D+05 0.11577502D+05 0.11577502D+05 0.12608526D+01  1  2  5  2  5  2        2 -.248087612449D+02 0.100000000000D+01
0.129222377558D-01 0.000000000000D+00 0.194241643501D-03 0.235661933117D-02 0.000000000000D+00  5 -1 2 25 24 21 2 0.12490434D-02 0.27007359D+00 0.11577502D+05 0.11577502D+05 0.11577502D+05 0.12608526D+01  1  2  6  2  5  2        2 0.306017563777D+02 0.100000000000D+01
0.123057880182D-01 0.000000000000D+00 0.000000000000D+00 0.235661933117D-02 0.445853594507D-02  5 -1 2 25 24 21 2 0.12500394D-02 0.29818144D+00 0.11810436D+05 0.11810436D+05 0.11810436D+05 0.12598354D+01  1  2 11  2  5  2        2 0.235054689580D+02 0.100000000000D+01
0.354043466714D-06 0.000000000000D+00 0.000000000000D+00 0.235661933117D-02 0.000000000000D+00  5 -1 21 25 24 -2 2 0.12490434D-02 0.29828264D+00 0.11810436D+05 0.11810436D+05 0.11810436D+05 0.12598354D+01  1  2 12  4  5  2        2 0.248353559534D-03 0.100000000000D+01
-.208638263171D-03 0.000000000000D+00 -.315062922950D-05 0.235661933117D-02 0.000000000000D+00  5 -1 21 25 24 -2 2 0.12490434D-02 0.29826133D+00 0.11577502D+05 0.11577502D+05 0.11577502D+05 0.12608526D+01  1  2  5  4  5  2        2 -.146807019307D+00 0.100000000000D+01
0.198788417249D-03 0.000000000000D+00 0.000000000000D+00 0.235661933117D-02 0.719715901386D-04  5 -1 21 25 24 -2 2 0.12500394D-02 0.29818144D+00 0.11810436D+05 0.11810436D+05 0.11810436D+05 0.12598354D+01  1  2 11  4  5  2        2 0.139467946071D+00 0.100000000000D+01
  </mgrwgt>
  </event>
  <event>
  4     66 0.45252658E-03 0.13237224E+03 0.75467711E-02 0.10696767E+00
       -1 -1    0    0    0  501 0.00000000E+00 0.00000000E+00 0.12007158E+03 0.12007201E+03 0.32000000E+00 0.0000E+00 0.9000E+01
        2 -1    0    0  501    0 0.00000000E+00 0.00000000E+00 -.16932401E+03 0.16932431E+03 0.32000000E+00 0.0000E+00 0.9000E+01
       25  1    1    2    0    0 0.13973071E+02 0.81118371E+02 -.80783964E+02 0.17007788E+03 0.12500000E+03 0.0000E+00 0.9000E+01
       24  1    1    2    0    0 -.13973071E+02 -.81118371E+02 0.31531539E+02 0.11931844E+03 0.80419002E+02 0.0000E+00 0.9000E+01
#aMCatNLO 1  0  0  1  1 0.28417664D+03 0.00000000D+00  -5  5  0 0.00000000D+00 0.00000000D+00 0.00000000D+00 0.00000000D+00 0.00000000D+00
  <mgrwgt>
 0.3462502278D+00    3    2    0
 0.142587193129774D+03 0.000000000000000D+00 0.000000000000000D+00 0.142587193129774D+03
 0.142587193129774D+03 0.000000000000000D+00 0.000000000000000D+00 -.142587193129774D+03
 0.158643656274565D+03 0.139730714496677D+02 0.811183706019307D+02 -.526058257354880D+02
 0.126530729984983D+03 -.139730714496677D+02 -.811183706019307D+02 0.526058257354880D+02
 0.000000000000000D+00 -.000000000000000D+00 -.000000000000000D+00 -.000000000000000D+00
 0.337694489212503D+03 0.000000000000000D+00 0.000000000000000D+00 0.337694489212503D+03
 0.349312117362891D+03 0.000000000000000D+00 0.000000000000000D+00 -.349312117362891D+03
 0.305938552171602D+03 0.531680291967922D+02 0.269033799874425D+03 -.526058257354880D+02
 0.966540382623896D+02 0.485614198602335D+01 0.915598939252247D+01 0.526058257354880D+02
 0.284414016141403D+03 -.580241711828156D+02 -.278189789266948D+03 -.116176281503880D+02
0.660904316398D-03 0.000000000000D+00 0.000000000000D+00 0.217018307423D-02 0.000000000000D+00  5 -1 2 25 24 21 0 0.18472608D-01 0.26049904D-01 0.17522410D+05 0.17522410D+05 0.17522410D+05 0.12401998D+01  1  2  2  1  5  1       -1 0.339182037976D+00 0.100000000000D+01
-.364702213629D-04 0.000000000000D+00 -.253804659507D-05 0.217018307423D-02 0.000000000000D+00  5 -1 2 25 24 21 2 0.18472608D-01 0.26049904D-01 0.17522410D+05 0.17522410D+05 0.17522410D+05 0.12401998D+01  1  2  3  1  5  1       -1 -.287882979297D-01 0.100000000000D+01
0.454245001649D-04 0.000000000000D+00 0.000000000000D+00 0.217018307423D-02 0.000000000000D+00  5 -1 2 25 24 21 2 0.18472608D-01 0.26049904D-01 0.17522410D+05 0.17522410D+05 0.17522410D+05 0.12401998D+01  1  2 15  1  5  1       -1 0.358564877093D-01 0.100000000000D+01
  </mgrwgt>
  </event>
  <event>
  4     66 0.45252658E-03 0.77545460E+02 0.75467711E-02 0.11433584E+00
       -1 -1    0    0    0  501 0.00000000E+00 0.00000000E+00 0.14994745E+02 0.14998159E+02 0.32000000E+00 0.0000E+00 0.9000E+01
        2 -1    0    0  501    0 0.00000000E+00 0.00000000E+00 -.26306088E+04 0.26306088E+04 0.32000000E+00 0.0000E+00 0.9000E+01
       25  1    1    2    0    0 0.13295069E+02 0.14707767E+03 -.19299855E+04 0.19396592E+04 0.12500000E+03 0.0000E+00 0.9000E+01
       24  1    1    2    0    0 -.13295069E+02 -.14707767E+03 -.68562853E+03 0.70594780E+03 0.80419002E+02 0.0000E+00 0.9000E+01
#aMCatNLO 1  0  0  1  2 0.50265505D+02 0.00000000D+00  -5  5  0 0.00000000D+00 0.00000000D+00 0.00000000D+00 0.00000000D+00 0.00000000D+00
  <mgrwgt>
 0.3486150781D+00    9    2    0
 0.198619861421621D+03 0.000000000000000D+00 0.000000000000000D+00 0.198619861421621D+03
 0.198619861421621D+03 0.000000000000000D+00 0.000000000000000D+00 -.198619861421621D+03
 0.210146634197619D+03 0.132950693953043D+02 0.147077667947600D+03 -.820244389524099D+02
 0.187093088645622D+03 -.132950693953043D+02 -.147077667947600D+03 0.820244389524099D+02
 0.000000000000000D+00 -.000000000000000D+00 0.000000000000000D+00 0.000000000000000D+00
 0.255294872128761D+03 0.000000000000000D+00 0.000000000000000D+00 0.255294872128761D+03
 0.211669283405543D+03 0.000000000000000D+00 0.000000000000000D+00 -.211669283405543D+03
 0.195981263713917D+03 0.248623073315733D+02 0.124247787970638D+03 -.820244389524099D+02
 0.204426051853072D+03 -.214391460381931D+01 -.169086338202051D+03 0.820244389524099D+02
 0.665568399673148D+02 -.227183927277540D+02 0.448385502314132D+02 0.436255887232174D+02
0.138191544645D-02 0.000000000000D+00 0.000000000000D+00 0.181623058858D-02 0.000000000000D+00  5 -1 2 25 24 21 0 0.23071479D-02 0.40470931D+00 0.32694387D+05 0.32694387D+05 0.32694387D+05 0.12109976D+01  1  2  2  1  5  1       -1 0.299790492125D+00 0.100000000000D+01
-.759498040255D-04 0.000000000000D+00 -.530691918108D-05 0.181623058858D-02 0.000000000000D+00  5 -1 2 25 24 21 2 0.23071479D-02 0.40470931D+00 0.32694387D+05 0.32694387D+05 0.32694387D+05 0.12109976D+01  1  2  3  1  5  1       -1 -.241629311076D-01 0.100000000000D+01
0.950370740317D-04 0.000000000000D+00 0.000000000000D+00 0.181623058858D-02 0.000000000000D+00  5 -1 2 25 24 21 2 0.23071479D-02 0.40470931D+00 0.32694387D+05 0.32694387D+05 0.32694387D+05 0.12109976D+01  1  2 15  1  5  1       -1 0.302354206434D-01 0.100000000000D+01
0.149944228885D-02 0.000000000000D+00 0.000000000000D+00 0.181623058858D-02 0.000000000000D+00  5 -1 2 25 24 21 2 0.30252576D-02 0.40470931D+00 0.43161016D+05 0.43161016D+05 0.43161016D+05 0.11986603D+01  1  2 12  1  5  1       -1 0.313001263383D+00 0.100000000000D+01
-.158359805004D-02 0.000000000000D+00 0.000000000000D+00 0.181623058858D-02 0.000000000000D+00  5 -1 2 25 24 21 2 0.23071479D-02 0.40470931D+00 0.32694387D+05 0.32694387D+05 0.32694387D+05 0.12109976D+01  1  2  4  1  5  1       -1 -.503811314280D+00 0.100000000000D+01
-.226401948784D-02 0.000000000000D+00 -.603822709679D-03 0.181623058858D-02 0.000000000000D+00  5 -1 2 25 24 21 2 0.32180337D-02 0.40470931D+00 0.32694387D+05 0.32694387D+05 0.32694387D+05 0.12109976D+01  1  2  5  1  5  1       -1 -.442634867656D+00 0.100000000000D+01
0.236476518504D-02 0.000000000000D+00 0.571868506005D-03 0.181623058858D-02 0.000000000000D+00  5 -1 2 25 24 21 2 0.23071479D-02 0.40470931D+00 0.32694387D+05 0.32694387D+05 0.32694387D+05 0.12109976D+01  1  2  6  1  5  1       -1 0.752334505466D+00 0.100000000000D+01
0.538365373604D-04 0.000000000000D+00 0.000000000000D+00 0.181623058858D-02 0.000000000000D+00  5 21 2 25 24 1 2 0.30252576D-02 0.40470931D+00 0.43161016D+05 0.43161016D+05 0.43161016D+05 0.11986603D+01  1  2 12  3  5  1       -1 0.213611192986D+00 0.100000000000D+01
-.784545647445D-04 0.000000000000D+00 -.251516554547D-04 0.181623058858D-02 0.000000000000D+00  5 21 2 25 24 1 2 0.32180337D-02 0.40470931D+00 0.32694387D+05 0.32694387D+05 0.32694387D+05 0.12109976D+01  1  2  5  3  5  1       -1 -.289748683500D+00 0.100000000000D+01
  </mgrwgt>
  </event>
  <event>
  4     66 0.45252658E-03 0.36690475E+02 0.75467711E-02 0.12602100E+00
       -1 -1    0    0    0  501 0.00000000E+00 0.00000000E+00 0.65996268E+01 0.66073803E+01 0.32000000E+00 0.0000E+00 0.9000E+01
        2 -1    0    0  501    0 0.00000000E+00 0.00000000E+00 -.23428846E+04 0.23428846E+04 0.32000000E+00 0.0000E+00 0.9000E+01
       25  1    1    2    0    0 -.25207743E+02 0.17016259E+02 -.19261847E+04 0.19304759E+04 0.12500000E+03 0.0000E+00 0.9000E+01
       24  1    1    2    0    0 0.25207743E+02 -.17016259E+02 -.41010031E+03 0.41901607E+03 0.80419002E+02 0.0000E+00 0.9000E+01
#aMCatNLO 1  0  0  2  1 0.57572498D+01 0.00000000D+00  -5  5  0 0.00000000D+00 0.00000000D+00 0.00000000D+00 0.00000000D+00 0.00000000D+00
  <mgrwgt>
 0.1146282620D+01   11    2    0
 0.124383673010767D+03 0.000000000000000D+00 0.000000000000000D+00 0.124383673010767D+03
 0.124383673010767D+03 0.000000000000000D+00 0.000000000000000D+00 -.124383673010767D+03
 0.142789995609145D+03 -.252077427687187D+02 0.170162592610201D+02 -.619596600323752D+02
 0.105977350412389D+03 0.252077427687187D+02 -.170162592610201D+02 0.619596600323752D+02
 0.000000000000000D+00 0.000000000000000D+00 -.000000000000000D+00 -.000000000000000D+00
 0.126993565907840D+03 0.000000000000000D+00 0.000000000000000D+00 0.126993565907840D+03
 0.127633047363162D+03 0.000000000000000D+00 0.000000000000000D+00 -.127633047363162D+03
 0.143391002032227D+03 -.262893361666068D+02 0.201457389141673D+02 -.619596600323752D+02
 0.105442955400685D+03 0.244087001738869D+02 -.147043114002007D+02 0.619596600323752D+02
 0.579265583809077D+01 0.188063599271988D+01 -.544142751396660D+01 -.639481455322113D+00
0.273082469721D-03 0.000000000000D+00 0.000000000000D+00 0.211878812242D-02 0.000000000000D+00  5 -1 2 25 24 21 0 0.10159253D-02 0.36044438D+00 0.11515934D+05 0.11515934D+05 0.11515934D+05 0.12611253D+01  1  2  2  2  5  2        2 0.273851462946D+00 0.100000000000D+01
-.147692380288D-04 0.000000000000D+00 -.104870858799D-05 0.211878812242D-02 0.000000000000D+00  5 -1 2 25 24 21 2 0.10159253D-02 0.36044438D+00 0.11515934D+05 0.11515934D+05 0.11515934D+05 0.12611253D+01  1  2  3  2  5  2        2 -.235556882028D-01 0.100000000000D+01
0.186419254774D-04 0.000000000000D+00 0.000000000000D+00 0.211878812242D-02 0.000000000000D+00  5 -1 2 25 24 21 2 0.10159253D-02 0.36044438D+00 0.11515934D+05 0.11515934D+05 0.11515934D+05 0.12611253D+01  1  2 15  2  5  2        2 0.297322978469D-01 0.100000000000D+01
0.332373748666D-03 0.000000000000D+00 0.000000000000D+00 0.211878812242D-02 0.000000000000D+00  5 -1 2 25 24 21 2 0.10159253D-02 0.37355347D+00 0.12142836D+05 0.12142836D+05 0.12142836D+05 0.12584223D+01  1  2 12  2  5  2        2 0.476778784820D+00 0.100000000000D+01
-.557296690446D-03 0.000000000000D+00 0.000000000000D+00 0.211878812242D-02 0.000000000000D+00  5 -1 2 25 24 21 2 0.10159253D-02 0.36044438D+00 0.11515934D+05 0.11515934D+05 0.11515934D+05 0.12611253D+01  1  2  4  2  5  2        2 -.888841188081D+00 0.100000000000D+01
-.554100318366D-02 0.000000000000D+00 -.809952939058D-03 0.211878812242D-02 0.000000000000D+00  5 -1 2 25 24 21 2 0.10159253D-02 0.37325412D+00 0.11515934D+05 0.11515934D+05 0.11515934D+05 0.12611253D+01  1  2  5  2  5  2        2 -.799647110365D+01 0.100000000000D+01
0.556638729489D-02 0.000000000000D+00 0.809459307877D-03 0.211878812242D-02 0.000000000000D+00  5 -1 2 25 24 21 2 0.10159253D-02 0.36044438D+00 0.11515934D+05 0.11515934D+05 0.11515934D+05 0.12611253D+01  1  2  6  2  5  2        2 0.887791795883D+01 0.100000000000D+01
0.283426024681D-03 0.000000000000D+00 0.000000000000D+00 0.211878812242D-02 0.540271900763D-03  5 -1 2 25 24 21 2 0.10372421D-02 0.36986056D+00 0.12142836D+05 0.12142836D+05 0.12142836D+05 0.12584223D+01  1  2 11  2  5  2        2 0.406364434646D+00 0.100000000000D+01
0.514459862053D-05 0.000000000000D+00 0.000000000000D+00 0.211878812242D-02 0.000000000000D+00  5 -1 21 25 24 -2 2 0.10159253D-02 0.37355347D+00 0.12142836D+05 0.12142836D+05 0.12142836D+05 0.12584223D+01  1  2 12  4  5  2        2 0.180464863525D-02 0.100000000000D+01
-.340997646875D-04 0.000000000000D+00 -.503632466869D-05 0.211878812242D-02 0.000000000000D+00  5 -1 21 25 24 -2 2 0.10159253D-02 0.37325412D+00 0.11515934D+05 0.11515934D+05 0.11515934D+05 0.12611253D+01  1  2  5  4  5  2        2 -.121186326962D-01 0.100000000000D+01
0.228966410202D-05 0.000000000000D+00 0.000000000000D+00 0.211878812242D-02 0.253384184523D-05  5 -1 21 25 24 -2 2 0.10372421D-02 0.36986056D+00 0.12142836D+05 0.12142836D+05 0.12142836D+05 0.12584223D+01  1  2 11  4  5  2        2 0.819645255634D-03 0.100000000000D+01
  </mgrwgt>
  </event>
  <event>
  5     66 0.45252658E-03 0.11611321E+03 0.75467711E-02 0.12108526E+00
       -1 -1    0    0    0  502 0.00000000E+00 0.00000000E+00 0.21075176E+02 0.21077605E+02 0.32000000E+00 0.0000E+00 0.9000E+01
        2 -1    0    0  501    0 0.00000000E+00 0.00000000E+00 -.18338956E+04 0.18338956E+04 0.32000000E+00 0.0000E+00 0.9000E+01
       25  1    1    2    0    0 -.14227886E+02 0.24078830E+02 -.70303060E+03 0.71460426E+03 0.12500000E+03 0.0000E+00 0.9000E+01
       24  1    1    2    0    0 0.50145336E+02 -.53821399E+02 -.10789829E+04 0.10844734E+04 0.80419002E+02 0.0000E+00 0.9000E+01
       21  1    1    2  501  502 -.35917449E+02 0.29742570E+02 -.30806933E+02 0.55895557E+02 0.75000000E+00 0.0000E+00 0.9000E+01
#aMCatNLO 2  0  0  1  2 0.46633503D+02 0.00000000D+00  -5  5  0 0.00000000D+00 0.00000000D+00 0.00000000D+00 0.00000000D+00 0.00000000D+00
  <mgrwgt>
 0.4712680347D-01    2    2    0
 0.121381340928614D+03 0.000000000000000D+00 0.000000000000000D+00 0.121381340928614D+03
 0.121381340928614D+03 0.000000000000000D+00 0.000000000000000D+00 -.121381340928614D+03
 0.140242938550557D+03 -.342407691462681D+02 0.406511243747180D+02 0.349018284426249D+02
 0.102519743306671D+03 0.342407691462681D+02 -.406511243747180D+02 -.349018284426249D+02
 0.000000000000000D+00 -.000000000000000D+00 0.000000000000000D+00 0.000000000000000D+00
 0.305322544532120D+03 0.000000000000000D+00 0.000000000000000D+00 0.305322544532120D+03
 0.126592342732256D+03 0.000000000000000D+00 0.000000000000000D+00 -.126592342732256D+03
 0.132760537853811D+03 -.142278862931158D+02 0.240788295858614D+02 0.349018284426249D+02
 0.114440601542183D+03 0.501453357196562D+02 -.538213991260972D+02 -.349018284426249D+02
 0.184713747868381D+03 -.359174494265404D+02 0.297425695402358D+02 0.178730201799864D+03
-.584239834377D-03 0.000000000000D+00 0.000000000000D+00 0.255973722408D-02 0.000000000000D+00  5 -1 2 25 24 21 2 0.32237569D-02 0.27052255D+00 0.20123235D+05 0.20123235D+05 0.20123235D+05 0.12335325D+01  1  2 13  1  5  1       -1 -.339890184117D+00 0.100000000000D+01
0.733324740463D-03 0.000000000000D+00 0.000000000000D+00 0.255973722408D-02 0.135251006038D-04  5 -1 2 25 24 21 2 0.32425047D-02 0.28213631D+00 0.20123235D+05 0.20123235D+05 0.20123235D+05 0.12335325D+01  1  2  1  1  5  1       -1 0.387016987589D+00 0.100000000000D+01
  </mgrwgt>
  </event>
  <event>
  4     66 0.45252658E-03 0.16645728E+03 0.75467711E-02 0.10766986E+00
       -1 -1    0    0    0  501 0.00000000E+00 0.00000000E+00 0.15283659E+03 0.15283692E+03 0.32000000E+00 0.0000E+00 0.9000E+01
        2 -1    0    0  501    0 0.00000000E+00 0.00000000E+00 -.28361610E+03 0.28361628E+03 0.32000000E+00 0.0000E+00 0.9000E+01
       25  1    1    2    0    0 -.11659219E+02 -.12928709E+03 0.61949074E+02 0.19056174E+03 0.12500000E+03 0.0000E+00 0.9000E+01
       24  1    1    2    0    0 0.11659219E+02 0.12928709E+03 -.19272859E+03 0.24589147E+03 0.80419002E+02 0.0000E+00 0.9000E+01
#aMCatNLO 1  0  0  2  2 0.23239410D+03 0.00000000D+00  -5  5  0 0.00000000D+00 0.00000000D+00 0.00000000D+00 0.00000000D+00 0.00000000D+00
  <mgrwgt>
 0.2910792946D+00    5    2    0
 0.208199496295381D+03 0.000000000000000D+00 0.000000000000000D+00 0.208199496295381D+03
 0.208199496295381D+03 0.000000000000000D+00 0.000000000000000D+00 -.208199496295381D+03
 0.219195901436339D+03 -.116592185281266D+02 -.129287089565766D+03 0.124782828551913D+03
 0.197203091154423D+03 0.116592185281266D+02 0.129287089565766D+03 -.124782828551913D+03
 0.000000000000000D+00 0.000000000000000D+00 -.000000000000000D+00 -.000000000000000D+00
 0.282523607882206D+03 0.000000000000000D+00 0.000000000000000D+00 0.282523607882206D+03
 0.544635287457249D+03 0.000000000000000D+00 0.000000000000000D+00 -.544635287457249D+03
 0.197721503118150D+03 -.776587644614503D+02 -.432105866218638D+02 0.124782828551913D+03
 0.279138161358041D+03 -.637473392977040D+02 0.227632202473693D+03 -.124782828551913D+03
 0.350299230863264D+03 0.141406103759154D+03 -.184421615851829D+03 -.262111679575043D+03
0.147395923651D-02 0.000000000000D+00 0.000000000000D+00 0.140625374638D-02 0.000000000000D+00  5 -1 2 25 24 21 0 0.23513361D-01 0.43633286D-01 0.27708026D+05 0.27708026D+05 0.27708026D+05 0.12185377D+01  1  2  2  2  5  2        2 0.296656922807D+00 0.100000000000D+01
-.769017777639D-04 0.000000000000D+00 -.566039157056D-05 0.140625374638D-02 0.000000000000D+00  5 -1 2 25 24 21 2 0.23513361D-01 0.43633286D-01 0.27708026D+05 0.27708026D+05 0.27708026D+05 0.12185377D+01  1  2  3  2  5  2        2 -.229817633062D-01 0.100000000000D+01
0.100759134721D-03 0.000000000000D+00 0.000000000000D+00 0.140625374638D-02 0.000000000000D+00  5 -1 2 25 24 21 2 0.23513361D-01 0.43633286D-01 0.27708026D+05 0.27708026D+05 0.27708026D+05 0.12185377D+01  1  2 15  2  5  2        2 0.301114311324D-01 0.100000000000D+01
-.164015372300D-03 0.000000000000D+00 -.575601642974D-03 0.140625374638D-02 0.000000000000D+00  5 -1 2 25 24 21 2 0.23513361D-01 0.14147848D+00 0.27708026D+05 0.27708026D+05 0.27708026D+05 0.12185377D+01  1  2  5  2  5  2        2 -.128354312783D-01 0.100000000000D+01
0.173836146725D-05 0.000000000000D+00 -.781646549293D-04 0.140625374638D-02 0.000000000000D+00  5 -1 21 25 24 -2 2 0.23513361D-01 0.14147848D+00 0.27708026D+05 0.27708026D+05 0.27708026D+05 0.12185377D+01  1  2  5  4  5  2        2 0.128135237838D-03 0.100000000000D+01
  </mgrwgt>
  </event>
  <event>
  5     66 -.45252658E-03 0.14644989E+03 0.75467711E-02 0.11992650E+00
       -1 -1    0    0    0  502 0.00000000E+00 0.00000000E+00 0.99147491E+01 0.99199118E+01 0.32000000E+00 0.0000E+00 0.9000E+01
        2 -1    0    0  501    0 0.00000000E+00 0.00000000E+00 -.28054695E+04 0.28054695E+04 0.32000000E+00 0.0000E+00 0.9000E+01
       25  1    1    2    0    0 -.97822137E+02 -.13360176E+02 -.88515360E+03 0.89937176E+03 0.12500000E+03 0.0000E+00 0.9000E+01
       24  1    1    2    0    0 0.10552169E+03 0.17700093E+02 -.18624199E+04 0.18672234E+04 0.80419002E+02 0.0000E+00 0.9000E+01
       21  1    1    2  501  502 -.76995542E+01 -.43399168E+01 -.47981187E+02 0.48794209E+02 0.75000000E+00 0.0000E+00 0.9000E+01
#aMCatNLO 2  0  0  1  2 0.88384395D+01 0.00000000D+00  -5  5  0 0.00000000D+00 0.00000000D+00 0.00000000D+00 0.00000000D+00 0.00000000D+00
  <mgrwgt>
 -.1206883987D+00    3    2    0
 0.161872256556435D+03 0.000000000000000D+00 0.000000000000000D+00 0.161872256556435D+03
 0.161872256556435D+03 0.000000000000000D+00 0.000000000000000D+00 -.161872256556435D+03
 0.176015792083223D+03 -.101976949754369D+03 -.157020707053393D+02 0.686345813496664D+02
 0.147728721029646D+03 0.101976949754369D+03 0.157020707053393D+02 -.686345813496664D+02
 0.000000000000000D+00 -.000000000000000D+00 -.000000000000000D+00 0.000000000000000D+00
 0.168839199282029D+03 0.000000000000000D+00 0.000000000000000D+00 0.168839199282029D+03
 0.164760214858378D+03 0.000000000000000D+00 0.000000000000000D+00 -.164760214858378D+03
 0.173445583888366D+03 -.978221370541648D+02 -.133601764766941D+02 0.686345813496664D+02
 0.150419554376892D+03 0.105521691251935D+03 0.177000933008660D+02 -.686345813496664D+02
 0.973427587514965D+01 -.769955419777048D+01 -.433991682417195D+01 0.407898442365066D+01
-.156924873880D-02 0.000000000000D+00 0.000000000000D+00 0.193876069962D-02 0.000000000000D+00  5 -1 2 25 24 21 2 0.15382543D-02 0.42400884D+00 0.22797167D+05 0.22797167D+05 0.22797167D+05 0.12276159D+01  1  2 13  1  5  1       -1 -.789190723106D+00 0.100000000000D+01
-.785344952428D-03 0.000000000000D+00 0.000000000000D+00 0.193876069962D-02 0.000000000000D+00  5 -1 2 25 24 21 2 0.14626594D-02 0.42400884D+00 0.21447572D+05 0.21447572D+05 0.21447572D+05 0.12304989D+01  1  2  8  1  5  1       -1 -.426801862781D+00 0.100000000000D+01
0.229269930114D-02 0.000000000000D+00 0.000000000000D+00 0.193876069962D-02 0.199583249767D-03  5 -1 2 25 24 21 2 0.15256119D-02 0.43157357D+00 0.22797167D+05 0.22797167D+05 0.22797167D+05 0.12276159D+01  1  2  1  1  5  1       -1 0.109530418719D+01 0.100000000000D+01
  </mgrwgt>
  </event>
  <event>
  4     66 0.45252658E-03 0.44229543E+02 0.75467711E-02 0.12074448E+00
       -1 -1    0    0    0  501 0.00000000E+00 0.00000000E+00 0.26787465E+02 0.26789376E+02 0.32000000E+00 0.0000E+00 0.9000E+01
        2 -1    0    0  501    0 0.00000000E+00 0.00000000E+00 -.51873189E+03 0.51873199E+03 0.32000000E+00 0.0000E+00 0.9000E+01
       25  1    1    2    0    0 0.10884956E+02 -.45032050E+02 -.21042883E+03 0.24910171E+03 0.12500000E+03 0.0000E+00 0.9000E+01
       24  1    1    2    0    0 -.10884956E+02 0.45032050E+02 -.28151559E+03 0.29641965E+03 0.80419002E+02 0.0000E+00 0.9000E+01
#aMCatNLO 1  0  0  2  1 0.55849716D+02 0.00000000D+00  -5  5  0 0.00000000D+00 0.00000000D+00 0.00000000D+00 0.00000000D+00 0.00000000D+00
  <mgrwgt>
 0.3668870680D+00    9    2    0
 0.117881552903594D+03 0.000000000000000D+00 0.000000000000000D+00 0.117881552903594D+03
 0.117881552903594D+03 0.000000000000000D+00 0.000000000000000D+00 -.117881552903594D+03
 0.137303132913485D+03 0.108849561809168D+02 -.450320500199923D+02 0.328752567715374D+02
 0.984599728937024D+02 -.108849561809168D+02 0.450320500199923D+02 -.328752567715374D+02
 0.000000000000000D+00 -.000000000000000D+00 -.000000000000000D+00 -.000000000000000D+00
 0.138446446564001D+03 0.000000000000000D+00 0.000000000000000D+00 0.138446446564001D+03
 0.166212481752905D+03 0.000000000000000D+00 0.000000000000000D+00 -.166212481752905D+03
 0.134129789953047D+03 0.299526037418317D+02 -.196941507595224D+02 0.328752567715374D+02
 0.108158123236518D+03 0.362957284198851D+01 0.643195721446091D+02 -.328752567715374D+02
 0.623710151273402D+02 -.335821765838202D+02 -.446254213850867D+02 -.277660351889041D+02
0.204584915724D-03 0.000000000000D+00 0.000000000000D+00 0.263613768611D-02 0.000000000000D+00  5 -1 2 25 24 21 0 0.41213031D-02 0.79805060D-01 0.12782415D+05 0.12782415D+05 0.12782415D+05 0.12558218D+01  1  2  2  2  5  2        2 0.304891797942D+00 0.100000000000D+01
-.113417207639D-04 0.000000000000D+00 -.785659944825D-06 0.263613768611D-02 0.000000000000D+00  5 -1 2 25 24 21 2 0.41213031D-02 0.79805060D-01 0.12782415D+05 0.12782415D+05 0.12782415D+05 0.12558218D+01  1  2  3  2  5  2        2 -.266567450575D-01 0.100000000000D+01
0.141218431180D-04 0.000000000000D+00 0.000000000000D+00 0.263613768611D-02 0.000000000000D+00  5 -1 2 25 24 21 2 0.41213031D-02 0.79805060D-01 0.12782415D+05 0.12782415D+05 0.12782415D+05 0.12558218D+01  1  2 15  2  5  2        2 0.331909398560D-01 0.100000000000D+01
0.934990927083D-04 0.000000000000D+00 0.000000000000D+00 0.263613768611D-02 0.000000000000D+00  5 -1 2 25 24 21 2 0.41213031D-02 0.11720908D+00 0.20869991D+05 0.20869991D+05 0.20869991D+05 0.12317954D+01  1  2 12  2  5  2        2 0.138123677692D+00 0.100000000000D+01
-.142907876745D-03 0.000000000000D+00 0.000000000000D+00 0.263613768611D-02 0.000000000000D+00  5 -1 2 25 24 21 2 0.41213031D-02 0.79805060D-01 0.12782415D+05 0.12782415D+05 0.12782415D+05 0.12558218D+01  1  2  4  2  5  2        2 -.335880146973D+00 0.100000000000D+01
-.201214038913D-03 0.000000000000D+00 -.898130882954D-04 0.263613768611D-02 0.000000000000D+00  5 -1 2 25 24 21 2 0.41213031D-02 0.12657516D+00 0.12782415D+05 0.12782415D+05 0.12782415D+05 0.12558218D+01  1  2  5  2  5  2        2 -.276938739792D+00 0.100000000000D+01
0.226852311878D-03 0.000000000000D+00 0.810386408613D-04 0.263613768611D-02 0.000000000000D+00  5 -1 2 25 24 21 2 0.41213031D-02 0.79805060D-01 0.12782415D+05 0.12782415D+05 0.12782415D+05 0.12558218D+01  1  2  6  2  5  2        2 0.533176964000D+00 0.100000000000D+01
0.432271348231D-05 0.000000000000D+00 0.000000000000D+00 0.263613768611D-02 0.000000000000D+00  5 -1 21 25 24 -2 2 0.41213031D-02 0.11720908D+00 0.20869991D+05 0.20869991D+05 0.20869991D+05 0.12317954D+01  1  2 12  4  5  2        2 0.766201692043D-02 0.100000000000D+01
-.697006666356D-05 0.000000000000D+00 -.475575836794D-05 0.263613768611D-02 0.000000000000D+00  5 -1 21 25 24 -2 2 0.41213031D-02 0.12657516D+00 0.12782415D+05 0.12782415D+05 0.12782415D+05 0.12558218D+01  1  2  5  4  5  2        2 -.106826965844D-01 0.100000000000D+01
  </mgrwgt>
  </event>
  <event>
  4     66 0.45252658E-03 0.15272892E+03 0.75467711E-02 0.98121439E-01
       -1 -1    0    0    0  501 0.00000000E+00 0.00000000E+00 0.10529000E+03 0.10529049E+03 0.32000000E+00 0.0000E+00 0.9000E+01
        2 -1    0    0  501    0 0.00000000E+00 0.00000000E+00 -.29180414E+03 0.29180431E+03 0.32000000E+00 0.0000E+00 0.9000E+01
       25  1    1    2    0    0 -.73886649E+01 0.11158016E+03 -.19727712E+03 0.25893626E+03 0.12500000E+03 0.0000E+00 0.9000E+01
       24  1    1    2    0    0 0.73886649E+01 -.11158016E+03 0.10762983E+02 0.13815854E+03 0.80419002E+02 0.0000E+00 0.9000E+01
#aMCatNLO 1  0  0  1  1 0.61271291D+03 0.00000000D+00  -5  5  0 0.00000000D+00 0.00000000D+00 0.00000000D+00 0.00000000D+00 0.00000000D+00
  <mgrwgt>
 0.4844075305D+00    3    2    0
 0.175283167543899D+03 0.000000000000000D+00 0.000000000000000D+00 0.175283167543899D+03
 0.175283167543899D+03 0.000000000000000D+00 0.000000000000000D+00 -.175283167543899D+03
 0.188344581503309D+03 -.738866488258754D+01 0.111580157511952D+03 -.856968929571966D+02
 0.162221753584490D+03 0.738866488258754D+01 -.111580157511952D+03 0.856968929571966D+02
 0.000000000000000D+00 0.000000000000000D+00 0.000000000000000D+00 -.000000000000000D+00
 0.547818359803348D+03 0.000000000000000D+00 0.000000000000000D+00 0.547818359803348D+03
 0.834602567840467D+03 0.000000000000000D+00 0.000000000000000D+00 -.834602567840467D+03
 0.230193379558970D+03 -.151804058211546D+03 -.835198326193755D+02 -.856968929571966D+02
 0.475720121704181D+03 -.212731456616065D+03 -.408954506202536D+03 0.856968929571966D+02
 0.676507426380664D+03 0.364535514827611D+03 0.492474338821912D+03 -.286784208037120D+03
0.133787701689D-02 0.000000000000D+00 0.000000000000D+00 0.174975371259D-02 0.000000000000D+00  5 -1 2 25 24 21 0 0.16198512D-01 0.44892995D-01 0.23326124D+05 0.23326124D+05 0.23326124D+05 0.12265377D+01  1  2  2  1  5  1       -1 0.474325699705D+00 0.100000000000D+01
-.726120157601D-04 0.000000000000D+00 -.513780001595D-05 0.174975371259D-02 0.000000000000D+00  5 -1 2 25 24 21 2 0.16198512D-01 0.44892995D-01 0.23326124D+05 0.23326124D+05 0.23326124D+05 0.12265377D+01  1  2  3  1  5  1       -1 -.387285058963D-01 0.100000000000D+01
0.915144246363D-04 0.000000000000D+00 0.000000000000D+00 0.174975371259D-02 0.000000000000D+00  5 -1 2 25 24 21 2 0.16198512D-01 0.44892995D-01 0.23326124D+05 0.23326124D+05 0.23326124D+05 0.12265377D+01  1  2 15  1  5  1       -1 0.488103366505D-01 0.100000000000D+01
  </mgrwgt>
  </event>
  <event>
  5     66 0.45252658E-03 0.12869084E+03 0.75467711E-02 0.12196955E+00
       21 -1    0    0  502  501 0.00000000E+00 0.00000000E+00 0.67059358E+02 0.67063552E+02 0.75000000E+00 0.0000E+00 0.9000E+01
        2 -1    0    0  501    0 0.00000000E+00 0.00000000E+00 -.52739903E+03 0.52739913E+03 0.32000000E+00 0.0000E+00 0.9000E+01
       25  1    1    2    0    0 0.26597397E+02 -.67608384E+02 -.85054483E+02 0.16774260E+03 0.12500000E+03 0.0000E+00 0.9000E+01
       24  1    1    2    0    0 -.39541416E+02 0.69062622E+02 -.99618317E+02 0.15074546E+03 0.80419002E+02 0.0000E+00 0.9000E+01
        1  1    1    2  502    0 0.12944019E+02 -.14542381E+01 -.27566687E+03 0.27597461E+03 0.32000000E+00 0.0000E+00 0.9000E+01
#aMCatNLO 2  0  0  1  1 0.13025453D+02 0.00000000D+00  -5  5  0 0.00000000D+00 0.00000000D+00 0.00000000D+00 0.00000000D+00 0.00000000D+00
  <mgrwgt>
 0.1270473945D+00    1    2    0
 0.129577139813940D+03 0.000000000000000D+00 0.000000000000000D+00 0.129577139813940D+03
 0.129577139813940D+03 0.000000000000000D+00 0.000000000000000D+00 -.129577139813940D+03
 0.147245734866237D+03 0.339000599270079D+02 -.684288252188199D+02 0.149862687956547D+02
 0.111908544761643D+03 -.339000599270079D+02 0.684288252188199D+02 -.149862687956547D+02
 0.000000000000000D+00 0.000000000000000D+00 -.000000000000000D+00 -.000000000000000D+00
 0.130038901026801D+03 0.000000000000000D+00 0.000000000000000D+00 0.130038901026801D+03
 0.271981830879016D+03 0.000000000000000D+00 0.000000000000000D+00 -.271981830879016D+03
 0.145354405877491D+03 0.265973967779353D+02 -.676083836533587D+02 0.149862687956547D+02
 0.114127005948530D+03 -.395414156774047D+02 0.690626217734051D+02 -.149862687956547D+02
 0.142539320079796D+03 0.129440188994694D+02 -.145423812004642D+01 -.141942929852216D+03
0.147118450577D-04 0.000000000000D+00 0.000000000000D+00 0.259574613737D-02 0.144595277091D-06  5 21 2 25 24 1 2 0.10317140D-01 0.81138530D-01 0.18325582D+05 0.18325582D+05 0.18325582D+05 0.12380285D+01  1  2  1  3  5  1       -1 0.127047394543D+00 0.100000000000D+01
  </mgrwgt>
  </event>
  <event>
  4     66 0.45252658E-03 0.71168398E+02 0.75467711E-02 0.10477683E+00
       -1 -1    0    0    0  501 0.00000000E+00 0.00000000E+00 0.76660315E+02 0.76660982E+02 0.32000000E+00 0.0000E+00 0.9000E+01
        2 -1    0    0  501    0 0.00000000E+00 0.00000000E+00 -.11135640E+04 0.11135641E+04 0.32000000E+00 0.0000E+00 0.9000E+01
       25  1    1    2    0    0 -.20556871E+03 0.14772178E+03 -.32562365E+03 0.43097097E+03 0.12500000E+03 0.0000E+00 0.9000E+01
       24  1    1    2    0    0 0.20556871E+03 -.14772178E+03 -.71128006E+03 0.75925408E+03 0.80419002E+02 0.0000E+00 0.9000E+01
#aMCatNLO 1  0  0  2  1 0.19563649D+03 0.00000000D+00  -5  5  0 0.00000000D+00 0.00000000D+00 0.00000000D+00 0.00000000D+00 0.00000000D+00
  <mgrwgt>
 0.3848532780D+00    7    2    0
 0.292175620398129D+03 0.000000000000000D+00 0.000000000000000D+00 0.292175620398129D+03
 0.292175620398129D+03 0.000000000000000D+00 0.000000000000000D+00 -.292175620398129D+03
 0.300011476135468D+03 -.205568705666493D+03 0.147721783834570D+03 0.101497131212256D+03
 0.284339764660789D+03 0.205568705666493D+03 -.147721783834570D+03 -.101497131212256D+03
 0.000000000000000D+00 0.000000000000000D+00 0.000000000000000D+00 -.000000000000000D+00
 0.319726504721935D+03 0.000000000000000D+00 0.000000000000000D+00 0.319726504721935D+03
 0.113217798412534D+04 0.000000000000000D+00 0.000000000000000D+00 -.113217798412534D+04
 0.293035144557099D+03 -.238165186902198D+03 0.567474409037345D+02 0.101497131212256D+03
 0.323195339168074D+03 0.172175872926188D+03 -.240918684296970D+03 -.101497131212256D+03
 0.835674005122105D+03 0.659893139760106D+02 0.184171243393235D+03 -.812451479403407D+03
0.324455171909D-02 0.000000000000D+00 0.000000000000D+00 0.177784867917D-02 0.000000000000D+00  5 -1 2 25 24 21 0 0.11793949D-01 0.17131760D+00 0.75056491D+05 0.75056491D+05 0.75056491D+05 0.11751954D+01  1  2  2  2  5  2        2 0.390380521188D+00 0.100000000000D+01
-.179345149094D-03 0.000000000000D+00 -.124599329114D-04 0.177784867917D-02 0.000000000000D+00  5 -1 2 25 24 21 2 0.11793949D-01 0.17131760D+00 0.75056491D+05 0.75056491D+05 0.75056491D+05 0.11751954D+01  1  2  3  2  5  2        2 -.298018496362D-01 0.100000000000D+01
0.222229966113D-03 0.000000000000D+00 0.000000000000D+00 0.177784867917D-02 0.000000000000D+00  5 -1 2 25 24 21 2 0.11793949D-01 0.17131760D+00 0.75056491D+05 0.75056491D+05 0.75056491D+05 0.11751954D+01  1  2 15  2  5  2        2 0.369280355126D-01 0.100000000000D+01
0.216584682567D-02 0.000000000000D+00 0.000000000000D+00 0.177784867917D-02 0.000000000000D+00  5 -1 2 25 24 21 2 0.11793949D-01 0.64243687D+00 0.15107884D+06 0.15107884D+06 0.15107884D+06 0.11474600D+01  1  2 12  2  5  2        2 0.470928955976D-02 0.100000000000D+01
-.100584507523D-01 0.000000000000D+00 -.119616722422D-02 0.177784867917D-02 0.000000000000D+00  5 -1 2 25 24 21 2 0.11793949D-01 0.66910920D+00 0.75056491D+05 0.75056491D+05 0.75056491D+05 0.11751954D+01  1  2  5  2  5  2        2 -.173085884581D-01 0.100000000000D+01
0.338580105064D-03 0.000000000000D+00 0.000000000000D+00 0.177784867917D-02 0.000000000000D+00  5 -1 21 25 24 -2 2 0.11793949D-01 0.64243687D+00 0.15107884D+06 0.15107884D+06 0.15107884D+06 0.11474600D+01  1  2 12  4  5  2        2 0.233894069679D-04 0.100000000000D+01
-.161163082118D-02 0.000000000000D+00 -.193870857174D-03 0.177784867917D-02 0.000000000000D+00  5 -1 21 25 24 -2 2 0.11793949D-01 0.66910920D+00 0.75056491D+05 0.75056491D+05 0.75056491D+05 0.11751954D+01  1  2  5  4  5  2        2 -.775195500273D-04 0.100000000000D+01
  </mgrwgt>
  </event>
  <event>
  4     66 0.45252658E-03 0.12733877E+03 0.75467711E-02 0.11182155E+00
       -1 -1    0    0    0  501 0.00000000E+00 0.00000000E+00 0.25535467E+03 0.25535487E+03 0.32000000E+00 0.0000E+00 0.9000E+01
        2 -1    0    0  501    0 0.00000000E+00 0.00000000E+00 -.63521422E+02 0.63522228E+02 0.32000000E+00 0.0000E+00 0.9000E+01
       25  1    1    2    0    0 0.73229691E+02 0.11389364E+02 0.10655092E+03 0.18019546E+03 0.12500000E+03 0.0000E+00 0.9000E+01
       24  1    1    2    0    0 -.73229691E+02 -.11389364E+02 0.85282330E+02 0.13868164E+03 0.80419002E+02 0.0000E+00 0.9000E+01
#aMCatNLO 1  0  0  1  1 0.17548422D+03 0.00000000D+00  -5  5  0 0.00000000D+00 0.00000000D+00 0.00000000D+00 0.00000000D+00 0.00000000D+00
  <mgrwgt>
 0.2898651914D+00    5    2    0
 0.127360324186976D+03 0.000000000000000D+00 0.000000000000000D+00 0.127360324186976D+03
 0.127360324186976D+03 0.000000000000000D+00 0.000000000000000D+00 -.127360324186976D+03
 0.145336456283235D+03 0.732296911944992D+02 0.113893643599302D+02 -.231953271233719D+01
 0.109384192090718D+03 -.732296911944992D+02 -.113893643599302D+02 0.231953271233719D+01
 0.000000000000000D+00 0.000000000000000D+00 0.000000000000000D+00 0.000000000000000D+00
 0.540859570098962D+03 0.000000000000000D+00 0.000000000000000D+00 0.540859570098962D+03
 0.174593145368450D+03 0.000000000000000D+00 0.000000000000000D+00 -.174593145368450D+03
 0.125660733775675D+03 -.109342298714954D+02 0.637827548439369D+01 -.231953271233719D+01
 0.183656774792107D+03 -.164239774363507D+03 -.168080712066830D+02 0.231953271233719D+01
 0.406135206899630D+03 0.175174004235003D+03 0.104297957222893D+02 0.366266424730512D+03
0.656518164190D-03 0.000000000000D+00 0.000000000000D+00 0.265815150433D-02 0.000000000000D+00  5 -1 2 25 24 21 0 0.39285411D-01 0.97726039D-02 0.16215163D+05 0.16215163D+05 0.16215163D+05 0.12439842D+01  1  2  2  1  5  1       -1 0.299909462420D+00 0.100000000000D+01
-.364732300736D-04 0.000000000000D+00 -.252120261569D-05 0.265815150433D-02 0.000000000000D+00  5 -1 2 25 24 21 2 0.39285411D-01 0.97726039D-02 0.16215163D+05 0.16215163D+05 0.16215163D+05 0.12439842D+01  1  2  3  1  5  1       -1 -.257838277590D-01 0.100000000000D+01
0.453845307543D-04 0.000000000000D+00 0.000000000000D+00 0.265815150433D-02 0.000000000000D+00  5 -1 2 25 24 21 2 0.39285411D-01 0.97726039D-02 0.16215163D+05 0.16215163D+05 0.16215163D+05 0.12439842D+01  1  2 15  1  5  1       -1 0.320834464490D-01 0.100000000000D+01
-.273979015166D-03 0.000000000000D+00 -.243166290746D-03 0.265815150433D-02 0.000000000000D+00  5 -1 2 25 24 21 2 0.19945015D+00 0.97726039D-02 0.16215163D+05 0.16215163D+05 0.16215163D+05 0.12439842D+01  1  2  5  1  5  1       -1 -.549152928976D-02 0.100000000000D+01
-.619153748147D-04 0.000000000000D+00 -.481919328981D-04 0.265815150433D-02 0.000000000000D+00  5 21 2 25 24 1 2 0.19945015D+00 0.97726039D-02 0.16215163D+05 0.16215163D+05 0.16215163D+05 0.12439842D+01  1  2  5  3  5  1       -1 -.108523604175D-01 0.100000000000D+01
  </mgrwgt>
  </event>
  <event>
  4     66 0.45252658E-03 0.10386665E+03 0.75467711E-02 0.12224443E+00
       -1 -1    0    0    0  501 0.00000000E+00 0.00000000E+00 0.28073894E+03 0.28073912E+03 0.32000000E+00 0.0000E+00 0.9000E+01
        2 -1    0    0  501    0 0.00000000E+00 0.00000000E+00 -.53467878E+02 0.53468835E+02 0.32000000E+00 0.0000E+00 0.9000E+01
       25  1    1    2    0    0 0.54218793E+02 -.26619796E+02 0.16615241E+03 0.21651770E+03 0.12500000E+03 0.0000E+00 0.9000E+01
       24  1    1    2    0    0 -.54218793E+02 0.26619796E+02 0.61118651E+02 0.11769026E+03 0.80419002E+02 0.0000E+00 0.9000E+01
#aMCatNLO 1  0  0  1  2 0.26070658D+02 0.00000000D+00  -5  5  0 0.00000000D+00 0.00000000D+00 0.00000000D+00 0.00000000D+00 0.00000000D+00
  <mgrwgt>
 0.3483780091D+00    9    2    0
 0.122518185570106D+03 0.000000000000000D+00 0.000000000000000D+00 0.122518185570106D+03
 0.122518185570106D+03 0.000000000000000D+00 0.000000000000000D+00 -.122518185570106D+03
 0.141204766674405D+03 0.542187931647057D+02 -.266197956934164D+02 0.257971912536405D+02
 0.103831604465807D+03 -.542187931647057D+02 0.266197956934164D+02 -.257971912536405D+02
 0.000000000000000D+00 0.000000000000000D+00 0.000000000000000D+00 0.000000000000000D+00
 0.149415912877411D+03 0.000000000000000D+00 0.000000000000000D+00 0.149415912877411D+03
 0.129693627969114D+03 0.000000000000000D+00 0.000000000000000D+00 -.129693627969114D+03
 0.143150065000869D+03 0.500973897018305D+02 -.411302513758316D+02 0.257971912536405D+02
 0.103269297866336D+03 -.572204878115229D+02 0.160515614651669D+02 -.257971912536405D+02
 0.326901779793199D+02 0.712309810969239D+01 0.250786899106647D+02 0.197222849082969D+02
0.506710237906D-03 0.000000000000D+00 0.000000000000D+00 0.263172000183D-02 0.000000000000D+00  5 -1 2 25 24 21 0 0.43190694D-01 0.82259150D-02 0.14328587D+05 0.14328587D+05 0.14328587D+05 0.12500962D+01  1  2  2  1  5  1       -1 0.241564806528D+00 0.100000000000D+01
-.281320613749D-04 0.000000000000D+00 -.194590073343D-05 0.263172000183D-02 0.000000000000D+00  5 -1 2 25 24 21 2 0.43190694D-01 0.82259150D-02 0.14328587D+05 0.14328587D+05 0.14328587D+05 0.12500962D+01  1  2  3  1  5  1       -1 -.209586056200D-01 0.100000000000D+01
0.349790420250D-04 0.000000000000D+00 0.000000000000D+00 0.263172000183D-02 0.000000000000D+00  5 -1 2 25 24 21 2 0.43190694D-01 0.82259150D-02 0.14328587D+05 0.14328587D+05 0.14328587D+05 0.12500962D+01  1  2 15  1  5  1       -1 0.260596597241D-01 0.100000000000D+01
0.646286151483D-03 0.000000000000D+00 0.000000000000D+00 0.263172000183D-02 0.000000000000D+00  5 -1 2 25 24 21 2 0.53735736D-01 0.82259150D-02 0.17805211D+05 0.17805211D+05 0.17805211D+05 0.12394228D+01  1  2 12  1  5  1       -1 0.320832000724D+00 0.100000000000D+01
-.659329816880D-03 0.000000000000D+00 0.000000000000D+00 0.263172000183D-02 0.000000000000D+00  5 -1 2 25 24 21 2 0.43190694D-01 0.82259150D-02 0.14328587D+05 0.14328587D+05 0.14328587D+05 0.12500962D+01  1  2  4  1  5  1       -1 -.491205867261D+00 0.100000000000D+01
-.116053262600D-02 0.000000000000D+00 -.270149041891D-03 0.263172000183D-02 0.000000000000D+00  5 -1 2 25 24 21 2 0.55163533D-01 0.82259150D-02 0.14328587D+05 0.14328587D+05 0.14328587D+05 0.12500962D+01  1  2  5  1  5  1       -1 -.554994577139D+00 0.100000000000D+01
0.119846788012D-02 0.000000000000D+00 0.262259474135D-03 0.263172000183D-02 0.000000000000D+00  5 -1 2 25 24 21 2 0.43190694D-01 0.82259150D-02 0.14328587D+05 0.14328587D+05 0.14328587D+05 0.12500962D+01  1  2  6  1  5  1       -1 0.892867938579D+00 0.100000000000D+01
0.197789325497D-04 0.000000000000D+00 0.000000000000D+00 0.263172000183D-02 0.000000000000D+00  5 21 2 25 24 1 2 0.53735736D-01 0.82259150D-02 0.17805211D+05 0.17805211D+05 0.17805211D+05 0.12394228D+01  1  2 12  3  5  1       -1 0.984898150120D-01 0.100000000000D+01
-.342864084385D-04 0.000000000000D+00 -.899847072064D-05 0.263172000183D-02 0.000000000000D+00  5 21 2 25 24 1 2 0.55163533D-01 0.82259150D-02 0.14328587D+05 0.14328587D+05 0.14328587D+05 0.12500962D+01  1  2  5  3  5  1       -1 -.164277161469D+00 0.100000000000D+01
  </mgrwgt>
  </event>
  <event>
  5     66 0.45252658E-03 0.16095693E+03 0.75467711E-02 0.11383214E+00
       -1 -1    0    0    0  501 0.00000000E+00 0.00000000E+00 0.10744392E+03 0.10744440E+03 0.32000000E+00 0.0000E+00 0.9000E+01
        2 -1    0    0  502    0 0.00000000E+00 0.00000000E+00 -.50666309E+03 0.50666319E+03 0.32000000E+00 0.0000E+00 0.9000E+01
       25  1    1    2    0    0 0.74985784E+02 -.14219322E+03 -.76130997E+02 0.21739988E+03 0.12500000E+03 0.0000E+00 0.9000E+01
       24  1    1    2    0    0 -.90181659E+02 0.49239753E+02 -.22907136E+03 0.26362509E+03 0.80419002E+02 0.0000E+00 0.9000E+01
       21  1    1    2  502  501 0.15195875E+02 0.92953463E+02 -.94016810E+02 0.13308262E+03 0.75000000E+00 0.0000E+00 0.9000E+01
#aMCatNLO 2  0  0  2  2 0.94187371D+02 0.00000000D+00  -5  5  0 0.00000000D+00 0.00000000D+00 0.00000000D+00 0.00000000D+00 0.00000000D+00
  <mgrwgt>
 0.1218542085D+00    1    2    0
 0.179836927388169D+03 0.000000000000000D+00 0.000000000000000D+00 0.179836927388169D+03
 0.179836927388169D+03 0.000000000000000D+00 0.000000000000000D+00 -.179836927388169D+03
 0.192567605367701D+03 0.835310433273827D+02 -.899216982345914D+02 0.799620886689237D+02
 0.167106249408636D+03 -.835310433273827D+02 0.899216982345914D+02 -.799620886689237D+02
 0.000000000000000D+00 0.000000000000000D+00 0.000000000000000D+00 -.000000000000000D+00
 0.227204517745006D+03 0.000000000000000D+00 0.000000000000000D+00 0.227204517745006D+03
 0.239596267664490D+03 0.000000000000000D+00 0.000000000000000D+00 -.239596267664490D+03
 0.218770917020198D+03 0.749857842384852D+02 -.142193215983397D+03 0.799620886689237D+02
 0.153030834874909D+03 -.901816587700748D+02 0.492397528966400D+02 -.799620886689237D+02
 0.949990335143888D+02 0.151958745315896D+02 0.929534630867570D+02 -.123917499194846D+02
0.446043778210D-03 0.000000000000D+00 0.000000000000D+00 0.181933000113D-02 0.166767476404D-05  5 -1 2 25 24 21 2 0.16529774D-01 0.77947716D-01 0.45860067D+05 0.45860067D+05 0.45860067D+05 0.11960171D+01  1  2  1  2  5  2        2 0.121854208499D+00 0.100000000000D+01
  </mgrwgt>
  </event>
  <event>
  4     66 0.45252658E-03 0.32187572E+03 0.75467711E-02 0.10015571E+00
       -1 -1    0    0    0  501 0.00000000E+00 0.00000000E+00 0.11039840E+03 0.11039886E+03 0.32000000E+00 0.0000E+00 0.9000E+01
        2 -1    0    0  501    0 0.00000000E+00 0.00000000E+00 -.99650413E+03 0.99650418E+03 0.32000000E+00 0.0000E+00 0.9000E+01
       25  1    1    2    0    0 -.30254849E+03 0.32754708E+02 -.58582361E+03 0.67188002E+03 0.12500000E+03 0.0000E+00 0.9000E+01
       24  1    1    2    0    0 0.30254849E+03 -.32754708E+02 -.30028212E+03 0.43502302E+03 0.80419002E+02 0.0000E+00 0.9000E+01
#aMCatNLO 1  0  0  1  2 0.36389162D+03 0.00000000D+00  -5  5  0 0.00000000D+00 0.00000000D+00 0.00000000D+00 0.00000000D+00 0.00000000D+00
  <mgrwgt>
 0.3529632699D+00    5    2    0
 0.331681693812652D+03 0.000000000000000D+00 0.000000000000000D+00 0.331681693812652D+03
 0.331681693812652D+03 0.000000000000000D+00 0.000000000000000D+00 -.331681693812652D+03
 0.338584233368243D+03 -.302548494101893D+03 0.327547081641227D+02 -.800363723273426D+02
 0.324779154257061D+03 0.302548494101893D+03 -.327547081641227D+02 0.800363723273426D+02
 0.000000000000000D+00 -.000000000000000D+00 0.000000000000000D+00 0.000000000000000D+00
 0.196845771061277D+04 0.000000000000000D+00 0.000000000000000D+00 0.196845771061277D+04
 0.399126447379236D+03 0.000000000000000D+00 0.000000000000000D+00 -.399126447379236D+03
 0.220383253633195D+03 -.162902527743734D+03 0.850906183950457D+00 -.800363723273426D+02
 0.536232958584756D+03 0.517653793318636D+03 -.818981030653084D+02 0.800363723273426D+02
 0.161096794577405D+04 -.354751265574902D+03 0.810471968813579D+02 0.156933126323353D+04
0.613182843721D-02 0.000000000000D+00 0.000000000000D+00 0.187433381448D-02 0.000000000000D+00  5 -1 2 25 24 21 0 0.16984409D-01 0.15330837D+00 0.10360398D+06 0.10360398D+06 0.10360398D+06 0.11621618D+01  1  2  2  1  5  1       -1 0.484794232340D+00 0.100000000000D+01
-.340284110082D-03 0.000000000000D+00 -.235478357464D-04 0.187433381448D-02 0.000000000000D+00  5 -1 2 25 24 21 2 0.16984409D-01 0.15330837D+00 0.10360398D+06 0.10360398D+06 0.10360398D+06 0.11621618D+01  1  2  3  1  5  1       -1 -.363364333574D-01 0.100000000000D+01
0.420595241749D-03 0.000000000000D+00 0.000000000000D+00 0.187433381448D-02 0.000000000000D+00  5 -1 2 25 24 21 2 0.16984409D-01 0.15330837D+00 0.10360398D+06 0.10360398D+06 0.10360398D+06 0.11621618D+01  1  2 15  1  5  1       -1 0.449122674830D-01 0.100000000000D+01
-.147407285309D-01 0.000000000000D+00 -.282204154462D-02 0.187433381448D-02 0.000000000000D+00  5 -1 2 25 24 21 2 0.11242801D+00 0.15330837D+00 0.10360398D+06 0.10360398D+06 0.10360398D+06 0.11621618D+01  1  2  5  1  5  1       -1 -.461642698353D-01 0.100000000000D+01
-.364604996765D-02 0.000000000000D+00 -.653056990834D-03 0.187433381448D-02 0.000000000000D+00  5 21 2 25 24 1 2 0.11242801D+00 0.15330837D+00 0.10360398D+06 0.10360398D+06 0.10360398D+06 0.11621618D+01  1  2  5  3  5  1       -1 -.942425267512D-01 0.100000000000D+01
  </mgrwgt>
  </event>
  <event>
  4     66 0.45252658E-03 0.42468724E+02 0.75467711E-02 0.12328833E+00
       -1 -1    0    0    0  501 0.00000000E+00 0.00000000E+00 0.91584591E+02 0.91585150E+02 0.32000000E+00 0.0000E+00 0.9000E+01
        2 -1    0    0  501    0 0.00000000E+00 0.00000000E+00 -.14035279E+03 0.14035315E+03 0.32000000E+00 0.0000E+00 0.9000E+01
       25  1    1    2    0    0 0.33649931E+02 -.30632191E+02 -.41055564E+02 0.13921641E+03 0.12500000E+03 0.0000E+00 0.9000E+01
       24  1    1    2    0    0 -.33649931E+02 0.30632191E+02 -.77126317E+01 0.92721894E+02 0.80419002E+02 0.0000E+00 0.9000E+01
#aMCatNLO 1  0  0  2  1 0.25913112D+02 0.00000000D+00  -5  5  0 0.00000000D+00 0.00000000D+00 0.00000000D+00 0.00000000D+00 0.00000000D+00
  <mgrwgt>
 0.3715083737D+00    9    2    0
 0.113376628077306D+03 0.000000000000000D+00 0.000000000000000D+00 0.113376628077306D+03
 0.113376628077306D+03 0.000000000000000D+00 0.000000000000000D+00 -.113376628077306D+03
 0.133569908211253D+03 0.336499310826684D+02 -.306321911508549D+02 -.120528578765289D+02
 0.931833479433594D+02 -.336499310826684D+02 0.306321911508549D+02 0.120528578765289D+02
 0.000000000000000D+00 0.000000000000000D+00 0.000000000000000D+00 -.000000000000000D+00
 0.125287502038628D+03 0.000000000000000D+00 0.000000000000000D+00 0.125287502038628D+03
 0.129139453410705D+03 0.000000000000000D+00 0.000000000000000D+00 -.129139453410705D+03
 0.135531441697351D+03 0.259431261481717D+02 -.438800012674417D+02 -.120528578765289D+02
 0.926976724337790D+02 -.389733854821293D+02 0.214813025987533D+02 0.120528578765289D+02
 0.261978413182028D+02 0.130302593339576D+02 0.223986986686884D+02 -.385195137207677D+01
0.224058973774D-03 0.000000000000D+00 0.000000000000D+00 0.289697428158D-02 0.000000000000D+00  5 -1 2 25 24 21 0 0.14090008D-01 0.21592808D-01 0.12704171D+05 0.12704171D+05 0.12704171D+05 0.12561320D+01  1  2  2  2  5  2        2 0.214157651563D+00 0.100000000000D+01
-.124471988384D-04 0.000000000000D+00 -.860445455376D-06 0.289697428158D-02 0.000000000000D+00  5 -1 2 25 24 21 2 0.14090008D-01 0.21592808D-01 0.12704171D+05 0.12704171D+05 0.12704171D+05 0.12561320D+01  1  2  3  2  5  2        2 -.187721246732D-01 0.100000000000D+01
0.154508389610D-04 0.000000000000D+00 0.000000000000D+00 0.289697428158D-02 0.000000000000D+00  5 -1 2 25 24 21 2 0.14090008D-01 0.21592808D-01 0.12704171D+05 0.12704171D+05 0.12704171D+05 0.12561320D+01  1  2 15  2  5  2        2 0.233020359879D-01 0.100000000000D+01
0.236613523912D-03 0.000000000000D+00 0.000000000000D+00 0.289697428158D-02 0.000000000000D+00  5 -1 2 25 24 21 2 0.14090008D-01 0.25592912D-01 0.15979275D+05 0.15979275D+05 0.15979275D+05 0.12447035D+01  1  2 12  2  5  2        2 0.292891632716D+00 0.100000000000D+01
-.211099106362D-03 0.000000000000D+00 0.000000000000D+00 0.289697428158D-02 0.000000000000D+00  5 -1 2 25 24 21 2 0.14090008D-01 0.21592808D-01 0.12704171D+05 0.12704171D+05 0.12704171D+05 0.12561320D+01  1  2  4  2  5  2        2 -.318367111706D+00 0.100000000000D+01
-.605010373521D-03 0.000000000000D+00 -.177689229277D-03 0.289697428158D-02 0.000000000000D+00  5 -1 2 25 24 21 2 0.14090008D-01 0.27031869D-01 0.12704171D+05 0.12704171D+05 0.12704171D+05 0.12561320D+01  1  2  5  2  5  2        2 -.712498074796D+00 0.100000000000D+01
0.633272891081D-03 0.000000000000D+00 0.173297603264D-03 0.289697428158D-02 0.000000000000D+00  5 -1 2 25 24 21 2 0.14090008D-01 0.21592808D-01 0.12704171D+05 0.12704171D+05 0.12704171D+05 0.12561320D+01  1  2  6  2  5  2        2 0.955064494255D+00 0.100000000000D+01
0.596477077735D-05 0.000000000000D+00 0.000000000000D+00 0.289697428158D-02 0.000000000000D+00  5 -1 21 25 24 -2 2 0.14090008D-01 0.25592912D-01 0.15979275D+05 0.15979275D+05 0.15979275D+05 0.12447035D+01  1  2 12  4  5  2        2 0.423407586574D-01 0.100000000000D+01
-.164163549828D-04 0.000000000000D+00 -.555381921365D-05 0.289697428158D-02 0.000000000000D+00  5 -1 21 25 24 -2 2 0.14090008D-01 0.27031869D-01 0.12704171D+05 0.12704171D+05 0.12704171D+05 0.12561320D+01  1  2  5  4  5  2        2 -.106610888321D+00 0.100000000000D+01
  </mgrwgt>
  </event>
  <event>
  4     66 0.45252658E-03 0.11976959E+03 0.75467711E-02 0.12290926E+00
       -1 -1    0    0    0  501 0.00000000E+00 0.00000000E+00 0.84544174E+01 0.84604712E+01 0.32000000E+00 0.0000E+00 0.9000E+01
        2 -1    0    0  501    0 0.00000000E+00 0.00000000E+00 -.22794757E+04 0.22794757E+04 0.32000000E+00 0.0000E+00 0.9000E+01
       25  1    1    2    0    0 0.37745427E+02 0.47321544E+02 -.18435687E+04 0.18487927E+04 0.12500000E+03 0.0000E+00 0.9000E+01
       24  1    1    2    0    0 -.37745427E+02 -.47321544E+02 -.42745257E+03 0.43914344E+03 0.80419002E+02 0.0000E+00 0.9000E+01
#aMCatNLO 1  0  0  1  1 0.17986413D+02 0.00000000D+00  -5  5  0 0.00000000D+00 0.00000000D+00 0.00000000D+00 0.00000000D+00 0.00000000D+00
  <mgrwgt>
 0.2466634179D+00    4    2    0
 0.138847361554422D+03 0.000000000000000D+00 0.000000000000000D+00 0.138847361554422D+03
 0.138847361554422D+03 0.000000000000000D+00 0.000000000000000D+00 -.138847361554422D+03
 0.155336302977410D+03 0.377454271382304D+02 0.473215435089719D+02 -.695724174710842D+02
 0.122358420131433D+03 -.377454271382304D+02 -.473215435089719D+02 0.695724174710842D+02
 0.000000000000000D+00 -.000000000000000D+00 -.000000000000000D+00 -.000000000000000D+00
 0.143984933102027D+03 0.000000000000000D+00 0.000000000000000D+00 0.143984933102027D+03
 0.155825727838153D+03 0.000000000000000D+00 0.000000000000000D+00 -.155825727838153D+03
 0.159297183174245D+03 0.406510322314255D+02 0.570768330673461D+02 -.695724174710842D+02
 0.118979424323036D+03 -.355166991073887D+02 -.398388035665603D+02 0.695724174710842D+02
 0.215340534428989D+02 -.513433312403680D+01 -.172380295007859D+02 -.118407947361264D+02
0.526971816871D-03 0.000000000000D+00 0.000000000000D+00 0.194568701634D-02 0.000000000000D+00  5 -1 2 25 24 21 0 0.13011470D-02 0.35068903D+00 0.14344754D+05 0.14344754D+05 0.14344754D+05 0.12500400D+01  1  2  2  1  5  1       -1 0.402065370488D+00 0.100000000000D+01
-.284985748546D-04 0.000000000000D+00 -.202371053165D-05 0.194568701634D-02 0.000000000000D+00  5 -1 2 25 24 21 2 0.13011470D-02 0.35068903D+00 0.14344754D+05 0.14344754D+05 0.14344754D+05 0.12500400D+01  1  2  3  1  5  1       -1 -.339766267484D-01 0.100000000000D+01
0.358724586941D-04 0.000000000000D+00 0.000000000000D+00 0.194568701634D-02 0.000000000000D+00  5 -1 2 25 24 21 2 0.13011470D-02 0.35068903D+00 0.14344754D+05 0.14344754D+05 0.14344754D+05 0.12500400D+01  1  2 15  1  5  1       -1 0.427679329866D-01 0.100000000000D+01
-.137720377956D-03 0.000000000000D+00 0.000000000000D+00 0.194568701634D-02 0.000000000000D+00  5 -1 2 25 24 21 2 0.13011470D-02 0.35068903D+00 0.14344754D+05 0.14344754D+05 0.14344754D+05 0.12500400D+01  1  2  4  1  5  1       -1 -.164193258832D+00 0.100000000000D+01
  </mgrwgt>
  </event>
  <event>
  4     66 0.45252658E-03 0.14277731E+03 0.75467711E-02 0.10985886E+00
       -1 -1    0    0    0  501 0.00000000E+00 0.00000000E+00 0.22442794E+02 0.22445075E+02 0.32000000E+00 0.0000E+00 0.9000E+01
        2 -1    0    0  501    0 0.00000000E+00 0.00000000E+00 -.90950974E+03 0.90950979E+03 0.32000000E+00 0.0000E+00 0.9000E+01
       25  1    1    2    0    0 -.83863766E+02 0.50628501E+02 -.51032543E+03 0.53446555E+03 0.12500000E+03 0.0000E+00 0.9000E+01
       24  1    1    2    0    0 0.83863766E+02 -.50628501E+02 -.37674151E+03 0.39748932E+03 0.80419002E+02 0.0000E+00 0.9000E+01
#aMCatNLO 1  0  0  1  1 0.20057036D+03 0.00000000D+00  -5  5  0 0.00000000D+00 0.00000000D+00 0.00000000D+00 0.00000000D+00 0.00000000D+00
  <mgrwgt>
 0.3456377853D+00    5    2    0
 0.142874170231486D+03 0.000000000000000D+00 0.000000000000000D+00 0.142874170231486D+03
 0.142874170231486D+03 0.000000000000000D+00 0.000000000000000D+00 -.142874170231486D+03
 0.158898382359528D+03 -.838637663444805D+02 0.506285014383936D+02 -.522680142110939D+01
 0.126849958103443D+03 0.838637663444805D+02 -.506285014383936D+02 0.522680142110939D+01
 0.000000000000000D+00 0.000000000000000D+00 0.000000000000000D+00 0.000000000000000D+00
 0.482111218056967D+03 0.000000000000000D+00 0.000000000000000D+00 0.482111218056967D+03
 0.207257304805373D+03 0.000000000000000D+00 0.000000000000000D+00 -.207257304805373D+03
 0.230408388299662D+03 -.193410819208280D+03 -.528781230134047D+01 -.522680142110939D+01
 0.118705608639498D+03 0.147668723823200D+02 -.858977624566064D+02 0.522680142110939D+01
 0.340254525923181D+03 0.178643946825960D+03 0.911855747579468D+02 0.274853913251594D+03
0.346837030549D-03 0.000000000000D+00 0.000000000000D+00 0.246911848810D-02 0.000000000000D+00  5 -1 2 25 24 21 0 0.34529173D-02 0.13992475D+00 0.20385361D+05 0.20385361D+05 0.20385361D+05 0.12329146D+01  1  2  2  1  5  1       -1 0.349528150575D+00 0.100000000000D+01
-.192687131448D-04 0.000000000000D+00 -.133194552160D-05 0.246911848810D-02 0.000000000000D+00  5 -1 2 25 24 21 2 0.34529173D-02 0.13992475D+00 0.20385361D+05 0.20385361D+05 0.20385361D+05 0.12329146D+01  1  2  3  1  5  1       -1 -.295172169501D-01 0.100000000000D+01
0.239362070997D-04 0.000000000000D+00 0.000000000000D+00 0.246911848810D-02 0.000000000000D+00  5 -1 2 25 24 21 2 0.34529173D-02 0.13992475D+00 0.20385361D+05 0.20385361D+05 0.20385361D+05 0.12329146D+01  1  2 15  1  5  1       -1 0.366672238366D-01 0.100000000000D+01
-.100910741875D-04 0.000000000000D+00 -.130531136089D-03 0.246911848810D-02 0.000000000000D+00  5 -1 2 25 24 21 2 0.17000397D-01 0.13992475D+00 0.20385361D+05 0.20385361D+05 0.20385361D+05 0.12329146D+01  1  2  5  1  5  1       -1 -.138629989046D-02 0.100000000000D+01
-.528308916253D-05 0.000000000000D+00 -.253350268612D-04 0.246911848810D-02 0.000000000000D+00  5 21 2 25 24 1 2 0.17000397D-01 0.13992475D+00 0.20385361D+05 0.20385361D+05 0.20385361D+05 0.12329146D+01  1  2  5  3  5  1       -1 -.965407230189D-02 0.100000000000D+01
  </mgrwgt>
  </event>
  <event>
  4     66 0.45252658E-03 0.87488546E+02 0.75467711E-02 0.11969926E+00
       -1 -1    0    0    0  501 0.00000000E+00 0.00000000E+00 0.27586224E+02 0.27588080E+02 0.32000000E+00 0.0000E+00 0.9000E+01
        2 -1    0    0  501    0 0.00000000E+00 0.00000000E+00 -.60573339E+03 0.60573348E+03 0.32000000E+00 0.0000E+00 0.9000E+01
       25  1    1    2    0    0 -.45847119E+02 0.57802687E+02 -.27202048E+03 0.30832329E+03 0.12500000E+03 0.0000E+00 0.9000E+01
       24  1    1    2    0    0 0.45847119E+02 -.57802687E+02 -.30612669E+03 0.32499827E+03 0.80419002E+02 0.0000E+00 0.9000E+01
#aMCatNLO 1  0  0  2  1 0.47087857D+02 0.00000000D+00  -5  5  0 0.00000000D+00 0.00000000D+00 0.00000000D+00 0.00000000D+00 0.00000000D+00
  <mgrwgt>
 0.4074205231D+00    9    2    0
 0.129269144251613D+03 0.000000000000000D+00 0.000000000000000D+00 0.129269144251613D+03
 0.129269144251613D+03 0.000000000000000D+00 0.000000000000000D+00 -.129269144251613D+03
 0.146979836348028D+03 -.458471191847111D+02 0.578026874782005D+02 0.231292731328386D+02
 0.111558452155198D+03 0.458471191847111D+02 -.578026874782005D+02 -.231292731328386D+02
 0.000000000000000D+00 0.000000000000000D+00 0.000000000000000D+00 -.000000000000000D+00
 0.145141126345024D+03 0.000000000000000D+00 0.000000000000000D+00 0.145141126345024D+03
 0.171723020911349D+03 0.000000000000000D+00 0.000000000000000D+00 -.171723020911349D+03
 0.144069056033143D+03 -.582762501066639D+02 0.346382491493582D+02 0.231292731328386D+02
 0.118722330688822D+03 0.360130669903819D+02 -.761306218292503D+02 -.231292731328386D+02
 0.540727605344079D+02 0.222631831162820D+02 0.414923726798921D+02 -.265818945663258D+02
0.239921226236D-03 0.000000000000D+00 0.000000000000D+00 0.255671955899D-02 0.000000000000D+00  5 -1 2 25 24 21 0 0.42441838D-02 0.93189902D-01 0.16164962D+05 0.16164962D+05 0.16164962D+05 0.12441363D+01  1  2  2  2  5  2        2 0.290679121147D+00 0.100000000000D+01
-.133244934543D-04 0.000000000000D+00 -.921360681456D-06 0.255671955899D-02 0.000000000000D+00  5 -1 2 25 24 21 2 0.42441838D-02 0.93189902D-01 0.16164962D+05 0.16164962D+05 0.16164962D+05 0.12441363D+01  1  2  3  2  5  2        2 -.249880175504D-01 0.100000000000D+01
0.165673767457D-04 0.000000000000D+00 0.000000000000D+00 0.255671955899D-02 0.000000000000D+00  5 -1 2 25 24 21 2 0.42441838D-02 0.93189902D-01 0.16164962D+05 0.16164962D+05 0.16164962D+05 0.12441363D+01  1  2 15  2  5  2        2 0.310695413905D-01 0.100000000000D+01
0.192178224546D-03 0.000000000000D+00 0.000000000000D+00 0.255671955899D-02 0.000000000000D+00  5 -1 2 25 24 21 2 0.42441838D-02 0.12805121D+00 0.23368581D+05 0.23368581D+05 0.23368581D+05 0.12264523D+01  1  2 12  2  5  2        2 0.242123915791D+00 0.100000000000D+01
-.220437075976D-03 0.000000000000D+00 0.000000000000D+00 0.255671955899D-02 0.000000000000D+00  5 -1 2 25 24 21 2 0.42441838D-02 0.93189902D-01 0.16164962D+05 0.16164962D+05 0.16164962D+05 0.12441363D+01  1  2  4  2  5  2        2 -.413395491704D+00 0.100000000000D+01
-.358266062429D-03 0.000000000000D+00 -.121007759757D-03 0.255671955899D-02 0.000000000000D+00  5 -1 2 25 24 21 2 0.42441838D-02 0.13411246D+00 0.16164962D+05 0.16164962D+05 0.16164962D+05 0.12441363D+01  1  2  5  2  5  2        2 -.433683685550D+00 0.100000000000D+01
0.384176954608D-03 0.000000000000D+00 0.113409617875D-03 0.255671955899D-02 0.000000000000D+00  5 -1 2 25 24 21 2 0.42441838D-02 0.93189902D-01 0.16164962D+05 0.16164962D+05 0.16164962D+05 0.12441363D+01  1  2  6  2  5  2        2 0.720464197544D+00 0.100000000000D+01
0.774396021375D-05 0.000000000000D+00 0.000000000000D+00 0.255671955899D-02 0.000000000000D+00  5 -1 21 25 24 -2 2 0.42441838D-02 0.12805121D+00 0.23368581D+05 0.23368581D+05 0.23368581D+05 0.12264523D+01  1  2 12  4  5  2        2 0.104632600180D-01 0.100000000000D+01
-.123006694968D-04 0.000000000000D+00 -.537805450486D-05 0.255671955899D-02 0.000000000000D+00  5 -1 21 25 24 -2 2 0.42441838D-02 0.13411246D+00 0.16164962D+05 0.16164962D+05 0.16164962D+05 0.12441363D+01  1  2  5  4  5  2        2 -.153123179697D-01 0.100000000000D+01
  </mgrwgt>
  </event>
  <event>
  5     66 0.45252658E-03 0.15143565E+03 0.75467711E-02 0.11741019E+00
       -1 -1    0    0    0  501 0.00000000E+00 0.00000000E+00 0.27180659E+02 0.27182543E+02 0.32000000E+00 0.0000E+00 0.9000E+01
        2 -1    0    0  502    0 0.00000000E+00 0.00000000E+00 -.11147735E+04 0.11147736E+04 0.32000000E+00 0.0000E+00 0.9000E+01
       25  1    1    2    0    0 -.87725464E+02 0.37422353E+02 -.47055378E+03 0.49612705E+03 0.12500000E+03 0.0000E+00 0.9000E+01
       24  1    1    2    0    0 0.97612562E+02 -.77798364E+02 -.50242071E+03 0.52390322E+03 0.80419002E+02 0.0000E+00 0.9000E+01
       21  1    1    2  502  501 -.98870983E+01 0.40376011E+02 -.11461837E+03 0.12192584E+03 0.75000000E+00 0.0000E+00 0.9000E+01
#aMCatNLO 2  0  0  2  2 0.41568943D+02 0.00000000D+00  -5  5  0 0.00000000D+00 0.00000000D+00 0.00000000D+00 0.00000000D+00 0.00000000D+00
  <mgrwgt>
 0.1993255146D+00    1    2    0
 0.151702352564025D+03 0.000000000000000D+00 0.000000000000000D+00 0.151702352564025D+03
 0.151702352564025D+03 0.000000000000000D+00 0.000000000000000D+00 -.151702352564025D+03
 0.166794050040774D+03 -.929845506081060D+02 0.588989220680347D+02 0.894681264117354D+01
 0.136610655087276D+03 0.929845506081060D+02 -.588989220680347D+02 -.894681264117354D+01
 0.000000000000000D+00 -.000000000000000D+00 0.000000000000000D+00 0.000000000000000D+00
 0.176894651981731D+03 0.000000000000000D+00 0.000000000000000D+00 0.176894651981731D+03
 0.171289585296645D+03 0.000000000000000D+00 0.000000000000000D+00 -.171289585296645D+03
 0.157484078506834D+03 -.877254638204457D+02 0.374223532691115D+02 0.894681264117354D+01
 0.148755030818381D+03 0.976125621089734D+02 -.777983643882866D+02 -.894681264117354D+01
 0.419451279531605D+02 -.988709828852766D+01 0.403760111191751D+02 0.560506668508536D+01
0.233846624819D-03 0.000000000000D+00 0.000000000000D+00 0.238829484525D-02 0.110324013807D-04  5 -1 2 25 24 21 2 0.41817076D-02 0.17150046D+00 0.30151616D+05 0.30151616D+05 0.30151616D+05 0.12146687D+01  1  2  1  2  5  2        2 0.199325514582D+00 0.100000000000D+01
  </mgrwgt>
  </event>
  <event>
  4     66 0.45252658E-03 0.80905163E+02 0.75467711E-02 0.11654491E+00
       -1 -1    0    0    0  501 0.00000000E+00 0.00000000E+00 0.11403134E+02 0.11407623E+02 0.32000000E+00 0.0000E+00 0.9000E+01
        2 -1    0    0  501    0 0.00000000E+00 0.00000000E+00 -.27029489E+04 0.27029489E+04 0.32000000E+00 0.0000E+00 0.9000E+01
       25  1    1    2    0    0 0.14262044E+02 0.14032823E+03 -.15039227E+04 0.15156860E+04 0.12500000E+03 0.0000E+00 0.9000E+01
       24  1    1    2    0    0 -.14262044E+02 -.14032823E+03 -.11876230E+04 0.11986706E+04 0.80419002E+02 0.0000E+00 0.9000E+01
#aMCatNLO 1  0  0  1  2 0.13803641D+02 0.00000000D+00  -5  5  0 0.00000000D+00 0.00000000D+00 0.00000000D+00 0.00000000D+00 0.00000000D+00
  <mgrwgt>
 0.6037035776D+00    6    2    0
 0.175579628333847D+03 0.000000000000000D+00 0.000000000000000D+00 0.175579628333847D+03
 0.175579628333847D+03 0.000000000000000D+00 0.000000000000000D+00 -.175579628333847D+03
 0.188618988498423D+03 0.142620437760021D+02 0.140328231154531D+03 -.753023708391415D+01
 0.162540268169271D+03 -.142620437760021D+02 -.140328231154531D+03 0.753023708391415D+01
 0.000000000000000D+00 -.000000000000000D+00 -.000000000000000D+00 -.000000000000000D+00
 0.181179807874642D+03 0.000000000000000D+00 0.000000000000000D+00 0.181179807874642D+03
 0.184432295318742D+03 0.000000000000000D+00 0.000000000000000D+00 -.184432295318742D+03
 0.193917294726076D+03 0.177294322020463D+02 0.146996190281016D+03 -.753023708391415D+01
 0.157513159334140D+03 -.113610129485817D+02 -.134749405650986D+03 0.753023708391415D+01
 0.141816491331676D+02 -.636841925346459D+01 -.122467846300304D+02 -.325248744409983D+01
0.107331482683D-02 0.000000000000D+00 0.000000000000D+00 0.224963747112D-02 0.000000000000D+00  5 -1 2 25 24 21 0 0.17546750D-02 0.41583864D+00 0.30771186D+05 0.30771186D+05 0.30771186D+05 0.12137432D+01  1  2  2  1  5  1       -1 0.316287945708D+00 0.100000000000D+01
-.596285393709D-04 0.000000000000D+00 -.412181154533D-05 0.224963747112D-02 0.000000000000D+00  5 -1 2 25 24 21 2 0.17546750D-02 0.41583864D+00 0.30771186D+05 0.30771186D+05 0.30771186D+05 0.12137432D+01  1  2  3  1  5  1       -1 -.258859018319D-01 0.100000000000D+01
0.734988730832D-04 0.000000000000D+00 0.000000000000D+00 0.224963747112D-02 0.000000000000D+00  5 -1 2 25 24 21 2 0.17546750D-02 0.41583864D+00 0.30771186D+05 0.30771186D+05 0.30771186D+05 0.12137432D+01  1  2 15  1  5  1       -1 0.319072818731D-01 0.100000000000D+01
0.131927759023D-02 0.000000000000D+00 0.000000000000D+00 0.224963747112D-02 0.000000000000D+00  5 -1 2 25 24 21 2 0.18531262D-02 0.41583864D+00 0.33289413D+05 0.33289413D+05 0.33289413D+05 0.12101845D+01  1  2 12  1  5  1       -1 0.525669394461D+00 0.100000000000D+01
-.821469607546D-03 0.000000000000D+00 0.000000000000D+00 0.224963747112D-02 0.000000000000D+00  5 -1 2 25 24 21 2 0.17546750D-02 0.41583864D+00 0.30771186D+05 0.30771186D+05 0.30771186D+05 0.12137432D+01  1  2  4  1  5  1       -1 -.356615839382D+00 0.100000000000D+01
0.135237573858D-04 0.000000000000D+00 0.000000000000D+00 0.224963747112D-02 0.000000000000D+00  5 21 2 25 24 1 2 0.18531262D-02 0.41583864D+00 0.33289413D+05 0.33289413D+05 0.33289413D+05 0.12101845D+01  1  2 12  3  5  1       -1 0.112340696756D+00 0.100000000000D+01
  </mgrwgt>
  </event>
  <event>
  5     66 0.45252658E-03 0.11172655E+03 0.75467711E-02 0.11117359E+00
       21 -1    0    0  502  501 0.00000000E+00 0.00000000E+00 0.25297108E+02 0.25308223E+02 0.75000000E+00 0.0000E+00 0.9000E+01
        2 -1    0    0  501    0 0.00000000E+00 0.00000000E+00 -.27331936E+04 0.27331937E+04 0.32000000E+00 0.0000E+00 0.9000E+01
       25  1    1    2    0    0 0.17173438E+03 0.24259933E+02 -.15437230E+04 0.15584566E+04 0.12500000E+03 0.0000E+00 0.9000E+01
       24  1    1    2    0    0 0.27492943E+02 0.19575976E+02 -.34367864E+03 0.35457200E+03 0.80419002E+02 0.0000E+00 0.9000E+01
        1  1    1    2  502    0 -.19922732E+03 -.43835909E+02 -.82049486E+03 0.84547326E+03 0.32000000E+00 0.0000E+00 0.9000E+01
#aMCatNLO 2  0  0  1  2 0.20399292D+03 0.00000000D+00  -5  5  0 0.00000000D+00 0.00000000D+00 0.00000000D+00 0.00000000D+00 0.00000000D+00
  <mgrwgt>
 0.5922499642D-01    1    2    0
 0.118089296815543D+03 0.000000000000000D+00 0.000000000000000D+00 0.118089296815543D+03
 0.118089296815543D+03 0.000000000000000D+00 0.000000000000000D+00 -.118089296815543D+03
 0.137476710181070D+03 0.428940351467658D+02 -.408875696909094D+01 -.376593900307173D+02
 0.987018834500157D+02 -.428940351467658D+02 0.408875696909094D+01 0.376593900307173D+02
 0.000000000000000D+00 -.000000000000000D+00 -.000000000000000D+00 0.000000000000000D+00
 0.308130116238574D+03 0.000000000000000D+00 0.000000000000000D+00 0.308130116238574D+03
 0.224441503026575D+03 0.000000000000000D+00 0.000000000000000D+00 -.224441503026575D+03
 0.217081715332226D+03 0.171734379540181D+03 0.242599331830235D+02 -.376593900307173D+02
 0.949975071895979D+02 0.274929431422799D+02 0.195759760358675D+02 0.376593900307173D+02
 0.220492396743325D+03 -.199227322682461D+03 -.438359092188910D+02 0.836886132119984D+02
0.271303250497D-04 0.000000000000D+00 0.000000000000D+00 0.257401685367D-02 0.186976529942D-06  5 21 2 25 24 1 2 0.38927174D-02 0.42049199D+00 0.63755541D+05 0.63755541D+05 0.63755541D+05 0.11819681D+01  1  2  1  3  5  1       -1 0.592249964222D-01 0.100000000000D+01
  </mgrwgt>
  </event>
  <event>
  4     66 0.45252658E-03 0.10576618E+03 0.75467711E-02 0.12483820E+00
       -1 -1    0    0    0  501 0.00000000E+00 0.00000000E+00 0.36492547E+02 0.36493950E+02 0.32000000E+00 0.0000E+00 0.9000E+01
        2 -1    0    0  501    0 0.00000000E+00 0.00000000E+00 -.33146586E+03 0.33146602E+03 0.32000000E+00 0.0000E+00 0.9000E+01
       25  1    1    2    0    0 -.11381922E+02 0.21895014E+02 -.12593063E+03 0.17914370E+03 0.12500000E+03 0.0000E+00 0.9000E+01
       24  1    1    2    0    0 0.11381922E+02 -.21895014E+02 -.16904268E+03 0.18881627E+03 0.80419002E+02 0.0000E+00 0.9000E+01
#aMCatNLO 1  0  0  2  1 0.21056165D+02 0.00000000D+00  -5  5  0 0.00000000D+00 0.00000000D+00 0.00000000D+00 0.00000000D+00 0.00000000D+00
  <mgrwgt>
 0.3581867449D+00    4    2    0
 0.109983272999646D+03 0.000000000000000D+00 0.000000000000000D+00 0.109983272999646D+03
 0.109983272999646D+03 0.000000000000000D+00 0.000000000000000D+00 -.109983272999646D+03
 0.130799583961902D+03 -.113819220373185D+02 0.218950137277552D+02 0.295734913259236D+02
 0.891669620373892D+02 0.113819220373185D+02 -.218950137277552D+02 -.295734913259236D+02
 0.000000000000000D+00 -.000000000000000D+00 0.000000000000000D+00 0.000000000000000D+00
 0.157770373142252D+03 0.000000000000000D+00 0.000000000000000D+00 0.157770373142252D+03
 0.112830148061621D+03 0.000000000000000D+00 0.000000000000000D+00 -.112830148061621D+03
 0.129126145119006D+03 -.890145912069479D+01 0.973313873386747D+01 0.295734913259236D+02
 0.918458971230481D+02 0.131093219610088D+02 -.303645706784263D+02 -.295734913259236D+02
 0.496284789618189D+02 -.420786284031397D+01 0.206314319445588D+02 0.449402250806318D+02
0.261133511941D-03 0.000000000000D+00 0.000000000000D+00 0.282938432257D-02 0.000000000000D+00  5 -1 2 25 24 21 0 0.56143579D-02 0.50994868D-01 0.11186486D+05 0.11186486D+05 0.11186486D+05 0.12626130D+01  1  2  2  2  5  2        2 0.396283637264D+00 0.100000000000D+01
-.144804543214D-04 0.000000000000D+00 -.100282144389D-05 0.282938432257D-02 0.000000000000D+00  5 -1 2 25 24 21 2 0.56143579D-02 0.50994868D-01 0.11186486D+05 0.11186486D+05 0.11186486D+05 0.12626130D+01  1  2  3  2  5  2        2 -.350321043301D-01 0.100000000000D+01
0.178840180067D-04 0.000000000000D+00 0.000000000000D+00 0.282938432257D-02 0.000000000000D+00  5 -1 2 25 24 21 2 0.56143579D-02 0.50994868D-01 0.11186486D+05 0.11186486D+05 0.11186486D+05 0.12626130D+01  1  2 15  2  5  2        2 0.432662381127D-01 0.100000000000D+01
-.191508423700D-04 0.000000000000D+00 0.000000000000D+00 0.282938432257D-02 0.000000000000D+00  5 -1 2 25 24 21 2 0.56143579D-02 0.50994868D-01 0.11186486D+05 0.11186486D+05 0.11186486D+05 0.12626130D+01  1  2  4  2  5  2        2 -.463310261558D-01 0.100000000000D+01
  </mgrwgt>
  </event>
  <event>
  4     66 0.45252658E-03 0.83018070E+02 0.75467711E-02 0.12448543E+00
       -1 -1    0    0    0  501 0.00000000E+00 0.00000000E+00 0.57979408E+01 0.58067648E+01 0.32000000E+00 0.0000E+00 0.9000E+01
        2 -1    0    0  501    0 0.00000000E+00 0.00000000E+00 -.45320196E+04 0.45320197E+04 0.32000000E+00 0.0000E+00 0.9000E+01
       25  1    1    2    0    0 -.41017305E+02 0.12327256E+02 -.82753366E+03 0.83801631E+03 0.12500000E+03 0.0000E+00 0.9000E+01
       24  1    1    2    0    0 0.41017305E+02 -.12327256E+02 -.36986880E+04 0.36998101E+04 0.80419002E+02 0.0000E+00 0.9000E+01
#aMCatNLO 1  0  0  2  1 0.14730296D+02 0.00000000D+00  -5  5  0 0.00000000D+00 0.00000000D+00 0.00000000D+00 0.00000000D+00 0.00000000D+00
  <mgrwgt>
 0.2588148913D+00    9    2    0
 0.162161734809349D+03 0.000000000000000D+00 0.000000000000000D+00 0.162161734809349D+03
 0.162161734809349D+03 0.000000000000000D+00 0.000000000000000D+00 -.162161734809349D+03
 0.176280022419549D+03 -.410173050308278D+02 0.123272560106107D+02 0.116684470909773D+03
 0.148043447199149D+03 0.410173050308278D+02 -.123272560106107D+02 -.116684470909773D+03
 0.000000000000000D+00 0.000000000000000D+00 -.000000000000000D+00 -.000000000000000D+00
 0.164652280267245D+03 0.000000000000000D+00 0.000000000000000D+00 0.164652280267245D+03
 0.185676586617125D+03 0.000000000000000D+00 0.000000000000000D+00 -.185676586617125D+03
 0.178339297846836D+03 -.478514822592558D+02 0.165793561576172D+02 0.116684470909773D+03
 0.146318513659722D+03 0.353443997635516D+02 -.879767805050150D+01 -.116684470909773D+03
 0.256710553778121D+02 0.125070824957042D+02 -.778167810711567D+01 -.210243063498795D+02
0.267137230946D-02 0.000000000000D+00 0.000000000000D+00 0.120938643063D-02 0.000000000000D+00  5 -1 2 25 24 21 0 0.89267053D-03 0.69723447D+00 0.12459811D+05 0.12459811D+05 0.12459811D+05 0.12571147D+01  1  2  2  2  5  2        2 0.115943380901D+00 0.100000000000D+01
-.123242241798D-03 0.000000000000D+00 -.102587730568D-04 0.120938643063D-02 0.000000000000D+00  5 -1 2 25 24 21 2 0.89267053D-03 0.69723447D+00 0.12459811D+05 0.12459811D+05 0.12459811D+05 0.12571147D+01  1  2  3  2  5  2        2 -.845319626163D-02 0.100000000000D+01
0.182119092468D-03 0.000000000000D+00 0.000000000000D+00 0.120938643063D-02 0.000000000000D+00  5 -1 2 25 24 21 2 0.89267053D-03 0.69723447D+00 0.12459811D+05 0.12459811D+05 0.12459811D+05 0.12571147D+01  1  2 15  2  5  2        2 0.124915646548D-01 0.100000000000D+01
0.525405579424D-02 0.000000000000D+00 0.000000000000D+00 0.120938643063D-02 0.000000000000D+00  5 -1 2 25 24 21 2 0.89267053D-03 0.80319601D+00 0.14146962D+05 0.14146962D+05 0.14146962D+05 0.12507318D+01  1  2 12  2  5  2        2 0.614552594506D-01 0.100000000000D+01
-.627304081269D-02 0.000000000000D+00 0.000000000000D+00 0.120938643063D-02 0.000000000000D+00  5 -1 2 25 24 21 2 0.89267053D-03 0.69723447D+00 0.12459811D+05 0.12459811D+05 0.12459811D+05 0.12571147D+01  1  2  4  2  5  2        2 -.430268423986D+00 0.100000000000D+01
-.759485203580D-02 0.000000000000D+00 -.101508590680D-02 0.120938643063D-02 0.000000000000D+00  5 -1 2 25 24 21 2 0.89267053D-03 0.79951121D+00 0.12459811D+05 0.12459811D+05 0.12459811D+05 0.12571147D+01  1  2  5  2  5  2        2 -.975170358616D-01 0.100000000000D+01
0.882302411614D-02 0.000000000000D+00 0.121880422659D-02 0.120938643063D-02 0.000000000000D+00  5 -1 2 25 24 21 2 0.89267053D-03 0.69723447D+00 0.12459811D+05 0.12459811D+05 0.12459811D+05 0.12571147D+01  1  2  6  2  5  2        2 0.605172004231D+00 0.100000000000D+01
0.114278484844D-03 0.000000000000D+00 0.000000000000D+00 0.120938643063D-02 0.000000000000D+00  5 -1 21 25 24 -2 2 0.89267053D-03 0.80319601D+00 0.14146962D+05 0.14146962D+05 0.14146962D+05 0.12507318D+01  1  2 12  4  5  2        2 0.157076723880D-04 0.100000000000D+01
-.154802907026D-03 0.000000000000D+00 -.214882377109D-04 0.120938643063D-02 0.000000000000D+00  5 -1 21 25 24 -2 2 0.89267053D-03 0.79951121D+00 0.12459811D+05 0.12459811D+05 0.12459811D+05 0.12571147D+01  1  2  5  4  5  2        2 -.243695455275D-04 0.100000000000D+01
  </mgrwgt>
  </event>
  <event>
  5     66 0.45252658E-03 0.10593426E+03 0.75467711E-02 0.12165509E+00
       21 -1    0    0  502  501 0.00000000E+00 0.00000000E+00 0.32188267E+02 0.32197003E+02 0.75000000E+00 0.0000E+00 0.9000E+01
        2 -1    0    0  501    0 0.00000000E+00 0.00000000E+00 -.69145340E+03 0.69145348E+03 0.32000000E+00 0.0000E+00 0.9000E+01
       25  1    1    2    0    0 -.10001459E+02 0.52494592E+02 -.20242241E+03 0.24383508E+03 0.12500000E+03 0.0000E+00 0.9000E+01
       24  1    1    2    0    0 0.21062571E+02 0.25550490E+01 -.19459474E+03 0.21162346E+03 0.80419002E+02 0.0000E+00 0.9000E+01
        1  1    1    2  502    0 -.11061112E+02 -.55049641E+02 -.26224798E+03 0.26819194E+03 0.32000000E+00 0.0000E+00 0.9000E+01
#aMCatNLO 2  0  0  1  1 0.56149899D+02 0.00000000D+00  -5  5  0 0.00000000D+00 0.00000000D+00 0.00000000D+00 0.00000000D+00 0.00000000D+00
  <mgrwgt>
 0.1227498055D+00    1    2    0
 0.108012786463888D+03 0.000000000000000D+00 0.000000000000000D+00 0.108012786463888D+03
 0.108012786463888D+03 0.000000000000000D+00 0.000000000000000D+00 -.108012786463888D+03
 0.129208851173994D+03 -.167181138590523D+02 0.190667202239465D+02 0.206613666198710D+02
 0.868167217537828D+02 0.167181138590523D+02 -.190667202239465D+02 -.206613666198710D+02
 0.000000000000000D+00 -.000000000000000D+00 -.000000000000000D+00 -.000000000000000D+00
 0.122952320923403D+03 0.000000000000000D+00 0.000000000000000D+00 0.122952320923403D+03
 0.181043891959691D+03 0.000000000000000D+00 0.000000000000000D+00 -.181043891959691D+03
 0.137504921621045D+03 -.100014588918207D+02 0.524945922876277D+02 0.206613666198710D+02
 0.856987059727645D+02 0.210625711865486D+02 0.255504901061750D+01 -.206613666198710D+02
 0.807925852892836D+02 -.110611122947279D+02 -.550496412982452D+02 -.580915710362882D+02
0.550895916127D-05 0.000000000000D+00 0.000000000000D+00 0.297463963132D-02 0.263877448213D-06  5 21 2 25 24 1 2 0.49527068D-02 0.10637787D+00 0.18942629D+05 0.18942629D+05 0.18942629D+05 0.12364316D+01  1  2  1  3  5  1       -1 0.122749805545D+00 0.100000000000D+01
  </mgrwgt>
  </event>
  <event>
  4     66 0.45252658E-03 0.13536757E+03 0.75467711E-02 0.11414989E+00
       -1 -1    0    0    0  501 0.00000000E+00 0.00000000E+00 0.55160482E+02 0.55161410E+02 0.32000000E+00 0.0000E+00 0.9000E+01
        2 -1    0    0  501    0 0.00000000E+00 0.00000000E+00 -.33880130E+03 0.33880145E+03 0.32000000E+00 0.0000E+00 0.9000E+01
       25  1    1    2    0    0 -.86067955E+02 -.12514838E+02 -.13190412E+03 0.20146466E+03 0.12500000E+03 0.0000E+00 0.9000E+01
       24  1    1    2    0    0 0.86067955E+02 0.12514838E+02 -.15173670E+03 0.19249820E+03 0.80419002E+02 0.0000E+00 0.9000E+01
#aMCatNLO 1  0  0  2  1 0.12285222D+03 0.00000000D+00  -5  5  0 0.00000000D+00 0.00000000D+00 0.00000000D+00 0.00000000D+00 0.00000000D+00
  <mgrwgt>
 0.4822415861D+00    3    2    0
 0.136706457284276D+03 0.000000000000000D+00 0.000000000000000D+00 0.136706457284276D+03
 0.136706457284276D+03 0.000000000000000D+00 0.000000000000000D+00 -.136706457284276D+03
 0.153453625317799D+03 -.860679549847520D+02 -.125148383121111D+02 0.189394052161044D+02
 0.119959289250753D+03 0.860679549847520D+02 0.125148383121111D+02 -.189394052161044D+02
 0.000000000000000D+00 -.000000000000000D+00 0.000000000000000D+00 0.000000000000000D+00
 0.600680163522814D+03 0.000000000000000D+00 0.000000000000000D+00 0.600680163522814D+03
 0.158242484809054D+03 0.000000000000000D+00 0.000000000000000D+00 -.158242484809054D+03
 0.165004619857071D+03 -.706996225242885D+02 -.790214330366121D+02 0.189394052161044D+02
 0.134740755681751D+03 0.983594092884970D+02 -.406765389603999D+02 -.189394052161044D+02
 0.459177272793046D+03 -.276597867642085D+02 0.119697971997012D+03 0.442437678713760D+03
0.579359902515D-03 0.000000000000D+00 0.000000000000D+00 0.249311679922D-02 0.000000000000D+00  5 -1 2 25 24 21 0 0.84863110D-02 0.52123359D-01 0.18324379D+05 0.18324379D+05 0.18324379D+05 0.12380317D+01  1  2  2  2  5  2        2 0.472526977258D+00 0.100000000000D+01
-.321828703834D-04 0.000000000000D+00 -.222489457462D-05 0.249311679922D-02 0.000000000000D+00  5 -1 2 25 24 21 2 0.84863110D-02 0.52123359D-01 0.18324379D+05 0.18324379D+05 0.18324379D+05 0.12380317D+01  1  2  3  2  5  2        2 -.402315208833D-01 0.100000000000D+01
0.399539908907D-04 0.000000000000D+00 0.000000000000D+00 0.249311679922D-02 0.000000000000D+00  5 -1 2 25 24 21 2 0.84863110D-02 0.52123359D-01 0.18324379D+05 0.18324379D+05 0.18324379D+05 0.12380317D+01  1  2 15  2  5  2        2 0.499461297187D-01 0.100000000000D+01
  </mgrwgt>
  </event>
  <event>
  4     66 0.45252658E-03 0.29452821E+03 0.75467711E-02 0.89783846E-01
       -3 -1    0    0    0  501 0.00000000E+00 0.00000000E+00 0.71981887E+03 0.71981905E+03 0.50000000E+00 0.0000E+00 0.9000E+01
        4 -1    0    0  501    0 0.00000000E+00 0.00000000E+00 -.12741801E+03 0.12742744E+03 0.15500000E+01 0.0000E+00 0.9000E+01
       25  1    1    2    0    0 -.17434332E+03 0.21299200E+03 0.40222187E+03 0.50315864E+03 0.12500000E+03 0.0000E+00 0.9000E+01
       24  1    1    2    0    0 0.17434332E+03 -.21299200E+03 0.19017899E+03 0.34408785E+03 0.80419002E+02 0.0000E+00 0.9000E+01
#aMCatNLO 1  0  0  1  1 0.13031178D+04 0.00000000D+00  -5  5  0 0.00000000D+00 0.00000000D+00 0.00000000D+00 0.00000000D+00 0.00000000D+00
  <mgrwgt>
 0.6667359155D-01    3    2    0
 0.302856334101304D+03 0.000000000000000D+00 0.000000000000000D+00 0.302856334101304D+03
 0.302856334101304D+03 0.000000000000000D+00 0.000000000000000D+00 -.302856334101304D+03
 0.310415845835477D+03 -.174343316807005D+03 0.212992000876226D+03 0.705110827688002D+02
 0.295296822367131D+03 0.174343316807005D+03 -.212992000876226D+03 -.705110827688002D+02
 0.000000000000000D+00 0.000000000000000D+00 0.000000000000000D+00 -.000000000000000D+00
 0.826090295999684D+03 0.000000000000000D+00 0.000000000000000D+00 0.826090295999684D+03
 0.466452114782005D+04 0.000000000000000D+00 0.000000000000000D+00 -.466452114782005D+04
 0.789729689347635D+03 -.755224011662963D+03 -.180866972251943D+03 0.705110827688002D+02
 0.647282437687976D+03 -.323341833045913D+03 -.550441263346234D+03 -.705110827688002D+02
 0.405359931678412D+04 0.107856584470888D+04 0.731308235598177D+03 -.383843085182037D+04
0.182139612006D-01 0.000000000000D+00 0.000000000000D+00 0.190054062730D-02 0.000000000000D+00  5 -3 4 25 24 21 0 0.11074210D+00 0.19603510D-01 0.86746869D+05 0.86746869D+05 0.86746869D+05 0.11692868D+01  1  2  2  1  5  1       -3 0.655012099566D-01 0.100000000000D+01
-.101093016580D-02 0.000000000000D+00 -.699464068564D-04 0.190054062730D-02 0.000000000000D+00  5 -3 4 25 24 21 2 0.11074210D+00 0.19603510D-01 0.86746869D+05 0.86746869D+05 0.86746869D+05 0.11692868D+01  1  2  3  1  5  1       -3 -.497059238225D-02 0.100000000000D+01
0.124937174997D-02 0.000000000000D+00 0.000000000000D+00 0.190054062730D-02 0.000000000000D+00  5 -3 4 25 24 21 2 0.11074210D+00 0.19603510D-01 0.86746869D+05 0.86746869D+05 0.86746869D+05 0.11692868D+01  1  2 15  1  5  1       -3 0.614297397895D-02 0.100000000000D+01
  </mgrwgt>
  </event>
  <event>
  5     66 0.45252658E-03 0.12688953E+03 0.75467711E-02 0.12232698E+00
       21 -1    0    0  502  501 0.00000000E+00 0.00000000E+00 0.68366857E+01 0.68777011E+01 0.75000000E+00 0.0000E+00 0.9000E+01
        2 -1    0    0  501    0 0.00000000E+00 0.00000000E+00 -.27785643E+04 0.27785643E+04 0.32000000E+00 0.0000E+00 0.9000E+01
       25  1    1    2    0    0 -.61171720E+02 0.50727630E+02 -.12981032E+04 0.13065267E+04 0.12500000E+03 0.0000E+00 0.9000E+01
       24  1    1    2    0    0 0.55935661E+02 -.40284394E+02 -.10950755E+04 0.11001860E+04 0.80419002E+02 0.0000E+00 0.9000E+01
        1  1    1    2  502    0 0.52360596E+01 -.10443236E+02 -.37854894E+03 0.37872929E+03 0.32000000E+00 0.0000E+00 0.9000E+01
#aMCatNLO 2  0  0  1  1 0.11682358D+02 0.00000000D+00  -5  5  0 0.00000000D+00 0.00000000D+00 0.00000000D+00 0.00000000D+00 0.00000000D+00
  <mgrwgt>
 0.8578669124D-01    1    2    0
 0.127304249497466D+03 0.000000000000000D+00 0.000000000000000D+00 0.127304249497466D+03
 0.127304249497466D+03 0.000000000000000D+00 0.000000000000000D+00 -.127304249497466D+03
 0.145288299679961D+03 -.581527100277277D+02 0.447062629259637D+02 0.101637786044276D+02
 0.109320199314970D+03 0.581527100277277D+02 -.447062629259637D+02 -.101637786044276D+02
 0.000000000000000D+00 0.000000000000000D+00 -.000000000000000D+00 -.000000000000000D+00
 0.129135280969169D+03 0.000000000000000D+00 0.000000000000000D+00 0.129135280969169D+03
 0.147542765115066D+03 0.000000000000000D+00 0.000000000000000D+00 -.147542765115066D+03
 0.148470785729551D+03 -.611717203301132D+02 0.507276300598099D+02 0.101637786044276D+02
 0.106405586770783D+03 0.559356607413194D+02 -.402843940450435D+02 -.101637786044276D+02
 0.218016735839010D+02 0.523605958879381D+01 -.104432360147664D+02 -.184074841458971D+02
0.434323487034D-05 0.000000000000D+00 0.000000000000D+00 0.264485076810D-02 0.455678971838D-06  5 21 2 25 24 1 2 0.10549448D-02 0.42747074D+00 0.17652298D+05 0.17652298D+05 0.17652298D+05 0.12398412D+01  1  2  1  3  5  1       -1 0.857866912367D-01 0.100000000000D+01
  </mgrwgt>
  </event>
  <event>
  4     66 0.45252658E-03 0.11662706E+03 0.75467711E-02 0.11882656E+00
       -1 -1    0    0    0  501 0.00000000E+00 0.00000000E+00 0.35052868E+02 0.35054329E+02 0.32000000E+00 0.0000E+00 0.9000E+01
        2 -1    0    0  501    0 0.00000000E+00 0.00000000E+00 -.42540557E+03 0.42540569E+03 0.32000000E+00 0.0000E+00 0.9000E+01
       25  1    1    2    0    0 0.11087926E+02 0.53086496E+02 -.15778622E+03 0.20847688E+03 0.12500000E+03 0.0000E+00 0.9000E+01
       24  1    1    2    0    0 -.11087926E+02 -.53086496E+02 -.23256648E+03 0.25198314E+03 0.80419002E+02 0.0000E+00 0.9000E+01
#aMCatNLO 1  0  0  1  1 0.75402231D+02 0.00000000D+00  -5  5  0 0.00000000D+00 0.00000000D+00 0.00000000D+00 0.00000000D+00 0.00000000D+00
  <mgrwgt>
 0.3596929523D+00    7    2    0
 0.122114902168412D+03 0.000000000000000D+00 0.000000000000000D+00 0.122114902168412D+03
 0.122114902168412D+03 0.000000000000000D+00 0.000000000000000D+00 -.122114902168412D+03
 0.140863195544187D+03 0.110879257516840D+02 0.530864955374086D+02 0.357256455925094D+02
 0.103366608792638D+03 -.110879257516840D+02 -.530864955374086D+02 -.357256455925094D+02
 0.000000000000000D+00 0.000000000000000D+00 0.000000000000000D+00 0.000000000000000D+00
 0.168219975949706D+03 0.000000000000000D+00 0.000000000000000D+00 0.168219975949706D+03
 0.162969408265818D+03 0.000000000000000D+00 0.000000000000000D+00 -.162969408265818D+03
 0.136451516312523D+03 -.254490905520871D+02 0.327114405224978D+02 0.357256455925094D+02
 0.119153048857175D+03 -.404055349943618D+02 -.694356110825541D+02 -.357256455925094D+02
 0.755848190458256D+02 0.658546255464489D+02 0.367241705600563D+02 0.525056768388855D+01
0.269392562923D-03 0.000000000000D+00 0.000000000000D+00 0.254021387305D-02 0.000000000000D+00  5 -1 2 25 24 21 0 0.53928705D-02 0.65447133D-01 0.13601870D+05 0.13601870D+05 0.13601870D+05 0.12526960D+01  1  2  2  1  5  1       -1 0.335930938906D+00 0.100000000000D+01
-.149277806707D-04 0.000000000000D+00 -.103453837431D-05 0.254021387305D-02 0.000000000000D+00  5 -1 2 25 24 21 2 0.53928705D-02 0.65447133D-01 0.13601870D+05 0.13601870D+05 0.13601870D+05 0.12526960D+01  1  2  3  1  5  1       -1 -.292113112318D-01 0.100000000000D+01
0.186021341725D-04 0.000000000000D+00 0.000000000000D+00 0.254021387305D-02 0.000000000000D+00  5 -1 2 25 24 21 2 0.53928705D-02 0.65447133D-01 0.13601870D+05 0.13601870D+05 0.13601870D+05 0.12526960D+01  1  2 15  1  5  1       -1 0.364014412372D-01 0.100000000000D+01
-.748555998374D-04 0.000000000000D+00 0.000000000000D+00 0.254021387305D-02 0.000000000000D+00  5 -1 2 25 24 21 2 0.53928705D-02 0.65447133D-01 0.13601870D+05 0.13601870D+05 0.13601870D+05 0.12526960D+01  1  2  4  1  5  1       -1 -.146480596984D+00 0.100000000000D+01
-.886048845656D-04 0.000000000000D+00 -.822348588424D-04 0.254021387305D-02 0.000000000000D+00  5 -1 2 25 24 21 2 0.99015405D-02 0.65447133D-01 0.13601870D+05 0.13601870D+05 0.13601870D+05 0.12526960D+01  1  2  5  1  5  1       -1 -.698239319360D-01 0.100000000000D+01
0.127460273604D-03 0.000000000000D+00 0.690848269424D-04 0.254021387305D-02 0.000000000000D+00  5 -1 2 25 24 21 2 0.53928705D-02 0.65447133D-01 0.13601870D+05 0.13601870D+05 0.13601870D+05 0.12526960D+01  1  2  6  1  5  1       -1 0.249419642749D+00 0.100000000000D+01
-.138191768020D-05 0.000000000000D+00 -.545797934532D-05 0.254021387305D-02 0.000000000000D+00  5 21 2 25 24 1 2 0.99015405D-02 0.65447133D-01 0.13601870D+05 0.13601870D+05 0.13601870D+05 0.12526960D+01  1  2  5  3  5  1       -1 -.165432304301D-01 0.100000000000D+01
  </mgrwgt>
  </event>
  <event>
  4     66 0.45252658E-03 0.91059487E+02 0.75467711E-02 0.11827411E+00
       -1 -1    0    0    0  501 0.00000000E+00 0.00000000E+00 0.39122399E+02 0.39123707E+02 0.32000000E+00 0.0000E+00 0.9000E+01
        2 -1    0    0  501    0 0.00000000E+00 0.00000000E+00 -.52369042E+03 0.52369052E+03 0.32000000E+00 0.0000E+00 0.9000E+01
       25  1    1    2    0    0 0.69777405E+02 -.67502687E+02 -.23689535E+03 0.28490332E+03 0.12500000E+03 0.0000E+00 0.9000E+01
       24  1    1    2    0    0 -.69777405E+02 0.67502687E+02 -.24767268E+03 0.27791090E+03 0.80419002E+02 0.0000E+00 0.9000E+01
#aMCatNLO 1  0  0  1  2 0.43202209D+02 0.00000000D+00  -5  5  0 0.00000000D+00 0.00000000D+00 0.00000000D+00 0.00000000D+00 0.00000000D+00
  <mgrwgt>
 0.3758266622D+00    9    2    0
 0.143137769772860D+03 0.000000000000000D+00 0.000000000000000D+00 0.143137769772860D+03
 0.143137769772860D+03 0.000000000000000D+00 0.000000000000000D+00 -.143137769772860D+03
 0.159132472044947D+03 0.697774045212993D+02 -.675026869571122D+02 0.165119572121803D+02
 0.127143067500774D+03 -.697774045212993D+02 0.675026869571122D+02 -.165119572121803D+02
 0.000000000000000D+00 0.000000000000000D+00 0.000000000000000D+00 0.000000000000000D+00
 0.204843879601932D+03 0.000000000000000D+00 0.000000000000000D+00 0.204843879601932D+03
 0.152524266206305D+03 0.000000000000000D+00 0.000000000000000D+00 -.152524266206305D+03
 0.167181231901880D+03 0.618819109817269D+02 -.906782700678769D+02 0.165119572121803D+02
 0.122335806286773D+03 -.758138008246871D+02 0.497840980535171D+02 -.165119572121803D+02
 0.678511076195834D+02 0.139318898429602D+02 0.408941720143597D+02 0.523196133956270D+02
0.360436432351D-03 0.000000000000D+00 0.000000000000D+00 0.243983071263D-02 0.000000000000D+00  5 -1 2 25 24 21 0 0.60189387D-02 0.80567865D-01 0.20212281D+05 0.20212281D+05 0.20212281D+05 0.12333216D+01  1  2  2  1  5  1       -1 0.308884448033D+00 0.100000000000D+01
-.200231255002D-04 0.000000000000D+00 -.138417080532D-05 0.243983071263D-02 0.000000000000D+00  5 -1 2 25 24 21 2 0.60189387D-02 0.80567865D-01 0.20212281D+05 0.20212281D+05 0.20212281D+05 0.12333216D+01  1  2  3  1  5  1       -1 -.261006832628D-01 0.100000000000D+01
0.248676623264D-04 0.000000000000D+00 0.000000000000D+00 0.243983071263D-02 0.000000000000D+00  5 -1 2 25 24 21 2 0.60189387D-02 0.80567865D-01 0.20212281D+05 0.20212281D+05 0.20212281D+05 0.12333216D+01  1  2 15  1  5  1       -1 0.324156674673D-01 0.100000000000D+01
0.429068093419D-03 0.000000000000D+00 0.000000000000D+00 0.243983071263D-02 0.000000000000D+00  5 -1 2 25 24 21 2 0.87448188D-02 0.80567865D-01 0.27354246D+05 0.27354246D+05 0.27354246D+05 0.12191293D+01  1  2 12  1  5  1       -1 0.313805875628D+00 0.100000000000D+01
-.454298912896D-03 0.000000000000D+00 0.000000000000D+00 0.243983071263D-02 0.000000000000D+00  5 -1 2 25 24 21 2 0.60189387D-02 0.80567865D-01 0.20212281D+05 0.20212281D+05 0.20212281D+05 0.12333216D+01  1  2  4  1  5  1       -1 -.592190866109D+00 0.100000000000D+01
-.577148615762D-03 0.000000000000D+00 -.133749818585D-03 0.243983071263D-02 0.000000000000D+00  5 -1 2 25 24 21 2 0.91550314D-02 0.80567865D-01 0.20212281D+05 0.20212281D+05 0.20212281D+05 0.12333216D+01  1  2  5  1  5  1       -1 -.400144692749D+00 0.100000000000D+01
0.591421011359D-03 0.000000000000D+00 0.122791676263D-03 0.243983071263D-02 0.000000000000D+00  5 -1 2 25 24 21 2 0.60189387D-02 0.80567865D-01 0.20212281D+05 0.20212281D+05 0.20212281D+05 0.12333216D+01  1  2  6  1  5  1       -1 0.770933213815D+00 0.100000000000D+01
0.194292394116D-04 0.000000000000D+00 0.000000000000D+00 0.243983071263D-02 0.000000000000D+00  5 21 2 25 24 1 2 0.87448188D-02 0.80567865D-01 0.27354246D+05 0.27354246D+05 0.27354246D+05 0.12191293D+01  1  2 12  3  5  1       -1 0.219441096929D+00 0.100000000000D+01
-.235856174789D-04 0.000000000000D+00 -.659278452121D-05 0.243983071263D-02 0.000000000000D+00  5 21 2 25 24 1 2 0.91550314D-02 0.80567865D-01 0.20212281D+05 0.20212281D+05 0.20212281D+05 0.12333216D+01  1  2  5  3  5  1       -1 -.251217397594D+00 0.100000000000D+01
  </mgrwgt>
  </event>
  <event>
  4     66 0.45252658E-03 0.27391115E+02 0.75467711E-02 0.12081003E+00
       -1 -1    0    0    0  501 0.00000000E+00 0.00000000E+00 0.31170687E+03 0.31170704E+03 0.32000000E+00 0.0000E+00 0.9000E+01
        2 -1    0    0  501    0 0.00000000E+00 0.00000000E+00 -.36522391E+02 0.36523793E+02 0.32000000E+00 0.0000E+00 0.9000E+01
       25  1    1    2    0    0 0.78810885E+01 -.16184713E+02 0.20081992E+03 0.23722921E+03 0.12500000E+03 0.0000E+00 0.9000E+01
       24  1    1    2    0    0 -.78810885E+01 0.16184713E+02 0.74364564E+02 0.11100163E+03 0.80419002E+02 0.0000E+00 0.9000E+01
#aMCatNLO 1  0  0  1  2 0.68408172D+02 0.00000000D+00  -5  5  0 0.00000000D+00 0.00000000D+00 0.00000000D+00 0.00000000D+00 0.00000000D+00
  <mgrwgt>
 0.3241820033D+00    9    2    0
 0.106698421314485D+03 0.000000000000000D+00 0.000000000000000D+00 0.106698421314485D+03
 0.106698421314485D+03 0.000000000000000D+00 0.000000000000000D+00 -.106698421314485D+03
 0.128155589876140D+03 0.788108853061798D+01 -.161847129077766D+02 0.217898767359242D+02
 0.852412527528302D+02 -.788108853061798D+01 0.161847129077766D+02 -.217898767359242D+02
 0.000000000000000D+00 -.000000000000000D+00 0.000000000000000D+00 0.000000000000000D+00
 0.162951517430309D+03 0.000000000000000D+00 0.000000000000000D+00 0.162951517430309D+03
 0.135029253304413D+03 0.000000000000000D+00 0.000000000000000D+00 -.135029253304413D+03
 0.140322869878817D+03 0.298415189576705D+02 -.519633796933913D+02 0.217898767359242D+02
 0.837706161009386D+02 0.594338510014146D+01 -.633858130380448D+01 -.217898767359242D+02
 0.738872847549673D+02 -.357849040578119D+02 0.583019609971957D+02 0.279222641258958D+02
0.452394516141D-03 0.000000000000D+00 0.000000000000D+00 0.300064308073D-02 0.000000000000D+00  5 -1 2 25 24 21 0 0.47955024D-01 0.56189499D-02 0.10888792D+05 0.10888792D+05 0.10888792D+05 0.12640004D+01  1  2  2  1  5  1       -1 0.287111692400D+00 0.100000000000D+01
-.251178845720D-04 0.000000000000D+00 -.173731406019D-05 0.300064308073D-02 0.000000000000D+00  5 -1 2 25 24 21 2 0.47955024D-01 0.56189499D-02 0.10888792D+05 0.10888792D+05 0.10888792D+05 0.12640004D+01  1  2  3  1  5  1       -1 -.254689479499D-01 0.100000000000D+01
0.310111403080D-04 0.000000000000D+00 0.000000000000D+00 0.300064308073D-02 0.000000000000D+00  5 -1 2 25 24 21 2 0.47955024D-01 0.56189499D-02 0.10888792D+05 0.10888792D+05 0.10888792D+05 0.12640004D+01  1  2 15  1  5  1       -1 0.314445715405D-01 0.100000000000D+01
0.511114279774D-04 0.000000000000D+00 0.000000000000D+00 0.300064308073D-02 0.000000000000D+00  5 -1 2 25 24 21 2 0.76895605D-01 0.56189499D-02 0.20723902D+05 0.20723902D+05 0.20723902D+05 0.12321297D+01  1  2 12  1  5  1       -1 0.204558054435D-01 0.100000000000D+01
-.171185282305D-03 0.000000000000D+00 0.000000000000D+00 0.300064308073D-02 0.000000000000D+00  5 -1 2 25 24 21 2 0.47955024D-01 0.56189499D-02 0.10888792D+05 0.10888792D+05 0.10888792D+05 0.12640004D+01  1  2  4  1  5  1       -1 -.173577875649D+00 0.100000000000D+01
-.189437735345D-03 0.000000000000D+00 -.131255326230D-03 0.300064308073D-02 0.000000000000D+00  5 -1 2 25 24 21 2 0.89034809D-01 0.56189499D-02 0.10888792D+05 0.10888792D+05 0.10888792D+05 0.12640004D+01  1  2  5  1  5  1       -1 -.580692433777D-01 0.100000000000D+01
0.244077588333D-03 0.000000000000D+00 0.109596743929D-03 0.300064308073D-02 0.000000000000D+00  5 -1 2 25 24 21 2 0.47955024D-01 0.56189499D-02 0.10888792D+05 0.10888792D+05 0.10888792D+05 0.12640004D+01  1  2  6  1  5  1       -1 0.247488970466D+00 0.100000000000D+01
0.275563264101D-05 0.000000000000D+00 0.000000000000D+00 0.300064308073D-02 0.000000000000D+00  5 21 2 25 24 1 2 0.76895605D-01 0.56189499D-02 0.20723902D+05 0.20723902D+05 0.20723902D+05 0.12321297D+01  1  2 12  3  5  1       -1 0.101892133298D-01 0.100000000000D+01
-.549081183607D-05 0.000000000000D+00 -.885411026219D-05 0.300064308073D-02 0.000000000000D+00  5 21 2 25 24 1 2 0.89034809D-01 0.56189499D-02 0.10888792D+05 0.10888792D+05 0.10888792D+05 0.12640004D+01  1  2  5  3  5  1       -1 -.153921828730D-01 0.100000000000D+01
  </mgrwgt>
  </event>
  <event>
  4     66 0.45252658E-03 0.11979570E+03 0.75467711E-02 0.12418568E+00
       -1 -1    0    0    0  501 0.00000000E+00 0.00000000E+00 0.77257371E+02 0.77258034E+02 0.32000000E+00 0.0000E+00 0.9000E+01
        2 -1    0    0  501    0 0.00000000E+00 0.00000000E+00 -.20211454E+03 0.20211480E+03 0.32000000E+00 0.0000E+00 0.9000E+01
       25  1    1    2    0    0 0.42902698E+02 0.42772664E+02 -.11085623E+03 0.17771957E+03 0.12500000E+03 0.0000E+00 0.9000E+01
       24  1    1    2    0    0 -.42902698E+02 -.42772664E+02 -.14000938E+02 0.10165326E+03 0.80419002E+02 0.0000E+00 0.9000E+01
#aMCatNLO 1  0  0  1  2 0.18989849D+01 0.00000000D+00  -5  5  0 0.00000000D+00 0.00000000D+00 0.00000000D+00 0.00000000D+00 0.00000000D+00
  <mgrwgt>
 0.3623751319D+00    8    2    0
 0.124959858604554D+03 0.000000000000000D+00 0.000000000000000D+00 0.124959858604554D+03
 0.124959858604554D+03 0.000000000000000D+00 0.000000000000000D+00 -.124959858604554D+03
 0.143281310284909D+03 0.429026982188546D+02 0.427726642650778D+02 -.351339088939636D+02
 0.106638406924199D+03 -.429026982188546D+02 -.427726642650778D+02 0.351339088939636D+02
 0.000000000000000D+00 0.000000000000000D+00 0.000000000000000D+00 -.000000000000000D+00
 0.125081722695909D+03 0.000000000000000D+00 0.000000000000000D+00 0.125081722695909D+03
 0.132587006986578D+03 0.000000000000000D+00 0.000000000000000D+00 -.132587006986578D+03
 0.142846642666531D+03 0.419369522351363D+02 0.422736774383082D+02 -.351339088939636D+02
 0.107080289042438D+03 -.436240467279614D+02 -.431453744907713D+02 0.351339088939636D+02
 0.774179797351731D+01 0.168709449282511D+01 0.871697052463045D+00 -.750528429066901D+01
0.344510312134D-03 0.000000000000D+00 0.000000000000D+00 0.250971286913D-02 0.000000000000D+00  5 -1 2 25 24 21 0 0.11885820D-01 0.31094616D-01 0.14351010D+05 0.14351010D+05 0.14351010D+05 0.12500183D+01  1  2  2  1  5  1       -1 0.288695584296D+00 0.100000000000D+01
-.190980109061D-04 0.000000000000D+00 -.132301031024D-05 0.250971286913D-02 0.000000000000D+00  5 -1 2 25 24 21 2 0.11885820D-01 0.31094616D-01 0.14351010D+05 0.14351010D+05 0.14351010D+05 0.12500183D+01  1  2  3  1  5  1       -1 -.250068395010D-01 0.100000000000D+01
0.238040996135D-04 0.000000000000D+00 0.000000000000D+00 0.250971286913D-02 0.000000000000D+00  5 -1 2 25 24 21 2 0.11885820D-01 0.31094616D-01 0.14351010D+05 0.14351010D+05 0.14351010D+05 0.12500183D+01  1  2 15  1  5  1       -1 0.311689684035D-01 0.100000000000D+01
-.446383044032D-04 0.000000000000D+00 0.000000000000D+00 0.250971286913D-02 0.000000000000D+00  5 -1 2 25 24 21 2 0.11885820D-01 0.31094616D-01 0.14351010D+05 0.14351010D+05 0.14351010D+05 0.12500183D+01  1  2  4  1  5  1       -1 -.584491714502D-01 0.100000000000D+01
0.835259444454D-07 0.000000000000D+00 0.000000000000D+00 0.250971286913D-02 0.000000000000D+00  5 -1 2 25 24 21 2 0.12633282D-01 0.31094616D-01 0.14351010D+05 0.14351010D+05 0.14351010D+05 0.12500183D+01  1  2  5  1  5  1       -1 0.995646871856D-04 0.100000000000D+01
-.833708426854D-07 0.000000000000D+00 0.000000000000D+00 0.250971286913D-02 0.000000000000D+00  5 -1 2 25 24 21 2 0.11885820D-01 0.31094616D-01 0.14351010D+05 0.14351010D+05 0.14351010D+05 0.12500183D+01  1  2  6  1  5  1       -1 -.109165362422D-03 0.100000000000D+01
0.446851379644D-04 0.000000000000D+00 0.000000000000D+00 0.250971286913D-02 0.580193712745D-02  5 -1 2 25 24 21 2 0.11897411D-01 0.32992531D-01 0.14581756D+05 0.14581756D+05 0.14581756D+05 0.12492251D+01  1  2 11  1  5  1       -1 0.547853246615D-01 0.100000000000D+01
0.398972003811D-05 0.000000000000D+00 0.000000000000D+00 0.250971286913D-02 0.108993994622D-05  5 21 2 25 24 1 2 0.11897411D-01 0.32992531D-01 0.14581756D+05 0.14581756D+05 0.14581756D+05 0.12492251D+01  1  2 11  3  5  1       -1 0.711908661932D-01 0.100000000000D+01
  </mgrwgt>
  </event>
  <event>
  4     66 0.45252658E-03 0.12017317E+03 0.75467711E-02 0.11558548E+00
       -1 -1    0    0    0  501 0.00000000E+00 0.00000000E+00 0.27999569E+02 0.28001397E+02 0.32000000E+00 0.0000E+00 0.9000E+01
        2 -1    0    0  501    0 0.00000000E+00 0.00000000E+00 -.10999117E+04 0.10999118E+04 0.32000000E+00 0.0000E+00 0.9000E+01
       25  1    1    2    0    0 0.48573529E+02 0.13240322E+03 -.59403076E+03 0.62320747E+03 0.12500000E+03 0.0000E+00 0.9000E+01
       24  1    1    2    0    0 -.48573529E+02 -.13240322E+03 -.47788138E+03 0.50470569E+03 0.80419002E+02 0.0000E+00 0.9000E+01
#aMCatNLO 1  0  0  1  2 0.33444673D+02 0.00000000D+00  -5  5  0 0.00000000D+00 0.00000000D+00 0.00000000D+00 0.00000000D+00 0.00000000D+00
  <mgrwgt>
 0.3833584645D+00    9    2    0
 0.175493905416999D+03 0.000000000000000D+00 0.000000000000000D+00 0.175493905416999D+03
 0.175493905416999D+03 0.000000000000000D+00 0.000000000000000D+00 -.175493905416999D+03
 0.188539634873912D+03 0.485735287319689D+02 0.132403222901328D+03 -.567386907269954D+01
 0.162448175960085D+03 -.485735287319689D+02 -.132403222901328D+03 0.567386907269954D+01
 0.000000000000000D+00 0.000000000000000D+00 -.000000000000000D+00 0.000000000000000D+00
 0.194600193008812D+03 0.000000000000000D+00 0.000000000000000D+00 0.194600193008812D+03
 0.191560011067196D+03 0.000000000000000D+00 0.000000000000000D+00 -.191560011067196D+03
 0.195337208335940D+03 0.359883151371125D+02 0.145616871769092D+03 -.567386907269954D+01
 0.157240427818186D+03 -.590543624513176D+02 -.121399034886156D+03 0.567386907269954D+01
 0.335825679218818D+02 0.230660473142051D+02 -.242178368829366D+02 0.304018194161657D+01
0.549209499856D-03 0.000000000000D+00 0.000000000000D+00 0.225170773110D-02 0.000000000000D+00  5 -1 2 25 24 21 0 0.43077702D-02 0.16921733D+00 0.30765739D+05 0.30765739D+05 0.30765739D+05 0.12137512D+01  1  2  2  1  5  1       -1 0.309787125518D+00 0.100000000000D+01
-.305116286236D-04 0.000000000000D+00 -.210910908963D-05 0.225170773110D-02 0.000000000000D+00  5 -1 2 25 24 21 2 0.43077702D-02 0.16921733D+00 0.30765739D+05 0.30765739D+05 0.30765739D+05 0.12137512D+01  1  2  3  1  5  1       -1 -.253542103299D-01 0.100000000000D+01
0.376938045963D-04 0.000000000000D+00 0.000000000000D+00 0.225170773110D-02 0.000000000000D+00  5 -1 2 25 24 21 2 0.43077702D-02 0.16921733D+00 0.30765739D+05 0.30765739D+05 0.30765739D+05 0.12137512D+01  1  2 15  1  5  1       -1 0.313223742219D-01 0.100000000000D+01
0.483249702138D-03 0.000000000000D+00 0.000000000000D+00 0.225170773110D-02 0.000000000000D+00  5 -1 2 25 24 21 2 0.49546906D-02 0.16921733D+00 0.37217642D+05 0.37217642D+05 0.37217642D+05 0.12051929D+01  1  2 12  1  5  1       -1 0.322453296191D+00 0.100000000000D+01
-.409470880778D-03 0.000000000000D+00 0.000000000000D+00 0.225170773110D-02 0.000000000000D+00  5 -1 2 25 24 21 2 0.43077702D-02 0.16921733D+00 0.30765739D+05 0.30765739D+05 0.30765739D+05 0.12137512D+01  1  2  4  1  5  1       -1 -.340257511760D+00 0.100000000000D+01
-.134269660113D-02 0.000000000000D+00 -.368819222188D-03 0.225170773110D-02 0.000000000000D+00  5 -1 2 25 24 21 2 0.52368180D-02 0.16921733D+00 0.30765739D+05 0.30765739D+05 0.30765739D+05 0.12137512D+01  1  2  5  1  5  1       -1 -.834641475313D+00 0.100000000000D+01
0.139496160024D-02 0.000000000000D+00 0.361895974207D-03 0.225170773110D-02 0.000000000000D+00  5 -1 2 25 24 21 2 0.43077702D-02 0.16921733D+00 0.30765739D+05 0.30765739D+05 0.30765739D+05 0.12137512D+01  1  2  6  1  5  1       -1 0.115916951700D+01 0.100000000000D+01
0.104157793847D-04 0.000000000000D+00 0.000000000000D+00 0.225170773110D-02 0.000000000000D+00  5 21 2 25 24 1 2 0.49546906D-02 0.16921733D+00 0.37217642D+05 0.37217642D+05 0.37217642D+05 0.12051929D+01  1  2 12  3  5  1       -1 0.120389356602D+00 0.100000000000D+01
-.336500234467D-04 0.000000000000D+00 -.103629914409D-04 0.225170773110D-02 0.000000000000D+00  5 21 2 25 24 1 2 0.52368180D-02 0.16921733D+00 0.30765739D+05 0.30765739D+05 0.30765739D+05 0.12137512D+01  1  2  5  3  5  1       -1 -.359510007658D+00 0.100000000000D+01
  </mgrwgt>
  </event>
  <event>
  5     66 0.45252658E-03 0.10843754E+03 0.75467711E-02 0.11724144E+00
       -1 -1    0    0    0  502 0.00000000E+00 0.00000000E+00 0.15666962E+03 0.15666995E+03 0.32000000E+00 0.0000E+00 0.9000E+01
        2 -1    0    0  501    0 0.00000000E+00 0.00000000E+00 -.24120749E+03 0.24120770E+03 0.32000000E+00 0.0000E+00 0.9000E+01
       25  1    1    2    0    0 0.75706686E+02 0.26033460E+02 0.30810466E+02 0.15160319E+03 0.12500000E+03 0.0000E+00 0.9000E+01
       24  1    1    2    0    0 0.32482924E+02 -.35230144E+02 -.99373404E+02 0.13652323E+03 0.80419002E+02 0.0000E+00 0.9000E+01
       21  1    1    2  501  502 -.10818961E+03 0.91966847E+01 -.15974932E+02 0.10975123E+03 0.75000000E+00 0.0000E+00 0.9000E+01
#aMCatNLO 2  0  0  1  2 0.10857979D+03 0.00000000D+00  -5  5  0 0.00000000D+00 0.00000000D+00 0.00000000D+00 0.00000000D+00 0.00000000D+00
  <mgrwgt>
 0.3610249431D-01    1    2    0
 0.128963550432179D+03 0.000000000000000D+00 0.000000000000000D+00 0.128963550432179D+03
 0.128963550432179D+03 0.000000000000000D+00 0.000000000000000D+00 -.128963550432179D+03
 0.146716210030454D+03 0.132703642775038D+02 0.313408746533849D+02 0.688643107393326D+02
 0.111210890833905D+03 -.132703642775038D+02 -.313408746533849D+02 -.688643107393326D+02
 0.000000000000000D+00 -.000000000000000D+00 0.000000000000000D+00 0.000000000000000D+00
 0.199686025551351D+03 0.000000000000000D+00 0.000000000000000D+00 0.199686025551351D+03
 0.189244545314893D+03 0.000000000000000D+00 0.000000000000000D+00 -.189244545314893D+03
 0.163635377111484D+03 0.757066861694810D+02 0.260334595866534D+02 0.688643107393326D+02
 0.116214511417812D+03 0.324829239597703D+02 -.352301442961923D+02 -.688643107393326D+02
 0.109080682336949D+03 -.108189610129251D+03 0.919668470953890D+01 0.104414802364580D+02
0.106453034326D-03 0.000000000000D+00 0.000000000000D+00 0.197192252890D-02 0.162911126503D-05  5 -1 2 25 24 21 2 0.24102900D-01 0.37108640D-01 0.30735844D+05 0.30735844D+05 0.30735844D+05 0.12137954D+01  1  2  1  1  5  1       -1 0.361024943090D-01 0.100000000000D+01
  </mgrwgt>
  </event>
  <event>
  5     66 0.45252658E-03 0.13171877E+03 0.75467711E-02 0.11459948E+00
       -1 -1    0    0    0  502 0.00000000E+00 0.00000000E+00 0.75779743E+03 0.75779750E+03 0.32000000E+00 0.0000E+00 0.9000E+01
        2 -1    0    0  501    0 0.00000000E+00 0.00000000E+00 -.83337812E+02 0.83338426E+02 0.32000000E+00 0.0000E+00 0.9000E+01
       25  1    1    2    0    0 0.81399126E+02 -.13326527E+03 0.10986142E+03 0.22821039E+03 0.12500000E+03 0.0000E+00 0.9000E+01
       24  1    1    2    0    0 -.10922927E+02 0.35799555E+02 0.10307882E+03 0.13599036E+03 0.80419002E+02 0.0000E+00 0.9000E+01
       21  1    1    2  501  502 -.70476199E+02 0.97465720E+02 0.46151938E+03 0.47693517E+03 0.75000000E+00 0.0000E+00 0.9000E+01
#aMCatNLO 2  0  0  1  2 0.12027660D+03 0.00000000D+00  -5  5  0 0.00000000D+00 0.00000000D+00 0.00000000D+00 0.00000000D+00 0.00000000D+00
  <mgrwgt>
 0.3548844917D-01    2    2    0
 0.134937188084768D+03 0.000000000000000D+00 0.000000000000000D+00 0.134937188084768D+03
 0.134937188084768D+03 0.000000000000000D+00 0.000000000000000D+00 -.134937188084768D+03
 0.151903941608409D+03 0.372651632049291D+02 -.722297969789972D+02 -.290511878561566D+02
 0.117970434561128D+03 -.372651632049291D+02 0.722297969789972D+02 0.290511878561566D+02
 0.000000000000000D+00 -.000000000000000D+00 0.000000000000000D+00 0.000000000000000D+00
 0.387948238116329D+03 0.000000000000000D+00 0.000000000000000D+00 0.387948238116329D+03
 0.162787363945264D+03 0.000000000000000D+00 0.000000000000000D+00 -.162787363945264D+03
 0.202124770117438D+03 0.813991264529882D+02 -.133265274516147D+03 -.290511878561566D+02
 0.933386626217135D+02 -.109229270524277D+02 0.357995549468589D+02 0.290511878561566D+02
 0.255272169322441D+03 -.704761994005606D+02 0.974657195692878D+02 0.225160874171066D+03
-.712206099752D-05 0.000000000000D+00 0.000000000000D+00 0.245151450800D-02 0.000000000000D+00  5 -1 2 25 24 21 2 0.11263587D+00 0.10627720D-01 0.41821320D+05 0.41821320D+05 0.41821320D+05 0.12000415D+01  1  2 13  1  5  1       -1 -.532950004587D-03 0.100000000000D+01
0.655670386574D-03 0.000000000000D+00 0.000000000000D+00 0.245151450800D-02 0.194608027417D-05  5 -1 2 25 24 21 2 0.11658391D+00 0.12821214D-01 0.41821320D+05 0.41821320D+05 0.41821320D+05 0.12000415D+01  1  2  1  1  5  1       -1 0.360213991701D-01 0.100000000000D+01
  </mgrwgt>
  </event>
  <event>
  4     66 0.45252658E-03 0.12226703E+03 0.75467711E-02 0.12179705E+00
       -1 -1    0    0    0  501 0.00000000E+00 0.00000000E+00 0.21299815E+02 0.21302219E+02 0.32000000E+00 0.0000E+00 0.9000E+01
        2 -1    0    0  501    0 0.00000000E+00 0.00000000E+00 -.10252610E+04 0.10252610E+04 0.32000000E+00 0.0000E+00 0.9000E+01
       25  1    1    2    0    0 -.24946509E+02 0.60261219E+02 -.26305612E+03 0.29845815E+03 0.12500000E+03 0.0000E+00 0.9000E+01
       24  1    1    2    0    0 0.24946509E+02 -.60261219E+02 -.74090505E+03 0.74810511E+03 0.80419002E+02 0.0000E+00 0.9000E+01
#aMCatNLO 1  0  0  1  2 0.27710448D+02 0.00000000D+00  -5  5  0 0.00000000D+00 0.00000000D+00 0.00000000D+00 0.00000000D+00 0.00000000D+00
  <mgrwgt>
 0.1581970774D+00    4    2    0
 0.147780760829323D+03 0.000000000000000D+00 0.000000000000000D+00 0.147780760829323D+03
 0.147780760829323D+03 0.000000000000000D+00 0.000000000000000D+00 -.147780760829323D+03
 0.163272939909735D+03 -.249465086975363D+02 0.602612189860050D+02 0.823365659770454D+02
 0.132288581748911D+03 0.249465086975363D+02 -.602612189860050D+02 -.823365659770454D+02
 0.000000000000000D+00 -.000000000000000D+00 -.000000000000000D+00 -.000000000000000D+00
 0.157919415863914D+03 0.000000000000000D+00 0.000000000000000D+00 0.157919415863914D+03
 0.168655981702361D+03 0.000000000000000D+00 0.000000000000000D+00 -.168655981702361D+03
 0.168388366759933D+03 -.192605500569428D+02 0.746951348796519D+02 0.823365659770454D+02
 0.128469312936213D+03 0.294169083931649D+02 -.489130229655443D+02 -.823365659770454D+02
 0.297177178701298D+02 -.101563583362221D+02 -.257821119141076D+02 -.107365658384472D+02
0.380552436493D-03 0.000000000000D+00 0.000000000000D+00 0.174101129432D-02 0.000000000000D+00  5 -1 2 25 24 21 0 0.32770834D-02 0.15773265D+00 0.14949226D+05 0.14949226D+05 0.14949226D+05 0.12479904D+01  1  2  2  1  5  1       -1 0.349124929177D+00 0.100000000000D+01
-.202184981534D-04 0.000000000000D+00 -.146142155789D-05 0.174101129432D-02 0.000000000000D+00  5 -1 2 25 24 21 2 0.32770834D-02 0.15773265D+00 0.14949226D+05 0.14949226D+05 0.14949226D+05 0.12479904D+01  1  2  3  1  5  1       -1 -.288893495019D-01 0.100000000000D+01
0.259078319399D-04 0.000000000000D+00 0.000000000000D+00 0.174101129432D-02 0.000000000000D+00  5 -1 2 25 24 21 2 0.32770834D-02 0.15773265D+00 0.14949226D+05 0.14949226D+05 0.14949226D+05 0.12479904D+01  1  2 15  1  5  1       -1 0.370185958457D-01 0.100000000000D+01
-.139312086982D-03 0.000000000000D+00 0.000000000000D+00 0.174101129432D-02 0.000000000000D+00  5 -1 2 25 24 21 2 0.32770834D-02 0.15773265D+00 0.14949226D+05 0.14949226D+05 0.14949226D+05 0.12479904D+01  1  2  4  1  5  1       -1 -.199057098115D+00 0.100000000000D+01
  </mgrwgt>
  </event>
  <event>
  4     66 0.45252658E-03 0.15424137E+03 0.75467711E-02 0.10887131E+00
       -1 -1    0    0    0  501 0.00000000E+00 0.00000000E+00 0.17387394E+03 0.17387424E+03 0.32000000E+00 0.0000E+00 0.9000E+01
        2 -1    0    0  501    0 0.00000000E+00 0.00000000E+00 -.13689768E+03 0.13689806E+03 0.32000000E+00 0.0000E+00 0.9000E+01
       25  1    1    2    0    0 0.11379418E+03 0.39370222E+01 0.23830969E+02 0.17075576E+03 0.12500000E+03 0.0000E+00 0.9000E+01
       24  1    1    2    0    0 -.11379418E+03 -.39370222E+01 0.13145290E+02 0.14001653E+03 0.80419002E+02 0.0000E+00 0.9000E+01
#aMCatNLO 1  0  0  2  2 0.21200449D+03 0.00000000D+00  -5  5  0 0.00000000D+00 0.00000000D+00 0.00000000D+00 0.00000000D+00 0.00000000D+00
  <mgrwgt>
 0.3452054343D+00    5    2    0
 0.154282349257373D+03 0.000000000000000D+00 0.000000000000000D+00 0.154282349257373D+03
 0.154282349257373D+03 0.000000000000000D+00 0.000000000000000D+00 -.154282349257373D+03
 0.169121674834327D+03 0.113794175082886D+03 0.393702216345497D+01 0.353927569675556D+01
 0.139443023680420D+03 -.113794175082886D+03 -.393702216345497D+01 -.353927569675556D+01
 0.000000000000000D+00 0.000000000000000D+00 -.000000000000000D+00 -.000000000000000D+00
 0.250769908217761D+03 0.000000000000000D+00 0.000000000000000D+00 0.250769908217761D+03
 0.363914160147060D+03 0.000000000000000D+00 0.000000000000000D+00 -.363914160147060D+03
 0.144458114971759D+03 0.361446833269946D+02 0.626432947403595D+02 0.353927569675556D+01
 0.229918804012599D+03 -.205256568791760D+03 0.652123836367692D+02 -.353927569675556D+01
 0.240307149380463D+03 0.169111885464765D+03 -.127855678377129D+03 -.113144251929299D+03
0.871517554364D-03 0.000000000000D+00 0.000000000000D+00 0.237546384471D-02 0.000000000000D+00  5 -1 2 25 24 21 0 0.26749888D-01 0.21061233D-01 0.23790400D+05 0.23790400D+05 0.23790400D+05 0.12256136D+01  1  2  2  2  5  2        2 0.312983211612D+00 0.100000000000D+01
-.484176377545D-04 0.000000000000D+00 -.334685688460D-05 0.237546384471D-02 0.000000000000D+00  5 -1 2 25 24 21 2 0.26749888D-01 0.21061233D-01 0.23790400D+05 0.23790400D+05 0.23790400D+05 0.12256136D+01  1  2  3  2  5  2        2 -.261189445223D-01 0.100000000000D+01
0.602432765126D-04 0.000000000000D+00 0.000000000000D+00 0.237546384471D-02 0.000000000000D+00  5 -1 2 25 24 21 2 0.26749888D-01 0.21061233D-01 0.23790400D+05 0.23790400D+05 0.23790400D+05 0.12256136D+01  1  2 15  2  5  2        2 0.324982975223D-01 0.100000000000D+01
0.133880991040D-03 0.000000000000D+00 -.365559841914D-03 0.237546384471D-02 0.000000000000D+00  5 -1 2 25 24 21 2 0.26749888D-01 0.76368693D-01 0.23790400D+05 0.23790400D+05 0.23790400D+05 0.12256136D+01  1  2  5  2  5  2        2 0.178961664581D-01 0.100000000000D+01
0.301400043066D-04 0.000000000000D+00 -.554075899662D-04 0.237546384471D-02 0.000000000000D+00  5 -1 21 25 24 -2 2 0.26749888D-01 0.76368693D-01 0.23790400D+05 0.23790400D+05 0.23790400D+05 0.12256136D+01  1  2  5  4  5  2        2 0.794670327635D-02 0.100000000000D+01
  </mgrwgt>
  </event>
  <event>
  4     66 0.45252658E-03 0.19721487E+03 0.75467711E-02 0.10987008E+00
       -1 -1    0    0    0  501 0.00000000E+00 0.00000000E+00 0.18665341E+02 0.18668083E+02 0.32000000E+00 0.0000E+00 0.9000E+01
        2 -1    0    0  501    0 0.00000000E+00 0.00000000E+00 -.23522505E+04 0.23522505E+04 0.32000000E+00 0.0000E+00 0.9000E+01
       25  1    1    2    0    0 -.16451139E+03 -.30304580E+02 -.16276525E+04 0.16409936E+04 0.12500000E+03 0.0000E+00 0.9000E+01
       24  1    1    2    0    0 0.16451139E+03 0.30304580E+02 -.70593265E+03 0.72992499E+03 0.80419002E+02 0.0000E+00 0.9000E+01
#aMCatNLO 1  0  0  1  2 0.13286771D+03 0.00000000D+00  -5  5  0 0.00000000D+00 0.00000000D+00 0.00000000D+00 0.00000000D+00 0.00000000D+00
  <mgrwgt>
 0.2982684442D+00    4    2    0
 0.209544346988645D+03 0.000000000000000D+00 0.000000000000000D+00 0.209544346988645D+03
 0.209544346988645D+03 0.000000000000000D+00 0.000000000000000D+00 -.209544346988645D+03
 0.220470177459898D+03 -.164511386532559D+03 -.303045802577854D+02 -.707088061399252D+02
 0.198618516517392D+03 0.164511386532559D+03 0.303045802577854D+02 0.707088061399252D+02
 0.000000000000000D+00 -.000000000000000D+00 0.000000000000000D+00 -.000000000000000D+00
 0.279095926961732D+03 0.000000000000000D+00 0.000000000000000D+00 0.279095926961732D+03
 0.294283623399500D+03 0.000000000000000D+00 0.000000000000000D+00 -.294283623399500D+03
 0.228310935138866D+03 -.148122119366735D+03 -.977802924548540D+02 -.707088061399252D+02
 0.211335696617817D+03 0.179482714282787D+03 -.313333802599925D+02 0.707088061399252D+02
 0.133732918604549D+03 -.313605949160522D+02 0.129113672714847D+03 -.151876964377681D+02
0.179690090553D-02 0.000000000000D+00 0.000000000000D+00 0.190518476521D-02 0.000000000000D+00  5 -1 2 25 24 21 0 0.28718035D-02 0.36188490D+00 0.38893706D+05 0.38893706D+05 0.38893706D+05 0.12032392D+01  1  2  2  1  5  1       -1 0.399441353589D+00 0.100000000000D+01
-.993814800389D-04 0.000000000000D+00 -.690057261210D-05 0.190518476521D-02 0.000000000000D+00  5 -1 2 25 24 21 2 0.28718035D-02 0.36188490D+00 0.38893706D+05 0.38893706D+05 0.38893706D+05 0.12032392D+01  1  2  3  1  5  1       -1 -.319844053485D-01 0.100000000000D+01
0.122952245161D-03 0.000000000000D+00 0.000000000000D+00 0.190518476521D-02 0.000000000000D+00  5 -1 2 25 24 21 2 0.28718035D-02 0.36188490D+00 0.38893706D+05 0.38893706D+05 0.38893706D+05 0.12032392D+01  1  2 15  1  5  1       -1 0.395702946484D-01 0.100000000000D+01
-.337933760554D-03 0.000000000000D+00 0.000000000000D+00 0.190518476521D-02 0.000000000000D+00  5 -1 2 25 24 21 2 0.28718035D-02 0.36188490D+00 0.38893706D+05 0.38893706D+05 0.38893706D+05 0.12032392D+01  1  2  4  1  5  1       -1 -.108758798664D+00 0.100000000000D+01
  </mgrwgt>
  </event>
  <event>
  5     66 -.45252658E-03 0.28963937E+03 0.75467711E-02 0.10695083E+00
       -1 -1    0    0    0  502 0.00000000E+00 0.00000000E+00 0.46591200E+02 0.46592299E+02 0.32000000E+00 0.0000E+00 0.9000E+01
        2 -1    0    0  501    0 0.00000000E+00 0.00000000E+00 -.24390627E+04 0.24390627E+04 0.32000000E+00 0.0000E+00 0.9000E+01
       25  1    1    2    0    0 -.23264227E+03 -.46938248E+02 -.79940584E+03 0.84320835E+03 0.12500000E+03 0.0000E+00 0.9000E+01
       24  1    1    2    0    0 0.30628401E+03 0.10077374E+02 -.12975408E+04 0.13356612E+04 0.80419002E+02 0.0000E+00 0.9000E+01
       21  1    1    2  501  502 -.73641744E+02 0.36860875E+02 -.29552486E+03 0.30678549E+03 0.75000000E+00 0.0000E+00 0.9000E+01
#aMCatNLO 2  0  0  1  2 0.82351870D+02 0.00000000D+00  -5  5  0 0.00000000D+00 0.00000000D+00 0.00000000D+00 0.00000000D+00 0.00000000D+00
  <mgrwgt>
 -.6081086988D-01    2    2    0
 0.293046665142322D+03 0.000000000000000D+00 0.000000000000000D+00 0.293046665142322D+03
 0.293046665142322D+03 0.000000000000000D+00 0.000000000000000D+00 -.293046665142322D+03
 0.300859229773609D+03 -.268450131472603D+03 -.290148651298955D+02 0.445414487169574D+02
 0.285234100511036D+03 0.268450131472603D+03 0.290148651298955D+02 -.445414487169574D+02
 0.000000000000000D+00 -.000000000000000D+00 0.000000000000000D+00 -.000000000000000D+00
 0.336599751837953D+03 0.000000000000000D+00 0.000000000000000D+00 0.336599751837953D+03
 0.337608978182054D+03 0.000000000000000D+00 0.000000000000000D+00 -.337608978182054D+03
 0.271909110009927D+03 -.232642266771252D+03 -.469382484134085D+02 0.445414487169574D+02
 0.319941565728016D+03 0.306284011022279D+03 0.100773738852553D+02 -.445414487169574D+02
 0.823580542820646D+02 -.736417442510266D+02 0.368608745281532D+02 -.100922634410139D+01
-.178219924056D-02 0.000000000000D+00 0.000000000000D+00 0.196940462012D-02 0.000000000000D+00  5 -1 2 25 24 21 2 0.75758488D-02 0.32570941D+00 0.11136034D+06 0.11136034D+06 0.11136034D+06 0.11593031D+01  1  2 13  1  5  1       -1 -.162978419806D+00 0.100000000000D+01
0.153143349842D-02 0.000000000000D+00 0.000000000000D+00 0.196940462012D-02 0.209909796396D-05  5 -1 2 25 24 21 2 0.71679268D-02 0.37523860D+00 0.11136034D+06 0.11136034D+06 0.11136034D+06 0.11593031D+01  1  2  1  1  5  1       -1 0.102167549930D+00 0.100000000000D+01
  </mgrwgt>
  </event>
  <event>
  4     66 0.45252658E-03 0.70717959E+02 0.75467711E-02 0.11202690E+00
       -1 -1    0    0    0  501 0.00000000E+00 0.00000000E+00 0.77647462E+02 0.77648122E+02 0.32000000E+00 0.0000E+00 0.9000E+01
        2 -1    0    0  501    0 0.00000000E+00 0.00000000E+00 -.47568542E+03 0.47568553E+03 0.32000000E+00 0.0000E+00 0.9000E+01
       25  1    1    2    0    0 -.10355538E+02 0.15133040E+03 -.13219638E+03 0.23687341E+03 0.12500000E+03 0.0000E+00 0.9000E+01
       24  1    1    2    0    0 0.10355538E+02 -.15133040E+03 -.26584158E+03 0.31646024E+03 0.80419002E+02 0.0000E+00 0.9000E+01
#aMCatNLO 1  0  0  1  2 0.97636936D+02 0.00000000D+00  -5  5  0 0.00000000D+00 0.00000000D+00 0.00000000D+00 0.00000000D+00 0.00000000D+00
  <mgrwgt>
 0.2175812319D+00    7    2    0
 0.192187351230394D+03 0.000000000000000D+00 0.000000000000000D+00 0.192187351230394D+03
 0.192187351230394D+03 0.000000000000000D+00 0.000000000000000D+00 -.192187351230394D+03
 0.204099925063949D+03 -.103555378211095D+02 0.151330398984385D+03 0.549877494608752D+02
 0.180274777396840D+03 0.103555378211095D+02 -.151330398984385D+03 -.549877494608752D+02
 0.000000000000000D+00 -.000000000000000D+00 -.000000000000000D+00 0.000000000000000D+00
 0.450623009729923D+03 0.000000000000000D+00 0.000000000000000D+00 0.450623009729923D+03
 0.207735608014977D+03 0.000000000000000D+00 0.000000000000000D+00 -.207735608014977D+03
 0.212735084620482D+03 0.413564293818865D+02 0.157788495735565D+03 0.549877494608752D+02
 0.183846411743627D+03 0.555279023137243D+02 -.145689006553350D+03 -.549877494608752D+02
 0.261777121380791D+03 -.968843316956108D+02 -.120994891822150D+02 0.242887401714947D+03
0.957529598778D-03 0.000000000000D+00 0.000000000000D+00 0.201854285532D-02 0.000000000000D+00  5 -1 2 25 24 21 0 0.11945822D-01 0.73182431D-01 0.33899615D+05 0.33899615D+05 0.33899615D+05 0.12093673D+01  1  2  2  1  5  1       -1 0.325800362032D+00 0.100000000000D+01
-.530771022314D-04 0.000000000000D+00 -.367716578264D-05 0.201854285532D-02 0.000000000000D+00  5 -1 2 25 24 21 2 0.11945822D-01 0.73182431D-01 0.33899615D+05 0.33899615D+05 0.33899615D+05 0.12093673D+01  1  2  3  1  5  1       -1 -.264133201597D-01 0.100000000000D+01
0.658121685067D-04 0.000000000000D+00 0.000000000000D+00 0.201854285532D-02 0.000000000000D+00  5 -1 2 25 24 21 2 0.11945822D-01 0.73182431D-01 0.33899615D+05 0.33899615D+05 0.33899615D+05 0.12093673D+01  1  2 15  1  5  1       -1 0.327508059802D-01 0.100000000000D+01
0.935629967778D-03 0.000000000000D+00 0.000000000000D+00 0.201854285532D-02 0.000000000000D+00  5 -1 2 25 24 21 2 0.27818953D-01 0.73182431D-01 0.57258038D+05 0.57258038D+05 0.57258038D+05 0.11864955D+01  1  2 12  1  5  1       -1 0.115145121093D+00 0.100000000000D+01
-.152445200658D-02 0.000000000000D+00 -.268407134819D-03 0.201854285532D-02 0.000000000000D+00  5 -1 2 25 24 21 2 0.29807028D-01 0.73182431D-01 0.33899615D+05 0.33899615D+05 0.33899615D+05 0.12093673D+01  1  2  5  1  5  1       -1 -.173500956288D+00 0.100000000000D+01
0.861987161954D-04 0.000000000000D+00 0.000000000000D+00 0.201854285532D-02 0.000000000000D+00  5 21 2 25 24 1 2 0.27818953D-01 0.73182431D-01 0.57258038D+05 0.57258038D+05 0.57258038D+05 0.11864955D+01  1  2 12  3  5  1       -1 0.122020920652D+00 0.100000000000D+01
-.136784224498D-03 0.000000000000D+00 -.270068783972D-04 0.201854285532D-02 0.000000000000D+00  5 21 2 25 24 1 2 0.29807028D-01 0.73182431D-01 0.33899615D+05 0.33899615D+05 0.33899615D+05 0.12093673D+01  1  2  5  3  5  1       -1 -.178221701439D+00 0.100000000000D+01
  </mgrwgt>
  </event>
  <event>
  4     66 0.45252658E-03 0.15763173E+03 0.75467711E-02 0.11065492E+00
       -1 -1    0    0    0  501 0.00000000E+00 0.00000000E+00 0.27302027E+02 0.27303902E+02 0.32000000E+00 0.0000E+00 0.9000E+01
        2 -1    0    0  501    0 0.00000000E+00 0.00000000E+00 -.94687296E+03 0.94687302E+03 0.32000000E+00 0.0000E+00 0.9000E+01
       25  1    1    2    0    0 -.71912284E+01 0.11815620E+03 -.59613493E+03 0.62049533E+03 0.12500000E+03 0.0000E+00 0.9000E+01
       24  1    1    2    0    0 0.71912284E+01 -.11815620E+03 -.32343600E+03 0.35368159E+03 0.80419002E+02 0.0000E+00 0.9000E+01
#aMCatNLO 1  0  0  2  2 0.16601250D+03 0.00000000D+00  -5  5  0 0.00000000D+00 0.00000000D+00 0.00000000D+00 0.00000000D+00 0.00000000D+00
  <mgrwgt>
 0.4962077772D+00    3    2    0
 0.160787098618958D+03 0.000000000000000D+00 0.000000000000000D+00 0.160787098618958D+03
 0.160787098618958D+03 0.000000000000000D+00 0.000000000000000D+00 -.160787098618958D+03
 0.175026089377993D+03 -.719122836939214D+01 0.118156196042991D+03 -.315678877047970D+02
 0.146548107859923D+03 0.719122836939214D+01 -.118156196042991D+03 0.315678877047970D+02
 0.000000000000000D+00 0.000000000000000D+00 0.000000000000000D+00 0.000000000000000D+00
 0.413106882353972D+03 0.000000000000000D+00 0.000000000000000D+00 0.413106882353972D+03
 0.210627205394000D+03 0.000000000000000D+00 0.000000000000000D+00 -.210627205394000D+03
 0.136144967995133D+03 -.986595991536078D+01 0.426213985129711D+02 -.315678877047970D+02
 0.225752967226108D+03 0.399104182718241D+01 -.208529917057512D+03 0.315678877047970D+02
 0.261836152526731D+03 0.587491808817837D+01 0.165908518544541D+03 0.202479676959972D+03
0.675944563558D-03 0.000000000000D+00 0.000000000000D+00 0.224958527702D-02 0.000000000000D+00  5 -1 2 25 24 21 0 0.42004603D-02 0.14567291D+00 0.24847761D+05 0.24847761D+05 0.24847761D+05 0.12235822D+01  1  2  2  2  5  2        2 0.486454396213D+00 0.100000000000D+01
-.375345403107D-04 0.000000000000D+00 -.259580510435D-05 0.224958527702D-02 0.000000000000D+00  5 -1 2 25 24 21 2 0.42004603D-02 0.14567291D+00 0.24847761D+05 0.24847761D+05 0.24847761D+05 0.12235822D+01  1  2  3  2  5  2        2 -.404416085655D-01 0.100000000000D+01
0.465868180385D-04 0.000000000000D+00 0.000000000000D+00 0.224958527702D-02 0.000000000000D+00  5 -1 2 25 24 21 2 0.42004603D-02 0.14567291D+00 0.24847761D+05 0.24847761D+05 0.24847761D+05 0.12235822D+01  1  2 15  2  5  2        2 0.501949895705D-01 0.100000000000D+01
  </mgrwgt>
  </event>
  <event>
  4     66 0.45252658E-03 0.35861389E+02 0.75467711E-02 0.12230279E+00
       -1 -1    0    0    0  501 0.00000000E+00 0.00000000E+00 0.40624636E+02 0.40625897E+02 0.32000000E+00 0.0000E+00 0.9000E+01
        2 -1    0    0  501    0 0.00000000E+00 0.00000000E+00 -.30788901E+03 0.30788918E+03 0.32000000E+00 0.0000E+00 0.9000E+01
       25  1    1    2    0    0 -.22980491E+02 -.36769203E+02 -.15653753E+03 0.20496116E+03 0.12500000E+03 0.0000E+00 0.9000E+01
       24  1    1    2    0    0 0.22980491E+02 0.36769203E+02 -.11072685E+03 0.14355392E+03 0.80419002E+02 0.0000E+00 0.9000E+01
#aMCatNLO 1  0  0  1  2 0.39012773D+02 0.00000000D+00  -5  5  0 0.00000000D+00 0.00000000D+00 0.00000000D+00 0.00000000D+00 0.00000000D+00
  <mgrwgt>
 0.3293700618D+00    9    2    0
 0.111839741349822D+03 0.000000000000000D+00 0.000000000000000D+00 0.111839741349822D+03
 0.111839741349822D+03 0.000000000000000D+00 0.000000000000000D+00 -.111839741349822D+03
 0.132310514831372D+03 -.229804909001378D+02 -.367692033197278D+02 0.997527024127660D+00
 0.913689678682713D+02 0.229804909001378D+02 0.367692033197278D+02 -.997527024127660D+00
 0.000000000000000D+00 -.000000000000000D+00 0.000000000000000D+00 0.000000000000000D+00
 0.146403199752615D+03 0.000000000000000D+00 0.000000000000000D+00 0.146403199752615D+03
 0.125102166670108D+03 0.000000000000000D+00 0.000000000000000D+00 -.125102166670108D+03
 0.136179724112404D+03 -.693563675921554D+01 -.535800255870679D+02 0.997527024127660D+00
 0.908764526976912D+02 0.338713940567483D+02 0.253583774132687D+02 -.997527024127660D+00
 0.444491896126277D+02 -.269357572975328D+02 0.282216481737993D+02 0.213010330825064D+02
0.181768924700D-03 0.000000000000D+00 0.000000000000D+00 0.296287330938D-02 0.000000000000D+00  5 -1 2 25 24 21 0 0.62500538D-02 0.47367650D-01 0.12507098D+05 0.12507098D+05 0.12507098D+05 0.12569229D+01  1  2  2  1  5  1       -1 0.255609416929D+00 0.100000000000D+01
-.100982735736D-04 0.000000000000D+00 -.698040531705D-06 0.296287330938D-02 0.000000000000D+00  5 -1 2 25 24 21 2 0.62500538D-02 0.47367650D-01 0.12507098D+05 0.12507098D+05 0.12507098D+05 0.12569229D+01  1  2  3  1  5  1       -1 -.224347686705D-01 0.100000000000D+01
0.125730117363D-04 0.000000000000D+00 0.000000000000D+00 0.296287330938D-02 0.000000000000D+00  5 -1 2 25 24 21 2 0.62500538D-02 0.47367650D-01 0.12507098D+05 0.12507098D+05 0.12507098D+05 0.12569229D+01  1  2 15  1  5  1       -1 0.279327558061D-01 0.100000000000D+01
0.115955739534D-03 0.000000000000D+00 0.000000000000D+00 0.296287330938D-02 0.000000000000D+00  5 -1 2 25 24 21 2 0.84631056D-02 0.47367650D-01 0.17696957D+05 0.17696957D+05 0.17696957D+05 0.12397186D+01  1  2 12  1  5  1       -1 0.161339507663D+00 0.100000000000D+01
-.128673534610D-03 0.000000000000D+00 0.000000000000D+00 0.296287330938D-02 0.000000000000D+00  5 -1 2 25 24 21 2 0.62500538D-02 0.47367650D-01 0.12507098D+05 0.12507098D+05 0.12507098D+05 0.12569229D+01  1  2  4  1  5  1       -1 -.285866783260D+00 0.100000000000D+01
-.207853032275D-03 0.000000000000D+00 -.721289312524D-04 0.296287330938D-02 0.000000000000D+00  5 -1 2 25 24 21 2 0.91292206D-02 0.47367650D-01 0.12507098D+05 0.12507098D+05 0.12507098D+05 0.12569229D+01  1  2  5  1  5  1       -1 -.261870314168D+00 0.100000000000D+01
0.223808853250D-03 0.000000000000D+00 0.672441960856D-04 0.296287330938D-02 0.000000000000D+00  5 -1 2 25 24 21 2 0.62500538D-02 0.47367650D-01 0.12507098D+05 0.12507098D+05 0.12507098D+05 0.12569229D+01  1  2  6  1  5  1       -1 0.497223590987D+00 0.100000000000D+01
0.451598749401D-05 0.000000000000D+00 0.000000000000D+00 0.296287330938D-02 0.000000000000D+00  5 21 2 25 24 1 2 0.84631056D-02 0.47367650D-01 0.17696957D+05 0.17696957D+05 0.17696957D+05 0.12397186D+01  1  2 12  3  5  1       -1 0.984313413708D-01 0.100000000000D+01
-.722498124034D-05 0.000000000000D+00 -.330002460578D-05 0.296287330938D-02 0.000000000000D+00  5 21 2 25 24 1 2 0.91292206D-02 0.47367650D-01 0.12507098D+05 0.12507098D+05 0.12507098D+05 0.12569229D+01  1  2  5  3  5  1       -1 -.140994684888D+00 0.100000000000D+01
  </mgrwgt>
  </event>
  <event>
  4     66 0.45252658E-03 0.86238931E+02 0.75467711E-02 0.11733640E+00
       -1 -1    0    0    0  501 0.00000000E+00 0.00000000E+00 0.96768689E+02 0.96769218E+02 0.32000000E+00 0.0000E+00 0.9000E+01
        2 -1    0    0  501    0 0.00000000E+00 0.00000000E+00 -.36685667E+03 0.36685681E+03 0.32000000E+00 0.0000E+00 0.9000E+01
       25  1    1    2    0    0 -.71047670E+02 0.64965804E+02 -.29610340E+03 0.33551535E+03 0.12500000E+03 0.0000E+00 0.9000E+01
       24  1    1    2    0    0 0.71047670E+02 -.64965804E+02 0.26015420E+02 0.12811068E+03 0.80419002E+02 0.0000E+00 0.9000E+01
#aMCatNLO 1  0  0  2  1 0.60713371D+02 0.00000000D+00  -5  5  0 0.00000000D+00 0.00000000D+00 0.00000000D+00 0.00000000D+00 0.00000000D+00
  <mgrwgt>
 0.2827106826D+00    9    2    0
 0.188415482303402D+03 0.000000000000000D+00 0.000000000000000D+00 0.188415482303402D+03
 0.188415482303402D+03 0.000000000000000D+00 0.000000000000000D+00 -.188415482303402D+03
 0.200566532649258D+03 -.710476699349217D+02 0.649658038722492D+02 -.123828942267132D+03
 0.176264431957546D+03 0.710476699349217D+02 -.649658038722492D+02 0.123828942267132D+03
 0.000000000000000D+00 0.000000000000000D+00 0.000000000000000D+00 -.000000000000000D+00
 0.205675123793369D+03 0.000000000000000D+00 0.000000000000000D+00 0.205675123793369D+03
 0.252985424504231D+03 0.000000000000000D+00 0.000000000000000D+00 -.252985424504231D+03
 0.212298347445177D+03 -.103438535298784D+03 0.584161861147968D+02 -.123828942267132D+03
 0.169392220009750D+03 0.439295530502036D+02 -.704492418076549D+02 0.123828942267132D+03
 0.769699808426727D+02 0.595089822485801D+02 0.120330556928581D+02 -.473103007108616D+02
0.846495237714D-03 0.000000000000D+00 0.000000000000D+00 0.130215201572D-02 0.000000000000D+00  5 -1 2 25 24 21 0 0.14887542D-01 0.56439539D-01 0.20053050D+05 0.20053050D+05 0.20053050D+05 0.12336994D+01  1  2  2  2  5  2        2 0.267829443852D+00 0.100000000000D+01
-.423642178067D-04 0.000000000000D+00 -.325076460014D-05 0.130215201572D-02 0.000000000000D+00  5 -1 2 25 24 21 2 0.14887542D-01 0.56439539D-01 0.20053050D+05 0.20053050D+05 0.20053050D+05 0.12336994D+01  1  2  3  2  5  2        2 -.204010118342D-01 0.100000000000D+01
0.575254016552D-04 0.000000000000D+00 0.000000000000D+00 0.130215201572D-02 0.000000000000D+00  5 -1 2 25 24 21 2 0.14887542D-01 0.56439539D-01 0.20053050D+05 0.20053050D+05 0.20053050D+05 0.12336994D+01  1  2 15  2  5  2        2 0.277020669965D-01 0.100000000000D+01
0.787292224548D-03 0.000000000000D+00 0.000000000000D+00 0.130215201572D-02 0.000000000000D+00  5 -1 2 25 24 21 2 0.14887542D-01 0.77688578D-01 0.30405504D+05 0.30405504D+05 0.30405504D+05 0.12142869D+01  1  2 12  2  5  2        2 0.261557850960D+00 0.100000000000D+01
-.103108075262D-02 0.000000000000D+00 0.000000000000D+00 0.130215201572D-02 0.000000000000D+00  5 -1 2 25 24 21 2 0.14887542D-01 0.56439539D-01 0.20053050D+05 0.20053050D+05 0.20053050D+05 0.12336994D+01  1  2  4  2  5  2        2 -.496529659349D+00 0.100000000000D+01
-.129805595276D-02 0.000000000000D+00 -.446922554493D-03 0.130215201572D-02 0.000000000000D+00  5 -1 2 25 24 21 2 0.14887542D-01 0.80972855D-01 0.20053050D+05 0.20053050D+05 0.20053050D+05 0.12336994D+01  1  2  5  2  5  2        2 -.422904676584D+00 0.100000000000D+01
0.139511283797D-02 0.000000000000D+00 0.419310702849D-03 0.130215201572D-02 0.000000000000D+00  5 -1 2 25 24 21 2 0.14887542D-01 0.56439539D-01 0.20053050D+05 0.20053050D+05 0.20053050D+05 0.12336994D+01  1  2  6  2  5  2        2 0.671833801993D+00 0.100000000000D+01
0.318501022358D-04 0.000000000000D+00 0.000000000000D+00 0.130215201572D-02 0.000000000000D+00  5 -1 21 25 24 -2 2 0.14887542D-01 0.77688578D-01 0.30405504D+05 0.30405504D+05 0.30405504D+05 0.12142869D+01  1  2 12  4  5  2        2 0.203047874650D-01 0.100000000000D+01
-.441205116155D-04 0.000000000000D+00 -.197406479172D-04 0.130215201572D-02 0.000000000000D+00  5 -1 21 25 24 -2 2 0.14887542D-01 0.80972855D-01 0.20053050D+05 0.20053050D+05 0.20053050D+05 0.12336994D+01  1  2  5  4  5  2        2 -.266819209086D-01 0.100000000000D+01
  </mgrwgt>
  </event>
  <event>
  5     66 0.45252658E-03 0.11860296E+03 0.75467711E-02 0.11497931E+00
       21 -1    0    0  502  501 0.00000000E+00 0.00000000E+00 0.63378790E+02 0.63383227E+02 0.75000000E+00 0.0000E+00 0.9000E+01
        2 -1    0    0  501    0 0.00000000E+00 0.00000000E+00 -.70805098E+03 0.70805105E+03 0.32000000E+00 0.0000E+00 0.9000E+01
       25  1    1    2    0    0 -.22277849E+02 -.98434062E+02 -.38969764E+03 0.42151491E+03 0.12500000E+03 0.0000E+00 0.9000E+01
       24  1    1    2    0    0 0.71171497E+02 -.21657367E+02 -.12728607E+03 0.16793863E+03 0.80419002E+02 0.0000E+00 0.9000E+01
        1  1    1    2  502    0 -.48893648E+02 0.12009143E+03 -.12768848E+03 0.18198074E+03 0.32000000E+00 0.0000E+00 0.9000E+01
#aMCatNLO 2  0  0  1  1 0.12966318D+03 0.00000000D+00  -5  5  0 0.00000000D+00 0.00000000D+00 0.00000000D+00 0.00000000D+00 0.00000000D+00
  <mgrwgt>
 0.1122373752D+00    1    2    0
 0.125867764298075D+03 0.000000000000000D+00 0.000000000000000D+00 0.125867764298075D+03
 0.125867764298075D+03 0.000000000000000D+00 0.000000000000000D+00 -.125867764298075D+03
 0.144057060216493D+03 -.506160708466652D+02 -.288303872725245D+02 -.416444322806757D+02
 0.107678468379656D+03 0.506160708466652D+02 0.288303872725245D+02 0.416444322806757D+02
 0.000000000000000D+00 -.000000000000000D+00 0.000000000000000D+00 0.000000000000000D+00
 0.247653113253374D+03 0.000000000000000D+00 0.000000000000000D+00 0.247653113253374D+03
 0.181209410575199D+03 0.000000000000000D+00 0.000000000000000D+00 -.181209410575199D+03
 0.165966339722335D+03 -.222778487692788D+02 -.984340623720415D+02 -.416444322806757D+02
 0.117200248148718D+03 0.711714966974755D+02 -.216573666361347D+02 0.416444322806757D+02
 0.145695935957521D+03 -.488936479281967D+02 0.120091429008176D+03 0.664437026781750D+02
0.175626460226D-04 0.000000000000D+00 0.000000000000D+00 0.242432120409D-02 0.200333668597D-06  5 21 2 25 24 1 2 0.97509214D-02 0.10893117D+00 0.39974374D+05 0.39974374D+05 0.39974374D+05 0.12020285D+01  1  2  1  3  5  1       -1 0.112237375220D+00 0.100000000000D+01
  </mgrwgt>
  </event>
  <event>
  4     66 0.45252658E-03 0.10632751E+03 0.75467711E-02 0.96594693E-01
       -1 -1    0    0    0  501 0.00000000E+00 0.00000000E+00 0.22710037E+02 0.22712292E+02 0.32000000E+00 0.0000E+00 0.9000E+01
        2 -1    0    0  501    0 0.00000000E+00 0.00000000E+00 -.57634133E+03 0.57634142E+03 0.32000000E+00 0.0000E+00 0.9000E+01
       25  1    1    2    0    0 0.26356647E+02 0.53279260E+01 -.21663308E+03 0.25155109E+03 0.12500000E+03 0.0000E+00 0.9000E+01
       24  1    1    2    0    0 -.26356647E+02 -.53279260E+01 -.33699821E+03 0.34750262E+03 0.80419002E+02 0.0000E+00 0.9000E+01
#aMCatNLO 1  0  0  1  1 0.71945713D+03 0.00000000D+00  -5  5  0 0.00000000D+00 0.00000000D+00 0.00000000D+00 0.00000000D+00 0.00000000D+00
  <mgrwgt>
 0.4579627641D+00    5    2    0
 0.114409068202188D+03 0.000000000000000D+00 0.000000000000000D+00 0.114409068202188D+03
 0.114409068202188D+03 0.000000000000000D+00 0.000000000000000D+00 -.114409068202188D+03
 0.134420121935808D+03 0.263566471230562D+02 0.532792599028200D+01 0.414814360685628D+02
 0.943980144685683D+02 -.263566471230562D+02 -.532792599028200D+01 -.414814360685628D+02
 0.000000000000000D+00 0.000000000000000D+00 -.000000000000000D+00 0.000000000000000D+00
 0.115508691016598D+04 0.000000000000000D+00 0.000000000000000D+00 0.115508691016598D+04
 0.543898655553846D+03 0.000000000000000D+00 0.000000000000000D+00 -.543898655553846D+03
 0.456104309804388D+03 0.480394538800626D+01 0.436649005486713D+03 0.414814360685628D+02
 0.298863437202095D+03 -.407097311212464D+02 0.281911593226681D+03 -.414814360685628D+02
 0.944017818713345D+03 0.359057857332402D+02 -.718560598713394D+03 0.611188254612136D+03
0.250395932370D-03 0.000000000000D+00 0.000000000000D+00 0.257609129307D-02 0.000000000000D+00  5 -1 2 25 24 21 0 0.34940321D-02 0.88668077D-01 0.11305540D+05 0.11305540D+05 0.11305540D+05 0.12620697D+01  1  2  2  1  5  1       -1 0.420324695833D+00 0.100000000000D+01
-.138201185529D-04 0.000000000000D+00 -.961586311065D-06 0.257609129307D-02 0.000000000000D+00  5 -1 2 25 24 21 2 0.34940321D-02 0.88668077D-01 0.11305540D+05 0.11305540D+05 0.11305540D+05 0.12620697D+01  1  2  3  1  5  1       -1 -.369518441944D-01 0.100000000000D+01
0.171362375255D-04 0.000000000000D+00 0.000000000000D+00 0.257609129307D-02 0.000000000000D+00  5 -1 2 25 24 21 2 0.34940321D-02 0.88668077D-01 0.11305540D+05 0.11305540D+05 0.11305540D+05 0.12620697D+01  1  2 15  1  5  1       -1 0.458183898133D-01 0.100000000000D+01
0.290995891634D-02 0.000000000000D+00 -.721694207109D-03 0.257609129307D-02 0.000000000000D+00  5 -1 2 25 24 21 2 0.16850988D+00 0.88668077D-01 0.11305540D+05 0.11305540D+05 0.11305540D+05 0.12620697D+01  1  2  5  1  5  1       -1 0.851921921852D-02 0.100000000000D+01
0.791912502258D-03 0.000000000000D+00 -.254151882878D-03 0.257609129307D-02 0.000000000000D+00  5 21 2 25 24 1 2 0.16850988D+00 0.88668077D-01 0.11305540D+05 0.11305540D+05 0.11305540D+05 0.12620697D+01  1  2  5  3  5  1       -1 0.202523034145D-01 0.100000000000D+01
  </mgrwgt>
  </event>
  <event>
  5     66 0.45252658E-03 0.20584043E+03 0.75467711E-02 0.10714689E+00
       21 -1    0    0  502  501 0.00000000E+00 0.00000000E+00 0.40832339E+02 0.40839226E+02 0.75000000E+00 0.0000E+00 0.9000E+01
        2 -1    0    0  501    0 0.00000000E+00 0.00000000E+00 -.27999623E+04 0.27999624E+04 0.32000000E+00 0.0000E+00 0.9000E+01
       25  1    1    2    0    0 0.18270211E+03 -.16517215E+03 -.10467147E+04 0.10825426E+04 0.12500000E+03 0.0000E+00 0.9000E+01
       24  1    1    2    0    0 -.15902150E+03 -.34263771E+02 -.10669061E+04 0.10822281E+04 0.80419002E+02 0.0000E+00 0.9000E+01
        1  1    1    2  502    0 -.23680609E+02 0.19943592E+03 -.64550921E+03 0.67603084E+03 0.32000000E+00 0.0000E+00 0.9000E+01
#aMCatNLO 2  0  0  1  2 0.20083689D+03 0.00000000D+00  -5  5  0 0.00000000D+00 0.00000000D+00 0.00000000D+00 0.00000000D+00 0.00000000D+00
  <mgrwgt>
 0.5642870796D-01    1    2    0
 0.211248703176949D+03 0.000000000000000D+00 0.000000000000000D+00 0.211248703176949D+03
 0.211248703176949D+03 0.000000000000000D+00 0.000000000000000D+00 -.211248703176949D+03
 0.222086383962566D+03 0.169340915924541D+03 -.526453851290890D+02 0.474286786661378D+02
 0.200411022391332D+03 -.169340915924541D+03 0.526453851290890D+02 -.474286786661378D+02
 0.000000000000000D+00 -.000000000000000D+00 0.000000000000000D+00 0.000000000000000D+00
 0.373472367893064D+03 0.000000000000000D+00 0.000000000000000D+00 0.373472367893064D+03
 0.306150457193013D+03 0.000000000000000D+00 0.000000000000000D+00 -.306150457193013D+03
 0.280243430455273D+03 0.182702111314144D+03 -.165172150420940D+03 0.474286786661378D+02
 0.187559429912837D+03 -.159021502523534D+03 -.342637705163901D+02 -.474286786661378D+02
 0.211819964717967D+03 -.236806087906106D+02 0.199435920937330D+03 0.673219107000513D+02
0.681576381605D-04 0.000000000000D+00 0.000000000000D+00 0.203084020932D-02 0.469488841109D-07  5 21 2 25 24 1 2 0.62824272D-02 0.43076381D+00 0.10840602D+06 0.10840602D+06 0.10840602D+06 0.11603652D+01  1  2  1  3  5  1       -1 0.564287079635D-01 0.100000000000D+01
  </mgrwgt>
  </event>
  <event>
  4     66 0.45252658E-03 0.11408302E+03 0.75467711E-02 0.11482639E+00
       -1 -1    0    0    0  501 0.00000000E+00 0.00000000E+00 0.39191186E+02 0.39192492E+02 0.32000000E+00 0.0000E+00 0.9000E+01
        2 -1    0    0  501    0 0.00000000E+00 0.00000000E+00 -.40237244E+03 0.40237257E+03 0.32000000E+00 0.0000E+00 0.9000E+01
       25  1    1    2    0    0 -.13018643E+02 -.46926280E+02 -.29904626E+03 0.32775788E+03 0.12500000E+03 0.0000E+00 0.9000E+01
       24  1    1    2    0    0 0.13018643E+02 0.46926280E+02 -.64134990E+02 0.11380718E+03 0.80419002E+02 0.0000E+00 0.9000E+01
#aMCatNLO 1  0  0  1  1 0.13692426D+03 0.00000000D+00  -5  5  0 0.00000000D+00 0.00000000D+00 0.00000000D+00 0.00000000D+00 0.00000000D+00
  <mgrwgt>
 0.3362106863D+00    5    2    0
 0.125577743329140D+03 0.000000000000000D+00 0.000000000000000D+00 0.125577743329140D+03
 0.125577743329140D+03 0.000000000000000D+00 0.000000000000000D+00 -.125577743329140D+03
 0.143809047306364D+03 -.130186432706054D+02 -.469262802942316D+02 -.518119796215515D+02
 0.107346439351916D+03 0.130186432706054D+02 0.469262802942316D+02 0.518119796215515D+02
 0.000000000000000D+00 -.000000000000000D+00 -.000000000000000D+00 0.000000000000000D+00
 0.234580401396657D+03 0.000000000000000D+00 0.000000000000000D+00 0.234580401396657D+03
 0.194222459111623D+03 0.000000000000000D+00 0.000000000000000D+00 -.194222459111623D+03
 0.137590697010198D+03 0.170586126364110D+02 0.181857748355377D+02 -.518119796215515D+02
 0.148464074012513D+03 0.403608083918064D+02 0.106117337092854D+03 0.518119796215515D+02
 0.142748089485569D+03 -.574194210282174D+02 -.124303111928391D+03 0.403579422850345D+02
0.263435401140D-03 0.000000000000D+00 0.000000000000D+00 0.228554260258D-02 0.000000000000D+00  5 -1 2 25 24 21 0 0.60295235D-02 0.61903562D-01 0.13014934D+05 0.13014934D+05 0.13014934D+05 0.12549125D+01  1  2  2  1  5  1       -1 0.295000486659D+00 0.100000000000D+01
-.144713115689D-04 0.000000000000D+00 -.101166130451D-05 0.228554260258D-02 0.000000000000D+00  5 -1 2 25 24 21 2 0.60295235D-02 0.61903562D-01 0.13014934D+05 0.13014934D+05 0.13014934D+05 0.12549125D+01  1  2  3  1  5  1       -1 -.255201581327D-01 0.100000000000D+01
0.181707317454D-04 0.000000000000D+00 0.000000000000D+00 0.228554260258D-02 0.000000000000D+00  5 -1 2 25 24 21 2 0.60295235D-02 0.61903562D-01 0.13014934D+05 0.13014934D+05 0.13014934D+05 0.12549125D+01  1  2 15  1  5  1       -1 0.320440856604D-01 0.100000000000D+01
0.168074837160D-04 0.000000000000D+00 -.759294125295D-04 0.228554260258D-02 0.000000000000D+00  5 -1 2 25 24 21 2 0.17307391D-01 0.61903562D-01 0.13014934D+05 0.13014934D+05 0.13014934D+05 0.12549125D+01  1  2  5  1  5  1       -1 0.594155877724D-02 0.100000000000D+01
0.609119812838D-05 0.000000000000D+00 -.903366390689D-05 0.228554260258D-02 0.000000000000D+00  5 21 2 25 24 1 2 0.17307391D-01 0.61903562D-01 0.13014934D+05 0.13014934D+05 0.13014934D+05 0.12549125D+01  1  2  5  3  5  1       -1 0.287447133550D-01 0.100000000000D+01
  </mgrwgt>
  </event>
  <event>
  5     66 0.45252658E-03 0.14399659E+03 0.75467711E-02 0.10622867E+00
       -3 -1    0    0    0  501 0.00000000E+00 0.00000000E+00 0.14213419E+04 0.14213420E+04 0.50000000E+00 0.0000E+00 0.9000E+01
       21 -1    0    0  501  502 0.00000000E+00 0.00000000E+00 -.31295830E+03 0.31295919E+03 0.75000000E+00 0.0000E+00 0.9000E+01
       25  1    1    2    0    0 -.29242168E+03 0.73736393E+02 -.15456383E+03 0.36119589E+03 0.12500000E+03 0.0000E+00 0.9000E+01
       24  1    1    2    0    0 0.10855670E+02 0.90800816E+01 0.54777835E+01 0.81838350E+02 0.80419002E+02 0.0000E+00 0.9000E+01
       -4  1    1    2    0  502 0.28156601E+03 -.82816475E+02 0.12574697E+04 0.12912669E+04 0.15500000E+01 0.0000E+00 0.9000E+01
#aMCatNLO 2  0  0  2  1 0.29349273D+03 0.00000000D+00  -5  5  0 0.00000000D+00 0.00000000D+00 0.00000000D+00 0.00000000D+00 0.00000000D+00
  <mgrwgt>
 0.1079694915D-02    1    2    0
 0.148252068451507D+03 0.000000000000000D+00 0.000000000000000D+00 0.148252068451507D+03
 0.148252068451507D+03 0.000000000000000D+00 0.000000000000000D+00 -.148252068451507D+03
 0.163694996400646D+03 -.983093275877038D+02 0.166424965769382D+02 -.350621628475427D+02
 0.132809140502369D+03 0.983093275877038D+02 -.166424965769382D+02 0.350621628475427D+02
 0.000000000000000D+00 0.000000000000000D+00 -.000000000000000D+00 0.000000000000000D+00
 0.201728689568059D+04 0.000000000000000D+00 0.000000000000000D+00 0.201728689568059D+04
 0.220504248308850D+03 0.000000000000000D+00 0.000000000000000D+00 -.220504248308850D+03
 0.328331918003796D+03 -.292421677411959D+03 0.737363932944905D+02 -.350621628475427D+02
 0.888643048066156D+02 0.108556698652408D+02 0.908008164180511D+01 0.350621628475427D+02
 0.182059492117903D+04 0.281566007546719D+03 -.828164749362956D+02 0.179678264737174D+04
0.341712701171D-03 0.000000000000D+00 0.000000000000D+00 0.230010638682D-02 0.451198468116D-07  5 -3 21 25 24 -4 2 0.21866775D+00 0.48147438D-01 0.12306133D+06 0.12306133D+06 0.12306133D+06 0.11553826D+01  1  2  1  4  5  2        4 0.107969491541D-02 0.100000000000D+01
  </mgrwgt>
  </event>
  <event>
  4     66 0.45252658E-03 0.87559972E+02 0.75467711E-02 0.12212085E+00
       -1 -1    0    0    0  501 0.00000000E+00 0.00000000E+00 0.97390128E+02 0.97390654E+02 0.32000000E+00 0.0000E+00 0.9000E+01
        2 -1    0    0  501    0 0.00000000E+00 0.00000000E+00 -.15051479E+03 0.15051513E+03 0.32000000E+00 0.0000E+00 0.9000E+01
       25  1    1    2    0    0 -.60305908E+02 0.16822517E+02 -.37980936E+02 0.14487012E+03 0.12500000E+03 0.0000E+00 0.9000E+01
       24  1    1    2    0    0 0.60305908E+02 -.16822517E+02 -.15143723E+02 0.10303566E+03 0.80419002E+02 0.0000E+00 0.9000E+01
#aMCatNLO 1  0  0  2  1 0.25533511D+02 0.00000000D+00  -5  5  0 0.00000000D+00 0.00000000D+00 0.00000000D+00 0.00000000D+00 0.00000000D+00
  <mgrwgt>
 0.3589892680D+00    6    2    0
 0.121073373339418D+03 0.000000000000000D+00 0.000000000000000D+00 0.121073373339418D+03
 0.121073373339418D+03 0.000000000000000D+00 0.000000000000000D+00 -.121073373339418D+03
 0.139982948155584D+03 -.603059078563802D+02 0.168225165213630D+02 -.710114003771096D+01
 0.102163798523251D+03 0.603059078563802D+02 -.168225165213630D+02 0.710114003771096D+01
 0.000000000000000D+00 -.000000000000000D+00 0.000000000000000D+00 0.000000000000000D+00
 0.135736181596150D+03 0.000000000000000D+00 0.000000000000000D+00 0.135736181596150D+03
 0.133393782386012D+03 0.000000000000000D+00 0.000000000000000D+00 -.133393782386012D+03
 0.134157279211126D+03 -.464407271588808D+02 0.128844183590577D+02 -.710114003771096D+01
 0.109331954887703D+03 0.710027211842325D+02 -.198607099519422D+02 0.710114003771096D+01
 0.256407298833325D+02 -.245619940253518D+02 0.697629159288456D+01 0.234239921013785D+01
0.339713751102D-03 0.000000000000D+00 0.000000000000D+00 0.275497322801D-02 0.000000000000D+00  5 -1 2 25 24 21 0 0.14983163D-01 0.23156188D-01 0.14607070D+05 0.14607070D+05 0.14607070D+05 0.12491389D+01  1  2  2  2  5  2        2 0.274481661899D+00 0.100000000000D+01
-.188729145842D-04 0.000000000000D+00 -.130459025292D-05 0.275497322801D-02 0.000000000000D+00  5 -1 2 25 24 21 2 0.14983163D-01 0.23156188D-01 0.14607070D+05 0.14607070D+05 0.14607070D+05 0.12491389D+01  1  2  3  2  5  2        2 -.237936269086D-01 0.100000000000D+01
0.234318328019D-04 0.000000000000D+00 0.000000000000D+00 0.275497322801D-02 0.000000000000D+00  5 -1 2 25 24 21 2 0.14983163D-01 0.23156188D-01 0.14607070D+05 0.14607070D+05 0.14607070D+05 0.12491389D+01  1  2 15  2  5  2        2 0.295411863909D-01 0.100000000000D+01
0.329875178331D-03 0.000000000000D+00 0.000000000000D+00 0.275497322801D-02 0.000000000000D+00  5 -1 2 25 24 21 2 0.14983163D-01 0.26769101D-01 0.18037003D+05 0.18037003D+05 0.18037003D+05 0.12387961D+01  1  2 12  2  5  2        2 0.351277054294D+00 0.100000000000D+01
-.250271831535D-03 0.000000000000D+00 0.000000000000D+00 0.275497322801D-02 0.000000000000D+00  5 -1 2 25 24 21 2 0.14983163D-01 0.23156188D-01 0.14607070D+05 0.14607070D+05 0.14607070D+05 0.12491389D+01  1  2  4  2  5  2        2 -.315524905212D+00 0.100000000000D+01
0.731989263873D-05 0.000000000000D+00 0.000000000000D+00 0.275497322801D-02 0.000000000000D+00  5 -1 21 25 24 -2 2 0.14983163D-01 0.26769101D-01 0.18037003D+05 0.18037003D+05 0.18037003D+05 0.12387961D+01  1  2 12  4  5  2        2 0.430078974930D-01 0.100000000000D+01
  </mgrwgt>
  </event>
  <event>
  4     66 0.45252658E-03 0.10099160E+03 0.75467711E-02 0.11944490E+00
       -1 -1    0    0    0  501 0.00000000E+00 0.00000000E+00 0.14866586E+02 0.14870030E+02 0.32000000E+00 0.0000E+00 0.9000E+01
        2 -1    0    0  501    0 0.00000000E+00 0.00000000E+00 -.18341593E+04 0.18341593E+04 0.32000000E+00 0.0000E+00 0.9000E+01
       25  1    1    2    0    0 0.77914836E+02 0.42361805E+02 -.15037289E+04 0.15115194E+04 0.12500000E+03 0.0000E+00 0.9000E+01
       24  1    1    2    0    0 -.77914836E+02 -.42361805E+02 -.31556378E+03 0.33750994E+03 0.80419002E+02 0.0000E+00 0.9000E+01
#aMCatNLO 1  0  0  1  2 0.34377478D+02 0.00000000D+00  -5  5  0 0.00000000D+00 0.00000000D+00 0.00000000D+00 0.00000000D+00 0.00000000D+00
  <mgrwgt>
 0.3088196764D+00    9    2    0
 0.165139021680908D+03 0.000000000000000D+00 0.000000000000000D+00 0.165139021680908D+03
 0.165139021680908D+03 0.000000000000000D+00 0.000000000000000D+00 -.165139021680908D+03
 0.179002771072807D+03 0.779148362776482D+02 0.423618050861138D+02 -.924756606324984D+02
 0.151275272289010D+03 -.779148362776482D+02 -.423618050861138D+02 0.924756606324984D+02
 0.000000000000000D+00 0.000000000000000D+00 0.000000000000000D+00 0.000000000000000D+00
 0.204299338367305D+03 0.000000000000000D+00 0.000000000000000D+00 0.204299338367305D+03
 0.173751757035172D+03 0.000000000000000D+00 0.000000000000000D+00 -.173751757035172D+03
 0.172693201602058D+03 0.706383264996058D+02 0.256207123142052D+02 -.924756606324984D+02
 0.159369137311925D+03 -.843419985415877D+02 -.571488009127957D+02 0.924756606324984D+02
 0.459887564884946D+02 0.137036720419819D+02 0.315280885985905D+02 0.305475813321331D+02
0.502970044446D-03 0.000000000000D+00 0.000000000000D+00 0.163471709436D-02 0.000000000000D+00  5 -1 2 25 24 21 0 0.22874341D-02 0.28217862D+00 0.18630002D+05 0.18630002D+05 0.18630002D+05 0.12372332D+01  1  2  2  1  5  1       -1 0.289453943669D+00 0.100000000000D+01
-.267095397825D-04 0.000000000000D+00 -.193153740572D-05 0.163471709436D-02 0.000000000000D+00  5 -1 2 25 24 21 2 0.22874341D-02 0.28217862D+00 0.18630002D+05 0.18630002D+05 0.18630002D+05 0.12372332D+01  1  2  3  1  5  1       -1 -.235291863776D-01 0.100000000000D+01
0.346086166824D-04 0.000000000000D+00 0.000000000000D+00 0.163471709436D-02 0.000000000000D+00  5 -1 2 25 24 21 2 0.22874341D-02 0.28217862D+00 0.18630002D+05 0.18630002D+05 0.18630002D+05 0.12372332D+01  1  2 15  1  5  1       -1 0.304877058467D-01 0.100000000000D+01
0.691740400185D-03 0.000000000000D+00 0.000000000000D+00 0.163471709436D-02 0.000000000000D+00  5 -1 2 25 24 21 2 0.28793253D-02 0.28217862D+00 0.24027957D+05 0.24027957D+05 0.24027957D+05 0.12251485D+01  1  2 12  1  5  1       -1 0.428490063046D+00 0.100000000000D+01
-.721915705403D-03 0.000000000000D+00 0.000000000000D+00 0.163471709436D-02 0.000000000000D+00  5 -1 2 25 24 21 2 0.22874341D-02 0.28217862D+00 0.18630002D+05 0.18630002D+05 0.18630002D+05 0.12372332D+01  1  2  4  1  5  1       -1 -.635955891402D+00 0.100000000000D+01
-.106502063415D-02 0.000000000000D+00 -.258709214305D-03 0.163471709436D-02 0.000000000000D+00  5 -1 2 25 24 21 2 0.29941705D-02 0.28217862D+00 0.18630002D+05 0.18630002D+05 0.18630002D+05 0.12372332D+01  1  2  5  1  5  1       -1 -.634734120094D+00 0.100000000000D+01
0.110353723609D-02 0.000000000000D+00 0.249607617654D-03 0.163471709436D-02 0.000000000000D+00  5 -1 2 25 24 21 2 0.22874341D-02 0.28217862D+00 0.18630002D+05 0.18630002D+05 0.18630002D+05 0.12372332D+01  1  2  6  1  5  1       -1 0.972137053425D+00 0.100000000000D+01
0.220140629196D-04 0.000000000000D+00 0.000000000000D+00 0.163471709436D-02 0.000000000000D+00  5 21 2 25 24 1 2 0.28793253D-02 0.28217862D+00 0.24027957D+05 0.24027957D+05 0.24027957D+05 0.12251485D+01  1  2 12  3  5  1       -1 0.264391377058D+00 0.100000000000D+01
-.331690285139D-04 0.000000000000D+00 -.924502913566D-05 0.163471709436D-02 0.000000000000D+00  5 21 2 25 24 1 2 0.29941705D-02 0.28217862D+00 0.18630002D+05 0.18630002D+05 0.18630002D+05 0.12372332D+01  1  2  5  3  5  1       -1 -.381921268819D+00 0.100000000000D+01
  </mgrwgt>
  </event>
  <event>
  4     66 0.45252658E-03 0.44182348E+02 0.75467711E-02 0.11385078E+00
       -3 -1    0    0    0  501 0.00000000E+00 0.00000000E+00 0.18897024E+03 0.18897090E+03 0.50000000E+00 0.0000E+00 0.9000E+01
        4 -1    0    0  501    0 0.00000000E+00 0.00000000E+00 -.12381517E+03 0.12382487E+03 0.15500000E+01 0.0000E+00 0.9000E+01
       25  1    1    2    0    0 -.77209216E+02 -.81143580E+02 0.30039538E+02 0.17050782E+03 0.12500000E+03 0.0000E+00 0.9000E+01
       24  1    1    2    0    0 0.77209216E+02 0.81143580E+02 0.35115527E+02 0.14228795E+03 0.80419002E+02 0.0000E+00 0.9000E+01
#aMCatNLO 1  0  0  1  2 0.10467836D+03 0.00000000D+00  -5  5  0 0.00000000D+00 0.00000000D+00 0.00000000D+00 0.00000000D+00 0.00000000D+00
  <mgrwgt>
 0.3751272227D-01    7    2    0
 0.152967325568368D+03 0.000000000000000D+00 0.000000000000000D+00 0.152967325568368D+03
 0.152967325568368D+03 0.000000000000000D+00 0.000000000000000D+00 -.152967325568368D+03
 0.167934221295287D+03 -.772092163185270D+02 -.811435798808038D+02 -.559991443335769D+01
 0.138000429841450D+03 0.772092163185270D+02 0.811435798808038D+02 0.559991443335769D+01
 0.000000000000000D+00 0.000000000000000D+00 0.000000000000000D+00 0.000000000000000D+00
 0.319255446322522D+03 0.000000000000000D+00 0.000000000000000D+00 0.319255446322522D+03
 0.179057651467915D+03 0.000000000000000D+00 0.000000000000000D+00 -.179057651467915D+03
 0.204805944680546D+03 -.139179632947406D+03 -.831753912371628D+02 -.559991443335769D+01
 0.118541498866972D+03 0.345574936011318D+02 0.797451665845941D+02 0.559991443335769D+01
 0.174965654242919D+03 0.104622139346274D+03 0.343022465256870D+01 0.140197794854607D+03
0.863748980624D-03 0.000000000000D+00 0.000000000000D+00 0.238337521654D-02 0.000000000000D+00  5 -3 4 25 24 21 0 0.29073141D-01 0.19049285D-01 0.23367340D+05 0.23367340D+05 0.23367340D+05 0.12264548D+01  1  2  2  1  5  1       -3 0.484435625550D-01 0.100000000000D+01
-.479860277353D-04 0.000000000000D+00 -.331702351592D-05 0.238337521654D-02 0.000000000000D+00  5 -3 4 25 24 21 2 0.29073141D-01 0.19049285D-01 0.23367340D+05 0.23367340D+05 0.23367340D+05 0.12264548D+01  1  2  3  1  5  1       -3 -.404824164897D-02 0.100000000000D+01
0.596840605466D-04 0.000000000000D+00 0.000000000000D+00 0.238337521654D-02 0.000000000000D+00  5 -3 4 25 24 21 2 0.29073141D-01 0.19049285D-01 0.23367340D+05 0.23367340D+05 0.23367340D+05 0.12264548D+01  1  2 15  1  5  1       -3 0.503512191126D-02 0.100000000000D+01
0.152992171693D-03 0.000000000000D+00 0.000000000000D+00 0.238337521654D-02 0.000000000000D+00  5 -3 4 25 24 21 2 0.60672908D-01 0.19049285D-01 0.45756822D+05 0.45756822D+05 0.45756822D+05 0.11961150D+01  1  2 12  1  5  1       -3 0.304840387897D-02 0.100000000000D+01
-.549862381733D-03 0.000000000000D+00 -.237820582648D-03 0.238337521654D-02 0.000000000000D+00  5 -3 4 25 24 21 2 0.68557288D-01 0.19049285D-01 0.23367340D+05 0.23367340D+05 0.23367340D+05 0.12264548D+01  1  2  5  1  5  1       -3 -.856087416746D-02 0.100000000000D+01
0.121714969825D-04 0.000000000000D+00 0.000000000000D+00 0.238337521654D-02 0.000000000000D+00  5 21 4 25 24 3 2 0.60672908D-01 0.19049285D-01 0.45756822D+05 0.45756822D+05 0.45756822D+05 0.11961150D+01  1  2 12  3  5  1       -3 0.457142234155D-02 0.100000000000D+01
-.364833882192D-04 0.000000000000D+00 -.222689492215D-04 0.238337521654D-02 0.000000000000D+00  5 21 4 25 24 3 2 0.68557288D-01 0.19049285D-01 0.23367340D+05 0.23367340D+05 0.23367340D+05 0.12264548D+01  1  2  5  3  5  1       -3 -.109766726044D-01 0.100000000000D+01
  </mgrwgt>
  </event>
  <event>
  4     66 0.45252658E-03 0.97488300E+02 0.75467711E-02 0.11989312E+00
       -1 -1    0    0    0  501 0.00000000E+00 0.00000000E+00 0.11681913E+03 0.11681957E+03 0.32000000E+00 0.0000E+00 0.9000E+01
        2 -1    0    0  501    0 0.00000000E+00 0.00000000E+00 -.19312630E+03 0.19312656E+03 0.32000000E+00 0.0000E+00 0.9000E+01
       25  1    1    2    0    0 -.91201013E+02 0.56697528E+02 -.57151803E+02 0.17442352E+03 0.12500000E+03 0.0000E+00 0.9000E+01
       24  1    1    2    0    0 0.91201013E+02 -.56697528E+02 -.19155364E+02 0.13552261E+03 0.80419002E+02 0.0000E+00 0.9000E+01
#aMCatNLO 1  0  0  2  1 0.35476301D+01 0.00000000D+00  -5  5  0 0.00000000D+00 0.00000000D+00 0.00000000D+00 0.00000000D+00 0.00000000D+00
  <mgrwgt>
 0.3619681175D+00   11    2    0
 0.150203045106666D+03 0.000000000000000D+00 0.000000000000000D+00 0.150203045106666D+03
 0.150203045106666D+03 0.000000000000000D+00 0.000000000000000D+00 -.150203045106666D+03
 0.165445385964546D+03 -.912010134189210D+02 0.566975279415862D+02 -.146608735630767D+02
 0.134960704248786D+03 0.912010134189210D+02 -.566975279415862D+02 0.146608735630767D+02
 0.000000000000000D+00 0.000000000000000D+00 -.000000000000000D+00 -.000000000000000D+00
 0.150912728779182D+03 0.000000000000000D+00 0.000000000000000D+00 0.150912728779182D+03
 0.154713481716800D+03 0.000000000000000D+00 0.000000000000000D+00 -.154713481716800D+03
 0.166422175179081D+03 -.917966100955718D+02 0.585643368669505D+02 -.146608735630767D+02
 0.134004862080730D+03 0.907183058084292D+02 -.551845529520773D+02 0.146608735630767D+02
 0.519917323617127D+01 0.107830428714255D+01 -.337978391487317D+01 -.380075293761831D+01
0.542296004614D-03 0.000000000000D+00 0.000000000000D+00 0.238674561648D-02 0.000000000000D+00  5 -1 2 25 24 21 0 0.17972228D-01 0.29711792D-01 0.22343755D+05 0.22343755D+05 0.22343755D+05 0.12285627D+01  1  2  2  2  5  2        2 0.253580726403D+00 0.100000000000D+01
-.301266988005D-04 0.000000000000D+00 -.208255944753D-05 0.238674561648D-02 0.000000000000D+00  5 -1 2 25 24 21 2 0.17972228D-01 0.29711792D-01 0.22343755D+05 0.22343755D+05 0.22343755D+05 0.12285627D+01  1  2  3  2  5  2        2 -.212630731079D-01 0.100000000000D+01
0.373950782313D-04 0.000000000000D+00 0.000000000000D+00 0.238674561648D-02 0.000000000000D+00  5 -1 2 25 24 21 2 0.17972228D-01 0.29711792D-01 0.22343755D+05 0.22343755D+05 0.22343755D+05 0.12285627D+01  1  2 15  2  5  2        2 0.263930106506D-01 0.100000000000D+01
0.967129928381D-04 0.000000000000D+00 0.000000000000D+00 0.238674561648D-02 0.000000000000D+00  5 -1 2 25 24 21 2 0.17972228D-01 0.30672939D-01 0.22880077D+05 0.22880077D+05 0.22880077D+05 0.12274451D+01  1  2 12  2  5  2        2 0.658616533490D-01 0.100000000000D+01
-.971176566732D-02 0.000000000000D+00 0.000000000000D+00 0.238674561648D-02 0.000000000000D+00  5 -1 2 25 24 21 2 0.17972228D-01 0.29711792D-01 0.22343755D+05 0.22343755D+05 0.22343755D+05 0.12285627D+01  1  2  4  2  5  2        2 -.685445108867D+01 0.100000000000D+01
-.247732134707D-01 0.000000000000D+00 -.254581314509D-02 0.238674561648D-02 0.000000000000D+00  5 -1 2 25 24 21 2 0.17972228D-01 0.30722362D-01 0.22343755D+05 0.22343755D+05 0.22343755D+05 0.12285627D+01  1  2  5  2  5  2        2 -.168611836065D+02 0.100000000000D+01
0.248458874058D-01 0.000000000000D+00 0.254438982228D-02 0.238674561648D-02 0.000000000000D+00  5 -1 2 25 24 21 2 0.17972228D-01 0.29711792D-01 0.22343755D+05 0.22343755D+05 0.22343755D+05 0.12285627D+01  1  2  6  2  5  2        2 0.175359379346D+02 0.100000000000D+01
0.961763316532D-02 0.000000000000D+00 0.000000000000D+00 0.238674561648D-02 0.152448696922D-02  5 -1 2 25 24 21 2 0.18057144D-01 0.30604005D-01 0.22880077D+05 0.22880077D+05 0.22880077D+05 0.12274451D+01  1  2 11  2  5  2        2 0.651645829289D+01 0.100000000000D+01
0.267864491580D-05 0.000000000000D+00 0.000000000000D+00 0.238674561648D-02 0.000000000000D+00  5 -1 21 25 24 -2 2 0.17972228D-01 0.30672939D-01 0.22880077D+05 0.22880077D+05 0.22880077D+05 0.12274451D+01  1  2 12  4  5  2        2 0.893777711218D-02 0.100000000000D+01
-.146828761267D-03 0.000000000000D+00 -.151940404279D-04 0.238674561648D-02 0.000000000000D+00  5 -1 21 25 24 -2 2 0.17972228D-01 0.30722362D-01 0.22343755D+05 0.22343755D+05 0.22343755D+05 0.12285627D+01  1  2  5  4  5  2        2 -.489228696531D+00 0.100000000000D+01
0.543940832933D-04 0.000000000000D+00 0.000000000000D+00 0.238674561648D-02 0.810658871821D-05  5 -1 21 25 24 -2 2 0.18057144D-01 0.30604005D-01 0.22880077D+05 0.22880077D+05 0.22880077D+05 0.12274451D+01  1  2 11  4  5  2        2 0.180925187302D+00 0.100000000000D+01
  </mgrwgt>
  </event>
  <event>
  4     66 0.45252658E-03 0.12358725E+03 0.75467711E-02 0.12023743E+00
       -1 -1    0    0    0  501 0.00000000E+00 0.00000000E+00 0.72960725E+01 0.73030866E+01 0.32000000E+00 0.0000E+00 0.9000E+01
        2 -1    0    0  501    0 0.00000000E+00 0.00000000E+00 -.21638938E+04 0.21638939E+04 0.32000000E+00 0.0000E+00 0.9000E+01
       25  1    1    2    0    0 0.57406406E+02 0.35712424E+02 -.10394408E+04 0.10491106E+04 0.12500000E+03 0.0000E+00 0.9000E+01
       24  1    1    2    0    0 -.57406406E+02 -.35712424E+02 -.11171570E+04 0.11220864E+04 0.80419002E+02 0.0000E+00 0.9000E+01
#aMCatNLO 1  0  0  1  1 0.45522414D+02 0.00000000D+00  -5  5  0 0.00000000D+00 0.00000000D+00 0.00000000D+00 0.00000000D+00 0.00000000D+00
  <mgrwgt>
 0.2153343942D+00    4    2    0
 0.125680414306181D+03 0.000000000000000D+00 0.000000000000000D+00 0.125680414306181D+03
 0.125680414306181D+03 0.000000000000000D+00 0.000000000000000D+00 -.125680414306181D+03
 0.143896824747269D+03 0.574064064911253D+02 0.357124244910246D+02 0.225925519385199D+02
 0.107464003865093D+03 -.574064064911253D+02 -.357124244910246D+02 -.225925519385199D+02
 0.000000000000000D+00 0.000000000000000D+00 -.000000000000000D+00 -.000000000000000D+00
 0.149387063745812D+03 0.000000000000000D+00 0.000000000000000D+00 0.149387063745812D+03
 0.151640820905162D+03 0.000000000000000D+00 0.000000000000000D+00 -.151640820905162D+03
 0.136052031402143D+03 0.322737389527947D+02 0.365121571474729D+02 0.225925519385199D+02
 0.119397682592156D+03 -.777731242600024D+02 -.350643464754460D+02 -.225925519385199D+02
 0.455781706566763D+02 0.454993853072077D+02 -.144781067202700D+01 -.225375715935014D+01
0.381641573092D-03 0.000000000000D+00 0.000000000000D+00 0.260870883032D-02 0.000000000000D+00  5 -1 2 25 24 21 0 0.11230141D-02 0.33290729D+00 0.15273807D+05 0.15273807D+05 0.15273807D+05 0.12469279D+01  1  2  2  1  5  1       -1 0.412426713379D+00 0.100000000000D+01
-.211950381599D-04 0.000000000000D+00 -.146560412921D-05 0.260870883032D-02 0.000000000000D+00  5 -1 2 25 24 21 2 0.11230141D-02 0.33290729D+00 0.15273807D+05 0.15273807D+05 0.15273807D+05 0.12469279D+01  1  2  3  1  5  1       -1 -.356129555811D-01 0.100000000000D+01
0.263887269914D-04 0.000000000000D+00 0.000000000000D+00 0.260870883032D-02 0.000000000000D+00  5 -1 2 25 24 21 2 0.11230141D-02 0.33290729D+00 0.15273807D+05 0.15273807D+05 0.15273807D+05 0.12469279D+01  1  2 15  1  5  1       -1 0.443396494545D-01 0.100000000000D+01
-.122493114242D-03 0.000000000000D+00 0.000000000000D+00 0.260870883032D-02 0.000000000000D+00  5 -1 2 25 24 21 2 0.11230141D-02 0.33290729D+00 0.15273807D+05 0.15273807D+05 0.15273807D+05 0.12469279D+01  1  2  4  1  5  1       -1 -.205819013090D+00 0.100000000000D+01
  </mgrwgt>
  </event>
  <event>
  4     66 0.45252658E-03 0.45157115E+02 0.75467711E-02 0.12089419E+00
       -1 -1    0    0    0  501 0.00000000E+00 0.00000000E+00 0.16271725E+02 0.16274872E+02 0.32000000E+00 0.0000E+00 0.9000E+01
        2 -1    0    0  501    0 0.00000000E+00 0.00000000E+00 -.73734411E+03 0.73734418E+03 0.32000000E+00 0.0000E+00 0.9000E+01
       25  1    1    2    0    0 -.34742335E+02 -.40459999E+01 -.38495421E+03 0.40624887E+03 0.12500000E+03 0.0000E+00 0.9000E+01
       24  1    1    2    0    0 0.34742335E+02 0.40459999E+01 -.33611818E+03 0.34737018E+03 0.80419002E+02 0.0000E+00 0.9000E+01
#aMCatNLO 1  0  0  1  2 0.60761309D+02 0.00000000D+00  -5  5  0 0.00000000D+00 0.00000000D+00 0.00000000D+00 0.00000000D+00 0.00000000D+00
  <mgrwgt>
 0.2983744928D+00    9    2    0
 0.109540278123418D+03 0.000000000000000D+00 0.000000000000000D+00 0.109540278123418D+03
 0.109540278123418D+03 0.000000000000000D+00 0.000000000000000D+00 -.109540278123418D+03
 0.130440772906058D+03 -.347423345881969D+02 -.404599989455062D+01 0.128994305511814D+02
 0.886397833407788D+02 0.347423345881969D+02 0.404599989455062D+01 -.128994305511814D+02
 0.000000000000000D+00 -.000000000000000D+00 0.000000000000000D+00 0.000000000000000D+00
 0.163409497675331D+03 0.000000000000000D+00 0.000000000000000D+00 0.163409497675331D+03
 0.132233537089085D+03 0.000000000000000D+00 0.000000000000000D+00 -.132233537089085D+03
 0.127143751749881D+03 -.307864756914787D+01 -.190960789073434D+02 0.128994305511814D+02
 0.100206697616840D+03 0.579563684113775D+02 -.698787127257934D+01 -.128994305511814D+02
 0.682925853976955D+02 -.548777208422296D+02 0.260839501799228D+02 0.311759605862460D+02
0.131061325236D-03 0.000000000000D+00 0.000000000000D+00 0.298919420250D-02 0.000000000000D+00  5 -1 2 25 24 21 0 0.25035897D-02 0.11343780D+00 0.11826295D+05 0.11826295D+05 0.11826295D+05 0.12597669D+01  1  2  2  1  5  1       -1 0.268762967589D+00 0.100000000000D+01
-.728071915726D-05 0.000000000000D+00 -.503309998146D-06 0.298919420250D-02 0.000000000000D+00  5 -1 2 25 24 21 2 0.25035897D-02 0.11343780D+00 0.11826295D+05 0.11826295D+05 0.11826295D+05 0.12597669D+01  1  2  3  1  5  1       -1 -.236946103848D-01 0.100000000000D+01
0.906841467651D-05 0.000000000000D+00 0.000000000000D+00 0.298919420250D-02 0.000000000000D+00  5 -1 2 25 24 21 2 0.25035897D-02 0.11343780D+00 0.11826295D+05 0.11826295D+05 0.11826295D+05 0.12597669D+01  1  2 15  1  5  1       -1 0.295125451108D-01 0.100000000000D+01
0.308635464672D-04 0.000000000000D+00 0.000000000000D+00 0.298919420250D-02 0.000000000000D+00  5 -1 2 25 24 21 2 0.38915277D-02 0.11343780D+00 0.20538040D+05 0.20538040D+05 0.20538040D+05 0.12325588D+01  1  2 12  1  5  1       -1 0.516604859445D-01 0.100000000000D+01
-.606326543034D-04 0.000000000000D+00 0.000000000000D+00 0.298919420250D-02 0.000000000000D+00  5 -1 2 25 24 21 2 0.25035897D-02 0.11343780D+00 0.11826295D+05 0.11826295D+05 0.11826295D+05 0.12597669D+01  1  2  4  1  5  1       -1 -.197324891853D+00 0.100000000000D+01
-.708874644490D-04 0.000000000000D+00 -.405793426445D-04 0.298919420250D-02 0.000000000000D+00  5 -1 2 25 24 21 2 0.45212394D-02 0.11343780D+00 0.11826295D+05 0.11826295D+05 0.11826295D+05 0.12597669D+01  1  2  5  1  5  1       -1 -.977698628264D-01 0.100000000000D+01
0.856546500772D-04 0.000000000000D+00 0.343944851899D-04 0.298919420250D-02 0.000000000000D+00  5 -1 2 25 24 21 2 0.25035897D-02 0.11343780D+00 0.11826295D+05 0.11826295D+05 0.11826295D+05 0.12597669D+01  1  2  6  1  5  1       -1 0.278757292706D+00 0.100000000000D+01
0.157973577513D-05 0.000000000000D+00 0.000000000000D+00 0.298919420250D-02 0.000000000000D+00  5 21 2 25 24 1 2 0.38915277D-02 0.11343780D+00 0.20538040D+05 0.20538040D+05 0.20538040D+05 0.12325588D+01  1  2 12  3  5  1       -1 0.485350749699D-01 0.100000000000D+01
-.242397047584D-05 0.000000000000D+00 -.262863833135D-05 0.298919420250D-02 0.000000000000D+00  5 21 2 25 24 1 2 0.45212394D-02 0.11343780D+00 0.11826295D+05 0.11826295D+05 0.11826295D+05 0.12597669D+01  1  2  5  3  5  1       -1 -.600645084685D-01 0.100000000000D+01
  </mgrwgt>
  </event>
  <event>
  4     66 0.45252658E-03 0.20025812E+03 0.75467711E-02 0.10772380E+00
       -1 -1    0    0    0  501 0.00000000E+00 0.00000000E+00 0.85779393E+02 0.85779990E+02 0.32000000E+00 0.0000E+00 0.9000E+01
        2 -1    0    0  501    0 0.00000000E+00 0.00000000E+00 -.52940787E+03 0.52940797E+03 0.32000000E+00 0.0000E+00 0.9000E+01
       25  1    1    2    0    0 -.11693367E+03 0.12455692E+03 -.33801836E+03 0.39883495E+03 0.12500000E+03 0.0000E+00 0.9000E+01
       24  1    1    2    0    0 0.11693367E+03 -.12455692E+03 -.10561012E+03 0.21635301E+03 0.80419002E+02 0.0000E+00 0.9000E+01
#aMCatNLO 1  0  0  1  2 0.19124617D+03 0.00000000D+00  -5  5  0 0.00000000D+00 0.00000000D+00 0.00000000D+00 0.00000000D+00 0.00000000D+00
  <mgrwgt>
 0.3752163130D+00    5    2    0
 0.213102085521446D+03 0.000000000000000D+00 0.000000000000000D+00 0.213102085521446D+03
 0.213102085521446D+03 0.000000000000000D+00 0.000000000000000D+00 -.213102085521446D+03
 0.223845509293228D+03 -.116933667513911D+03 0.124556920852892D+03 -.727592117888671D+02
 0.202358661749665D+03 0.116933667513911D+03 -.124556920852892D+03 0.727592117888671D+02
 0.000000000000000D+00 -.000000000000000D+00 0.000000000000000D+00 0.000000000000000D+00
 0.346868484541398D+03 0.000000000000000D+00 0.000000000000000D+00 0.346868484541398D+03
 0.314280049833832D+03 0.000000000000000D+00 0.000000000000000D+00 -.314280049833832D+03
 0.172106935890410D+03 -.432527900740899D+02 0.826504121723252D+02 -.727592117888671D+02
 0.295038752050880D+03 0.209491949021996D+03 -.177200083668711D+03 0.727592117888671D+02
 0.194002846433940D+03 -.166239158947906D+03 0.945496714963863D+02 0.325884347075664D+02
0.139800142059D-02 0.000000000000D+00 0.000000000000D+00 0.189158438633D-02 0.000000000000D+00  5 -1 2 25 24 21 0 0.13196883D-01 0.81447418D-01 0.40103316D+05 0.40103316D+05 0.40103316D+05 0.12018865D+01  1  2  2  1  5  1       -1 0.362383175054D+00 0.100000000000D+01
-.773018261395D-04 0.000000000000D+00 -.536869355730D-05 0.189158438633D-02 0.000000000000D+00  5 -1 2 25 24 21 2 0.13196883D-01 0.81447418D-01 0.40103316D+05 0.40103316D+05 0.40103316D+05 0.12018865D+01  1  2  3  1  5  1       -1 -.289452356544D-01 0.100000000000D+01
0.956572080106D-04 0.000000000000D+00 0.000000000000D+00 0.189158438633D-02 0.000000000000D+00  5 -1 2 25 24 21 2 0.13196883D-01 0.81447418D-01 0.40103316D+05 0.40103316D+05 0.40103316D+05 0.12018865D+01  1  2 15  1  5  1       -1 0.358183055458D-01 0.100000000000D+01
-.102956590891D-03 0.000000000000D+00 -.391121244178D-03 0.189158438633D-02 0.000000000000D+00  5 -1 2 25 24 21 2 0.31328005D-01 0.81447418D-01 0.40103316D+05 0.40103316D+05 0.40103316D+05 0.12018865D+01  1  2  5  1  5  1       -1 -.943759208166D-02 0.100000000000D+01
0.149195489030D-04 0.000000000000D+00 -.369406093563D-04 0.189158438633D-02 0.000000000000D+00  5 21 2 25 24 1 2 0.31328005D-01 0.81447418D-01 0.40103316D+05 0.40103316D+05 0.40103316D+05 0.12018865D+01  1  2  5  3  5  1       -1 0.153976601121D-01 0.100000000000D+01
  </mgrwgt>
  </event>
  <event>
  4     66 0.45252658E-03 0.10452419E+03 0.75467711E-02 0.12534582E+00
       -1 -1    0    0    0  501 0.00000000E+00 0.00000000E+00 0.66724922E+01 0.66801611E+01 0.32000000E+00 0.0000E+00 0.9000E+01
        2 -1    0    0  501    0 0.00000000E+00 0.00000000E+00 -.17673354E+04 0.17673354E+04 0.32000000E+00 0.0000E+00 0.9000E+01
       25  1    1    2    0    0 0.16330718E+02 0.96057385E+01 -.81468577E+03 0.82443731E+03 0.12500000E+03 0.0000E+00 0.9000E+01
       24  1    1    2    0    0 -.16330718E+02 -.96057385E+01 -.94597714E+03 0.94957829E+03 0.80419002E+02 0.0000E+00 0.9000E+01
#aMCatNLO 1  0  0  1  2 0.17991692D+02 0.00000000D+00  -5  5  0 0.00000000D+00 0.00000000D+00 0.00000000D+00 0.00000000D+00 0.00000000D+00
  <mgrwgt>
 0.6173237438D+00    3    2    0
 0.108624858445694D+03 0.000000000000000D+00 0.000000000000000D+00 0.108624858445694D+03
 0.108624858445694D+03 0.000000000000000D+00 0.000000000000000D+00 -.108624858445694D+03
 0.129701489008596D+03 0.163307183622264D+02 0.960573849078248D+01 0.289571006295049D+02
 0.875482278827930D+02 -.163307183622264D+02 -.960573849078248D+01 -.289571006295049D+02
 0.000000000000000D+00 0.000000000000000D+00 0.000000000000000D+00 -.000000000000000D+00
 0.109554510563967D+03 0.000000000000000D+00 0.000000000000000D+00 0.109554510563967D+03
 0.254078660044139D+03 0.000000000000000D+00 0.000000000000000D+00 -.254078660044139D+03
 0.128601107316642D+03 0.631600842934282D+01 0.590247098423719D+01 0.289571006295049D+02
 0.893923339964797D+02 -.231909219675790D+02 -.121425238066076D+02 -.289571006295049D+02
 0.145639729294983D+03 0.168749135382362D+02 0.624005282237044D+01 -.144524149480172D+03
0.312386380496D-03 0.000000000000D+00 0.000000000000D+00 0.286929157925D-02 0.000000000000D+00  5 -1 2 25 24 21 0 0.10271294D-02 0.27189835D+00 0.10925307D+05 0.10925307D+05 0.10925307D+05 0.12638279D+01  1  2  2  1  5  1       -1 0.604826962722D+00 0.100000000000D+01
-.173235518004D-04 0.000000000000D+00 -.119964595433D-05 0.286929157925D-02 0.000000000000D+00  5 -1 2 25 24 21 2 0.10271294D-02 0.27189835D+00 0.10925307D+05 0.10925307D+05 0.10925307D+05 0.12638279D+01  1  2  3  1  5  1       -1 -.535737284884D-01 0.100000000000D+01
0.213644994858D-04 0.000000000000D+00 0.000000000000D+00 0.286929157925D-02 0.000000000000D+00  5 -1 2 25 24 21 2 0.10271294D-02 0.27189835D+00 0.10925307D+05 0.10925307D+05 0.10925307D+05 0.12638279D+01  1  2 15  1  5  1       -1 0.660705095542D-01 0.100000000000D+01
  </mgrwgt>
  </event>
  <event>
  4     66 0.45252658E-03 0.15523013E+03 0.75467711E-02 0.10707169E+00
       -1 -1    0    0    0  501 0.00000000E+00 0.00000000E+00 0.11041624E+03 0.11041670E+03 0.32000000E+00 0.0000E+00 0.9000E+01
        2 -1    0    0  501    0 0.00000000E+00 0.00000000E+00 -.27169528E+03 0.27169547E+03 0.32000000E+00 0.0000E+00 0.9000E+01
       25  1    1    2    0    0 0.26425272E+02 -.11211384E+03 -.17123776E+03 0.24127822E+03 0.12500000E+03 0.0000E+00 0.9000E+01
       24  1    1    2    0    0 -.26425272E+02 0.11211384E+03 0.99587186E+01 0.14083395E+03 0.80419002E+02 0.0000E+00 0.9000E+01
#aMCatNLO 1  0  0  2  2 0.25922176D+03 0.00000000D+00  -5  5  0 0.00000000D+00 0.00000000D+00 0.00000000D+00 0.00000000D+00 0.00000000D+00
  <mgrwgt>
 0.3383282405D+00    5    2    0
 0.173204200541052D+03 0.000000000000000D+00 0.000000000000000D+00 0.173204200541052D+03
 0.173204200541052D+03 0.000000000000000D+00 0.000000000000000D+00 -.173204200541052D+03
 0.186422390424759D+03 0.264252716355552D+02 -.112113844961721D+03 -.765538923802551D+02
 0.159986010657344D+03 -.264252716355552D+02 0.112113844961721D+03 0.765538923802551D+02
 0.000000000000000D+00 -.000000000000000D+00 0.000000000000000D+00 -.000000000000000D+00
 0.279385129030174D+03 0.000000000000000D+00 0.000000000000000D+00 0.279385129030174D+03
 0.482747426448653D+03 0.000000000000000D+00 0.000000000000000D+00 -.482747426448653D+03
 0.267247858678856D+03 0.174960138649948D+03 -.139013918056636D+03 -.765538923802551D+02
 0.165412171199598D+03 0.801124080212991D+02 0.928195780482540D+02 0.765538923802551D+02
 0.329472525600372D+03 -.255072546671247D+03 0.461943400083819D+02 -.203362297418480D+03
0.868238183697D-03 0.000000000000D+00 0.000000000000D+00 0.185072610587D-02 0.000000000000D+00  5 -1 2 25 24 21 0 0.16987164D-01 0.41799324D-01 0.24096392D+05 0.24096392D+05 0.24096392D+05 0.12250155D+01  1  2  2  2  5  2        2 0.308255152402D+00 0.100000000000D+01
-.475314556064D-04 0.000000000000D+00 -.333426323776D-05 0.185072610587D-02 0.000000000000D+00  5 -1 2 25 24 21 2 0.16987164D-01 0.41799324D-01 0.24096392D+05 0.24096392D+05 0.24096392D+05 0.12250155D+01  1  2  3  2  5  2        2 -.253241995181D-01 0.100000000000D+01
0.595569610781D-04 0.000000000000D+00 0.000000000000D+00 0.185072610587D-02 0.000000000000D+00  5 -1 2 25 24 21 2 0.16987164D-01 0.41799324D-01 0.24096392D+05 0.24096392D+05 0.24096392D+05 0.12250155D+01  1  2 15  2  5  2        2 0.317312471455D-01 0.100000000000D+01
0.192471715257D-03 0.000000000000D+00 -.373493904430D-03 0.185072610587D-02 0.000000000000D+00  5 -1 2 25 24 21 2 0.16987164D-01 0.16602675D+00 0.24096392D+05 0.24096392D+05 0.24096392D+05 0.12250155D+01  1  2  5  2  5  2        2 0.206353384656D-01 0.100000000000D+01
0.364444675784D-04 0.000000000000D+00 -.614216902757D-04 0.185072610587D-02 0.000000000000D+00  5 -1 21 25 24 -2 2 0.16987164D-01 0.16602675D+00 0.24096392D+05 0.24096392D+05 0.24096392D+05 0.12250155D+01  1  2  5  4  5  2        2 0.303070200348D-02 0.100000000000D+01
  </mgrwgt>
  </event>
  <event>
  4     66 0.45252658E-03 0.14888112E+03 0.75467711E-02 0.11525611E+00
       -3 -1    0    0    0  501 0.00000000E+00 0.00000000E+00 0.58882378E+02 0.58884500E+02 0.50000000E+00 0.0000E+00 0.9000E+01
        4 -1    0    0  501    0 0.00000000E+00 0.00000000E+00 -.44799811E+03 0.44800079E+03 0.15500000E+01 0.0000E+00 0.9000E+01
       25  1    1    2    0    0 -.31501870E+02 0.12032951E+03 -.22367330E+03 0.28482680E+03 0.12500000E+03 0.0000E+00 0.9000E+01
       24  1    1    2    0    0 0.31501870E+02 -.12032951E+03 -.16544243E+03 0.22205849E+03 0.80419002E+02 0.0000E+00 0.9000E+01
#aMCatNLO 1  0  0  2  1 0.62884981D+02 0.00000000D+00  -5  5  0 0.00000000D+00 0.00000000D+00 0.00000000D+00 0.00000000D+00 0.00000000D+00
  <mgrwgt>
 0.2972244831D-01    9    2    0
 0.162420476591177D+03 0.000000000000000D+00 0.000000000000000D+00 0.162420476591177D+03
 0.162420476591177D+03 0.000000000000000D+00 0.000000000000000D+00 -.162420476591177D+03
 0.176516273250918D+03 -.315018701921295D+02 0.120329514183714D+03 -.783804268311652D+01
 0.148324679931437D+03 0.315018701921295D+02 -.120329514183714D+03 0.783804268311652D+01
 0.000000000000000D+00 0.000000000000000D+00 0.000000000000000D+00 -.000000000000000D+00
 0.179128326120696D+03 0.000000000000000D+00 0.000000000000000D+00 0.179128326120696D+03
 0.237638690337410D+03 0.000000000000000D+00 0.000000000000000D+00 -.237638690337410D+03
 0.180354335741421D+03 -.648040424970585D+02 0.112435259521497D+03 -.783804268311652D+01
 0.150517491034682D+03 0.361475027044841D+01 -.126940134789534D+03 0.783804268311652D+01
 0.858951896820030D+02 0.611892922266101D+02 0.145048752680372D+02 -.585103642167135D+02
0.651261600097D-03 0.000000000000D+00 0.000000000000D+00 0.231773377544D-02 0.000000000000D+00  5 -3 4 25 24 21 0 0.90591969D-02 0.68923155D-01 0.26318509D+05 0.26318509D+05 0.26318509D+05 0.12209117D+01  1  2  2  2  5  2        4 0.225327586428D-01 0.100000000000D+01
-.361811393074D-04 0.000000000000D+00 -.250101602549D-05 0.231773377544D-02 0.000000000000D+00  5 -3 4 25 24 21 2 0.90591969D-02 0.68923155D-01 0.26318509D+05 0.26318509D+05 0.26318509D+05 0.12209117D+01  1  2  3  2  5  2        4 -.186599153399D-02 0.100000000000D+01
0.449517545815D-04 0.000000000000D+00 0.000000000000D+00 0.231773377544D-02 0.000000000000D+00  5 -3 4 25 24 21 2 0.90591969D-02 0.68923155D-01 0.26318509D+05 0.26318509D+05 0.26318509D+05 0.12209117D+01  1  2 15  2  5  2        4 0.231832372039D-02 0.100000000000D+01
0.625505332140D-03 0.000000000000D+00 0.000000000000D+00 0.231773377544D-02 0.000000000000D+00  5 -3 4 25 24 21 2 0.90591969D-02 0.10308622D+00 0.38687387D+05 0.38687387D+05 0.38687387D+05 0.12034746D+01  1  2 12  2  5  2        4 0.130134836702D-01 0.100000000000D+01
-.739694674377D-03 0.000000000000D+00 0.000000000000D+00 0.231773377544D-02 0.000000000000D+00  5 -3 4 25 24 21 2 0.90591969D-02 0.68923155D-01 0.26318509D+05 0.26318509D+05 0.26318509D+05 0.12209117D+01  1  2  4  2  5  2        4 -.381487157825D-01 0.100000000000D+01
-.970800428536D-03 0.000000000000D+00 -.294759677846D-03 0.231773377544D-02 0.000000000000D+00  5 -3 4 25 24 21 2 0.90591969D-02 0.10776827D+00 0.26318509D+05 0.26318509D+05 0.26318509D+05 0.12209117D+01  1  2  5  2  5  2        4 -.182782496486D-01 0.100000000000D+01
0.102556326317D-02 0.000000000000D+00 0.267580224999D-03 0.231773377544D-02 0.000000000000D+00  5 -3 4 25 24 21 2 0.90591969D-02 0.68923155D-01 0.26318509D+05 0.26318509D+05 0.26318509D+05 0.12209117D+01  1  2  6  2  5  2        4 0.528919874632D-01 0.100000000000D+01
0.299144882009D-04 0.000000000000D+00 0.000000000000D+00 0.231773377544D-02 0.000000000000D+00  5 -3 21 25 24 -4 2 0.90591969D-02 0.10308622D+00 0.38687387D+05 0.38687387D+05 0.38687387D+05 0.12034746D+01  1  2 12  4  5  2        4 0.141558511089D-01 0.100000000000D+01
-.385603749810D-04 0.000000000000D+00 -.152395986951D-04 0.231773377544D-02 0.000000000000D+00  5 -3 21 25 24 -4 2 0.90591969D-02 0.10776827D+00 0.26318509D+05 0.26318509D+05 0.26318509D+05 0.12209117D+01  1  2  5  4  5  2        4 -.168969993349D-01 0.100000000000D+01
  </mgrwgt>
  </event>
  <event>
  4     66 0.45252658E-03 0.12103693E+03 0.75467711E-02 0.11426517E+00
       -1 -1    0    0    0  501 0.00000000E+00 0.00000000E+00 0.50299175E+03 0.50299185E+03 0.32000000E+00 0.0000E+00 0.9000E+01
        2 -1    0    0  501    0 0.00000000E+00 0.00000000E+00 -.72640708E+02 0.72641413E+02 0.32000000E+00 0.0000E+00 0.9000E+01
       25  1    1    2    0    0 0.11503745E+03 -.85744360E+02 0.12166165E+03 0.22585895E+03 0.12500000E+03 0.0000E+00 0.9000E+01
       24  1    1    2    0    0 -.11503745E+03 0.85744360E+02 0.30868939E+03 0.34977431E+03 0.80419002E+02 0.0000E+00 0.9000E+01
#aMCatNLO 1  0  0  2  1 0.58024932D+02 0.00000000D+00  -5  5  0 0.00000000D+00 0.00000000D+00 0.00000000D+00 0.00000000D+00 0.00000000D+00
  <mgrwgt>
 0.9022879095D-01    7    2    0
 0.191148918693226D+03 0.000000000000000D+00 0.000000000000000D+00 0.191148918693226D+03
 0.191148918693226D+03 0.000000000000000D+00 0.000000000000000D+00 -.191148918693226D+03
 0.203126208583533D+03 0.115037451740237D+03 -.857443595698536D+02 -.710601584053190D+02
 0.179171628802920D+03 -.115037451740237D+03 0.857443595698536D+02 0.710601584053190D+02
 0.000000000000000D+00 -.000000000000000D+00 -.000000000000000D+00 -.000000000000000D+00
 0.195142204303657D+03 0.000000000000000D+00 0.000000000000000D+00 0.195142204303657D+03
 0.659905916914748D+03 0.000000000000000D+00 0.000000000000000D+00 -.659905916914748D+03
 0.213730137764827D+03 0.142010844404785D+03 -.695625312062671D+02 -.710601584053190D+02
 0.172946121208282D+03 -.922530790938576D+02 0.994131187104230D+02 0.710601584053190D+02
 0.468371862245295D+03 -.497577653109276D+02 -.298505875041560D+02 -.464763712611091D+03
0.233932940156D-02 0.000000000000D+00 0.000000000000D+00 0.190490811263D-02 0.000000000000D+00  5 -1 2 25 24 21 0 0.77383408D-01 0.11175556D-01 0.31465236D+05 0.31465236D+05 0.31465236D+05 0.12127308D+01  1  2  2  2  5  2        2 0.257629119021D+00 0.100000000000D+01
-.129080211205D-03 0.000000000000D+00 -.898364086158D-05 0.190490811263D-02 0.000000000000D+00  5 -1 2 25 24 21 2 0.77383408D-01 0.11175556D-01 0.31465236D+05 0.31465236D+05 0.31465236D+05 0.12127308D+01  1  2  3  2  5  2        2 -.209070169478D-01 0.100000000000D+01
0.160851231374D-03 0.000000000000D+00 0.000000000000D+00 0.190490811263D-02 0.000000000000D+00  5 -1 2 25 24 21 2 0.77383408D-01 0.11175556D-01 0.31465236D+05 0.31465236D+05 0.31465236D+05 0.12127308D+01  1  2 15  2  5  2        2 0.260529432746D-01 0.100000000000D+01
0.334493382063D-01 0.000000000000D+00 0.000000000000D+00 0.190490811263D-02 0.000000000000D+00  5 -1 2 25 24 21 2 0.77383408D-01 0.38325857D-01 0.43528448D+05 0.43528448D+05 0.43528448D+05 0.11982898D+01  1  2 12  2  5  2        2 0.129519408589D+01 0.100000000000D+01
-.358536770743D-01 0.000000000000D+00 -.972812870306D-03 0.190490811263D-02 0.000000000000D+00  5 -1 2 25 24 21 2 0.77383408D-01 0.38916322D-01 0.31465236D+05 0.31465236D+05 0.31465236D+05 0.12127308D+01  1  2  5  2  5  2        2 -.140334912850D+01 0.100000000000D+01
0.480618853390D-02 0.000000000000D+00 0.000000000000D+00 0.190490811263D-02 0.000000000000D+00  5 -1 21 25 24 -2 2 0.77383408D-01 0.38325857D-01 0.43528448D+05 0.43528448D+05 0.43528448D+05 0.11982898D+01  1  2 12  4  5  2        2 0.734579140010D+00 0.100000000000D+01
-.519734360932D-02 0.000000000000D+00 -.141880323374D-03 0.190490811263D-02 0.000000000000D+00  5 -1 21 25 24 -2 2 0.77383408D-01 0.38916322D-01 0.31465236D+05 0.31465236D+05 0.31465236D+05 0.12127308D+01  1  2  5  4  5  2        2 -.798970351792D+00 0.100000000000D+01
  </mgrwgt>
  </event>
  <event>
  4     66 0.45252658E-03 0.14951191E+03 0.75467711E-02 0.11100629E+00
       -1 -1    0    0    0  501 0.00000000E+00 0.00000000E+00 0.35183998E+02 0.35185453E+02 0.32000000E+00 0.0000E+00 0.9000E+01
        2 -1    0    0  501    0 0.00000000E+00 0.00000000E+00 -.64497248E+03 0.64497256E+03 0.32000000E+00 0.0000E+00 0.9000E+01
       25  1    1    2    0    0 0.66392105E+02 0.84464626E+02 -.37702979E+03 0.41148348E+03 0.12500000E+03 0.0000E+00 0.9000E+01
       24  1    1    2    0    0 -.66392105E+02 -.84464626E+02 -.23275869E+03 0.26867454E+03 0.80419002E+02 0.0000E+00 0.9000E+01
#aMCatNLO 1  0  0  1  1 0.16786820D+03 0.00000000D+00  -5  5  0 0.00000000D+00 0.00000000D+00 0.00000000D+00 0.00000000D+00 0.00000000D+00
  <mgrwgt>
 0.2747264237D+00    5    2    0
 0.150642731417901D+03 0.000000000000000D+00 0.000000000000000D+00 0.150642731417901D+03
 0.150642731417901D+03 0.000000000000000D+00 0.000000000000000D+00 -.150642731417901D+03
 0.165840583912066D+03 0.663921054592644D+02 0.844646258175377D+02 -.183279728962070D+02
 0.135444878923736D+03 -.663921054592644D+02 -.844646258175377D+02 0.183279728962070D+02
 0.000000000000000D+00 -.000000000000000D+00 -.000000000000000D+00 0.000000000000000D+00
 0.593285172221029D+03 0.000000000000000D+00 0.000000000000000D+00 0.593285172221029D+03
 0.189187837086080D+03 0.000000000000000D+00 0.000000000000000D+00 -.189187837086080D+03
 0.243905367238024D+03 0.161735393897231D+03 0.131797480772354D+03 -.183279728962070D+02
 0.100989777851446D+03 -.113764119194631D+02 -.571522697490527D+02 0.183279728962070D+02
 0.437577864217640D+03 -.150358981977768D+03 -.746452110233009D+02 0.404097335134949D+03
0.509311007084D-03 0.000000000000D+00 0.000000000000D+00 0.237166365124D-02 0.000000000000D+00  5 -1 2 25 24 21 0 0.54130408D-02 0.99226654D-01 0.22353811D+05 0.22353811D+05 0.22353811D+05 0.12285415D+01  1  2  2  1  5  1       -1 0.404841009998D+00 0.100000000000D+01
-.282931027110D-04 0.000000000000D+00 -.195588837187D-05 0.237166365124D-02 0.000000000000D+00  5 -1 2 25 24 21 2 0.54130408D-02 0.99226654D-01 0.22353811D+05 0.22353811D+05 0.22353811D+05 0.12285415D+01  1  2  3  1  5  1       -1 -.339438933653D-01 0.100000000000D+01
0.350637253874D-04 0.000000000000D+00 0.000000000000D+00 0.237166365124D-02 0.000000000000D+00  5 -1 2 25 24 21 2 0.54130408D-02 0.99226654D-01 0.22353811D+05 0.22353811D+05 0.22353811D+05 0.12285415D+01  1  2 15  1  5  1       -1 0.420667668618D-01 0.100000000000D+01
-.393340723107D-03 0.000000000000D+00 -.189812790622D-03 0.237166365124D-02 0.000000000000D+00  5 -1 2 25 24 21 2 0.26339042D-01 0.99226654D-01 0.22353811D+05 0.22353811D+05 0.22353811D+05 0.12285415D+01  1  2  5  1  5  1       -1 -.403267414975D-01 0.100000000000D+01
-.801333409991D-04 0.000000000000D+00 -.365408352556D-04 0.237166365124D-02 0.000000000000D+00  5 21 2 25 24 1 2 0.26339042D-01 0.99226654D-01 0.22353811D+05 0.22353811D+05 0.22353811D+05 0.12285415D+01  1  2  5  3  5  1       -1 -.979107182578D-01 0.100000000000D+01
  </mgrwgt>
  </event>
  <event>
  4     66 0.45252658E-03 0.12021270E+03 0.75467711E-02 0.11561483E+00
       -1 -1    0    0    0  501 0.00000000E+00 0.00000000E+00 0.20255875E+02 0.20258402E+02 0.32000000E+00 0.0000E+00 0.9000E+01
        2 -1    0    0  501    0 0.00000000E+00 0.00000000E+00 -.73732113E+03 0.73732120E+03 0.32000000E+00 0.0000E+00 0.9000E+01
       25  1    1    2    0    0 -.56288483E+02 -.24480642E+02 -.48091160E+03 0.50066821E+03 0.12500000E+03 0.0000E+00 0.9000E+01
       24  1    1    2    0    0 0.56288483E+02 0.24480642E+02 -.23615366E+03 0.25691139E+03 0.80419002E+02 0.0000E+00 0.9000E+01
#aMCatNLO 1  0  0  1  2 0.11748974D+03 0.00000000D+00  -5  5  0 0.00000000D+00 0.00000000D+00 0.00000000D+00 0.00000000D+00 0.00000000D+00
  <mgrwgt>
 0.3047345445D+00    5    2    0
 0.122213206672100D+03 0.000000000000000D+00 0.000000000000000D+00 0.122213206672100D+03
 0.122213206672100D+03 0.000000000000000D+00 0.000000000000000D+00 -.122213206672100D+03
 0.140946419503590D+03 -.562884828588677D+02 -.244806416846867D+02 -.217531158925548D+02
 0.103479993840609D+03 0.562884828588677D+02 0.244806416846867D+02 0.217531158925548D+02
 0.000000000000000D+00 -.000000000000000D+00 -.000000000000000D+00 0.000000000000000D+00
 0.200753723054694D+03 0.000000000000000D+00 0.000000000000000D+00 0.200753723054694D+03
 0.188564208312966D+03 0.000000000000000D+00 0.000000000000000D+00 -.188564208312966D+03
 0.134038931105535D+03 -.290917960443338D+02 0.319672395397906D+02 -.217531158925548D+02
 0.137158619715271D+03 0.800881979850223D+02 0.738779635636016D+02 0.217531158925548D+02
 0.118120380546853D+03 -.509964019406885D+02 -.105845203103392D+03 0.121895147417285D+02
0.182909232644D-03 0.000000000000D+00 0.000000000000D+00 0.266713201179D-02 0.000000000000D+00  5 -1 2 25 24 21 0 0.31164882D-02 0.11343422D+00 0.14451093D+05 0.14451093D+05 0.14451093D+05 0.12496725D+01  1  2  2  1  5  1       -1 0.275443005483D+00 0.100000000000D+01
-.101582585524D-04 0.000000000000D+00 -.702419614461D-06 0.266713201179D-02 0.000000000000D+00  5 -1 2 25 24 21 2 0.31164882D-02 0.11343422D+00 0.14451093D+05 0.14451093D+05 0.14451093D+05 0.12496725D+01  1  2  3  1  5  1       -1 -.238895415836D-01 0.100000000000D+01
0.126335970564D-04 0.000000000000D+00 0.000000000000D+00 0.266713201179D-02 0.000000000000D+00  5 -1 2 25 24 21 2 0.31164882D-02 0.11343422D+00 0.14451093D+05 0.14451093D+05 0.14451093D+05 0.12496725D+01  1  2 15  1  5  1       -1 0.297108840726D-01 0.100000000000D+01
-.378072232888D-05 0.000000000000D+00 -.518414675829D-04 0.266713201179D-02 0.000000000000D+00  5 -1 2 25 24 21 2 0.79986222D-02 0.11343422D+00 0.14451093D+05 0.14451093D+05 0.14451093D+05 0.12496725D+01  1  2  5  1  5  1       -1 -.221235228241D-02 0.100000000000D+01
0.275876756234D-05 0.000000000000D+00 -.540200501958D-05 0.266713201179D-02 0.000000000000D+00  5 21 2 25 24 1 2 0.79986222D-02 0.11343422D+00 0.14451093D+05 0.14451093D+05 0.14451093D+05 0.12496725D+01  1  2  5  3  5  1       -1 0.256825488216D-01 0.100000000000D+01
  </mgrwgt>
  </event>
  <event>
  5     66 0.45252658E-03 0.10349320E+03 0.75467711E-02 0.11088283E+00
       21 -1    0    0  502  501 0.00000000E+00 0.00000000E+00 0.21027070E+04 0.21027071E+04 0.75000000E+00 0.0000E+00 0.9000E+01
        2 -1    0    0  501    0 0.00000000E+00 0.00000000E+00 -.49369406E+02 0.49370443E+02 0.32000000E+00 0.0000E+00 0.9000E+01
       25  1    1    2    0    0 0.13847035E+03 -.14526155E+02 0.45790604E+03 0.49465947E+03 0.12500000E+03 0.0000E+00 0.9000E+01
       24  1    1    2    0    0 0.74573563E+02 -.20039182E+02 0.11081104E+03 0.15719124E+03 0.80419002E+02 0.0000E+00 0.9000E+01
        1  1    1    2  502    0 -.21304391E+03 0.34565336E+02 0.14846205E+04 0.15002269E+04 0.32000000E+00 0.0000E+00 0.9000E+01
#aMCatNLO 2  0  0  1  2 0.21582973D+03 0.00000000D+00  -5  5  0 0.00000000D+00 0.00000000D+00 0.00000000D+00 0.00000000D+00 0.00000000D+00
  <mgrwgt>
 0.1217070576D-01    1    2    0
 0.117140688208910D+03 0.000000000000000D+00 0.000000000000000D+00 0.117140688208910D+03
 0.117140688208910D+03 0.000000000000000D+00 0.000000000000000D+00 -.117140688208910D+03
 0.136685101396276D+03 0.107578891996815D+02 0.619456954000787D+01 0.538861027714174D+02
 0.975962750215443D+02 -.107578891996815D+02 -.619456954000787D+01 -.538861027714174D+02
 0.000000000000000D+00 -.000000000000000D+00 0.000000000000000D+00 0.000000000000000D+00
 0.548764721398231D+03 0.000000000000000D+00 0.000000000000000D+00 0.548764721398231D+03
 0.189171410780740D+03 0.000000000000000D+00 0.000000000000000D+00 -.189171410780740D+03
 0.194714557903817D+03 0.138470349970142D+03 -.145261545817771D+02 0.538861027714174D+02
 0.123829370879318D+03 0.745735627861526D+02 -.200391816071710D+02 -.538861027714174D+02
 0.419392203395836D+03 -.213043912756294D+03 0.345653361889481D+02 0.359593310617492D+03
0.338774489251D-03 0.000000000000D+00 0.000000000000D+00 0.232468041976D-02 0.370911277528D-06  5 21 2 25 24 1 2 0.32349338D+00 0.75953812D-02 0.66159392D+05 0.66159392D+05 0.66159392D+05 0.11804214D+01  1  2  1  3  5  1       -1 0.121707057645D-01 0.100000000000D+01
  </mgrwgt>
  </event>
  <event>
  4     66 0.45252658E-03 0.17177489E+03 0.75467711E-02 0.10424517E+00
       -1 -1    0    0    0  501 0.00000000E+00 0.00000000E+00 0.22301439E+02 0.22303735E+02 0.32000000E+00 0.0000E+00 0.9000E+01
        2 -1    0    0  501    0 0.00000000E+00 0.00000000E+00 -.17321643E+04 0.17321644E+04 0.32000000E+00 0.0000E+00 0.9000E+01
       25  1    1    2    0    0 0.24020676E+02 -.13439178E+03 -.48023117E+03 0.51466992E+03 0.12500000E+03 0.0000E+00 0.9000E+01
       24  1    1    2    0    0 -.24020676E+02 0.13439178E+03 -.12296317E+04 0.12397982E+04 0.80419002E+02 0.0000E+00 0.9000E+01
#aMCatNLO 1  0  0  1  2 0.33093061D+03 0.00000000D+00  -5  5  0 0.00000000D+00 0.00000000D+00 0.00000000D+00 0.00000000D+00 0.00000000D+00
  <mgrwgt>
 0.3444719335D+00    5    2    0
 0.196549732620140D+03 0.000000000000000D+00 0.000000000000000D+00 0.196549732620140D+03
 0.196549732620140D+03 0.000000000000000D+00 0.000000000000000D+00 -.196549732620140D+03
 0.208197909297297D+03 0.240206756535575D+02 -.134391781302418D+03 0.953059583408891D+02
 0.184901555942983D+03 -.240206756535575D+02 0.134391781302418D+03 -.953059583408891D+02
 0.000000000000000D+00 0.000000000000000D+00 0.000000000000000D+00 0.000000000000000D+00
 0.128238461848410D+04 0.000000000000000D+00 0.000000000000000D+00 0.128238461848410D+04
 0.283624237091266D+03 0.000000000000000D+00 0.000000000000000D+00 -.283624237091266D+03
 0.281297947252074D+03 -.148743040127185D+03 -.179710371004786D+03 0.953059583408891D+02
 0.232552475797226D+03 -.171357795521122D+03 0.957429802330967D+02 -.953059583408891D+02
 0.105215843252607D+04 0.320100835648307D+03 0.839673907716892D+02 0.998760381392839D+03
0.109218277138D-02 0.000000000000D+00 0.000000000000D+00 0.168849618714D-02 0.000000000000D+00  5 -1 2 25 24 21 0 0.34311695D-02 0.26648700D+00 0.29506611D+05 0.29506611D+05 0.29506611D+05 0.12156550D+01  1  2  2  1  5  1       -1 0.393776373875D+00 0.100000000000D+01
-.593376457744D-04 0.000000000000D+00 -.419426942041D-05 0.168849618714D-02 0.000000000000D+00  5 -1 2 25 24 21 2 0.34311695D-02 0.26648700D+00 0.29506611D+05 0.29506611D+05 0.29506611D+05 0.12156550D+01  1  2  3  1  5  1       -1 -.316158834505D-01 0.100000000000D+01
0.749734700259D-04 0.000000000000D+00 0.000000000000D+00 0.168849618714D-02 0.000000000000D+00  5 -1 2 25 24 21 2 0.34311695D-02 0.26648700D+00 0.29506611D+05 0.29506611D+05 0.29506611D+05 0.12156550D+01  1  2 15  1  5  1       -1 0.399468576699D-01 0.100000000000D+01
-.644247347897D-03 0.000000000000D+00 -.709639822554D-03 0.168849618714D-02 0.000000000000D+00  5 -1 2 25 24 21 2 0.33904168D-01 0.26648700D+00 0.29506611D+05 0.29506611D+05 0.29506611D+05 0.12156550D+01  1  2  5  1  5  1       -1 -.966581890803D-02 0.100000000000D+01
-.287650032286D-03 0.000000000000D+00 -.193687505222D-03 0.168849618714D-02 0.000000000000D+00  5 21 2 25 24 1 2 0.33904168D-01 0.26648700D+00 0.29506611D+05 0.29506611D+05 0.29506611D+05 0.12156550D+01  1  2  5  3  5  1       -1 -.479695956637D-01 0.100000000000D+01
  </mgrwgt>
  </event>
  <event>
  4     66 0.45252658E-03 0.73727360E+02 0.75467711E-02 0.11909275E+00
       -1 -1    0    0    0  501 0.00000000E+00 0.00000000E+00 0.25891568E+02 0.25893545E+02 0.32000000E+00 0.0000E+00 0.9000E+01
        2 -1    0    0  501    0 0.00000000E+00 0.00000000E+00 -.74416304E+03 0.74416311E+03 0.32000000E+00 0.0000E+00 0.9000E+01
       25  1    1    2    0    0 -.23360879E+02 -.55222420E+02 -.20766354E+03 0.24968859E+03 0.12500000E+03 0.0000E+00 0.9000E+01
       24  1    1    2    0    0 0.23360879E+02 0.55222420E+02 -.51060792E+03 0.52036806E+03 0.80419002E+02 0.0000E+00 0.9000E+01
#aMCatNLO 1  0  0  1  2 0.68139958D+02 0.00000000D+00  -5  5  0 0.00000000D+00 0.00000000D+00 0.00000000D+00 0.00000000D+00 0.00000000D+00
  <mgrwgt>
 0.2845903694D+00    9    2    0
 0.138810430812193D+03 0.000000000000000D+00 0.000000000000000D+00 0.138810430812193D+03
 0.138810430812193D+03 0.000000000000000D+00 0.000000000000000D+00 -.138810430812193D+03
 0.155303759145025D+03 -.233608787990610D+02 -.552224197551735D+02 0.699929375201168D+02
 0.122317102479361D+03 0.233608787990610D+02 0.552224197551735D+02 -.699929375201168D+02
 0.000000000000000D+00 0.000000000000000D+00 -.000000000000000D+00 0.000000000000000D+00
 0.220899180943707D+03 0.000000000000000D+00 0.000000000000000D+00 0.220899180943707D+03
 0.157817941548870D+03 0.000000000000000D+00 0.000000000000000D+00 -.157817941548870D+03
 0.165078088875351D+03 -.620700360645193D+02 -.536103977507409D+02 0.699929375201168D+02
 0.120782710722876D+03 -.601091288824596D+01 0.564455921994829D+02 -.699929375201168D+02
 0.928563228943506D+02 0.680809489527653D+02 -.283519444874203D+01 0.630812393948367D+02
0.309988025049D-03 0.000000000000D+00 0.000000000000D+00 0.193884233209D-02 0.000000000000D+00  5 -1 2 25 24 21 0 0.39834755D-02 0.11448678D+00 0.14274148D+05 0.14274148D+05 0.14274148D+05 0.12502857D+01  1  2  2  1  5  1       -1 0.322642222413D+00 0.100000000000D+01
-.167503905789D-04 0.000000000000D+00 -.119043563791D-05 0.193884233209D-02 0.000000000000D+00  5 -1 2 25 24 21 2 0.39834755D-02 0.11448678D+00 0.14274148D+05 0.14274148D+05 0.14274148D+05 0.12502857D+01  1  2  3  1  5  1       -1 -.272533427398D-01 0.100000000000D+01
0.211914295037D-04 0.000000000000D+00 0.000000000000D+00 0.193884233209D-02 0.000000000000D+00  5 -1 2 25 24 21 2 0.39834755D-02 0.11448678D+00 0.14274148D+05 0.14274148D+05 0.14274148D+05 0.12502857D+01  1  2 15  1  5  1       -1 0.344790343061D-01 0.100000000000D+01
0.102982623354D-03 0.000000000000D+00 0.000000000000D+00 0.193884233209D-02 0.000000000000D+00  5 -1 2 25 24 21 2 0.64794647D-02 0.11448678D+00 0.24976647D+05 0.24976647D+05 0.24976647D+05 0.12233412D+01  1  2 12  1  5  1       -1 0.792049670812D-01 0.100000000000D+01
-.214021287236D-03 0.000000000000D+00 0.000000000000D+00 0.193884233209D-02 0.000000000000D+00  5 -1 2 25 24 21 2 0.39834755D-02 0.11448678D+00 0.14274148D+05 0.14274148D+05 0.14274148D+05 0.12502857D+01  1  2  4  1  5  1       -1 -.348218476887D+00 0.100000000000D+01
-.214628841998D-03 0.000000000000D+00 -.957337798506D-04 0.193884233209D-02 0.000000000000D+00  5 -1 2 25 24 21 2 0.72046722D-02 0.11448678D+00 0.14274148D+05 0.14274148D+05 0.14274148D+05 0.12502857D+01  1  2  5  1  5  1       -1 -.145398452853D+00 0.100000000000D+01
0.242227130590D-03 0.000000000000D+00 0.810773656630D-04 0.193884233209D-02 0.000000000000D+00  5 -1 2 25 24 21 2 0.39834755D-02 0.11448678D+00 0.14274148D+05 0.14274148D+05 0.14274148D+05 0.12502857D+01  1  2  6  1  5  1       -1 0.394110154014D+00 0.100000000000D+01
0.568247584910D-05 0.000000000000D+00 0.000000000000D+00 0.193884233209D-02 0.000000000000D+00  5 21 2 25 24 1 2 0.64794647D-02 0.11448678D+00 0.24976647D+05 0.24976647D+05 0.24976647D+05 0.12233412D+01  1  2 12  3  5  1       -1 0.721353335073D-01 0.100000000000D+01
-.880811113965D-05 0.000000000000D+00 -.621527899422D-05 0.193884233209D-02 0.000000000000D+00  5 21 2 25 24 1 2 0.72046722D-02 0.11448678D+00 0.14274148D+05 0.14274148D+05 0.14274148D+05 0.12502857D+01  1  2  5  3  5  1       -1 -.971110694885D-01 0.100000000000D+01
  </mgrwgt>
  </event>
  <event>
  4     66 -.45252658E-03 0.11404869E+03 0.75467711E-02 0.12310046E+00
       -3 -1    0    0    0  501 0.00000000E+00 0.00000000E+00 0.68642954E+02 0.68644775E+02 0.50000000E+00 0.0000E+00 0.9000E+01
        4 -1    0    0  501    0 0.00000000E+00 0.00000000E+00 -.25546890E+03 0.25547360E+03 0.15500000E+01 0.0000E+00 0.9000E+01
       25  1    1    2    0    0 0.70763783E+02 -.21428767E+02 -.61091735E+02 0.15755604E+03 0.12500000E+03 0.0000E+00 0.9000E+01
       24  1    1    2    0    0 -.70763783E+02 0.21428767E+02 -.12573421E+03 0.16656233E+03 0.80419002E+02 0.0000E+00 0.9000E+01
#aMCatNLO 1  0  0  1  2 0.79556859D+00 0.00000000D+00  -5  5  0 0.00000000D+00 0.00000000D+00 0.00000000D+00 0.00000000D+00 0.00000000D+00
  <mgrwgt>
 -.5433909622D-01   10    2    0
 0.132428081807639D+03 0.000000000000000D+00 0.000000000000000D+00 0.132428081807639D+03
 0.132428081807639D+03 0.000000000000000D+00 0.000000000000000D+00 -.132428081807639D+03
 0.149716303309880D+03 0.707637825724270D+02 -.214287667312451D+02 0.363767303258022D+02
 0.115139860305398D+03 -.707637825724270D+02 0.214287667312451D+02 -.363767303258022D+02
 0.000000000000000D+00 0.000000000000000D+00 -.000000000000000D+00 0.000000000000000D+00
 0.133239977966656D+03 0.000000000000000D+00 0.000000000000000D+00 0.133239977966656D+03
 0.132623715095064D+03 0.000000000000000D+00 0.000000000000000D+00 -.132623715095064D+03
 0.149497004521619D+03 0.703198470936418D+02 -.213590017666476D+02 0.363767303258022D+02
 0.115360353945899D+03 -.711057701120701D+02 0.214825104614404D+02 -.363767303258022D+02
 0.100633459420224D+01 0.785923018428335D+00 -.123508694792844D+00 0.616262871592354D+00
0.218713043818D-03 0.000000000000D+00 0.000000000000D+00 0.241487922233D-02 0.000000000000D+00  5 -3 4 25 24 21 0 0.10560956D-01 0.39303409D-01 0.16189041D+05 0.16189041D+05 0.16189041D+05 0.12440633D+01  1  2  2  1  5  1       -3 0.178820526105D-01 0.100000000000D+01
-.121270931569D-04 0.000000000000D+00 -.839915676728D-06 0.241487922233D-02 0.000000000000D+00  5 -3 4 25 24 21 2 0.10560956D-01 0.39303409D-01 0.16189041D+05 0.16189041D+05 0.16189041D+05 0.12440633D+01  1  2  3  1  5  1       -3 -.153456168354D-02 0.100000000000D+01
0.150825249881D-04 0.000000000000D+00 0.000000000000D+00 0.241487922233D-02 0.000000000000D+00  5 -3 4 25 24 21 2 0.10560956D-01 0.39303409D-01 0.16189041D+05 0.16189041D+05 0.16189041D+05 0.12440633D+01  1  2 15  1  5  1       -3 0.190854186063D-02 0.100000000000D+01
-.968465116286D-02 0.000000000000D+00 0.000000000000D+00 0.241487922233D-02 0.000000000000D+00  5 -3 4 25 24 21 2 0.10560956D-01 0.39303409D-01 0.16189041D+05 0.16189041D+05 0.16189041D+05 0.12440633D+01  1  2  4  1  5  1       -3 -.122549521148D+01 0.100000000000D+01
-.393168456471D-01 0.000000000000D+00 -.339530728303D-02 0.241487922233D-02 0.000000000000D+00  5 -3 4 25 24 21 2 0.10640582D-01 0.39303409D-01 0.16189041D+05 0.16189041D+05 0.16189041D+05 0.12440633D+01  1  2  5  1  5  1       -3 -.491359166913D+01 0.100000000000D+01
0.393413349436D-01 0.000000000000D+00 0.339521150296D-02 0.241487922233D-02 0.000000000000D+00  5 -3 4 25 24 21 2 0.10560956D-01 0.39303409D-01 0.16189041D+05 0.16189041D+05 0.16189041D+05 0.12440633D+01  1  2  6  1  5  1       -3 0.497825030307D+01 0.100000000000D+01
0.968478438416D-02 0.000000000000D+00 0.000000000000D+00 0.241487922233D-02 0.314785254958D-01  5 -3 4 25 24 21 2 0.10625704D-01 0.39361471D-01 0.16291227D+05 0.16291227D+05 0.16291227D+05 0.12437548D+01  1  2 11  1  5  1       -3 0.120976999117D+01 0.100000000000D+01
0.130435876083D-10 0.000000000000D+00 0.000000000000D+00 0.241487922233D-02 0.000000000000D+00  5 21 4 25 24 3 2 0.10633475D-01 0.39303409D-01 0.16291227D+05 0.16291227D+05 0.16291227D+05 0.12437548D+01  1  2 12  3  5  1       -3 0.374529495549D-07 0.100000000000D+01
-.546831461922D-04 0.000000000000D+00 -.472844923006D-05 0.241487922233D-02 0.000000000000D+00  5 21 4 25 24 3 2 0.10640582D-01 0.39303409D-01 0.16189041D+05 0.16189041D+05 0.16189041D+05 0.12440633D+01  1  2  5  3  5  1       -3 -.156856428530D+00 0.100000000000D+01
0.123233083169D-04 0.000000000000D+00 0.000000000000D+00 0.241487922233D-02 0.358048040463D-04  5 21 4 25 24 3 2 0.10625704D-01 0.39361471D-01 0.16291227D+05 0.16291227D+05 0.16291227D+05 0.12437548D+01  1  2 11  3  5  1       -3 0.353278484487D-01 0.100000000000D+01
  </mgrwgt>
  </event>
  <event>
  4     66 0.45252658E-03 0.10276415E+03 0.75467711E-02 0.10952760E+00
       -1 -1    0    0    0  501 0.00000000E+00 0.00000000E+00 0.31603254E+03 0.31603270E+03 0.32000000E+00 0.0000E+00 0.9000E+01
        2 -1    0    0  501    0 0.00000000E+00 0.00000000E+00 -.22036160E+03 0.22036183E+03 0.32000000E+00 0.0000E+00 0.9000E+01
       25  1    1    2    0    0 0.12549259E+03 -.95300343E+02 -.13754662E+03 0.24366907E+03 0.12500000E+03 0.0000E+00 0.9000E+01
       24  1    1    2    0    0 -.12549259E+03 0.95300343E+02 0.23321756E+03 0.29272545E+03 0.80419002E+02 0.0000E+00 0.9000E+01
#aMCatNLO 1  0  0  1  2 0.15330888D+03 0.00000000D+00  -5  5  0 0.00000000D+00 0.00000000D+00 0.00000000D+00 0.00000000D+00 0.00000000D+00
  <mgrwgt>
 0.2242949147D+00    9    2    0
 0.263896835906353D+03 0.000000000000000D+00 0.000000000000000D+00 0.263896835906353D+03
 0.263896835906353D+03 0.000000000000000D+00 0.000000000000000D+00 -.263896835906353D+03
 0.272572370054174D+03 0.125492588631710D+03 -.953003432159181D+02 -.183956928921936D+03
 0.255221301758533D+03 -.125492588631710D+03 0.953003432159181D+02 0.183956928921936D+03
 0.000000000000000D+00 -.000000000000000D+00 -.000000000000000D+00 0.000000000000000D+00
 0.395473417092379D+03 0.000000000000000D+00 0.000000000000000D+00 0.395473417092379D+03
 0.323498741739873D+03 0.000000000000000D+00 0.000000000000000D+00 -.323498741739873D+03
 0.269935633834379D+03 0.151300283631710D+03 -.225459284160531D+02 -.183956928921936D+03
 0.279673110802519D+03 -.100047080440801D+03 0.167033717998701D+03 0.183956928921936D+03
 0.169363414195353D+03 -.512532031909095D+02 -.144487789582648D+03 0.719746753525061D+02
0.320394767392D-02 0.000000000000D+00 0.000000000000D+00 0.107801486611D-02 0.000000000000D+00  5 -1 2 25 24 21 0 0.48620420D-01 0.33901814D-01 0.35729954D+05 0.35729954D+05 0.35729954D+05 0.12070111D+01  1  2  2  1  5  1       -1 0.242181331869D+00 0.100000000000D+01
-.153899693005D-03 0.000000000000D+00 -.123040026867D-04 0.107801486611D-02 0.000000000000D+00  5 -1 2 25 24 21 2 0.48620420D-01 0.33901814D-01 0.35729954D+05 0.35729954D+05 0.35729954D+05 0.12070111D+01  1  2  3  1  5  1       -1 -.169478846649D-01 0.100000000000D+01
0.216409345331D-03 0.000000000000D+00 0.000000000000D+00 0.107801486611D-02 0.000000000000D+00  5 -1 2 25 24 21 2 0.48620420D-01 0.33901814D-01 0.35729954D+05 0.35729954D+05 0.35729954D+05 0.12070111D+01  1  2 15  1  5  1       -1 0.238316305477D-01 0.100000000000D+01
0.968553203905D-04 0.000000000000D+00 0.000000000000D+00 0.107801486611D-02 0.000000000000D+00  5 -1 2 25 24 21 2 0.76147052D-01 0.33901814D-01 0.78824726D+05 0.78824726D+05 0.78824726D+05 0.11731856D+01  1  2 12  1  5  1       -1 0.422150445539D-02 0.100000000000D+01
-.137917270985D-02 0.000000000000D+00 0.000000000000D+00 0.107801486611D-02 0.000000000000D+00  5 -1 2 25 24 21 2 0.48620420D-01 0.33901814D-01 0.35729954D+05 0.35729954D+05 0.35729954D+05 0.12070111D+01  1  2  4  1  5  1       -1 -.151878535708D+00 0.100000000000D+01
-.105512274088D-02 0.000000000000D+00 -.959711065522D-03 0.107801486611D-02 0.000000000000D+00  5 -1 2 25 24 21 2 0.86140429D-01 0.33901814D-01 0.35729954D+05 0.35729954D+05 0.35729954D+05 0.12070111D+01  1  2  5  1  5  1       -1 -.379612753430D-01 0.100000000000D+01
0.149144428175D-02 0.000000000000D+00 0.821626655221D-03 0.107801486611D-02 0.000000000000D+00  5 -1 2 25 24 21 2 0.48620420D-01 0.33901814D-01 0.35729954D+05 0.35729954D+05 0.35729954D+05 0.12070111D+01  1  2  6  1  5  1       -1 0.164242209830D+00 0.100000000000D+01
0.502142375699D-05 0.000000000000D+00 0.000000000000D+00 0.107801486611D-02 0.000000000000D+00  5 21 2 25 24 1 2 0.76147052D-01 0.33901814D-01 0.78824726D+05 0.78824726D+05 0.78824726D+05 0.11731856D+01  1  2 12  3  5  1       -1 0.195116470883D-02 0.100000000000D+01
-.166763493408D-04 0.000000000000D+00 -.604286195909D-04 0.107801486611D-02 0.000000000000D+00  5 21 2 25 24 1 2 0.86140429D-01 0.33901814D-01 0.35729954D+05 0.35729954D+05 0.35729954D+05 0.12070111D+01  1  2  5  3  5  1       -1 -.534523102822D-02 0.100000000000D+01
  </mgrwgt>
  </event>
  <event>
  4     66 0.45252658E-03 0.60282917E+02 0.75467711E-02 0.12173184E+00
       -3 -1    0    0    0  501 0.00000000E+00 0.00000000E+00 0.50108483E+03 0.50108508E+03 0.50000000E+00 0.0000E+00 0.9000E+01
        4 -1    0    0  501    0 0.00000000E+00 0.00000000E+00 -.24934898E+02 0.24983027E+02 0.15500000E+01 0.0000E+00 0.9000E+01
       25  1    1    2    0    0 0.41993229E+02 0.84979543E+01 0.26595581E+03 0.29697330E+03 0.12500000E+03 0.0000E+00 0.9000E+01
       24  1    1    2    0    0 -.41993229E+02 -.84979543E+01 0.21019412E+03 0.22909481E+03 0.80419002E+02 0.0000E+00 0.9000E+01
#aMCatNLO 1  0  0  1  2 0.46161701D+02 0.00000000D+00  -5  5  0 0.00000000D+00 0.00000000D+00 0.00000000D+00 0.00000000D+00 0.00000000D+00
  <mgrwgt>
 0.9006727765D-01    9    2    0
 0.111835699221493D+03 0.000000000000000D+00 0.000000000000000D+00 0.111835699221493D+03
 0.111835699221493D+03 0.000000000000000D+00 0.000000000000000D+00 -.111835699221493D+03
 0.132307212587480D+03 0.419932287739695D+02 0.849795430132161D+01 -.667472939514596D+01
 0.913641858555050D+02 -.419932287739695D+02 -.849795430132161D+01 0.667472939514596D+01
 0.000000000000000D+00 0.000000000000000D+00 0.000000000000000D+00 0.000000000000000D+00
 0.143223208914207D+03 0.000000000000000D+00 0.000000000000000D+00 0.143223208914207D+03
 0.132543077206521D+03 0.000000000000000D+00 0.000000000000000D+00 -.132543077206521D+03
 0.126264120820907D+03 0.158858424678356D+02 0.455150560423794D+01 -.667472939514596D+01
 0.102121073759806D+03 -.615290154782959D+02 -.114510258605255D+02 0.667472939514596D+01
 0.473810915400146D+02 0.456431730104603D+02 0.689952025628758D+01 0.106801317076856D+02
0.568138655703D-03 0.000000000000D+00 0.000000000000D+00 0.295426417413D-02 0.000000000000D+00  5 -3 4 25 24 21 0 0.77093696D-01 0.38398595D-02 0.12461121D+05 0.12461121D+05 0.12461121D+05 0.12571094D+01  1  2  2  1  5  1       -3 0.632295269163D-01 0.100000000000D+01
-.315631278122D-04 0.000000000000D+00 -.218180203224D-05 0.295426417413D-02 0.000000000000D+00  5 -3 4 25 24 21 2 0.77093696D-01 0.38398595D-02 0.12461121D+05 0.12461121D+05 0.12461121D+05 0.12571094D+01  1  2  3  1  5  1       -3 -.555126256303D-02 0.100000000000D+01
0.393560079142D-04 0.000000000000D+00 0.000000000000D+00 0.295426417413D-02 0.000000000000D+00  5 -3 4 25 24 21 2 0.77093696D-01 0.38398595D-02 0.12461121D+05 0.12461121D+05 0.12461121D+05 0.12571094D+01  1  2 15  1  5  1       -3 0.692185941343D-02 0.100000000000D+01
0.220390501575D-03 0.000000000000D+00 0.000000000000D+00 0.295426417413D-02 0.000000000000D+00  5 -3 4 25 24 21 2 0.10420871D+00 0.38398595D-02 0.18789827D+05 0.18789827D+05 0.18789827D+05 0.12368215D+01  1  2 12  1  5  1       -3 0.199802995595D-01 0.100000000000D+01
-.256904563267D-03 0.000000000000D+00 0.000000000000D+00 0.295426417413D-02 0.000000000000D+00  5 -3 4 25 24 21 2 0.77093696D-01 0.38398595D-02 0.12461121D+05 0.12461121D+05 0.12461121D+05 0.12571094D+01  1  2  4  1  5  1       -3 -.451838833216D-01 0.100000000000D+01
-.495058694787D-03 0.000000000000D+00 -.208162347703D-03 0.295426417413D-02 0.000000000000D+00  5 -3 4 25 24 21 2 0.11297254D+00 0.38398595D-02 0.12461121D+05 0.12461121D+05 0.12461121D+05 0.12571094D+01  1  2  5  1  5  1       -3 -.371503532596D-01 0.100000000000D+01
0.548399580652D-03 0.000000000000D+00 0.193837411828D-03 0.295426417413D-02 0.000000000000D+00  5 -3 4 25 24 21 2 0.77093696D-01 0.38398595D-02 0.12461121D+05 0.12461121D+05 0.12461121D+05 0.12571094D+01  1  2  6  1  5  1       -3 0.964514695681D-01 0.100000000000D+01
0.854742539043D-05 0.000000000000D+00 0.000000000000D+00 0.295426417413D-02 0.000000000000D+00  5 21 4 25 24 3 2 0.10420871D+00 0.38398595D-02 0.18789827D+05 0.18789827D+05 0.18789827D+05 0.12368215D+01  1  2 12  3  5  1       -3 0.147011457270D-01 0.100000000000D+01
-.161180948309D-04 0.000000000000D+00 -.958285139965D-05 0.295426417413D-02 0.000000000000D+00  5 21 4 25 24 3 2 0.11297254D+00 0.38398595D-02 0.12461121D+05 0.12461121D+05 0.12461121D+05 0.12571094D+01  1  2  5  3  5  1       -3 -.233315243946D-01 0.100000000000D+01
  </mgrwgt>
  </event>
  <event>
  4     66 0.45252658E-03 0.12534630E+03 0.75467711E-02 0.11899661E+00
       -1 -1    0    0    0  501 0.00000000E+00 0.00000000E+00 0.58862560E+01 0.58949478E+01 0.32000000E+00 0.0000E+00 0.9000E+01
        2 -1    0    0  501    0 0.00000000E+00 0.00000000E+00 -.26871326E+04 0.26871326E+04 0.32000000E+00 0.0000E+00 0.9000E+01
       25  1    1    2    0    0 -.67448956E+02 -.21209299E+02 -.16491563E+04 0.16553975E+04 0.12500000E+03 0.0000E+00 0.9000E+01
       24  1    1    2    0    0 0.67448956E+02 0.21209299E+02 -.10320900E+04 0.10376300E+04 0.80419002E+02 0.0000E+00 0.9000E+01
#aMCatNLO 1  0  0  1  2 0.59998993D+02 0.00000000D+00  -5  5  0 0.00000000D+00 0.00000000D+00 0.00000000D+00 0.00000000D+00 0.00000000D+00
  <mgrwgt>
 0.4341646535D+00    4    2    0
 0.125812874339433D+03 0.000000000000000D+00 0.000000000000000D+00 0.125812874339433D+03
 0.125812874339433D+03 0.000000000000000D+00 0.000000000000000D+00 -.125812874339433D+03
 0.144010105929824D+03 -.674489563552244D+02 -.212092989675517D+02 -.107104870951386D+02
 0.107615642749043D+03 0.674489563552244D+02 0.212092989675517D+02 0.107104870951386D+02
 0.000000000000000D+00 -.000000000000000D+00 0.000000000000000D+00 -.000000000000000D+00
 0.142068038834611D+03 0.000000000000000D+00 0.000000000000000D+00 0.142068038834611D+03
 0.200048000398566D+03 0.000000000000000D+00 0.000000000000000D+00 -.200048000398566D+03
 0.152237278914237D+03 -.655860257879094D+02 -.559906043791610D+02 -.107104870951386D+02
 0.106442825872085D+03 0.687950477801221D+02 -.392251097896257D+01 0.107104870951386D+02
 0.834359344468556D+02 -.320902199221271D+01 0.599131153581235D+02 -.579799615639546D+02
0.606006540393D-03 0.000000000000D+00 0.000000000000D+00 0.266563526349D-02 0.000000000000D+00  5 -1 2 25 24 21 0 0.90624791D-03 0.41340568D+00 0.15711695D+05 0.15711695D+05 0.15711695D+05 0.12455340D+01  1  2  2  1  5  1       -1 0.470337567820D+00 0.100000000000D+01
-.336664649678D-04 0.000000000000D+00 -.232722468030D-05 0.266563526349D-02 0.000000000000D+00  5 -1 2 25 24 21 2 0.90624791D-03 0.41340568D+00 0.15711695D+05 0.15711695D+05 0.15711695D+05 0.12455340D+01  1  2  3  1  5  1       -1 -.405360148512D-01 0.100000000000D+01
0.418436326510D-04 0.000000000000D+00 0.000000000000D+00 0.266563526349D-02 0.000000000000D+00  5 -1 2 25 24 21 2 0.90624791D-03 0.41340568D+00 0.15711695D+05 0.15711695D+05 0.15711695D+05 0.12455340D+01  1  2 15  1  5  1       -1 0.503817111832D-01 0.100000000000D+01
-.382199372099D-04 0.000000000000D+00 0.000000000000D+00 0.266563526349D-02 0.000000000000D+00  5 -1 2 25 24 21 2 0.90624791D-03 0.41340568D+00 0.15711695D+05 0.15711695D+05 0.15711695D+05 0.12455340D+01  1  2  4  1  5  1       -1 -.460186106214D-01 0.100000000000D+01
  </mgrwgt>
  </event>
  <event>
  4     66 0.45252658E-03 0.19934733E+03 0.75467711E-02 0.11131834E+00
       -1 -1    0    0    0  501 0.00000000E+00 0.00000000E+00 0.10750938E+03 0.10750986E+03 0.32000000E+00 0.0000E+00 0.9000E+01
        2 -1    0    0  501    0 0.00000000E+00 0.00000000E+00 -.52252442E+03 0.52252452E+03 0.32000000E+00 0.0000E+00 0.9000E+01
       25  1    1    2    0    0 0.44651174E+02 -.20663924E+03 -.18536185E+03 0.30769712E+03 0.12500000E+03 0.0000E+00 0.9000E+01
       24  1    1    2    0    0 -.44651174E+02 0.20663924E+03 -.22965319E+03 0.32233726E+03 0.80419002E+02 0.0000E+00 0.9000E+01
#aMCatNLO 1  0  0  2  1 0.27792244D+02 0.00000000D+00  -5  5  0 0.00000000D+00 0.00000000D+00 0.00000000D+00 0.00000000D+00 0.00000000D+00
  <mgrwgt>
 0.6821730805D+00    6    2    0
 0.237015736091270D+03 0.000000000000000D+00 0.000000000000000D+00 0.237015736091270D+03
 0.237015736091270D+03 0.000000000000000D+00 0.000000000000000D+00 -.237015736091270D+03
 0.246675204484229D+03 0.446511742131951D+02 -.206639242626298D+03 0.230250419228468D+02
 0.227356267698312D+03 -.446511742131951D+02 0.206639242626298D+03 -.230250419228468D+02
 0.000000000000000D+00 0.000000000000000D+00 0.000000000000000D+00 0.000000000000000D+00
 0.254376967827105D+03 0.000000000000000D+00 0.000000000000000D+00 0.254376967827105D+03
 0.248812373387391D+03 0.000000000000000D+00 0.000000000000000D+00 -.248812373387391D+03
 0.256814223066624D+03 0.381416505100926D+02 -.219871796986633D+03 0.230250419228468D+02
 0.218031273329176D+03 -.504095091388915D+02 0.194933704186830D+03 -.230250419228468D+02
 0.283438448186947D+02 0.122678586287989D+02 0.249380927998023D+02 0.556459443971441D+01
0.226930733837D-02 0.000000000000D+00 0.000000000000D+00 0.206274238272D-02 0.000000000000D+00  5 -1 2 25 24 21 0 0.16539949D-01 0.80388417D-01 0.55645416D+05 0.55645416D+05 0.55645416D+05 0.11877078D+01  1  2  2  2  5  2        2 0.418904372358D+00 0.100000000000D+01
-.126069172788D-03 0.000000000000D+00 -.871473770170D-05 0.206274238272D-02 0.000000000000D+00  5 -1 2 25 24 21 2 0.16539949D-01 0.80388417D-01 0.55645416D+05 0.55645416D+05 0.55645416D+05 0.11877078D+01  1  2  3  2  5  2        2 -.328284005362D-01 0.100000000000D+01
0.155024886954D-03 0.000000000000D+00 0.000000000000D+00 0.206274238272D-02 0.000000000000D+00  5 -1 2 25 24 21 2 0.16539949D-01 0.80388417D-01 0.55645416D+05 0.55645416D+05 0.55645416D+05 0.11877078D+01  1  2 15  2  5  2        2 0.403684657357D-01 0.100000000000D+01
0.365776316932D-02 0.000000000000D+00 0.000000000000D+00 0.206274238272D-02 0.000000000000D+00  5 -1 2 25 24 21 2 0.16539949D-01 0.87162060D-01 0.62596113D+05 0.62596113D+05 0.62596113D+05 0.11827373D+01  1  2 12  2  5  2        2 0.862051575302D+00 0.100000000000D+01
-.240155987305D-02 0.000000000000D+00 0.000000000000D+00 0.206274238272D-02 0.000000000000D+00  5 -1 2 25 24 21 2 0.16539949D-01 0.80388417D-01 0.55645416D+05 0.55645416D+05 0.55645416D+05 0.11877078D+01  1  2  4  2  5  2        2 -.625365961246D+00 0.100000000000D+01
0.493435773454D-04 0.000000000000D+00 0.000000000000D+00 0.206274238272D-02 0.000000000000D+00  5 -1 21 25 24 -2 2 0.16539949D-01 0.87162060D-01 0.62596113D+05 0.62596113D+05 0.62596113D+05 0.11827373D+01  1  2 12  4  5  2        2 0.190430288702D-01 0.100000000000D+01
  </mgrwgt>
  </event>
  <event>
  4     66 0.45252658E-03 0.25527261E+03 0.75467711E-02 0.10491223E+00
       -1 -1    0    0    0  501 0.00000000E+00 0.00000000E+00 0.27112662E+03 0.27112681E+03 0.32000000E+00 0.0000E+00 0.9000E+01
        2 -1    0    0  501    0 0.00000000E+00 0.00000000E+00 -.26583162E+03 0.26583181E+03 0.32000000E+00 0.0000E+00 0.9000E+01
       25  1    1    2    0    0 -.22792328E+03 0.47427971E+02 -.80352596E+02 0.27618829E+03 0.12500000E+03 0.0000E+00 0.9000E+01
       24  1    1    2    0    0 0.22792328E+03 -.47427971E+02 0.85647599E+02 0.26077032E+03 0.80419002E+02 0.0000E+00 0.9000E+01
#aMCatNLO 1  0  0  1  1 0.21751491D+03 0.00000000D+00  -5  5  0 0.00000000D+00 0.00000000D+00 0.00000000D+00 0.00000000D+00 0.00000000D+00
  <mgrwgt>
 0.4973010066D+00    3    2    0
 0.268466253791217D+03 0.000000000000000D+00 0.000000000000000D+00 0.268466253791217D+03
 0.268466253791217D+03 0.000000000000000D+00 0.000000000000000D+00 -.268466253791217D+03
 0.276994126397462D+03 -.227923279312816D+03 0.474279705772795D+02 -.830801565532118D+02
 0.259938381184972D+03 0.227923279312816D+03 -.474279705772795D+02 0.830801565532118D+02
 0.000000000000000D+00 -.000000000000000D+00 0.000000000000000D+00 -.000000000000000D+00
 0.315286793973353D+03 0.000000000000000D+00 0.000000000000000D+00 0.315286793973353D+03
 0.751195591787664D+03 0.000000000000000D+00 0.000000000000000D+00 -.751195591787664D+03
 0.204652548959658D+03 -.135241834154146D+03 0.326343328015393D+02 -.830801565532118D+02
 0.374665371956407D+03 0.350037675515487D+03 -.669196405823468D+02 0.830801565532118D+02
 0.487164464844953D+03 -.214795841361342D+03 0.342853077808075D+02 -.435908797814311D+03
0.599150333247D-02 0.000000000000D+00 0.000000000000D+00 0.184868612907D-02 0.000000000000D+00  5 -1 2 25 24 21 0 0.41711817D-01 0.40897201D-01 0.65164105D+05 0.65164105D+05 0.65164105D+05 0.11810541D+01  1  2  2  1  5  1       -1 0.488342352758D+00 0.100000000000D+01
-.331833543839D-03 0.000000000000D+00 -.230089503957D-04 0.184868612907D-02 0.000000000000D+00  5 -1 2 25 24 21 2 0.41711817D-01 0.40897201D-01 0.65164105D+05 0.65164105D+05 0.65164105D+05 0.11810541D+01  1  2  3  1  5  1       -1 -.377266690547D-01 0.100000000000D+01
0.410631431978D-03 0.000000000000D+00 0.000000000000D+00 0.184868612907D-02 0.000000000000D+00  5 -1 2 25 24 21 2 0.41711817D-01 0.40897201D-01 0.65164105D+05 0.65164105D+05 0.65164105D+05 0.11810541D+01  1  2 15  1  5  1       -1 0.466853228834D-01 0.100000000000D+01
  </mgrwgt>
  </event>
  <event>
  4     66 0.45252658E-03 0.16519819E+03 0.75467711E-02 0.10986343E+00
       -1 -1    0    0    0  501 0.00000000E+00 0.00000000E+00 0.19090907E+02 0.19093589E+02 0.32000000E+00 0.0000E+00 0.9000E+01
        2 -1    0    0  501    0 0.00000000E+00 0.00000000E+00 -.15213833E+04 0.15213833E+04 0.32000000E+00 0.0000E+00 0.9000E+01
       25  1    1    2    0    0 0.12754416E+03 -.12995649E+02 -.62158340E+03 0.64685959E+03 0.12500000E+03 0.0000E+00 0.9000E+01
       24  1    1    2    0    0 -.12754416E+03 0.12995649E+02 -.88070894E+03 0.89361728E+03 0.80419002E+02 0.0000E+00 0.9000E+01
#aMCatNLO 1  0  0  2  1 0.17648312D+03 0.00000000D+00  -5  5  0 0.00000000D+00 0.00000000D+00 0.00000000D+00 0.00000000D+00 0.00000000D+00
  <mgrwgt>
 0.3820544048D+00    5    2    0
 0.170430860477140D+03 0.000000000000000D+00 0.000000000000000D+00 0.170430860477140D+03
 0.170430860477140D+03 0.000000000000000D+00 0.000000000000000D+00 -.170430860477140D+03
 0.183864143657180D+03 0.127544159750294D+03 -.129956486143961D+02 0.417686934613817D+02
 0.156997577297100D+03 -.127544159750294D+03 0.129956486143961D+02 -.417686934613817D+02
 0.000000000000000D+00 -.000000000000000D+00 -.000000000000000D+00 -.000000000000000D+00
 0.230369283466422D+03 0.000000000000000D+00 0.000000000000000D+00 0.230369283466422D+03
 0.394434861151414D+03 0.000000000000000D+00 0.000000000000000D+00 -.394434861151414D+03
 0.266444420620960D+03 0.230129228033479D+03 0.257593464840170D+02 0.417686934613817D+02
 0.117395397259736D+03 -.650345291007812D+02 0.366107854951169D+02 -.417686934613817D+02
 0.240964326737140D+03 -.165094698932697D+03 -.623701319791339D+02 -.164065577684993D+03
0.659912197630D-03 0.000000000000D+00 0.000000000000D+00 0.215062728491D-02 0.000000000000D+00  5 -1 2 25 24 21 0 0.29372715D-02 0.23405917D+00 0.27290442D+05 0.27290442D+05 0.27290442D+05 0.12192369D+01  1  2  2  2  5  2        2 0.384349646122D+00 0.100000000000D+01
-.366184423232D-04 0.000000000000D+00 -.253423659777D-05 0.215062728491D-02 0.000000000000D+00  5 -1 2 25 24 21 2 0.29372715D-02 0.23405917D+00 0.27290442D+05 0.27290442D+05 0.27290442D+05 0.12192369D+01  1  2  3  2  5  2        2 -.317041721440D-01 0.100000000000D+01
0.452529499711D-04 0.000000000000D+00 0.000000000000D+00 0.215062728491D-02 0.000000000000D+00  5 -1 2 25 24 21 2 0.29372715D-02 0.23405917D+00 0.27290442D+05 0.27290442D+05 0.27290442D+05 0.12192369D+01  1  2 15  2  5  2        2 0.391799111292D-01 0.100000000000D+01
-.214151914356D-03 0.000000000000D+00 -.194206297134D-03 0.215062728491D-02 0.000000000000D+00  5 -1 2 25 24 21 2 0.29372715D-02 0.58000547D+00 0.27290442D+05 0.27290442D+05 0.27290442D+05 0.12192369D+01  1  2  5  2  5  2        2 -.974691844958D-02 0.100000000000D+01
-.930644046439D-05 0.000000000000D+00 -.193724953775D-04 0.215062728491D-02 0.000000000000D+00  5 -1 21 25 24 -2 2 0.29372715D-02 0.58000547D+00 0.27290442D+05 0.27290442D+05 0.27290442D+05 0.12192369D+01  1  2  5  4  5  2        2 -.240618658808D-04 0.100000000000D+01
  </mgrwgt>
  </event>
  <event>
  4     66 0.45252658E-03 0.10989953E+03 0.75467711E-02 0.12505996E+00
       -1 -1    0    0    0  501 0.00000000E+00 0.00000000E+00 0.32205512E+02 0.32207102E+02 0.32000000E+00 0.0000E+00 0.9000E+01
        2 -1    0    0  501    0 0.00000000E+00 0.00000000E+00 -.54774405E+03 0.54774415E+03 0.32000000E+00 0.0000E+00 0.9000E+01
       25  1    1    2    0    0 0.25931156E+02 -.28166526E+02 -.45204486E+03 0.47056916E+03 0.12500000E+03 0.0000E+00 0.9000E+01
       24  1    1    2    0    0 -.25931156E+02 0.28166526E+02 -.63493680E+02 0.10938209E+03 0.80419002E+02 0.0000E+00 0.9000E+01
#aMCatNLO 1  0  0  2  1 0.11080303D+02 0.00000000D+00  -5  5  0 0.00000000D+00 0.00000000D+00 0.00000000D+00 0.00000000D+00 0.00000000D+00
  <mgrwgt>
 0.3363526061D+00    4    2    0
 0.132818921835147D+03 0.000000000000000D+00 0.000000000000000D+00 0.132818921835147D+03
 0.132818921835147D+03 0.000000000000000D+00 0.000000000000000D+00 -.132818921835147D+03
 0.150056270096782D+03 0.259311556366820D+02 -.281665262437785D+02 -.736621080479186D+02
 0.115581573573512D+03 -.259311556366820D+02 0.281665262437785D+02 0.736621080479186D+02
 0.000000000000000D+00 -.000000000000000D+00 -.000000000000000D+00 0.000000000000000D+00
 0.167461540807608D+03 0.000000000000000D+00 0.000000000000000D+00 0.167461540807608D+03
 0.133823378505338D+03 0.000000000000000D+00 0.000000000000000D+00 -.133823378505338D+03
 0.150394421584008D+03 0.310517238925842D+02 -.245594447173317D+02 -.736621080479186D+02
 0.115474412802842D+03 -.219932783678489D+02 0.309404848436760D+02 0.736621080479186D+02
 0.354160849260963D+02 -.905844552473530D+01 -.638104012634433D+01 0.336381623022699D+02
0.345216027877D-03 0.000000000000D+00 0.000000000000D+00 0.187647019887D-02 0.000000000000D+00  5 -1 2 25 24 21 0 0.49548237D-02 0.84268445D-01 0.12077907D+05 0.12077907D+05 0.12077907D+05 0.12586949D+01  1  2  2  2  5  2        2 0.369041587281D+00 0.100000000000D+01
-.183420020430D-04 0.000000000000D+00 -.132572044452D-05 0.187647019887D-02 0.000000000000D+00  5 -1 2 25 24 21 2 0.49548237D-02 0.84268445D-01 0.12077907D+05 0.12077907D+05 0.12077907D+05 0.12586949D+01  1  2  3  2  5  2        2 -.310650469750D-01 0.100000000000D+01
0.235527095375D-04 0.000000000000D+00 0.000000000000D+00 0.187647019887D-02 0.000000000000D+00  5 -1 2 25 24 21 2 0.49548237D-02 0.84268445D-01 0.12077907D+05 0.12077907D+05 0.12077907D+05 0.12586949D+01  1  2 15  2  5  2        2 0.398901944539D-01 0.100000000000D+01
-.245115429262D-04 0.000000000000D+00 0.000000000000D+00 0.187647019887D-02 0.000000000000D+00  5 -1 2 25 24 21 2 0.49548237D-02 0.84268445D-01 0.12077907D+05 0.12077907D+05 0.12077907D+05 0.12586949D+01  1  2  4  2  5  2        2 -.415141286454D-01 0.100000000000D+01
  </mgrwgt>
  </event>
  <event>
  4     66 0.45252658E-03 0.86915143E+02 0.75467711E-02 0.12136771E+00
       -1 -1    0    0    0  501 0.00000000E+00 0.00000000E+00 0.21862766E+03 0.21862789E+03 0.32000000E+00 0.0000E+00 0.9000E+01
        2 -1    0    0  501    0 0.00000000E+00 0.00000000E+00 -.64644217E+02 0.64645009E+02 0.32000000E+00 0.0000E+00 0.9000E+01
       25  1    1    2    0    0 0.14619385E+02 -.31747975E+02 0.14580366E+03 0.19520596E+03 0.12500000E+03 0.0000E+00 0.9000E+01
       24  1    1    2    0    0 -.14619385E+02 0.31747975E+02 0.81797767E+01 0.88066935E+02 0.80419002E+02 0.0000E+00 0.9000E+01
#aMCatNLO 1  0  0  1  2 0.54782943D+02 0.00000000D+00  -5  5  0 0.00000000D+00 0.00000000D+00 0.00000000D+00 0.00000000D+00 0.00000000D+00
  <mgrwgt>
 0.2251111337D+00    7    2    0
 0.118882963159579D+03 0.000000000000000D+00 0.000000000000000D+00 0.118882963159579D+03
 0.118882963159579D+03 0.000000000000000D+00 0.000000000000000D+00 -.118882963159579D+03
 0.138140945553021D+03 0.146193845889246D+02 -.317479750951469D+02 0.472891161884173D+02
 0.996249807661368D+02 -.146193845889246D+02 0.317479750951469D+02 -.472891161884173D+02
 0.000000000000000D+00 0.000000000000000D+00 -.000000000000000D+00 0.000000000000000D+00
 0.231574066924675D+03 0.000000000000000D+00 0.000000000000000D+00 0.231574066924675D+03
 0.128844968904258D+03 0.000000000000000D+00 0.000000000000000D+00 -.128844968904258D+03
 0.133728013161211D+03 -.302305235629673D+00 -.467221635928442D+01 0.472891161884173D+02
 0.110267492128436D+03 -.261394580531908D+02 0.526514205765436D+02 -.472891161884173D+02
 0.116423530539286D+03 0.264417632888205D+02 -.479792042172592D+02 0.102729098020417D+03
0.491278571341D-03 0.000000000000D+00 0.000000000000D+00 0.242227381478D-02 0.000000000000D+00  5 -1 2 25 24 21 0 0.33635103D-01 0.99453430D-02 0.11824488D+05 0.11824488D+05 0.11824488D+05 0.12597747D+01  1  2  2  1  5  1       -1 0.283890737373D+00 0.100000000000D+01
-.270293606320D-04 0.000000000000D+00 -.188663907057D-05 0.242227381478D-02 0.000000000000D+00  5 -1 2 25 24 21 2 0.33635103D-01 0.99453430D-02 0.11824488D+05 0.11824488D+05 0.11824488D+05 0.12597747D+01  1  2  3  1  5  1       -1 -.247881986381D-01 0.100000000000D+01
0.336549295681D-04 0.000000000000D+00 0.000000000000D+00 0.242227381478D-02 0.000000000000D+00  5 -1 2 25 24 21 2 0.33635103D-01 0.99453430D-02 0.11824488D+05 0.11824488D+05 0.11824488D+05 0.12597747D+01  1  2 15  1  5  1       -1 0.308644029966D-01 0.100000000000D+01
0.406643749126D-03 0.000000000000D+00 0.000000000000D+00 0.242227381478D-02 0.000000000000D+00  5 -1 2 25 24 21 2 0.65679700D-01 0.99453430D-02 0.19527707D+05 0.19527707D+05 0.19527707D+05 0.12349703D+01  1  2 12  1  5  1       -1 0.108474217039D+00 0.100000000000D+01
-.618175974645D-03 0.000000000000D+00 -.137973010909D-03 0.242227381478D-02 0.000000000000D+00  5 -1 2 25 24 21 2 0.69122859D-01 0.99453430D-02 0.11824488D+05 0.11824488D+05 0.11824488D+05 0.12597747D+01  1  2  5  1  5  1       -1 -.153904812489D+00 0.100000000000D+01
0.294880906011D-04 0.000000000000D+00 0.000000000000D+00 0.242227381478D-02 0.000000000000D+00  5 21 2 25 24 1 2 0.65679700D-01 0.99453430D-02 0.19527707D+05 0.19527707D+05 0.19527707D+05 0.12349703D+01  1  2 12  3  5  1       -1 0.752162489355D-01 0.100000000000D+01
-.397084343117D-04 0.000000000000D+00 -.107466281649D-04 0.242227381478D-02 0.000000000000D+00  5 21 2 25 24 1 2 0.69122859D-01 0.99453430D-02 0.11824488D+05 0.11824488D+05 0.11824488D+05 0.12597747D+01  1  2  5  3  5  1       -1 -.946414615670D-01 0.100000000000D+01
  </mgrwgt>
  </event>
  <event>
  4     66 0.45252658E-03 0.59897088E+02 0.75467711E-02 0.12445494E+00
       -1 -1    0    0    0  501 0.00000000E+00 0.00000000E+00 0.22698780E+03 0.22698803E+03 0.32000000E+00 0.0000E+00 0.9000E+01
        2 -1    0    0  501    0 0.00000000E+00 0.00000000E+00 -.56072831E+02 0.56073744E+02 0.32000000E+00 0.0000E+00 0.9000E+01
       25  1    1    2    0    0 -.11069524E+01 -.33440747E+02 0.61673291E+02 0.14334610E+03 0.12500000E+03 0.0000E+00 0.9000E+01
       24  1    1    2    0    0 0.11069524E+01 0.33440747E+02 0.10924168E+03 0.13971568E+03 0.80419002E+02 0.0000E+00 0.9000E+01
#aMCatNLO 1  0  0  2  1 0.20818440D+02 0.00000000D+00  -5  5  0 0.00000000D+00 0.00000000D+00 0.00000000D+00 0.00000000D+00 0.00000000D+00
  <mgrwgt>
 0.3261256168D+00    9    2    0
 0.112818482072932D+03 0.000000000000000D+00 0.000000000000000D+00 0.112818482072932D+03
 0.112818482072932D+03 0.000000000000000D+00 0.000000000000000D+00 -.112818482072932D+03
 0.133111664265610D+03 -.110695236400529D+01 -.334407472489376D+02 -.312122771270696D+02
 0.925252998802545D+02 0.110695236400529D+01 0.334407472489376D+02 0.312122771270696D+02
 0.000000000000000D+00 0.000000000000000D+00 0.000000000000000D+00 -.000000000000000D+00
 0.114997404594627D+03 0.000000000000000D+00 0.000000000000000D+00 0.114997404594627D+03
 0.177043968702892D+03 0.000000000000000D+00 0.000000000000000D+00 -.177043968702892D+03
 0.135719805159730D+03 -.106515676035980D+02 -.413183176899069D+02 -.312122771270696D+02
 0.908755325049598D+02 -.540452630878472D+01 0.280665513665311D+02 0.312122771270696D+02
 0.654460356328296D+02 0.160560939123827D+02 0.132517663233758D+02 -.620465641082646D+02
0.402227769862D-03 0.000000000000D+00 0.000000000000D+00 0.274809232284D-02 0.000000000000D+00  5 -1 2 25 24 21 0 0.34921288D-01 0.86266769D-02 0.11718320D+05 0.11718320D+05 0.11718320D+05 0.12602349D+01  1  2  2  2  5  2        2 0.259609696061D+00 0.100000000000D+01
-.222995866150D-04 0.000000000000D+00 -.154466054527D-05 0.274809232284D-02 0.000000000000D+00  5 -1 2 25 24 21 2 0.34921288D-01 0.86266769D-02 0.11718320D+05 0.11718320D+05 0.11718320D+05 0.12602349D+01  1  2  3  2  5  2        2 -.228585503705D-01 0.100000000000D+01
0.278600218622D-04 0.000000000000D+00 0.000000000000D+00 0.274809232284D-02 0.000000000000D+00  5 -1 2 25 24 21 2 0.34921288D-01 0.86266769D-02 0.11718320D+05 0.11718320D+05 0.11718320D+05 0.12602349D+01  1  2 15  2  5  2        2 0.285583640654D-01 0.100000000000D+01
0.238490765587D-02 0.000000000000D+00 0.000000000000D+00 0.274809232284D-02 0.000000000000D+00  5 -1 2 25 24 21 2 0.34921288D-01 0.13581649D-01 0.14190495D+05 0.14190495D+05 0.14190495D+05 0.12505786D+01  1  2 12  2  5  2        2 0.139920236512D+01 0.100000000000D+01
-.223062100412D-02 0.000000000000D+00 0.000000000000D+00 0.274809232284D-02 0.000000000000D+00  5 -1 2 25 24 21 2 0.34921288D-01 0.86266769D-02 0.11718320D+05 0.11718320D+05 0.11718320D+05 0.12602349D+01  1  2  4  2  5  2        2 -.228653398201D+01 0.100000000000D+01
-.251918173648D-02 0.000000000000D+00 -.189189836145D-03 0.274809232284D-02 0.000000000000D+00  5 -1 2 25 24 21 2 0.34921288D-01 0.13742297D-01 0.11718320D+05 0.11718320D+05 0.11718320D+05 0.12602349D+01  1  2  5  2  5  2        2 -.147217093959D+01 0.100000000000D+01
0.236504081081D-02 0.000000000000D+00 0.170384006147D-03 0.274809232284D-02 0.000000000000D+00  5 -1 2 25 24 21 2 0.34921288D-01 0.86266769D-02 0.11718320D+05 0.11718320D+05 0.11718320D+05 0.12602349D+01  1  2  6  2  5  2        2 0.242432316955D+01 0.100000000000D+01
0.124738656036D-03 0.000000000000D+00 0.000000000000D+00 0.274809232284D-02 0.000000000000D+00  5 -1 21 25 24 -2 2 0.34921288D-01 0.13581649D-01 0.14190495D+05 0.14190495D+05 0.14190495D+05 0.12505786D+01  1  2 12  4  5  2        2 0.654620107540D+00 0.100000000000D+01
-.126511810355D-03 0.000000000000D+00 -.100906048093D-04 0.274809232284D-02 0.000000000000D+00  5 -1 21 25 24 -2 2 0.34921288D-01 0.13742297D-01 0.11718320D+05 0.11718320D+05 0.11718320D+05 0.12602349D+01  1  2  5  4  5  2        2 -.658624613529D+00 0.100000000000D+01
  </mgrwgt>
  </event>
  <event>
  4     66 0.45252658E-03 0.41585751E+03 0.75467711E-02 0.98838203E-01
       -1 -1    0    0    0  501 0.00000000E+00 0.00000000E+00 0.10858436E+03 0.10858483E+03 0.32000000E+00 0.0000E+00 0.9000E+01
        2 -1    0    0  501    0 0.00000000E+00 0.00000000E+00 -.31663823E+04 0.31663823E+04 0.32000000E+00 0.0000E+00 0.9000E+01
       25  1    1    2    0    0 0.48359897E+03 -.28766608E+03 -.11839695E+04 0.13168252E+04 0.12500000E+03 0.0000E+00 0.9000E+01
       24  1    1    2    0    0 -.48359897E+03 0.28766608E+03 -.18738284E+04 0.19581419E+04 0.80419002E+02 0.0000E+00 0.9000E+01
#aMCatNLO 1  0  0  2  1 0.73842735D+02 0.00000000D+00  -5  5  0 0.00000000D+00 0.00000000D+00 0.00000000D+00 0.00000000D+00 0.00000000D+00
  <mgrwgt>
 0.2448070903D+00    9    2    0
 0.586361981471544D+03 0.000000000000000D+00 0.000000000000000D+00 0.586361981471544D+03
 0.586361981471544D+03 0.000000000000000D+00 0.000000000000000D+00 -.586361981471544D+03
 0.590266474061022D+03 0.483598971079702D+03 -.287666083392719D+03 0.127160410649614D+03
 0.582457488882066D+03 -.483598971079702D+03 0.287666083392719D+03 -.127160410649614D+03
 0.000000000000000D+00 0.000000000000000D+00 0.000000000000000D+00 -.000000000000000D+00
 0.604455083072608D+03 0.000000000000000D+00 0.000000000000000D+00 0.604455083072608D+03
 0.668033531991573D+03 0.000000000000000D+00 0.000000000000000D+00 -.668033531991573D+03
 0.586720267206133D+03 0.460607902482699D+03 -.316680062656851D+03 0.127160410649614D+03
 0.588326218145379D+03 -.506468870609363D+03 0.258805015542535D+03 -.127160410649614D+03
 0.974421297126686D+02 0.458609681266639D+02 0.578750471143163D+02 -.635784489189641D+02
0.234112350329D-01 0.000000000000D+00 0.000000000000D+00 0.183522954516D-02 0.000000000000D+00  5 -1 2 25 24 21 0 0.16705323D-01 0.48713577D+00 0.32764985D+06 0.32764985D+06 0.32764985D+06 0.11189992D+01  1  2  2  2  5  2        2 0.109710823950D+00 0.100000000000D+01
-.129970669007D-02 0.000000000000D+00 -.899053068459D-04 0.183522954516D-02 0.000000000000D+00  5 -1 2 25 24 21 2 0.16705323D-01 0.48713577D+00 0.32764985D+06 0.32764985D+06 0.32764985D+06 0.11189992D+01  1  2  3  2  5  2        2 -.762658374639D-02 0.100000000000D+01
0.160417072017D-02 0.000000000000D+00 0.000000000000D+00 0.183522954516D-02 0.000000000000D+00  5 -1 2 25 24 21 2 0.16705323D-01 0.48713577D+00 0.32764985D+06 0.32764985D+06 0.32764985D+06 0.11189992D+01  1  2 15  2  5  2        2 0.941315639477D-02 0.100000000000D+01
0.432586218203D-01 0.000000000000D+00 0.000000000000D+00 0.183522954516D-02 0.000000000000D+00  5 -1 2 25 24 21 2 0.16705323D-01 0.56178986D+00 0.37273293D+06 0.37273293D+06 0.37273293D+06 0.11144674D+01  1  2 12  2  5  2        2 0.118913792218D+00 0.100000000000D+01
-.437189790030D-01 0.000000000000D+00 0.000000000000D+00 0.183522954516D-02 0.000000000000D+00  5 -1 2 25 24 21 2 0.16705323D-01 0.48713577D+00 0.32764985D+06 0.32764985D+06 0.32764985D+06 0.11189992D+01  1  2  4  2  5  2        2 -.256539769489D+00 0.100000000000D+01
-.881558217220D-01 0.000000000000D+00 -.150201859410D-01 0.183522954516D-02 0.000000000000D+00  5 -1 2 25 24 21 2 0.16705323D-01 0.55886601D+00 0.32764985D+06 0.32764985D+06 0.32764985D+06 0.11189992D+01  1  2  5  2  5  2        2 -.254186253324D+00 0.100000000000D+01
0.895138283665D-01 0.000000000000D+00 0.148795787624D-01 0.183522954516D-02 0.000000000000D+00  5 -1 2 25 24 21 2 0.16705323D-01 0.48713577D+00 0.32764985D+06 0.32764985D+06 0.32764985D+06 0.11189992D+01  1  2  6  2  5  2        2 0.525260594344D+00 0.100000000000D+01
0.946916830940D-03 0.000000000000D+00 0.000000000000D+00 0.183522954516D-02 0.000000000000D+00  5 -1 21 25 24 -2 2 0.16705323D-01 0.56178986D+00 0.37273293D+06 0.37273293D+06 0.37273293D+06 0.11144674D+01  1  2 12  4  5  2        2 0.134005533942D-03 0.100000000000D+01
-.178269656673D-02 0.000000000000D+00 -.318892769932D-03 0.183522954516D-02 0.000000000000D+00  5 -1 21 25 24 -2 2 0.16705323D-01 0.55886601D+00 0.32764985D+06 0.32764985D+06 0.32764985D+06 0.11189992D+01  1  2  5  4  5  2        2 -.272675536874D-03 0.100000000000D+01
  </mgrwgt>
  </event>
  <event>
  4     66 0.45252658E-03 0.72386313E+02 0.75467711E-02 0.12027654E+00
       -1 -1    0    0    0  501 0.00000000E+00 0.00000000E+00 0.47072667E+02 0.47073755E+02 0.32000000E+00 0.0000E+00 0.9000E+01
        2 -1    0    0  501    0 0.00000000E+00 0.00000000E+00 -.34602007E+03 0.34602022E+03 0.32000000E+00 0.0000E+00 0.9000E+01
       25  1    1    2    0    0 -.13352806E+02 -.69461632E+02 -.20695321E+03 0.25190841E+03 0.12500000E+03 0.0000E+00 0.9000E+01
       24  1    1    2    0    0 0.13352806E+02 0.69461632E+02 -.91994191E+02 0.14118556E+03 0.80419002E+02 0.0000E+00 0.9000E+01
#aMCatNLO 1  0  0  2  1 0.42014440D+02 0.00000000D+00  -5  5  0 0.00000000D+00 0.00000000D+00 0.00000000D+00 0.00000000D+00 0.00000000D+00
  <mgrwgt>
 0.3359598754D+00    9    2    0
 0.127625743726679D+03 0.000000000000000D+00 0.000000000000000D+00 0.127625743726679D+03
 0.127625743726679D+03 0.000000000000000D+00 0.000000000000000D+00 -.127625743726679D+03
 0.145564491384913D+03 -.133528063192375D+02 -.694616315906320D+02 -.236813313037243D+02
 0.109686996068445D+03 0.133528063192375D+02 0.694616315906320D+02 0.236813313037243D+02
 0.000000000000000D+00 -.000000000000000D+00 -.000000000000000D+00 -.000000000000000D+00
 0.137864963319366D+03 0.000000000000000D+00 0.000000000000000D+00 0.137864963319366D+03
 0.181127833644487D+03 0.000000000000000D+00 0.000000000000000D+00 -.181127833644487D+03
 0.139578657542520D+03 0.638381198043214D+01 -.570582433453209D+02 -.236813313037243D+02
 0.119107513405577D+03 0.291891675277550D+02 0.794139209585382D+02 0.236813313037243D+02
 0.603066260157561D+02 -.355729795081872D+02 -.223556776132173D+02 -.432628703251213D+02
0.263392928800D-03 0.000000000000D+00 0.000000000000D+00 0.257447740305D-02 0.000000000000D+00  5 -1 2 25 24 21 0 0.72420438D-02 0.53233952D-01 0.15715802D+05 0.15715802D+05 0.15715802D+05 0.12455211D+01  1  2  2  2  5  2        2 0.265269530827D+00 0.100000000000D+01
-.146272455632D-04 0.000000000000D+00 -.101149819954D-05 0.257447740305D-02 0.000000000000D+00  5 -1 2 25 24 21 2 0.72420438D-02 0.53233952D-01 0.15715802D+05 0.15715802D+05 0.15715802D+05 0.12455211D+01  1  2  3  2  5  2        2 -.228532522581D-01 0.100000000000D+01
0.182076352744D-04 0.000000000000D+00 0.000000000000D+00 0.257447740305D-02 0.000000000000D+00  5 -1 2 25 24 21 2 0.72420438D-02 0.53233952D-01 0.15715802D+05 0.15715802D+05 0.15715802D+05 0.12455211D+01  1  2 15  2  5  2        2 0.284471659516D-01 0.100000000000D+01
0.336261296523D-03 0.000000000000D+00 0.000000000000D+00 0.257447740305D-02 0.000000000000D+00  5 -1 2 25 24 21 2 0.72420438D-02 0.76989407D-01 0.21948287D+05 0.21948287D+05 0.21948287D+05 0.12294062D+01  1  2 12  2  5  2        2 0.347957287636D+00 0.100000000000D+01
-.369849065424D-03 0.000000000000D+00 0.000000000000D+00 0.257447740305D-02 0.000000000000D+00  5 -1 2 25 24 21 2 0.72420438D-02 0.53233952D-01 0.15715802D+05 0.15715802D+05 0.15715802D+05 0.12455211D+01  1  2  4  2  5  2        2 -.577843173074D+00 0.100000000000D+01
-.489639566952D-03 0.000000000000D+00 -.128906170444D-03 0.257447740305D-02 0.000000000000D+00  5 -1 2 25 24 21 2 0.72420438D-02 0.79852627D-01 0.15715802D+05 0.15715802D+05 0.15715802D+05 0.12455211D+01  1  2  5  2  5  2        2 -.494841216453D+00 0.100000000000D+01
0.509373767011D-03 0.000000000000D+00 0.118989337169D-03 0.257447740305D-02 0.000000000000D+00  5 -1 2 25 24 21 2 0.72420438D-02 0.53233952D-01 0.15715802D+05 0.15715802D+05 0.15715802D+05 0.12455211D+01  1  2  6  2  5  2        2 0.795833169060D+00 0.100000000000D+01
0.150911244289D-04 0.000000000000D+00 0.000000000000D+00 0.257447740305D-02 0.000000000000D+00  5 -1 21 25 24 -2 2 0.72420438D-02 0.76989407D-01 0.21948287D+05 0.21948287D+05 0.21948287D+05 0.12294062D+01  1  2 12  4  5  2        2 0.306001015654D-01 0.100000000000D+01
-.190597514245D-04 0.000000000000D+00 -.619765147991D-05 0.257447740305D-02 0.000000000000D+00  5 -1 21 25 24 -2 2 0.72420438D-02 0.79852627D-01 0.15715802D+05 0.15715802D+05 0.15715802D+05 0.12455211D+01  1  2  5  4  5  2        2 -.366097378212D-01 0.100000000000D+01
  </mgrwgt>
  </event>
  <event>
  4     66 0.45252658E-03 0.13474088E+03 0.75467711E-02 0.12098085E+00
       -3 -1    0    0    0  501 0.00000000E+00 0.00000000E+00 0.17443271E+03 0.17443343E+03 0.50000000E+00 0.0000E+00 0.9000E+01
        4 -1    0    0  501    0 0.00000000E+00 0.00000000E+00 -.10865184E+03 0.10866289E+03 0.15500000E+01 0.0000E+00 0.9000E+01
       25  1    1    2    0    0 0.85983063E+02 -.21494360E+01 0.65703015E+02 0.16534689E+03 0.12500000E+03 0.0000E+00 0.9000E+01
       24  1    1    2    0    0 -.85983063E+02 0.21494360E+01 0.77858979E-01 0.11774943E+03 0.80419002E+02 0.0000E+00 0.9000E+01
#aMCatNLO 1  0  0  1  2 0.15426233D+02 0.00000000D+00  -5  5  0 0.00000000D+00 0.00000000D+00 0.00000000D+00 0.00000000D+00 0.00000000D+00
  <mgrwgt>
 0.5425188710D-01    4    2    0
 0.137673893944950D+03 0.000000000000000D+00 0.000000000000000D+00 0.137673893944950D+03
 0.137673893944950D+03 0.000000000000000D+00 0.000000000000000D+00 -.137673893944950D+03
 0.154303379360121D+03 0.859830632193708D+02 -.214943599506190D+01 0.280504125864548D+02
 0.121044408529779D+03 -.859830632193708D+02 0.214943599506190D+01 -.280504125864548D+02
 0.000000000000000D+00 -.000000000000000D+00 0.000000000000000D+00 -.000000000000000D+00
 0.138905918329531D+03 0.000000000000000D+00 0.000000000000000D+00 0.138905918329531D+03
 0.196437472857621D+03 0.000000000000000D+00 0.000000000000000D+00 -.196437472857621D+03
 0.158668508980763D+03 0.933631978275727D+02 -.686901647383011D+01 0.280504125864548D+02
 0.117111064142115D+03 -.803671612439061D+02 -.144192144503458D+01 -.280504125864548D+02
 0.595638180642737D+02 -.129960365836666D+02 0.831093791886469D+01 -.575315545280907D+02
0.695138224692D-03 0.000000000000D+00 0.000000000000D+00 0.243176767628D-02 0.000000000000D+00  5 -3 4 25 24 21 0 0.26836707D-01 0.16716573D-01 0.18155105D+05 0.18155105D+05 0.18155105D+05 0.12384803D+01  1  2  2  1  5  1       -3 0.557560378530D-01 0.100000000000D+01
-.385970161561D-04 0.000000000000D+00 -.266951381691D-05 0.243176767628D-02 0.000000000000D+00  5 -3 4 25 24 21 2 0.26836707D-01 0.16716573D-01 0.18155105D+05 0.18155105D+05 0.18155105D+05 0.12384803D+01  1  2  3  1  5  1       -3 -.474845897286D-02 0.100000000000D+01
0.480772969494D-04 0.000000000000D+00 0.000000000000D+00 0.243176767628D-02 0.000000000000D+00  5 -3 4 25 24 21 2 0.26836707D-01 0.16716573D-01 0.18155105D+05 0.18155105D+05 0.18155105D+05 0.12384803D+01  1  2 15  1  5  1       -3 0.591478551521D-02 0.100000000000D+01
-.217065064330D-04 0.000000000000D+00 0.000000000000D+00 0.243176767628D-02 0.000000000000D+00  5 -3 4 25 24 21 2 0.26836707D-01 0.16716573D-01 0.18155105D+05 0.18155105D+05 0.18155105D+05 0.12384803D+01  1  2  4  1  5  1       -3 -.267047729348D-02 0.100000000000D+01
  </mgrwgt>
  </event>
  <event>
  5     66 0.45252658E-03 0.10919884E+03 0.75467711E-02 0.12003503E+00
       21 -1    0    0  502  501 0.00000000E+00 0.00000000E+00 0.15650841E+02 0.15668801E+02 0.75000000E+00 0.0000E+00 0.9000E+01
        2 -1    0    0  501    0 0.00000000E+00 0.00000000E+00 -.19115406E+04 0.19115406E+04 0.32000000E+00 0.0000E+00 0.9000E+01
       25  1    1    2    0    0 -.57998517E+00 -.53307436E+02 -.11725685E+04 0.11804169E+04 0.12500000E+03 0.0000E+00 0.9000E+01
       24  1    1    2    0    0 -.47963038E+02 0.19755625E+01 -.57412328E+03 0.58171223E+03 0.80419002E+02 0.0000E+00 0.9000E+01
        1  1    1    2  502    0 0.48543024E+02 0.51331873E+02 -.14919791E+03 0.16508030E+03 0.32000000E+00 0.0000E+00 0.9000E+01
#aMCatNLO 2  0  0  1  2 0.70649744D+02 0.00000000D+00  -5  5  0 0.00000000D+00 0.00000000D+00 0.00000000D+00 0.00000000D+00 0.00000000D+00
  <mgrwgt>
 0.2083984245D+00    2    2    0
 0.110877484207353D+03 0.000000000000000D+00 0.000000000000000D+00 0.110877484207353D+03
 0.110877484207353D+03 0.000000000000000D+00 0.000000000000000D+00 -.110877484207353D+03
 0.131525914569697D+03 0.281216303144229D+02 -.229568811885849D+02 -.188738368634281D+02
 0.902290538450099D+02 -.281216303144229D+02 0.229568811885849D+02 0.188738368634281D+02
 0.000000000000000D+00 0.000000000000000D+00 0.000000000000000D+00 0.000000000000000D+00
 0.236092257888669D+03 0.000000000000000D+00 0.000000000000000D+00 0.236092257888669D+03
 0.126791379714776D+03 0.000000000000000D+00 0.000000000000000D+00 -.126791379714776D+03
 0.137197816323707D+03 -.579985172044083D+00 -.533074357219199D+02 -.188738368634281D+02
 0.955394870207850D+02 -.479630384836444D+02 0.197556252580595D+01 0.188738368634281D+02
 0.130146334258952D+03 0.485430236556885D+02 0.513318731961140D+02 0.109300878173894D+03
-.378248665350D-05 0.000000000000D+00 0.000000000000D+00 0.291518452473D-02 0.000000000000D+00  5 21 2 25 24 1 2 0.24036578D-02 0.25717291D+00 0.22529984D+05 0.22529984D+05 0.22529984D+05 0.12281713D+01  1  2 13  3  5  1       -1 -.744002390556D-01 0.100000000000D+01
0.191643390265D-04 0.000000000000D+00 0.000000000000D+00 0.291518452473D-02 0.648317030080D-06  5 21 2 25 24 1 2 0.24092018D-02 0.29408412D+00 0.22529984D+05 0.22529984D+05 0.22529984D+05 0.12281713D+01  1  2  1  3  5  1       -1 0.282798663558D+00 0.100000000000D+01
  </mgrwgt>
  </event>
  <event>
  5     66 0.45252658E-03 0.15611748E+03 0.75467711E-02 0.11829731E+00
       21 -1    0    0  502  501 0.00000000E+00 0.00000000E+00 0.36699961E+02 0.36707624E+02 0.75000000E+00 0.0000E+00 0.9000E+01
        2 -1    0    0  501    0 0.00000000E+00 0.00000000E+00 -.10467651E+04 0.10467651E+04 0.32000000E+00 0.0000E+00 0.9000E+01
       25  1    1    2    0    0 0.12367994E+03 0.62188922E+01 -.81265846E+03 0.83148913E+03 0.12500000E+03 0.0000E+00 0.9000E+01
       24  1    1    2    0    0 -.11010234E+03 0.55104826E+01 -.15855921E+03 0.20919161E+03 0.80419002E+02 0.0000E+00 0.9000E+01
        1  1    1    2  502    0 -.13577606E+02 -.11729375E+02 -.38847432E+02 0.42791996E+02 0.32000000E+00 0.0000E+00 0.9000E+01
#aMCatNLO 2  0  0  1  2 0.17942397D+02 0.00000000D+00  -5  5  0 0.00000000D+00 0.00000000D+00 0.00000000D+00 0.00000000D+00 0.00000000D+00
  <mgrwgt>
 0.1369933576D-01    2    2    0
 0.186702107947529D+03 0.000000000000000D+00 0.000000000000000D+00 0.186702107947529D+03
 0.186702107947529D+03 0.000000000000000D+00 0.000000000000000D+00 -.186702107947529D+03
 0.198964669075391D+03 0.116368422419708D+03 -.973581335630518D-01 -.102079970245010D+03
 0.174439546819666D+03 -.116368422419708D+03 0.973581335630518D-01 0.102079970245010D+03
 0.000000000000000D+00 -.000000000000000D+00 -.000000000000000D+00 0.000000000000000D+00
 0.197530493373157D+03 0.000000000000000D+00 0.000000000000000D+00 0.197530493373157D+03
 0.194500919171771D+03 0.000000000000000D+00 0.000000000000000D+00 -.194500919171771D+03
 0.203422523464311D+03 0.123679942218980D+03 0.621889219041966D+01 -.102079970245010D+03
 0.170412517773285D+03 -.110102336558036D+03 0.551048261936887D+01 0.102079970245010D+03
 0.181963713073320D+02 -.135776056609436D+02 -.117293748097885D+02 0.302957420138649D+01
-.111899382311D-04 0.000000000000D+00 0.000000000000D+00 0.158418971411D-02 0.000000000000D+00  5 21 2 25 24 1 2 0.57526294D-02 0.15458306D+00 0.27283374D+05 0.27283374D+05 0.27283374D+05 0.12192489D+01  1  2 13  3  5  1       -1 -.117092132172D+00 0.100000000000D+01
0.128274317107D-04 0.000000000000D+00 0.000000000000D+00 0.158418971411D-02 0.404306511825D-06  5 21 2 25 24 1 2 0.56467005D-02 0.16104021D+00 0.27283374D+05 0.27283374D+05 0.27283374D+05 0.12192489D+01  1  2  1  3  5  1       -1 0.130791467937D+00 0.100000000000D+01
  </mgrwgt>
  </event>
  <event>
  4     66 0.45252658E-03 0.16417663E+03 0.75467711E-02 0.93657038E-01
       -1 -1    0    0    0  501 0.00000000E+00 0.00000000E+00 0.95931331E+02 0.95931864E+02 0.32000000E+00 0.0000E+00 0.9000E+01
        2 -1    0    0  501    0 0.00000000E+00 0.00000000E+00 -.38177418E+03 0.38177431E+03 0.32000000E+00 0.0000E+00 0.9000E+01
       25  1    1    2    0    0 0.84217399E+02 -.94919706E+02 -.29447548E+02 0.18053941E+03 0.12500000E+03 0.0000E+00 0.9000E+01
       24  1    1    2    0    0 -.84217399E+02 0.94919706E+02 -.25639530E+03 0.29716677E+03 0.80419002E+02 0.0000E+00 0.9000E+01
#aMCatNLO 1  0  0  1  2 0.92448537D+03 0.00000000D+00  -5  5  0 0.00000000D+00 0.00000000D+00 0.00000000D+00 0.00000000D+00 0.00000000D+00
  <mgrwgt>
 0.5792218527D+00    3    2    0
 0.191374670203675D+03 0.000000000000000D+00 0.000000000000000D+00 0.191374670203675D+03
 0.191374670203675D+03 0.000000000000000D+00 0.000000000000000D+00 -.191374670203675D+03
 0.203337831310475D+03 0.842173994735904D+02 -.949197057087220D+02 0.980762597988043D+02
 0.179411509096874D+03 -.842173994735904D+02 0.949197057087220D+02 -.980762597988043D+02
 0.000000000000000D+00 0.000000000000000D+00 -.000000000000000D+00 -.000000000000000D+00
 0.663841124890487D+03 0.000000000000000D+00 0.000000000000000D+00 0.663841124890487D+03
 0.180674354524777D+04 0.000000000000000D+00 0.000000000000000D+00 -.180674354524777D+04
 0.256036716215306D+03 0.164681171387700D+01 0.200768860447465D+03 0.980762597988043D+02
 0.744548243936901D+03 -.250295168225105D+03 0.689650815719228D+03 -.980762597988043D+02
 0.146999970998605D+04 0.248648356511228D+03 -.890419676166693D+03 -.114290242035728D+04
0.183381503234D-02 0.000000000000D+00 0.000000000000D+00 0.164587251108D-02 0.000000000000D+00  5 -1 2 25 24 21 0 0.14758718D-01 0.58734540D-01 0.26953965D+05 0.26953965D+05 0.26953965D+05 0.12198091D+01  1  2  2  1  5  1       -1 0.566898381657D+00 0.100000000000D+01
-.989679376529D-04 0.000000000000D+00 -.704233257877D-05 0.164587251108D-02 0.000000000000D+00  5 -1 2 25 24 21 2 0.14758718D-01 0.58734540D-01 0.26953965D+05 0.26953965D+05 0.26953965D+05 0.12198091D+01  1  2  3  1  5  1       -1 -.455226926093D-01 0.100000000000D+01
0.125759597892D-03 0.000000000000D+00 0.000000000000D+00 0.164587251108D-02 0.000000000000D+00  5 -1 2 25 24 21 2 0.14758718D-01 0.58734540D-01 0.26953965D+05 0.26953965D+05 0.26953965D+05 0.12198091D+01  1  2 15  1  5  1       -1 0.578461636493D-01 0.100000000000D+01
  </mgrwgt>
  </event>
  <event>
  4     66 0.45252658E-03 0.10524940E+03 0.75467711E-02 0.12538932E+00
       -1 -1    0    0    0  501 0.00000000E+00 0.00000000E+00 0.10697869E+02 0.10702654E+02 0.32000000E+00 0.0000E+00 0.9000E+01
        2 -1    0    0  501    0 0.00000000E+00 0.00000000E+00 -.15084561E+04 0.15084562E+04 0.32000000E+00 0.0000E+00 0.9000E+01
       25  1    1    2    0    0 0.21772266E+02 0.55200779E+01 -.12742544E+04 0.12805678E+04 0.12500000E+03 0.0000E+00 0.9000E+01
       24  1    1    2    0    0 -.21772266E+02 -.55200779E+01 -.22350386E+03 0.23859106E+03 0.80419002E+02 0.0000E+00 0.9000E+01
#aMCatNLO 1  0  0  1  2 0.16171304D+02 0.00000000D+00  -5  5  0 0.00000000D+00 0.00000000D+00 0.00000000D+00 0.00000000D+00 0.00000000D+00
  <mgrwgt>
 0.6557693800D+00    3    2    0
 0.127046946905437D+03 0.000000000000000D+00 0.000000000000000D+00 0.127046946905437D+03
 0.127046946905437D+03 0.000000000000000D+00 0.000000000000000D+00 -.127046946905437D+03
 0.145067419393544D+03 0.217722659332254D+02 0.552007788273753D+01 -.701074414438558D+02
 0.109026474417330D+03 -.217722659332254D+02 -.552007788273753D+01 0.701074414438558D+02
 0.000000000000000D+00 0.000000000000000D+00 0.000000000000000D+00 -.000000000000000D+00
 0.127505069143840D+03 0.000000000000000D+00 0.000000000000000D+00 0.127505069143840D+03
 0.452429724858531D+03 0.000000000000000D+00 0.000000000000000D+00 -.452429724858531D+03
 0.144872858807570D+03 0.208509877754039D+02 -.365077828201519D+01 -.701074414438558D+02
 0.109735110337687D+03 -.224673755297797D+02 -.124395408859772D+02 0.701074414438558D+02
 0.325326824857114D+03 0.161638775437580D+01 0.160903191679924D+02 -.324924655714692D+03
0.477548847436D-03 0.000000000000D+00 0.000000000000D+00 0.195034323547D-02 0.000000000000D+00  5 -1 2 25 24 21 0 0.16461967D-02 0.23207055D+00 0.11077436D+05 0.11077436D+05 0.11077436D+05 0.12631163D+01  1  2  2  1  5  1       -1 0.640510157450D+00 0.100000000000D+01
-.253876753040D-04 0.000000000000D+00 -.183391331565D-05 0.195034323547D-02 0.000000000000D+00  5 -1 2 25 24 21 2 0.16461967D-02 0.23207055D+00 0.11077436D+05 0.11077436D+05 0.11077436D+05 0.12631163D+01  1  2  3  1  5  1       -1 -.543272665092D-01 0.100000000000D+01
0.325184627210D-04 0.000000000000D+00 0.000000000000D+00 0.195034323547D-02 0.000000000000D+00  5 -1 2 25 24 21 2 0.16461967D-02 0.23207055D+00 0.11077436D+05 0.11077436D+05 0.11077436D+05 0.12631163D+01  1  2 15  1  5  1       -1 0.695864890960D-01 0.100000000000D+01
  </mgrwgt>
  </event>
  <event>
  4     66 0.45252658E-03 0.83915852E+02 0.75467711E-02 0.11661404E+00
       -1 -1    0    0    0  501 0.00000000E+00 0.00000000E+00 0.23861913E+03 0.23861935E+03 0.32000000E+00 0.0000E+00 0.9000E+01
        2 -1    0    0  501    0 0.00000000E+00 0.00000000E+00 -.95288983E+02 0.95289520E+02 0.32000000E+00 0.0000E+00 0.9000E+01
       25  1    1    2    0    0 0.74914181E+01 -.95811871E+02 0.21495954E+02 0.15913237E+03 0.12500000E+03 0.0000E+00 0.9000E+01
       24  1    1    2    0    0 -.74914181E+01 0.95811871E+02 0.12183420E+03 0.17477649E+03 0.80419002E+02 0.0000E+00 0.9000E+01
#aMCatNLO 1  0  0  2  1 0.72207489D+02 0.00000000D+00  -5  5  0 0.00000000D+00 0.00000000D+00 0.00000000D+00 0.00000000D+00 0.00000000D+00
  <mgrwgt>
 0.3515001493D+00    9    2    0
 0.150790914676489D+03 0.000000000000000D+00 0.000000000000000D+00 0.150790914676489D+03
 0.150790914676489D+03 0.000000000000000D+00 0.000000000000000D+00 -.150790914676489D+03
 0.165973832137525D+03 0.749141805097119D+01 -.958118707774308D+02 -.518293066529930D+02
 0.135607997215452D+03 -.749141805097119D+01 0.958118707774308D+02 0.518293066529930D+02
 0.000000000000000D+00 0.000000000000000D+00 0.000000000000000D+00 -.000000000000000D+00
 0.185005087839602D+03 0.000000000000000D+00 0.000000000000000D+00 0.185005087839602D+03
 0.198571432817700D+03 0.000000000000000D+00 0.000000000000000D+00 -.198571432817700D+03
 0.188380764178224D+03 -.166107009573194D+02 -.130000461145137D+03 -.518293066529930D+02
 0.121724897231550D+03 -.249944167737053D+02 0.709840598562334D+02 0.518293066529930D+02
 0.734708592475278D+02 0.416051177310248D+02 0.590164012889032D+02 -.135663449780974D+02
0.860013558517D-03 0.000000000000D+00 0.000000000000D+00 0.214334314545D-02 0.000000000000D+00  5 -1 2 25 24 21 0 0.36710693D-01 0.14659901D-01 0.20020332D+05 0.20020332D+05 0.20020332D+05 0.12337775D+01  1  2  2  2  5  2        2 0.273048574126D+00 0.100000000000D+01
-.475432389745D-04 0.000000000000D+00 -.330267851148D-05 0.214334314545D-02 0.000000000000D+00  5 -1 2 25 24 21 2 0.36710693D-01 0.14659901D-01 0.20020332D+05 0.20020332D+05 0.20020332D+05 0.12337775D+01  1  2  3  2  5  2        2 -.229771970863D-01 0.100000000000D+01
0.593457323467D-04 0.000000000000D+00 0.000000000000D+00 0.214334314545D-02 0.000000000000D+00  5 -1 2 25 24 21 2 0.36710693D-01 0.14659901D-01 0.20020332D+05 0.20020332D+05 0.20020332D+05 0.12337775D+01  1  2 15  2  5  2        2 0.286812303447D-01 0.100000000000D+01
0.294426081963D-03 0.000000000000D+00 0.000000000000D+00 0.214334314545D-02 0.000000000000D+00  5 -1 2 25 24 21 2 0.36710693D-01 0.20528037D-01 0.33025318D+05 0.33025318D+05 0.33025318D+05 0.12105434D+01  1  2 12  2  5  2        2 0.937746014529D-01 0.100000000000D+01
-.448834940210D-03 0.000000000000D+00 0.000000000000D+00 0.214334314545D-02 0.000000000000D+00  5 -1 2 25 24 21 2 0.36710693D-01 0.14659901D-01 0.20020332D+05 0.20020332D+05 0.20020332D+05 0.12337775D+01  1  2  4  2  5  2        2 -.216917675423D+00 0.100000000000D+01
-.694834058819D-03 0.000000000000D+00 -.399206825816D-03 0.214334314545D-02 0.000000000000D+00  5 -1 2 25 24 21 2 0.36710693D-01 0.23487643D-01 0.20020332D+05 0.20020332D+05 0.20020332D+05 0.12337775D+01  1  2  5  2  5  2        2 -.195961269152D+00 0.100000000000D+01
0.829696359494D-03 0.000000000000D+00 0.358624354122D-03 0.214334314545D-02 0.000000000000D+00  5 -1 2 25 24 21 2 0.36710693D-01 0.14659901D-01 0.20020332D+05 0.20020332D+05 0.20020332D+05 0.12337775D+01  1  2  6  2  5  2        2 0.400984391999D+00 0.100000000000D+01
0.123678688786D-04 0.000000000000D+00 0.000000000000D+00 0.214334314545D-02 0.000000000000D+00  5 -1 21 25 24 -2 2 0.36710693D-01 0.20528037D-01 0.33025318D+05 0.33025318D+05 0.33025318D+05 0.12105434D+01  1  2 12  4  5  2        2 0.263349156386D-01 0.100000000000D+01
-.205985219874D-04 0.000000000000D+00 -.214938241645D-04 0.214334314545D-02 0.000000000000D+00  5 -1 21 25 24 -2 2 0.36710693D-01 0.23487643D-01 0.20020332D+05 0.20020332D+05 0.20020332D+05 0.12337775D+01  1  2  5  4  5  2        2 -.354674226371D-01 0.100000000000D+01
  </mgrwgt>
  </event>
  <event>
  4     66 0.45252658E-03 0.79320172E+02 0.75467711E-02 0.11271271E+00
       -1 -1    0    0    0  501 0.00000000E+00 0.00000000E+00 0.24934958E+02 0.24937011E+02 0.32000000E+00 0.0000E+00 0.9000E+01
        2 -1    0    0  501    0 0.00000000E+00 0.00000000E+00 -.10537804E+04 0.10537804E+04 0.32000000E+00 0.0000E+00 0.9000E+01
       25  1    1    2    0    0 0.69999030E+02 0.10078193E+03 -.49493035E+03 0.52501230E+03 0.12500000E+03 0.0000E+00 0.9000E+01
       24  1    1    2    0    0 -.69999030E+02 -.10078193E+03 -.53391506E+03 0.55370513E+03 0.80419002E+02 0.0000E+00 0.9000E+01
#aMCatNLO 1  0  0  1  2 0.11634596D+03 0.00000000D+00  -5  5  0 0.00000000D+00 0.00000000D+00 0.00000000D+00 0.00000000D+00 0.00000000D+00
  <mgrwgt>
 0.2451839058D+00    7    2    0
 0.162102135915159D+03 0.000000000000000D+00 0.000000000000000D+00 0.162102135915159D+03
 0.162102135915159D+03 0.000000000000000D+00 0.000000000000000D+00 -.162102135915159D+03
 0.176225614291814D+03 0.699990299500399D+02 0.100781932934290D+03 0.193288626827637D+02
 0.147978657538504D+03 -.699990299500399D+02 -.100781932934290D+03 -.193288626827637D+02
 0.000000000000000D+00 -.000000000000000D+00 0.000000000000000D+00 0.000000000000000D+00
 0.364827304859809D+03 0.000000000000000D+00 0.000000000000000D+00 0.364827304859809D+03
 0.189794578715571D+03 0.000000000000000D+00 0.000000000000000D+00 -.189794578715571D+03
 0.174780246240731D+03 0.108265181270149D+03 0.531806362119062D+02 0.193288626827637D+02
 0.169668286811352D+03 -.353696194313089D+02 -.143859294742481D+03 -.193288626827637D+02
 0.210173350523297D+03 -.728955618388404D+02 0.906786585305745D+02 0.175032726144239D+03
0.525002207855D-03 0.000000000000D+00 0.000000000000D+00 0.229405397067D-02 0.000000000000D+00  5 -1 2 25 24 21 0 0.38363090D-02 0.16212022D+00 0.25900598D+05 0.25900598D+05 0.25900598D+05 0.12216532D+01  1  2  2  1  5  1       -1 0.372730376799D+00 0.100000000000D+01
-.291649427975D-04 0.000000000000D+00 -.201614671442D-05 0.229405397067D-02 0.000000000000D+00  5 -1 2 25 24 21 2 0.38363090D-02 0.16212022D+00 0.25900598D+05 0.25900598D+05 0.25900598D+05 0.12216532D+01  1  2  3  1  5  1       -1 -.309022915896D-01 0.100000000000D+01
0.362245565926D-04 0.000000000000D+00 0.000000000000D+00 0.229405397067D-02 0.000000000000D+00  5 -1 2 25 24 21 2 0.38363090D-02 0.16212022D+00 0.25900598D+05 0.25900598D+05 0.25900598D+05 0.12216532D+01  1  2 15  1  5  1       -1 0.383824449203D-01 0.100000000000D+01
0.743094970547D-04 0.000000000000D+00 0.000000000000D+00 0.229405397067D-02 0.000000000000D+00  5 -1 2 25 24 21 2 0.85702531D-02 0.16212022D+00 0.52582580D+05 0.52582580D+05 0.52582580D+05 0.11901217D+01  1  2 12  1  5  1       -1 0.225434377832D-01 0.100000000000D+01
-.341444807407D-03 0.000000000000D+00 -.149183809435D-03 0.229405397067D-02 0.000000000000D+00  5 -1 2 25 24 21 2 0.10123829D-01 0.16212022D+00 0.25900598D+05 0.25900598D+05 0.25900598D+05 0.12216532D+01  1  2  5  1  5  1       -1 -.843943757208D-01 0.100000000000D+01
0.648182156085D-05 0.000000000000D+00 0.000000000000D+00 0.229405397067D-02 0.000000000000D+00  5 21 2 25 24 1 2 0.85702531D-02 0.16212022D+00 0.52582580D+05 0.52582580D+05 0.52582580D+05 0.11901217D+01  1  2 12  3  5  1       -1 0.300985824863D-01 0.100000000000D+01
-.279302482805D-04 0.000000000000D+00 -.160815184140D-04 0.229405397067D-02 0.000000000000D+00  5 21 2 25 24 1 2 0.10123829D-01 0.16212022D+00 0.25900598D+05 0.25900598D+05 0.25900598D+05 0.12216532D+01  1  2  5  3  5  1       -1 -.103274268837D+00 0.100000000000D+01
  </mgrwgt>
  </event>
  <event>
  4     66 0.45252658E-03 0.11062530E+03 0.75467711E-02 0.11605332E+00
       -3 -1    0    0    0  501 0.00000000E+00 0.00000000E+00 0.16819216E+03 0.16819290E+03 0.50000000E+00 0.0000E+00 0.9000E+01
        4 -1    0    0  501    0 0.00000000E+00 0.00000000E+00 -.80294612E+02 0.80309571E+02 0.15500000E+01 0.0000E+00 0.9000E+01
       25  1    1    2    0    0 -.12320819E+02 -.38319070E+02 0.13923106E+02 0.13205683E+03 0.12500000E+03 0.0000E+00 0.9000E+01
       24  1    1    2    0    0 0.12320819E+02 0.38319070E+02 0.73974442E+02 0.11644564E+03 0.80419002E+02 0.0000E+00 0.9000E+01
#aMCatNLO 1  0  0  2  2 0.12318907D+03 0.00000000D+00  -5  5  0 0.00000000D+00 0.00000000D+00 0.00000000D+00 0.00000000D+00 0.00000000D+00
  <mgrwgt>
 0.5941443371D-01    5    2    0
 0.116219082385547D+03 0.000000000000000D+00 0.000000000000000D+00 0.116219082385547D+03
 0.116219082385547D+03 0.000000000000000D+00 0.000000000000000D+00 -.116219082385547D+03
 0.135918480835556D+03 -.123208191392939D+02 -.383190696325047D+02 -.350525284520468D+02
 0.965196839355373D+02 0.123208191392939D+02 0.383190696325047D+02 0.350525284520468D+02
 0.000000000000000D+00 0.000000000000000D+00 0.000000000000000D+00 -.000000000000000D+00
 0.175152343664852D+03 0.000000000000000D+00 0.000000000000000D+00 0.175152343664852D+03
 0.218508239051092D+03 0.000000000000000D+00 0.000000000000000D+00 -.218508239051092D+03
 0.174843136672364D+03 -.229898515716628D+02 -.114838623360185D+03 -.350525284520468D+02
 0.882215823461491D+02 0.597830304170667D+01 -.717020077458106D+01 0.350525284520468D+02
 0.130595863697431D+03 0.170115485299561D+02 0.122008824134766D+03 -.433558953862397D+02
0.369776018010D-03 0.000000000000D+00 0.000000000000D+00 0.263743438997D-02 0.000000000000D+00  5 -3 4 25 24 21 0 0.25876925D-01 0.12354225D-01 0.12237958D+05 0.12237958D+05 0.12237958D+05 0.12580259D+01  1  2  2  2  5  2        4 0.515588581501D-01 0.100000000000D+01
-.204823352545D-04 0.000000000000D+00 -.142003727342D-05 0.263743438997D-02 0.000000000000D+00  5 -3 4 25 24 21 2 0.25876925D-01 0.12354225D-01 0.12237958D+05 0.12237958D+05 0.12237958D+05 0.12580259D+01  1  2  3  2  5  2        4 -.451984125209D-02 0.100000000000D+01
0.255570291576D-04 0.000000000000D+00 0.000000000000D+00 0.263743438997D-02 0.000000000000D+00  5 -3 4 25 24 21 2 0.25876925D-01 0.12354225D-01 0.12237958D+05 0.12237958D+05 0.12237958D+05 0.12580259D+01  1  2 15  2  5  2        4 0.563967502886D-02 0.100000000000D+01
-.289445685497D-05 0.000000000000D+00 -.142347729449D-03 0.263743438997D-02 0.000000000000D+00  5 -3 4 25 24 21 2 0.25876925D-01 0.34256195D-01 0.12237958D+05 0.12237958D+05 0.12237958D+05 0.12580259D+01  1  2  5  2  5  2        4 -.101705338363D-03 0.100000000000D+01
0.770994529160D-05 0.000000000000D+00 -.162736204163D-04 0.263743438997D-02 0.000000000000D+00  5 -3 21 25 24 -4 2 0.25876925D-01 0.34256195D-01 0.12237958D+05 0.12237958D+05 0.12237958D+05 0.12580259D+01  1  2  5  4  5  2        4 0.683744712295D-02 0.100000000000D+01
  </mgrwgt>
  </event>
  <event>
  4     66 0.45252658E-03 0.11286895E+03 0.75467711E-02 0.10976762E+00
       -1 -1    0    0    0  501 0.00000000E+00 0.00000000E+00 0.37470747E+02 0.37472113E+02 0.32000000E+00 0.0000E+00 0.9000E+01
        2 -1    0    0  501    0 0.00000000E+00 0.00000000E+00 -.34682407E+03 0.34682422E+03 0.32000000E+00 0.0000E+00 0.9000E+01
       25  1    1    2    0    0 -.38748702E+02 -.24561665E+02 -.20849658E+03 0.24738747E+03 0.12500000E+03 0.0000E+00 0.9000E+01
       24  1    1    2    0    0 0.38748702E+02 0.24561665E+02 -.10085675E+03 0.13690886E+03 0.80419002E+02 0.0000E+00 0.9000E+01
#aMCatNLO 1  0  0  1  2 0.23028113D+03 0.00000000D+00  -5  5  0 0.00000000D+00 0.00000000D+00 0.00000000D+00 0.00000000D+00 0.00000000D+00
  <mgrwgt>
 0.3641083116D+00    5    2    0
 0.114000210307640D+03 0.000000000000000D+00 0.000000000000000D+00 0.114000210307640D+03
 0.114000210307640D+03 0.000000000000000D+00 0.000000000000000D+00 -.114000210307640D+03
 0.134083033007959D+03 -.387487024333412D+02 -.245616647701511D+02 -.157645940025246D+02
 0.939173876073215D+02 0.387487024333412D+02 0.245616647701511D+02 0.157645940025246D+02
 0.000000000000000D+00 -.000000000000000D+00 -.000000000000000D+00 0.000000000000000D+00
 0.281705601710612D+03 0.000000000000000D+00 0.000000000000000D+00 0.281705601710612D+03
 0.272805467662928D+03 0.000000000000000D+00 0.000000000000000D+00 -.272805467662928D+03
 0.144578677259649D+03 0.662522400277892D+02 0.253004384425526D+02 -.157645940025246D+02
 0.179479331066933D+03 0.141765773199932D+03 0.734816810560588D+02 0.157645940025246D+02
 0.230453061046958D+03 -.208018013227721D+03 -.987821194986114D+02 0.890013404768473D+01
0.208466098788D-03 0.000000000000D+00 0.000000000000D+00 0.286288364412D-02 0.000000000000D+00  5 -1 2 25 24 21 0 0.57648468D-02 0.53357666D-01 0.12739400D+05 0.12739400D+05 0.12739400D+05 0.12559921D+01  1  2  2  1  5  1       -1 0.291719471111D+00 0.100000000000D+01
-.115800494282D-04 0.000000000000D+00 -.800564709730D-06 0.286288364412D-02 0.000000000000D+00  5 -1 2 25 24 21 2 0.57648468D-02 0.53357666D-01 0.12739400D+05 0.12739400D+05 0.12739400D+05 0.12559921D+01  1  2  3  1  5  1       -1 -.255631389166D-01 0.100000000000D+01
0.143947063022D-04 0.000000000000D+00 0.000000000000D+00 0.286288364412D-02 0.000000000000D+00  5 -1 2 25 24 21 2 0.57648468D-02 0.53357666D-01 0.12739400D+05 0.12739400D+05 0.12739400D+05 0.12559921D+01  1  2 15  1  5  1       -1 0.317765376693D-01 0.100000000000D+01
0.153483624973D-03 0.000000000000D+00 -.880953004141D-04 0.286288364412D-02 0.000000000000D+00  5 -1 2 25 24 21 2 0.33586326D-01 0.53357666D-01 0.12739400D+05 0.12739400D+05 0.12739400D+05 0.12559921D+01  1  2  5  1  5  1       -1 0.215560032864D-01 0.100000000000D+01
0.280224333375D-04 0.000000000000D+00 -.190232436778D-04 0.286288364412D-02 0.000000000000D+00  5 21 2 25 24 1 2 0.33586326D-01 0.53357666D-01 0.12739400D+05 0.12739400D+05 0.12739400D+05 0.12559921D+01  1  2  5  3  5  1       -1 0.446194384775D-01 0.100000000000D+01
  </mgrwgt>
  </event>
  <event>
  5     66 0.45252658E-03 0.11790300E+03 0.75467711E-02 0.11315704E+00
       21 -1    0    0  502  501 0.00000000E+00 0.00000000E+00 0.76129566E+02 0.76133260E+02 0.75000000E+00 0.0000E+00 0.9000E+01
        2 -1    0    0  501    0 0.00000000E+00 0.00000000E+00 -.12428797E+04 0.12428798E+04 0.32000000E+00 0.0000E+00 0.9000E+01
       25  1    1    2    0    0 -.15970870E+03 0.21224132E+02 -.12602531E+03 0.23971798E+03 0.12500000E+03 0.0000E+00 0.9000E+01
       24  1    1    2    0    0 -.98091901E+00 -.14138500E+01 -.12014234E+03 0.14458340E+03 0.80419002E+02 0.0000E+00 0.9000E+01
        1  1    1    2  502    0 0.16068962E+03 -.19810282E+02 -.92058253E+03 0.93471167E+03 0.32000000E+00 0.0000E+00 0.9000E+01
#aMCatNLO 2  0  0  1  2 0.16190615D+03 0.00000000D+00  -5  5  0 0.00000000D+00 0.00000000D+00 0.00000000D+00 0.00000000D+00 0.00000000D+00
  <mgrwgt>
 0.8327257038D-01    1    2    0
 0.123364742288189D+03 0.000000000000000D+00 0.000000000000000D+00 0.123364742288189D+03
 0.123364742288189D+03 0.000000000000000D+00 0.000000000000000D+00 -.123364742288189D+03
 0.141923091853408D+03 -.562174912918690D+02 0.846543594498019D+01 0.358482087187216D+02
 0.104806392722970D+03 0.562174912918690D+02 -.846543594498019D+01 -.358482087187216D+02
 0.000000000000000D+00 0.000000000000000D+00 -.000000000000000D+00 -.000000000000000D+00
 0.162646930920950D+03 0.000000000000000D+00 0.000000000000000D+00 0.162646930920950D+03
 0.581765038312458D+03 0.000000000000000D+00 0.000000000000000D+00 -.581765038312458D+03
 0.207044503424945D+03 -.159708699010614D+03 0.212241322667918D+02 0.358482087187216D+02
 0.880640176042790D+02 -.980919013407501D+00 -.141384998650244D+01 -.358482087187216D+02
 0.449303448204184D+03 0.160689618024021D+03 -.198102822802894D+02 -.419118107391508D+03
0.398888450140D-04 0.000000000000D+00 0.000000000000D+00 0.252223844962D-02 0.999163405117D-07  5 21 2 25 24 1 2 0.11712524D-01 0.19121249D+00 0.49787225D+05 0.49787225D+05 0.49787225D+05 0.11924652D+01  1  2  1  3  5  1       -1 0.832725703808D-01 0.100000000000D+01
  </mgrwgt>
  </event>
  <event>
  4     66 0.45252658E-03 0.15974552E+03 0.75467711E-02 0.93415944E-01
       -1 -1    0    0    0  501 0.00000000E+00 0.00000000E+00 0.18168228E+03 0.18168256E+03 0.32000000E+00 0.0000E+00 0.9000E+01
        2 -1    0    0  501    0 0.00000000E+00 0.00000000E+00 -.14046998E+03 0.14047034E+03 0.32000000E+00 0.0000E+00 0.9000E+01
       25  1    1    2    0    0 -.96341909E+02 -.73458570E+02 0.24003479E+02 0.17572448E+03 0.12500000E+03 0.0000E+00 0.9000E+01
       24  1    1    2    0    0 0.96341909E+02 0.73458570E+02 0.17208827E+02 0.14642843E+03 0.80419002E+02 0.0000E+00 0.9000E+01
#aMCatNLO 1  0  0  1  2 0.94412521D+03 0.00000000D+00  -5  5  0 0.00000000D+00 0.00000000D+00 0.00000000D+00 0.00000000D+00 0.00000000D+00
  <mgrwgt>
 0.3619466557D+00    5    2    0
 0.159752966021893D+03 0.000000000000000D+00 0.000000000000000D+00 0.159752966021893D+03
 0.159752966021893D+03 0.000000000000000D+00 0.000000000000000D+00 -.159752966021893D+03
 0.174084130371566D+03 -.963419093064628D+02 -.734585698567339D+02 0.153605762032117D+01
 0.145421801672221D+03 0.963419093064628D+02 0.734585698567339D+02 -.153605762032117D+01
 0.000000000000000D+00 -.000000000000000D+00 0.000000000000000D+00 0.000000000000000D+00
 0.113177346570405D+04 0.000000000000000D+00 0.000000000000000D+00 0.113177346570405D+04
 0.850175241404792D+03 0.000000000000000D+00 0.000000000000000D+00 -.850175241404792D+03
 0.330434263320145D+03 0.251111660347388D+03 -.174649296993981D+03 0.153605762032117D+01
 0.666288594370871D+03 0.655353588873989D+03 -.893453362594306D+02 -.153605762032117D+01
 0.985225849417823D+03 -.906465249221377D+03 0.263994633253412D+03 0.281598224299255D+03
0.109026879354D-02 0.000000000000D+00 0.000000000000D+00 0.233911969443D-02 0.000000000000D+00  5 -1 2 25 24 21 0 0.27951170D-01 0.21610815D-01 0.25518632D+05 0.25518632D+05 0.25518632D+05 0.12223427D+01  1  2  2  1  5  1       -1 0.354087880241D+00 0.100000000000D+01
-.605704883703D-04 0.000000000000D+00 -.418691924157D-05 0.233911969443D-02 0.000000000000D+00  5 -1 2 25 24 21 2 0.27951170D-01 0.21610815D-01 0.25518632D+05 0.25518632D+05 0.25518632D+05 0.12223427D+01  1  2  3  1  5  1       -1 -.293916896338D-01 0.100000000000D+01
0.751527164784D-04 0.000000000000D+00 0.000000000000D+00 0.233911969443D-02 0.000000000000D+00  5 -1 2 25 24 21 2 0.27951170D-01 0.21610815D-01 0.25518632D+05 0.25518632D+05 0.25518632D+05 0.12223427D+01  1  2 15  1  5  1       -1 0.364676821552D-01 0.100000000000D+01
0.405399585352D-02 0.000000000000D+00 -.124891833088D-02 0.233911969443D-02 0.000000000000D+00  5 -1 2 25 24 21 2 0.53005093D+00 0.21610815D-01 0.25518632D+05 0.25518632D+05 0.25518632D+05 0.12223427D+01  1  2  5  1  5  1       -1 0.222444864740D-03 0.100000000000D+01
0.980480073387D-03 0.000000000000D+00 -.398217500843D-03 0.233911969443D-02 0.000000000000D+00  5 21 2 25 24 1 2 0.53005093D+00 0.21610815D-01 0.25518632D+05 0.25518632D+05 0.25518632D+05 0.12223427D+01  1  2  5  3  5  1       -1 0.560338103191D-03 0.100000000000D+01
  </mgrwgt>
  </event>
  <event>
  5     66 0.45252658E-03 0.12524055E+03 0.75467711E-02 0.11782759E+00
       -3 -1    0    0    0  501 0.00000000E+00 0.00000000E+00 0.12020910E+03 0.12021014E+03 0.50000000E+00 0.0000E+00 0.9000E+01
       21 -1    0    0  501  502 0.00000000E+00 0.00000000E+00 -.26194008E+03 0.26194115E+03 0.75000000E+00 0.0000E+00 0.9000E+01
       25  1    1    2    0    0 -.71350918E+02 0.63519128E+02 -.10471149E+03 0.18898447E+03 0.12500000E+03 0.0000E+00 0.9000E+01
       24  1    1    2    0    0 -.56929362E+01 -.66865097E+02 -.48074863E+02 0.11524651E+03 0.80419002E+02 0.0000E+00 0.9000E+01
       -4  1    1    2    0  502 0.77043855E+02 0.33459686E+01 0.11055379E+02 0.77920311E+02 0.15500000E+01 0.0000E+00 0.9000E+01
#aMCatNLO 2  0  0  2  1 0.77116477D+02 0.00000000D+00  -5  5  0 0.00000000D+00 0.00000000D+00 0.00000000D+00 0.00000000D+00 0.00000000D+00
  <mgrwgt>
 0.1883025993D-01    1    2    0
 0.125763538546685D+03 0.000000000000000D+00 0.000000000000000D+00 0.125763538546685D+03
 0.125763538546685D+03 0.000000000000000D+00 0.000000000000000D+00 -.125763538546685D+03
 0.143967908731112D+03 -.261826447523347D+02 0.654807594903220D+02 -.113356956007799D+02
 0.107559168362257D+03 0.261826447523347D+02 -.654807594903220D+02 0.113356956007799D+02
 0.000000000000000D+00 0.000000000000000D+00 0.000000000000000D+00 0.000000000000000D+00
 0.208816075707314D+03 0.000000000000000D+00 0.000000000000000D+00 0.208816075707314D+03
 0.150781361379553D+03 0.000000000000000D+00 0.000000000000000D+00 -.150781361379553D+03
 0.157731199216277D+03 -.713509183211264D+02 0.635191283487372D+02 -.113356956007799D+02
 0.105352098507235D+03 -.569293623054388D+01 -.668650969327724D+02 0.113356956007799D+02
 0.965141393633546D+02 0.770438545516703D+02 0.334596858403511D+01 0.580347143277604D+02
0.169344182645D-04 0.000000000000D+00 0.000000000000D+00 0.266434470438D-02 0.167394423631D-06  5 -3 21 25 24 -4 2 0.18493162D-01 0.40297092D-01 0.28760817D+05 0.28760817D+05 0.28760817D+05 0.12168259D+01  1  2  1  4  5  2        4 0.188302599341D-01 0.100000000000D+01
  </mgrwgt>
  </event>
  <event>
  4     66 0.45252658E-03 0.11723190E+03 0.75467711E-02 0.11902404E+00
       -1 -1    0    0    0  501 0.00000000E+00 0.00000000E+00 0.83145881E+01 0.83207437E+01 0.32000000E+00 0.0000E+00 0.9000E+01
        2 -1    0    0  501    0 0.00000000E+00 0.00000000E+00 -.19040590E+04 0.19040590E+04 0.32000000E+00 0.0000E+00 0.9000E+01
       25  1    1    2    0    0 -.48017718E+02 0.27801054E+02 -.74141442E+03 0.75392237E+03 0.12500000E+03 0.0000E+00 0.9000E+01
       24  1    1    2    0    0 0.48017718E+02 -.27801054E+02 -.11543300E+04 0.11584574E+04 0.80419002E+02 0.0000E+00 0.9000E+01
#aMCatNLO 1  0  0  1  1 0.71701055D+02 0.00000000D+00  -5  5  0 0.00000000D+00 0.00000000D+00 0.00000000D+00 0.00000000D+00 0.00000000D+00
  <mgrwgt>
 0.5083099402D+00    3    2    0
 0.125846645016626D+03 0.000000000000000D+00 0.000000000000000D+00 0.125846645016626D+03
 0.125846645016626D+03 0.000000000000000D+00 0.000000000000000D+00 -.125846645016626D+03
 0.144038993418961D+03 -.480177181036587D+02 0.278010543797232D+02 0.452065454181210D+02
 0.107654296614292D+03 0.480177181036587D+02 -.278010543797232D+02 -.452065454181210D+02
 0.000000000000000D+00 -.000000000000000D+00 0.000000000000000D+00 -.000000000000000D+00
 0.138776063398964D+03 0.000000000000000D+00 0.000000000000000D+00 0.138776063398964D+03
 0.293081331201170D+03 0.000000000000000D+00 0.000000000000000D+00 -.293081331201170D+03
 0.134372903996443D+03 -.196462311489444D+02 0.121292268462551D+01 0.452065454181210D+02
 0.127334095436047D+03 0.719641448241305D+02 -.502422732092889D+02 -.452065454181210D+02
 0.170150395167643D+03 -.523179136751861D+02 0.490293505246634D+02 -.154305267802206D+03
0.409517210762D-03 0.000000000000D+00 0.000000000000D+00 0.237859224995D-02 0.000000000000D+00  5 -1 2 25 24 21 0 0.12796430D-02 0.29293263D+00 0.13743318D+05 0.13743318D+05 0.13743318D+05 0.12521779D+01  1  2  2  1  5  1       -1 0.497616949104D+00 0.100000000000D+01
-.226118658692D-04 0.000000000000D+00 -.157265391768D-05 0.237859224995D-02 0.000000000000D+00  5 -1 2 25 24 21 2 0.12796430D-02 0.29293263D+00 0.13743318D+05 0.13743318D+05 0.13743318D+05 0.12521779D+01  1  2  3  1  5  1       -1 -.430815685259D-01 0.100000000000D+01
0.282242075077D-04 0.000000000000D+00 0.000000000000D+00 0.237859224995D-02 0.000000000000D+00  5 -1 2 25 24 21 2 0.12796430D-02 0.29293263D+00 0.13743318D+05 0.13743318D+05 0.13743318D+05 0.12521779D+01  1  2 15  1  5  1       -1 0.537745596435D-01 0.100000000000D+01
  </mgrwgt>
  </event>
  <event>
  4     66 0.45252658E-03 0.13228404E+03 0.75467711E-02 0.12077973E+00
       -1 -1    0    0    0  501 0.00000000E+00 0.00000000E+00 0.13082319E+02 0.13086232E+02 0.32000000E+00 0.0000E+00 0.9000E+01
        2 -1    0    0  501    0 0.00000000E+00 0.00000000E+00 -.14180726E+04 0.14180726E+04 0.32000000E+00 0.0000E+00 0.9000E+01
       25  1    1    2    0    0 0.65171050E+02 -.50052244E+02 -.95845991E+03 0.97006334E+03 0.12500000E+03 0.0000E+00 0.9000E+01
       24  1    1    2    0    0 -.65171050E+02 0.50052244E+02 -.44653036E+03 0.46109551E+03 0.80419002E+02 0.0000E+00 0.9000E+01
#aMCatNLO 1  0  0  2  2 0.22777138D+02 0.00000000D+00  -5  5  0 0.00000000D+00 0.00000000D+00 0.00000000D+00 0.00000000D+00 0.00000000D+00
  <mgrwgt>
 0.3617438568D+00    4    2    0
 0.136214916232001D+03 0.000000000000000D+00 0.000000000000000D+00 0.136214916232001D+03
 0.136214916232001D+03 0.000000000000000D+00 0.000000000000000D+00 -.136214916232001D+03
 0.153022517592692D+03 0.651710503233290D+02 -.500522440116184D+02 -.322241828377591D+02
 0.119407314871311D+03 -.651710503233290D+02 0.500522440116184D+02 0.322241828377591D+02
 0.000000000000000D+00 0.000000000000000D+00 -.000000000000000D+00 0.000000000000000D+00
 0.181569630761929D+03 0.000000000000000D+00 0.000000000000000D+00 0.181569630761929D+03
 0.139580123672263D+03 0.000000000000000D+00 0.000000000000000D+00 -.139580123672263D+03
 0.149075377723505D+03 0.644705417102276D+02 -.374649107223571D+02 -.322241828377591D+02
 0.124304964717103D+03 -.657361735950141D+02 0.602068585833425D+02 0.322241828377591D+02
 0.477694119935830D+02 0.126563188478646D+01 -.227419478609854D+02 0.419895070896659D+02
0.366908402922D-03 0.000000000000D+00 0.000000000000D+00 0.241499845481D-02 0.000000000000D+00  5 -1 2 25 24 21 0 0.20129682D-02 0.21816532D+00 0.17499067D+05 0.17499067D+05 0.17499067D+05 0.12402646D+01  1  2  2  2  5  2        2 0.415794899580D+00 0.100000000000D+01
-.203625490140D-04 0.000000000000D+00 -.140902487642D-05 0.241499845481D-02 0.000000000000D+00  5 -1 2 25 24 21 2 0.20129682D-02 0.21816532D+00 0.17499067D+05 0.17499067D+05 0.17499067D+05 0.12402646D+01  1  2  3  2  5  2        2 -.354962384045D-01 0.100000000000D+01
0.253577401009D-04 0.000000000000D+00 0.000000000000D+00 0.241499845481D-02 0.000000000000D+00  5 -1 2 25 24 21 2 0.20129682D-02 0.21816532D+00 0.17499067D+05 0.17499067D+05 0.17499067D+05 0.12402646D+01  1  2 15  2  5  2        2 0.442039151091D-01 0.100000000000D+01
-.360017725502D-04 0.000000000000D+00 0.000000000000D+00 0.241499845481D-02 0.000000000000D+00  5 -1 2 25 24 21 2 0.20129682D-02 0.21816532D+00 0.17499067D+05 0.17499067D+05 0.17499067D+05 0.12402646D+01  1  2  4  2  5  2        2 -.627587194779D-01 0.100000000000D+01
  </mgrwgt>
  </event>
  <event>
  4     66 0.45252658E-03 0.58081847E+02 0.75467711E-02 0.12293676E+00
       -1 -1    0    0    0  501 0.00000000E+00 0.00000000E+00 0.18212108E+03 0.18212136E+03 0.32000000E+00 0.0000E+00 0.9000E+01
        2 -1    0    0  501    0 0.00000000E+00 0.00000000E+00 -.80464104E+02 0.80464740E+02 0.32000000E+00 0.0000E+00 0.9000E+01
       25  1    1    2    0    0 0.50371884E+02 0.24756196E+01 0.99674450E+02 0.16764084E+03 0.12500000E+03 0.0000E+00 0.9000E+01
       24  1    1    2    0    0 -.50371884E+02 -.24756196E+01 0.19825223E+01 0.94945256E+02 0.80419002E+02 0.0000E+00 0.9000E+01
#aMCatNLO 1  0  0  1  2 0.26389671D+02 0.00000000D+00  -5  5  0 0.00000000D+00 0.00000000D+00 0.00000000D+00 0.00000000D+00 0.00000000D+00
  <mgrwgt>
 0.3525376500D+00    9    2    0
 0.121055068244673D+03 0.000000000000000D+00 0.000000000000000D+00 0.121055068244673D+03
 0.121055068244673D+03 0.000000000000000D+00 0.000000000000000D+00 -.121055068244673D+03
 0.139967502433549D+03 0.503718837682965D+02 0.247561959894936D+01 0.377153333635034D+02
 0.102142634055796D+03 -.503718837682965D+02 -.247561959894936D+01 -.377153333635034D+02
 0.000000000000000D+00 -.000000000000000D+00 0.000000000000000D+00 0.000000000000000D+00
 0.145210182609070D+03 0.000000000000000D+00 0.000000000000000D+00 0.145210182609070D+03
 0.129200278862276D+03 0.000000000000000D+00 0.000000000000000D+00 -.129200278862276D+03
 0.145004263896384D+03 0.626996781827476D+02 -.689496433580156D+01 0.377153333635034D+02
 0.985398448470461D+02 -.416904190240582D+02 -.907456109063295D+01 -.377153333635034D+02
 0.308663527279157D+02 -.210092591586894D+02 0.159695254264345D+02 0.160099037467936D+02
0.415326383332D-03 0.000000000000D+00 0.000000000000D+00 0.253095255773D-02 0.000000000000D+00  5 -1 2 25 24 21 0 0.28018698D-01 0.12379163D-01 0.13192242D+05 0.13192242D+05 0.13192242D+05 0.12542313D+01  1  2  2  1  5  1       -1 0.251356613705D+00 0.100000000000D+01
-.229962059105D-04 0.000000000000D+00 -.159496266994D-05 0.253095255773D-02 0.000000000000D+00  5 -1 2 25 24 21 2 0.28018698D-01 0.12379163D-01 0.13192242D+05 0.13192242D+05 0.13192242D+05 0.12542313D+01  1  2  3  1  5  1       -1 -.218933500607D-01 0.100000000000D+01
0.286997496437D-04 0.000000000000D+00 0.000000000000D+00 0.253095255773D-02 0.000000000000D+00  5 -1 2 25 24 21 2 0.28018698D-01 0.12379163D-01 0.13192242D+05 0.13192242D+05 0.13192242D+05 0.12542313D+01  1  2 15  1  5  1       -1 0.273233622995D-01 0.100000000000D+01
0.467032646427D-03 0.000000000000D+00 0.000000000000D+00 0.253095255773D-02 0.000000000000D+00  5 -1 2 25 24 21 2 0.34412787D-01 0.12379163D-01 0.16568808D+05 0.16568808D+05 0.16568808D+05 0.12429276D+01  1  2 12  1  5  1       -1 0.311254698659D+00 0.100000000000D+01
-.473245119844D-03 0.000000000000D+00 0.000000000000D+00 0.253095255773D-02 0.000000000000D+00  5 -1 2 25 24 21 2 0.28018698D-01 0.12379163D-01 0.13192242D+05 0.13192242D+05 0.13192242D+05 0.12542313D+01  1  2  4  1  5  1       -1 -.450549152048D+00 0.100000000000D+01
-.898354172526D-03 0.000000000000D+00 -.228691121001D-03 0.253095255773D-02 0.000000000000D+00  5 -1 2 25 24 21 2 0.35612594D-01 0.12379163D-01 0.13192242D+05 0.13192242D+05 0.13192242D+05 0.12542313D+01  1  2  5  1  5  1       -1 -.571017653585D+00 0.100000000000D+01
0.932672235203D-03 0.000000000000D+00 0.222268306854D-03 0.253095255773D-02 0.000000000000D+00  5 -1 2 25 24 21 2 0.28018698D-01 0.12379163D-01 0.13192242D+05 0.13192242D+05 0.13192242D+05 0.12542313D+01  1  2  6  1  5  1       -1 0.887942985756D+00 0.100000000000D+01
0.136481086490D-04 0.000000000000D+00 0.000000000000D+00 0.253095255773D-02 0.000000000000D+00  5 21 2 25 24 1 2 0.34412787D-01 0.12379163D-01 0.16568808D+05 0.16568808D+05 0.16568808D+05 0.12429276D+01  1  2 12  3  5  1       -1 0.101948874405D+00 0.100000000000D+01
-.259035542823D-04 0.000000000000D+00 -.750531438432D-05 0.253095255773D-02 0.000000000000D+00  5 21 2 25 24 1 2 0.35612594D-01 0.12379163D-01 0.13192242D+05 0.13192242D+05 0.13192242D+05 0.12542313D+01  1  2  5  3  5  1       -1 -.183828729083D+00 0.100000000000D+01
  </mgrwgt>
  </event>
  <event>
  4     66 0.45252658E-03 0.11337072E+03 0.75467711E-02 0.11796695E+00
       -1 -1    0    0    0  501 0.00000000E+00 0.00000000E+00 0.28836348E+02 0.28838124E+02 0.32000000E+00 0.0000E+00 0.9000E+01
        2 -1    0    0  501    0 0.00000000E+00 0.00000000E+00 -.87259050E+03 0.87259056E+03 0.32000000E+00 0.0000E+00 0.9000E+01
       25  1    1    2    0    0 0.86080593E+02 -.81639646E+02 -.50522622E+03 0.53381030E+03 0.12500000E+03 0.0000E+00 0.9000E+01
       24  1    1    2    0    0 -.86080593E+02 0.81639646E+02 -.33852792E+03 0.36761838E+03 0.80419002E+02 0.0000E+00 0.9000E+01
#aMCatNLO 1  0  0  2  1 0.20225820D+02 0.00000000D+00  -5  5  0 0.00000000D+00 0.00000000D+00 0.00000000D+00 0.00000000D+00 0.00000000D+00
  <mgrwgt>
 0.3953747488D+00    9    2    0
 0.158628970509837D+03 0.000000000000000D+00 0.000000000000000D+00 0.158628970509837D+03
 0.158628970509837D+03 0.000000000000000D+00 0.000000000000000D+00 -.158628970509837D+03
 0.173061681029543D+03 0.860805931094361D+02 -.816396463647528D+02 -.158254564590391D+02
 0.144196259990132D+03 -.860805931094361D+02 0.816396463647528D+02 0.158254564590391D+02
 0.000000000000000D+00 -.000000000000000D+00 -.000000000000000D+00 -.000000000000000D+00
 0.160252064616820D+03 0.000000000000000D+00 0.000000000000000D+00 0.160252064616820D+03
 0.237556749690681D+03 0.000000000000000D+00 0.000000000000000D+00 -.237556749690681D+03
 0.175987370310123D+03 0.960176182957907D+02 -.766598096354218D+02 -.158254564590391D+02
 0.141914634936679D+03 -.779353448755094D+02 0.857215527264802D+02 0.158254564590391D+02
 0.799068090606991D+02 -.180822734202813D+02 -.906174309105841D+01 -.773046850738613D+02
0.412359947706D-03 0.000000000000D+00 0.000000000000D+00 0.232504586677D-02 0.000000000000D+00  5 -1 2 25 24 21 0 0.44365024D-02 0.13424483D+00 0.24910593D+05 0.24910593D+05 0.24910593D+05 0.12234645D+01  1  2  2  2  5  2        2 0.304955266000D+00 0.100000000000D+01
-.229081773996D-04 0.000000000000D+00 -.158357077606D-05 0.232504586677D-02 0.000000000000D+00  5 -1 2 25 24 21 2 0.44365024D-02 0.13424483D+00 0.24910593D+05 0.24910593D+05 0.24910593D+05 0.12234645D+01  1  2  3  2  5  2        2 -.253590476247D-01 0.100000000000D+01
0.284469503397D-04 0.000000000000D+00 0.000000000000D+00 0.232504586677D-02 0.000000000000D+00  5 -1 2 25 24 21 2 0.44365024D-02 0.13424483D+00 0.24910593D+05 0.24910593D+05 0.24910593D+05 0.12234645D+01  1  2 15  2  5  2        2 0.314903955849D-01 0.100000000000D+01
0.386584130956D-02 0.000000000000D+00 0.000000000000D+00 0.232504586677D-02 0.000000000000D+00  5 -1 2 25 24 21 2 0.44365024D-02 0.20145378D+00 0.28313060D+05 0.28313060D+05 0.28313060D+05 0.12175452D+01  1  2 12  2  5  2        2 0.236013626566D+01 0.100000000000D+01
-.361660972253D-02 0.000000000000D+00 0.000000000000D+00 0.232504586677D-02 0.000000000000D+00  5 -1 2 25 24 21 2 0.44365024D-02 0.13424483D+00 0.24910593D+05 0.24910593D+05 0.24910593D+05 0.12234645D+01  1  2  4  2  5  2        2 -.400353884964D+01 0.100000000000D+01
-.402591535706D-02 0.000000000000D+00 -.184001710555D-03 0.232504586677D-02 0.000000000000D+00  5 -1 2 25 24 21 2 0.44365024D-02 0.20173977D+00 0.24910593D+05 0.24910593D+05 0.24910593D+05 0.12234645D+01  1  2  5  2  5  2        2 -.247289362760D+01 0.100000000000D+01
0.379588284671D-02 0.000000000000D+00 0.169726791695D-03 0.232504586677D-02 0.000000000000D+00  5 -1 2 25 24 21 2 0.44365024D-02 0.13424483D+00 0.24910593D+05 0.24910593D+05 0.24910593D+05 0.12234645D+01  1  2  6  2  5  2        2 0.420199181317D+01 0.100000000000D+01
0.186002707885D-03 0.000000000000D+00 0.000000000000D+00 0.232504586677D-02 0.000000000000D+00  5 -1 21 25 24 -2 2 0.44365024D-02 0.20145378D+00 0.28313060D+05 0.28313060D+05 0.28313060D+05 0.12175452D+01  1  2 12  4  5  2        2 0.681785402210D-01 0.100000000000D+01
-.187767296015D-03 0.000000000000D+00 -.887591447658D-05 0.232504586677D-02 0.000000000000D+00  5 -1 21 25 24 -2 2 0.44365024D-02 0.20173977D+00 0.24910593D+05 0.24910593D+05 0.24910593D+05 0.12234645D+01  1  2  5  4  5  2        2 -.695860070123D-01 0.100000000000D+01
  </mgrwgt>
  </event>
  <event>
  5     66 0.45252658E-03 0.12731324E+03 0.75467711E-02 0.12218449E+00
       -1 -1    0    0    0  501 0.00000000E+00 0.00000000E+00 0.17872474E+02 0.17875339E+02 0.32000000E+00 0.0000E+00 0.9000E+01
        2 -1    0    0  502    0 0.00000000E+00 0.00000000E+00 -.10453122E+04 0.10453123E+04 0.32000000E+00 0.0000E+00 0.9000E+01
       25  1    1    2    0    0 0.67997634E+02 0.21854257E+02 -.47622669E+03 0.49751196E+03 0.12500000E+03 0.0000E+00 0.9000E+01
       24  1    1    2    0    0 -.75609412E+02 -.11622220E+02 -.52382634E+03 0.53545599E+03 0.80419002E+02 0.0000E+00 0.9000E+01
       21  1    1    2  502  501 0.76117787E+01 -.10232037E+02 -.27386735E+02 0.30219688E+02 0.75000000E+00 0.0000E+00 0.9000E+01
#aMCatNLO 2  0  0  2  1 0.12752794D+02 0.00000000D+00  -5  5  0 0.00000000D+00 0.00000000D+00 0.00000000D+00 0.00000000D+00 0.00000000D+00
  <mgrwgt>
 0.3286326484D+00    1    2    0
 0.129184042974609D+03 0.000000000000000D+00 0.000000000000000D+00 0.129184042974609D+03
 0.129184042974609D+03 0.000000000000000D+00 0.000000000000000D+00 -.129184042974609D+03
 0.146906402166118D+03 0.723036490543158D+02 0.160659506933415D+02 0.216923617695870D+02
 0.111461683783100D+03 -.723036490543158D+02 -.160659506933415D+02 -.216923617695870D+02
 0.000000000000000D+00 0.000000000000000D+00 -.000000000000000D+00 0.000000000000000D+00
 0.140463681155572D+03 0.000000000000000D+00 0.000000000000000D+00 0.140463681155572D+03
 0.132996869553541D+03 0.000000000000000D+00 0.000000000000000D+00 -.132996869553541D+03
 0.145591364129938D+03 0.679976338050609D+02 0.218542569534273D+02 0.216923617695870D+02
 0.113091263014678D+03 -.756094124637966D+02 -.116222202535176D+02 -.216923617695870D+02
 0.147779235644969D+02 0.761177865873568D+01 -.102320366999097D+02 0.746681160203143D+01
0.184768623270D-03 0.000000000000D+00 0.000000000000D+00 0.256677935756D-02 0.129717382560D-03  5 -1 2 25 24 21 2 0.27496416D-02 0.16080615D+00 0.17917214D+05 0.17917214D+05 0.17917214D+05 0.12391189D+01  1  2  1  2  5  2        2 0.328632648410D+00 0.100000000000D+01
  </mgrwgt>
  </event>
  <event>
  4     66 0.45252658E-03 0.52256792E+02 0.75467711E-02 0.12690211E+00
       -1 -1    0    0    0  501 0.00000000E+00 0.00000000E+00 0.11571562E+04 0.11571562E+04 0.32000000E+00 0.0000E+00 0.9000E+01
        2 -1    0    0  501    0 0.00000000E+00 0.00000000E+00 -.96694306E+01 0.96747242E+01 0.32000000E+00 0.0000E+00 0.9000E+01
       25  1    1    2    0    0 -.13813523E+02 0.13006495E+02 0.60315012E+03 0.61625892E+03 0.12500000E+03 0.0000E+00 0.9000E+01
       24  1    1    2    0    0 0.13813523E+02 -.13006495E+02 0.54433661E+03 0.55057202E+03 0.80419002E+02 0.0000E+00 0.9000E+01
#aMCatNLO 1  0  0  1  2 0.20485888D+01 0.00000000D+00  -5  5  0 0.00000000D+00 0.00000000D+00 0.00000000D+00 0.00000000D+00 0.00000000D+00
  <mgrwgt>
 0.6745870853D+00   11    2    0
 0.105792983443040D+03 0.000000000000000D+00 0.000000000000000D+00 0.105792983443040D+03
 0.105792983443040D+03 0.000000000000000D+00 0.000000000000000D+00 -.105792983443040D+03
 0.127433794930694D+03 -.138135233672376D+02 0.130064946634916D+02 -.159496005965543D+02
 0.841521719553857D+02 0.138135233672376D+02 -.130064946634916D+02 0.159496005965543D+02
 0.000000000000000D+00 -.000000000000000D+00 0.000000000000000D+00 0.000000000000000D+00
 0.107222846286058D+03 0.000000000000000D+00 0.000000000000000D+00 0.107222846286058D+03
 0.106534257398794D+03 0.000000000000000D+00 0.000000000000000D+00 -.106534257398794D+03
 0.127261744430325D+03 -.127351093845713D+02 0.124088204605730D+02 -.159496005965543D+02
 0.843341395070957D+02 0.145269162857978D+02 -.134018683797281D+02 0.159496005965543D+02
 0.216121974743083D+01 -.179180690122648D+01 0.993047919155128D+00 0.688588887264248D+00
0.122271481613D-02 0.000000000000D+00 0.000000000000D+00 0.307798513637D-02 0.000000000000D+00  5 -1 2 25 24 21 0 0.17802444D+00 0.14880153D-02 0.10926374D+05 0.10926374D+05 0.10926374D+05 0.12638229D+01  1  2  2  1  5  1       -1 0.260130618146D+00 0.100000000000D+01
-.679166743829D-04 0.000000000000D+00 -.469554684216D-05 0.307798513637D-02 0.000000000000D+00  5 -1 2 25 24 21 2 0.17802444D+00 0.14880153D-02 0.10926374D+05 0.10926374D+05 0.10926374D+05 0.12638229D+01  1  2  3  1  5  1       -1 -.230789016201D-01 0.100000000000D+01
0.846060400889D-04 0.000000000000D+00 0.000000000000D+00 0.307798513637D-02 0.000000000000D+00  5 -1 2 25 24 21 2 0.17802444D+00 0.14880153D-02 0.10926374D+05 0.10926374D+05 0.10926374D+05 0.12638229D+01  1  2 15  1  5  1       -1 0.287501485228D-01 0.100000000000D+01
0.101847113009D-05 0.000000000000D+00 0.000000000000D+00 0.307798513637D-02 0.000000000000D+00  5 -1 2 25 24 21 2 0.18104782D+00 0.14880153D-02 0.11142817D+05 0.11142817D+05 0.11142817D+05 0.12628139D+01  1  2 12  1  5  1       -1 0.329676841686D-03 0.100000000000D+01
-.108162105882D-01 0.000000000000D+00 0.000000000000D+00 0.307798513637D-02 0.000000000000D+00  5 -1 2 25 24 21 2 0.17802444D+00 0.14880153D-02 0.10926374D+05 0.10926374D+05 0.10926374D+05 0.12638229D+01  1  2  4  1  5  1       -1 -.367547825826D+01 0.100000000000D+01
-.590475508703D-01 0.000000000000D+00 -.670540304158D-02 0.307798513637D-02 0.000000000000D+00  5 -1 2 25 24 21 2 0.18121384D+00 0.14880153D-02 0.10926374D+05 0.10926374D+05 0.10926374D+05 0.12638229D+01  1  2  5  1  5  1       -1 -.190834319288D+02 0.100000000000D+01
0.591583486944D-01 0.000000000000D+00 0.670434603944D-02 0.307798513637D-02 0.000000000000D+00  5 -1 2 25 24 21 2 0.17802444D+00 0.14880153D-02 0.10926374D+05 0.10926374D+05 0.10926374D+05 0.12638229D+01  1  2  6  1  5  1       -1 0.201027173656D+02 0.100000000000D+01
0.108165352500D-01 0.000000000000D+00 0.000000000000D+00 0.307798513637D-02 0.623856939592D-02  5 -1 2 25 24 21 2 0.18043055D+00 0.14984416D-02 0.11142817D+05 0.11142817D+05 0.11142817D+05 0.12628139D+01  1  2 11  1  5  1       -1 0.350181432492D+01 0.100000000000D+01
0.520762523615D-07 0.000000000000D+00 0.000000000000D+00 0.307798513637D-02 0.000000000000D+00  5 21 2 25 24 1 2 0.18104782D+00 0.14880153D-02 0.11142817D+05 0.11142817D+05 0.11142817D+05 0.12628139D+01  1  2 12  3  5  1       -1 0.148130154562D-03 0.100000000000D+01
-.190685994006D-03 0.000000000000D+00 -.217422332461D-04 0.307798513637D-02 0.000000000000D+00  5 21 2 25 24 1 2 0.18121384D+00 0.14880153D-02 0.10926374D+05 0.10926374D+05 0.10926374D+05 0.12638229D+01  1  2  5  3  5  1       -1 -.542035545727D+00 0.100000000000D+01
0.368216145514D-04 0.000000000000D+00 0.000000000000D+00 0.307798513637D-02 0.154445160189D-04  5 21 2 25 24 1 2 0.18043055D+00 0.14984416D-02 0.11142817D+05 0.11142817D+05 0.11142817D+05 0.12628139D+01  1  2 11  3  5  1       -1 0.104721455521D+00 0.100000000000D+01
  </mgrwgt>
  </event>
  <event>
  4     66 0.45252658E-03 0.68576978E+02 0.75467711E-02 0.12208350E+00
       -1 -1    0    0    0  501 0.00000000E+00 0.00000000E+00 0.11742236E+02 0.11746595E+02 0.32000000E+00 0.0000E+00 0.9000E+01
        2 -1    0    0  501    0 0.00000000E+00 0.00000000E+00 -.14305365E+04 0.14305366E+04 0.32000000E+00 0.0000E+00 0.9000E+01
       25  1    1    2    0    0 -.34348438E+02 0.98929636E+01 -.11910831E+04 0.11981576E+04 0.12500000E+03 0.0000E+00 0.9000E+01
       24  1    1    2    0    0 0.34348438E+02 -.98929636E+01 -.22771123E+03 0.24412559E+03 0.80419002E+02 0.0000E+00 0.9000E+01
#aMCatNLO 1  0  0  2  1 0.46094942D+02 0.00000000D+00  -5  5  0 0.00000000D+00 0.00000000D+00 0.00000000D+00 0.00000000D+00 0.00000000D+00
  <mgrwgt>
 0.3630164409D+00    9    2    0
 0.129618157322293D+03 0.000000000000000D+00 0.000000000000000D+00 0.129618157322293D+03
 0.129618157322293D+03 0.000000000000000D+00 0.000000000000000D+00 -.129618157322293D+03
 0.147281161169160D+03 -.343484382212657D+02 0.989296359192458D+01 -.692029948662968D+02
 0.111955153475427D+03 0.343484382212657D+02 -.989296359192458D+01 0.692029948662968D+02
 0.000000000000000D+00 0.000000000000000D+00 0.000000000000000D+00 -.000000000000000D+00
 0.136910450320599D+03 0.000000000000000D+00 0.000000000000000D+00 0.136910450320599D+03
 0.232652600327092D+03 0.000000000000000D+00 0.000000000000000D+00 -.232652600327092D+03
 0.148124369683397D+03 -.355864108355718D+02 -.161363490133583D+02 -.692029948662968D+02
 0.115178137974758D+03 0.333965779300889D+02 -.299065477288261D+02 0.692029948662968D+02
 0.106260542989537D+03 0.218983290548290D+01 0.460428967421844D+02 -.957421500064929D+02
0.297743233275D-03 0.000000000000D+00 0.000000000000D+00 0.196432056294D-02 0.000000000000D+00  5 -1 2 25 24 21 0 0.18068359D-02 0.22008288D+00 0.11882685D+05 0.11882685D+05 0.11882685D+05 0.12595245D+01  1  2  2  2  5  2        2 0.384328019394D+00 0.100000000000D+01
-.159381525831D-04 0.000000000000D+00 -.114341241337D-05 0.196432056294D-02 0.000000000000D+00  5 -1 2 25 24 21 2 0.18068359D-02 0.22008288D+00 0.11882685D+05 0.11882685D+05 0.11882685D+05 0.12595245D+01  1  2  3  2  5  2        2 -.326370834579D-01 0.100000000000D+01
0.203121003572D-04 0.000000000000D+00 0.000000000000D+00 0.196432056294D-02 0.000000000000D+00  5 -1 2 25 24 21 2 0.18068359D-02 0.22008288D+00 0.11882685D+05 0.11882685D+05 0.11882685D+05 0.12595245D+01  1  2 15  2  5  2        2 0.415937613287D-01 0.100000000000D+01
0.461741055179D-03 0.000000000000D+00 0.000000000000D+00 0.196432056294D-02 0.000000000000D+00  5 -1 2 25 24 21 2 0.18068359D-02 0.39678336D+00 0.18107749D+05 0.18107749D+05 0.18107749D+05 0.12386067D+01  1  2 12  2  5  2        2 0.234672249056D+00 0.100000000000D+01
-.534802579586D-03 0.000000000000D+00 0.000000000000D+00 0.196432056294D-02 0.000000000000D+00  5 -1 2 25 24 21 2 0.18068359D-02 0.22008288D+00 0.11882685D+05 0.11882685D+05 0.11882685D+05 0.12595245D+01  1  2  4  2  5  2        2 -.109513297306D+01 0.100000000000D+01
-.578017747200D-03 0.000000000000D+00 -.971259138933D-04 0.196432056294D-02 0.000000000000D+00  5 -1 2 25 24 21 2 0.18068359D-02 0.40053588D+00 0.11882685D+05 0.11882685D+05 0.11882685D+05 0.12595245D+01  1  2  5  2  5  2        2 -.295224500092D+00 0.100000000000D+01
0.549774864711D-03 0.000000000000D+00 0.819834451914D-04 0.196432056294D-02 0.000000000000D+00  5 -1 2 25 24 21 2 0.18068359D-02 0.22008288D+00 0.11882685D+05 0.11882685D+05 0.11882685D+05 0.12595245D+01  1  2  6  2  5  2        2 0.112579221770D+01 0.100000000000D+01
0.298367365428D-04 0.000000000000D+00 0.000000000000D+00 0.196432056294D-02 0.000000000000D+00  5 -1 21 25 24 -2 2 0.18068359D-02 0.39678336D+00 0.18107749D+05 0.18107749D+05 0.18107749D+05 0.12386067D+01  1  2 12  4  5  2        2 0.311795090005D-02 0.100000000000D+01
-.326233404365D-04 0.000000000000D+00 -.636364804778D-05 0.196432056294D-02 0.000000000000D+00  5 -1 21 25 24 -2 2 0.18068359D-02 0.40053588D+00 0.11882685D+05 0.11882685D+05 0.11882685D+05 0.12595245D+01  1  2  5  4  5  2        2 -.349320090497D-02 0.100000000000D+01
  </mgrwgt>
  </event>
  <event>
  4     66 0.45252658E-03 0.21309452E+03 0.75467711E-02 0.10451571E+00
       -3 -1    0    0    0  501 0.00000000E+00 0.00000000E+00 0.58765613E+03 0.58765634E+03 0.50000000E+00 0.0000E+00 0.9000E+01
        4 -1    0    0  501    0 0.00000000E+00 0.00000000E+00 -.97686155E+02 0.97698451E+02 0.15500000E+01 0.0000E+00 0.9000E+01
       25  1    1    2    0    0 0.11809161E+03 0.14329330E+03 0.41127134E+03 0.46823895E+03 0.12500000E+03 0.0000E+00 0.9000E+01
       24  1    1    2    0    0 -.11809161E+03 -.14329330E+03 0.78698630E+02 0.21711584E+03 0.80419002E+02 0.0000E+00 0.9000E+01
#aMCatNLO 1  0  0  1  2 0.28583867D+03 0.00000000D+00  -5  5  0 0.00000000D+00 0.00000000D+00 0.00000000D+00 0.00000000D+00 0.00000000D+00
  <mgrwgt>
 0.5900655109D-01    3    2    0
 0.239604160755231D+03 0.000000000000000D+00 0.000000000000000D+00 0.239604160755231D+03
 0.239604160755231D+03 0.000000000000000D+00 0.000000000000000D+00 -.239604160755231D+03
 0.249159278680525D+03 0.118091609491961D+03 0.143293298636301D+03 0.109438331886618D+03
 0.230049042829937D+03 -.118091609491961D+03 -.143293298636301D+03 -.109438331886618D+03
 0.000000000000000D+00 0.000000000000000D+00 0.000000000000000D+00 -.000000000000000D+00
 0.355504250391385D+03 0.000000000000000D+00 0.000000000000000D+00 0.355504250391385D+03
 0.545951366635255D+03 0.000000000000000D+00 0.000000000000000D+00 -.545951366635255D+03
 0.187812002021258D+03 0.829548116377835D+02 0.281086969325716D+02 0.109438331886618D+03
 0.370170399877969D+03 -.166355168581483D+03 -.301509731835551D+03 -.109438331886618D+03
 0.343473215127414D+03 0.834003569436995D+02 0.273401034902979D+03 -.190447116243870D+03
0.644976604569D-02 0.000000000000D+00 0.000000000000D+00 0.165852626212D-02 0.000000000000D+00  5 -3 4 25 24 21 0 0.90409597D-01 0.15029601D-01 0.45409276D+05 0.45409276D+05 0.45409276D+05 0.11964463D+01  1  2  2  1  5  1       -3 0.578703526767D-01 0.100000000000D+01
-.352330756139D-03 0.000000000000D+00 -.247687998778D-04 0.165852626212D-02 0.000000000000D+00  5 -3 4 25 24 21 2 0.90409597D-01 0.15029601D-01 0.45409276D+05 0.45409276D+05 0.45409276D+05 0.11964463D+01  1  2  3  1  5  1       -3 -.452531859041D-02 0.100000000000D+01
0.440792515693D-03 0.000000000000D+00 0.000000000000D+00 0.165852626212D-02 0.000000000000D+00  5 -3 4 25 24 21 2 0.90409597D-01 0.15029601D-01 0.45409276D+05 0.45409276D+05 0.45409276D+05 0.11964463D+01  1  2 15  1  5  1       -3 0.566151700078D-02 0.100000000000D+01
  </mgrwgt>
  </event>
  <event>
  4     66 0.45252658E-03 0.14385113E+03 0.75467711E-02 0.10998495E+00
       -1 -1    0    0    0  501 0.00000000E+00 0.00000000E+00 0.19038929E+03 0.19038955E+03 0.32000000E+00 0.0000E+00 0.9000E+01
        2 -1    0    0  501    0 0.00000000E+00 0.00000000E+00 -.41247681E+03 0.41247693E+03 0.32000000E+00 0.0000E+00 0.9000E+01
       25  1    1    2    0    0 -.19614827E+03 -.77598157E+02 -.27761055E+03 0.37038930E+03 0.12500000E+03 0.0000E+00 0.9000E+01
       24  1    1    2    0    0 0.19614827E+03 0.77598157E+02 0.55523028E+02 0.23247718E+03 0.80419002E+02 0.0000E+00 0.9000E+01
#aMCatNLO 1  0  0  1  2 0.69421621D+02 0.00000000D+00  -5  5  0 0.00000000D+00 0.00000000D+00 0.00000000D+00 0.00000000D+00 0.00000000D+00
  <mgrwgt>
 0.3836166741D+00    6    2    0
 0.280234336593518D+03 0.000000000000000D+00 0.000000000000000D+00 0.280234336593518D+03
 0.280234336593518D+03 0.000000000000000D+00 0.000000000000000D+00 -.280234336593518D+03
 0.288404092088999D+03 -.196148271648714D+03 -.775981568485535D+02 -.151843017345578D+03
 0.272064581098037D+03 0.196148271648714D+03 0.775981568485535D+02 0.151843017345578D+03
 0.000000000000000D+00 -.000000000000000D+00 -.000000000000000D+00 -.000000000000000D+00
 0.317028154130609D+03 0.000000000000000D+00 0.000000000000000D+00 0.317028154130609D+03
 0.317145276526723D+03 0.000000000000000D+00 0.000000000000000D+00 -.317145276526723D+03
 0.264597583343035D+03 -.165753033450538D+03 -.621008139746164D+02 -.151843017345578D+03
 0.300154127648398D+03 0.227599756746318D+03 0.936340386953797D+02 0.151843017345578D+03
 0.694217196658985D+02 -.618467232957799D+02 -.315332247207633D+02 -.117122396114101D+00
0.378923183845D-02 0.000000000000D+00 0.000000000000D+00 0.144599437813D-02 0.000000000000D+00  5 -1 2 25 24 21 0 0.29290690D-01 0.63458001D-01 0.55447194D+05 0.55447194D+05 0.55447194D+05 0.11878595D+01  1  2  2  1  5  1       -1 0.355199637030D+00 0.100000000000D+01
-.202760710199D-03 0.000000000000D+00 -.145516479873D-04 0.144599437813D-02 0.000000000000D+00  5 -1 2 25 24 21 2 0.29290690D-01 0.63458001D-01 0.55447194D+05 0.55447194D+05 0.55447194D+05 0.11878595D+01  1  2  3  1  5  1       -1 -.268185518404D-01 0.100000000000D+01
0.258650798537D-03 0.000000000000D+00 0.000000000000D+00 0.144599437813D-02 0.000000000000D+00  5 -1 2 25 24 21 2 0.29290690D-01 0.63458001D-01 0.55447194D+05 0.55447194D+05 0.55447194D+05 0.11878595D+01  1  2 15  1  5  1       -1 0.342109664261D-01 0.100000000000D+01
0.234772698775D-02 0.000000000000D+00 0.000000000000D+00 0.144599437813D-02 0.000000000000D+00  5 -1 2 25 24 21 2 0.34826242D-01 0.63458001D-01 0.74263738D+05 0.74263738D+05 0.74263738D+05 0.11756324D+01  1  2 12  1  5  1       -1 0.225799775794D+00 0.100000000000D+01
-.201924329634D-02 0.000000000000D+00 0.000000000000D+00 0.144599437813D-02 0.000000000000D+00  5 -1 2 25 24 21 2 0.29290690D-01 0.63458001D-01 0.55447194D+05 0.55447194D+05 0.55447194D+05 0.11878595D+01  1  2  4  1  5  1       -1 -.267079262882D+00 0.100000000000D+01
0.600471643215D-04 0.000000000000D+00 0.000000000000D+00 0.144599437813D-02 0.000000000000D+00  5 21 2 25 24 1 2 0.34826242D-01 0.63458001D-01 0.74263738D+05 0.74263738D+05 0.74263738D+05 0.11756324D+01  1  2 12  3  5  1       -1 0.623041095350D-01 0.100000000000D+01
  </mgrwgt>
  </event>
  <event>
  4     66 0.45252658E-03 0.10292956E+03 0.75467711E-02 0.11245304E+00
       -1 -1    0    0    0  501 0.00000000E+00 0.00000000E+00 0.32081447E+02 0.32083043E+02 0.32000000E+00 0.0000E+00 0.9000E+01
        2 -1    0    0  501    0 0.00000000E+00 0.00000000E+00 -.36639412E+03 0.36639426E+03 0.32000000E+00 0.0000E+00 0.9000E+01
       25  1    1    2    0    0 0.27080415E+01 0.59830129E+01 -.26097820E+03 0.28944386E+03 0.12500000E+03 0.0000E+00 0.9000E+01
       24  1    1    2    0    0 -.27080415E+01 -.59830129E+01 -.73334478E+02 0.10903344E+03 0.80419002E+02 0.0000E+00 0.9000E+01
#aMCatNLO 1  0  0  2  1 0.18764034D+03 0.00000000D+00  -5  5  0 0.00000000D+00 0.00000000D+00 0.00000000D+00 0.00000000D+00 0.00000000D+00
  <mgrwgt>
 0.6339936181D+00    3    2    0
 0.108419552360979D+03 0.000000000000000D+00 0.000000000000000D+00 0.108419552360979D+03
 0.108419552360979D+03 0.000000000000000D+00 0.000000000000000D+00 -.108419552360979D+03
 0.129536094179790D+03 0.270804147760065D+01 0.598301291660885D+01 -.333387126798651D+02
 0.873030105421677D+02 -.270804147760065D+01 -.598301291660885D+01 0.333387126798651D+02
 0.000000000000000D+00 -.000000000000000D+00 -.000000000000000D+00 0.000000000000000D+00
 0.132494120089173D+04 0.000000000000000D+00 0.000000000000000D+00 0.132494120089173D+04
 0.150826846227163D+03 0.000000000000000D+00 0.000000000000000D+00 -.150826846227163D+03
 0.176874184066506D+03 0.283930953417208D+02 0.117225591757763D+03 -.333387126798651D+02
 0.109880231729621D+03 0.138209804202278D+02 0.656045738318426D+02 0.333387126798651D+02
 0.118901363132277D+04 -.422140757619486D+02 -.182830165589606D+03 0.117411435466457D+04
0.377320067813D-03 0.000000000000D+00 0.000000000000D+00 0.281512729607D-02 0.000000000000D+00  5 -1 2 25 24 21 0 0.49357407D-02 0.56368460D-01 0.10594494D+05 0.10594494D+05 0.10594494D+05 0.12654146D+01  1  2  2  2  5  2        2 0.621312606116D+00 0.100000000000D+01
-.208934055702D-04 0.000000000000D+00 -.144900841106D-05 0.281512729607D-02 0.000000000000D+00  5 -1 2 25 24 21 2 0.49357407D-02 0.56368460D-01 0.10594494D+05 0.10594494D+05 0.10594494D+05 0.12654146D+01  1  2  3  2  5  2        2 -.550903014450D-01 0.100000000000D+01
0.257027734411D-04 0.000000000000D+00 0.000000000000D+00 0.281512729607D-02 0.000000000000D+00  5 -1 2 25 24 21 2 0.49357407D-02 0.56368460D-01 0.10594494D+05 0.10594494D+05 0.10594494D+05 0.12654146D+01  1  2 15  2  5  2        2 0.677713133977D-01 0.100000000000D+01
  </mgrwgt>
  </event>
  <event>
  5     66 0.45252658E-03 0.10587489E+03 0.75467711E-02 0.12157719E+00
       21 -1    0    0  502  501 0.00000000E+00 0.00000000E+00 0.13454189E+02 0.13475077E+02 0.75000000E+00 0.0000E+00 0.9000E+01
        2 -1    0    0  501    0 0.00000000E+00 0.00000000E+00 -.15231674E+04 0.15231675E+04 0.32000000E+00 0.0000E+00 0.9000E+01
       25  1    1    2    0    0 -.41899548E+02 -.17224976E+02 -.91170030E+03 0.92134397E+03 0.12500000E+03 0.0000E+00 0.9000E+01
       24  1    1    2    0    0 0.95975123E+01 -.29881192E+02 -.31730716E+03 0.32884046E+03 0.80419002E+02 0.0000E+00 0.9000E+01
        1  1    1    2  502    0 0.32302036E+02 0.47106168E+02 -.28070579E+03 0.28645812E+03 0.32000000E+00 0.0000E+00 0.9000E+01
#aMCatNLO 2  0  0  1  1 0.57117533D+02 0.00000000D+00  -5  5  0 0.00000000D+00 0.00000000D+00 0.00000000D+00 0.00000000D+00 0.00000000D+00
  <mgrwgt>
 0.1504535826D+00    1    2    0
 0.110949712600928D+03 0.000000000000000D+00 0.000000000000000D+00 0.110949712600928D+03
 0.110949712600928D+03 0.000000000000000D+00 0.000000000000000D+00 -.110949712600928D+03
 0.131584700810787D+03 -.226727129238163D+02 0.108135825935731D+02 -.325353347551625D+02
 0.903147243910694D+02 0.226727129238163D+02 -.108135825935731D+02 0.325353347551625D+02
 0.000000000000000D+00 0.000000000000000D+00 0.000000000000000D+00 0.000000000000000D+00
 0.145685688269992D+03 0.000000000000000D+00 0.000000000000000D+00 0.145685688269992D+03
 0.140775181084243D+03 0.000000000000000D+00 0.000000000000000D+00 -.140775181084243D+03
 0.136878851463135D+03 -.418995484459979D+02 -.172249763499995D+02 -.325353347551625D+02
 0.922537902676685D+02 0.959751231226014D+01 -.298811916456819D+02 0.325353347551625D+02
 0.573282276234312D+02 0.323020361337377D+02 0.471061679956814D+02 0.491050718574898D+01
0.497123835817D-05 0.000000000000D+00 0.000000000000D+00 0.276998985760D-02 0.367481706100D-06  5 21 2 25 24 1 2 0.20714781D-02 0.23433433D+00 0.19099190D+05 0.19099190D+05 0.19099190D+05 0.12360356D+01  1  2  1  3  5  1       -1 0.150453582599D+00 0.100000000000D+01
  </mgrwgt>
  </event>
  <event>
  4     66 0.45252658E-03 0.32456602E+03 0.75467711E-02 0.98030188E-01
       -1 -1    0    0    0  501 0.00000000E+00 0.00000000E+00 0.61755426E+03 0.61755435E+03 0.32000000E+00 0.0000E+00 0.9000E+01
        2 -1    0    0  501    0 0.00000000E+00 0.00000000E+00 -.22191758E+03 0.22191782E+03 0.32000000E+00 0.0000E+00 0.9000E+01
       25  1    1    2    0    0 -.28287993E+03 -.11968999E+03 -.72069857E+00 0.33162067E+03 0.12500000E+03 0.0000E+00 0.9000E+01
       24  1    1    2    0    0 0.28287993E+03 0.11968999E+03 0.39635738E+03 0.50785149E+03 0.80419002E+02 0.0000E+00 0.9000E+01
#aMCatNLO 1  0  0  1  1 0.49541825D+03 0.00000000D+00  -5  5  0 0.00000000D+00 0.00000000D+00 0.00000000D+00 0.00000000D+00 0.00000000D+00
  <mgrwgt>
 0.3703527718D+00    3    2    0
 0.370197626376476D+03 0.000000000000000D+00 0.000000000000000D+00 0.370197626376476D+03
 0.370197626376476D+03 0.000000000000000D+00 0.000000000000000D+00 -.370197626376476D+03
 0.376382015060478D+03 -.282879933986147D+03 -.119689987943841D+03 -.178021546434645D+03
 0.364013237692473D+03 0.282879933986147D+03 0.119689987943841D+03 0.178021546434645D+03
 0.000000000000000D+00 -.000000000000000D+00 0.000000000000000D+00 -.000000000000000D+00
 0.590620568953583D+03 0.000000000000000D+00 0.000000000000000D+00 0.590620568953583D+03
 0.868037813744100D+03 0.000000000000000D+00 0.000000000000000D+00 -.868037813744100D+03
 0.322004984838666D+03 -.947736384258369D+02 -.217688990822908D+03 -.178021546434645D+03
 0.568850993104460D+03 0.534141247185378D+03 -.112113095500259D+02 0.178021546434645D+03
 0.567802404754557D+03 -.439367608759541D+03 0.228900300372934D+03 -.277417244790517D+03
0.185657155040D-01 0.000000000000D+00 0.000000000000D+00 0.152042640793D-02 0.000000000000D+00  5 -1 2 25 24 21 0 0.95008373D-01 0.34141191D-01 0.10534310D+06 0.10534310D+06 0.10534310D+06 0.11615007D+01  1  2  2  1  5  1       -1 0.363334032739D+00 0.100000000000D+01
-.100972716012D-02 0.000000000000D+00 -.712972360005D-04 0.152042640793D-02 0.000000000000D+00  5 -1 2 25 24 21 2 0.95008373D-01 0.34141191D-01 0.10534310D+06 0.10534310D+06 0.10534310D+06 0.11615007D+01  1  2  3  1  5  1       -1 -.266586026666D-01 0.100000000000D+01
0.127557048007D-02 0.000000000000D+00 0.000000000000D+00 0.152042640793D-02 0.000000000000D+00  5 -1 2 25 24 21 2 0.95008373D-01 0.34141191D-01 0.10534310D+06 0.10534310D+06 0.10534310D+06 0.11615007D+01  1  2 15  1  5  1       -1 0.336773417060D-01 0.100000000000D+01
  </mgrwgt>
  </event>
  <event>
  5     66 0.45252658E-03 0.11297056E+03 0.75467711E-02 0.11756338E+00
       21 -1    0    0  502  501 0.00000000E+00 0.00000000E+00 0.10655406E+03 0.10655670E+03 0.75000000E+00 0.0000E+00 0.9000E+01
        2 -1    0    0  501    0 0.00000000E+00 0.00000000E+00 -.31786835E+03 0.31786851E+03 0.32000000E+00 0.0000E+00 0.9000E+01
       25  1    1    2    0    0 0.51710153E+02 0.76961209E+02 -.16003466E+03 0.22323320E+03 0.12500000E+03 0.0000E+00 0.9000E+01
       24  1    1    2    0    0 0.32267174E+02 -.26222482E+02 -.49237357E+02 0.10305495E+03 0.80419002E+02 0.0000E+00 0.9000E+01
        1  1    1    2  502    0 -.83977327E+02 -.50738727E+02 -.20422711E+01 0.98137063E+02 0.32000000E+00 0.0000E+00 0.9000E+01
#aMCatNLO 2  0  0  1  2 0.98115289D+02 0.00000000D+00  -5  5  0 0.00000000D+00 0.00000000D+00 0.00000000D+00 0.00000000D+00 0.00000000D+00
  <mgrwgt>
 0.1053257439D+00    2    2    0
 0.115154859239989D+03 0.000000000000000D+00 0.000000000000000D+00 0.115154859239989D+03
 0.115154859239989D+03 0.000000000000000D+00 0.000000000000000D+00 -.115154859239989D+03
 0.135036313018992D+03 0.655411282648921D+00 0.461141615966916D+02 -.219740840548099D+02
 0.952734054609868D+02 -.655411282648921D+00 -.461141615966916D+02 0.219740840548099D+02
 0.000000000000000D+00 -.000000000000000D+00 -.000000000000000D+00 0.000000000000000D+00
 0.227958840289594D+03 0.000000000000000D+00 0.000000000000000D+00 0.227958840289594D+03
 0.148582406363430D+03 0.000000000000000D+00 0.000000000000000D+00 -.148582406363430D+03
 0.157177695623615D+03 0.517101528232178D+02 0.769612092323237D+02 -.219740840548099D+02
 0.931604283804041D+02 0.322671742188457D+02 -.262224819483715D+02 0.219740840548099D+02
 0.126203122649004D+03 -.839773270420636D+02 -.507387272839522D+02 0.793764339261640D+02
-.238029021549D-06 0.000000000000D+00 0.000000000000D+00 0.279403965554D-02 0.000000000000D+00  5 21 2 25 24 1 2 0.16596041D-01 0.37900958D-01 0.29632380D+05 0.29632380D+05 0.29632380D+05 0.12154608D+01  1  2 13  3  5  1       -1 -.192015376280D-02 0.100000000000D+01
0.170702183927D-04 0.000000000000D+00 0.000000000000D+00 0.279403965554D-02 0.329121376217D-06  5 21 2 25 24 1 2 0.16393127D-01 0.48902977D-01 0.29632380D+05 0.29632380D+05 0.29632380D+05 0.12154608D+01  1  2  1  3  5  1       -1 0.107245897642D+00 0.100000000000D+01
  </mgrwgt>
  </event>
  <event>
  4     66 0.45252658E-03 0.12890109E+03 0.75467711E-02 0.12169635E+00
       -1 -1    0    0    0  501 0.00000000E+00 0.00000000E+00 0.12040376E+02 0.12044628E+02 0.32000000E+00 0.0000E+00 0.9000E+01
        2 -1    0    0  501    0 0.00000000E+00 0.00000000E+00 -.13840118E+04 0.13840118E+04 0.32000000E+00 0.0000E+00 0.9000E+01
       25  1    1    2    0    0 0.67572177E+02 0.36315908E+02 -.81865769E+03 0.83169120E+03 0.12500000E+03 0.0000E+00 0.9000E+01
       24  1    1    2    0    0 -.67572177E+02 -.36315908E+02 -.55331371E+03 0.56436524E+03 0.80419002E+02 0.0000E+00 0.9000E+01
#aMCatNLO 1  0  0  1  1 0.16342777D+02 0.00000000D+00  -5  5  0 0.00000000D+00 0.00000000D+00 0.00000000D+00 0.00000000D+00 0.00000000D+00
  <mgrwgt>
 0.2348261662D+00    4    2    0
 0.129100798701791D+03 0.000000000000000D+00 0.000000000000000D+00 0.129100798701791D+03
 0.129100798701791D+03 0.000000000000000D+00 0.000000000000000D+00 -.129100798701791D+03
 0.146834585281189D+03 0.675721765316926D+02 0.363159084297204D+02 -.710993589230047D+01
 0.111367012122393D+03 -.675721765316926D+02 -.363159084297204D+02 0.710993589230047D+01
 0.000000000000000D+00 0.000000000000000D+00 0.000000000000000D+00 -.000000000000000D+00
 0.133441866087235D+03 0.000000000000000D+00 0.000000000000000D+00 0.133441866087235D+03
 0.145713812382614D+03 0.000000000000000D+00 0.000000000000000D+00 -.145713812382614D+03
 0.142862989692887D+03 0.625566081966627D+02 0.286522844905327D+02 -.710993589230047D+01
 0.115855295834391D+03 -.715061031891817D+02 -.423268193561613D+02 0.710993589230047D+01
 0.204373929425720D+02 0.894949499251904D+01 0.136745348656286D+02 -.122719462953794D+02
0.291074463709D-03 0.000000000000D+00 0.000000000000D+00 0.262647530808D-02 0.000000000000D+00  5 -1 2 25 24 21 0 0.18526955D-02 0.21292522D+00 0.16615490D+05 0.16615490D+05 0.16615490D+05 0.12427900D+01  1  2  2  1  5  1       -1 0.386907830018D+00 0.100000000000D+01
-.161707564154D-04 0.000000000000D+00 -.111780258231D-05 0.262647530808D-02 0.000000000000D+00  5 -1 2 25 24 21 2 0.18526955D-02 0.21292522D+00 0.16615490D+05 0.16615490D+05 0.16615490D+05 0.12427900D+01  1  2  3  1  5  1       -1 -.331993231476D-01 0.100000000000D+01
0.200693990534D-04 0.000000000000D+00 0.000000000000D+00 0.262647530808D-02 0.000000000000D+00  5 -1 2 25 24 21 2 0.18526955D-02 0.21292522D+00 0.16615490D+05 0.16615490D+05 0.16615490D+05 0.12427900D+01  1  2 15  1  5  1       -1 0.412034197680D-01 0.100000000000D+01
-.779747173080D-04 0.000000000000D+00 0.000000000000D+00 0.262647530808D-02 0.000000000000D+00  5 -1 2 25 24 21 2 0.18526955D-02 0.21292522D+00 0.16615490D+05 0.16615490D+05 0.16615490D+05 0.12427900D+01  1  2  4  1  5  1       -1 -.160085760415D+00 0.100000000000D+01
  </mgrwgt>
  </event>
  <event>
  4     66 0.45252658E-03 0.57300772E+02 0.75467711E-02 0.12258227E+00
       -1 -1    0    0    0  501 0.00000000E+00 0.00000000E+00 0.12271594E+03 0.12271636E+03 0.32000000E+00 0.0000E+00 0.9000E+01
        2 -1    0    0  501    0 0.00000000E+00 0.00000000E+00 -.10142057E+03 0.10142108E+03 0.32000000E+00 0.0000E+00 0.9000E+01
       25  1    1    2    0    0 -.41357907E+02 -.52812680E+01 0.34714994E+01 0.13181585E+03 0.12500000E+03 0.0000E+00 0.9000E+01
       24  1    1    2    0    0 0.41357907E+02 0.52812680E+01 0.17823869E+02 0.92321582E+02 0.80419002E+02 0.0000E+00 0.9000E+01
#aMCatNLO 1  0  0  1  2 0.36816849D+02 0.00000000D+00  -5  5  0 0.00000000D+00 0.00000000D+00 0.00000000D+00 0.00000000D+00 0.00000000D+00
  <mgrwgt>
 0.3060738829D+00    9    2    0
 0.111561751880243D+03 0.000000000000000D+00 0.000000000000000D+00 0.111561751880243D+03
 0.111561751880243D+03 0.000000000000000D+00 0.000000000000000D+00 -.111561751880243D+03
 0.132083534416116D+03 -.413579070570259D+02 -.528126795322954D+01 -.909350298410379D+01
 0.910399693443701D+02 0.413579070570259D+02 0.528126795322954D+01 0.909350298410379D+01
 0.000000000000000D+00 -.000000000000000D+00 0.000000000000000D+00 0.000000000000000D+00
 0.137662030351705D+03 0.000000000000000D+00 0.000000000000000D+00 0.137662030351705D+03
 0.126850151960516D+03 0.000000000000000D+00 0.000000000000000D+00 -.126850151960516D+03
 0.127081733407356D+03 -.201337453299650D+02 -.605866885417390D+01 -.909350298410379D+01
 0.990588828051171D+02 0.569259220770693D+02 0.471104100819708D+01 0.909350298410379D+01
 0.383715660997473D+02 -.367921767471043D+02 0.134762784597682D+01 0.108118783911893D+02
0.245347099936D-03 0.000000000000D+00 0.000000000000D+00 0.295354799200D-02 0.000000000000D+00  5 -1 2 25 24 21 0 0.18879447D-01 0.15603236D-01 0.12360416D+05 0.12360416D+05 0.12360416D+05 0.12575207D+01  1  2  2  1  5  1       -1 0.214041968122D+00 0.100000000000D+01
-.136301970624D-04 0.000000000000D+00 -.942197465129D-06 0.295354799200D-02 0.000000000000D+00  5 -1 2 25 24 21 2 0.18879447D-01 0.15603236D-01 0.12360416D+05 0.12360416D+05 0.12360416D+05 0.12575207D+01  1  2  3  1  5  1       -1 -.188040071197D-01 0.100000000000D+01
0.169926638801D-04 0.000000000000D+00 0.000000000000D+00 0.295354799200D-02 0.000000000000D+00  5 -1 2 25 24 21 2 0.18879447D-01 0.15603236D-01 0.12360416D+05 0.12360416D+05 0.12360416D+05 0.12575207D+01  1  2 15  1  5  1       -1 0.234428138581D-01 0.100000000000D+01
0.139869443616D-03 0.000000000000D+00 0.000000000000D+00 0.295354799200D-02 0.000000000000D+00  5 -1 2 25 24 21 2 0.24344017D-01 0.15603236D-01 0.17188971D+05 0.17188971D+05 0.17188971D+05 0.12411343D+01  1  2 12  1  5  1       -1 0.126283820502D+00 0.100000000000D+01
-.144540749687D-03 0.000000000000D+00 0.000000000000D+00 0.295354799200D-02 0.000000000000D+00  5 -1 2 25 24 21 2 0.18879447D-01 0.15603236D-01 0.12360416D+05 0.12360416D+05 0.12360416D+05 0.12575207D+01  1  2  4  1  5  1       -1 -.199406162197D+00 0.100000000000D+01
-.292968843736D-03 0.000000000000D+00 -.105764269506D-03 0.295354799200D-02 0.000000000000D+00  5 -1 2 25 24 21 2 0.26294896D-01 0.15603236D-01 0.12360416D+05 0.12360416D+05 0.12360416D+05 0.12575207D+01  1  2  5  1  5  1       -1 -.236710541856D+00 0.100000000000D+01
0.316054542645D-03 0.000000000000D+00 0.100214017618D-03 0.295354799200D-02 0.000000000000D+00  5 -1 2 25 24 21 2 0.18879447D-01 0.15603236D-01 0.12360416D+05 0.12360416D+05 0.12360416D+05 0.12575207D+01  1  2  6  1  5  1       -1 0.436023913880D+00 0.100000000000D+01
0.479226904540D-05 0.000000000000D+00 0.000000000000D+00 0.295354799200D-02 0.000000000000D+00  5 21 2 25 24 1 2 0.24344017D-01 0.15603236D-01 0.17188971D+05 0.17188971D+05 0.17188971D+05 0.12411343D+01  1  2 12  3  5  1       -1 0.528538317665D-01 0.100000000000D+01
-.940650839313D-05 0.000000000000D+00 -.439160191166D-05 0.295354799200D-02 0.000000000000D+00  5 21 2 25 24 1 2 0.26294896D-01 0.15603236D-01 0.12360416D+05 0.12360416D+05 0.12360416D+05 0.12575207D+01  1  2  5  3  5  1       -1 -.916517540489D-01 0.100000000000D+01
  </mgrwgt>
  </event>
  <event>
  5     66 0.45252658E-03 0.11180519E+03 0.75467711E-02 0.11616830E+00
       -3 -1    0    0    0  502 0.00000000E+00 0.00000000E+00 0.30705207E+03 0.30705248E+03 0.50000000E+00 0.0000E+00 0.9000E+01
        4 -1    0    0  501    0 0.00000000E+00 0.00000000E+00 -.12567206E+03 0.12568162E+03 0.15500000E+01 0.0000E+00 0.9000E+01
       25  1    1    2    0    0 -.56730979E+02 -.56918424E+02 0.11476565E+03 0.18776119E+03 0.12500000E+03 0.0000E+00 0.9000E+01
       24  1    1    2    0    0 0.31128952E+02 -.59739270E+02 0.68912043E+02 0.12551445E+03 0.80419002E+02 0.0000E+00 0.9000E+01
       21  1    1    2  501  502 0.25602027E+02 0.11665769E+03 -.22976851E+01 0.11945846E+03 0.75000000E+00 0.0000E+00 0.9000E+01
#aMCatNLO 2  0  0  1  1 0.11943400D+03 0.00000000D+00  -5  5  0 0.00000000D+00 0.00000000D+00 0.00000000D+00 0.00000000D+00 0.00000000D+00
  <mgrwgt>
 0.1861107429D-02    1    2    0
 0.111959427048221D+03 0.000000000000000D+00 0.000000000000000D+00 0.111959427048221D+03
 0.111959427048221D+03 0.000000000000000D+00 0.000000000000000D+00 -.111959427048221D+03
 0.132408317077118D+03 -.416642514192699D+02 0.117343328846572D+02 0.577563993151646D+01
 0.915105370193244D+02 0.416642514192699D+02 -.117343328846572D+02 -.577563993151646D+01
 0.000000000000000D+00 0.000000000000000D+00 0.000000000000000D+00 -.000000000000000D+00
 0.156804311232316D+03 0.000000000000000D+00 0.000000000000000D+00 0.156804311232316D+03
 0.246100423607394D+03 0.000000000000000D+00 0.000000000000000D+00 -.246100423607394D+03
 0.148716068479956D+03 -.567309793752570D+02 -.569184239648347D+02 0.577563993151646D+01
 0.105063628316329D+03 0.311289523685718D+02 -.597392697347213D+02 -.577563993151646D+01
 0.149125038043425D+03 0.256020270066853D+02 0.116657693699556D+03 -.892961123750773D+02
0.574534079116D-04 0.000000000000D+00 0.000000000000D+00 0.295337641107D-02 0.228621193238D-05  5 -3 4 25 24 21 2 0.47239292D-01 0.19334826D-01 0.34771552D+05 0.34771552D+05 0.34771552D+05 0.12082276D+01  1  2  1  1  5  1       -3 0.186110742894D-02 0.100000000000D+01
  </mgrwgt>
  </event>
  <event>
  5     66 0.45252658E-03 0.16227022E+03 0.75467711E-02 0.11679957E+00
       -1 -1    0    0    0  502 0.00000000E+00 0.00000000E+00 0.57832519E+02 0.57833405E+02 0.32000000E+00 0.0000E+00 0.9000E+01
        2 -1    0    0  501    0 0.00000000E+00 0.00000000E+00 -.58944935E+03 0.58944943E+03 0.32000000E+00 0.0000E+00 0.9000E+01
       25  1    1    2    0    0 0.48062588E+01 0.13852413E+03 -.20204700E+03 0.27506367E+03 0.12500000E+03 0.0000E+00 0.9000E+01
       24  1    1    2    0    0 -.24334169E+02 -.11136824E+03 -.26255075E+03 0.29731322E+03 0.80419002E+02 0.0000E+00 0.9000E+01
       21  1    1    2  501  502 0.19527910E+02 -.27155891E+02 -.67019077E+02 0.74905947E+02 0.75000000E+00 0.0000E+00 0.9000E+01
#aMCatNLO 2  0  0  1  1 0.33448194D+02 0.00000000D+00  -5  5  0 0.00000000D+00 0.00000000D+00 0.00000000D+00 0.00000000D+00 0.00000000D+00
  <mgrwgt>
 0.1867158261D+00    1    2    0
 0.166317057501283D+03 0.000000000000000D+00 0.000000000000000D+00 0.166317057501283D+03
 0.166317057501283D+03 0.000000000000000D+00 0.000000000000000D+00 -.166317057501283D+03
 0.180082608947440D+03 0.156465393982041D+02 0.123449424964364D+03 0.363341619711382D+02
 0.152551506055126D+03 -.156465393982041D+02 -.123449424964364D+03 -.363341619711382D+02
 0.000000000000000D+00 0.000000000000000D+00 -.000000000000000D+00 -.000000000000000D+00
 0.179383696687576D+03 0.000000000000000D+00 0.000000000000000D+00 0.179383696687576D+03
 0.190029330427964D+03 0.000000000000000D+00 0.000000000000000D+00 -.190029330427964D+03
 0.190150482372658D+03 0.480625880925538D+01 0.138524129654974D+03 0.363341619711382D+02
 0.144161103059357D+03 -.243341689280540D+02 -.111368238638115D+03 -.363341619711382D+02
 0.351014416835249D+02 0.195279101187986D+02 -.271558910168591D+02 -.106456337403883D+02
0.302323784945D-03 0.000000000000D+00 0.000000000000D+00 0.219810484551D-02 0.155021906000D-04  5 -1 2 25 24 21 2 0.88971908D-02 0.90682606D-01 0.32328434D+05 0.32328434D+05 0.32328434D+05 0.12115059D+01  1  2  1  1  5  1       -1 0.186715826085D+00 0.100000000000D+01
  </mgrwgt>
  </event>
  <event>
  5     66 0.45252658E-03 0.12001397E+03 0.75467711E-02 0.11281566E+00
       -1 -1    0    0    0  501 0.00000000E+00 0.00000000E+00 0.24258078E+03 0.24258099E+03 0.32000000E+00 0.0000E+00 0.9000E+01
        2 -1    0    0  502    0 0.00000000E+00 0.00000000E+00 -.61925714E+03 0.61925722E+03 0.32000000E+00 0.0000E+00 0.9000E+01
       25  1    1    2    0    0 -.38253310E+02 0.11012597E+03 0.36884732E+01 0.17096681E+03 0.12500000E+03 0.0000E+00 0.9000E+01
       24  1    1    2    0    0 0.73171952E+02 0.50878364E+02 0.11657674E+03 0.16733229E+03 0.80419002E+02 0.0000E+00 0.9000E+01
       21  1    1    2  502  501 -.34918642E+02 -.16100434E+03 -.49694157E+03 0.52353911E+03 0.75000000E+00 0.0000E+00 0.9000E+01
#aMCatNLO 2  0  0  2  1 0.16474741D+03 0.00000000D+00  -5  5  0 0.00000000D+00 0.00000000D+00 0.00000000D+00 0.00000000D+00 0.00000000D+00
  <mgrwgt>
 0.2209425691D+00    1    2    0
 0.134945222535849D+03 0.000000000000000D+00 0.000000000000000D+00 0.134945222535849D+03
 0.134945222535849D+03 0.000000000000000D+00 0.000000000000000D+00 -.134945222535849D+03
 0.151910965882555D+03 -.581183240111450D+02 0.185315350528420D+02 -.610801455310286D+02
 0.117979479189143D+03 0.581183240111450D+02 -.185315350528420D+02 0.610801455310286D+02
 0.000000000000000D+00 -.000000000000000D+00 -.000000000000000D+00 -.000000000000000D+00
 0.167270000387127D+03 0.000000000000000D+00 0.000000000000000D+00 0.167270000387127D+03
 0.898067113083743D+03 0.000000000000000D+00 0.000000000000000D+00 -.898067113083743D+03
 0.181512617071528D+03 -.382533097160780D+02 0.110125974564719D+03 -.610801455310286D+02
 0.134687574039225D+03 0.731719521312807D+02 0.508783636667608D+02 0.610801455310286D+02
 0.749136922360117D+03 -.349186424152027D+02 -.161004338231480D+03 -.730797112696616D+03
0.398609748965D-02 0.000000000000D+00 0.000000000000D+00 0.208930653915D-02 0.239186378154D-05  5 -1 2 25 24 21 2 0.37320103D-01 0.95270250D-01 0.51919249D+05 0.51919249D+05 0.51919249D+05 0.11906651D+01  1  2  1  2  5  2        2 0.220942569148D+00 0.100000000000D+01
  </mgrwgt>
  </event>
  <event>
  4     66 0.45252658E-03 0.10516935E+03 0.75467711E-02 0.11479444E+00
       -1 -1    0    0    0  501 0.00000000E+00 0.00000000E+00 0.16064532E+03 0.16064564E+03 0.32000000E+00 0.0000E+00 0.9000E+01
        2 -1    0    0  501    0 0.00000000E+00 0.00000000E+00 -.70105752E+02 0.70106482E+02 0.32000000E+00 0.0000E+00 0.9000E+01
       25  1    1    2    0    0 -.19134541E+01 0.22016318E+02 0.39360865E+02 0.13290093E+03 0.12500000E+03 0.0000E+00 0.9000E+01
       24  1    1    2    0    0 0.19134541E+01 -.22016318E+02 0.51178700E+02 0.97851187E+02 0.80419002E+02 0.0000E+00 0.9000E+01
#aMCatNLO 1  0  0  1  1 0.14740971D+03 0.00000000D+00  -5  5  0 0.00000000D+00 0.00000000D+00 0.00000000D+00 0.00000000D+00 0.00000000D+00
  <mgrwgt>
 0.3163655127D+00    5    2    0
 0.106123897954383D+03 0.000000000000000D+00 0.000000000000000D+00 0.106123897954383D+03
 0.106123897954383D+03 0.000000000000000D+00 0.000000000000000D+00 -.106123897954383D+03
 0.127697229273136D+03 -.191345409829822D+01 0.220163176029934D+02 -.138997416038427D+02
 0.845505666356311D+02 0.191345409829822D+01 -.220163176029934D+02 0.138997416038427D+02
 0.000000000000000D+00 0.000000000000000D+00 0.000000000000000D+00 0.000000000000000D+00
 0.286236189442065D+03 0.000000000000000D+00 0.000000000000000D+00 0.286236189442065D+03
 0.163803007094925D+03 0.000000000000000D+00 0.000000000000000D+00 -.163803007094925D+03
 0.150445215056408D+03 -.814378159005047D+02 -.135440783396608D+02 -.138997416038427D+02
 0.107970632871877D+03 -.531307357992004D+02 -.466300729697593D+02 0.138997416038427D+02
 0.191623348608705D+03 0.134568551699705D+03 0.601741513094201D+02 0.122433182347140D+03
0.346418485314D-03 0.000000000000D+00 0.000000000000D+00 0.308187860237D-02 0.000000000000D+00  5 -1 2 25 24 21 0 0.24714745D-01 0.10785581D-01 0.11060592D+05 0.11060592D+05 0.11060592D+05 0.12631946D+01  1  2  2  1  5  1       -1 0.301926999821D+00 0.100000000000D+01
-.192435611125D-04 0.000000000000D+00 -.133033819769D-05 0.308187860237D-02 0.000000000000D+00  5 -1 2 25 24 21 2 0.24714745D-01 0.10785581D-01 0.11060592D+05 0.11060592D+05 0.11060592D+05 0.12631946D+01  1  2  3  1  5  1       -1 -.267625096987D-01 0.100000000000D+01
0.239764056090D-04 0.000000000000D+00 0.000000000000D+00 0.308187860237D-02 0.000000000000D+00  5 -1 2 25 24 21 2 0.24714745D-01 0.10785581D-01 0.11060592D+05 0.11060592D+05 0.11060592D+05 0.12631946D+01  1  2 15  1  5  1       -1 0.333445968705D-01 0.100000000000D+01
0.208053152700D-04 0.000000000000D+00 -.110542007484D-03 0.308187860237D-02 0.000000000000D+00  5 -1 2 25 24 21 2 0.95864721D-01 0.10785581D-01 0.11060592D+05 0.11060592D+05 0.11060592D+05 0.12631946D+01  1  2  5  1  5  1       -1 0.241340574655D-02 0.100000000000D+01
0.519333385751D-05 0.000000000000D+00 -.178087548485D-04 0.308187860237D-02 0.000000000000D+00  5 21 2 25 24 1 2 0.95864721D-01 0.10785581D-01 0.11060592D+05 0.11060592D+05 0.11060592D+05 0.12631946D+01  1  2  5  3  5  1       -1 0.544301991360D-02 0.100000000000D+01
  </mgrwgt>
  </event>
  <event>
  4     66 0.45252658E-03 0.15905421E+03 0.75467711E-02 0.98667438E-01
       -1 -1    0    0    0  501 0.00000000E+00 0.00000000E+00 0.30248040E+02 0.30249733E+02 0.32000000E+00 0.0000E+00 0.9000E+01
        2 -1    0    0  501    0 0.00000000E+00 0.00000000E+00 -.11850936E+04 0.11850937E+04 0.32000000E+00 0.0000E+00 0.9000E+01
       25  1    1    2    0    0 0.32883857E+02 0.11566321E+03 -.28560281E+03 0.33414562E+03 0.12500000E+03 0.0000E+00 0.9000E+01
       24  1    1    2    0    0 -.32883857E+02 -.11566321E+03 -.86924279E+03 0.88119781E+03 0.80419002E+02 0.0000E+00 0.9000E+01
#aMCatNLO 1  0  0  1  2 0.57831532D+03 0.00000000D+00  -5  5  0 0.00000000D+00 0.00000000D+00 0.00000000D+00 0.00000000D+00 0.00000000D+00
  <mgrwgt>
 0.4165084376D+00    3    2    0
 0.189335193177419D+03 0.000000000000000D+00 0.000000000000000D+00 0.189335193177419D+03
 0.189335193177419D+03 0.000000000000000D+00 0.000000000000000D+00 -.189335193177419D+03
 0.201427218822445D+03 0.328838566674835D+02 0.115663208284012D+03 0.102413859914890D+03
 0.177243167532392D+03 -.328838566674835D+02 -.115663208284012D+03 -.102413859914890D+03
 0.000000000000000D+00 -.000000000000000D+00 0.000000000000000D+00 -.000000000000000D+00
 0.632199374935727D+03 0.000000000000000D+00 0.000000000000000D+00 0.632199374935727D+03
 0.637398947945515D+03 0.000000000000000D+00 0.000000000000000D+00 -.637398947945515D+03
 0.387589183909302D+03 0.346748082459948D+03 0.622699292689608D+02 0.102413859914890D+03
 0.303670443553866D+03 0.223376542052498D+03 -.159257163392524D+03 -.102413859914890D+03
 0.578338695418075D+03 -.570124624512446D+03 0.969872341235628D+02 -.519957300978824D+01
0.907922593598D-03 0.000000000000D+00 0.000000000000D+00 0.158955390737D-02 0.000000000000D+00  5 -1 2 25 24 21 0 0.46536782D-02 0.18232223D+00 0.25298243D+05 0.25298243D+05 0.25298243D+05 0.12227458D+01  1  2  2  1  5  1       -1 0.407372919577D+00 0.100000000000D+01
-.485775328222D-04 0.000000000000D+00 -.348666182093D-05 0.158955390737D-02 0.000000000000D+00  5 -1 2 25 24 21 2 0.46536782D-02 0.18232223D+00 0.25298243D+05 0.25298243D+05 0.25298243D+05 0.12227458D+01  1  2  3  1  5  1       -1 -.325875100680D-01 0.100000000000D+01
0.621956621160D-04 0.000000000000D+00 0.000000000000D+00 0.158955390737D-02 0.000000000000D+00  5 -1 2 25 24 21 2 0.46536782D-02 0.18232223D+00 0.25298243D+05 0.25298243D+05 0.25298243D+05 0.12227458D+01  1  2 15  1  5  1       -1 0.417230280676D-01 0.100000000000D+01
  </mgrwgt>
  </event>
  <event>
  5     66 0.45252658E-03 0.11316209E+03 0.75467711E-02 0.12468928E+00
       -1 -1    0    0    0  502 0.00000000E+00 0.00000000E+00 0.19966983E+02 0.19969547E+02 0.32000000E+00 0.0000E+00 0.9000E+01
        2 -1    0    0  501    0 0.00000000E+00 0.00000000E+00 -.83388026E+03 0.83388032E+03 0.32000000E+00 0.0000E+00 0.9000E+01
       25  1    1    2    0    0 0.51068853E+02 -.60998092E+01 -.51495620E+03 0.53240034E+03 0.12500000E+03 0.0000E+00 0.9000E+01
       24  1    1    2    0    0 -.42354044E+02 0.83930457E+01 -.17692473E+03 0.19908260E+03 0.80419002E+02 0.0000E+00 0.9000E+01
       21  1    1    2  501  502 -.87148095E+01 -.22932365E+01 -.12203235E+03 0.12236692E+03 0.75000000E+00 0.0000E+00 0.9000E+01
#aMCatNLO 2  0  0  1  1 0.90114837D+01 0.00000000D+00  -5  5  0 0.00000000D+00 0.00000000D+00 0.00000000D+00 0.00000000D+00 0.00000000D+00
  <mgrwgt>
 0.4369115292D-01    1    2    0
 0.118624275511117D+03 0.000000000000000D+00 0.000000000000000D+00 0.118624275511117D+03
 0.118624275511117D+03 0.000000000000000D+00 0.000000000000000D+00 -.118624275511117D+03
 0.137924254385953D+03 0.459728216948497D+02 -.744079152715572D+01 -.350604368880958D+02
 0.993242966362799D+02 -.459728216948497D+02 0.744079152715572D+01 0.350604368880958D+02
 0.000000000000000D+00 -.000000000000000D+00 -.000000000000000D+00 -.000000000000000D+00
 0.119706193057009D+03 0.000000000000000D+00 0.000000000000000D+00 0.119706193057009D+03
 0.139085348219154D+03 0.000000000000000D+00 0.000000000000000D+00 -.139085348219154D+03
 0.139640501525847D+03 0.510688531179544D+02 -.609980924479276D+01 -.350604368880958D+02
 0.977791307725469D+02 -.423540435961051D+02 0.839304572484731D+01 0.350604368880958D+02
 0.213719089777693D+02 -.871480952184927D+01 -.229323648005455D+01 -.193791551621450D+02
0.211205821005D-04 0.000000000000D+00 0.000000000000D+00 0.259856575219D-02 0.271104063958D-03  5 -1 2 25 24 21 2 0.30718779D-02 0.12828248D+00 0.13859894D+05 0.13859894D+05 0.13859894D+05 0.12517554D+01  1  2  1  1  5  1       -1 0.436911529165D-01 0.100000000000D+01
  </mgrwgt>
  </event>
  <event>
  4     66 0.45252658E-03 0.35762130E+03 0.75467711E-02 0.92384027E-01
       -1 -1    0    0    0  501 0.00000000E+00 0.00000000E+00 0.15032907E+04 0.15032908E+04 0.32000000E+00 0.0000E+00 0.9000E+01
        2 -1    0    0  501    0 0.00000000E+00 0.00000000E+00 -.10446942E+03 0.10446991E+03 0.32000000E+00 0.0000E+00 0.9000E+01
       25  1    1    2    0    0 -.27217168E+03 0.20690686E+03 0.36328698E+03 0.51428621E+03 0.12500000E+03 0.0000E+00 0.9000E+01
       24  1    1    2    0    0 0.27217168E+03 -.20690686E+03 0.10355343E+04 0.10934745E+04 0.80419002E+02 0.0000E+00 0.9000E+01
#aMCatNLO 1  0  0  1  2 0.96805503D+03 0.00000000D+00  -5  5  0 0.00000000D+00 0.00000000D+00 0.00000000D+00 0.00000000D+00 0.00000000D+00
  <mgrwgt>
 0.2976650079D+00    3    2    0
 0.396293247981995D+03 0.000000000000000D+00 0.000000000000000D+00 0.396293247981995D+03
 0.396293247981995D+03 0.000000000000000D+00 0.000000000000000D+00 -.396293247981995D+03
 0.402070399177645D+03 -.272171676528441D+03 0.206906859946877D+03 -.170727079567044D+03
 0.390516096786344D+03 0.272171676528441D+03 -.206906859946877D+03 0.170727079567044D+03
 0.000000000000000D+00 -.000000000000000D+00 0.000000000000000D+00 -.000000000000000D+00
 0.765980504331932D+03 0.000000000000000D+00 0.000000000000000D+00 0.765980504331932D+03
 0.229405432279453D+04 0.000000000000000D+00 0.000000000000000D+00 -.229405432279453D+04
 0.239496343332774D+03 0.161949210589106D+02 0.111011203507456D+03 -.170727079567044D+03
 0.101163270171323D+04 0.902398980319751D+03 -.416487517029765D+03 0.170727079567044D+03
 0.180890578208046D+04 -.918593901378662D+03 0.305476313522308D+03 -.152807381846260D+04
0.694446679077D-01 0.000000000000D+00 0.000000000000D+00 0.160068324735D-02 0.000000000000D+00  5 -1 2 25 24 21 0 0.23127554D+00 0.16072259D-01 0.12789299D+06 0.12789299D+06 0.12789299D+06 0.11538823D+01  1  2  2  1  5  1       -1 0.292304649323D+00 0.100000000000D+01
-.380858117146D-02 0.000000000000D+00 -.266685809967D-03 0.160068324735D-02 0.000000000000D+00  5 -1 2 25 24 21 2 0.23127554D+00 0.16072259D-01 0.12789299D+06 0.12789299D+06 0.12789299D+06 0.11538823D+01  1  2  3  1  5  1       -1 -.213443546287D-01 0.100000000000D+01
0.476505707317D-02 0.000000000000D+00 0.000000000000D+00 0.160068324735D-02 0.000000000000D+00  5 -1 2 25 24 21 2 0.23127554D+00 0.16072259D-01 0.12789299D+06 0.12789299D+06 0.12789299D+06 0.11538823D+01  1  2 15  1  5  1       -1 0.267047132297D-01 0.100000000000D+01
  </mgrwgt>
  </event>
  <event>
  4     66 0.45252658E-03 0.55064366E+02 0.75467711E-02 0.12440269E+00
       -3 -1    0    0    0  501 0.00000000E+00 0.00000000E+00 0.40594934E+02 0.40598013E+02 0.50000000E+00 0.0000E+00 0.9000E+01
        4 -1    0    0  501    0 0.00000000E+00 0.00000000E+00 -.35476923E+03 0.35477261E+03 0.15500000E+01 0.0000E+00 0.9000E+01
       25  1    1    2    0    0 -.20763211E+02 0.43749865E+02 -.24315361E+03 0.27765778E+03 0.12500000E+03 0.0000E+00 0.9000E+01
       24  1    1    2    0    0 0.20763211E+02 -.43749865E+02 -.71020679E+02 0.11771285E+03 0.80419002E+02 0.0000E+00 0.9000E+01
#aMCatNLO 1  0  0  1  2 0.10761543D+02 0.00000000D+00  -5  5  0 0.00000000D+00 0.00000000D+00 0.00000000D+00 0.00000000D+00 0.00000000D+00
  <mgrwgt>
 0.6217292300D-02    9    2    0
 0.120012962747192D+03 0.000000000000000D+00 0.000000000000000D+00 0.120012962747192D+03
 0.120012962747192D+03 0.000000000000000D+00 0.000000000000000D+00 -.120012962747192D+03
 0.139089618793340D+03 -.207632113691233D+02 0.437498650406770D+02 -.370912445011003D+02
 0.100936306701044D+03 0.207632113691233D+02 -.437498650406770D+02 0.370912445011003D+02
 0.000000000000000D+00 0.000000000000000D+00 -.000000000000000D+00 0.000000000000000D+00
 0.126050743941638D+03 0.000000000000000D+00 0.000000000000000D+00 0.126050743941638D+03
 0.125026483444578D+03 0.000000000000000D+00 0.000000000000000D+00 -.125026483444578D+03
 0.140914039218757D+03 -.264258586415583D+02 0.464508344958552D+02 -.370912445011003D+02
 0.993530116162233D+02 0.167126651365518D+02 -.418178355278696D+02 0.370912445011003D+02
 0.108101765512361D+02 0.971319350500652D+01 -.463299896798559D+01 0.102426049706012D+01
0.198552851190D-03 0.000000000000D+00 0.000000000000D+00 0.255313858957D-02 0.000000000000D+00  5 -3 4 25 24 21 0 0.62458717D-02 0.54580378D-01 0.12987690D+05 0.12987690D+05 0.12987690D+05 0.12550181D+01  1  2  2  1  5  1       -3 0.192952487140D-01 0.100000000000D+01
-.109948365609D-04 0.000000000000D+00 -.762495228736D-06 0.255313858957D-02 0.000000000000D+00  5 -3 4 25 24 21 2 0.62458717D-02 0.54580378D-01 0.12987690D+05 0.12987690D+05 0.12987690D+05 0.12550181D+01  1  2  3  1  5  1       -3 -.168291812416D-02 0.100000000000D+01
0.137072574259D-04 0.000000000000D+00 0.000000000000D+00 0.255313858957D-02 0.000000000000D+00  5 -3 4 25 24 21 2 0.62458717D-02 0.54580378D-01 0.12987690D+05 0.12987690D+05 0.12987690D+05 0.12550181D+01  1  2 15  1  5  1       -3 0.209809321191D-02 0.100000000000D+01
0.365924657534D-03 0.000000000000D+00 0.000000000000D+00 0.255313858957D-02 0.000000000000D+00  5 -3 4 25 24 21 2 0.66846199D-02 0.54580378D-01 0.14265453D+05 0.14265453D+05 0.14265453D+05 0.12503161D+01  1  2 12  1  5  1       -3 0.503277627325D-01 0.100000000000D+01
-.301431364317D-03 0.000000000000D+00 0.000000000000D+00 0.255313858957D-02 0.000000000000D+00  5 -3 4 25 24 21 2 0.62458717D-02 0.54580378D-01 0.12987690D+05 0.12987690D+05 0.12987690D+05 0.12550181D+01  1  2  4  1  5  1       -3 -.461384126438D-01 0.100000000000D+01
-.138924315749D-02 0.000000000000D+00 -.271228136195D-03 0.255313858957D-02 0.000000000000D+00  5 -3 4 25 24 21 2 0.68317193D-02 0.54580378D-01 0.12987690D+05 0.12987690D+05 0.12987690D+05 0.12550181D+01  1  2  5  1  5  1       -3 -.184235708558D+00 0.100000000000D+01
0.140898015694D-02 0.000000000000D+00 0.270141690921D-03 0.255313858957D-02 0.000000000000D+00  5 -3 4 25 24 21 2 0.62458717D-02 0.54580378D-01 0.12987690D+05 0.12987690D+05 0.12987690D+05 0.12550181D+01  1  2  6  1  5  1       -3 0.215664710390D+00 0.100000000000D+01
0.432911635260D-05 0.000000000000D+00 0.000000000000D+00 0.255313858957D-02 0.000000000000D+00  5 21 4 25 24 3 2 0.66846199D-02 0.54580378D-01 0.14265453D+05 0.14265453D+05 0.14265453D+05 0.12503161D+01  1  2 12  3  5  1       -3 0.143822351686D-01 0.100000000000D+01
-.197901879834D-04 0.000000000000D+00 -.400603535677D-05 0.255313858957D-02 0.000000000000D+00  5 21 4 25 24 3 2 0.68317193D-02 0.54580378D-01 0.12987690D+05 0.12987690D+05 0.12987690D+05 0.12550181D+01  1  2  5  3  5  1       -3 -.634937185919D-01 0.100000000000D+01
  </mgrwgt>
  </event>
  <event>
  5     66 0.45252658E-03 0.14434491E+03 0.75467711E-02 0.11849680E+00
       -1 -1    0    0    0  501 0.00000000E+00 0.00000000E+00 0.15183937E+04 0.15183937E+04 0.32000000E+00 0.0000E+00 0.9000E+01
       21 -1    0    0  501  502 0.00000000E+00 0.00000000E+00 -.21031172E+02 0.21044540E+02 0.75000000E+00 0.0000E+00 0.9000E+01
       25  1    1    2    0    0 -.52772154E+02 -.90377428E+02 0.87423059E+03 0.88930147E+03 0.12500000E+03 0.0000E+00 0.9000E+01
       24  1    1    2    0    0 0.76448679E+02 0.63474401E+02 0.31532756E+03 0.34025298E+03 0.80419002E+02 0.0000E+00 0.9000E+01
       -2  1    1    2    0  502 -.23676525E+02 0.26903026E+02 0.30780435E+03 0.30988380E+03 0.32000000E+00 0.0000E+00 0.9000E+01
#aMCatNLO 2  0  0  2  2 0.35837839D+02 0.00000000D+00  -5  5  0 0.00000000D+00 0.00000000D+00 0.00000000D+00 0.00000000D+00 0.00000000D+00
  <mgrwgt>
 0.1209752810D+00    1    2    0
 0.154492059981045D+03 0.000000000000000D+00 0.000000000000000D+00 0.154492059981045D+03
 0.154492059981045D+03 0.000000000000000D+00 0.000000000000000D+00 -.154492059981045D+03
 0.169311242349953D+03 -.658046687865087D+02 -.755689160194002D+02 0.547757362673955D+02
 0.139672877612137D+03 0.658046687865087D+02 0.755689160194002D+02 -.547757362673955D+02
 0.000000000000000D+00 -.000000000000000D+00 0.000000000000000D+00 0.000000000000000D+00
 0.195239082107699D+03 0.000000000000000D+00 0.000000000000000D+00 0.195239082107699D+03
 0.163613305165898D+03 0.000000000000000D+00 0.000000000000000D+00 -.163613305165898D+03
 0.171983606562508D+03 -.527721535332794D+02 -.903774277907510D+02 0.547757362673955D+02
 0.139071914301739D+03 0.764486786915851D+02 0.634744014217946D+02 -.547757362673955D+02
 0.477968664093494D+02 -.236765251583057D+02 0.269030263689564D+02 0.316257769418009D+02
0.150065457891D-03 0.000000000000D+00 0.000000000000D+00 0.210075398784D-02 0.158265585503D-06  5 -1 21 25 24 -2 2 0.23359932D+00 0.32365856D-02 0.26682536D+05 0.26682536D+05 0.26682536D+05 0.12202765D+01  1  2  1  4  5  2        2 0.120975281036D+00 0.100000000000D+01
  </mgrwgt>
  </event>
  <event>
  5     66 0.45252658E-03 0.12478409E+03 0.75467711E-02 0.12216032E+00
       21 -1    0    0  502  501 0.00000000E+00 0.00000000E+00 0.13668377E+02 0.13688939E+02 0.75000000E+00 0.0000E+00 0.9000E+01
        2 -1    0    0  501    0 0.00000000E+00 0.00000000E+00 -.13248372E+04 0.13248372E+04 0.32000000E+00 0.0000E+00 0.9000E+01
       25  1    1    2    0    0 0.76592903E+02 0.14046401E+02 -.68644949E+03 0.70206956E+03 0.12500000E+03 0.0000E+00 0.9000E+01
       24  1    1    2    0    0 -.60474203E+02 -.21702263E+02 -.50181865E+03 0.51226682E+03 0.80419002E+02 0.0000E+00 0.9000E+01
        1  1    1    2  502    0 -.16118700E+02 0.76558618E+01 -.12290064E+03 0.12418975E+03 0.32000000E+00 0.0000E+00 0.9000E+01
#aMCatNLO 2  0  0  1  2 0.17844459D+02 0.00000000D+00  -5  5  0 0.00000000D+00 0.00000000D+00 0.00000000D+00 0.00000000D+00 0.00000000D+00
  <mgrwgt>
 0.1569403852D+00    1    2    0
 0.124813113742625D+03 0.000000000000000D+00 0.000000000000000D+00 0.124813113742625D+03
 0.124813113742625D+03 0.000000000000000D+00 0.000000000000000D+00 -.124813113742625D+03
 0.143156106259649D+03 0.672274389213806D+02 0.184946937018855D+02 0.266242753316178D+01
 0.106470121225602D+03 -.672274389213806D+02 -.184946937018855D+02 -.266242753316178D+01
 0.000000000000000D+00 -.000000000000000D+00 0.000000000000000D+00 -.000000000000000D+00
 0.131318223428878D+03 0.000000000000000D+00 0.000000000000000D+00 0.131318223428878D+03
 0.137999095439307D+03 0.000000000000000D+00 0.000000000000000D+00 -.137999095439307D+03
 0.147295155178800D+03 0.765929033643013D+02 0.140464007135011D+02 0.266242753316178D+01
 0.102968062587048D+03 -.604742030987055D+02 -.217022625034114D+02 -.266242753316178D+01
 0.190541011023365D+02 -.161187002655958D+02 0.765586178991030D+01 -.668087201042912D+01
0.416388765633D-05 0.000000000000D+00 0.000000000000D+00 0.269758851871D-02 0.657918576146D-06  5 21 2 25 24 1 2 0.21043907D-02 0.20382063D+00 0.17962592D+05 0.17962592D+05 0.17962592D+05 0.12389963D+01  1  2  1  3  5  1       -1 0.156940385194D+00 0.100000000000D+01
  </mgrwgt>
  </event>
  <event>
  4     66 0.45252658E-03 0.12248661E+03 0.75467711E-02 0.12344087E+00
       -1 -1    0    0    0  501 0.00000000E+00 0.00000000E+00 0.46591220E+01 0.46700982E+01 0.32000000E+00 0.0000E+00 0.9000E+01
        2 -1    0    0  501    0 0.00000000E+00 0.00000000E+00 -.34226382E+04 0.34226383E+04 0.32000000E+00 0.0000E+00 0.9000E+01
       25  1    1    2    0    0 -.64112692E+02 0.13992630E+02 -.15379613E+04 0.15444274E+04 0.12500000E+03 0.0000E+00 0.9000E+01
       24  1    1    2    0    0 0.64112692E+02 -.13992630E+02 -.18800178E+04 0.18828809E+04 0.80419002E+02 0.0000E+00 0.9000E+01
#aMCatNLO 1  0  0  2  2 0.57797984D+01 0.00000000D+00  -5  5  0 0.00000000D+00 0.00000000D+00 0.00000000D+00 0.00000000D+00 0.00000000D+00
  <mgrwgt>
 0.1716199705D+00    6    2    0
 0.126353963779782D+03 0.000000000000000D+00 0.000000000000000D+00 0.126353963779782D+03
 0.126353963779782D+03 0.000000000000000D+00 0.000000000000000D+00 -.126353963779782D+03
 0.144473268809243D+03 -.641126920692126D+02 0.139926295978691D+02 0.306805220458017D+02
 0.108234658750320D+03 0.641126920692126D+02 -.139926295978691D+02 -.306805220458017D+02
 0.000000000000000D+00 -.000000000000000D+00 -.000000000000000D+00 0.000000000000000D+00
 0.132523783884026D+03 0.000000000000000D+00 0.000000000000000D+00 0.132523783884026D+03
 0.127747904066809D+03 0.000000000000000D+00 0.000000000000000D+00 -.127747904066809D+03
 0.143114655071564D+03 -.608665732955481D+02 0.145179309306630D+02 0.306805220458017D+02
 0.109659360051151D+03 0.665721481393980D+02 -.135946295117053D+02 -.306805220458017D+02
 0.749767282811946D+01 -.570557484384992D+01 -.923301418957615D+00 0.477587981721680D+01
0.109682461870D-02 0.000000000000D+00 0.000000000000D+00 0.253579970737D-02 0.000000000000D+00  5 -1 2 25 24 21 0 0.71763347D-03 0.52656058D+00 0.15002971D+05 0.15002971D+05 0.15002971D+05 0.12478127D+01  1  2  2  2  5  2        2 0.440222945362D+00 0.100000000000D+01
-.608631096757D-04 0.000000000000D+00 -.421209533636D-05 0.253579970737D-02 0.000000000000D+00  5 -1 2 25 24 21 2 0.71763347D-03 0.52656058D+00 0.15002971D+05 0.15002971D+05 0.15002971D+05 0.12478127D+01  1  2  3  2  5  2        2 -.380354401980D-01 0.100000000000D+01
0.756419999274D-04 0.000000000000D+00 0.000000000000D+00 0.253579970737D-02 0.000000000000D+00  5 -1 2 25 24 21 2 0.71763347D-03 0.52656058D+00 0.15002971D+05 0.15002971D+05 0.15002971D+05 0.12478127D+01  1  2 15  2  5  2        2 0.472712745048D-01 0.100000000000D+01
-.678793239005D-03 0.000000000000D+00 0.000000000000D+00 0.253579970737D-02 0.000000000000D+00  5 -1 2 25 24 21 2 0.71763347D-03 0.52656058D+00 0.15002971D+05 0.15002971D+05 0.15002971D+05 0.12478127D+01  1  2  4  2  5  2        2 -.424201125880D+00 0.100000000000D+01
0.265457257147D-03 0.000000000000D+00 0.000000000000D+00 0.253579970737D-02 0.628580451148D-03  5 -1 2 25 24 21 2 0.75267527D-03 0.53236961D+00 0.15731077D+05 0.15731077D+05 0.15731077D+05 0.12454733D+01  1  2 11  2  5  2        2 0.146105088093D+00 0.100000000000D+01
0.551950148554D-05 0.000000000000D+00 0.000000000000D+00 0.253579970737D-02 0.129881406571D-05  5 -1 21 25 24 -2 2 0.75267527D-03 0.53236961D+00 0.15731077D+05 0.15731077D+05 0.15731077D+05 0.12454733D+01  1  2 11  4  5  2        2 0.257228628640D-03 0.100000000000D+01
  </mgrwgt>
  </event>
  <event>
  4     66 0.45252658E-03 0.10930817E+03 0.75467711E-02 0.11777346E+00
       -3 -1    0    0    0  501 0.00000000E+00 0.00000000E+00 0.51744463E+03 0.51744487E+03 0.50000000E+00 0.0000E+00 0.9000E+01
        4 -1    0    0  501    0 0.00000000E+00 0.00000000E+00 -.35968895E+02 0.36002276E+02 0.15500000E+01 0.0000E+00 0.9000E+01
       25  1    1    2    0    0 -.27671012E+02 0.23982738E+02 0.10664554E+03 0.16834229E+03 0.12500000E+03 0.0000E+00 0.9000E+01
       24  1    1    2    0    0 0.27671012E+02 -.23982738E+02 0.37483020E+03 0.38510486E+03 0.80419002E+02 0.0000E+00 0.9000E+01
#aMCatNLO 1  0  0  1  2 0.10110728D+03 0.00000000D+00  -5  5  0 0.00000000D+00 0.00000000D+00 0.00000000D+00 0.00000000D+00 0.00000000D+00
  <mgrwgt>
 0.7852175666D-01    3    2    0
 0.136459575150456D+03 0.000000000000000D+00 0.000000000000000D+00 0.136459575150456D+03
 0.136459575150456D+03 0.000000000000000D+00 0.000000000000000D+00 -.136459575150456D+03
 0.153237042095396D+03 -.276710115547831D+02 0.239827377065221D+02 -.807200996145410D+02
 0.119682108205516D+03 0.276710115547831D+02 -.239827377065221D+02 0.807200996145410D+02
 0.000000000000000D+00 0.000000000000000D+00 -.000000000000000D+00 -.000000000000000D+00
 0.158331909313450D+03 0.000000000000000D+00 0.000000000000000D+00 0.158331909313450D+03
 0.345042611117943D+03 0.000000000000000D+00 0.000000000000000D+00 -.345042611117943D+03
 0.173157167895158D+03 -.327596390459055D+02 0.822768276082179D+02 -.807200996145410D+02
 0.117888437672115D+03 0.239671835644863D+02 0.184474229258810D+02 0.807200996145410D+02
 0.212328914864121D+03 0.879245548141919D+01 -.100724250534099D+03 -.186710701804493D+03
0.132594563054D-02 0.000000000000D+00 0.000000000000D+00 0.174368569429D-02 0.000000000000D+00  5 -3 4 25 24 21 0 0.79609453D-01 0.55362625D-02 0.11948277D+05 0.11948277D+05 0.11948277D+05 0.12592440D+01  1  2  2  1  5  1       -3 0.765624447323D-01 0.100000000000D+01
-.692552364758D-04 0.000000000000D+00 -.509198035076D-05 0.174368569429D-02 0.000000000000D+00  5 -3 4 25 24 21 2 0.79609453D-01 0.55362625D-02 0.11948277D+05 0.11948277D+05 0.11948277D+05 0.12592440D+01  1  2  3  1  5  1       -3 -.634106918964D-02 0.100000000000D+01
0.906542477671D-04 0.000000000000D+00 0.000000000000D+00 0.174368569429D-02 0.000000000000D+00  5 -3 4 25 24 21 2 0.79609453D-01 0.55362625D-02 0.11948277D+05 0.11948277D+05 0.11948277D+05 0.12592440D+01  1  2 15  1  5  1       -3 0.830038112175D-02 0.100000000000D+01
  </mgrwgt>
  </event>
  <event>
  4     66 0.45252658E-03 0.13966813E+03 0.75467711E-02 0.10992420E+00
       -1 -1    0    0    0  501 0.00000000E+00 0.00000000E+00 0.10936308E+02 0.10940988E+02 0.32000000E+00 0.0000E+00 0.9000E+01
        2 -1    0    0  501    0 0.00000000E+00 0.00000000E+00 -.20021086E+04 0.20021086E+04 0.32000000E+00 0.0000E+00 0.9000E+01
       25  1    1    2    0    0 -.67271023E+02 -.64841240E+02 -.14303449E+04 0.14388334E+04 0.12500000E+03 0.0000E+00 0.9000E+01
       24  1    1    2    0    0 0.67271023E+02 0.64841240E+02 -.56082737E+03 0.57421627E+03 0.80419002E+02 0.0000E+00 0.9000E+01
#aMCatNLO 1  0  0  1  2 0.20368243D+03 0.00000000D+00  -5  5  0 0.00000000D+00 0.00000000D+00 0.00000000D+00 0.00000000D+00 0.00000000D+00
  <mgrwgt>
 0.6549027143D+00    5    2    0
 0.147987880484848D+03 0.000000000000000D+00 0.000000000000000D+00 0.147987880484848D+03
 0.147987880484848D+03 0.000000000000000D+00 0.000000000000000D+00 -.147987880484848D+03
 0.163458377149213D+03 -.672710227122361D+02 -.648412403180735D+02 -.486195857398858D+02
 0.132517383820482D+03 0.672710227122361D+02 0.648412403180735D+02 0.486195857398858D+02
 0.000000000000000D+00 0.000000000000000D+00 0.000000000000000D+00 0.000000000000000D+00
 0.282650094583739D+03 0.000000000000000D+00 0.000000000000000D+00 0.282650094583739D+03
 0.280333940516134D+03 0.000000000000000D+00 0.000000000000000D+00 -.280333940516134D+03
 0.245697040756135D+03 -.747672320725925D+02 -.191802066534766D+03 -.486195857398858D+02
 0.113591398229079D+03 0.627620198372146D+02 -.115262546259247D+02 0.486195857398858D+02
 0.203695596114659D+03 0.120052122353779D+02 0.203328321160691D+03 0.231615406760465D+01
0.661465124338D-03 0.000000000000D+00 0.000000000000D+00 0.218727777983D-02 0.000000000000D+00  5 -1 2 25 24 21 0 0.16828709D-02 0.30801707D+00 0.19507186D+05 0.19507186D+05 0.19507186D+05 0.12350207D+01  1  2  2  1  5  1       -1 0.486609929440D+00 0.100000000000D+01
-.365984760356D-04 0.000000000000D+00 -.254020024522D-05 0.218727777983D-02 0.000000000000D+00  5 -1 2 25 24 21 2 0.16828709D-02 0.30801707D+00 0.19507186D+05 0.19507186D+05 0.19507186D+05 0.12350207D+01  1  2  3  1  5  1       -1 -.410662927643D-01 0.100000000000D+01
0.455014395662D-04 0.000000000000D+00 0.000000000000D+00 0.218727777983D-02 0.000000000000D+00  5 -1 2 25 24 21 2 0.16828709D-02 0.30801707D+00 0.19507186D+05 0.19507186D+05 0.19507186D+05 0.12350207D+01  1  2 15  1  5  1       -1 0.510560996203D-01 0.100000000000D+01
0.387667115468D-03 0.000000000000D+00 -.249561526959D-03 0.218727777983D-02 0.000000000000D+00  5 -1 2 25 24 21 2 0.82945157D-02 0.30801707D+00 0.19507186D+05 0.19507186D+05 0.19507186D+05 0.12350207D+01  1  2  5  1  5  1       -1 0.417483269533D-01 0.100000000000D+01
0.688919163505D-04 0.000000000000D+00 -.484738529426D-04 0.218727777983D-02 0.000000000000D+00  5 21 2 25 24 1 2 0.82945157D-02 0.30801707D+00 0.19507186D+05 0.19507186D+05 0.19507186D+05 0.12350207D+01  1  2  5  3  5  1       -1 0.116554651004D+00 0.100000000000D+01
  </mgrwgt>
  </event>
  <event>
  4     66 0.45252658E-03 0.12238674E+03 0.75467711E-02 0.12041614E+00
       -1 -1    0    0    0  501 0.00000000E+00 0.00000000E+00 0.50689753E+01 0.50790659E+01 0.32000000E+00 0.0000E+00 0.9000E+01
        2 -1    0    0  501    0 0.00000000E+00 0.00000000E+00 -.29530834E+04 0.29530834E+04 0.32000000E+00 0.0000E+00 0.9000E+01
       25  1    1    2    0    0 0.44448971E+02 0.48027438E+02 -.16711123E+04 0.16770580E+04 0.12500000E+03 0.0000E+00 0.9000E+01
       24  1    1    2    0    0 -.44448971E+02 -.48027438E+02 -.12769021E+04 0.12811045E+04 0.80419002E+02 0.0000E+00 0.9000E+01
#aMCatNLO 1  0  0  1  2 0.45169731D+02 0.00000000D+00  -5  5  0 0.00000000D+00 0.00000000D+00 0.00000000D+00 0.00000000D+00 0.00000000D+00
  <mgrwgt>
 0.4437970321D+00    4    2    0
 0.122409383409226D+03 0.000000000000000D+00 0.000000000000000D+00 0.122409383409226D+03
 0.122409383409226D+03 0.000000000000000D+00 0.000000000000000D+00 -.122409383409226D+03
 0.141112573864434D+03 0.444489705897008D+02 0.480274376613211D+02 0.232653129127995D+01
 0.103706192954018D+03 -.444489705897008D+02 -.480274376613211D+02 -.232653129127995D+01
 0.000000000000000D+00 -.000000000000000D+00 -.000000000000000D+00 -.000000000000000D+00
 0.136887365398976D+03 0.000000000000000D+00 0.000000000000000D+00 0.136887365398976D+03
 0.165571057848108D+03 0.000000000000000D+00 0.000000000000000D+00 -.165571057848108D+03
 0.152199940036623D+03 0.712349942097420D+02 0.495982318156648D+02 0.232653129127995D+01
 0.967509249291709D+02 -.261427312035567D+02 -.469539175963923D+02 -.232653129127995D+01
 0.535075582812900D+02 -.450922630061853D+02 -.264431421927248D+01 -.286836924491324D+02
0.762266823229D-03 0.000000000000D+00 0.000000000000D+00 0.273838100434D-02 0.000000000000D+00  5 -1 2 25 24 21 0 0.78061989D-03 0.45432130D+00 0.14978515D+05 0.14978515D+05 0.14978515D+05 0.12478935D+01  1  2  2  1  5  1       -1 0.519390517506D+00 0.100000000000D+01
-.423481550844D-04 0.000000000000D+00 -.292730531066D-05 0.273838100434D-02 0.000000000000D+00  5 -1 2 25 24 21 2 0.78061989D-03 0.45432130D+00 0.14978515D+05 0.14978515D+05 0.14978515D+05 0.12478935D+01  1  2  3  1  5  1       -1 -.449341511882D-01 0.100000000000D+01
0.525191034061D-04 0.000000000000D+00 0.000000000000D+00 0.273838100434D-02 0.000000000000D+00  5 -1 2 25 24 21 2 0.78061989D-03 0.45432130D+00 0.14978515D+05 0.14978515D+05 0.14978515D+05 0.12478935D+01  1  2 15  1  5  1       -1 0.557261899136D-01 0.100000000000D+01
-.814139685390D-04 0.000000000000D+00 0.000000000000D+00 0.273838100434D-02 0.000000000000D+00  5 -1 2 25 24 21 2 0.78061989D-03 0.45432130D+00 0.14978515D+05 0.14978515D+05 0.14978515D+05 0.12478935D+01  1  2  4  1  5  1       -1 -.863855240890D-01 0.100000000000D+01
  </mgrwgt>
  </event>
  <event>
  5     66 0.45252658E-03 0.14406728E+03 0.75467711E-02 0.11433236E+00
       -1 -1    0    0    0  501 0.00000000E+00 0.00000000E+00 0.62346703E+02 0.62347524E+02 0.32000000E+00 0.0000E+00 0.9000E+01
        2 -1    0    0  502    0 0.00000000E+00 0.00000000E+00 -.88874340E+03 0.88874346E+03 0.32000000E+00 0.0000E+00 0.9000E+01
       25  1    1    2    0    0 -.40120111E+02 0.86461500E+02 -.11880847E+03 0.19704230E+03 0.12500000E+03 0.0000E+00 0.9000E+01
       24  1    1    2    0    0 -.65024507E+02 -.10964828E+03 -.36360877E+03 0.39361083E+03 0.80419002E+02 0.0000E+00 0.9000E+01
       21  1    1    2  502  501 0.10514462E+03 0.23186784E+02 -.34397946E+03 0.36043785E+03 0.75000000E+00 0.0000E+00 0.9000E+01
#aMCatNLO 2  0  0  2  1 0.10767088D+03 0.00000000D+00  -5  5  0 0.00000000D+00 0.00000000D+00 0.00000000D+00 0.00000000D+00 0.00000000D+00
  <mgrwgt>
 0.1274985931D+00    2    2    0
 0.161672281556125D+03 0.000000000000000D+00 0.000000000000000D+00 0.161672281556125D+03
 0.161672281556125D+03 0.000000000000000D+00 0.000000000000000D+00 -.161672281556125D+03
 0.175833311445547D+03 0.151568115610746D+02 0.986513210103515D+02 0.730105563608531D+02
 0.147511251666702D+03 -.151568115610746D+02 -.986513210103515D+02 -.730105563608531D+02
 0.000000000000000D+00 0.000000000000000D+00 0.000000000000000D+00 -.000000000000000D+00
 0.196310228277825D+03 0.000000000000000D+00 0.000000000000000D+00 0.196310228277825D+03
 0.282257868035195D+03 0.000000000000000D+00 0.000000000000000D+00 -.282257868035195D+03
 0.173322692381254D+03 -.401201112747685D+02 0.864615002499122D+02 0.730105563608531D+02
 0.167477430982697D+03 -.650245065574115D+02 -.109648283803429D+03 -.730105563608531D+02
 0.137767972949069D+03 0.105144617832180D+03 0.231867835535171D+02 -.859476397573702D+02
-.535781529879D-04 0.000000000000D+00 0.000000000000D+00 0.188779357186D-02 0.000000000000D+00  5 -1 2 25 24 21 2 0.78993935D-02 0.13988653D+00 0.43178993D+05 0.43178993D+05 0.43178993D+05 0.11986421D+01  1  2 13  2  5  2        2 -.228952134217D-01 0.100000000000D+01
0.459579692630D-03 0.000000000000D+00 0.000000000000D+00 0.188779357186D-02 0.153996153140D-05  5 -1 2 25 24 21 2 0.95918220D-02 0.13672916D+00 0.43178993D+05 0.43178993D+05 0.43178993D+05 0.11986421D+01  1  2  1  2  5  2        2 0.150393806487D+00 0.100000000000D+01
  </mgrwgt>
  </event>
  <event>
  4     66 0.45252658E-03 0.11557022E+03 0.75467711E-02 0.11646279E+00
       -1 -1    0    0    0  501 0.00000000E+00 0.00000000E+00 0.38607988E+02 0.38609314E+02 0.32000000E+00 0.0000E+00 0.9000E+01
        2 -1    0    0  501    0 0.00000000E+00 0.00000000E+00 -.34612472E+03 0.34612487E+03 0.32000000E+00 0.0000E+00 0.9000E+01
       25  1    1    2    0    0 0.11051271E+02 0.50800326E+02 -.18443400E+03 0.22878746E+03 0.12500000E+03 0.0000E+00 0.9000E+01
       24  1    1    2    0    0 -.11051271E+02 -.50800326E+02 -.12308274E+03 0.15594672E+03 0.80419002E+02 0.0000E+00 0.9000E+01
#aMCatNLO 1  0  0  2  2 0.11046203D+03 0.00000000D+00  -5  5  0 0.00000000D+00 0.00000000D+00 0.00000000D+00 0.00000000D+00 0.00000000D+00
  <mgrwgt>
 0.2309473924D+00    5    2    0
 0.115600443793915D+03 0.000000000000000D+00 0.000000000000000D+00 0.115600443793915D+03
 0.115600443793915D+03 0.000000000000000D+00 0.000000000000000D+00 -.115600443793915D+03
 0.135405264054717D+03 0.110512709895076D+02 0.508003264870629D+02 -.260418356723532D+01
 0.957956235331141D+02 -.110512709895076D+02 -.508003264870629D+02 0.260418356723532D+01
 0.000000000000000D+00 -.000000000000000D+00 0.000000000000000D+00 -.000000000000000D+00
 0.172930574655209D+03 0.000000000000000D+00 0.000000000000000D+00 0.172930574655209D+03
 0.196186733281558D+03 0.000000000000000D+00 0.000000000000000D+00 -.196186733281558D+03
 0.155002889141563D+03 0.768567720181546D+02 0.498713391150598D+02 -.260418356723532D+01
 0.101230812798848D+03 0.335942502054520D+02 -.514305948500158D+02 0.260418356723532D+01
 0.112883605996356D+03 -.110451022223607D+03 0.155925573495605D+01 -.232561586263485D+02
0.184652415815D-03 0.000000000000D+00 0.000000000000D+00 0.287240717229D-02 0.000000000000D+00  5 -1 2 25 24 21 0 0.59398038D-02 0.53250071D-01 0.13356476D+05 0.13356476D+05 0.13356476D+05 0.12536094D+01  1  2  2  2  5  2        2 0.248218670756D+00 0.100000000000D+01
-.102584666924D-04 0.000000000000D+00 -.709113896827D-06 0.287240717229D-02 0.000000000000D+00  5 -1 2 25 24 21 2 0.59398038D-02 0.53250071D-01 0.13356476D+05 0.13356476D+05 0.13356476D+05 0.12536094D+01  1  2  3  2  5  2        2 -.216713701873D-01 0.100000000000D+01
0.127667594162D-04 0.000000000000D+00 0.000000000000D+00 0.287240717229D-02 0.000000000000D+00  5 -1 2 25 24 21 2 0.59398038D-02 0.53250071D-01 0.13356476D+05 0.13356476D+05 0.13356476D+05 0.12536094D+01  1  2 15  2  5  2        2 0.269702264184D-01 0.100000000000D+01
-.295335576657D-04 0.000000000000D+00 -.671628916899D-04 0.287240717229D-02 0.000000000000D+00  5 -1 2 25 24 21 2 0.59398038D-02 0.12559403D+00 0.13356476D+05 0.13356476D+05 0.13356476D+05 0.12536094D+01  1  2  5  2  5  2        2 -.239064662701D-01 0.100000000000D+01
0.147107150530D-05 0.000000000000D+00 -.629060373021D-05 0.287240717229D-02 0.000000000000D+00  5 -1 21 25 24 -2 2 0.59398038D-02 0.12559403D+00 0.13356476D+05 0.13356476D+05 0.13356476D+05 0.12536094D+01  1  2  5  4  5  2        2 0.133633169329D-02 0.100000000000D+01
  </mgrwgt>
  </event>
  <event>
  4     66 0.45252658E-03 0.63780842E+03 0.75467711E-02 0.98229675E-01
       -1 -1    0    0    0  501 0.00000000E+00 0.00000000E+00 0.39056123E+03 0.39056136E+03 0.32000000E+00 0.0000E+00 0.9000E+01
        2 -1    0    0  501    0 0.00000000E+00 0.00000000E+00 -.10416373E+04 0.10416373E+04 0.32000000E+00 0.0000E+00 0.9000E+01
       25  1    1    2    0    0 0.28430302E+03 -.56119350E+03 -.32190634E+03 0.71764549E+03 0.12500000E+03 0.0000E+00 0.9000E+01
       24  1    1    2    0    0 -.28430302E+03 0.56119350E+03 -.32916969E+03 0.71455318E+03 0.80419002E+02 0.0000E+00 0.9000E+01
#aMCatNLO 1  0  0  1  2 0.72505952D+01 0.00000000D+00  -5  5  0 0.00000000D+00 0.00000000D+00 0.00000000D+00 0.00000000D+00 0.00000000D+00
  <mgrwgt>
 0.1961263470D+00    8    2    0
 0.637826981475283D+03 0.000000000000000D+00 0.000000000000000D+00 0.637826981475283D+03
 0.637826981475283D+03 0.000000000000000D+00 0.000000000000000D+00 -.637826981475283D+03
 0.641416428265558D+03 0.284303024779686D+03 -.561193497802980D+03 0.486647446556922D+01
 0.634237534685008D+03 -.284303024779686D+03 0.561193497802980D+03 -.486647446556922D+01
 0.000000000000000D+00 -.000000000000000D+00 -.000000000000000D+00 -.000000000000000D+00
 0.638273137033571D+03 0.000000000000000D+00 0.000000000000000D+00 0.638273137033571D+03
 0.667991457527101D+03 0.000000000000000D+00 0.000000000000000D+00 -.667991457527101D+03
 0.638415355892112D+03 0.284668074957407D+03 -.557574722494817D+03 0.486647446556922D+01
 0.637259212452966D+03 -.283940352029048D+03 0.564788705462228D+03 -.486647446556922D+01
 0.305900262155944D+02 -.727722928359100D+00 -.721398296741105D+01 -.297183204935305D+02
0.283244270870D-01 0.000000000000D+00 0.000000000000D+00 0.192070018423D-02 0.000000000000D+00  5 -1 2 25 24 21 0 0.60086357D-01 0.16025190D+00 0.40679957D+06 0.40679957D+06 0.40679957D+06 0.11114249D+01  1  2  2  1  5  1       -1 0.221292430538D+00 0.100000000000D+01
-.157357928099D-02 0.000000000000D+00 -.108773258007D-03 0.192070018423D-02 0.000000000000D+00  5 -1 2 25 24 21 2 0.60086357D-01 0.16025190D+00 0.40679957D+06 0.40679957D+06 0.40679957D+06 0.11114249D+01  1  2  3  1  5  1       -1 -.151863803950D-01 0.100000000000D+01
0.194024174099D-02 0.000000000000D+00 0.000000000000D+00 0.192070018423D-02 0.000000000000D+00  5 -1 2 25 24 21 2 0.60086357D-01 0.16025190D+00 0.40679957D+06 0.40679957D+06 0.40679957D+06 0.11114249D+01  1  2 15  1  5  1       -1 0.187249854475D-01 0.100000000000D+01
-.168212485720D-02 0.000000000000D+00 0.000000000000D+00 0.192070018423D-02 0.000000000000D+00  5 -1 2 25 24 21 2 0.60086357D-01 0.16025190D+00 0.40679957D+06 0.40679957D+06 0.40679957D+06 0.11114249D+01  1  2  4  1  5  1       -1 -.162339376617D-01 0.100000000000D+01
0.150157181189D-01 0.000000000000D+00 0.000000000000D+00 0.192070018423D-02 0.000000000000D+00  5 -1 2 25 24 21 2 0.63305729D-01 0.16025190D+00 0.40679957D+06 0.40679957D+06 0.40679957D+06 0.11114249D+01  1  2  5  1  5  1       -1 0.130702752915D+00 0.100000000000D+01
-.149952890660D-01 0.000000000000D+00 0.000000000000D+00 0.192070018423D-02 0.000000000000D+00  5 -1 2 25 24 21 2 0.60086357D-01 0.16025190D+00 0.40679957D+06 0.40679957D+06 0.40679957D+06 0.11114249D+01  1  2  6  1  5  1       -1 -.144717312080D+00 0.100000000000D+01
0.104219120026D-03 0.000000000000D+00 0.000000000000D+00 0.192070018423D-02 0.240779185454D-03  5 -1 2 25 24 21 2 0.60128387D-01 0.16783062D+00 0.41145043D+06 0.41145043D+06 0.41145043D+06 0.11110313D+01  1  2 11  1  5  1       -1 0.935534125989D-03 0.100000000000D+01
0.752794935264D-05 0.000000000000D+00 0.000000000000D+00 0.192070018423D-02 0.322980413976D-07  5 21 2 25 24 1 2 0.60128387D-01 0.16783062D+00 0.41145043D+06 0.41145043D+06 0.41145043D+06 0.11110313D+01  1  2 11  3  5  1       -1 0.608274134500D-03 0.100000000000D+01
  </mgrwgt>
  </event>
  <event>
  5     66 -.45252658E-03 0.11595798E+03 0.75467711E-02 0.12344500E+00
       -1 -1    0    0    0  501 0.00000000E+00 0.00000000E+00 0.27409137E+03 0.27409156E+03 0.32000000E+00 0.0000E+00 0.9000E+01
        2 -1    0    0  502    0 0.00000000E+00 0.00000000E+00 -.67142554E+02 0.67143316E+02 0.32000000E+00 0.0000E+00 0.9000E+01
       25  1    1    2    0    0 0.19743536E+01 0.46968354E+02 0.17165318E+03 0.21748503E+03 0.12500000E+03 0.0000E+00 0.9000E+01
       24  1    1    2    0    0 -.18023161E+02 -.55217534E+02 0.22800599E+02 0.10178847E+03 0.80419002E+02 0.0000E+00 0.9000E+01
       21  1    1    2  502  501 0.16048807E+02 0.82491791E+01 0.12495033E+02 0.21961364E+02 0.75000000E+00 0.0000E+00 0.9000E+01
#aMCatNLO 2  0  0  2  1 0.18044755D+02 0.00000000D+00  -5  5  0 0.00000000D+00 0.00000000D+00 0.00000000D+00 0.00000000D+00 0.00000000D+00
  <mgrwgt>
 -.1109512155D+00    2    2    0
 0.126291019663221D+03 0.000000000000000D+00 0.000000000000000D+00 0.126291019663221D+03
 0.126291019663221D+03 0.000000000000000D+00 0.000000000000000D+00 -.126291019663221D+03
 0.144419355450775D+03 0.110747678416328D+02 0.516460196670836D+02 0.494164790188287D+02
 0.108162683875668D+03 -.110747678416328D+02 -.516460196670836D+02 -.494164790188287D+02
 0.000000000000000D+00 0.000000000000000D+00 0.000000000000000D+00 -.000000000000000D+00
 0.135097250176432D+03 0.000000000000000D+00 0.000000000000000D+00 0.135097250176432D+03
 0.136207410147075D+03 0.000000000000000D+00 0.000000000000000D+00 -.136207410147075D+03
 0.142397025200628D+03 0.197435357911664D+01 0.469683544028818D+02 0.494164790188287D+02
 0.110828762894123D+03 -.180231606810747D+02 -.552175335443101D+02 -.494164790188287D+02
 0.180788722287551D+02 0.160488071019581D+02 0.824917914142831D+01 -.111015997064305D+01
-.722664236056D-03 0.000000000000D+00 0.000000000000D+00 0.231560928476D-02 0.000000000000D+00  5 -1 2 25 24 21 2 0.39417023D-01 0.10638848D-01 0.15724428D+05 0.15724428D+05 0.15724428D+05 0.12454941D+01  1  2 13  2  5  2        2 -.458523139244D+00 0.100000000000D+01
0.594808452454D-03 0.000000000000D+00 0.000000000000D+00 0.231560928476D-02 0.591710703182D-04  5 -1 2 25 24 21 2 0.42165559D-01 0.10329105D-01 0.15724428D+05 0.15724428D+05 0.15724428D+05 0.12454941D+01  1  2  1  2  5  2        2 0.347571923730D+00 0.100000000000D+01
  </mgrwgt>
  </event>
  <event>
  4     66 0.45252658E-03 0.12244076E+03 0.75467711E-02 0.10973411E+00
       -1 -1    0    0    0  501 0.00000000E+00 0.00000000E+00 0.33950103E+02 0.33951611E+02 0.32000000E+00 0.0000E+00 0.9000E+01
        2 -1    0    0  501    0 0.00000000E+00 0.00000000E+00 -.60054506E+03 0.60054515E+03 0.32000000E+00 0.0000E+00 0.9000E+01
       25  1    1    2    0    0 0.34300683E+02 0.55845552E+02 -.47692915E+03 0.49737479E+03 0.12500000E+03 0.0000E+00 0.9000E+01
       24  1    1    2    0    0 -.34300683E+02 -.55845552E+02 -.89665810E+02 0.13712198E+03 0.80419002E+02 0.0000E+00 0.9000E+01
#aMCatNLO 1  0  0  1  1 0.22723511D+03 0.00000000D+00  -5  5  0 0.00000000D+00 0.00000000D+00 0.00000000D+00 0.00000000D+00 0.00000000D+00
  <mgrwgt>
 0.3123707436D+00    5    2    0
 0.142790308773692D+03 0.000000000000000D+00 0.000000000000000D+00 0.142790308773692D+03
 0.142790308773692D+03 0.000000000000000D+00 0.000000000000000D+00 -.142790308773692D+03
 0.158823932001133D+03 0.343006827971621D+02 0.558455519067848D+02 -.728339128989766D+02
 0.126756685546251D+03 -.343006827971621D+02 -.558455519067848D+02 0.728339128989766D+02
 0.000000000000000D+00 -.000000000000000D+00 -.000000000000000D+00 0.000000000000000D+00
 0.808896359029151D+03 0.000000000000000D+00 0.000000000000000D+00 0.808896359029151D+03
 0.203084988771958D+03 0.000000000000000D+00 0.000000000000000D+00 -.203084988771958D+03
 0.254977654766461D+03 0.118712732360689D+03 0.173179423539542D+03 -.728339128989766D+02
 0.109977254080520D+03 0.139910533492420D+02 0.112806036506731D+02 0.728339128989766D+02
 0.647026438954129D+03 -.132703785709931D+03 -.184460027190215D+03 0.605811370257194D+03
0.390501096882D-03 0.000000000000D+00 0.000000000000D+00 0.189077779699D-02 0.000000000000D+00  5 -1 2 25 24 21 0 0.52232153D-02 0.92391671D-01 0.14991740D+05 0.14991740D+05 0.14991740D+05 0.12478498D+01  1  2  2  1  5  1       -1 0.350999783584D+00 0.100000000000D+01
-.210709707503D-04 0.000000000000D+00 -.149962703333D-05 0.189077779699D-02 0.000000000000D+00  5 -1 2 25 24 21 2 0.52232153D-02 0.92391671D-01 0.14991740D+05 0.14991740D+05 0.14991740D+05 0.12478498D+01  1  2  3  1  5  1       -1 -.294912896805D-01 0.100000000000D+01
0.268800572085D-04 0.000000000000D+00 0.000000000000D+00 0.189077779699D-02 0.000000000000D+00  5 -1 2 25 24 21 2 0.52232153D-02 0.92391671D-01 0.14991740D+05 0.14991740D+05 0.14991740D+05 0.12478498D+01  1  2 15  1  5  1       -1 0.376217860657D-01 0.100000000000D+01
-.162645884872D-03 0.000000000000D+00 -.208045626451D-03 0.189077779699D-02 0.000000000000D+00  5 -1 2 25 24 21 2 0.40900083D-01 0.92391671D-01 0.14991740D+05 0.14991740D+05 0.14991740D+05 0.12478498D+01  1  2  5  1  5  1       -1 -.885306651377D-02 0.100000000000D+01
-.647311658727D-04 0.000000000000D+00 -.520429567144D-04 0.189077779699D-02 0.000000000000D+00  5 21 2 25 24 1 2 0.40900083D-01 0.92391671D-01 0.14991740D+05 0.14991740D+05 0.14991740D+05 0.12478498D+01  1  2  5  3  5  1       -1 -.379064698862D-01 0.100000000000D+01
  </mgrwgt>
  </event>
  <event>
  5     66 0.45252658E-03 0.29936112E+03 0.75467711E-02 0.10536437E+00
       21 -1    0    0  502  501 0.00000000E+00 0.00000000E+00 0.82243480E+02 0.82246900E+02 0.75000000E+00 0.0000E+00 0.9000E+01
        2 -1    0    0  501    0 0.00000000E+00 0.00000000E+00 -.17254449E+04 0.17254449E+04 0.32000000E+00 0.0000E+00 0.9000E+01
       25  1    1    2    0    0 -.33990353E+03 0.34074235E+02 -.67802379E+03 0.76943923E+03 0.12500000E+03 0.0000E+00 0.9000E+01
       24  1    1    2    0    0 0.21882560E+03 -.88027765E+02 -.66265237E+03 0.70796110E+03 0.80419002E+02 0.0000E+00 0.9000E+01
        1  1    1    2  502    0 0.12107792E+03 0.53953530E+02 -.30252525E+03 0.33029150E+03 0.32000000E+00 0.0000E+00 0.9000E+01
#aMCatNLO 2  0  0  1  1 0.13255507D+03 0.00000000D+00  -5  5  0 0.00000000D+00 0.00000000D+00 0.00000000D+00 0.00000000D+00 0.00000000D+00
  <mgrwgt>
 0.8635401391D-01    1    2    0
 0.303203022015291D+03 0.000000000000000D+00 0.000000000000000D+00 0.303203022015291D+03
 0.303203022015291D+03 0.000000000000000D+00 0.000000000000000D+00 -.303203022015291D+03
 0.310753890064660D+03 -.273038640417441D+03 0.638698951019882D+02 0.480990387531305D+02
 0.295652153965922D+03 0.273038640417441D+03 -.638698951019882D+02 -.480990387531305D+02
 0.000000000000000D+00 0.000000000000000D+00 0.000000000000000D+00 -.000000000000000D+00
 0.373391239590392D+03 0.000000000000000D+00 0.000000000000000D+00 0.373391239590392D+03
 0.380055958834891D+03 0.000000000000000D+00 0.000000000000000D+00 -.380055958834891D+03
 0.366925030254465D+03 -.339903525704937D+03 0.340742353049709D+02 0.480990387531305D+02
 0.253799656574321D+03 0.218825603562938D+03 -.880277650472462D+02 -.480990387531305D+02
 0.132722511596498D+03 0.121077922141998D+03 0.539535297422754D+02 -.666471924449919D+01
0.968400975102D-04 0.000000000000D+00 0.000000000000D+00 0.195735639461D-02 0.268711331074D-07  5 21 2 25 24 1 2 0.12653102D-01 0.26545319D+00 0.13894781D+06 0.13894781D+06 0.13894781D+06 0.11506727D+01  1  2  1  3  5  1       -1 0.863540139137D-01 0.100000000000D+01
  </mgrwgt>
  </event>
  <event>
  4     66 0.45252658E-03 0.60950732E+02 0.75467711E-02 0.11875342E+00
       -1 -1    0    0    0  501 0.00000000E+00 0.00000000E+00 0.30154685E+02 0.30156383E+02 0.32000000E+00 0.0000E+00 0.9000E+01
        2 -1    0    0  501    0 0.00000000E+00 0.00000000E+00 -.10185829E+04 0.10185829E+04 0.32000000E+00 0.0000E+00 0.9000E+01
       25  1    1    2    0    0 -.11091945E+03 -.26878168E+01 -.27141938E+03 0.31875356E+03 0.12500000E+03 0.0000E+00 0.9000E+01
       24  1    1    2    0    0 0.11091945E+03 0.26878168E+01 -.71700880E+03 0.72998574E+03 0.80419002E+02 0.0000E+00 0.9000E+01
#aMCatNLO 1  0  0  2  1 0.17769311D+02 0.00000000D+00  -5  5  0 0.00000000D+00 0.00000000D+00 0.00000000D+00 0.00000000D+00 0.00000000D+00
  <mgrwgt>
 0.2043099865D+00    9    2    0
 0.175259699767598D+03 0.000000000000000D+00 0.000000000000000D+00 0.175259699767598D+03
 0.175259699767598D+03 0.000000000000000D+00 0.000000000000000D+00 -.175259699767598D+03
 0.188322862687786D+03 -.110919453245019D+03 -.268781677950855D+01 0.867764434838657D+02
 0.162196536847410D+03 0.110919453245019D+03 0.268781677950855D+01 -.867764434838657D+02
 0.000000000000000D+00 0.000000000000000D+00 -.000000000000000D+00 -.000000000000000D+00
 0.176030882479286D+03 0.000000000000000D+00 0.000000000000000D+00 0.176030882479286D+03
 0.320024637072047D+03 0.000000000000000D+00 0.000000000000000D+00 -.320024637072047D+03
 0.194170144444707D+03 -.120591825805218D+03 -.212259250294803D+01 0.867764434838657D+02
 0.156799366872368D+03 0.102852777074686D+03 0.315920900248670D+01 -.867764434838657D+02
 0.145086008234259D+03 0.177390487305327D+02 -.103661649953867D+01 -.143993754592761D+03
0.354096604642D-03 0.000000000000D+00 0.000000000000D+00 0.173690098739D-02 0.000000000000D+00  5 -1 2 25 24 21 0 0.46393168D-02 0.15670519D+00 0.23129843D+05 0.23129843D+05 0.23129843D+05 0.12269346D+01  1  2  2  2  5  2        2 0.198779251445D+00 0.100000000000D+01
-.191909026816D-04 0.000000000000D+00 -.135982419760D-05 0.173690098739D-02 0.000000000000D+00  5 -1 2 25 24 21 2 0.46393168D-02 0.15670519D+00 0.23129843D+05 0.23129843D+05 0.23129843D+05 0.12269346D+01  1  2  3  2  5  2        2 -.162176339634D-01 0.100000000000D+01
0.243134705256D-04 0.000000000000D+00 0.000000000000D+00 0.173690098739D-02 0.000000000000D+00  5 -1 2 25 24 21 2 0.46393168D-02 0.15670519D+00 0.23129843D+05 0.23129843D+05 0.23129843D+05 0.12269346D+01  1  2 15  2  5  2        2 0.205465564547D-01 0.100000000000D+01
0.913531875566D-02 0.000000000000D+00 0.000000000000D+00 0.173690098739D-02 0.000000000000D+00  5 -1 2 25 24 21 2 0.46393168D-02 0.28622222D+00 0.25931965D+05 0.25931965D+05 0.25931965D+05 0.12215971D+01  1  2 12  2  5  2        2 0.270463858667D+01 0.100000000000D+01
-.773311457345D-02 0.000000000000D+00 0.000000000000D+00 0.173690098739D-02 0.000000000000D+00  5 -1 2 25 24 21 2 0.46393168D-02 0.15670519D+00 0.23129843D+05 0.23129843D+05 0.23129843D+05 0.12269346D+01  1  2  4  2  5  2        2 -.653501420074D+01 0.100000000000D+01
-.910678187749D-02 0.000000000000D+00 -.124519312504D-03 0.173690098739D-02 0.000000000000D+00  5 -1 2 25 24 21 2 0.46393168D-02 0.28646779D+00 0.23129843D+05 0.23129843D+05 0.23129843D+05 0.12269346D+01  1  2  5  2  5  2        2 -.271626113445D+01 0.100000000000D+01
0.774837986764D-02 0.000000000000D+00 0.104854227594D-03 0.173690098739D-02 0.000000000000D+00  5 -1 2 25 24 21 2 0.46393168D-02 0.15670519D+00 0.23129843D+05 0.23129843D+05 0.23129843D+05 0.12269346D+01  1  2  6  2  5  2        2 0.654791442527D+01 0.100000000000D+01
0.601713223294D-03 0.000000000000D+00 0.000000000000D+00 0.173690098739D-02 0.000000000000D+00  5 -1 21 25 24 -2 2 0.46393168D-02 0.28622222D+00 0.25931965D+05 0.25931965D+05 0.25931965D+05 0.12215971D+01  1  2 12  4  5  2        2 0.658052913443D-01 0.100000000000D+01
-.593816425036D-03 0.000000000000D+00 -.821198351566D-05 0.173690098739D-02 0.000000000000D+00  5 -1 21 25 24 -2 2 0.46393168D-02 0.28646779D+00 0.23129843D+05 0.23129843D+05 0.23129843D+05 0.12269346D+01  1  2  5  4  5  2        2 -.658811555727D-01 0.100000000000D+01
  </mgrwgt>
  </event>
  <event>
  4     66 0.45252658E-03 0.10634663E+03 0.75467711E-02 0.11999733E+00
       -3 -1    0    0    0  501 0.00000000E+00 0.00000000E+00 0.12921075E+03 0.12921171E+03 0.50000000E+00 0.0000E+00 0.9000E+01
        4 -1    0    0  501    0 0.00000000E+00 0.00000000E+00 -.91315855E+02 0.91329009E+02 0.15500000E+01 0.0000E+00 0.9000E+01
       25  1    1    2    0    0 0.22161287E+02 -.15356989E+02 0.57788397E+00 0.12787609E+03 0.12500000E+03 0.0000E+00 0.9000E+01
       24  1    1    2    0    0 -.22161287E+02 0.15356989E+02 0.37317007E+02 0.92664636E+02 0.80419002E+02 0.0000E+00 0.9000E+01
#aMCatNLO 1  0  0  1  1 0.75354542D+02 0.00000000D+00  -5  5  0 0.00000000D+00 0.00000000D+00 0.00000000D+00 0.00000000D+00 0.00000000D+00
  <mgrwgt>
 0.7712887812D-01    6    2    0
 0.108630322444236D+03 0.000000000000000D+00 0.000000000000000D+00 0.108630322444236D+03
 0.108630322444236D+03 0.000000000000000D+00 0.000000000000000D+00 -.108630322444236D+03
 0.129705892873318D+03 0.221612870550058D+02 -.153569890017258D+02 -.217177091547671D+02
 0.875547520151538D+02 -.221612870550058D+02 0.153569890017258D+02 0.217177091547671D+02
 0.000000000000000D+00 -.000000000000000D+00 0.000000000000000D+00 0.000000000000000D+00
 0.165027564431750D+03 0.000000000000000D+00 0.000000000000000D+00 0.165027564431750D+03
 0.143342666876975D+03 0.000000000000000D+00 0.000000000000000D+00 -.143342666876975D+03
 0.146637306729471D+03 0.602234668687688D+02 -.421778955407727D+02 -.217177091547671D+02
 0.833202867627531D+02 0.137421684375845D+01 -.122754592262127D+01 0.217177091547671D+02
 0.784126378165009D+02 -.615976837125272D+02 0.434054414633940D+02 0.216848975547750D+02
0.281408540384D-03 0.000000000000D+00 0.000000000000D+00 0.294833054180D-02 0.000000000000D+00  5 -3 4 25 24 21 0 0.19879663D-01 0.14049679D-01 0.11309607D+05 0.11309607D+05 0.11309607D+05 0.12620513D+01  1  2  2  1  5  1       -3 0.498496154986D-01 0.100000000000D+01
-.156252269799D-04 0.000000000000D+00 -.108068289164D-05 0.294833054180D-02 0.000000000000D+00  5 -3 4 25 24 21 2 0.19879663D-01 0.14049679D-01 0.11309607D+05 0.11309607D+05 0.11309607D+05 0.12620513D+01  1  2  3  1  5  1       -3 -.440864259881D-02 0.100000000000D+01
0.194415953290D-04 0.000000000000D+00 0.000000000000D+00 0.294833054180D-02 0.000000000000D+00  5 -3 4 25 24 21 2 0.19879663D-01 0.14049679D-01 0.11309607D+05 0.11309607D+05 0.11309607D+05 0.12620513D+01  1  2 15  1  5  1       -3 0.548542721758D-02 0.100000000000D+01
-.883155996602D-04 0.000000000000D+00 -.815356204380D-04 0.294833054180D-02 0.000000000000D+00  5 -3 4 25 24 21 2 0.39093534D-01 0.14049679D-01 0.11309607D+05 0.11309607D+05 0.11309607D+05 0.12620513D+01  1  2  5  1  5  1       -3 -.725750891944D-02 0.100000000000D+01
0.128567435611D-03 0.000000000000D+00 0.658867238912D-04 0.294833054180D-02 0.000000000000D+00  5 -3 4 25 24 21 2 0.19879663D-01 0.14049679D-01 0.11309607D+05 0.11309607D+05 0.11309607D+05 0.12620513D+01  1  2  6  1  5  1       -3 0.362751769421D-01 0.100000000000D+01
-.164617398971D-05 0.000000000000D+00 -.597174145015D-05 0.294833054180D-02 0.000000000000D+00  5 21 4 25 24 3 2 0.39093534D-01 0.14049679D-01 0.11309607D+05 0.11309607D+05 0.11309607D+05 0.12620513D+01  1  2  5  3  5  1       -3 -.281519001907D-02 0.100000000000D+01
  </mgrwgt>
  </event>
  <event>
  4     66 0.45252658E-03 0.15008166E+03 0.75467711E-02 0.11734423E+00
       -1 -1    0    0    0  501 0.00000000E+00 0.00000000E+00 0.42133965E+02 0.42135180E+02 0.32000000E+00 0.0000E+00 0.9000E+01
        2 -1    0    0  501    0 0.00000000E+00 0.00000000E+00 -.56114634E+03 0.56114643E+03 0.32000000E+00 0.0000E+00 0.9000E+01
       25  1    1    2    0    0 -.10129642E+03 0.38080652E+02 -.34993854E+03 0.38703111E+03 0.12500000E+03 0.0000E+00 0.9000E+01
       24  1    1    2    0    0 0.10129642E+03 -.38080652E+02 -.16907384E+03 0.21625050E+03 0.80419002E+02 0.0000E+00 0.9000E+01
#aMCatNLO 1  0  0  2  1 0.45076756D+02 0.00000000D+00  -5  5  0 0.00000000D+00 0.00000000D+00 0.00000000D+00 0.00000000D+00 0.00000000D+00
  <mgrwgt>
 0.1547989161D+00    4    2    0
 0.153765127254463D+03 0.000000000000000D+00 0.000000000000000D+00 0.153765127254463D+03
 0.153765127254463D+03 0.000000000000000D+00 0.000000000000000D+00 -.153765127254463D+03
 0.168654368087455D+03 -.101296419038853D+03 0.380806520225061D+02 -.332895675313558D+02
 0.138875886421471D+03 0.101296419038853D+03 -.380806520225061D+02 0.332895675313558D+02
 0.000000000000000D+00 0.000000000000000D+00 0.000000000000000D+00 0.000000000000000D+00
 0.186169829481303D+03 0.000000000000000D+00 0.000000000000000D+00 0.186169829481303D+03
 0.171921502227425D+03 0.000000000000000D+00 0.000000000000000D+00 -.171921502227425D+03
 0.172165877654560D+03 -.112494546735649D+03 0.159019205406465D+02 -.332895675313558D+02
 0.138650420790198D+03 0.921779025592626D+02 -.561405575700741D+02 0.332895675313558D+02
 0.472750332639707D+02 0.203166441763869D+02 0.402386370294276D+02 0.142483272538779D+02
0.521855717655D-03 0.000000000000D+00 0.000000000000D+00 0.227796092645D-02 0.000000000000D+00  5 -1 2 25 24 21 0 0.64822490D-02 0.86330307D-01 0.22524504D+05 0.22524504D+05 0.22524504D+05 0.12281827D+01  1  2  2  2  5  2        2 0.371741634901D+00 0.100000000000D+01
-.289712606211D-04 0.000000000000D+00 -.200406336356D-05 0.227796092645D-02 0.000000000000D+00  5 -1 2 25 24 21 2 0.64822490D-02 0.86330307D-01 0.22524504D+05 0.22524504D+05 0.22524504D+05 0.12281827D+01  1  2  3  2  5  2        2 -.311303582583D-01 0.100000000000D+01
0.359913552894D-04 0.000000000000D+00 0.000000000000D+00 0.227796092645D-02 0.000000000000D+00  5 -1 2 25 24 21 2 0.64822490D-02 0.86330307D-01 0.22524504D+05 0.22524504D+05 0.22524504D+05 0.12281827D+01  1  2 15  2  5  2        2 0.386736289806D-01 0.100000000000D+01
-.208916391375D-03 0.000000000000D+00 0.000000000000D+00 0.227796092645D-02 0.000000000000D+00  5 -1 2 25 24 21 2 0.64822490D-02 0.86330307D-01 0.22524504D+05 0.22524504D+05 0.22524504D+05 0.12281827D+01  1  2  4  2  5  2        2 -.224485989568D+00 0.100000000000D+01
  </mgrwgt>
  </event>
  <event>
  4     66 0.45252658E-03 0.46360634E+02 0.75467711E-02 0.11677287E+00
       -1 -1    0    0    0  501 0.00000000E+00 0.00000000E+00 0.90594698E+02 0.90595263E+02 0.32000000E+00 0.0000E+00 0.9000E+01
        2 -1    0    0  501    0 0.00000000E+00 0.00000000E+00 -.33420878E+03 0.33420893E+03 0.32000000E+00 0.0000E+00 0.9000E+01
       25  1    1    2    0    0 -.27081202E+02 0.67147518E+02 -.27628472E+03 0.31176983E+03 0.12500000E+03 0.0000E+00 0.9000E+01
       24  1    1    2    0    0 0.27081202E+02 -.67147518E+02 0.32670641E+02 0.11303436E+03 0.80419002E+02 0.0000E+00 0.9000E+01
#aMCatNLO 1  0  0  1  2 0.95787588D+02 0.00000000D+00  -5  5  0 0.00000000D+00 0.00000000D+00 0.00000000D+00 0.00000000D+00 0.00000000D+00
  <mgrwgt>
 0.2641870715D+00    9    2    0
 0.174004874155518D+03 0.000000000000000D+00 0.000000000000000D+00 0.174004874155518D+03
 0.174004874155518D+03 0.000000000000000D+00 0.000000000000000D+00 -.174004874155518D+03
 0.187162241283988D+03 -.270812022630599D+02 0.671475175991913D+02 -.119006402881102D+03
 0.160847507027048D+03 0.270812022630599D+02 -.671475175991913D+02 0.119006402881102D+03
 0.000000000000000D+00 0.000000000000000D+00 -.000000000000000D+00 0.000000000000000D+00
 0.260869658663824D+03 0.000000000000000D+00 0.000000000000000D+00 0.260869658663824D+03
 0.209008012800362D+03 0.000000000000000D+00 0.000000000000000D+00 -.209008012800362D+03
 0.213397562610877D+03 -.339135747917525D+02 0.120834040098013D+03 -.119006402881102D+03
 0.147554022608578D+03 0.218207789295138D+02 -.258128517179392D+02 0.119006402881102D+03
 0.108926086244730D+03 0.120927958622388D+02 -.950211883800740D+02 0.518616458634623D+02
0.793769799304D-03 0.000000000000D+00 0.000000000000D+00 0.127073945850D-02 0.000000000000D+00  5 -1 2 25 24 21 0 0.13937701D-01 0.51416791D-01 0.15959867D+05 0.15959867D+05 0.15959867D+05 0.12447632D+01  1  2  2  1  5  1       -1 0.305795046527D+00 0.100000000000D+01
-.386021946335D-04 0.000000000000D+00 -.304828503371D-05 0.127073945850D-02 0.000000000000D+00  5 -1 2 25 24 21 2 0.13937701D-01 0.51416791D-01 0.15959867D+05 0.15959867D+05 0.15959867D+05 0.12447632D+01  1  2  3  1  5  1       -1 -.230420632774D-01 0.100000000000D+01
0.538542582020D-04 0.000000000000D+00 0.000000000000D+00 0.127073945850D-02 0.000000000000D+00  5 -1 2 25 24 21 2 0.13937701D-01 0.51416791D-01 0.15959867D+05 0.15959867D+05 0.15959867D+05 0.12447632D+01  1  2 15  1  5  1       -1 0.321461833201D-01 0.100000000000D+01
0.477588334191D-04 0.000000000000D+00 0.000000000000D+00 0.127073945850D-02 0.000000000000D+00  5 -1 2 25 24 21 2 0.21734310D-01 0.51416791D-01 0.32427670D+05 0.32427670D+05 0.32427670D+05 0.12113675D+01  1  2 12  1  5  1       -1 0.134896004990D-01 0.100000000000D+01
-.379944412115D-03 0.000000000000D+00 0.000000000000D+00 0.127073945850D-02 0.000000000000D+00  5 -1 2 25 24 21 2 0.13937701D-01 0.51416791D-01 0.15959867D+05 0.15959867D+05 0.15959867D+05 0.12447632D+01  1  2  4  1  5  1       -1 -.226792887528D+00 0.100000000000D+01
-.298533654410D-03 0.000000000000D+00 -.245280315709D-03 0.127073945850D-02 0.000000000000D+00  5 -1 2 25 24 21 2 0.24844662D-01 0.51416791D-01 0.15959867D+05 0.15959867D+05 0.15959867D+05 0.12447632D+01  1  2  5  1  5  1       -1 -.709283755978D-01 0.100000000000D+01
0.406455170671D-03 0.000000000000D+00 0.209324205106D-03 0.127073945850D-02 0.000000000000D+00  5 -1 2 25 24 21 2 0.13937701D-01 0.51416791D-01 0.15959867D+05 0.15959867D+05 0.15959867D+05 0.12447632D+01  1  2  6  1  5  1       -1 0.242617443152D+00 0.100000000000D+01
0.245795112853D-05 0.000000000000D+00 0.000000000000D+00 0.127073945850D-02 0.000000000000D+00  5 21 2 25 24 1 2 0.21734310D-01 0.51416791D-01 0.32427670D+05 0.32427670D+05 0.32427670D+05 0.12113675D+01  1  2 12  3  5  1       -1 0.861506593295D-02 0.100000000000D+01
-.612553070038D-05 0.000000000000D+00 -.155854172693D-04 0.127073945850D-02 0.000000000000D+00  5 21 2 25 24 1 2 0.24844662D-01 0.51416791D-01 0.15959867D+05 0.15959867D+05 0.15959867D+05 0.12447632D+01  1  2  5  3  5  1       -1 -.177129415201D-01 0.100000000000D+01
  </mgrwgt>
  </event>
  <event>
  4     66 0.45252658E-03 0.11249785E+03 0.75467711E-02 0.11106055E+00
       -1 -1    0    0    0  501 0.00000000E+00 0.00000000E+00 0.25300095E+03 0.25300115E+03 0.32000000E+00 0.0000E+00 0.9000E+01
        2 -1    0    0  501    0 0.00000000E+00 0.00000000E+00 -.50350990E+02 0.50352007E+02 0.32000000E+00 0.0000E+00 0.9000E+01
       25  1    1    2    0    0 -.36891720E+02 -.25745361E+02 0.10747330E+03 0.17087812E+03 0.12500000E+03 0.0000E+00 0.9000E+01
       24  1    1    2    0    0 0.36891720E+02 0.25745361E+02 0.95176661E+02 0.13247504E+03 0.80419002E+02 0.0000E+00 0.9000E+01
#aMCatNLO 1  0  0  2  2 0.20454494D+03 0.00000000D+00  -5  5  0 0.00000000D+00 0.00000000D+00 0.00000000D+00 0.00000000D+00 0.00000000D+00
  <mgrwgt>
 0.2861536682D+00    5    2    0
 0.112867325520168D+03 0.000000000000000D+00 0.000000000000000D+00 0.112867325520168D+03
 0.112867325520168D+03 0.000000000000000D+00 0.000000000000000D+00 -.112867325520168D+03
 0.133151725818094D+03 -.368917197402490D+02 -.257453610819616D+02 -.897549361891194D+01
 0.925829252222424D+02 0.368917197402490D+02 0.257453610819616D+02 0.897549361891194D+01
 0.000000000000000D+00 -.000000000000000D+00 0.000000000000000D+00 -.000000000000000D+00
 0.188657606075596D+03 0.000000000000000D+00 0.000000000000000D+00 0.188657606075596D+03
 0.440087836630989D+03 0.000000000000000D+00 0.000000000000000D+00 -.440087836630989D+03
 0.156106153085232D+03 0.681041329679850D+02 -.634460291747693D+02 -.897549361891194D+01
 0.148516176993608D+03 0.124406728563236D+03 -.567849248626428D+01 0.897549361891194D+01
 0.324123112627745D+03 -.192510861531221D+03 0.691245216610335D+02 -.251430230555394D+03
0.411429884362D-03 0.000000000000D+00 0.000000000000D+00 0.292165414613D-02 0.000000000000D+00  5 -1 2 25 24 21 0 0.38923317D-01 0.77464000D-02 0.12655767D+05 0.12655767D+05 0.12655767D+05 0.12563250D+01  1  2  2  2  5  2        2 0.252652025093D+00 0.100000000000D+01
-.228569170121D-04 0.000000000000D+00 -.157999908793D-05 0.292165414613D-02 0.000000000000D+00  5 -1 2 25 24 21 2 0.38923317D-01 0.77464000D-02 0.12655767D+05 0.12655767D+05 0.12655767D+05 0.12563250D+01  1  2  3  2  5  2        2 -.221538175108D-01 0.100000000000D+01
0.284303561516D-04 0.000000000000D+00 0.000000000000D+00 0.292165414613D-02 0.000000000000D+00  5 -1 2 25 24 21 2 0.38923317D-01 0.77464000D-02 0.12655767D+05 0.12655767D+05 0.12655767D+05 0.12563250D+01  1  2 15  2  5  2        2 0.275558126067D-01 0.100000000000D+01
0.168415685920D-03 0.000000000000D+00 -.248209031821D-03 0.292165414613D-02 0.000000000000D+00  5 -1 2 25 24 21 2 0.38923317D-01 0.48531289D-01 0.12655767D+05 0.12655767D+05 0.12655767D+05 0.12563250D+01  1  2  5  2  5  2        2 0.203037447914D-01 0.100000000000D+01
0.198958984517D-04 0.000000000000D+00 -.558143820930D-04 0.292165414613D-02 0.000000000000D+00  5 -1 21 25 24 -2 2 0.38923317D-01 0.48531289D-01 0.12655767D+05 0.12655767D+05 0.12655767D+05 0.12563250D+01  1  2  5  4  5  2        2 0.779590323804D-02 0.100000000000D+01
  </mgrwgt>
  </event>
  <event>
  4     66 0.45252658E-03 0.58915596E+02 0.75467711E-02 0.12117931E+00
       -1 -1    0    0    0  501 0.00000000E+00 0.00000000E+00 0.17181396E+02 0.17184376E+02 0.32000000E+00 0.0000E+00 0.9000E+01
        2 -1    0    0  501    0 0.00000000E+00 0.00000000E+00 -.92400265E+03 0.92400271E+03 0.32000000E+00 0.0000E+00 0.9000E+01
       25  1    1    2    0    0 0.68825735E+02 0.13483915E+02 -.46065518E+03 0.48243859E+03 0.12500000E+03 0.0000E+00 0.9000E+01
       24  1    1    2    0    0 -.68825735E+02 -.13483915E+02 -.44616608E+03 0.45874850E+03 0.80419002E+02 0.0000E+00 0.9000E+01
#aMCatNLO 1  0  0  1  2 0.30403517D+02 0.00000000D+00  -5  5  0 0.00000000D+00 0.00000000D+00 0.00000000D+00 0.00000000D+00 0.00000000D+00
  <mgrwgt>
 0.3880986325D+00    9    2    0
 0.126004302277948D+03 0.000000000000000D+00 0.000000000000000D+00 0.126004302277948D+03
 0.126004302277948D+03 0.000000000000000D+00 0.000000000000000D+00 -.126004302277948D+03
 0.144173888316028D+03 0.688257352241386D+02 0.134839149587301D+02 0.155663830225565D+02
 0.107834716239869D+03 -.688257352241386D+02 -.134839149587301D+02 -.155663830225565D+02
 0.000000000000000D+00 0.000000000000000D+00 -.000000000000000D+00 0.000000000000000D+00
 0.153495906388991D+03 0.000000000000000D+00 0.000000000000000D+00 0.153495906388991D+03
 0.135612940324611D+03 0.000000000000000D+00 0.000000000000000D+00 -.135612940324611D+03
 0.141993498837563D+03 0.593335871440560D+02 0.278274481105777D+02 0.155663830225565D+02
 0.111842492712733D+03 -.761124097048968D+02 -.247306092445885D+01 -.155663830225565D+02
 0.352728551633064D+02 0.167788225608408D+02 -.253543871861188D+02 0.178829660643804D+02
0.234155972317D-03 0.000000000000D+00 0.000000000000D+00 0.264380153121D-02 0.000000000000D+00  5 -1 2 25 24 21 0 0.26435252D-02 0.14215449D+00 0.15629543D+05 0.15629543D+05 0.15629543D+05 0.12457922D+01  1  2  2  1  5  1       -1 0.338187004055D+00 0.100000000000D+01
-.130076887409D-04 0.000000000000D+00 -.899220588380D-06 0.264380153121D-02 0.000000000000D+00  5 -1 2 25 24 21 2 0.26435252D-02 0.14215449D+00 0.15629543D+05 0.15629543D+05 0.15629543D+05 0.12457922D+01  1  2  3  1  5  1       -1 -.291570111330D-01 0.100000000000D+01
0.161808139114D-04 0.000000000000D+00 0.000000000000D+00 0.264380153121D-02 0.000000000000D+00  5 -1 2 25 24 21 2 0.26435252D-02 0.14215449D+00 0.15629543D+05 0.15629543D+05 0.15629543D+05 0.12457922D+01  1  2 15  1  5  1       -1 0.362696387311D-01 0.100000000000D+01
0.233978243823D-03 0.000000000000D+00 0.000000000000D+00 0.264380153121D-02 0.000000000000D+00  5 -1 2 25 24 21 2 0.33046002D-02 0.14215449D+00 0.19922632D+05 0.19922632D+05 0.19922632D+05 0.12340114D+01  1  2 12  1  5  1       -1 0.374727217757D+00 0.100000000000D+01
-.237925715000D-03 0.000000000000D+00 0.000000000000D+00 0.264380153121D-02 0.000000000000D+00  5 -1 2 25 24 21 2 0.26435252D-02 0.14215449D+00 0.15629543D+05 0.15629543D+05 0.15629543D+05 0.12457922D+01  1  2  4  1  5  1       -1 -.533315553539D+00 0.100000000000D+01
-.441348470350D-03 0.000000000000D+00 -.119277385501D-03 0.264380153121D-02 0.000000000000D+00  5 -1 2 25 24 21 2 0.34712667D-02 0.14215449D+00 0.15629543D+05 0.15629543D+05 0.15629543D+05 0.12457922D+01  1  2  5  1  5  1       -1 -.665845580915D+00 0.100000000000D+01
0.460925511125D-03 0.000000000000D+00 0.114984709599D-03 0.264380153121D-02 0.000000000000D+00  5 -1 2 25 24 21 2 0.26435252D-02 0.14215449D+00 0.15629543D+05 0.15629543D+05 0.15629543D+05 0.12457922D+01  1  2  6  1  5  1       -1 0.103317434227D+01 0.100000000000D+01
0.727758898013D-05 0.000000000000D+00 0.000000000000D+00 0.264380153121D-02 0.000000000000D+00  5 21 2 25 24 1 2 0.33046002D-02 0.14215449D+00 0.19922632D+05 0.19922632D+05 0.19922632D+05 0.12340114D+01  1  2 12  3  5  1       -1 0.220840417183D+00 0.100000000000D+01
-.136098685465D-04 0.000000000000D+00 -.429896052310D-05 0.264380153121D-02 0.000000000000D+00  5 21 2 25 24 1 2 0.34712667D-02 0.14215449D+00 0.15629543D+05 0.15629543D+05 0.15629543D+05 0.12457922D+01  1  2  5  3  5  1       -1 -.386781841899D+00 0.100000000000D+01
  </mgrwgt>
  </event>
  <event>
  4     66 0.45252658E-03 0.56242949E+02 0.75467711E-02 0.12471631E+00
       -1 -1    0    0    0  501 0.00000000E+00 0.00000000E+00 0.49843860E+02 0.49844888E+02 0.32000000E+00 0.0000E+00 0.9000E+01
        2 -1    0    0  501    0 0.00000000E+00 0.00000000E+00 -.48362936E+03 0.48362947E+03 0.32000000E+00 0.0000E+00 0.9000E+01
       25  1    1    2    0    0 0.24865453E+02 -.51225884E+01 -.43058752E+03 0.44908256E+03 0.12500000E+03 0.0000E+00 0.9000E+01
       24  1    1    2    0    0 -.24865453E+02 0.51225884E+01 -.31979766E+01 0.84391793E+02 0.80419002E+02 0.0000E+00 0.9000E+01
#aMCatNLO 1  0  0  2  1 0.22135101D+02 0.00000000D+00  -5  5  0 0.00000000D+00 0.00000000D+00 0.00000000D+00 0.00000000D+00 0.00000000D+00
  <mgrwgt>
 0.4090715410D+00    9    2    0
 0.155261896662122D+03 0.000000000000000D+00 0.000000000000000D+00 0.155261896662122D+03
 0.155261896662122D+03 0.000000000000000D+00 0.000000000000000D+00 -.155261896662122D+03
 0.170007600924576D+03 0.248654527446633D+02 -.512258844425734D+01 -.112396853690677D+03
 0.140516192399668D+03 -.248654527446633D+02 0.512258844425734D+01 0.112396853690677D+03
 0.000000000000000D+00 0.000000000000000D+00 0.000000000000000D+00 -.000000000000000D+00
 0.162551109704176D+03 0.000000000000000D+00 0.000000000000000D+00 0.162551109704176D+03
 0.173420367170178D+03 0.000000000000000D+00 0.000000000000000D+00 -.173420367170178D+03
 0.170586166822687D+03 0.233930205180607D+02 -.171567532690688D+02 -.112396853690677D+03
 0.140725556246560D+03 -.260812982867346D+02 -.481449754886738D+01 0.112396853690677D+03
 0.246597538051063D+02 0.268827776867383D+01 0.219712508179362D+02 -.108692574660023D+02
0.369096237128D-03 0.000000000000D+00 0.000000000000D+00 0.122754725877D-02 0.000000000000D+00  5 -1 2 25 24 21 0 0.76683734D-02 0.74404604D-01 0.11223628D+05 0.11223628D+05 0.11223628D+05 0.12624428D+01  1  2  2  2  5  2        2 0.236030565757D+00 0.100000000000D+01
-.168629516794D-04 0.000000000000D+00 -.141742673584D-05 0.122754725877D-02 0.000000000000D+00  5 -1 2 25 24 21 2 0.76683734D-02 0.74404604D-01 0.11223628D+05 0.11223628D+05 0.11223628D+05 0.12624428D+01  1  2  3  2  5  2        2 -.171864292209D-01 0.100000000000D+01
0.251249183077D-04 0.000000000000D+00 0.000000000000D+00 0.122754725877D-02 0.000000000000D+00  5 -1 2 25 24 21 2 0.76683734D-02 0.74404604D-01 0.11223628D+05 0.11223628D+05 0.11223628D+05 0.12624428D+01  1  2 15  2  5  2        2 0.256068829697D-01 0.100000000000D+01
0.771720752256D-03 0.000000000000D+00 0.000000000000D+00 0.122754725877D-02 0.000000000000D+00  5 -1 2 25 24 21 2 0.76683734D-02 0.84702213D-01 0.13822337D+05 0.13822337D+05 0.13822337D+05 0.12518911D+01  1  2 12  2  5  2        2 0.675092579008D+00 0.100000000000D+01
-.762596626231D-03 0.000000000000D+00 0.000000000000D+00 0.122754725877D-02 0.000000000000D+00  5 -1 2 25 24 21 2 0.76683734D-02 0.74404604D-01 0.11223628D+05 0.11223628D+05 0.11223628D+05 0.12624428D+01  1  2  4  2  5  2        2 -.777225315594D+00 0.100000000000D+01
-.165176559799D-02 0.000000000000D+00 -.404278595336D-03 0.122754725877D-02 0.000000000000D+00  5 -1 2 25 24 21 2 0.76683734D-02 0.86101231D-01 0.11223628D+05 0.11223628D+05 0.11223628D+05 0.12624428D+01  1  2  5  2  5  2        2 -.143474127590D+01 0.100000000000D+01
0.169694420984D-02 0.000000000000D+00 0.400007393247D-03 0.122754725877D-02 0.000000000000D+00  5 -1 2 25 24 21 2 0.76683734D-02 0.74404604D-01 0.11223628D+05 0.11223628D+05 0.11223628D+05 0.12624428D+01  1  2  6  2  5  2        2 0.172949624176D+01 0.100000000000D+01
0.156174386810D-04 0.000000000000D+00 0.000000000000D+00 0.122754725877D-02 0.000000000000D+00  5 -1 21 25 24 -2 2 0.76683734D-02 0.84702213D-01 0.13822337D+05 0.13822337D+05 0.13822337D+05 0.12518911D+01  1  2 12  4  5  2        2 0.243860269366D-01 0.100000000000D+01
-.341892566254D-04 0.000000000000D+00 -.902221491110D-05 0.122754725877D-02 0.000000000000D+00  5 -1 21 25 24 -2 2 0.76683734D-02 0.86101231D-01 0.11223628D+05 0.11223628D+05 0.11223628D+05 0.12624428D+01  1  2  5  4  5  2        2 -.523877347208D-01 0.100000000000D+01
  </mgrwgt>
  </event>
  <event>
  4     66 0.45252658E-03 0.66751841E+02 0.75467711E-02 0.12222967E+00
       -3 -1    0    0    0  501 0.00000000E+00 0.00000000E+00 0.70900464E+02 0.70902227E+02 0.50000000E+00 0.0000E+00 0.9000E+01
        4 -1    0    0  501    0 0.00000000E+00 0.00000000E+00 -.16394924E+03 0.16395656E+03 0.15500000E+01 0.0000E+00 0.9000E+01
       25  1    1    2    0    0 0.15055456E+02 0.28328780E+02 -.56618241E+02 0.14092484E+03 0.12500000E+03 0.0000E+00 0.9000E+01
       24  1    1    2    0    0 -.15055456E+02 -.28328780E+02 -.36430532E+02 0.93933946E+02 0.80419002E+02 0.0000E+00 0.9000E+01
#aMCatNLO 1  0  0  1  2 0.46490715D+02 0.00000000D+00  -5  5  0 0.00000000D+00 0.00000000D+00 0.00000000D+00 0.00000000D+00 0.00000000D+00
  <mgrwgt>
 0.4574776661D-01    9    2    0
 0.107819962319627D+03 0.000000000000000D+00 0.000000000000000D+00 0.107819962319627D+03
 0.107819962319627D+03 0.000000000000000D+00 0.000000000000000D+00 -.107819962319627D+03
 0.129053933860263D+03 0.150554558511659D+02 0.283287801841275D+02 -.855165014529432D+00
 0.865859907789917D+02 -.150554558511659D+02 -.283287801841275D+02 0.855165014529432D+00
 0.000000000000000D+00 -.000000000000000D+00 0.000000000000000D+00 0.000000000000000D+00
 0.153537270497671D+03 0.000000000000000D+00 0.000000000000000D+00 0.153537270497671D+03
 0.122793741357138D+03 0.000000000000000D+00 0.000000000000000D+00 -.122793741357138D+03
 0.130751671446442D+03 0.367100406882403D+02 0.110743483557273D+02 -.855165014529432D+00
 0.898428970183669D+02 -.350252266322485D+00 -.400459262151620D+02 0.855165014529432D+00
 0.557364433900001D+02 -.363597884219178D+02 0.289715778594348D+02 0.307435291405324D+02
0.214157769394D-03 0.000000000000D+00 0.000000000000D+00 0.307373128818D-02 0.000000000000D+00  5 -3 4 25 24 21 0 0.10908463D-01 0.25223659D-01 0.11624383D+05 0.11624383D+05 0.11624383D+05 0.12606460D+01  1  2  2  1  5  1       -3 0.372453899418D-01 0.100000000000D+01
-.118976538397D-04 0.000000000000D+00 -.822422223510D-06 0.307373128818D-02 0.000000000000D+00  5 -3 4 25 24 21 2 0.10908463D-01 0.25223659D-01 0.11624383D+05 0.11624383D+05 0.11624383D+05 0.12606460D+01  1  2  3  1  5  1       -3 -.328841275175D-02 0.100000000000D+01
0.147992232210D-04 0.000000000000D+00 0.000000000000D+00 0.307373128818D-02 0.000000000000D+00  5 -3 4 25 24 21 2 0.10908463D-01 0.25223659D-01 0.11624383D+05 0.11624383D+05 0.11624383D+05 0.12606460D+01  1  2 15  1  5  1       -3 0.409038244107D-02 0.100000000000D+01
0.106874786498D-03 0.000000000000D+00 0.000000000000D+00 0.307373128818D-02 0.000000000000D+00  5 -3 4 25 24 21 2 0.16037272D-01 0.25223659D-01 0.17832720D+05 0.17832720D+05 0.17832720D+05 0.12393479D+01  1  2 12  1  5  1       -3 0.155551664212D-01 0.100000000000D+01
-.138115842170D-03 0.000000000000D+00 0.000000000000D+00 0.307373128818D-02 0.000000000000D+00  5 -3 4 25 24 21 2 0.10908463D-01 0.25223659D-01 0.11624383D+05 0.11624383D+05 0.11624383D+05 0.12606460D+01  1  2  4  1  5  1       -3 -.381740721933D-01 0.100000000000D+01
-.186430689325D-03 0.000000000000D+00 -.731595469371D-04 0.307373128818D-02 0.000000000000D+00  5 -3 4 25 24 21 2 0.17575466D-01 0.25223659D-01 0.11624383D+05 0.11624383D+05 0.11624383D+05 0.12606460D+01  1  2  5  1  5  1       -3 -.230184232977D-01 0.100000000000D+01
0.205144486117D-03 0.000000000000D+00 0.655598087720D-04 0.307373128818D-02 0.000000000000D+00  5 -3 4 25 24 21 2 0.10908463D-01 0.25223659D-01 0.11624383D+05 0.11624383D+05 0.11624383D+05 0.12606460D+01  1  2  6  1  5  1       -3 0.567002329353D-01 0.100000000000D+01
0.495051313039D-05 0.000000000000D+00 0.000000000000D+00 0.307373128818D-02 0.000000000000D+00  5 21 4 25 24 3 2 0.16037272D-01 0.25223659D-01 0.17832720D+05 0.17832720D+05 0.17832720D+05 0.12393479D+01  1  2 12  3  5  1       -3 0.158351007394D-01 0.100000000000D+01
-.700520561234D-05 0.000000000000D+00 -.397520935806D-05 0.307373128818D-02 0.000000000000D+00  5 21 4 25 24 3 2 0.17575466D-01 0.25223659D-01 0.11624383D+05 0.11624383D+05 0.11624383D+05 0.12606460D+01  1  2  5  3  5  1       -3 -.191975976231D-01 0.100000000000D+01
  </mgrwgt>
  </event>
  <event>
  4     66 0.45252658E-03 0.11228396E+03 0.75467711E-02 0.11114501E+00
       -1 -1    0    0    0  501 0.00000000E+00 0.00000000E+00 0.17877460E+02 0.17880324E+02 0.32000000E+00 0.0000E+00 0.9000E+01
        2 -1    0    0  501    0 0.00000000E+00 0.00000000E+00 -.78047430E+03 0.78047436E+03 0.32000000E+00 0.0000E+00 0.9000E+01
       25  1    1    2    0    0 0.27029904E+01 -.44384879E+02 -.56599059E+03 0.58133267E+03 0.12500000E+03 0.0000E+00 0.9000E+01
       24  1    1    2    0    0 -.27029904E+01 0.44384879E+02 -.19660624E+03 0.21702201E+03 0.80419002E+02 0.0000E+00 0.9000E+01
#aMCatNLO 1  0  0  2  2 0.20297634D+03 0.00000000D+00  -5  5  0 0.00000000D+00 0.00000000D+00 0.00000000D+00 0.00000000D+00 0.00000000D+00
  <mgrwgt>
 0.3706166630D+00    5    2    0
 0.118127334934201D+03 0.000000000000000D+00 0.000000000000000D+00 0.118127334934201D+03
 0.118127334934201D+03 0.000000000000000D+00 0.000000000000000D+00 -.118127334934201D+03
 0.137508505369330D+03 0.270299043505633D+01 -.443848788918733D+02 -.361422940247129D+02
 0.987461644990710D+02 -.270299043505633D+01 0.443848788918733D+02 0.361422940247129D+02
 0.000000000000000D+00 0.000000000000000D+00 -.000000000000000D+00 -.000000000000000D+00
 0.183164829886560D+03 0.000000000000000D+00 0.000000000000000D+00 0.183164829886560D+03
 0.531257880796345D+03 0.000000000000000D+00 0.000000000000000D+00 -.531257880796345D+03
 0.146579979175231D+03 -.470202598826974D+02 0.484099167341359D+02 -.361422940247129D+02
 0.164893396340114D+03 -.488471201356506D+02 0.130500228502835D+03 0.361422940247129D+02
 0.402949335167559D+03 0.958673800183481D+02 -.178910145236971D+03 -.348093050909785D+03
0.217351959331D-03 0.000000000000D+00 0.000000000000D+00 0.259291412730D-02 0.000000000000D+00  5 -1 2 25 24 21 0 0.27506038D-02 0.12007319D+00 0.12607688D+05 0.12607688D+05 0.12607688D+05 0.12565174D+01  1  2  2  2  5  2        2 0.364233699248D+00 0.100000000000D+01
-.120373221993D-04 0.000000000000D+00 -.834688753917D-06 0.259291412730D-02 0.000000000000D+00  5 -1 2 25 24 21 2 0.27506038D-02 0.12007319D+00 0.12607688D+05 0.12607688D+05 0.12607688D+05 0.12565174D+01  1  2  3  2  5  2        2 -.318480976561D-01 0.100000000000D+01
0.150143277204D-04 0.000000000000D+00 0.000000000000D+00 0.259291412730D-02 0.000000000000D+00  5 -1 2 25 24 21 2 0.27506038D-02 0.12007319D+00 0.12607688D+05 0.12607688D+05 0.12607688D+05 0.12565174D+01  1  2 15  2  5  2        2 0.397245971792D-01 0.100000000000D+01
-.305121244567D-04 0.000000000000D+00 -.980059257663D-04 0.259291412730D-02 0.000000000000D+00  5 -1 2 25 24 21 2 0.27506038D-02 0.59257785D+00 0.12607688D+05 0.12607688D+05 0.12607688D+05 0.12565174D+01  1  2  5  2  5  2        2 -.147062422433D-02 0.100000000000D+01
-.847188509782D-05 0.000000000000D+00 -.190531934605D-04 0.259291412730D-02 0.000000000000D+00  5 -1 21 25 24 -2 2 0.27506038D-02 0.59257785D+00 0.12607688D+05 0.12607688D+05 0.12607688D+05 0.12565174D+01  1  2  5  4  5  2        2 -.229114976699D-04 0.100000000000D+01
  </mgrwgt>
  </event>
  <event>
  4     66 0.45252658E-03 0.14363942E+03 0.75467711E-02 0.11458158E+00
       -1 -1    0    0    0  501 0.00000000E+00 0.00000000E+00 0.11810541E+02 0.11814876E+02 0.32000000E+00 0.0000E+00 0.9000E+01
        2 -1    0    0  501    0 0.00000000E+00 0.00000000E+00 -.17969362E+04 0.17969362E+04 0.32000000E+00 0.0000E+00 0.9000E+01
       25  1    1    2    0    0 -.20319765E+02 0.97094427E+02 -.11392676E+04 0.11503895E+04 0.12500000E+03 0.0000E+00 0.9000E+01
       24  1    1    2    0    0 0.20319765E+02 -.97094427E+02 -.64585805E+03 0.65836164E+03 0.80419002E+02 0.0000E+00 0.9000E+01
#aMCatNLO 1  0  0  1  1 0.10398341D+03 0.00000000D+00  -5  5  0 0.00000000D+00 0.00000000D+00 0.00000000D+00 0.00000000D+00 0.00000000D+00
  <mgrwgt>
 0.2826179148D+00    5    2    0
 0.145693976759278D+03 0.000000000000000D+00 0.000000000000000D+00 0.145693976759278D+03
 0.145693976759278D+03 0.000000000000000D+00 0.000000000000000D+00 -.145693976759278D+03
 0.161408051303280D+03 -.203197646340477D+02 0.970944267438110D+02 -.242350672792511D+02
 0.129979902215276D+03 0.203197646340477D+02 -.970944267438110D+02 0.242350672792511D+02
 0.000000000000000D+00 0.000000000000000D+00 -.000000000000000D+00 0.000000000000000D+00
 0.218405501849131D+03 0.000000000000000D+00 0.000000000000000D+00 0.218405501849131D+03
 0.197119826099442D+03 0.000000000000000D+00 0.000000000000000D+00 -.197119826099442D+03
 0.179758426392160D+03 -.793381032660199D+02 0.990263537807295D+02 -.242350672792511D+02
 0.129627235968958D+03 -.245896358912639D+02 -.956243466450186D+02 0.242350672792511D+02
 0.106139665587455D+03 0.103927739157284D+03 -.340200713571086D+01 0.212856757496890D+02
0.359787978436D-03 0.000000000000D+00 0.000000000000D+00 0.238441563491D-02 0.000000000000D+00  5 -1 2 25 24 21 0 0.18173420D-02 0.27645206D+00 0.20632282D+05 0.20632282D+05 0.20632282D+05 0.12323407D+01  1  2  2  1  5  1       -1 0.301973250696D+00 0.100000000000D+01
-.199833190491D-04 0.000000000000D+00 -.138168057154D-05 0.238441563491D-02 0.000000000000D+00  5 -1 2 25 24 21 2 0.18173420D-02 0.27645206D+00 0.20632282D+05 0.20632282D+05 0.20632282D+05 0.12323407D+01  1  2  3  1  5  1       -1 -.254712946767D-01 0.100000000000D+01
0.247757352054D-04 0.000000000000D+00 0.000000000000D+00 0.238441563491D-02 0.000000000000D+00  5 -1 2 25 24 21 2 0.18173420D-02 0.27645206D+00 0.20632282D+05 0.20632282D+05 0.20632282D+05 0.12323407D+01  1  2 15  1  5  1       -1 0.315798417020D-01 0.100000000000D+01
-.709867209415D-04 0.000000000000D+00 -.102952526041D-03 0.238441563491D-02 0.000000000000D+00  5 -1 2 25 24 21 2 0.39283606D-02 0.27645206D+00 0.20632282D+05 0.20632282D+05 0.20632282D+05 0.12323407D+01  1  2  5  1  5  1       -1 -.294855583871D-01 0.100000000000D+01
0.528494016854D-06 0.000000000000D+00 -.859239496183D-05 0.238441563491D-02 0.000000000000D+00  5 21 2 25 24 1 2 0.39283606D-02 0.27645206D+00 0.20632282D+05 0.20632282D+05 0.20632282D+05 0.12323407D+01  1  2  5  3  5  1       -1 0.402167544536D-02 0.100000000000D+01
  </mgrwgt>
  </event>
  <event>
  4     66 0.45252658E-03 0.13742611E+03 0.75467711E-02 0.11828389E+00
       -1 -1    0    0    0  501 0.00000000E+00 0.00000000E+00 0.26314684E+02 0.26316630E+02 0.32000000E+00 0.0000E+00 0.9000E+01
        2 -1    0    0  501    0 0.00000000E+00 0.00000000E+00 -.72513853E+03 0.72513860E+03 0.32000000E+00 0.0000E+00 0.9000E+01
       25  1    1    2    0    0 0.21962954E+02 -.87378448E+02 -.35347291E+03 0.38559754E+03 0.12500000E+03 0.0000E+00 0.9000E+01
       24  1    1    2    0    0 -.21962954E+02 0.87378448E+02 -.34535094E+03 0.36585769E+03 0.80419002E+02 0.0000E+00 0.9000E+01
#aMCatNLO 1  0  0  1  2 0.51102811D+02 0.00000000D+00  -5  5  0 0.00000000D+00 0.00000000D+00 0.00000000D+00 0.00000000D+00 0.00000000D+00
  <mgrwgt>
 0.4066965546D+00    4    2    0
 0.138139598893329D+03 0.000000000000000D+00 0.000000000000000D+00 0.138139598893329D+03
 0.138139598893329D+03 0.000000000000000D+00 0.000000000000000D+00 -.138139598893329D+03
 0.154713021936025D+03 0.219629539612875D+02 -.873784484024377D+02 0.139195748733113D+02
 0.121566175850634D+03 -.219629539612875D+02 0.873784484024377D+02 -.139195748733113D+02
 0.000000000000000D+00 -.000000000000000D+00 0.000000000000000D+00 -.000000000000000D+00
 0.148973126292064D+03 0.000000000000000D+00 0.000000000000000D+00 0.148973126292064D+03
 0.217379271433307D+03 0.000000000000000D+00 0.000000000000000D+00 -.217379271433307D+03
 0.173943486444218D+03 0.317384641537172D+02 -.115888963257419D+03 0.139195748733113D+02
 0.107022156245538D+03 -.151638566870862D+02 0.675487147086716D+02 -.139195748733113D+02
 0.853867550356156D+02 -.165746074666310D+02 0.483402485487471D+02 -.684061451412421D+02
0.419652116666D-03 0.000000000000D+00 0.000000000000D+00 0.249775569955D-02 0.000000000000D+00  5 -1 2 25 24 21 0 0.40485680D-02 0.11155993D+00 0.18885935D+05 0.18885935D+05 0.18885935D+05 0.12365758D+01  1  2  2  1  5  1       -1 0.443977169883D+00 0.100000000000D+01
-.233132463492D-04 0.000000000000D+00 -.161157462494D-05 0.249775569955D-02 0.000000000000D+00  5 -1 2 25 24 21 2 0.40485680D-02 0.11155993D+00 0.18885935D+05 0.18885935D+05 0.18885935D+05 0.12365758D+01  1  2  3  1  5  1       -1 -.377151188761D-01 0.100000000000D+01
0.290016987994D-04 0.000000000000D+00 0.000000000000D+00 0.249775569955D-02 0.000000000000D+00  5 -1 2 25 24 21 2 0.40485680D-02 0.11155993D+00 0.18885935D+05 0.18885935D+05 0.18885935D+05 0.12365758D+01  1  2 15  1  5  1       -1 0.469176407885D-01 0.100000000000D+01
-.287331144854D-04 0.000000000000D+00 0.000000000000D+00 0.249775569955D-02 0.000000000000D+00  5 -1 2 25 24 21 2 0.40485680D-02 0.11155993D+00 0.18885935D+05 0.18885935D+05 0.18885935D+05 0.12365758D+01  1  2  4  1  5  1       -1 -.464831371944D-01 0.100000000000D+01
  </mgrwgt>
  </event>
  <event>
  4     66 0.45252658E-03 0.23572520E+03 0.75467711E-02 0.10819806E+00
       -1 -1    0    0    0  501 0.00000000E+00 0.00000000E+00 0.42333179E+02 0.42334389E+02 0.32000000E+00 0.0000E+00 0.9000E+01
        2 -1    0    0  501    0 0.00000000E+00 0.00000000E+00 -.13134042E+04 0.13134043E+04 0.32000000E+00 0.0000E+00 0.9000E+01
       25  1    1    2    0    0 0.25576392E+02 -.20966745E+03 -.64469906E+03 0.68983800E+03 0.12500000E+03 0.0000E+00 0.9000E+01
       24  1    1    2    0    0 -.25576392E+02 0.20966745E+03 -.62637198E+03 0.66590064E+03 0.80419002E+02 0.0000E+00 0.9000E+01
#aMCatNLO 1  0  0  2  2 0.12538709D+03 0.00000000D+00  -5  5  0 0.00000000D+00 0.00000000D+00 0.00000000D+00 0.00000000D+00 0.00000000D+00
  <mgrwgt>
 0.5167496657D+00    3    2    0
 0.235799538242066D+03 0.000000000000000D+00 0.000000000000000D+00 0.235799538242066D+03
 0.235799538242066D+03 0.000000000000000D+00 0.000000000000000D+00 -.235799538242066D+03
 0.245508827872044D+03 0.255763921473008D+02 -.209667453989911D+03 0.591535841862932D+01
 0.226090248612088D+03 -.255763921473008D+02 0.209667453989911D+03 -.591535841862932D+01
 0.000000000000000D+00 -.000000000000000D+00 -.000000000000000D+00 0.000000000000000D+00
 0.534203766923155D+03 0.000000000000000D+00 0.000000000000000D+00 0.534203766923155D+03
 0.257535077693582D+03 0.000000000000000D+00 0.000000000000000D+00 -.257535077693582D+03
 0.242076616014261D+03 0.857251587053289D+02 -.188659199936397D+03 0.591535841862932D+01
 0.245906592508098D+03 0.326493571416478D+02 0.230004052785140D+03 -.591535841862932D+01
 0.303755636094378D+03 -.118374515846977D+03 -.413448528487433D+02 0.276668689229572D+03
0.219344955618D-02 0.000000000000D+00 0.000000000000D+00 0.208249801435D-02 0.000000000000D+00  5 -1 2 25 24 21 0 0.65128928D-02 0.20206228D+00 0.55566371D+05 0.55566371D+05 0.55566371D+05 0.11877683D+01  1  2  2  2  5  2        2 0.507540306636D+00 0.100000000000D+01
-.121858293948D-03 0.000000000000D+00 -.842342384428D-05 0.208249801435D-02 0.000000000000D+00  5 -1 2 25 24 21 2 0.65128928D-02 0.20206228D+00 0.55566371D+05 0.55566371D+05 0.55566371D+05 0.11877683D+01  1  2  3  2  5  2        2 -.397796916799D-01 0.100000000000D+01
0.150069593087D-03 0.000000000000D+00 0.000000000000D+00 0.208249801435D-02 0.000000000000D+00  5 -1 2 25 24 21 2 0.65128928D-02 0.20206228D+00 0.55566371D+05 0.55566371D+05 0.55566371D+05 0.11877683D+01  1  2 15  2  5  2        2 0.489890507256D-01 0.100000000000D+01
  </mgrwgt>
  </event>
  <event>
  5     66 0.45252658E-03 0.10813287E+03 0.75467711E-02 0.12180500E+00
       -1 -1    0    0    0  502 0.00000000E+00 0.00000000E+00 0.32960577E+02 0.32962131E+02 0.32000000E+00 0.0000E+00 0.9000E+01
        2 -1    0    0  501    0 0.00000000E+00 0.00000000E+00 -.26922803E+04 0.26922803E+04 0.32000000E+00 0.0000E+00 0.9000E+01
       25  1    1    2    0    0 0.77806979E+01 0.97520631E+00 -.23219742E+04 0.23253496E+04 0.12500000E+03 0.0000E+00 0.9000E+01
       24  1    1    2    0    0 -.56667227E+02 -.68294203E+01 -.54261720E+02 0.11255828E+03 0.80419002E+02 0.0000E+00 0.9000E+01
       21  1    1    2  501  502 0.48886530E+02 0.58542140E+01 -.28308376E+03 0.28733455E+03 0.75000000E+00 0.0000E+00 0.9000E+01
#aMCatNLO 2  0  0  1  2 0.49235806D+02 0.00000000D+00  -5  5  0 0.00000000D+00 0.00000000D+00 0.00000000D+00 0.00000000D+00 0.00000000D+00
  <mgrwgt>
 0.4685046539D-01    1    2    0
 0.271327024506010D+03 0.000000000000000D+00 0.000000000000000D+00 0.271327024506010D+03
 0.271327024506010D+03 0.000000000000000D+00 0.000000000000000D+00 -.271327024506010D+03
 0.279764982411514D+03 0.328491656230030D+02 0.397718200501022D+01 -.248089821888940D+03
 0.262889066600506D+03 -.328491656230030D+02 -.397718200501022D+01 0.248089821888940D+03
 0.000000000000000D+00 0.000000000000000D+00 0.000000000000000D+00 -.000000000000000D+00
 0.291217087445319D+03 0.000000000000000D+00 0.000000000000000D+00 0.291217087445319D+03
 0.304719767747473D+03 0.000000000000000D+00 0.000000000000000D+00 -.304719767747473D+03
 0.277911946508541D+03 0.778069790799537D+01 0.975206308873798D+00 -.248089821888940D+03
 0.266971143244964D+03 -.566672274347056D+02 -.682942026307498D+01 0.248089821888940D+03
 0.510537654392863D+02 0.488865295267103D+02 0.585421395420119D+01 -.135026803021544D+02
0.479294228286D-03 0.000000000000D+00 0.000000000000D+00 0.377867779019D-03 0.132333446088D-05  5 -1 2 25 24 21 2 0.50709318D-02 0.41419323D+00 0.18645507D+05 0.18645507D+05 0.18645507D+05 0.12371931D+01  1  2  1  1  5  1       -1 0.468504653861D-01 0.100000000000D+01
  </mgrwgt>
  </event>
  <event>
  4     66 0.45252658E-03 0.14497074E+03 0.75467711E-02 0.11313726E+00
       -1 -1    0    0    0  501 0.00000000E+00 0.00000000E+00 0.36293918E+02 0.36295329E+02 0.32000000E+00 0.0000E+00 0.9000E+01
        2 -1    0    0  501    0 0.00000000E+00 0.00000000E+00 -.61181253E+03 0.61181261E+03 0.32000000E+00 0.0000E+00 0.9000E+01
       25  1    1    2    0    0 0.50852583E+02 -.87371752E+02 -.39199260E+03 0.42367795E+03 0.12500000E+03 0.0000E+00 0.9000E+01
       24  1    1    2    0    0 -.50852583E+02 0.87371752E+02 -.18352601E+03 0.22442999E+03 0.80419002E+02 0.0000E+00 0.9000E+01
#aMCatNLO 1  0  0  1  2 0.12926587D+03 0.00000000D+00  -5  5  0 0.00000000D+00 0.00000000D+00 0.00000000D+00 0.00000000D+00 0.00000000D+00
  <mgrwgt>
 0.3633121627D+00    5    2    0
 0.149015295586920D+03 0.000000000000000D+00 0.000000000000000D+00 0.149015295586920D+03
 0.149015295586920D+03 0.000000000000000D+00 0.000000000000000D+00 -.149015295586920D+03
 0.164379127886081D+03 0.508525827931388D+02 -.873717515962028D+02 -.342883293682705D+02
 0.133651463287759D+03 -.508525827931388D+02 0.873717515962028D+02 0.342883293682705D+02
 0.000000000000000D+00 0.000000000000000D+00 0.000000000000000D+00 0.000000000000000D+00
 0.235248071178418D+03 0.000000000000000D+00 0.000000000000000D+00 0.235248071178418D+03
 0.219794938305342D+03 0.000000000000000D+00 0.000000000000000D+00 -.219794938305342D+03
 0.162454278899286D+03 -.163492106085682D+02 -.965577884704109D+02 -.342883293682705D+02
 0.162402458022440D+03 -.111725657707169D+03 0.790508083222023D+02 0.342883293682705D+02
 0.130186272562034D+03 0.128074868315737D+03 0.175069801482086D+02 0.154531328730765D+02
0.436404559205D-03 0.000000000000D+00 0.000000000000D+00 0.230054851610D-02 0.000000000000D+00  5 -1 2 25 24 21 0 0.55837947D-02 0.94125119D-01 0.21016514D+05 0.21016514D+05 0.21016514D+05 0.12314627D+01  1  2  2  1  5  1       -1 0.351434393808D+00 0.100000000000D+01
-.242223773134D-04 0.000000000000D+00 -.167590841531D-05 0.230054851610D-02 0.000000000000D+00  5 -1 2 25 24 21 2 0.55837947D-02 0.94125119D-01 0.21016514D+05 0.21016514D+05 0.21016514D+05 0.12314627D+01  1  2  3  1  5  1       -1 -.295810979313D-01 0.100000000000D+01
0.301661255230D-04 0.000000000000D+00 0.000000000000D+00 0.230054851610D-02 0.000000000000D+00  5 -1 2 25 24 21 2 0.55837947D-02 0.94125119D-01 0.21016514D+05 0.21016514D+05 0.21016514D+05 0.12314627D+01  1  2 15  1  5  1       -1 0.368397825596D-01 0.100000000000D+01
-.417899756073D-04 0.000000000000D+00 -.123126792734D-03 0.230054851610D-02 0.000000000000D+00  5 -1 2 25 24 21 2 0.13035287D-01 0.94125119D-01 0.21016514D+05 0.21016514D+05 0.21016514D+05 0.12314627D+01  1  2  5  1  5  1       -1 -.140969822591D-01 0.100000000000D+01
0.391754676805D-05 0.000000000000D+00 -.113798492188D-04 0.230054851610D-02 0.000000000000D+00  5 21 2 25 24 1 2 0.13035287D-01 0.94125119D-01 0.21016514D+05 0.21016514D+05 0.21016514D+05 0.12314627D+01  1  2  5  3  5  1       -1 0.187160665572D-01 0.100000000000D+01
  </mgrwgt>
  </event>
  <event>
  4     66 0.45252658E-03 0.15208888E+03 0.75467711E-02 0.11688499E+00
       -1 -1    0    0    0  501 0.00000000E+00 0.00000000E+00 0.14438433E+03 0.14438469E+03 0.32000000E+00 0.0000E+00 0.9000E+01
        2 -1    0    0  501    0 0.00000000E+00 0.00000000E+00 -.31424453E+03 0.31424470E+03 0.32000000E+00 0.0000E+00 0.9000E+01
       25  1    1    2    0    0 0.94238695E+02 -.58571251E+02 0.70934816E+02 0.18157167E+03 0.12500000E+03 0.0000E+00 0.9000E+01
       24  1    1    2    0    0 -.94238695E+02 0.58571251E+02 -.24079501E+03 0.27705772E+03 0.80419002E+02 0.0000E+00 0.9000E+01
#aMCatNLO 1  0  0  1  2 0.51160614D+02 0.00000000D+00  -5  5  0 0.00000000D+00 0.00000000D+00 0.00000000D+00 0.00000000D+00 0.00000000D+00
  <mgrwgt>
 0.1884006628D+00    4    2    0
 0.213007292120523D+03 0.000000000000000D+00 0.000000000000000D+00 0.213007292120523D+03
 0.213007292120523D+03 0.000000000000000D+00 0.000000000000000D+00 -.213007292120523D+03
 0.223755496975932D+03 0.942386947143872D+02 -.585712510638615D+02 0.148761552137268D+03
 0.202259087265114D+03 -.942386947143872D+02 0.585712510638615D+02 -.148761552137268D+03
 0.000000000000000D+00 -.000000000000000D+00 0.000000000000000D+00 -.000000000000000D+00
 0.231358748535762D+03 0.000000000000000D+00 0.000000000000000D+00 0.231358748535762D+03
 0.253438753425767D+03 0.000000000000000D+00 0.000000000000000D+00 -.253438753425767D+03
 0.234528667196824D+03 0.997509765520458D+02 -.854309020187805D+02 0.148761552137268D+03
 0.194546890737138D+03 -.894658778539912D+02 0.353147850997701D+02 -.148761552137268D+03
 0.557219440275669D+02 -.102850986980546D+02 0.501161169190104D+02 -.220800048900050D+02
0.161256761400D-02 0.000000000000D+00 0.000000000000D+00 0.113480182753D-02 0.000000000000D+00  5 -1 2 25 24 21 0 0.22213014D-01 0.48345353D-01 0.23131028D+05 0.23131028D+05 0.23131028D+05 0.12269322D+01  1  2  2  1  5  1       -1 0.318483065389D+00 0.100000000000D+01
-.772267849229D-04 0.000000000000D+00 -.619268423658D-05 0.113480182753D-02 0.000000000000D+00  5 -1 2 25 24 21 2 0.22213014D-01 0.48345353D-01 0.23131028D+05 0.23131028D+05 0.23131028D+05 0.12269322D+01  1  2  3  1  5  1       -1 -.229602950213D-01 0.100000000000D+01
0.109110459937D-03 0.000000000000D+00 0.000000000000D+00 0.113480182753D-02 0.000000000000D+00  5 -1 2 25 24 21 2 0.22213014D-01 0.48345353D-01 0.23131028D+05 0.23131028D+05 0.23131028D+05 0.12269322D+01  1  2 15  1  5  1       -1 0.324396302731D-01 0.100000000000D+01
-.469414887681D-03 0.000000000000D+00 0.000000000000D+00 0.113480182753D-02 0.000000000000D+00  5 -1 2 25 24 21 2 0.22213014D-01 0.48345353D-01 0.23131028D+05 0.23131028D+05 0.23131028D+05 0.12269322D+01  1  2  4  1  5  1       -1 -.139561737800D+00 0.100000000000D+01
  </mgrwgt>
  </event>
  <event>
  4     66 0.45252658E-03 0.20494427E+03 0.75467711E-02 0.97243595E-01
       -1 -1    0    0    0  501 0.00000000E+00 0.00000000E+00 0.40756414E+02 0.40757670E+02 0.32000000E+00 0.0000E+00 0.9000E+01
        2 -1    0    0  501    0 0.00000000E+00 0.00000000E+00 -.14008128E+04 0.14008129E+04 0.32000000E+00 0.0000E+00 0.9000E+01
       25  1    1    2    0    0 0.41652129E+02 -.17130656E+03 -.33713151E+03 0.40045410E+03 0.12500000E+03 0.0000E+00 0.9000E+01
       24  1    1    2    0    0 -.41652129E+02 0.17130656E+03 -.10229249E+04 0.10411164E+04 0.80419002E+02 0.0000E+00 0.9000E+01
#aMCatNLO 1  0  0  2  1 0.63677766D+03 0.00000000D+00  -5  5  0 0.00000000D+00 0.00000000D+00 0.00000000D+00 0.00000000D+00 0.00000000D+00
  <mgrwgt>
 0.4623527655D+00    5    2    0
 0.238941498607227D+03 0.000000000000000D+00 0.000000000000000D+00 0.238941498607227D+03
 0.238941498607227D+03 0.000000000000000D+00 0.000000000000000D+00 -.238941498607227D+03
 0.248523115968599D+03 0.416521287602260D+02 -.171306561148770D+03 0.122710641135421D+03
 0.229359881245854D+03 -.416521287602260D+02 0.171306561148770D+03 -.122710641135421D+03
 0.000000000000000D+00 0.000000000000000D+00 0.000000000000000D+00 -.000000000000000D+00
 0.704198540300803D+03 0.000000000000000D+00 0.000000000000000D+00 0.704198540300803D+03
 0.729222592543074D+03 0.000000000000000D+00 0.000000000000000D+00 -.729222592543074D+03
 0.489177669376179D+03 -.269936860119991D+03 -.368437216248581D+03 0.122710641135421D+03
 0.306974294489162D+03 -.268188180827832D+03 0.279857059789499D+02 -.122710641135421D+03
 0.637269168978536D+03 0.538125040947824D+03 0.340451510269632D+03 -.250240522422708D+02
0.206063929566D-02 0.000000000000D+00 0.000000000000D+00 0.154872165312D-02 0.000000000000D+00  5 -1 2 25 24 21 0 0.62703170D-02 0.21550977D+00 0.42002153D+05 0.42002153D+05 0.42002153D+05 0.11998522D+01  1  2  2  2  5  2        2 0.452568845647D+00 0.100000000000D+01
-.111201135157D-03 0.000000000000D+00 -.791339747411D-05 0.154872165312D-02 0.000000000000D+00  5 -1 2 25 24 21 2 0.62703170D-02 0.21550977D+00 0.42002153D+05 0.42002153D+05 0.42002153D+05 0.11998522D+01  1  2  3  2  5  2        2 -.351598801597D-01 0.100000000000D+01
0.140737420308D-03 0.000000000000D+00 0.000000000000D+00 0.154872165312D-02 0.000000000000D+00  5 -1 2 25 24 21 2 0.62703170D-02 0.21550977D+00 0.42002153D+05 0.42002153D+05 0.42002153D+05 0.11998522D+01  1  2 15  2  5  2        2 0.444987438754D-01 0.100000000000D+01
0.827078154305D-03 0.000000000000D+00 -.703305264679D-03 0.154872165312D-02 0.000000000000D+00  5 -1 2 25 24 21 2 0.62703170D-02 0.80617052D+00 0.42002153D+05 0.42002153D+05 0.42002153D+05 0.11998522D+01  1  2  5  2  5  2        2 0.444239361580D-03 0.100000000000D+01
0.144692079340D-03 0.000000000000D+00 -.109700659148D-03 0.154872165312D-02 0.000000000000D+00  5 -1 21 25 24 -2 2 0.62703170D-02 0.80617052D+00 0.42002153D+05 0.42002153D+05 0.42002153D+05 0.11998522D+01  1  2  5  4  5  2        2 0.816785731424D-06 0.100000000000D+01
  </mgrwgt>
  </event>
  <event>
  4     66 0.45252658E-03 0.10708238E+03 0.75467711E-02 0.11947046E+00
       -1 -1    0    0    0  501 0.00000000E+00 0.00000000E+00 0.99776110E+01 0.99827412E+01 0.32000000E+00 0.0000E+00 0.9000E+01
        2 -1    0    0  501    0 0.00000000E+00 0.00000000E+00 -.14495143E+04 0.14495143E+04 0.32000000E+00 0.0000E+00 0.9000E+01
       25  1    1    2    0    0 -.23262800E+02 -.18343503E+02 -.50666304E+03 0.52269501E+03 0.12500000E+03 0.0000E+00 0.9000E+01
       24  1    1    2    0    0 0.23262800E+02 0.18343503E+02 -.93287361E+03 0.93680202E+03 0.80419002E+02 0.0000E+00 0.9000E+01
#aMCatNLO 1  0  0  2  1 0.80393627D+02 0.00000000D+00  -5  5  0 0.00000000D+00 0.00000000D+00 0.00000000D+00 0.00000000D+00 0.00000000D+00
  <mgrwgt>
 0.4147850990D+00    7    2    0
 0.120276593068733D+03 0.000000000000000D+00 0.000000000000000D+00 0.120276593068733D+03
 0.120276593068733D+03 0.000000000000000D+00 0.000000000000000D+00 -.120276593068733D+03
 0.139311435617849D+03 -.232628003955857D+02 -.183435033317351D+02 0.538983682237203D+02
 0.101241750519618D+03 0.232628003955857D+02 0.183435033317351D+02 -.538983682237203D+02
 0.000000000000000D+00 -.000000000000000D+00 0.000000000000000D+00 -.000000000000000D+00
 0.164431602594583D+03 0.000000000000000D+00 0.000000000000000D+00 0.164431602594583D+03
 0.169770682993114D+03 0.000000000000000D+00 0.000000000000000D+00 -.169770682993114D+03
 0.140974862626651D+03 0.207620187834939D+02 -.302128510977903D+02 0.538983682237203D+02
 0.112656702123584D+03 0.568600213774240D+02 0.928549679718606D+01 -.538983682237203D+02
 0.805707208374614D+02 -.776220401609178D+02 0.209273543006042D+02 -.533908039853143D+01
0.214045248754D-03 0.000000000000D+00 0.000000000000D+00 0.229527535604D-02 0.000000000000D+00  5 -1 2 25 24 21 0 0.15354144D-02 0.22300259D+00 0.11466636D+05 0.11466636D+05 0.11466636D+05 0.12613448D+01  1  2  2  2  5  2        2 0.340450261406D+00 0.100000000000D+01
-.116961963315D-04 0.000000000000D+00 -.821990114624D-06 0.229527535604D-02 0.000000000000D+00  5 -1 2 25 24 21 2 0.15354144D-02 0.22300259D+00 0.11466636D+05 0.11466636D+05 0.11466636D+05 0.12613448D+01  1  2  3  2  5  2        2 -.295978654987D-01 0.100000000000D+01
0.146312338176D-04 0.000000000000D+00 0.000000000000D+00 0.229527535604D-02 0.000000000000D+00  5 -1 2 25 24 21 2 0.15354144D-02 0.22300259D+00 0.11466636D+05 0.11466636D+05 0.11466636D+05 0.12613448D+01  1  2 15  2  5  2        2 0.370251386297D-01 0.100000000000D+01
-.720434225142D-04 0.000000000000D+00 0.000000000000D+00 0.229527535604D-02 0.000000000000D+00  5 -1 2 25 24 21 2 0.15354144D-02 0.22300259D+00 0.11466636D+05 0.11466636D+05 0.11466636D+05 0.12613448D+01  1  2  4  2  5  2        2 -.182309826990D+00 0.100000000000D+01
-.102805778211D-03 0.000000000000D+00 -.754881210554D-04 0.229527535604D-02 0.000000000000D+00  5 -1 2 25 24 21 2 0.15354144D-02 0.36914306D+00 0.11466636D+05 0.11466636D+05 0.11466636D+05 0.12613448D+01  1  2  5  2  5  2        2 -.852035313015D-01 0.100000000000D+01
0.132351190068D-03 0.000000000000D+00 0.668202140098D-04 0.229527535604D-02 0.000000000000D+00  5 -1 2 25 24 21 2 0.15354144D-02 0.22300259D+00 0.11466636D+05 0.11466636D+05 0.11466636D+05 0.12613448D+01  1  2  6  2  5  2        2 0.334921936259D+00 0.100000000000D+01
-.239780155913D-05 0.000000000000D+00 -.428323269053D-05 0.229527535604D-02 0.000000000000D+00  5 -1 21 25 24 -2 2 0.15354144D-02 0.36914306D+00 0.11466636D+05 0.11466636D+05 0.11466636D+05 0.12613448D+01  1  2  5  4  5  2        2 -.501013477172D-03 0.100000000000D+01
  </mgrwgt>
  </event>
  <event>
  5     66 0.45252658E-03 0.11840426E+03 0.75467711E-02 0.11683905E+00
       21 -1    0    0  502  501 0.00000000E+00 0.00000000E+00 0.14062885E+02 0.14082871E+02 0.75000000E+00 0.0000E+00 0.9000E+01
        2 -1    0    0  501    0 0.00000000E+00 0.00000000E+00 -.27453376E+04 0.27453376E+04 0.32000000E+00 0.0000E+00 0.9000E+01
       25  1    1    2    0    0 -.94657739E+02 0.41921362E+02 -.88077235E+03 0.89560171E+03 0.12500000E+03 0.0000E+00 0.9000E+01
       24  1    1    2    0    0 -.70905862E+01 -.49089727E+02 -.13339439E+04 0.13372859E+04 0.80419002E+02 0.0000E+00 0.9000E+01
        1  1    1    2  502    0 0.10174833E+03 0.71683648E+01 -.51655848E+03 0.52653288E+03 0.32000000E+00 0.0000E+00 0.9000E+01
#aMCatNLO 2  0  0  1  2 0.10200053D+03 0.00000000D+00  -5  5  0 0.00000000D+00 0.00000000D+00 0.00000000D+00 0.00000000D+00 0.00000000D+00
  <mgrwgt>
 0.1018909374D+00    2    2    0
 0.132679096158908D+03 0.000000000000000D+00 0.000000000000000D+00 0.132679096158908D+03
 0.132679096158908D+03 0.000000000000000D+00 0.000000000000000D+00 -.132679096158908D+03
 0.149934610235257D+03 -.349192563578084D+02 0.461300528144493D+02 0.592288030366334D+02
 0.115423582082558D+03 0.349192563578084D+02 -.461300528144493D+02 -.592288030366334D+02
 0.000000000000000D+00 0.000000000000000D+00 0.000000000000000D+00 0.000000000000000D+00
 0.220166797968590D+03 0.000000000000000D+00 0.000000000000000D+00 0.220166797968590D+03
 0.175480013844965D+03 0.000000000000000D+00 0.000000000000000D+00 -.175480013844965D+03
 0.172773086206805D+03 -.946577393251589D+02 0.419213620260842D+02 0.592288030366334D+02
 0.111513876983873D+03 -.709058624142980D+01 -.490897268601514D+02 -.592288030366334D+02
 0.111359848622878D+03 0.101748325566589D+03 0.716836483406718D+01 0.446867841236248D+02
-.238691553212D-06 0.000000000000D+00 0.000000000000D+00 0.212703251918D-02 0.000000000000D+00  5 21 2 25 24 1 2 0.22637177D-02 0.31934366D+00 0.32182310D+05 0.32182310D+05 0.32182310D+05 0.12117107D+01  1  2 13  3  5  1       -1 -.310859445806D-02 0.100000000000D+01
0.171273202120D-04 0.000000000000D+00 0.000000000000D+00 0.212703251918D-02 0.175050482727D-06  5 21 2 25 24 1 2 0.21650569D-02 0.42236065D+00 0.32182310D+05 0.32182310D+05 0.32182310D+05 0.12117107D+01  1  2  1  3  5  1       -1 0.104999531872D+00 0.100000000000D+01
  </mgrwgt>
  </event>
  <event>
  4     66 0.45252658E-03 0.12389727E+03 0.75467711E-02 0.12238870E+00
       -1 -1    0    0    0  501 0.00000000E+00 0.00000000E+00 0.84103336E+01 0.84164191E+01 0.32000000E+00 0.0000E+00 0.9000E+01
        2 -1    0    0  501    0 0.00000000E+00 0.00000000E+00 -.18805832E+04 0.18805832E+04 0.32000000E+00 0.0000E+00 0.9000E+01
       25  1    1    2    0    0 0.48500715E+02 -.47891165E+02 -.91024777E+03 0.92131531E+03 0.12500000E+03 0.0000E+00 0.9000E+01
       24  1    1    2    0    0 -.48500715E+02 0.47891165E+02 -.96192510E+03 0.96768435E+03 0.80419002E+02 0.0000E+00 0.9000E+01
#aMCatNLO 1  0  0  2  2 0.16566030D+02 0.00000000D+00  -5  5  0 0.00000000D+00 0.00000000D+00 0.00000000D+00 0.00000000D+00 0.00000000D+00
  <mgrwgt>
 0.4496308568D+00    4    2    0
 0.125785951384696D+03 0.000000000000000D+00 0.000000000000000D+00 0.125785951384696D+03
 0.125785951384696D+03 0.000000000000000D+00 0.000000000000000D+00 -.125785951384696D+03
 0.143987077871433D+03 0.485007151639869D+02 -.478911653722242D+02 0.214801187572637D+02
 0.107584824897959D+03 -.485007151639869D+02 0.478911653722242D+02 -.214801187572637D+02
 0.000000000000000D+00 -.000000000000000D+00 0.000000000000000D+00 0.000000000000000D+00
 0.195553783630491D+03 0.000000000000000D+00 0.000000000000000D+00 0.195553783630491D+03
 0.127045610567268D+03 0.000000000000000D+00 0.000000000000000D+00 -.127045610567268D+03
 0.148549578595447D+03 0.528134032559184D+02 -.564918245021909D+02 0.214801187572637D+02
 0.103567171387656D+03 -.453878310865973D+02 0.416832379056360D+02 -.214801187572637D+02
 0.704826442146573D+02 -.742557216932110D+01 0.148085865965549D+02 0.685081730632230D+02
0.376830178224D-03 0.000000000000D+00 0.000000000000D+00 0.261449257908D-02 0.000000000000D+00  5 -1 2 25 24 21 0 0.12943677D-02 0.28932096D+00 0.15350533D+05 0.15350533D+05 0.15350533D+05 0.12466805D+01  1  2  2  2  5  2        2 0.464074077946D+00 0.100000000000D+01
-.209291838966D-04 0.000000000000D+00 -.144712710604D-05 0.261449257908D-02 0.000000000000D+00  5 -1 2 25 24 21 2 0.12943677D-02 0.28932096D+00 0.15350533D+05 0.15350533D+05 0.15350533D+05 0.12466805D+01  1  2  3  2  5  2        2 -.400593817476D-01 0.100000000000D+01
0.260595962563D-04 0.000000000000D+00 0.000000000000D+00 0.261449257908D-02 0.000000000000D+00  5 -1 2 25 24 21 2 0.12943677D-02 0.28932096D+00 0.15350533D+05 0.15350533D+05 0.15350533D+05 0.12466805D+01  1  2 15  2  5  2        2 0.498792174496D-01 0.100000000000D+01
-.126763309011D-04 0.000000000000D+00 0.000000000000D+00 0.261449257908D-02 0.000000000000D+00  5 -1 2 25 24 21 2 0.12943677D-02 0.28932096D+00 0.15350533D+05 0.15350533D+05 0.15350533D+05 0.12466805D+01  1  2  4  2  5  2        2 -.242630568510D-01 0.100000000000D+01
  </mgrwgt>
  </event>
  <event>
  4     66 0.45252658E-03 0.49271597E+02 0.75467711E-02 0.12486422E+00
       -1 -1    0    0    0  501 0.00000000E+00 0.00000000E+00 0.81064331E+03 0.81064338E+03 0.32000000E+00 0.0000E+00 0.9000E+01
        2 -1    0    0  501    0 0.00000000E+00 0.00000000E+00 -.15774675E+02 0.15777920E+02 0.32000000E+00 0.0000E+00 0.9000E+01
       25  1    1    2    0    0 -.79691676E+01 0.45581100E+02 0.45613788E+03 0.47521354E+03 0.12500000E+03 0.0000E+00 0.9000E+01
       24  1    1    2    0    0 0.79691676E+01 -.45581100E+02 0.33873076E+03 0.35120776E+03 0.80419002E+02 0.0000E+00 0.9000E+01
#aMCatNLO 1  0  0  1  2 0.72141987D+01 0.00000000D+00  -5  5  0 0.00000000D+00 0.00000000D+00 0.00000000D+00 0.00000000D+00 0.00000000D+00
  <mgrwgt>
 0.3061291627D+00   11    2    0
 0.113088468036527D+03 0.000000000000000D+00 0.000000000000000D+00 0.113088468036527D+03
 0.113088468036527D+03 0.000000000000000D+00 0.000000000000000D+00 -.113088468036527D+03
 0.133333202545335D+03 -.796916757506385D+01 0.455811004246018D+02 -.340566487464347D+01
 0.928437335277185D+02 0.796916757506385D+01 -.455811004246018D+02 0.340566487464347D+01
 0.000000000000000D+00 0.000000000000000D+00 0.000000000000000D+00 0.000000000000000D+00
 0.132680802730711D+03 0.000000000000000D+00 0.000000000000000D+00 0.132680802730711D+03
 0.113812029759640D+03 0.000000000000000D+00 0.000000000000000D+00 -.113812029759640D+03
 0.133111798413152D+03 -.119294144714970D+02 0.440436305714297D+02 -.340566487464347D+01
 0.931801613975731D+02 0.520424216873182D+01 -.466545156862446D+02 0.340566487464347D+01
 0.202008726796257D+02 0.672517230276513D+01 0.261088511481495D+01 0.188687729710706D+02
0.726458319329D-03 0.000000000000D+00 0.000000000000D+00 0.292973605801D-02 0.000000000000D+00  5 -1 2 25 24 21 0 0.12471461D+00 0.24271275D-02 0.12777019D+05 0.12777019D+05 0.12777019D+05 0.12558431D+01  1  2  2  1  5  1       -1 0.199865845855D+00 0.100000000000D+01
-.403587847382D-04 0.000000000000D+00 -.278979122709D-05 0.292973605801D-02 0.000000000000D+00  5 -1 2 25 24 21 2 0.12471461D+00 0.24271275D-02 0.12777019D+05 0.12777019D+05 0.12777019D+05 0.12558431D+01  1  2  3  1  5  1       -1 -.175120403969D-01 0.100000000000D+01
0.502556591974D-04 0.000000000000D+00 0.000000000000D+00 0.292973605801D-02 0.000000000000D+00  5 -1 2 25 24 21 2 0.12471461D+00 0.24271275D-02 0.12777019D+05 0.12777019D+05 0.12777019D+05 0.12558431D+01  1  2 15  1  5  1       -1 0.218063834118D-01 0.100000000000D+01
0.651095843125D-02 0.000000000000D+00 0.000000000000D+00 0.292973605801D-02 0.000000000000D+00  5 -1 2 25 24 21 2 0.14667640D+00 0.24271275D-02 0.13618928D+05 0.13618928D+05 0.13618928D+05 0.12526332D+01  1  2 12  1  5  1       -1 0.188889169730D+01 0.100000000000D+01
-.671526190907D-02 0.000000000000D+00 0.000000000000D+00 0.292973605801D-02 0.000000000000D+00  5 -1 2 25 24 21 2 0.12471461D+00 0.24271275D-02 0.12777019D+05 0.12777019D+05 0.12777019D+05 0.12558431D+01  1  2  4  1  5  1       -1 -.291381265789D+01 0.100000000000D+01
-.807080306393D-02 0.000000000000D+00 -.504302975928D-03 0.292973605801D-02 0.000000000000D+00  5 -1 2 25 24 21 2 0.14672179D+00 0.24271275D-02 0.12777019D+05 0.12777019D+05 0.12777019D+05 0.12558431D+01  1  2  5  1  5  1       -1 -.234781060038D+01 0.100000000000D+01
0.805277479891D-02 0.000000000000D+00 0.497716265521D-03 0.292973605801D-02 0.000000000000D+00  5 -1 2 25 24 21 2 0.12471461D+00 0.24271275D-02 0.12777019D+05 0.12777019D+05 0.12777019D+05 0.12558431D+01  1  2  6  1  5  1       -1 0.349417155398D+01 0.100000000000D+01
0.195767595356D-03 0.000000000000D+00 0.000000000000D+00 0.292973605801D-02 0.477130107529D-03  5 -1 2 25 24 21 2 0.14632115D+00 0.24426567D-02 0.13618928D+05 0.13618928D+05 0.13618928D+05 0.12526332D+01  1  2 11  1  5  1       -1 0.566566484568D-01 0.100000000000D+01
0.158155963117D-03 0.000000000000D+00 0.000000000000D+00 0.292973605801D-02 0.000000000000D+00  5 21 2 25 24 1 2 0.14667640D+00 0.24271275D-02 0.13618928D+05 0.13618928D+05 0.13618928D+05 0.12526332D+01  1  2 12  3  5  1       -1 0.396915984795D+00 0.100000000000D+01
-.192305190924D-03 0.000000000000D+00 -.122685277821D-04 0.292973605801D-02 0.000000000000D+00  5 21 2 25 24 1 2 0.14672179D+00 0.24271275D-02 0.12777019D+05 0.12777019D+05 0.12777019D+05 0.12558431D+01  1  2  5  3  5  1       -1 -.484976841364D+00 0.100000000000D+01
0.476631944201D-05 0.000000000000D+00 0.000000000000D+00 0.292973605801D-02 0.115252705422D-04  5 21 2 25 24 1 2 0.14632115D+00 0.24426567D-02 0.13618928D+05 0.13618928D+05 0.13618928D+05 0.12526332D+01  1  2 11  3  5  1       -1 0.119331889004D-01 0.100000000000D+01
  </mgrwgt>
  </event>
  <event>
  4     66 0.45252658E-03 0.64530176E+02 0.75467711E-02 0.12436323E+00
       -1 -1    0    0    0  501 0.00000000E+00 0.00000000E+00 0.42703796E+01 0.42823524E+01 0.32000000E+00 0.0000E+00 0.9000E+01
        2 -1    0    0  501    0 0.00000000E+00 0.00000000E+00 -.28648104E+04 0.28648104E+04 0.32000000E+00 0.0000E+00 0.9000E+01
       25  1    1    2    0    0 0.12147630E+02 0.89579839E+01 -.21833584E+04 0.21869858E+04 0.12500000E+03 0.0000E+00 0.9000E+01
       24  1    1    2    0    0 -.12147630E+02 -.89579839E+01 -.67718156E+03 0.68210695E+03 0.80419002E+02 0.0000E+00 0.9000E+01
#aMCatNLO 1  0  0  2  1 0.29626156D+02 0.00000000D+00  -5  5  0 0.00000000D+00 0.00000000D+00 0.00000000D+00 0.00000000D+00 0.00000000D+00
  <mgrwgt>
 0.9011261208D+00    9    2    0
 0.110684366185831D+03 0.000000000000000D+00 0.000000000000000D+00 0.110684366185831D+03
 0.110684366185831D+03 0.000000000000000D+00 0.000000000000000D+00 -.110684366185831D+03
 0.131368823171957D+03 0.121476297461892D+02 0.895798393512472D+01 -.374827602632512D+02
 0.899999091997062D+02 -.121476297461892D+02 -.895798393512472D+01 0.374827602632512D+02
 0.000000000000000D+00 -.000000000000000D+00 -.000000000000000D+00 -.000000000000000D+00
 0.118563386620234D+03 0.000000000000000D+00 0.000000000000000D+00 0.118563386620234D+03
 0.143508289742242D+03 0.000000000000000D+00 0.000000000000000D+00 -.143508289742242D+03
 0.134397629263831D+03 0.211232269732264D+02 0.242193046354233D+02 -.374827602632512D+02
 0.889447644208573D+02 -.610422095015284D+01 0.131769994711205D+01 0.374827602632512D+02
 0.387292826777870D+02 -.150190060230736D+02 -.255370045825353D+02 -.249449031220084D+02
0.530437912399D-03 0.000000000000D+00 0.000000000000D+00 0.270448950708D-02 0.000000000000D+00  5 -1 2 25 24 21 0 0.65790384D-03 0.44074098D+00 0.10788051D+05 0.10788051D+05 0.10788051D+05 0.12644796D+01  1  2  2  2  5  2        2 0.515158921536D+00 0.100000000000D+01
-.293239096029D-04 0.000000000000D+00 -.203702125112D-05 0.270448950708D-02 0.000000000000D+00  5 -1 2 25 24 21 2 0.65790384D-03 0.44074098D+00 0.10788051D+05 0.10788051D+05 0.10788051D+05 0.12644796D+01  1  2  3  2  5  2        2 -.455357156474D-01 0.100000000000D+01
0.361239889992D-04 0.000000000000D+00 0.000000000000D+00 0.270448950708D-02 0.000000000000D+00  5 -1 2 25 24 21 2 0.65790384D-03 0.44074098D+00 0.10788051D+05 0.10788051D+05 0.10788051D+05 0.12644796D+01  1  2 15  2  5  2        2 0.560952380973D-01 0.100000000000D+01
0.497067009694D-03 0.000000000000D+00 0.000000000000D+00 0.270448950708D-02 0.000000000000D+00  5 -1 2 25 24 21 2 0.65790384D-03 0.58366010D+00 0.14322372D+05 0.14322372D+05 0.14322372D+05 0.12501178D+01  1  2 12  2  5  2        2 0.199972766984D+00 0.100000000000D+01
-.526803993055D-03 0.000000000000D+00 0.000000000000D+00 0.270448950708D-02 0.000000000000D+00  5 -1 2 25 24 21 2 0.65790384D-03 0.44074098D+00 0.10788051D+05 0.10788051D+05 0.10788051D+05 0.12644796D+01  1  2  4  2  5  2        2 -.818049064893D+00 0.100000000000D+01
-.842861916537D-03 0.000000000000D+00 -.204037435146D-03 0.270448950708D-02 0.000000000000D+00  5 -1 2 25 24 21 2 0.65790384D-03 0.57993996D+00 0.10788051D+05 0.10788051D+05 0.10788051D+05 0.12644796D+01  1  2  5  2  5  2        2 -.362214862829D+00 0.100000000000D+01
0.873217044641D-03 0.000000000000D+00 0.196586192827D-03 0.270448950708D-02 0.000000000000D+00  5 -1 2 25 24 21 2 0.65790384D-03 0.44074098D+00 0.10788051D+05 0.10788051D+05 0.10788051D+05 0.12644796D+01  1  2  6  2  5  2        2 0.135597754807D+01 0.100000000000D+01
0.183182061988D-04 0.000000000000D+00 0.000000000000D+00 0.270448950708D-02 0.000000000000D+00  5 -1 21 25 24 -2 2 0.65790384D-03 0.58366010D+00 0.14322372D+05 0.14322372D+05 0.14322372D+05 0.12501178D+01  1  2 12  4  5  2        2 0.435215374829D-03 0.100000000000D+01
-.265684787983D-04 0.000000000000D+00 -.739436679441D-05 0.270448950708D-02 0.000000000000D+00  5 -1 21 25 24 -2 2 0.65790384D-03 0.57993996D+00 0.10788051D+05 0.10788051D+05 0.10788051D+05 0.12644796D+01  1  2  5  4  5  2        2 -.713925917959D-03 0.100000000000D+01
  </mgrwgt>
  </event>
  <event>
  4     66 0.45252658E-03 0.53584068E+02 0.75467711E-02 0.12538926E+00
       -1 -1    0    0    0  501 0.00000000E+00 0.00000000E+00 0.59602986E+02 0.59603845E+02 0.32000000E+00 0.0000E+00 0.9000E+01
        2 -1    0    0  501    0 0.00000000E+00 0.00000000E+00 -.20084443E+03 0.20084468E+03 0.32000000E+00 0.0000E+00 0.9000E+01
       25  1    1    2    0    0 -.12570995E+02 -.34703058E+02 -.84955511E+02 0.15557883E+03 0.12500000E+03 0.0000E+00 0.9000E+01
       24  1    1    2    0    0 0.12570995E+02 0.34703058E+02 -.56285929E+02 0.10486970E+03 0.80419002E+02 0.0000E+00 0.9000E+01
#aMCatNLO 1  0  0  2  1 0.83906843D+01 0.00000000D+00  -5  5  0 0.00000000D+00 0.00000000D+00 0.00000000D+00 0.00000000D+00 0.00000000D+00
  <mgrwgt>
 0.3912515696D+00   11    2    0
 0.109412396435717D+03 0.000000000000000D+00 0.000000000000000D+00 0.109412396435717D+03
 0.109412396435717D+03 0.000000000000000D+00 0.000000000000000D+00 -.109412396435717D+03
 0.130337319808111D+03 -.125709945494434D+02 -.347030581452145D+02 -.696265875650494D+00
 0.884874730633235D+02 0.125709945494434D+02 0.347030581452145D+02 0.696265875650494D+00
 0.000000000000000D+00 -.000000000000000D+00 0.000000000000000D+00 -.000000000000000D+00
 0.113462794227679D+03 0.000000000000000D+00 0.000000000000000D+00 0.113462794227679D+03
 0.113926282792556D+03 0.000000000000000D+00 0.000000000000000D+00 -.113926282792556D+03
 0.131255115089365D+03 -.972561167971753D+01 -.388308244621216D+02 -.696265875650494D+00
 0.877304861689327D+02 0.144877455546245D+02 0.319224480834668D+02 0.696265875650494D+00
 0.840347576193706D+01 -.476213387490692D+01 0.690837637865481D+01 -.463488564877271D+00
0.127833713026D-03 0.000000000000D+00 0.000000000000D+00 0.302779276677D-02 0.000000000000D+00  5 -1 2 25 24 21 0 0.91697758D-02 0.30899228D-01 0.11970569D+05 0.11970569D+05 0.11970569D+05 0.12591491D+01  1  2  2  2  5  2        2 0.158972631304D+00 0.100000000000D+01
-.710187294209D-05 0.000000000000D+00 -.490915117410D-06 0.302779276677D-02 0.000000000000D+00  5 -1 2 25 24 21 2 0.91697758D-02 0.30899228D-01 0.11970569D+05 0.11970569D+05 0.11970569D+05 0.12591491D+01  1  2  3  2  5  2        2 -.140024549430D-01 0.100000000000D+01
0.882961819394D-05 0.000000000000D+00 0.000000000000D+00 0.302779276677D-02 0.000000000000D+00  5 -1 2 25 24 21 2 0.91697758D-02 0.30899228D-01 0.11970569D+05 0.11970569D+05 0.11970569D+05 0.12591491D+01  1  2 15  2  5  2        2 0.174089753411D-01 0.100000000000D+01
0.330257350996D-03 0.000000000000D+00 0.000000000000D+00 0.302779276677D-02 0.000000000000D+00  5 -1 2 25 24 21 2 0.91697758D-02 0.32723853D-01 0.12924470D+05 0.12924470D+05 0.12924470D+05 0.12552641D+01  1  2 12  2  5  2        2 0.610529483977D+00 0.100000000000D+01
-.264620057589D-03 0.000000000000D+00 0.000000000000D+00 0.302779276677D-02 0.000000000000D+00  5 -1 2 25 24 21 2 0.91697758D-02 0.30899228D-01 0.11970569D+05 0.11970569D+05 0.11970569D+05 0.12591491D+01  1  2  4  2  5  2        2 -.521739893633D+00 0.100000000000D+01
-.153130403042D-02 0.000000000000D+00 -.275594818565D-03 0.302779276677D-02 0.000000000000D+00  5 -1 2 25 24 21 2 0.91697758D-02 0.33285723D-01 0.11970569D+05 0.11970569D+05 0.11970569D+05 0.12591491D+01  1  2  5  2  5  2        2 -.278815966156D+01 0.100000000000D+01
0.154828168821D-02 0.000000000000D+00 0.274833869154D-03 0.302779276677D-02 0.000000000000D+00  5 -1 2 25 24 21 2 0.91697758D-02 0.30899228D-01 0.11970569D+05 0.11970569D+05 0.11970569D+05 0.12591491D+01  1  2  6  2  5  2        2 0.305267987122D+01 0.100000000000D+01
0.514674967552D-06 0.000000000000D+00 0.000000000000D+00 0.302779276677D-02 0.361927557224D-03  5 -1 2 25 24 21 2 0.95092368D-02 0.32173998D-01 0.12924470D+05 0.12924470D+05 0.12924470D+05 0.12552641D+01  1  2 11  2  5  2        2 0.917005821798D-03 0.100000000000D+01
0.367341942755D-05 0.000000000000D+00 0.000000000000D+00 0.302779276677D-02 0.000000000000D+00  5 -1 21 25 24 -2 2 0.91697758D-02 0.32723853D-01 0.12924470D+05 0.12924470D+05 0.12924470D+05 0.12552641D+01  1  2 12  4  5  2        2 0.318683873530D-01 0.100000000000D+01
-.186503933124D-04 0.000000000000D+00 -.345021927413D-05 0.302779276677D-02 0.000000000000D+00  5 -1 21 25 24 -2 2 0.91697758D-02 0.33285723D-01 0.11970569D+05 0.11970569D+05 0.11970569D+05 0.12591491D+01  1  2  5  4  5  2        2 -.157281900114D+00 0.100000000000D+01
0.696782326194D-08 0.000000000000D+00 0.000000000000D+00 0.302779276677D-02 0.264493117513D-05  5 -1 21 25 24 -2 2 0.95092368D-02 0.32173998D-01 0.12924470D+05 0.12924470D+05 0.12924470D+05 0.12552641D+01  1  2 11  4  5  2        2 0.591247933123D-04 0.100000000000D+01
  </mgrwgt>
  </event>
  <event>
  4     66 0.45252658E-03 0.16797337E+03 0.75467711E-02 0.11257489E+00
       -1 -1    0    0    0  501 0.00000000E+00 0.00000000E+00 0.44297471E+02 0.44298627E+02 0.32000000E+00 0.0000E+00 0.9000E+01
        2 -1    0    0  501    0 0.00000000E+00 0.00000000E+00 -.64189583E+03 0.64189591E+03 0.32000000E+00 0.0000E+00 0.9000E+01
       25  1    1    2    0    0 0.20212997E+02 -.13017738E+03 -.29279519E+03 0.34454134E+03 0.12500000E+03 0.0000E+00 0.9000E+01
       24  1    1    2    0    0 -.20212997E+02 0.13017738E+03 -.30480317E+03 0.34165319E+03 0.80419002E+02 0.0000E+00 0.9000E+01
#aMCatNLO 1  0  0  1  2 0.10928573D+03 0.00000000D+00  -5  5  0 0.00000000D+00 0.00000000D+00 0.00000000D+00 0.00000000D+00 0.00000000D+00
  <mgrwgt>
 0.4522507670D+00    3    2    0
 0.168626172193836D+03 0.000000000000000D+00 0.000000000000000D+00 0.168626172193836D+03
 0.168626172193836D+03 0.000000000000000D+00 0.000000000000000D+00 -.168626172193836D+03
 0.182203222432370D+03 0.202129967933297D+02 -.130177379818254D+03 0.147749385456096D+02
 0.155049121955303D+03 -.202129967933297D+02 0.130177379818254D+03 -.147749385456096D+02
 0.000000000000000D+00 0.000000000000000D+00 -.000000000000000D+00 -.000000000000000D+00
 0.208330231758378D+03 0.000000000000000D+00 0.000000000000000D+00 0.208330231758378D+03
 0.273354253867095D+03 0.000000000000000D+00 0.000000000000000D+00 -.273354253867095D+03
 0.150545683166382D+03 -.206071967464805D+01 -.825618395230430D+02 0.147749385456096D+02
 0.203971614180844D+03 -.442453104937513D+02 0.181552353681944D+03 -.147749385456096D+02
 0.127167188278247D+03 0.463060301683994D+02 -.989905141589005D+02 -.650240221087164D+02
0.778705548215D-03 0.000000000000D+00 0.000000000000D+00 0.227135410640D-02 0.000000000000D+00  5 -1 2 25 24 21 0 0.68150907D-02 0.98753299D-01 0.28215052D+05 0.28215052D+05 0.28215052D+05 0.12177044D+01  1  2  2  1  5  1       -1 0.443557779680D+00 0.100000000000D+01
-.432606279648D-04 0.000000000000D+00 -.299043434303D-05 0.227135410640D-02 0.000000000000D+00  5 -1 2 25 24 21 2 0.68150907D-02 0.98753299D-01 0.28215052D+05 0.28215052D+05 0.28215052D+05 0.12177044D+01  1  2  3  1  5  1       -1 -.365387336866D-01 0.100000000000D+01
0.535528316899D-04 0.000000000000D+00 0.000000000000D+00 0.227135410640D-02 0.000000000000D+00  5 -1 2 25 24 21 2 0.68150907D-02 0.98753299D-01 0.28215052D+05 0.28215052D+05 0.28215052D+05 0.12177044D+01  1  2 15  1  5  1       -1 0.452317210206D-01 0.100000000000D+01
  </mgrwgt>
  </event>
  <event>
  4     66 0.45252658E-03 0.90230467E+02 0.75467711E-02 0.11494300E+00
       -1 -1    0    0    0  501 0.00000000E+00 0.00000000E+00 0.98923710E+01 0.98975454E+01 0.32000000E+00 0.0000E+00 0.9000E+01
        2 -1    0    0  501    0 0.00000000E+00 0.00000000E+00 -.29490463E+04 0.29490464E+04 0.32000000E+00 0.0000E+00 0.9000E+01
       25  1    1    2    0    0 0.77123491E+02 -.11100487E+03 -.15273339E+04 0.15383901E+04 0.12500000E+03 0.0000E+00 0.9000E+01
       24  1    1    2    0    0 -.77123491E+02 0.11100487E+03 -.14118201E+04 0.14205538E+04 0.80419002E+02 0.0000E+00 0.9000E+01
#aMCatNLO 1  0  0  2  1 0.54950447D+02 0.00000000D+00  -5  5  0 0.00000000D+00 0.00000000D+00 0.00000000D+00 0.00000000D+00 0.00000000D+00
  <mgrwgt>
 0.7002539895D+00    9    2    0
 0.170823714749801D+03 0.000000000000000D+00 0.000000000000000D+00 0.170823714749801D+03
 0.170823714749801D+03 0.000000000000000D+00 0.000000000000000D+00 -.170823714749801D+03
 0.184226104545390D+03 0.771234908630447D+02 -.111004874619571D+03 0.664398703793548D+01
 0.157421324954212D+03 -.771234908630447D+02 0.111004874619571D+03 -.664398703793548D+01
 0.000000000000000D+00 0.000000000000000D+00 0.000000000000000D+00 -.000000000000000D+00
 0.188656181843821D+03 0.000000000000000D+00 0.000000000000000D+00 0.188656181843821D+03
 0.221294838960098D+03 0.000000000000000D+00 0.000000000000000D+00 -.221294838960098D+03
 0.177350836083653D+03 0.486383491394219D+02 -.115838195293271D+03 0.664398703793548D+01
 0.168687482161212D+03 -.102814442204808D+03 0.106645668425269D+03 -.664398703793548D+01
 0.639127025590547D+02 0.541760930653861D+02 0.919252686800201D+01 -.326386571162768D+02
0.151395139691D-02 0.000000000000D+00 0.000000000000D+00 0.227316923300D-02 0.000000000000D+00  5 -1 2 25 24 21 0 0.15223026D-02 0.45369984D+00 0.29136325D+05 0.29136325D+05 0.29136325D+05 0.12162321D+01  1  2  2  2  5  2        2 0.397792062020D+00 0.100000000000D+01
-.841083516175D-04 0.000000000000D+00 -.581397199670D-05 0.227316923300D-02 0.000000000000D+00  5 -1 2 25 24 21 2 0.15223026D-02 0.45369984D+00 0.29136325D+05 0.29136325D+05 0.29136325D+05 0.12162321D+01  1  2  3  2  5  2        2 -.326901007549D-01 0.100000000000D+01
0.103983635701D-03 0.000000000000D+00 0.000000000000D+00 0.227316923300D-02 0.000000000000D+00  5 -1 2 25 24 21 2 0.15223026D-02 0.45369984D+00 0.29136325D+05 0.29136325D+05 0.29136325D+05 0.12162321D+01  1  2 15  2  5  2        2 0.404149583549D-01 0.100000000000D+01
0.101185416475D-02 0.000000000000D+00 0.000000000000D+00 0.227316923300D-02 0.000000000000D+00  5 -1 2 25 24 21 2 0.15223026D-02 0.60604847D+00 0.40146810D+05 0.40146810D+05 0.40146810D+05 0.12018387D+01  1  2 12  2  5  2        2 0.864899305087D-01 0.100000000000D+01
-.109265692613D-02 0.000000000000D+00 0.000000000000D+00 0.227316923300D-02 0.000000000000D+00  5 -1 2 25 24 21 2 0.15223026D-02 0.45369984D+00 0.29136325D+05 0.29136325D+05 0.29136325D+05 0.12162321D+01  1  2  4  2  5  2        2 -.424679170605D+00 0.100000000000D+01
-.202532955648D-02 0.000000000000D+00 -.559427047747D-03 0.227316923300D-02 0.000000000000D+00  5 -1 2 25 24 21 2 0.15223026D-02 0.60049507D+00 0.29136325D+05 0.29136325D+05 0.29136325D+05 0.12162321D+01  1  2  5  2  5  2        2 -.190750779010D+00 0.100000000000D+01
0.211960503218D-02 0.000000000000D+00 0.538144917727D-03 0.227316923300D-02 0.000000000000D+00  5 -1 2 25 24 21 2 0.15223026D-02 0.45369984D+00 0.29136325D+05 0.29136325D+05 0.29136325D+05 0.12162321D+01  1  2  6  2  5  2        2 0.823819522440D+00 0.100000000000D+01
0.381204646994D-04 0.000000000000D+00 0.000000000000D+00 0.227316923300D-02 0.000000000000D+00  5 -1 21 25 24 -2 2 0.15223026D-02 0.60604847D+00 0.40146810D+05 0.40146810D+05 0.40146810D+05 0.12018387D+01  1  2 12  4  5  2        2 0.148427175394D-03 0.100000000000D+01
-.632572999848D-04 0.000000000000D+00 -.205873698996D-04 0.227316923300D-02 0.000000000000D+00  5 -1 21 25 24 -2 2 0.15223026D-02 0.60049507D+00 0.29136325D+05 0.29136325D+05 0.29136325D+05 0.12162321D+01  1  2  5  4  5  2        2 -.290860672347D-03 0.100000000000D+01
  </mgrwgt>
  </event>
  <event>
  4     66 0.45252658E-03 0.11047228E+03 0.75467711E-02 0.11907028E+00
       -1 -1    0    0    0  501 0.00000000E+00 0.00000000E+00 0.32382500E+03 0.32382516E+03 0.32000000E+00 0.0000E+00 0.9000E+01
        2 -1    0    0  501    0 0.00000000E+00 0.00000000E+00 -.42481888E+02 0.42483093E+02 0.32000000E+00 0.0000E+00 0.9000E+01
       25  1    1    2    0    0 0.26722339E+02 -.29553747E+02 0.22464832E+03 0.26015260E+03 0.12500000E+03 0.0000E+00 0.9000E+01
       24  1    1    2    0    0 -.26722339E+02 0.29553747E+02 0.56694799E+02 0.10615566E+03 0.80419002E+02 0.0000E+00 0.9000E+01
#aMCatNLO 1  0  0  1  1 0.80951366D+02 0.00000000D+00  -5  5  0 0.00000000D+00 0.00000000D+00 0.00000000D+00 0.00000000D+00 0.00000000D+00
  <mgrwgt>
 0.3447920845D+00    3    2    0
 0.117290012471136D+03 0.000000000000000D+00 0.000000000000000D+00 0.117290012471136D+03
 0.117290012471136D+03 0.000000000000000D+00 0.000000000000000D+00 -.117290012471136D+03
 0.136809543274927D+03 0.267223385000510D+02 -.295537474281066D+02 0.387858707410125D+02
 0.977704816673452D+02 -.267223385000510D+02 0.295537474281066D+02 -.387858707410125D+02
 0.000000000000000D+00 0.000000000000000D+00 0.000000000000000D+00 -.000000000000000D+00
 0.142963295071280D+03 0.000000000000000D+00 0.000000000000000D+00 0.142963295071280D+03
 0.210824270252405D+03 0.000000000000000D+00 0.000000000000000D+00 -.210824270252405D+03
 0.138650550099084D+03 -.177044773847518D+02 -.422040608730132D+02 0.387858707410125D+02
 0.109504465420464D+03 -.601521024960255D+02 0.200347894628342D+02 -.387858707410125D+02
 0.105632549804137D+03 0.778565798807774D+02 0.221692714101790D+02 -.678609751811258D+02
0.687839610484D-03 0.000000000000D+00 0.000000000000D+00 0.257095885880D-02 0.000000000000D+00  5 -1 2 25 24 21 0 0.49819336D-01 0.65357799D-02 0.12204124D+05 0.12204124D+05 0.12204124D+05 0.12581665D+01  1  2  2  1  5  1       -1 0.337369751196D+00 0.100000000000D+01
-.380466897442D-04 0.000000000000D+00 -.264148521659D-05 0.257095885880D-02 0.000000000000D+00  5 -1 2 25 24 21 2 0.49819336D-01 0.65357799D-02 0.12204124D+05 0.12204124D+05 0.12204124D+05 0.12581665D+01  1  2  3  1  5  1       -1 -.295401068476D-01 0.100000000000D+01
0.476064118067D-04 0.000000000000D+00 0.000000000000D+00 0.257095885880D-02 0.000000000000D+00  5 -1 2 25 24 21 2 0.49819336D-01 0.65357799D-02 0.12204124D+05 0.12204124D+05 0.12204124D+05 0.12581665D+01  1  2 15  1  5  1       -1 0.369624401192D-01 0.100000000000D+01
  </mgrwgt>
  </event>
  <event>
  4     66 0.45252658E-03 0.54737368E+02 0.75467711E-02 0.12280684E+00
       -1 -1    0    0    0  501 0.00000000E+00 0.00000000E+00 0.10810449E+02 0.10815184E+02 0.32000000E+00 0.0000E+00 0.9000E+01
        2 -1    0    0  501    0 0.00000000E+00 0.00000000E+00 -.11165604E+04 0.11165605E+04 0.32000000E+00 0.0000E+00 0.9000E+01
       25  1    1    2    0    0 -.16017854E+02 -.12681430E+02 -.82346514E+03 0.83314898E+03 0.12500000E+03 0.0000E+00 0.9000E+01
       24  1    1    2    0    0 0.16017854E+02 0.12681430E+02 -.28228485E+03 0.29422668E+03 0.80419002E+02 0.0000E+00 0.9000E+01
#aMCatNLO 1  0  0  1  2 0.44753699D+02 0.00000000D+00  -5  5  0 0.00000000D+00 0.00000000D+00 0.00000000D+00 0.00000000D+00 0.00000000D+00
  <mgrwgt>
 0.5396341094D+00    9    2    0
 0.109878180340689D+03 0.000000000000000D+00 0.000000000000000D+00 0.109878180340689D+03
 0.109878180340689D+03 0.000000000000000D+00 0.000000000000000D+00 -.109878180340689D+03
 0.130714401001685D+03 -.160178542819418D+02 -.126814301587437D+02 -.323088889094130D+02
 0.890419596796922D+02 0.160178542819418D+02 0.126814301587437D+02 0.323088889094130D+02
 0.000000000000000D+00 0.000000000000000D+00 -.000000000000000D+00 0.000000000000000D+00
 0.139683958653737D+03 0.000000000000000D+00 0.000000000000000D+00 0.139683958653737D+03
 0.130308394416868D+03 0.000000000000000D+00 0.000000000000000D+00 -.130308394416868D+03
 0.131671766965629D+03 -.223547791920284D+02 0.129943741890753D+02 -.323088889094130D+02
 0.925953765191675D+02 0.116311056614744D+02 0.304555557638782D+02 0.323088889094130D+02
 0.457252095858086D+02 0.107236735305541D+02 -.434499299529534D+02 0.937556423686922D+01
0.195179068694D-03 0.000000000000D+00 0.000000000000D+00 0.279635640578D-02 0.000000000000D+00  5 -1 2 25 24 21 0 0.16635138D-02 0.17177890D+00 0.10986403D+05 0.10986403D+05 0.10986403D+05 0.12635408D+01  1  2  2  1  5  1       -1 0.417249157344D+00 0.100000000000D+01
-.108139530578D-04 0.000000000000D+00 -.749539015614D-06 0.279635640578D-02 0.000000000000D+00  5 -1 2 25 24 21 2 0.16635138D-02 0.17177890D+00 0.10986403D+05 0.10986403D+05 0.10986403D+05 0.12635408D+01  1  2  3  1  5  1       -1 -.369084023845D-01 0.100000000000D+01
0.133441995839D-04 0.000000000000D+00 0.000000000000D+00 0.279635640578D-02 0.000000000000D+00  5 -1 2 25 24 21 2 0.16635138D-02 0.17177890D+00 0.10986403D+05 0.10986403D+05 0.10986403D+05 0.12635408D+01  1  2 15  1  5  1       -1 0.455442228301D-01 0.100000000000D+01
0.721459557040D-04 0.000000000000D+00 0.000000000000D+00 0.279635640578D-02 0.000000000000D+00  5 -1 2 25 24 21 2 0.22344304D-02 0.17177890D+00 0.16793030D+05 0.16793030D+05 0.16793030D+05 0.12422706D+01  1  2 12  1  5  1       -1 0.158152183001D+00 0.100000000000D+01
-.860805931260D-04 0.000000000000D+00 0.000000000000D+00 0.279635640578D-02 0.000000000000D+00  5 -1 2 25 24 21 2 0.16635138D-02 0.17177890D+00 0.10986403D+05 0.10986403D+05 0.10986403D+05 0.12635408D+01  1  2  4  1  5  1       -1 -.293796093953D+00 0.100000000000D+01
-.149120651634D-03 0.000000000000D+00 -.725982999400D-04 0.279635640578D-02 0.000000000000D+00  5 -1 2 25 24 21 2 0.25336073D-02 0.17177890D+00 0.10986403D+05 0.10986403D+05 0.10986403D+05 0.12635408D+01  1  2  5  1  5  1       -1 -.278462871311D+00 0.100000000000D+01
0.170347227587D-03 0.000000000000D+00 0.666154110869D-04 0.279635640578D-02 0.000000000000D+00  5 -1 2 25 24 21 2 0.16635138D-02 0.17177890D+00 0.10986403D+05 0.10986403D+05 0.10986403D+05 0.12635408D+01  1  2  6  1  5  1       -1 0.581401083141D+00 0.100000000000D+01
0.275550468583D-05 0.000000000000D+00 0.000000000000D+00 0.279635640578D-02 0.000000000000D+00  5 21 2 25 24 1 2 0.22344304D-02 0.17177890D+00 0.16793030D+05 0.16793030D+05 0.16793030D+05 0.12422706D+01  1  2 12  3  5  1       -1 0.123235304272D+00 0.100000000000D+01
-.471701883709D-05 0.000000000000D+00 -.358686340354D-05 0.279635640578D-02 0.000000000000D+00  5 21 2 25 24 1 2 0.25336073D-02 0.17177890D+00 0.10986403D+05 0.10986403D+05 0.10986403D+05 0.12635408D+01  1  2  5  3  5  1       -1 -.176780473572D+00 0.100000000000D+01
  </mgrwgt>
  </event>
  <event>
  4     66 0.45252658E-03 0.56010597E+02 0.75467711E-02 0.12428314E+00
       -1 -1    0    0    0  501 0.00000000E+00 0.00000000E+00 0.48943544E+01 0.49048043E+01 0.32000000E+00 0.0000E+00 0.9000E+01
        2 -1    0    0  501    0 0.00000000E+00 0.00000000E+00 -.28839203E+04 0.28839204E+04 0.32000000E+00 0.0000E+00 0.9000E+01
       25  1    1    2    0    0 -.28070091E+02 -.35615870E+02 -.12183444E+04 0.12255792E+04 0.12500000E+03 0.0000E+00 0.9000E+01
       24  1    1    2    0    0 0.28070091E+02 0.35615870E+02 -.16606816E+04 0.16632459E+04 0.80419002E+02 0.0000E+00 0.9000E+01
#aMCatNLO 1  0  0  1  2 0.14509840D+02 0.00000000D+00  -5  5  0 0.00000000D+00 0.00000000D+00 0.00000000D+00 0.00000000D+00 0.00000000D+00
  <mgrwgt>
 0.1768377663D+00    9    2    0
 0.118869877703355D+03 0.000000000000000D+00 0.000000000000000D+00 0.118869877703355D+03
 0.118869877703355D+03 0.000000000000000D+00 0.000000000000000D+00 -.118869877703355D+03
 0.138129980057635D+03 -.280700908089879D+02 -.356158697887806D+02 0.373961389970467D+02
 0.996097753490749D+02 0.280700908089879D+02 0.356158697887806D+02 -.373961389970467D+02
 0.000000000000000D+00 0.000000000000000D+00 -.000000000000000D+00 0.000000000000000D+00
 0.128712110851693D+03 0.000000000000000D+00 0.000000000000000D+00 0.128712110851693D+03
 0.124561765774922D+03 0.000000000000000D+00 0.000000000000000D+00 -.124561765774922D+03
 0.137072563779821D+03 -.314026598595182D+02 -.279157568952376D+02 0.373961389970467D+02
 0.101109565630878D+03 0.256394771443564D+02 0.412319573580004D+02 -.373961389970467D+02
 0.150917472159160D+02 0.576318271516180D+01 -.133162004627628D+02 0.415034507677180D+01
0.466953383371D-03 0.000000000000D+00 0.000000000000D+00 0.256582175168D-02 0.000000000000D+00  5 -1 2 25 24 21 0 0.75378280D-03 0.44368086D+00 0.12689464D+05 0.12689464D+05 0.12689464D+05 0.12561905D+01  1  2  2  1  5  1       -1 0.365611416587D+00 0.100000000000D+01
-.258506757492D-04 0.000000000000D+00 -.179322394379D-05 0.256582175168D-02 0.000000000000D+00  5 -1 2 25 24 21 2 0.75378280D-03 0.44368086D+00 0.12689464D+05 0.12689464D+05 0.12689464D+05 0.12561905D+01  1  2  3  1  5  1       -1 -.319395764042D-01 0.100000000000D+01
0.322050394983D-04 0.000000000000D+00 0.000000000000D+00 0.256582175168D-02 0.000000000000D+00  5 -1 2 25 24 21 2 0.75378280D-03 0.44368086D+00 0.12689464D+05 0.12689464D+05 0.12689464D+05 0.12561905D+01  1  2 15  1  5  1       -1 0.397906549769D-01 0.100000000000D+01
0.649488589371D-03 0.000000000000D+00 0.000000000000D+00 0.256582175168D-02 0.000000000000D+00  5 -1 2 25 24 21 2 0.83304648D-03 0.44368086D+00 0.14438702D+05 0.14438702D+05 0.14438702D+05 0.12497152D+01  1  2 12  1  5  1       -1 0.689836587743D+00 0.100000000000D+01
-.593406535367D-03 0.000000000000D+00 0.000000000000D+00 0.256582175168D-02 0.000000000000D+00  5 -1 2 25 24 21 2 0.75378280D-03 0.44368086D+00 0.12689464D+05 0.12689464D+05 0.12689464D+05 0.12561905D+01  1  2  4  1  5  1       -1 -.733178256497D+00 0.100000000000D+01
-.177478503994D-02 0.000000000000D+00 -.405620193100D-03 0.256582175168D-02 0.000000000000D+00  5 -1 2 25 24 21 2 0.87295375D-03 0.44368086D+00 0.12689464D+05 0.12689464D+05 0.12689464D+05 0.12561905D+01  1  2  5  1  5  1       -1 -.178159784848D+01 0.100000000000D+01
0.181902212551D-02 0.000000000000D+00 0.401289759574D-03 0.256582175168D-02 0.000000000000D+00  5 -1 2 25 24 21 2 0.75378280D-03 0.44368086D+00 0.12689464D+05 0.12689464D+05 0.12689464D+05 0.12561905D+01  1  2  6  1  5  1       -1 0.224747688309D+01 0.100000000000D+01
0.105478361835D-04 0.000000000000D+00 0.000000000000D+00 0.256582175168D-02 0.000000000000D+00  5 21 2 25 24 1 2 0.83304648D-03 0.44368086D+00 0.14438702D+05 0.14438702D+05 0.14438702D+05 0.12497152D+01  1  2 12  3  5  1       -1 0.268592100214D+00 0.100000000000D+01
-.370704574458D-04 0.000000000000D+00 -.909107234290D-05 0.256582175168D-02 0.000000000000D+00  5 21 2 25 24 1 2 0.87295375D-03 0.44368086D+00 0.12689464D+05 0.12689464D+05 0.12689464D+05 0.12561905D+01  1  2  5  3  5  1       -1 -.887754194902D+00 0.100000000000D+01
  </mgrwgt>
  </event>
  <event>
  4     66 -.45252658E-03 0.92871341E+02 0.75467711E-02 0.12739275E+00
       -1 -1    0    0    0  501 0.00000000E+00 0.00000000E+00 0.13061204E+02 0.13065124E+02 0.32000000E+00 0.0000E+00 0.9000E+01
        2 -1    0    0  501    0 0.00000000E+00 0.00000000E+00 -.81284603E+03 0.81284610E+03 0.32000000E+00 0.0000E+00 0.9000E+01
       25  1    1    2    0    0 0.79881407E+01 -.14464507E+01 -.48566585E+03 0.50155979E+03 0.12500000E+03 0.0000E+00 0.9000E+01
       24  1    1    2    0    0 -.79881407E+01 0.14464507E+01 -.31411898E+03 0.32435143E+03 0.80419002E+02 0.0000E+00 0.9000E+01
#aMCatNLO 1  0  0  1  2 0.90484322D-01 0.00000000D+00  -5  5  0 0.00000000D+00 0.00000000D+00 0.00000000D+00 0.00000000D+00 0.00000000D+00
  <mgrwgt>
 -.1681019238D+00    9    2    0
 0.103045584676113D+03 0.000000000000000D+00 0.000000000000000D+00 0.103045584676113D+03
 0.103045584676113D+03 0.000000000000000D+00 0.000000000000000D+00 -.103045584676113D+03
 0.125263382931161D+03 0.798814070037552D+01 -.144645069268619D+01 0.111767183992580D+00
 0.808277864210651D+02 -.798814070037552D+01 0.144645069268619D+01 -.111767183992580D+00
 0.000000000000000D+00 0.000000000000000D+00 0.000000000000000D+00 0.000000000000000D+00
 0.103134280599739D+03 0.000000000000000D+00 0.000000000000000D+00 0.103134280599739D+03
 0.103068674387304D+03 0.000000000000000D+00 0.000000000000000D+00 -.103068674387304D+03
 0.125261909986582D+03 0.795668521590738D+01 -.149156359504154D+01 0.111767183992580D+00
 0.808292792292133D+02 -.800843805741482D+01 0.141734058035862D+01 -.111767183992580D+00
 0.111765771248074D+00 0.517528415074415D-01 0.742230146829202D-01 0.656062124342001D-01
0.138443024721D-04 0.000000000000D+00 0.000000000000D+00 0.323122315636D-02 0.000000000000D+00  5 -1 2 25 24 21 0 0.20097224D-02 0.12505354D+00 0.10618379D+05 0.10618379D+05 0.10618379D+05 0.12652981D+01  1  2  2  1  5  1       -1 0.344106537378D-01 0.100000000000D+01
-.769127915115D-06 0.000000000000D+00 -.531657667813D-07 0.323122315636D-02 0.000000000000D+00  5 -1 2 25 24 21 2 0.20097224D-02 0.12505354D+00 0.10618379D+05 0.10618379D+05 0.10618379D+05 0.12652981D+01  1  2  3  1  5  1       -1 -.306059706225D-02 0.100000000000D+01
0.954586117018D-06 0.000000000000D+00 0.000000000000D+00 0.323122315636D-02 0.000000000000D+00  5 -1 2 25 24 21 2 0.20097224D-02 0.12505354D+00 0.10618379D+05 0.10618379D+05 0.10618379D+05 0.12652981D+01  1  2 15  1  5  1       -1 0.379859241616D-02 0.100000000000D+01
-.402117972993D-02 0.000000000000D+00 0.000000000000D+00 0.323122315636D-02 0.000000000000D+00  5 -1 2 25 24 21 2 0.20097224D-02 0.12505354D+00 0.10618379D+05 0.10618379D+05 0.10618379D+05 0.12652981D+01  1  2  4  1  5  1       -1 -.160015136967D+02 0.100000000000D+01
-.229639570212D-01 0.000000000000D+00 -.149348617554D-02 0.323122315636D-02 0.000000000000D+00  5 -1 2 25 24 21 2 0.20119076D-02 0.12505354D+00 0.10618379D+05 0.10618379D+05 0.10618379D+05 0.12652981D+01  1  2  5  1  5  1       -1 -.912385548286D+02 0.100000000000D+01
0.229655673655D-01 0.000000000000D+00 0.149348529364D-02 0.323122315636D-02 0.000000000000D+00  5 -1 2 25 24 21 2 0.20097224D-02 0.12505354D+00 0.10618379D+05 0.10618379D+05 0.10618379D+05 0.12652981D+01  1  2  6  1  5  1       -1 0.913870718127D+02 0.100000000000D+01
0.402118131844D-02 0.000000000000D+00 0.000000000000D+00 0.323122315636D-02 0.336956440920D+01  5 -1 2 25 24 21 2 0.20114522D-02 0.12508156D+00 0.10627708D+05 0.10627708D+05 0.10627708D+05 0.12652528D+01  1  2 11  1  5  1       -1 0.159768855107D+02 0.100000000000D+01
-.467092078270D-05 0.000000000000D+00 -.303821423071D-06 0.323122315636D-02 0.000000000000D+00  5 21 2 25 24 1 2 0.20119076D-02 0.12505354D+00 0.10618379D+05 0.10618379D+05 0.10618379D+05 0.12652981D+01  1  2  5  3  5  1       -1 -.388137899259D+00 0.100000000000D+01
0.734035782045D-06 0.000000000000D+00 0.000000000000D+00 0.323122315636D-02 0.542939075397D-03  5 21 2 25 24 1 2 0.20114522D-02 0.12508156D+00 0.10627708D+05 0.10627708D+05 0.10627708D+05 0.12652528D+01  1  2 11  3  5  1       -1 0.609985282400D-01 0.100000000000D+01
  </mgrwgt>
  </event>
  <event>
  4     66 0.45252658E-03 0.82763828E+02 0.75467711E-02 0.12538154E+00
       -1 -1    0    0    0  501 0.00000000E+00 0.00000000E+00 0.17586195E+02 0.17589106E+02 0.32000000E+00 0.0000E+00 0.9000E+01
        2 -1    0    0  501    0 0.00000000E+00 0.00000000E+00 -.83070831E+03 0.83070837E+03 0.32000000E+00 0.0000E+00 0.9000E+01
       25  1    1    2    0    0 0.27196621E+02 -.15665013E+02 -.28007216E+03 0.30830255E+03 0.12500000E+03 0.0000E+00 0.9000E+01
       24  1    1    2    0    0 -.27196621E+02 0.15665013E+02 -.53304996E+03 0.53999493E+03 0.80419002E+02 0.0000E+00 0.9000E+01
#aMCatNLO 1  0  0  2  1 0.11996815D+02 0.00000000D+00  -5  5  0 0.00000000D+00 0.00000000D+00 0.00000000D+00 0.00000000D+00 0.00000000D+00
  <mgrwgt>
 0.4281627187D+00    9    2    0
 0.120872904627196D+03 0.000000000000000D+00 0.000000000000000D+00 0.120872904627196D+03
 0.120872904627196D+03 0.000000000000000D+00 0.000000000000000D+00 -.120872904627196D+03
 0.139813841129621D+03 0.271966210890059D+02 -.156650130033414D+02 0.542020418468265D+02
 0.101931968124772D+03 -.271966210890059D+02 0.156650130033414D+02 -.542020418468265D+02
 0.000000000000000D+00 -.000000000000000D+00 0.000000000000000D+00 -.000000000000000D+00
 0.122197542744085D+03 0.000000000000000D+00 0.000000000000000D+00 0.122197542744085D+03
 0.151620460809939D+03 0.000000000000000D+00 0.000000000000000D+00 -.151620460809939D+03
 0.140794128915676D+03 0.273567095276047D+02 -.226215790912400D+02 0.542020418468265D+02
 0.101249172719730D+03 -.270807050956531D+02 0.106279392742122D+02 -.542020418468265D+02
 0.317747019186176D+02 -.276004431951669D+00 0.119936398170279D+02 -.294229180658538D+02
0.184598863021D-03 0.000000000000D+00 0.000000000000D+00 0.228469557205D-02 0.000000000000D+00  5 -1 2 25 24 21 0 0.27057971D-02 0.12780151D+00 0.11578457D+05 0.11578457D+05 0.11578457D+05 0.12608484D+01  1  2  2  2  5  2        2 0.292307890413D+00 0.100000000000D+01
-.100868703805D-04 0.000000000000D+00 -.708908239998D-06 0.228469557205D-02 0.000000000000D+00  5 -1 2 25 24 21 2 0.27057971D-02 0.12780151D+00 0.11578457D+05 0.11578457D+05 0.11578457D+05 0.12608484D+01  1  2  3  2  5  2        2 -.253918104431D-01 0.100000000000D+01
0.126309539933D-04 0.000000000000D+00 0.000000000000D+00 0.228469557205D-02 0.000000000000D+00  5 -1 2 25 24 21 2 0.27057971D-02 0.12780151D+00 0.11578457D+05 0.11578457D+05 0.11578457D+05 0.12608484D+01  1  2 15  2  5  2        2 0.317960653223D-01 0.100000000000D+01
0.142471226366D-02 0.000000000000D+00 0.000000000000D+00 0.228469557205D-02 0.000000000000D+00  5 -1 2 25 24 21 2 0.27057971D-02 0.16089054D+00 0.12934376D+05 0.12934376D+05 0.12934376D+05 0.12552254D+01  1  2 12  2  5  2        2 0.263401324154D+01 0.100000000000D+01
-.141346879737D-02 0.000000000000D+00 0.000000000000D+00 0.228469557205D-02 0.000000000000D+00  5 -1 2 25 24 21 2 0.27057971D-02 0.12780151D+00 0.11578457D+05 0.11578457D+05 0.11578457D+05 0.12608484D+01  1  2  4  2  5  2        2 -.355814344949D+01 0.100000000000D+01
-.165115062208D-02 0.000000000000D+00 -.127413474152D-03 0.228469557205D-02 0.000000000000D+00  5 -1 2 25 24 21 2 0.27057971D-02 0.16103823D+00 0.11578457D+05 0.11578457D+05 0.11578457D+05 0.12608484D+01  1  2  5  2  5  2        2 -.306556689811D+01 0.100000000000D+01
0.163992268518D-02 0.000000000000D+00 0.124083391269D-03 0.228469557205D-02 0.000000000000D+00  5 -1 2 25 24 21 2 0.27057971D-02 0.12780151D+00 0.11578457D+05 0.11578457D+05 0.11578457D+05 0.12608484D+01  1  2  6  2  5  2        2 0.412819877650D+01 0.100000000000D+01
0.453580545901D-04 0.000000000000D+00 0.000000000000D+00 0.228469557205D-02 0.000000000000D+00  5 -1 21 25 24 -2 2 0.27057971D-02 0.16089054D+00 0.12934376D+05 0.12934376D+05 0.12934376D+05 0.12552254D+01  1  2 12  4  5  2        2 0.695668605813D-01 0.100000000000D+01
-.508478127168D-04 0.000000000000D+00 -.406849193348D-05 0.228469557205D-02 0.000000000000D+00  5 -1 21 25 24 -2 2 0.27057971D-02 0.16103823D+00 0.11578457D+05 0.11578457D+05 0.11578457D+05 0.12608484D+01  1  2  5  4  5  2        2 -.786179576269D-01 0.100000000000D+01
  </mgrwgt>
  </event>
  <event>
  4     66 0.45252658E-03 0.57442347E+02 0.75467711E-02 0.12264138E+00
       -1 -1    0    0    0  501 0.00000000E+00 0.00000000E+00 0.29496975E+03 0.29496993E+03 0.32000000E+00 0.0000E+00 0.9000E+01
        2 -1    0    0  501    0 0.00000000E+00 0.00000000E+00 -.43294066E+02 0.43295248E+02 0.32000000E+00 0.0000E+00 0.9000E+01
       25  1    1    2    0    0 0.92457565E+00 0.21393681E+02 0.20967693E+03 0.24504685E+03 0.12500000E+03 0.0000E+00 0.9000E+01
       24  1    1    2    0    0 -.92457565E+00 -.21393681E+02 0.41998759E+02 0.93218325E+02 0.80419002E+02 0.0000E+00 0.9000E+01
#aMCatNLO 1  0  0  2  1 0.46126469D+02 0.00000000D+00  -5  5  0 0.00000000D+00 0.00000000D+00 0.00000000D+00 0.00000000D+00 0.00000000D+00
  <mgrwgt>
 0.2468966623D+00    9    2    0
 0.113007386202986D+03 0.000000000000000D+00 0.000000000000000D+00 0.113007386202986D+03
 0.113007386202986D+03 0.000000000000000D+00 0.000000000000000D+00 -.113007386202986D+03
 0.133266646135739D+03 0.924575650198156D+00 0.213936812050988D+02 0.409445299964477D+02
 0.927481262702319D+02 -.924575650198156D+00 -.213936812050988D+02 -.409445299964477D+02
 0.000000000000000D+00 -.000000000000000D+00 0.000000000000000D+00 -.000000000000000D+00
 0.121419293338714D+03 0.000000000000000D+00 0.000000000000000D+00 0.121419293338714D+03
 0.202786907515888D+03 0.000000000000000D+00 0.000000000000000D+00 -.202786907515888D+03
 0.131655765513449D+03 0.177732807854591D+01 -.535043560876752D+01 0.409445299964477D+02
 0.990178751929033D+02 -.307304644682878D+00 -.407526033594445D+02 -.409445299964477D+02
 0.935325601482495D+02 -.147002343386303D+01 0.461030389682120D+02 -.813676141771733D+02
0.529060728248D-03 0.000000000000D+00 0.000000000000D+00 0.260756473123D-02 0.000000000000D+00  5 -1 2 25 24 21 0 0.45380067D-01 0.66607298D-02 0.11029418D+05 0.11029418D+05 0.11029418D+05 0.12633397D+01  1  2  2  2  5  2        2 0.298484336675D+00 0.100000000000D+01
-.292002924449D-04 0.000000000000D+00 -.203173250136D-05 0.260756473123D-02 0.000000000000D+00  5 -1 2 25 24 21 2 0.45380067D-01 0.66607298D-02 0.11029418D+05 0.11029418D+05 0.11029418D+05 0.12633397D+01  1  2  3  2  5  2        2 -.262932054848D-01 0.100000000000D+01
0.362461377576D-04 0.000000000000D+00 0.000000000000D+00 0.260756473123D-02 0.000000000000D+00  5 -1 2 25 24 21 2 0.45380067D-01 0.66607298D-02 0.11029418D+05 0.11029418D+05 0.11029418D+05 0.12633397D+01  1  2 15  2  5  2        2 0.326375891575D-01 0.100000000000D+01
0.742702773707D-03 0.000000000000D+00 0.000000000000D+00 0.260756473123D-02 0.000000000000D+00  5 -1 2 25 24 21 2 0.45380067D-01 0.12024274D-01 0.17083724D+05 0.17083724D+05 0.17083724D+05 0.12414334D+01  1  2 12  2  5  2        2 0.315515990474D+00 0.100000000000D+01
-.901449251269D-03 0.000000000000D+00 0.000000000000D+00 0.260756473123D-02 0.000000000000D+00  5 -1 2 25 24 21 2 0.45380067D-01 0.66607298D-02 0.11029418D+05 0.11029418D+05 0.11029418D+05 0.12633397D+01  1  2  4  2  5  2        2 -.811703870518D+00 0.100000000000D+01
-.982099669420D-03 0.000000000000D+00 -.213083897854D-03 0.260756473123D-02 0.000000000000D+00  5 -1 2 25 24 21 2 0.45380067D-01 0.12767653D-01 0.11029418D+05 0.11029418D+05 0.11029418D+05 0.12633397D+01  1  2  5  2  5  2        2 -.397963090693D+00 0.100000000000D+01
0.950625859552D-03 0.000000000000D+00 0.174763303101D-03 0.260756473123D-02 0.000000000000D+00  5 -1 2 25 24 21 2 0.45380067D-01 0.66607298D-02 0.11029418D+05 0.11029418D+05 0.11029418D+05 0.12633397D+01  1  2  6  2  5  2        2 0.855984614250D+00 0.100000000000D+01
0.480849167157D-04 0.000000000000D+00 0.000000000000D+00 0.260756473123D-02 0.000000000000D+00  5 -1 21 25 24 -2 2 0.45380067D-01 0.12024274D-01 0.17083724D+05 0.17083724D+05 0.17083724D+05 0.12414334D+01  1  2 12  4  5  2        2 0.195729749756D+00 0.100000000000D+01
-.570785146534D-04 0.000000000000D+00 -.150500685371D-04 0.260756473123D-02 0.000000000000D+00  5 -1 21 25 24 -2 2 0.45380067D-01 0.12767653D-01 0.11029418D+05 0.11029418D+05 0.11029418D+05 0.12633397D+01  1  2  5  4  5  2        2 -.215495451340D+00 0.100000000000D+01
  </mgrwgt>
  </event>
  <event>
  4     66 0.45252658E-03 0.89194767E+02 0.75467711E-02 0.11548206E+00
       -1 -1    0    0    0  501 0.00000000E+00 0.00000000E+00 0.58455539E+02 0.58456415E+02 0.32000000E+00 0.0000E+00 0.9000E+01
        2 -1    0    0  501    0 0.00000000E+00 0.00000000E+00 -.52600622E+03 0.52600631E+03 0.32000000E+00 0.0000E+00 0.9000E+01
       25  1    1    2    0    0 0.89071744E+02 0.10734478E+03 -.21719315E+03 0.28680053E+03 0.12500000E+03 0.0000E+00 0.9000E+01
       24  1    1    2    0    0 -.89071744E+02 -.10734478E+03 -.25035753E+03 0.29766220E+03 0.80419002E+02 0.0000E+00 0.9000E+01
#aMCatNLO 1  0  0  1  2 0.37871149D+02 0.00000000D+00  -5  5  0 0.00000000D+00 0.00000000D+00 0.00000000D+00 0.00000000D+00 0.00000000D+00
  <mgrwgt>
 0.4166713258D+00    9    2    0
 0.175351820960066D+03 0.000000000000000D+00 0.000000000000000D+00 0.175351820960066D+03
 0.175351820960066D+03 0.000000000000000D+00 0.000000000000000D+00 -.175351820960066D+03
 0.188408121139171D+03 0.890717440731250D+02 0.107344783552727D+03 0.203946552553038D+02
 0.162295520780961D+03 -.890717440731250D+02 -.107344783552727D+03 -.203946552553038D+02
 0.000000000000000D+00 -.000000000000000D+00 -.000000000000000D+00 0.000000000000000D+00
 0.265399634007564D+03 0.000000000000000D+00 0.000000000000000D+00 0.265399634007564D+03
 0.180398682235071D+03 0.000000000000000D+00 0.000000000000000D+00 -.180398682235071D+03
 0.204159167609079D+03 0.105958060365810D+03 0.120053792940351D+03 0.203946552553038D+02
 0.148583328223282D+03 -.756992631674169D+02 -.972803632007228D+02 -.203946552553038D+02
 0.930558204102733D+02 -.302587971983932D+02 -.227734297396283D+02 0.850009517724935D+02
0.724859173954D-03 0.000000000000D+00 0.000000000000D+00 0.222598460049D-02 0.000000000000D+00  5 -1 2 25 24 21 0 0.89932347D-02 0.80924108D-01 0.30329968D+05 0.30329968D+05 0.30329968D+05 0.12144001D+01  1  2  2  1  5  1       -1 0.340847241039D+00 0.100000000000D+01
-.402676576193D-04 0.000000000000D+00 -.278365008779D-05 0.222598460049D-02 0.000000000000D+00  5 -1 2 25 24 21 2 0.89932347D-02 0.80924108D-01 0.30329968D+05 0.30329968D+05 0.30329968D+05 0.12144001D+01  1  2  3  1  5  1       -1 -.279245451289D-01 0.100000000000D+01
0.498238871949D-04 0.000000000000D+00 0.000000000000D+00 0.222598460049D-02 0.000000000000D+00  5 -1 2 25 24 21 2 0.89932347D-02 0.80924108D-01 0.30329968D+05 0.30329968D+05 0.30329968D+05 0.12144001D+01  1  2 15  1  5  1       -1 0.345515351209D-01 0.100000000000D+01
0.206881376875D-02 0.000000000000D+00 0.000000000000D+00 0.222598460049D-02 0.000000000000D+00  5 -1 2 25 24 21 2 0.13687372D-01 0.80924108D-01 0.37672107D+05 0.37672107D+05 0.37672107D+05 0.12046536D+01  1  2 12  1  5  1       -1 0.739699968304D+00 0.100000000000D+01
-.199613580585D-02 0.000000000000D+00 0.000000000000D+00 0.222598460049D-02 0.000000000000D+00  5 -1 2 25 24 21 2 0.89932347D-02 0.80924108D-01 0.30329968D+05 0.30329968D+05 0.30329968D+05 0.12144001D+01  1  2  4  1  5  1       -1 -.138426687047D+01 0.100000000000D+01
-.230796612632D-02 0.000000000000D+00 -.260790375741D-03 0.222598460049D-02 0.000000000000D+00  5 -1 2 25 24 21 2 0.13942605D-01 0.80924108D-01 0.30329968D+05 0.30329968D+05 0.30329968D+05 0.12144001D+01  1  2  5  1  5  1       -1 -.812384874430D+00 0.100000000000D+01
0.222790044772D-02 0.000000000000D+00 0.237583030500D-03 0.222598460049D-02 0.000000000000D+00  5 -1 2 25 24 21 2 0.89932347D-02 0.80924108D-01 0.30329968D+05 0.30329968D+05 0.30329968D+05 0.12144001D+01  1  2  6  1  5  1       -1 0.154498945986D+01 0.100000000000D+01
0.102085578193D-03 0.000000000000D+00 0.000000000000D+00 0.222598460049D-02 0.000000000000D+00  5 21 2 25 24 1 2 0.13687372D-01 0.80924108D-01 0.37672107D+05 0.37672107D+05 0.37672107D+05 0.12046536D+01  1  2 12  3  5  1       -1 0.505400227632D+00 0.100000000000D+01
-.107563591058D-03 0.000000000000D+00 -.132891908739D-04 0.222598460049D-02 0.000000000000D+00  5 21 2 25 24 1 2 0.13942605D-01 0.80924108D-01 0.30329968D+05 0.30329968D+05 0.30329968D+05 0.12144001D+01  1  2  5  3  5  1       -1 -.524240816152D+00 0.100000000000D+01
  </mgrwgt>
  </event>
  <event>
  4     66 0.45252658E-03 0.61892220E+02 0.75467711E-02 0.11989065E+00
       -1 -1    0    0    0  501 0.00000000E+00 0.00000000E+00 0.11422886E+02 0.11427367E+02 0.32000000E+00 0.0000E+00 0.9000E+01
        2 -1    0    0  501    0 0.00000000E+00 0.00000000E+00 -.21840790E+04 0.21840790E+04 0.32000000E+00 0.0000E+00 0.9000E+01
       25  1    1    2    0    0 -.91901987E+02 0.57585351E+02 -.15232577E+04 0.15322209E+04 0.12500000E+03 0.0000E+00 0.9000E+01
       24  1    1    2    0    0 0.91901987E+02 -.57585351E+02 -.64939844E+03 0.66328545E+03 0.80419002E+02 0.0000E+00 0.9000E+01
#aMCatNLO 1  0  0  1  2 0.20421474D+01 0.00000000D+00  -5  5  0 0.00000000D+00 0.00000000D+00 0.00000000D+00 0.00000000D+00 0.00000000D+00
  <mgrwgt>
 0.3295373248D+00    8    2    0
 0.157966548850963D+03 0.000000000000000D+00 0.000000000000000D+00 0.157966548850963D+03
 0.157966548850963D+03 0.000000000000000D+00 0.000000000000000D+00 -.157966548850963D+03
 0.172459781931388D+03 -.919019869157078D+02 0.575853506924455D+02 -.485317274614771D+02
 0.143473315770538D+03 0.919019869157078D+02 -.575853506924455D+02 0.485317274614771D+02
 0.000000000000000D+00 -.000000000000000D+00 0.000000000000000D+00 -.000000000000000D+00
 0.158801037251153D+03 0.000000000000000D+00 0.000000000000000D+00 0.158801037251153D+03
 0.159224187266364D+03 0.000000000000000D+00 0.000000000000000D+00 -.159224187266364D+03
 0.172034054625578D+03 -.917915138322774D+02 0.564774766513165D+02 -.485317274614771D+02
 0.143905643085331D+03 0.919941442675349D+02 -.585095462939260D+02 0.485317274614771D+02
 0.208552680660787D+01 -.202630435257451D+00 0.203206964260947D+01 -.423150015210249D+00
0.469259328518D-03 0.000000000000D+00 0.000000000000D+00 0.214629223740D-02 0.000000000000D+00  5 -1 2 25 24 21 0 0.17577136D-02 0.33601250D+00 0.22575981D+05 0.22575981D+05 0.22575981D+05 0.12280751D+01  1  2  2  1  5  1       -1 0.261543404014D+00 0.100000000000D+01
-.259905216992D-04 0.000000000000D+00 -.180207938033D-05 0.214629223740D-02 0.000000000000D+00  5 -1 2 25 24 21 2 0.17577136D-02 0.33601250D+00 0.22575981D+05 0.22575981D+05 0.22575981D+05 0.12280751D+01  1  2  3  1  5  1       -1 -.218471970289D-01 0.100000000000D+01
0.323512157561D-04 0.000000000000D+00 0.000000000000D+00 0.214629223740D-02 0.000000000000D+00  5 -1 2 25 24 21 2 0.17577136D-02 0.33601250D+00 0.22575981D+05 0.22575981D+05 0.22575981D+05 0.12280751D+01  1  2 15  1  5  1       -1 0.271938898698D-01 0.100000000000D+01
0.132130915787D-06 0.000000000000D+00 0.000000000000D+00 0.214629223740D-02 0.000000000000D+00  5 -1 2 25 24 21 2 0.17739500D-02 0.33601250D+00 0.22886225D+05 0.22886225D+05 0.22886225D+05 0.12274324D+01  1  2 12  1  5  1       -1 0.109495846563D-03 0.100000000000D+01
-.260532266858D-02 0.000000000000D+00 0.000000000000D+00 0.214629223740D-02 0.000000000000D+00  5 -1 2 25 24 21 2 0.17577136D-02 0.33601250D+00 0.22575981D+05 0.22575981D+05 0.22575981D+05 0.12280751D+01  1  2  4  1  5  1       -1 -.218999057899D+01 0.100000000000D+01
0.260533817318D-02 0.000000000000D+00 0.000000000000D+00 0.214629223740D-02 0.413546942369D-02  5 -1 2 25 24 21 2 0.17669990D-02 0.33868764D+00 0.22886225D+05 0.22886225D+05 0.22886225D+05 0.12274324D+01  1  2 11  1  5  1       -1 0.212656213840D+01 0.100000000000D+01
0.100911883804D-07 0.000000000000D+00 0.000000000000D+00 0.214629223740D-02 0.000000000000D+00  5 21 2 25 24 1 2 0.17739500D-02 0.33601250D+00 0.22886225D+05 0.22886225D+05 0.22886225D+05 0.12274324D+01  1  2 12  3  5  1       -1 0.176755481087D-03 0.100000000000D+01
0.728625836902D-05 0.000000000000D+00 0.000000000000D+00 0.214629223740D-02 0.406312865805D-05  5 21 2 25 24 1 2 0.17669990D-02 0.33868764D+00 0.22886225D+05 0.22886225D+05 0.22886225D+05 0.12274324D+01  1  2 11  3  5  1       -1 0.125789417201D+00 0.100000000000D+01
  </mgrwgt>
  </event>
  <event>
  4     66 0.45252658E-03 0.10012266E+03 0.75467711E-02 0.11415461E+00
       -1 -1    0    0    0  501 0.00000000E+00 0.00000000E+00 0.18567057E+02 0.18569815E+02 0.32000000E+00 0.0000E+00 0.9000E+01
        2 -1    0    0  501    0 0.00000000E+00 0.00000000E+00 -.16903057E+04 0.16903057E+04 0.32000000E+00 0.0000E+00 0.9000E+01
       25  1    1    2    0    0 0.13655532E+03 -.35118206E+02 -.77611039E+03 0.79865699E+03 0.12500000E+03 0.0000E+00 0.9000E+01
       24  1    1    2    0    0 -.13655532E+03 0.35118206E+02 -.89562825E+03 0.91021856E+03 0.80419002E+02 0.0000E+00 0.9000E+01
#aMCatNLO 1  0  0  2  1 0.63573440D+02 0.00000000D+00  -5  5  0 0.00000000D+00 0.00000000D+00 0.00000000D+00 0.00000000D+00 0.00000000D+00
  <mgrwgt>
 0.5902554556D+00    9    2    0
 0.177162030237982D+03 0.000000000000000D+00 0.000000000000000D+00 0.177162030237982D+03
 0.177162030237982D+03 0.000000000000000D+00 0.000000000000000D+00 -.177162030237982D+03
 0.190084923525736D+03 0.136555318138606D+03 -.351182062293259D+02 0.250326752682094D+02
 0.164239136950227D+03 -.136555318138606D+03 0.351182062293259D+02 -.250326752682094D+02
 0.000000000000000D+00 0.000000000000000D+00 0.000000000000000D+00 -.000000000000000D+00
 0.201007967014723D+03 0.000000000000000D+00 0.000000000000000D+00 0.201007967014723D+03
 0.228066419338656D+03 0.000000000000000D+00 0.000000000000000D+00 -.228066419338656D+03
 0.172146309059330D+03 0.106179799159638D+03 -.459191369919513D+02 0.250326752682094D+02
 0.187835804578323D+03 -.166079163976245D+03 0.246201135067105D+02 -.250326752682094D+02
 0.690922727157267D+02 0.598993648166067D+02 0.212990234852408D+02 -.270584523239332D+02
0.727066687481D-03 0.000000000000D+00 0.000000000000D+00 0.220429377641D-02 0.000000000000D+00  5 -1 2 25 24 21 0 0.28566848D-02 0.26004725D+00 0.30756329D+05 0.30756329D+05 0.30756329D+05 0.12137651D+01  1  2  2  2  5  2        2 0.360608572076D+00 0.100000000000D+01
-.403875449188D-04 0.000000000000D+00 -.279212752098D-05 0.220429377641D-02 0.000000000000D+00  5 -1 2 25 24 21 2 0.28566848D-02 0.26004725D+00 0.30756329D+05 0.30756329D+05 0.30756329D+05 0.12137651D+01  1  2  3  2  5  2        2 -.295106365690D-01 0.100000000000D+01
0.500209336190D-04 0.000000000000D+00 0.000000000000D+00 0.220429377641D-02 0.000000000000D+00  5 -1 2 25 24 21 2 0.28566848D-02 0.26004725D+00 0.30756329D+05 0.30756329D+05 0.30756329D+05 0.12137651D+01  1  2 15  2  5  2        2 0.365496242924D-01 0.100000000000D+01
0.486687097615D-03 0.000000000000D+00 0.000000000000D+00 0.220429377641D-02 0.000000000000D+00  5 -1 2 25 24 21 2 0.28566848D-02 0.34829137D+00 0.44110554D+05 0.44110554D+05 0.44110554D+05 0.11977099D+01  1  2 12  2  5  2        2 0.174071713477D+00 0.100000000000D+01
-.541560076095D-03 0.000000000000D+00 0.000000000000D+00 0.220429377641D-02 0.000000000000D+00  5 -1 2 25 24 21 2 0.28566848D-02 0.26004725D+00 0.30756329D+05 0.30756329D+05 0.30756329D+05 0.12137651D+01  1  2  4  2  5  2        2 -.395710673131D+00 0.100000000000D+01
-.105333066163D-02 0.000000000000D+00 -.339268446286D-03 0.220429377641D-02 0.000000000000D+00  5 -1 2 25 24 21 2 0.28566848D-02 0.35341668D+00 0.30756329D+05 0.30756329D+05 0.30756329D+05 0.12137651D+01  1  2  5  2  5  2        2 -.372555036921D+00 0.100000000000D+01
0.111967093550D-02 0.000000000000D+00 0.323906041977D-03 0.220429377641D-02 0.000000000000D+00  5 -1 2 25 24 21 2 0.28566848D-02 0.26004725D+00 0.30756329D+05 0.30756329D+05 0.30756329D+05 0.12137651D+01  1  2  6  2  5  2        2 0.818128512659D+00 0.100000000000D+01
0.184568700536D-04 0.000000000000D+00 0.000000000000D+00 0.220429377641D-02 0.000000000000D+00  5 -1 21 25 24 -2 2 0.28566848D-02 0.34829137D+00 0.44110554D+05 0.44110554D+05 0.44110554D+05 0.11977099D+01  1  2 12  4  5  2        2 0.166037073685D-02 0.100000000000D+01
-.335052168924D-04 0.000000000000D+00 -.133279890713D-04 0.220429377641D-02 0.000000000000D+00  5 -1 21 25 24 -2 2 0.28566848D-02 0.35341668D+00 0.30756329D+05 0.30756329D+05 0.30756329D+05 0.12137651D+01  1  2  5  4  5  2        2 -.298699104042D-02 0.100000000000D+01
  </mgrwgt>
  </event>
  <event>
  5     66 0.45252658E-03 0.10907831E+03 0.75467711E-02 0.12169330E+00
       -1 -1    0    0    0  502 0.00000000E+00 0.00000000E+00 0.29383210E+03 0.29383227E+03 0.32000000E+00 0.0000E+00 0.9000E+01
        2 -1    0    0  501    0 0.00000000E+00 0.00000000E+00 -.68583068E+02 0.68583815E+02 0.32000000E+00 0.0000E+00 0.9000E+01
       25  1    1    2    0    0 0.40795543E+02 0.19712377E+02 0.15267712E+03 0.20245532E+03 0.12500000E+03 0.0000E+00 0.9000E+01
       24  1    1    2    0    0 -.30377857E+02 0.29931145E+02 0.54570258E+02 0.10613113E+03 0.80419002E+02 0.0000E+00 0.9000E+01
       21  1    1    2  501  502 -.10417686E+02 -.49643522E+02 0.18001646E+02 0.53829632E+02 0.75000000E+00 0.0000E+00 0.9000E+01
#aMCatNLO 2  0  0  1  1 0.50724821D+02 0.00000000D+00  -5  5  0 0.00000000D+00 0.00000000D+00 0.00000000D+00 0.00000000D+00 0.00000000D+00
  <mgrwgt>
 0.5098939623D-01    1    2    0
 0.111468733846071D+03 0.000000000000000D+00 0.000000000000000D+00 0.111468733846071D+03
 0.111468733846071D+03 0.000000000000000D+00 0.000000000000000D+00 -.111468733846071D+03
 0.132007641326341D+03 0.346390380810176D+02 -.962528739780817D+01 0.225501275356791D+02
 0.909298263657999D+02 -.346390380810176D+02 0.962528739780817D+01 -.225501275356791D+02
 0.000000000000000D+00 -.000000000000000D+00 -.000000000000000D+00 -.000000000000000D+00
 0.130234353241816D+03 0.000000000000000D+00 0.000000000000000D+00 0.130234353241816D+03
 0.154731370394861D+03 0.000000000000000D+00 0.000000000000000D+00 -.154731370394861D+03
 0.134856821809996D+03 0.407955428273705D+02 0.197123773867538D+02 0.225501275356791D+02
 0.937785253405615D+02 -.303778568408977D+02 0.299311446917475D+02 -.225501275356791D+02
 0.563303764861196D+02 -.104176859864728D+02 -.496435220785014D+02 -.244970171530447D+02
0.102298696305D-03 0.000000000000D+00 0.000000000000D+00 0.287001124776D-02 0.973037986310D-05  5 -1 2 25 24 21 2 0.45204186D-01 0.10551120D-01 0.18866376D+05 0.18866376D+05 0.18866376D+05 0.12366257D+01  1  2  1  1  5  1       -1 0.509893962259D-01 0.100000000000D+01
  </mgrwgt>
  </event>
  <event>
  4     66 0.45252658E-03 0.80402137E+02 0.75467711E-02 0.12235119E+00
       -1 -1    0    0    0  501 0.00000000E+00 0.00000000E+00 0.15457588E+02 0.15460900E+02 0.32000000E+00 0.0000E+00 0.9000E+01
        2 -1    0    0  501    0 0.00000000E+00 0.00000000E+00 -.11570751E+04 0.11570752E+04 0.32000000E+00 0.0000E+00 0.9000E+01
       25  1    1    2    0    0 0.28014704E+02 0.31146377E+02 -.32235750E+03 0.34827328E+03 0.12500000E+03 0.0000E+00 0.9000E+01
       24  1    1    2    0    0 -.28014704E+02 -.31146377E+02 -.81926003E+03 0.82426278E+03 0.80419002E+02 0.0000E+00 0.9000E+01
#aMCatNLO 1  0  0  2  1 0.39115289D+02 0.00000000D+00  -5  5  0 0.00000000D+00 0.00000000D+00 0.00000000D+00 0.00000000D+00 0.00000000D+00
  <mgrwgt>
 0.4304940836D+00    9    2    0
 0.133744376523286D+03 0.000000000000000D+00 0.000000000000000D+00 0.133744376523286D+03
 0.133744376523286D+03 0.000000000000000D+00 0.000000000000000D+00 -.133744376523286D+03
 0.150862449603606D+03 0.280147042846791D+02 0.311463773861135D+02 0.733454717072854D+02
 0.116626303442967D+03 -.280147042846791D+02 -.311463773861135D+02 -.733454717072854D+02
 0.000000000000000D+00 -.000000000000000D+00 0.000000000000000D+00 -.000000000000000D+00
 0.146617453454162D+03 0.000000000000000D+00 0.000000000000000D+00 0.146617453454162D+03
 0.168571075813214D+03 0.000000000000000D+00 0.000000000000000D+00 -.168571075813214D+03
 0.149729254848611D+03 0.360218028215397D+02 0.108037613377077D+02 0.733454717072854D+02
 0.120604314792333D+03 -.216954050224722D+02 -.472010166532919D+02 -.733454717072854D+02
 0.448549596264318D+02 -.143263977990675D+02 0.363972553155841D+02 -.219536223590524D+02
0.236123901919D-03 0.000000000000D+00 0.000000000000D+00 0.188250702421D-02 0.000000000000D+00  5 -1 2 25 24 21 0 0.23783486D-02 0.17801182D+00 0.12377555D+05 0.12377555D+05 0.12377555D+05 0.12574504D+01  1  2  2  2  5  2        2 0.288196497784D+00 0.100000000000D+01
-.125773582689D-04 0.000000000000D+00 -.906777956220D-06 0.188250702421D-02 0.000000000000D+00  5 -1 2 25 24 21 2 0.23783486D-02 0.17801182D+00 0.12377555D+05 0.12377555D+05 0.12377555D+05 0.12574504D+01  1  2  3  2  5  2        2 -.242728019362D-01 0.100000000000D+01
0.161531194439D-04 0.000000000000D+00 0.000000000000D+00 0.188250702421D-02 0.000000000000D+00  5 -1 2 25 24 21 2 0.23783486D-02 0.17801182D+00 0.12377555D+05 0.12377555D+05 0.12377555D+05 0.12574504D+01  1  2 15  2  5  2        2 0.311735946874D-01 0.100000000000D+01
0.222788689486D-03 0.000000000000D+00 0.000000000000D+00 0.188250702421D-02 0.000000000000D+00  5 -1 2 25 24 21 2 0.23783486D-02 0.23122617D+00 0.17607742D+05 0.17607742D+05 0.17607742D+05 0.12399639D+01  1  2 12  2  5  2        2 0.275458580273D+00 0.100000000000D+01
-.249876686857D-03 0.000000000000D+00 0.000000000000D+00 0.188250702421D-02 0.000000000000D+00  5 -1 2 25 24 21 2 0.23783486D-02 0.17801182D+00 0.12377555D+05 0.12377555D+05 0.12377555D+05 0.12574504D+01  1  2  4  2  5  2        2 -.482232214337D+00 0.100000000000D+01
-.421638990517D-03 0.000000000000D+00 -.131402056599D-03 0.188250702421D-02 0.000000000000D+00  5 -1 2 25 24 21 2 0.23783486D-02 0.23553153D+00 0.12377555D+05 0.12377555D+05 0.12377555D+05 0.12574504D+01  1  2  5  2  5  2        2 -.515132949714D+00 0.100000000000D+01
0.445828311251D-03 0.000000000000D+00 0.126414338194D-03 0.188250702421D-02 0.000000000000D+00  5 -1 2 25 24 21 2 0.23783486D-02 0.17801182D+00 0.12377555D+05 0.12377555D+05 0.12377555D+05 0.12574504D+01  1  2  6  2  5  2        2 0.860395487283D+00 0.100000000000D+01
0.779440410627D-05 0.000000000000D+00 0.000000000000D+00 0.188250702421D-02 0.000000000000D+00  5 -1 21 25 24 -2 2 0.23783486D-02 0.23122617D+00 0.17607742D+05 0.17607742D+05 0.17607742D+05 0.12399639D+01  1  2 12  4  5  2        2 0.495059757056D-02 0.100000000000D+01
-.128597862430D-04 0.000000000000D+00 -.483164253773D-05 0.188250702421D-02 0.000000000000D+00  5 -1 21 25 24 -2 2 0.23783486D-02 0.23553153D+00 0.12377555D+05 0.12377555D+05 0.12377555D+05 0.12574504D+01  1  2  5  4  5  2        2 -.804270797403D-02 0.100000000000D+01
  </mgrwgt>
  </event>
  <event>
  5     66 0.45252658E-03 0.10711776E+03 0.75467711E-02 0.12552570E+00
       -3 -1    0    0    0  501 0.00000000E+00 0.00000000E+00 0.35679761E+02 0.35683265E+02 0.50000000E+00 0.0000E+00 0.9000E+01
        4 -1    0    0  502    0 0.00000000E+00 0.00000000E+00 -.36202919E+03 0.36203251E+03 0.15500000E+01 0.0000E+00 0.9000E+01
       25  1    1    2    0    0 -.20650096E+02 0.10210579E+02 -.20412020E+03 0.24045943E+03 0.12500000E+03 0.0000E+00 0.9000E+01
       24  1    1    2    0    0 0.31134867E+02 -.14425072E+02 -.11109641E+03 0.14137571E+03 0.80419002E+02 0.0000E+00 0.9000E+01
       21  1    1    2  502  501 -.10484772E+02 0.42144931E+01 -.11132829E+02 0.15880641E+02 0.75000000E+00 0.0000E+00 0.9000E+01
#aMCatNLO 2  0  0  2  1 0.11300106D+02 0.00000000D+00  -5  5  0 0.00000000D+00 0.00000000D+00 0.00000000D+00 0.00000000D+00 0.00000000D+00
  <mgrwgt>
 0.2625862392D-01    1    2    0
 0.107597480099354D+03 0.000000000000000D+00 0.000000000000000D+00 0.107597480099354D+03
 0.107597480099354D+03 0.000000000000000D+00 0.000000000000000D+00 -.107597480099354D+03
 0.128875357697354D+03 -.268912264096394D+02 0.127192846309643D+02 -.994683679784906D+01
 0.863196025013528D+02 0.268912264096394D+02 -.127192846309643D+02 0.994683679784906D+01
 0.000000000000000D+00 -.000000000000000D+00 0.000000000000000D+00 0.000000000000000D+00
 0.115412501985637D+03 0.000000000000000D+00 0.000000000000000D+00 0.115412501985637D+03
 0.111909544246674D+03 0.000000000000000D+00 0.000000000000000D+00 -.111909544246674D+03
 0.127493615312175D+03 -.206500956966653D+02 0.102105793569373D+02 -.994683679784906D+01
 0.879978306541462D+02 0.311348674130816D+02 -.144250724210328D+02 0.994683679784906D+01
 0.118306002659898D+02 -.104847717164163D+02 0.421449306409553D+01 0.350295773896343D+01
0.145704494658D-03 0.000000000000D+00 0.000000000000D+00 0.305865640961D-02 0.202148887410D-03  5 -3 4 25 24 21 2 0.54891427D-02 0.55691479D-01 0.12750809D+05 0.12750809D+05 0.12750809D+05 0.12559468D+01  1  2  1  2  5  2        4 0.262586239247D-01 0.100000000000D+01
  </mgrwgt>
  </event>
  <event>
  4     66 0.45252658E-03 0.61336235E+02 0.75467711E-02 0.12338617E+00
       -1 -1    0    0    0  501 0.00000000E+00 0.00000000E+00 0.81146222E+01 0.81209293E+01 0.32000000E+00 0.0000E+00 0.9000E+01
        2 -1    0    0  501    0 0.00000000E+00 0.00000000E+00 -.18901541E+04 0.18901542E+04 0.32000000E+00 0.0000E+00 0.9000E+01
       25  1    1    2    0    0 -.65173401E+02 -.10618031E+02 -.12094332E+04 0.12176675E+04 0.12500000E+03 0.0000E+00 0.9000E+01
       24  1    1    2    0    0 0.65173401E+02 0.10618031E+02 -.67260626E+03 0.68060761E+03 0.80419002E+02 0.0000E+00 0.9000E+01
#aMCatNLO 1  0  0  2  1 0.60602974D+01 0.00000000D+00  -5  5  0 0.00000000D+00 0.00000000D+00 0.00000000D+00 0.00000000D+00 0.00000000D+00
  <mgrwgt>
 0.4551687609D+00   11    2    0
 0.123870491353757D+03 0.000000000000000D+00 0.000000000000000D+00 0.123870491353757D+03
 0.123870491353757D+03 0.000000000000000D+00 0.000000000000000D+00 -.123870491353757D+03
 0.142353069297757D+03 -.651734007925888D+02 -.106180310164553D+02 -.167057350917006D+02
 0.105387913409757D+03 0.651734007925888D+02 0.106180310164553D+02 0.167057350917006D+02
 0.000000000000000D+00 0.000000000000000D+00 -.000000000000000D+00 -.000000000000000D+00
 0.124185185200716D+03 0.000000000000000D+00 0.000000000000000D+00 0.124185185200716D+03
 0.156978758171573D+03 0.000000000000000D+00 0.000000000000000D+00 -.156978758171573D+03
 0.143750920745305D+03 -.683769072447175D+02 -.921109037064497D+01 -.167057350917006D+02
 0.104064175077326D+03 0.628281657024413D+02 0.116480294327583D+02 0.167057350917006D+02
 0.333488475496584D+02 0.554874154227616D+01 -.243693906211331D+01 -.327935729708569D+02
0.214476893642D-03 0.000000000000D+00 0.000000000000D+00 0.267109792930D-02 0.000000000000D+00  5 -1 2 25 24 21 0 0.12488907D-02 0.29079343D+00 0.15058339D+05 0.15058339D+05 0.15058339D+05 0.12476304D+01  1  2  2  2  5  2        2 0.274760275069D+00 0.100000000000D+01
-.119141047836D-04 0.000000000000D+00 -.823647744648D-06 0.267109792930D-02 0.000000000000D+00  5 -1 2 25 24 21 2 0.12488907D-02 0.29079343D+00 0.15058339D+05 0.15058339D+05 0.15058339D+05 0.12476304D+01  1  2  3  2  5  2        2 -.237578283476D-01 0.100000000000D+01
0.148191120186D-04 0.000000000000D+00 0.000000000000D+00 0.267109792930D-02 0.000000000000D+00  5 -1 2 25 24 21 2 0.12488907D-02 0.29079343D+00 0.15058339D+05 0.15058339D+05 0.15058339D+05 0.12476304D+01  1  2 15  2  5  2        2 0.295506818176D-01 0.100000000000D+01
0.449312177020D-02 0.000000000000D+00 0.000000000000D+00 0.267109792930D-02 0.000000000000D+00  5 -1 2 25 24 21 2 0.12488907D-02 0.36881939D+00 0.15819567D+05 0.15819567D+05 0.15819567D+05 0.12451973D+01  1  2 12  2  5  2        2 0.489545016771D+01 0.100000000000D+01
-.549950200404D-02 0.000000000000D+00 0.000000000000D+00 0.267109792930D-02 0.000000000000D+00  5 -1 2 25 24 21 2 0.12488907D-02 0.29079343D+00 0.15058339D+05 0.15058339D+05 0.15058339D+05 0.12476304D+01  1  2  4  2  5  2        2 -.109665163252D+02 0.100000000000D+01
-.585281009759D-02 0.000000000000D+00 -.117652640032D-03 0.267109792930D-02 0.000000000000D+00  5 -1 2 25 24 21 2 0.12488907D-02 0.36878035D+00 0.15058339D+05 0.15058339D+05 0.15058339D+05 0.12476304D+01  1  2  5  2  5  2        2 -.640144488272D+01 0.100000000000D+01
0.572175509239D-02 0.000000000000D+00 0.114408355428D-03 0.267109792930D-02 0.000000000000D+00  5 -1 2 25 24 21 2 0.12488907D-02 0.29079343D+00 0.15058339D+05 0.15058339D+05 0.15058339D+05 0.12476304D+01  1  2  6  2  5  2        2 0.114097095670D+02 0.100000000000D+01
0.113884483365D-02 0.000000000000D+00 0.000000000000D+00 0.267109792930D-02 0.618690097143D-03  5 -1 2 25 24 21 2 0.12520635D-02 0.36851708D+00 0.15819567D+05 0.15819567D+05 0.15819567D+05 0.12451973D+01  1  2 11  2  5  2        2 0.123927883906D+01 0.100000000000D+01
0.146481995338D-03 0.000000000000D+00 0.000000000000D+00 0.267109792930D-02 0.000000000000D+00  5 -1 21 25 24 -2 2 0.12488907D-02 0.36881939D+00 0.15819567D+05 0.15819567D+05 0.15819567D+05 0.12451973D+01  1  2 12  4  5  2        2 0.391148615562D-01 0.100000000000D+01
-.188933598183D-03 0.000000000000D+00 -.383436868024D-05 0.267109792930D-02 0.000000000000D+00  5 -1 21 25 24 -2 2 0.12488907D-02 0.36878035D+00 0.15058339D+05 0.15058339D+05 0.15058339D+05 0.12476304D+01  1  2  5  4  5  2        2 -.508926240908D-01 0.100000000000D+01
0.371174018521D-04 0.000000000000D+00 0.000000000000D+00 0.267109792930D-02 0.201424209392D-04  5 -1 21 25 24 -2 2 0.12520635D-02 0.36851708D+00 0.15819567D+05 0.15819567D+05 0.15819567D+05 0.12451973D+01  1  2 11  4  5  2        2 0.991602898172D-02 0.100000000000D+01
  </mgrwgt>
  </event>
  <event>
  4     66 0.45252658E-03 0.43628857E+02 0.75467711E-02 0.12258619E+00
       -3 -1    0    0    0  501 0.00000000E+00 0.00000000E+00 0.15847183E+03 0.15847262E+03 0.50000000E+00 0.0000E+00 0.9000E+01
        4 -1    0    0  501    0 0.00000000E+00 0.00000000E+00 -.81509930E+02 0.81524666E+02 0.15500000E+01 0.0000E+00 0.9000E+01
       25  1    1    2    0    0 -.46495192E+02 -.53848764E+01 0.55188064E+02 0.14443518E+03 0.12500000E+03 0.0000E+00 0.9000E+01
       24  1    1    2    0    0 0.46495192E+02 0.53848764E+01 0.21773838E+02 0.95562104E+02 0.80419002E+02 0.0000E+00 0.9000E+01
#aMCatNLO 1  0  0  2  1 0.33202904D+02 0.00000000D+00  -5  5  0 0.00000000D+00 0.00000000D+00 0.00000000D+00 0.00000000D+00 0.00000000D+00
  <mgrwgt>
 0.5908850908D-01    9    2    0
 0.113661298939378D+03 0.000000000000000D+00 0.000000000000000D+00 0.113661298939378D+03
 0.113661298939378D+03 0.000000000000000D+00 0.000000000000000D+00 -.113661298939378D+03
 0.133804003912585D+03 -.464951916535473D+02 -.538487637260134D+01 0.936545367778900D+01
 0.935185939661715D+02 0.464951916535473D+02 0.538487637260134D+01 -.936545367778900D+01
 0.000000000000000D+00 -.000000000000000D+00 -.000000000000000D+00 -.000000000000000D+00
 0.121891290217029D+03 0.000000000000000D+00 0.000000000000000D+00 0.121891290217029D+03
 0.154105496541256D+03 0.000000000000000D+00 0.000000000000000D+00 -.154105496541256D+03
 0.129443727723336D+03 -.316091911711369D+02 0.662011765973465D+01 0.936545367778900D+01
 0.100290893841672D+03 0.574546332072295D+02 0.142232497560466D+02 -.936545367778900D+01
 0.462621651932777D+02 -.258454420360927D+02 -.208433674157812D+02 -.322142063242265D+02
0.301180810144D-03 0.000000000000D+00 0.000000000000D+00 0.290138436459D-02 0.000000000000D+00  5 -3 4 25 24 21 0 0.24381476D-01 0.12541183D-01 0.12828314D+05 0.12828314D+05 0.12828314D+05 0.12556408D+01  1  2  2  2  5  2        4 0.457760256006D-01 0.100000000000D+01
-.167320154566D-04 0.000000000000D+00 -.115661361368D-05 0.290138436459D-02 0.000000000000D+00  5 -3 4 25 24 21 2 0.24381476D-01 0.12541183D-01 0.12828314D+05 0.12828314D+05 0.12828314D+05 0.12556408D+01  1  2  3  2  5  2        4 -.400949710846D-02 0.100000000000D+01
0.208442180400D-04 0.000000000000D+00 0.000000000000D+00 0.290138436459D-02 0.000000000000D+00  5 -3 4 25 24 21 2 0.24381476D-01 0.12541183D-01 0.12828314D+05 0.12828314D+05 0.12828314D+05 0.12556408D+01  1  2 15  2  5  2        4 0.499490525671D-02 0.100000000000D+01
0.433219141034D-03 0.000000000000D+00 0.000000000000D+00 0.290138436459D-02 0.000000000000D+00  5 -3 4 25 24 21 2 0.24381476D-01 0.17335137D-01 0.17181971D+05 0.17181971D+05 0.17181971D+05 0.12411541D+01  1  2 12  2  5  2        4 0.594275940200D-01 0.100000000000D+01
-.459873606166D-03 0.000000000000D+00 0.000000000000D+00 0.290138436459D-02 0.000000000000D+00  5 -3 4 25 24 21 2 0.24381476D-01 0.12541183D-01 0.12828314D+05 0.12828314D+05 0.12828314D+05 0.12556408D+01  1  2  4  2  5  2        4 -.110199628907D+00 0.100000000000D+01
-.643609771485D-03 0.000000000000D+00 -.163871286894D-03 0.290138436459D-02 0.000000000000D+00  5 -3 4 25 24 21 2 0.24381476D-01 0.18137299D-01 0.12828314D+05 0.12828314D+05 0.12828314D+05 0.12556408D+01  1  2  5  2  5  2        4 -.811436607744D-01 0.100000000000D+01
0.668599203320D-03 0.000000000000D+00 0.153317145093D-03 0.290138436459D-02 0.000000000000D+00  5 -3 4 25 24 21 2 0.24381476D-01 0.12541183D-01 0.12828314D+05 0.12828314D+05 0.12828314D+05 0.12556408D+01  1  2  6  2  5  2        4 0.160216596702D+00 0.100000000000D+01
0.176908229601D-04 0.000000000000D+00 0.000000000000D+00 0.290138436459D-02 0.000000000000D+00  5 -3 21 25 24 -4 2 0.24381476D-01 0.17335137D-01 0.17181971D+05 0.17181971D+05 0.17181971D+05 0.12411541D+01  1  2 12  4  5  2        4 0.619833479755D-01 0.100000000000D+01
-.238839303123D-04 0.000000000000D+00 -.735413366730D-05 0.290138436459D-02 0.000000000000D+00  5 -3 21 25 24 -4 2 0.24381476D-01 0.18137299D-01 0.12828314D+05 0.12828314D+05 0.12828314D+05 0.12556408D+01  1  2  5  4  5  2        4 -.779571736826D-01 0.100000000000D+01
  </mgrwgt>
  </event>
  <event>
  5     66 0.45252658E-03 0.18499944E+03 0.75467711E-02 0.11495153E+00
       -1 -1    0    0    0  502 0.00000000E+00 0.00000000E+00 0.44159137E+03 0.44159149E+03 0.32000000E+00 0.0000E+00 0.9000E+01
        2 -1    0    0  501    0 0.00000000E+00 0.00000000E+00 -.95850122E+02 0.95850656E+02 0.32000000E+00 0.0000E+00 0.9000E+01
       25  1    1    2    0    0 -.14849266E+03 0.16751666E+02 0.13853134E+03 0.23905359E+03 0.12500000E+03 0.0000E+00 0.9000E+01
       24  1    1    2    0    0 0.15652420E+03 0.11487934E+02 0.20270021E+03 0.26867525E+03 0.80419002E+02 0.0000E+00 0.9000E+01
       21  1    1    2  501  502 -.80315427E+01 -.28239600E+02 0.45097019E+01 0.29713307E+02 0.75000000E+00 0.0000E+00 0.9000E+01
#aMCatNLO 2  0  0  1  1 0.29359508D+02 0.00000000D+00  -5  5  0 0.00000000D+00 0.00000000D+00 0.00000000D+00 0.00000000D+00 0.00000000D+00
  <mgrwgt>
 0.9236434024D-01    1    2    0
 0.187408392819881D+03 0.000000000000000D+00 0.000000000000000D+00 0.187408392819881D+03
 0.187408392819881D+03 0.000000000000000D+00 0.000000000000000D+00 -.187408392819881D+03
 0.199624740108062D+03 -.152736661745484D+03 0.182937513451450D+01 -.298864920770921D+02
 0.175192045531701D+03 0.152736661745484D+03 -.182937513451450D+01 0.298864920770921D+02
 0.000000000000000D+00 -.000000000000000D+00 -.000000000000000D+00 -.000000000000000D+00
 0.195556516910996D+03 0.000000000000000D+00 0.000000000000000D+00 0.195556516910996D+03
 0.216434154370422D+03 0.000000000000000D+00 0.000000000000000D+00 -.216434154370422D+03
 0.197101216955163D+03 -.148492656430036D+03 0.167516656748890D+02 -.298864920770921D+02
 0.178863679665935D+03 0.156524199094505D+03 0.114879344713204D+02 0.298864920770921D+02
 0.360257746603202D+02 -.803154266446861D+01 -.282396001462094D+02 -.208776374594253D+02
0.622786174245D-03 0.000000000000D+00 0.000000000000D+00 0.215208504443D-02 0.194399416013D-04  5 -1 2 25 24 21 2 0.67935858D-01 0.14745935D-01 0.40106236D+05 0.40106236D+05 0.40106236D+05 0.12018833D+01  1  2  1  1  5  1       -1 0.923643402428D-01 0.100000000000D+01
  </mgrwgt>
  </event>
  <event>
  4     66 0.45252658E-03 0.12269768E+03 0.75467711E-02 0.11807029E+00
       -1 -1    0    0    0  501 0.00000000E+00 0.00000000E+00 0.35670243E+02 0.35671678E+02 0.32000000E+00 0.0000E+00 0.9000E+01
        2 -1    0    0  501    0 0.00000000E+00 0.00000000E+00 -.44367701E+03 0.44367713E+03 0.32000000E+00 0.0000E+00 0.9000E+01
       25  1    1    2    0    0 -.10264561E+02 0.65202909E+02 -.18117502E+03 0.22979593E+03 0.12500000E+03 0.0000E+00 0.9000E+01
       24  1    1    2    0    0 0.10264561E+02 -.65202909E+02 -.22683174E+03 0.24955287E+03 0.80419002E+02 0.0000E+00 0.9000E+01
#aMCatNLO 1  0  0  1  1 0.77365743D+02 0.00000000D+00  -5  5  0 0.00000000D+00 0.00000000D+00 0.00000000D+00 0.00000000D+00 0.00000000D+00
  <mgrwgt>
 0.2828144096D+00    4    2    0
 0.125803173221043D+03 0.000000000000000D+00 0.000000000000000D+00 0.125803173221043D+03
 0.125803173221043D+03 0.000000000000000D+00 0.000000000000000D+00 -.125803173221043D+03
 0.144001808062985D+03 -.102645614164831D+02 0.652029090411312D+02 0.274725345920270D+02
 0.107604538379101D+03 0.102645614164831D+02 -.652029090411312D+02 -.274725345920270D+02
 0.000000000000000D+00 0.000000000000000D+00 -.000000000000000D+00 -.000000000000000D+00
 0.155230548692330D+03 0.000000000000000D+00 0.000000000000000D+00 0.155230548692330D+03
 0.194982655363110D+03 0.000000000000000D+00 0.000000000000000D+00 -.194982655363110D+03
 0.155970525381429D+03 -.550753505526703D+02 0.700982909374347D+02 0.274725345920270D+02
 0.107261713930086D+03 -.218328197458164D+02 -.616964111264631D+02 -.274725345920270D+02
 0.869809647439261D+02 0.769081702984867D+02 -.840187981097157D+01 -.397521066707800D+02
0.299650736535D-03 0.000000000000D+00 0.000000000000D+00 0.257063391164D-02 0.000000000000D+00  5 -1 2 25 24 21 0 0.54878490D-02 0.68258121D-01 0.15054721D+05 0.15054721D+05 0.15054721D+05 0.12476423D+01  1  2  2  1  5  1       -1 0.349449433608D+00 0.100000000000D+01
-.166346176872D-04 0.000000000000D+00 -.115073772814D-05 0.257063391164D-02 0.000000000000D+00  5 -1 2 25 24 21 2 0.54878490D-02 0.68258121D-01 0.15054721D+05 0.15054721D+05 0.15054721D+05 0.12476423D+01  1  2  3  1  5  1       -1 -.301968740070D-01 0.100000000000D+01
0.207029147007D-04 0.000000000000D+00 0.000000000000D+00 0.257063391164D-02 0.000000000000D+00  5 -1 2 25 24 21 2 0.54878490D-02 0.68258121D-01 0.15054721D+05 0.15054721D+05 0.15054721D+05 0.12476423D+01  1  2 15  1  5  1       -1 0.375820664202D-01 0.100000000000D+01
-.407756776922D-04 0.000000000000D+00 0.000000000000D+00 0.257063391164D-02 0.000000000000D+00  5 -1 2 25 24 21 2 0.54878490D-02 0.68258121D-01 0.15054721D+05 0.15054721D+05 0.15054721D+05 0.12476423D+01  1  2  4  1  5  1       -1 -.740202164530D-01 0.100000000000D+01
  </mgrwgt>
  </event>
  <event>
  4     66 0.45252658E-03 0.15172021E+03 0.75467711E-02 0.10530988E+00
       -1 -1    0    0    0  501 0.00000000E+00 0.00000000E+00 0.17010820E+02 0.17013829E+02 0.32000000E+00 0.0000E+00 0.9000E+01
        2 -1    0    0  501    0 0.00000000E+00 0.00000000E+00 -.13567431E+04 0.13567432E+04 0.32000000E+00 0.0000E+00 0.9000E+01
       25  1    1    2    0    0 0.10950566E+03 -.14461350E+02 -.77184307E+03 0.78966281E+03 0.12500000E+03 0.0000E+00 0.9000E+01
       24  1    1    2    0    0 -.10950566E+03 0.14461350E+02 -.56788924E+03 0.58409419E+03 0.80419002E+02 0.0000E+00 0.9000E+01
#aMCatNLO 1  0  0  1  1 0.31270073D+03 0.00000000D+00  -5  5  0 0.00000000D+00 0.00000000D+00 0.00000000D+00 0.00000000D+00 0.00000000D+00
  <mgrwgt>
 0.4573783951D+00    5    2    0
 0.151925658527463D+03 0.000000000000000D+00 0.000000000000000D+00 0.151925658527463D+03
 0.151925658527463D+03 0.000000000000000D+00 0.000000000000000D+00 -.151925658527463D+03
 0.166995173667945D+03 0.109505659828677D+03 -.144613497169482D+02 -.785925303304520D+01
 0.136856143386980D+03 -.109505659828677D+03 0.144613497169482D+02 0.785925303304520D+01
 0.000000000000000D+00 -.000000000000000D+00 0.000000000000000D+00 0.000000000000000D+00
 0.608637336297488D+03 0.000000000000000D+00 0.000000000000000D+00 0.608637336297488D+03
 0.280585901781350D+03 0.000000000000000D+00 0.000000000000000D+00 -.280585901781350D+03
 0.287115225183315D+03 0.166158879519448D+03 -.197837335785412D+03 -.785925303304520D+01
 0.148897810194975D+03 -.738559994140791D+02 -.100930002570089D+03 0.785925303304520D+01
 0.453210202700549D+03 -.923028801053691D+02 0.298767338355501D+03 0.328051434516138D+03
0.468749317076D-03 0.000000000000D+00 0.000000000000D+00 0.238833819730D-02 0.000000000000D+00  5 -1 2 25 24 21 0 0.26172836D-02 0.20872995D+00 0.23019022D+05 0.23019022D+05 0.23019022D+05 0.12271603D+01  1  2  2  1  5  1       -1 0.393754618104D+00 0.100000000000D+01
-.260415707466D-04 0.000000000000D+00 -.180012080210D-05 0.238833819730D-02 0.000000000000D+00  5 -1 2 25 24 21 2 0.26172836D-02 0.20872995D+00 0.23019022D+05 0.23019022D+05 0.23019022D+05 0.12271603D+01  1  2  3  1  5  1       -1 -.329423663231D-01 0.100000000000D+01
0.322887488220D-04 0.000000000000D+00 0.000000000000D+00 0.238833819730D-02 0.000000000000D+00  5 -1 2 25 24 21 2 0.26172836D-02 0.20872995D+00 0.23019022D+05 0.23019022D+05 0.23019022D+05 0.12271603D+01  1  2 15  1  5  1       -1 0.408449936510D-01 0.100000000000D+01
0.344643899936D-03 0.000000000000D+00 -.257187775116D-03 0.238833819730D-02 0.000000000000D+00  5 -1 2 25 24 21 2 0.21170902D-01 0.20872995D+00 0.23019022D+05 0.23019022D+05 0.23019022D+05 0.12271603D+01  1  2  5  1  5  1       -1 0.182854956370D-01 0.100000000000D+01
0.560946971141D-04 0.000000000000D+00 -.652107893257D-04 0.238833819730D-02 0.000000000000D+00  5 21 2 25 24 1 2 0.21170902D-01 0.20872995D+00 0.23019022D+05 0.23019022D+05 0.23019022D+05 0.12271603D+01  1  2  5  3  5  1       -1 0.374356540705D-01 0.100000000000D+01
  </mgrwgt>
  </event>
  <event>
  4     66 0.45252658E-03 0.11979769E+03 0.75467711E-02 0.10614681E+00
       -1 -1    0    0    0  501 0.00000000E+00 0.00000000E+00 0.31714549E+02 0.31716164E+02 0.32000000E+00 0.0000E+00 0.9000E+01
        2 -1    0    0  501    0 0.00000000E+00 0.00000000E+00 -.57829810E+03 0.57829818E+03 0.32000000E+00 0.0000E+00 0.9000E+01
       25  1    1    2    0    0 0.33010244E+02 -.50802857E+02 -.16657757E+03 0.21689558E+03 0.12500000E+03 0.0000E+00 0.9000E+01
       24  1    1    2    0    0 -.33010244E+02 0.50802857E+02 -.38000598E+03 0.39311877E+03 0.80419002E+02 0.0000E+00 0.9000E+01
#aMCatNLO 1  0  0  2  2 0.31197931D+03 0.00000000D+00  -5  5  0 0.00000000D+00 0.00000000D+00 0.00000000D+00 0.00000000D+00 0.00000000D+00
  <mgrwgt>
 0.4607166186D+00    3    2    0
 0.135428885123891D+03 0.000000000000000D+00 0.000000000000000D+00 0.135428885123891D+03
 0.135428885123891D+03 0.000000000000000D+00 0.000000000000000D+00 -.135428885123891D+03
 0.152334038033575D+03 0.330102438432131D+02 -.508028568615947D+02 0.625304140377035D+02
 0.118523732214208D+03 -.330102438432131D+02 0.508028568615947D+02 -.625304140377035D+02
 0.000000000000000D+00 -.000000000000000D+00 -.000000000000000D+00 0.000000000000000D+00
 0.513114660316788D+03 0.000000000000000D+00 0.000000000000000D+00 0.513114660316788D+03
 0.285955469987557D+03 0.000000000000000D+00 0.000000000000000D+00 -.285955469987557D+03
 0.222576726648112D+03 0.161915455612200D+03 0.615526749991848D+02 0.625304140377035D+02
 0.190575812820289D+03 0.732671588453941D+02 0.143435683261664D+03 -.625304140377035D+02
 0.385917590835945D+03 -.235182614457594D+03 -.204988358260848D+03 0.227159190329232D+03
0.435115287248D-03 0.000000000000D+00 0.000000000000D+00 0.206524364534D-02 0.000000000000D+00  5 -1 2 25 24 21 0 0.48792924D-02 0.88969069D-01 0.14351487D+05 0.14351487D+05 0.14351487D+05 0.12500167D+01  1  2  2  2  5  2        2 0.450597000701D+00 0.100000000000D+01
-.237309988468D-04 0.000000000000D+00 -.167095727152D-05 0.206524364534D-02 0.000000000000D+00  5 -1 2 25 24 21 2 0.48792924D-02 0.88969069D-01 0.14351487D+05 0.14351487D+05 0.14351487D+05 0.12500167D+01  1  2  3  2  5  2        2 -.384000313989D-01 0.100000000000D+01
0.299848645777D-04 0.000000000000D+00 0.000000000000D+00 0.206524364534D-02 0.000000000000D+00  5 -1 2 25 24 21 2 0.48792924D-02 0.88969069D-01 0.14351487D+05 0.14351487D+05 0.14351487D+05 0.12500167D+01  1  2 15  2  5  2        2 0.485196492869D-01 0.100000000000D+01
  </mgrwgt>
  </event>
  <event>
  5     66 -.45252658E-03 0.15221501E+03 0.75467711E-02 0.11901504E+00
       -3 -1    0    0    0  501 0.00000000E+00 0.00000000E+00 0.11697457E+03 0.11697564E+03 0.50000000E+00 0.0000E+00 0.9000E+01
        4 -1    0    0  502    0 0.00000000E+00 0.00000000E+00 -.22373659E+03 0.22374196E+03 0.15500000E+01 0.0000E+00 0.9000E+01
       25  1    1    2    0    0 0.81500683E+02 -.65943615E+02 -.24852683E+02 0.16502599E+03 0.12500000E+03 0.0000E+00 0.9000E+01
       24  1    1    2    0    0 -.93817155E+02 0.69105912E+02 -.80530112E+02 0.16287910E+03 0.80419002E+02 0.0000E+00 0.9000E+01
       21  1    1    2  502  501 0.12316473E+02 -.31622961E+01 -.13792316E+01 0.12812509E+02 0.75000000E+00 0.0000E+00 0.9000E+01
#aMCatNLO 2  0  0  2  1 0.12715959D+02 0.00000000D+00  -5  5  0 0.00000000D+00 0.00000000D+00 0.00000000D+00 0.00000000D+00 0.00000000D+00
  <mgrwgt>
 -.4241164855D-01    3    2    0
 0.155124561336532D+03 0.000000000000000D+00 0.000000000000000D+00 0.155124561336532D+03
 0.155124561336532D+03 0.000000000000000D+00 0.000000000000000D+00 -.155124561336532D+03
 0.169883320308559D+03 0.881616985648440D+02 -.676538537885522D+02 0.297626190510734D+02
 0.140365802364504D+03 -.881616985648440D+02 0.676538537885522D+02 -.297626190510734D+02
 0.000000000000000D+00 0.000000000000000D+00 -.000000000000000D+00 0.000000000000000D+00
 0.163220958107875D+03 0.000000000000000D+00 0.000000000000000D+00 0.163220958107875D+03
 0.160329256739029D+03 0.000000000000000D+00 0.000000000000000D+00 -.160329256739029D+03
 0.165836471325267D+03 0.815006828852866D+02 -.659436154458390D+02 0.297626190510734D+02
 0.144673131960196D+03 -.938171554611476D+02 0.691059115069124D+02 -.297626190510734D+02
 0.130406115614415D+02 0.123164725758610D+02 -.316229606107335D+01 0.289170136884597D+01
-.152017279295D-02 0.000000000000D+00 0.000000000000D+00 0.229031895429D-02 0.000000000000D+00  5 -3 4 25 24 21 2 0.17102740D-01 0.35252495D-01 0.25191790D+05 0.25191790D+05 0.25191790D+05 0.12229420D+01  1  2 13  2  5  2        4 -.105388648263D+00 0.100000000000D+01
-.564053033881D-04 0.000000000000D+00 0.000000000000D+00 0.229031895429D-02 0.000000000000D+00  5 -3 4 25 24 21 2 0.17102740D-01 0.33301877D-01 0.23169409D+05 0.23169409D+05 0.23169409D+05 0.12268543D+01  1  2  8  2  5  2        4 -.436252627170D-02 0.100000000000D+01
0.101336219986D-02 0.000000000000D+00 0.000000000000D+00 0.229031895429D-02 0.113097875906D-03  5 -3 4 25 24 21 2 0.17995381D-01 0.34419213D-01 0.25191790D+05 0.25191790D+05 0.25191790D+05 0.12229420D+01  1  2  1  2  5  2        4 0.673395259850D-01 0.100000000000D+01
  </mgrwgt>
  </event>
  <event>
  5     66 0.45252658E-03 0.17245594E+03 0.75467711E-02 0.11099800E+00
       21 -1    0    0  502  501 0.00000000E+00 0.00000000E+00 0.38585379E+03 0.38585452E+03 0.75000000E+00 0.0000E+00 0.9000E+01
        2 -1    0    0  501    0 0.00000000E+00 0.00000000E+00 -.52684913E+03 0.52684922E+03 0.32000000E+00 0.0000E+00 0.9000E+01
       25  1    1    2    0    0 -.14014276E+03 -.16902686E+03 -.42151660E+03 0.49143801E+03 0.12500000E+03 0.0000E+00 0.9000E+01
       24  1    1    2    0    0 0.31644824E+02 0.73353360E+02 0.91205999E+01 0.11372120E+03 0.80419002E+02 0.0000E+00 0.9000E+01
        1  1    1    2  502    0 0.10849793E+03 0.95673503E+02 0.27140066E+03 0.30754454E+03 0.32000000E+00 0.0000E+00 0.9000E+01
#aMCatNLO 2  0  0  1  2 0.14465552D+03 0.00000000D+00  -5  5  0 0.00000000D+00 0.00000000D+00 0.00000000D+00 0.00000000D+00 0.00000000D+00
  <mgrwgt>
 0.1546981521D+00    2    2    0
 0.209297627975194D+03 0.000000000000000D+00 0.000000000000000D+00 0.209297627975194D+03
 0.209297627975194D+03 0.000000000000000D+00 0.000000000000000D+00 -.209297627975194D+03
 0.220236337761617D+03 -.772667016802574D+02 -.113582741910228D+03 -.118354814106811D+03
 0.198358918188771D+03 0.772667016802574D+02 0.113582741910228D+03 0.118354814106811D+03
 0.000000000000000D+00 0.000000000000000D+00 0.000000000000000D+00 0.000000000000000D+00
 0.886523151912827D+03 0.000000000000000D+00 0.000000000000000D+00 0.886523151912827D+03
 0.229308219418813D+03 0.000000000000000D+00 0.000000000000000D+00 -.229308219418813D+03
 0.279003467847452D+03 -.140142758336293D+03 -.169026862760159D+03 -.118354814106811D+03
 0.163881629064360D+03 0.316448243453472D+02 0.733533602523581D+02 0.118354814106811D+03
 0.672946274419828D+03 0.108497933990946D+03 0.956735025078007D+02 0.657214932494015D+03
-.369698568974D-04 0.000000000000D+00 0.000000000000D+00 0.148470746039D-02 0.000000000000D+00  5 21 2 25 24 1 2 0.57200600D-01 0.73980602D-01 0.65195051D+05 0.65195051D+05 0.65195051D+05 0.11810343D+01  1  2 13  3  5  1       -1 -.117600307839D-01 0.100000000000D+01
0.628076804004D-03 0.000000000000D+00 0.000000000000D+00 0.148470746039D-02 0.141876336311D-06  5 21 2 25 24 1 2 0.59362176D-01 0.81053762D-01 0.65195051D+05 0.65195051D+05 0.65195051D+05 0.11810343D+01  1  2  1  3  5  1       -1 0.166458182867D+00 0.100000000000D+01
  </mgrwgt>
  </event>
  <event>
  5     66 0.45252658E-03 0.11245581E+03 0.75467711E-02 0.11927475E+00
       21 -1    0    0  502  501 0.00000000E+00 0.00000000E+00 0.57798753E+02 0.57803619E+02 0.75000000E+00 0.0000E+00 0.9000E+01
        2 -1    0    0  501    0 0.00000000E+00 0.00000000E+00 -.87921462E+03 0.87921468E+03 0.32000000E+00 0.0000E+00 0.9000E+01
       25  1    1    2    0    0 -.64034886E+02 -.64378560E+02 -.61568536E+03 0.63477439E+03 0.12500000E+03 0.0000E+00 0.9000E+01
       24  1    1    2    0    0 0.37374046E+01 0.18348894E+02 -.21062031E+03 0.22622727E+03 0.80419002E+02 0.0000E+00 0.9000E+01
        1  1    1    2  502    0 0.60297481E+02 0.46029665E+02 0.48897954E+01 0.76016635E+02 0.32000000E+00 0.0000E+00 0.9000E+01
#aMCatNLO 2  0  0  1  2 0.75858528D+02 0.00000000D+00  -5  5  0 0.00000000D+00 0.00000000D+00 0.00000000D+00 0.00000000D+00 0.00000000D+00
  <mgrwgt>
 0.3960748707D+00    2    2    0
 0.114878520040057D+03 0.000000000000000D+00 0.000000000000000D+00 0.114878520040057D+03
 0.114878520040057D+03 0.000000000000000D+00 0.000000000000000D+00 -.114878520040057D+03
 0.134807798469210D+03 -.268342775165792D+02 -.359804987734215D+02 -.230969215761357D+02
 0.949492416109032D+02 0.268342775165792D+02 0.359804987734215D+02 0.230969215761357D+02
 0.000000000000000D+00 0.000000000000000D+00 0.000000000000000D+00 0.000000000000000D+00
 0.403082614113441D+03 0.000000000000000D+00 0.000000000000000D+00 0.403082614113441D+03
 0.126077743129671D+03 0.000000000000000D+00 0.000000000000000D+00 -.126077743129671D+03
 0.156216302931165D+03 -.640348855449397D+02 -.643785596952429D+02 -.230969215761357D+02
 0.857399198756506D+02 0.373740464903963D+01 0.183488944110436D+02 0.230969215761357D+02
 0.287204134436296D+03 0.602974808959001D+02 0.460296652841993D+02 0.277004870983770D+03
-.176910313532D-04 0.000000000000D+00 0.000000000000D+00 0.279030105918D-02 0.000000000000D+00  5 21 2 25 24 1 2 0.86371043D-02 0.12324885D+00 0.24481030D+05 0.24481030D+05 0.24481030D+05 0.12242756D+01  1  2 13  3  5  1       -1 -.125035524788D+00 0.100000000000D+01
0.873444530224D-04 0.000000000000D+00 0.000000000000D+00 0.279030105918D-02 0.116363684679D-05  5 21 2 25 24 1 2 0.88924885D-02 0.13526407D+00 0.24481030D+05 0.24481030D+05 0.24481030D+05 0.12242756D+01  1  2  1  3  5  1       -1 0.521110395532D+00 0.100000000000D+01
  </mgrwgt>
  </event>
  <event>
  4     66 0.45252658E-03 0.11616524E+03 0.75467711E-02 0.12162666E+00
       -1 -1    0    0    0  501 0.00000000E+00 0.00000000E+00 0.10548062E+02 0.10552915E+02 0.32000000E+00 0.0000E+00 0.9000E+01
        2 -1    0    0  501    0 0.00000000E+00 0.00000000E+00 -.16709073E+04 0.16709073E+04 0.32000000E+00 0.0000E+00 0.9000E+01
       25  1    1    2    0    0 0.49868992E+02 0.18701993E+02 -.13406377E+04 0.13475056E+04 0.12500000E+03 0.0000E+00 0.9000E+01
       24  1    1    2    0    0 -.49868992E+02 -.18701993E+02 -.31972150E+03 0.33395469E+03 0.80419002E+02 0.0000E+00 0.9000E+01
#aMCatNLO 1  0  0  1  2 0.40716893D+02 0.00000000D+00  -5  5  0 0.00000000D+00 0.00000000D+00 0.00000000D+00 0.00000000D+00 0.00000000D+00
  <mgrwgt>
 0.2765694876D+00    4    2    0
 0.132774017680364D+03 0.000000000000000D+00 0.000000000000000D+00 0.132774017680364D+03
 0.132774017680364D+03 0.000000000000000D+00 0.000000000000000D+00 -.132774017680364D+03
 0.150017195610846D+03 0.498689915322344D+02 0.187019930828780D+02 -.635883489110121D+02
 0.115530839749883D+03 -.498689915322344D+02 -.187019930828780D+02 0.635883489110121D+02
 0.000000000000000D+00 -.000000000000000D+00 -.000000000000000D+00 -.000000000000000D+00
 0.148550662271397D+03 0.000000000000000D+00 0.000000000000000D+00 0.148550662271397D+03
 0.163462392726311D+03 0.000000000000000D+00 0.000000000000000D+00 -.163462392726311D+03
 0.159722840962726D+03 0.732804434984591D+02 0.217459055604701D+02 -.635883489110121D+02
 0.108928651631097D+03 -.329034011004633D+02 -.164961592678935D+02 0.635883489110121D+02
 0.433615624038846D+02 -.403770423979958D+02 -.524974629257659D+01 -.149117304549140D+02
0.375133955698D-03 0.000000000000D+00 0.000000000000D+00 0.205678160239D-02 0.000000000000D+00  5 -1 2 25 24 21 0 0.16231544D-02 0.25706304D+00 0.13494363D+05 0.13494363D+05 0.13494363D+05 0.12530939D+01  1  2  2  1  5  1       -1 0.426114283659D+00 0.100000000000D+01
-.203882579267D-04 0.000000000000D+00 -.144061316492D-05 0.205678160239D-02 0.000000000000D+00  5 -1 2 25 24 21 2 0.16231544D-02 0.25706304D+00 0.13494363D+05 0.13494363D+05 0.13494363D+05 0.12530939D+01  1  2  3  1  5  1       -1 -.363652893540D-01 0.100000000000D+01
0.256009261440D-04 0.000000000000D+00 0.000000000000D+00 0.205678160239D-02 0.000000000000D+00  5 -1 2 25 24 21 2 0.16231544D-02 0.25706304D+00 0.13494363D+05 0.13494363D+05 0.13494363D+05 0.12530939D+01  1  2 15  1  5  1       -1 0.456628070088D-01 0.100000000000D+01
-.890551984898D-04 0.000000000000D+00 0.000000000000D+00 0.205678160239D-02 0.000000000000D+00  5 -1 2 25 24 21 2 0.16231544D-02 0.25706304D+00 0.13494363D+05 0.13494363D+05 0.13494363D+05 0.12530939D+01  1  2  4  1  5  1       -1 -.158842313708D+00 0.100000000000D+01
  </mgrwgt>
  </event>
  <event>
  5     66 0.45252658E-03 0.20092125E+03 0.75467711E-02 0.11447624E+00
       21 -1    0    0  502  501 0.00000000E+00 0.00000000E+00 0.10968118E+02 0.10993730E+02 0.75000000E+00 0.0000E+00 0.9000E+01
        2 -1    0    0  501    0 0.00000000E+00 0.00000000E+00 -.47263632E+04 0.47263632E+04 0.32000000E+00 0.0000E+00 0.9000E+01
       25  1    1    2    0    0 0.16834671E+02 -.16863455E+03 -.19610179E+04 0.19722924E+04 0.12500000E+03 0.0000E+00 0.9000E+01
       24  1    1    2    0    0 -.80215606E+01 0.17348221E+03 -.17161291E+04 0.17267677E+04 0.80419002E+02 0.0000E+00 0.9000E+01
        1  1    1    2  502    0 -.88131100E+01 -.48476609E+01 -.10382481E+04 0.10382969E+04 0.32000000E+00 0.0000E+00 0.9000E+01
#aMCatNLO 2  0  0  1  1 0.10058366D+02 0.00000000D+00  -5  5  0 0.00000000D+00 0.00000000D+00 0.00000000D+00 0.00000000D+00 0.00000000D+00
  <mgrwgt>
 0.1214314957D-01    1    2    0
 0.200956653815581D+03 0.000000000000000D+00 0.000000000000000D+00 0.200956653815581D+03
 0.200956653815581D+03 0.000000000000000D+00 0.000000000000000D+00 -.200956653815581D+03
 0.212349389353009D+03 0.121979989477727D+02 -.171184957947787D+03 -.376591989827284D+01
 0.189563918278153D+03 -.121979989477727D+02 0.171184957947787D+03 0.376591989827284D+01
 0.000000000000000D+00 -.000000000000000D+00 -.000000000000000D+00 -.000000000000000D+00
 0.201466518199952D+03 0.000000000000000D+00 0.000000000000000D+00 0.201466518199952D+03
 0.257609900347101D+03 0.000000000000000D+00 0.000000000000000D+00 -.257609900347101D+03
 0.210618613343676D+03 0.168346705569672D+02 -.168634551623833D+03 -.376591989827284D+01
 0.191420535962198D+03 -.802156056175250D+01 0.173482212480584D+03 0.376591989827284D+01
 0.570372692411783D+02 -.881310999521469D+01 -.484766085675104D+01 -.561433821471492D+02
0.379592979068D-04 0.000000000000D+00 0.000000000000D+00 0.216034930291D-02 0.914376561060D-07  5 21 2 25 24 1 2 0.16893700D-02 0.72713315D+00 0.42441520D+05 0.42441520D+05 0.42441520D+05 0.11993960D+01  1  2  1  3  5  1       -1 0.121431495748D-01 0.100000000000D+01
  </mgrwgt>
  </event>
  <event>
  4     66 0.45252658E-03 0.11622337E+03 0.75467711E-02 0.11418149E+00
       -1 -1    0    0    0  501 0.00000000E+00 0.00000000E+00 0.13296585E+02 0.13300435E+02 0.32000000E+00 0.0000E+00 0.9000E+01
        2 -1    0    0  501    0 0.00000000E+00 0.00000000E+00 -.11520793E+04 0.11520793E+04 0.32000000E+00 0.0000E+00 0.9000E+01
       25  1    1    2    0    0 0.27322964E+02 -.45861270E+02 -.45658082E+03 0.47638308E+03 0.12500000E+03 0.0000E+00 0.9000E+01
       24  1    1    2    0    0 -.27322964E+02 0.45861270E+02 -.68220188E+03 0.68899668E+03 0.80419002E+02 0.0000E+00 0.9000E+01
#aMCatNLO 1  0  0  1  1 0.14609291D+03 0.00000000D+00  -5  5  0 0.00000000D+00 0.00000000D+00 0.00000000D+00 0.00000000D+00 0.00000000D+00
  <mgrwgt>
 0.4228251407D+00    5    2    0
 0.123777984231887D+03 0.000000000000000D+00 0.000000000000000D+00 0.123777984231887D+03
 0.123777984231887D+03 0.000000000000000D+00 0.000000000000000D+00 -.123777984231887D+03
 0.142274375376198D+03 0.273229637173705D+02 -.458612695572803D+02 0.420380482061309D+02
 0.105281593087575D+03 -.273229637173705D+02 0.458612695572803D+02 -.420380482061309D+02
 0.000000000000000D+00 -.000000000000000D+00 0.000000000000000D+00 0.000000000000000D+00
 0.222105960661605D+03 0.000000000000000D+00 0.000000000000000D+00 0.222105960661605D+03
 0.211799341640027D+03 0.000000000000000D+00 0.000000000000000D+00 -.211799341640027D+03
 0.189118346151206D+03 0.113086460084036D+03 -.747328836567133D+02 0.420380482061309D+02
 0.983309442453931D+02 0.253713834163811D+02 0.281221273800199D+02 -.420380482061309D+02
 0.146456011905034D+03 -.138457843500417D+03 0.466107562766934D+02 0.103066190215776D+02
0.219478986523D-03 0.000000000000D+00 0.000000000000D+00 0.244231093021D-02 0.000000000000D+00  5 -1 2 25 24 21 0 0.20459280D-02 0.17724327D+00 0.13507871D+05 0.13507871D+05 0.13507871D+05 0.12530437D+01  1  2  2  1  5  1       -1 0.335724409331D+00 0.100000000000D+01
-.121344811791D-04 0.000000000000D+00 -.842857098392D-06 0.244231093021D-02 0.000000000000D+00  5 -1 2 25 24 21 2 0.20459280D-02 0.17724327D+00 0.13507871D+05 0.13507871D+05 0.13507871D+05 0.12530437D+01  1  2  3  1  5  1       -1 -.291436278449D-01 0.100000000000D+01
0.151563337357D-04 0.000000000000D+00 0.000000000000D+00 0.244231093021D-02 0.000000000000D+00  5 -1 2 25 24 21 2 0.20459280D-02 0.17724327D+00 0.13507871D+05 0.13507871D+05 0.13507871D+05 0.12530437D+01  1  2 15  1  5  1       -1 0.364012719923D-01 0.100000000000D+01
0.433341029221D-04 0.000000000000D+00 -.661200690356D-04 0.244231093021D-02 0.000000000000D+00  5 -1 2 25 24 21 2 0.66612310D-02 0.17724327D+00 0.13507871D+05 0.13507871D+05 0.13507871D+05 0.12530437D+01  1  2  5  1  5  1       -1 0.185658738544D-01 0.100000000000D+01
0.863557659761D-05 0.000000000000D+00 -.901710546048D-05 0.244231093021D-02 0.000000000000D+00  5 21 2 25 24 1 2 0.66612310D-02 0.17724327D+00 0.13507871D+05 0.13507871D+05 0.13507871D+05 0.12530437D+01  1  2  5  3  5  1       -1 0.612772133739D-01 0.100000000000D+01
  </mgrwgt>
  </event>
  <event>
  4     66 0.45252658E-03 0.15787212E+03 0.75467711E-02 0.11480905E+00
       -1 -1    0    0    0  501 0.00000000E+00 0.00000000E+00 0.55983081E+02 0.55983996E+02 0.32000000E+00 0.0000E+00 0.9000E+01
        2 -1    0    0  501    0 0.00000000E+00 0.00000000E+00 -.46038843E+03 0.46038854E+03 0.32000000E+00 0.0000E+00 0.9000E+01
       25  1    1    2    0    0 0.13796079E+01 0.11868403E+03 -.17345160E+03 0.24453683E+03 0.12500000E+03 0.0000E+00 0.9000E+01
       24  1    1    2    0    0 -.13796079E+01 -.11868403E+03 -.23095375E+03 0.27183571E+03 0.80419002E+02 0.0000E+00 0.9000E+01
#aMCatNLO 1  0  0  1  1 0.78617429D+02 0.00000000D+00  -5  5  0 0.00000000D+00 0.00000000D+00 0.00000000D+00 0.00000000D+00 0.00000000D+00
  <mgrwgt>
 0.4515565219D+00    4    2    0
 0.160543538656277D+03 0.000000000000000D+00 0.000000000000000D+00 0.160543538656277D+03
 0.160543538656277D+03 0.000000000000000D+00 0.000000000000000D+00 -.160543538656277D+03
 0.174804131331446D+03 0.137960789534673D+01 0.118684031656980D+03 0.290461984128960D+02
 0.146282945981108D+03 -.137960789534673D+01 -.118684031656980D+03 -.290461984128960D+02
 0.000000000000000D+00 0.000000000000000D+00 -.000000000000000D+00 -.000000000000000D+00
 0.184474252522624D+03 0.000000000000000D+00 0.000000000000000D+00 0.184474252522624D+03
 0.245812209102650D+03 0.000000000000000D+00 0.000000000000000D+00 -.245812209102650D+03
 0.188919129404754D+03 -.402073365397508D+02 0.132684309174777D+03 0.290461984128960D+02
 0.141652513824694D+03 -.343012196273028D+02 -.107600945201810D+03 -.290461984128960D+02
 0.997148183958255D+02 0.745085561670535D+02 -.250833639729674D+02 -.613379565800257D+02
0.913206404722D-03 0.000000000000D+00 0.000000000000D+00 0.226363015767D-02 0.000000000000D+00  5 -1 2 25 24 21 0 0.86128606D-02 0.70829069D-01 0.24923605D+05 0.24923605D+05 0.24923605D+05 0.12234402D+01  1  2  2  1  5  1       -1 0.528898271478D+00 0.100000000000D+01
-.507163209758D-04 0.000000000000D+00 -.350695304690D-05 0.226363015767D-02 0.000000000000D+00  5 -1 2 25 24 21 2 0.86128606D-02 0.70829069D-01 0.24923605D+05 0.24923605D+05 0.24923605D+05 0.12234402D+01  1  2  3  1  5  1       -1 -.439659449347D-01 0.100000000000D+01
0.629894746940D-04 0.000000000000D+00 0.000000000000D+00 0.226363015767D-02 0.000000000000D+00  5 -1 2 25 24 21 2 0.86128606D-02 0.70829069D-01 0.24923605D+05 0.24923605D+05 0.24923605D+05 0.12234402D+01  1  2 15  1  5  1       -1 0.546055337331D-01 0.100000000000D+01
-.101489682608D-03 0.000000000000D+00 0.000000000000D+00 0.226363015767D-02 0.000000000000D+00  5 -1 2 25 24 21 2 0.86128606D-02 0.70829069D-01 0.24923605D+05 0.24923605D+05 0.24923605D+05 0.12234402D+01  1  2  4  1  5  1       -1 -.879813383762D-01 0.100000000000D+01
  </mgrwgt>
  </event>
  <event>
  4     66 0.45252658E-03 0.65544740E+02 0.75467711E-02 0.12553799E+00
       -1 -1    0    0    0  501 0.00000000E+00 0.00000000E+00 0.13133068E+03 0.13133107E+03 0.32000000E+00 0.0000E+00 0.9000E+01
        2 -1    0    0  501    0 0.00000000E+00 0.00000000E+00 -.96934876E+02 0.96935404E+02 0.32000000E+00 0.0000E+00 0.9000E+01
       25  1    1    2    0    0 -.16323711E+02 -.11555332E+02 -.21370616E+02 0.12838104E+03 0.12500000E+03 0.0000E+00 0.9000E+01
       24  1    1    2    0    0 0.16323711E+02 0.11555332E+02 0.55766417E+02 0.99885426E+02 0.80419002E+02 0.0000E+00 0.9000E+01
#aMCatNLO 1  0  0  2  1 0.15730924D+02 0.00000000D+00  -5  5  0 0.00000000D+00 0.00000000D+00 0.00000000D+00 0.00000000D+00 0.00000000D+00
  <mgrwgt>
 0.3923539064D+00    9    2    0
 0.112830082922493D+03 0.000000000000000D+00 0.000000000000000D+00 0.112830082922493D+03
 0.112830082922493D+03 0.000000000000000D+00 0.000000000000000D+00 -.112830082922493D+03
 0.133121178631251D+03 -.163237113370206D+02 -.115553320915383D+02 -.411856643580415D+02
 0.925389872137355D+02 0.163237113370206D+02 0.115553320915383D+02 0.411856643580415D+02
 0.000000000000000D+00 0.000000000000000D+00 0.000000000000000D+00 -.000000000000000D+00
 0.118207390900542D+03 0.000000000000000D+00 0.000000000000000D+00 0.118207390900542D+03
 0.125226105241578D+03 0.000000000000000D+00 0.000000000000000D+00 -.125226105241578D+03
 0.134612330986943D+03 -.256374427366212D+02 -.119139512778673D+02 -.411856643580415D+02
 0.915954770746560D+02 0.991816671827977D+01 0.113086907508543D+02 0.411856643580415D+02
 0.172256880805219D+02 0.157192760183414D+02 0.605260527013025D+00 -.701871434103648D+01
0.321706538655D-03 0.000000000000D+00 0.000000000000D+00 0.260670611302D-02 0.000000000000D+00  5 -1 2 25 24 21 0 0.20204790D-01 0.14913128D-01 0.10968210D+05 0.10968210D+05 0.10968210D+05 0.12636261D+01  1  2  2  2  5  2        2 0.264200497495D+00 0.100000000000D+01
-.177519604860D-04 0.000000000000D+00 -.123543781571D-05 0.260670611302D-02 0.000000000000D+00  5 -1 2 25 24 21 2 0.20204790D-01 0.14913128D-01 0.10968210D+05 0.10968210D+05 0.10968210D+05 0.12636261D+01  1  2  3  2  5  2        2 -.232786206323D-01 0.100000000000D+01
0.220382420790D-04 0.000000000000D+00 0.000000000000D+00 0.260670611302D-02 0.000000000000D+00  5 -1 2 25 24 21 2 0.20204790D-01 0.14913128D-01 0.10968210D+05 0.10968210D+05 0.10968210D+05 0.12636261D+01  1  2 15  2  5  2        2 0.288993363389D-01 0.100000000000D+01
0.684868887593D-03 0.000000000000D+00 0.000000000000D+00 0.260670611302D-02 0.000000000000D+00  5 -1 2 25 24 21 2 0.20204790D-01 0.16877686D-01 0.12735301D+05 0.12735301D+05 0.12735301D+05 0.12560083D+01  1  2 12  2  5  2        2 0.773595587035D+00 0.100000000000D+01
-.659921490058D-03 0.000000000000D+00 0.000000000000D+00 0.260670611302D-02 0.000000000000D+00  5 -1 2 25 24 21 2 0.20204790D-01 0.14913128D-01 0.10968210D+05 0.10968210D+05 0.10968210D+05 0.12636261D+01  1  2  4  2  5  2        2 -.865372702147D+00 0.100000000000D+01
-.169235108786D-02 0.000000000000D+00 -.369415165359D-03 0.260670611302D-02 0.000000000000D+00  5 -1 2 25 24 21 2 0.20204790D-01 0.17299765D-01 0.10968210D+05 0.10968210D+05 0.10968210D+05 0.12636261D+01  1  2  5  2  5  2        2 -.187035487246D+01 0.100000000000D+01
0.173210375785D-02 0.000000000000D+00 0.365381679801D-03 0.260670611302D-02 0.000000000000D+00  5 -1 2 25 24 21 2 0.20204790D-01 0.14913128D-01 0.10968210D+05 0.10968210D+05 0.10968210D+05 0.12636261D+01  1  2  6  2  5  2        2 0.227135398970D+01 0.100000000000D+01
0.133343364157D-04 0.000000000000D+00 0.000000000000D+00 0.260670611302D-02 0.000000000000D+00  5 -1 21 25 24 -2 2 0.20204790D-01 0.16877686D-01 0.12735301D+05 0.12735301D+05 0.12735301D+05 0.12560083D+01  1  2 12  4  5  2        2 0.117569603168D+00 0.100000000000D+01
-.357642918765D-04 0.000000000000D+00 -.835613816085D-05 0.260670611302D-02 0.000000000000D+00  5 -1 21 25 24 -2 2 0.20204790D-01 0.17299765D-01 0.10968210D+05 0.10968210D+05 0.10968210D+05 0.12636261D+01  1  2  5  4  5  2        2 -.304258912087D+00 0.100000000000D+01
  </mgrwgt>
  </event>
  <event>
  4     66 0.45252658E-03 0.11028882E+03 0.75467711E-02 0.11763002E+00
       -1 -1    0    0    0  501 0.00000000E+00 0.00000000E+00 0.39581002E+02 0.39582296E+02 0.32000000E+00 0.0000E+00 0.9000E+01
        2 -1    0    0  501    0 0.00000000E+00 0.00000000E+00 -.37211788E+03 0.37211801E+03 0.32000000E+00 0.0000E+00 0.9000E+01
       25  1    1    2    0    0 -.11724280E+02 0.37563005E+02 -.27675721E+03 0.30621559E+03 0.12500000E+03 0.0000E+00 0.9000E+01
       24  1    1    2    0    0 0.11724280E+02 -.37563005E+02 -.55779666E+02 0.10548472E+03 0.80419002E+02 0.0000E+00 0.9000E+01
#aMCatNLO 1  0  0  1  2 0.10037448D+03 0.00000000D+00  -5  5  0 0.00000000D+00 0.00000000D+00 0.00000000D+00 0.00000000D+00 0.00000000D+00
  <mgrwgt>
 0.4675372583D+00    3    2    0
 0.121363475044218D+03 0.000000000000000D+00 0.000000000000000D+00 0.121363475044218D+03
 0.121363475044218D+03 0.000000000000000D+00 0.000000000000000D+00 -.121363475044218D+03
 0.140227849276854D+03 -.117242802436803D+02 0.375630047727630D+02 -.499040242667990D+02
 0.102499100811582D+03 0.117242802436803D+02 -.375630047727630D+02 0.499040242667990D+02
 0.000000000000000D+00 -.000000000000000D+00 -.000000000000000D+00 -.000000000000000D+00
 0.146992471279427D+03 0.000000000000000D+00 0.000000000000000D+00 0.146992471279427D+03
 0.292157078852425D+03 0.000000000000000D+00 0.000000000000000D+00 -.292157078852425D+03
 0.147035969405558D+03 0.453264096940590D+02 0.380746798444467D+02 -.499040242667990D+02
 0.115626187847199D+03 0.550440351224170D+02 -.371744794331555D+02 0.499040242667990D+02
 0.176487392879095D+03 -.100370444816476D+03 -.900200411291265D+00 -.145164607572997D+03
0.382978188805D-03 0.000000000000D+00 0.000000000000D+00 0.235326249644D-02 0.000000000000D+00  5 -1 2 25 24 21 0 0.60894951D-02 0.57249014D-01 0.12163625D+05 0.12163625D+05 0.12163625D+05 0.12583354D+01  1  2  2  1  5  1       -1 0.457878330404D+00 0.100000000000D+01
-.210397057840D-04 0.000000000000D+00 -.147073708549D-05 0.235326249644D-02 0.000000000000D+00  5 -1 2 25 24 21 2 0.60894951D-02 0.57249014D-01 0.12163625D+05 0.12163625D+05 0.12163625D+05 0.12583354D+01  1  2  3  1  5  1       -1 -.398298351570D-01 0.100000000000D+01
0.261419363306D-04 0.000000000000D+00 0.000000000000D+00 0.235326249644D-02 0.000000000000D+00  5 -1 2 25 24 21 2 0.60894951D-02 0.57249014D-01 0.12163625D+05 0.12163625D+05 0.12163625D+05 0.12583354D+01  1  2 15  1  5  1       -1 0.494887630760D-01 0.100000000000D+01
  </mgrwgt>
  </event>
  <event>
  4     66 0.45252658E-03 0.13800763E+03 0.75467711E-02 0.11033381E+00
       -1 -1    0    0    0  501 0.00000000E+00 0.00000000E+00 0.45479119E+02 0.45480245E+02 0.32000000E+00 0.0000E+00 0.9000E+01
        2 -1    0    0  501    0 0.00000000E+00 0.00000000E+00 -.43378590E+03 0.43378602E+03 0.32000000E+00 0.0000E+00 0.9000E+01
       25  1    1    2    0    0 0.80807880E+02 -.41776649E+02 -.26093987E+03 0.30329823E+03 0.12500000E+03 0.0000E+00 0.9000E+01
       24  1    1    2    0    0 -.80807880E+02 0.41776649E+02 -.12736691E+03 0.17596803E+03 0.80419002E+02 0.0000E+00 0.9000E+01
#aMCatNLO 1  0  0  2  2 0.19499277D+03 0.00000000D+00  -5  5  0 0.00000000D+00 0.00000000D+00 0.00000000D+00 0.00000000D+00 0.00000000D+00
  <mgrwgt>
 0.5686068896D+00    3    2    0
 0.140458173857957D+03 0.000000000000000D+00 0.000000000000000D+00 0.140458173857957D+03
 0.140458173857957D+03 0.000000000000000D+00 0.000000000000000D+00 -.140458173857957D+03
 0.156758015643759D+03 0.808078797898051D+02 -.417766486767970D+02 -.259398083605253D+02
 0.124158332072155D+03 -.808078797898051D+02 0.417766486767970D+02 0.259398083605253D+02
 0.000000000000000D+00 0.000000000000000D+00 0.000000000000000D+00 0.000000000000000D+00
 0.189526960106672D+04 0.000000000000000D+00 0.000000000000000D+00 0.189526960106672D+04
 0.176492390495150D+03 0.000000000000000D+00 0.000000000000000D+00 -.176492390495150D+03
 0.141386511896956D+03 -.107698832709605D+02 -.598020208934203D+02 -.259398083605253D+02
 0.200572808306152D+03 -.180551959204296D+03 0.221438896121579D+02 0.259398083605253D+02
 0.172980267135876D+04 0.191321842475256D+03 0.376581312812624D+02 0.171877721057157D+04
0.664109798814D-03 0.000000000000D+00 0.000000000000D+00 0.241940087581D-02 0.000000000000D+00  5 -1 2 25 24 21 0 0.69968832D-02 0.66736388D-01 0.19046106D+05 0.19046106D+05 0.19046106D+05 0.12361695D+01  1  2  2  2  5  2        2 0.557098389892D+00 0.100000000000D+01
-.368810920933D-04 0.000000000000D+00 -.255035649157D-05 0.241940087581D-02 0.000000000000D+00  5 -1 2 25 24 21 2 0.69968832D-02 0.66736388D-01 0.19046106D+05 0.19046106D+05 0.19046106D+05 0.12361695D+01  1  2  3  2  5  2        2 -.472772069002D-01 0.100000000000D+01
0.458589075226D-04 0.000000000000D+00 0.000000000000D+00 0.241940087581D-02 0.000000000000D+00  5 -1 2 25 24 21 2 0.69968832D-02 0.66736388D-01 0.19046106D+05 0.19046106D+05 0.19046106D+05 0.12361695D+01  1  2 15  2  5  2        2 0.587857066075D-01 0.100000000000D+01
  </mgrwgt>
  </event>
  <event>
  4     66 0.45252658E-03 0.10949643E+03 0.75467711E-02 0.11992751E+00
       -1 -1    0    0    0  501 0.00000000E+00 0.00000000E+00 0.48592617E+01 0.48697869E+01 0.32000000E+00 0.0000E+00 0.9000E+01
        2 -1    0    0  501    0 0.00000000E+00 0.00000000E+00 -.26343341E+04 0.26343341E+04 0.32000000E+00 0.0000E+00 0.9000E+01
       25  1    1    2    0    0 0.18713266E+02 -.32099136E+02 -.12204894E+04 0.12274363E+04 0.12500000E+03 0.0000E+00 0.9000E+01
       24  1    1    2    0    0 -.18713266E+02 0.32099136E+02 -.14089854E+04 0.14117676E+04 0.80419002E+02 0.0000E+00 0.9000E+01
#aMCatNLO 1  0  0  2  2 0.71421848D+02 0.00000000D+00  -5  5  0 0.00000000D+00 0.00000000D+00 0.00000000D+00 0.00000000D+00 0.00000000D+00
  <mgrwgt>
 0.6254436358D+00    3    2    0
 0.113202622118454D+03 0.000000000000000D+00 0.000000000000000D+00 0.113202622118454D+03
 0.113202622118454D+03 0.000000000000000D+00 0.000000000000000D+00 -.113202622118454D+03
 0.133426941737232D+03 0.187132658003866D+02 -.320991361396216D+02 0.282348707014005D+02
 0.929783024996758D+02 -.187132658003866D+02 0.320991361396216D+02 -.282348707014005D+02
 0.000000000000000D+00 0.000000000000000D+00 -.000000000000000D+00 0.000000000000000D+00
 0.145883101851067D+04 0.000000000000000D+00 0.000000000000000D+00 0.145883101851067D+04
 0.119653345040415D+03 0.000000000000000D+00 0.000000000000000D+00 -.119653345040415D+03
 0.128802283293089D+03 -.117080094907886D+02 -.554461646572906D+01 0.282348707014005D+02
 0.108601202220687D+03 -.420985524916310D+02 0.525119902878634D+02 -.282348707014005D+02
 0.134108087803731D+04 0.538065619824196D+02 -.469673738221343D+02 0.133917767347025D+04
0.564731685887D-03 0.000000000000D+00 0.000000000000D+00 0.277469626430D-02 0.000000000000D+00  5 -1 2 25 24 21 0 0.74838985D-03 0.40528298D+00 0.11989468D+05 0.11989468D+05 0.11989468D+05 0.12590688D+01  1  2  2  2  5  2        2 0.612402876409D+00 0.100000000000D+01
-.313317146743D-04 0.000000000000D+00 -.216871837107D-05 0.277469626430D-02 0.000000000000D+00  5 -1 2 25 24 21 2 0.74838985D-03 0.40528298D+00 0.11989468D+05 0.11989468D+05 0.11989468D+05 0.12590688D+01  1  2  3  2  5  2        2 -.538614639298D-01 0.100000000000D+01
0.389176457115D-04 0.000000000000D+00 0.000000000000D+00 0.277469626430D-02 0.000000000000D+00  5 -1 2 25 24 21 2 0.74838985D-03 0.40528298D+00 0.11989468D+05 0.11989468D+05 0.11989468D+05 0.12590688D+01  1  2 15  2  5  2        2 0.669022232749D-01 0.100000000000D+01
  </mgrwgt>
  </event>
  <event>
  4     66 0.45252658E-03 0.15090101E+03 0.75467711E-02 0.11074160E+00
       -1 -1    0    0    0  501 0.00000000E+00 0.00000000E+00 0.74358084E+02 0.74358773E+02 0.32000000E+00 0.0000E+00 0.9000E+01
        2 -1    0    0  501    0 0.00000000E+00 0.00000000E+00 -.47815441E+03 0.47815451E+03 0.32000000E+00 0.0000E+00 0.9000E+01
       25  1    1    2    0    0 -.10201359E+03 -.39349970E+02 -.38001202E+03 0.41471596E+03 0.12500000E+03 0.0000E+00 0.9000E+01
       24  1    1    2    0    0 0.10201359E+03 0.39349970E+02 -.23784298E+02 0.13779732E+03 0.80419002E+02 0.0000E+00 0.9000E+01
#aMCatNLO 1  0  0  1  2 0.17156040D+03 0.00000000D+00  -5  5  0 0.00000000D+00 0.00000000D+00 0.00000000D+00 0.00000000D+00 0.00000000D+00
  <mgrwgt>
 0.4111415634D+00    3    2    0
 0.188559977991500D+03 0.000000000000000D+00 0.000000000000000D+00 0.188559977991500D+03
 0.188559977991500D+03 0.000000000000000D+00 0.000000000000000D+00 -.188559977991500D+03
 0.200701716847190D+03 -.102013591096947D+03 -.393499701050121D+02 -.112698652297395D+03
 0.176418239135811D+03 0.102013591096947D+03 0.393499701050121D+02 0.112698652297395D+03
 0.000000000000000D+00 -.000000000000000D+00 0.000000000000000D+00 -.000000000000000D+00
 0.242390202778328D+03 0.000000000000000D+00 0.000000000000000D+00 0.242390202778328D+03
 0.415985683045540D+03 0.000000000000000D+00 0.000000000000000D+00 -.415985683045540D+03
 0.200723256755961D+03 -.410073625393132D+02 -.101401359905277D+03 -.112698652297395D+03
 0.213586326274336D+03 0.161284212559212D+03 -.209360781070069D+02 0.112698652297395D+03
 0.244066302793570D+03 -.120276850019899D+03 0.122337438012284D+03 -.173595480267212D+03
0.111694739829D-02 0.000000000000D+00 0.000000000000D+00 0.145728245425D-02 0.000000000000D+00  5 -1 2 25 24 21 0 0.11439766D-01 0.73562278D-01 0.22771116D+05 0.22771116D+05 0.22771116D+05 0.12276698D+01  1  2  2  1  5  1       -1 0.401110714102D+00 0.100000000000D+01
-.583077256219D-04 0.000000000000D+00 -.428937210844D-05 0.145728245425D-02 0.000000000000D+00  5 -1 2 25 24 21 2 0.11439766D-01 0.73562278D-01 0.22771116D+05 0.22771116D+05 0.22771116D+05 0.12276698D+01  1  2  3  1  5  1       -1 -.315588198145D-01 0.100000000000D+01
0.768406115049D-04 0.000000000000D+00 0.000000000000D+00 0.145728245425D-02 0.000000000000D+00  5 -1 2 25 24 21 2 0.11439766D-01 0.73562278D-01 0.22771116D+05 0.22771116D+05 0.22771116D+05 0.12276698D+01  1  2 15  1  5  1       -1 0.415896690714D-01 0.100000000000D+01
  </mgrwgt>
  </event>
  <event>
  5     66 0.45252658E-03 0.15309391E+03 0.75467711E-02 0.11409170E+00
       -1 -1    0    0    0  501 0.00000000E+00 0.00000000E+00 0.10906209E+03 0.10906256E+03 0.32000000E+00 0.0000E+00 0.9000E+01
       21 -1    0    0  501  502 0.00000000E+00 0.00000000E+00 -.45662016E+03 0.45662077E+03 0.75000000E+00 0.0000E+00 0.9000E+01
       25  1    1    2    0    0 0.63119525E+02 -.38874472E+02 -.12855131E+03 0.19402510E+03 0.12500000E+03 0.0000E+00 0.9000E+01
       24  1    1    2    0    0 -.76089298E+02 0.13767487E+03 -.65041335E+02 0.18825924E+03 0.80419002E+02 0.0000E+00 0.9000E+01
       -2  1    1    2    0  502 0.12969773E+02 -.98800400E+02 -.15396542E+03 0.18339899E+03 0.32000000E+00 0.0000E+00 0.9000E+01
#aMCatNLO 2  0  0  2  1 0.99648051D+02 0.00000000D+00  -5  5  0 0.00000000D+00 0.00000000D+00 0.00000000D+00 0.00000000D+00 0.00000000D+00
  <mgrwgt>
 0.2263531795D-01    2    2    0
 0.157109413484306D+03 0.000000000000000D+00 0.000000000000000D+00 0.157109413484306D+03
 0.157109413484306D+03 0.000000000000000D+00 0.000000000000000D+00 -.157109413484306D+03
 0.171681716700472D+03 0.695896352787686D+02 -.881621103374705D+02 -.351331298325789D+02
 0.142537110268139D+03 -.695896352787686D+02 0.881621103374705D+02 0.351331298325789D+02
 0.000000000000000D+00 0.000000000000000D+00 -.000000000000000D+00 -.000000000000000D+00
 0.190530272308344D+03 0.000000000000000D+00 0.000000000000000D+00 0.190530272308344D+03
 0.261376588527010D+03 0.000000000000000D+00 0.000000000000000D+00 -.261376588527010D+03
 0.149514667603093D+03 0.631195248587912D+02 -.388744723209319D+02 -.351331298325789D+02
 0.180126357340748D+03 -.760892983071956D+02 0.137674872528584D+03 0.351331298325789D+02
 0.122265835891513D+03 0.129697734484044D+02 -.988004002076523D+02 -.708463162186661D+02
-.868415159796D-05 0.000000000000D+00 0.000000000000D+00 0.224814435862D-02 0.000000000000D+00  5 -1 21 25 24 -2 2 0.13835676D-01 0.72287171D-01 0.44445731D+05 0.44445731D+05 0.44445731D+05 0.11973799D+01  1  2 13  4  5  2        2 -.703733364231D-02 0.100000000000D+01
0.466650298775D-04 0.000000000000D+00 0.000000000000D+00 0.224814435862D-02 0.140207238082D-06  5 -1 21 25 24 -2 2 0.16778849D-01 0.70249267D-01 0.44445731D+05 0.44445731D+05 0.44445731D+05 0.11973799D+01  1  2  1  4  5  2        2 0.296726515898D-01 0.100000000000D+01
  </mgrwgt>
  </event>
  <event>
  4     66 0.45252658E-03 0.87087292E+02 0.75467711E-02 0.12024478E+00
       -1 -1    0    0    0  501 0.00000000E+00 0.00000000E+00 0.71274028E+02 0.71274746E+02 0.32000000E+00 0.0000E+00 0.9000E+01
        2 -1    0    0  501    0 0.00000000E+00 0.00000000E+00 -.23669150E+03 0.23669171E+03 0.32000000E+00 0.0000E+00 0.9000E+01
       25  1    1    2    0    0 -.61717202E+02 0.40897551E+02 -.63636498E+02 0.15860715E+03 0.12500000E+03 0.0000E+00 0.9000E+01
       24  1    1    2    0    0 0.61717202E+02 -.40897551E+02 -.10178097E+03 0.14935931E+03 0.80419002E+02 0.0000E+00 0.9000E+01
#aMCatNLO 1  0  0  1  2 0.39199724D+02 0.00000000D+00  -5  5  0 0.00000000D+00 0.00000000D+00 0.00000000D+00 0.00000000D+00 0.00000000D+00
  <mgrwgt>
 0.3594816888D+00    9    2    0
 0.129884950301719D+03 0.000000000000000D+00 0.000000000000000D+00 0.129884950301719D+03
 0.129884950301719D+03 0.000000000000000D+00 0.000000000000000D+00 -.129884950301719D+03
 0.147511673075135D+03 -.617172020747508D+02 0.408975511921994D+02 0.255552532363005D+02
 0.112258227528303D+03 0.617172020747508D+02 -.408975511921994D+02 -.255552532363005D+02
 0.000000000000000D+00 0.000000000000000D+00 0.000000000000000D+00 0.000000000000000D+00
 0.165269114775840D+03 0.000000000000000D+00 0.000000000000000D+00 0.165269114775840D+03
 0.142682881335802D+03 0.000000000000000D+00 0.000000000000000D+00 -.142682881335802D+03
 0.147662628911152D+03 -.713265690283036D+02 0.209452037381308D+02 0.255552532363005D+02
 0.115048276149840D+03 0.543172638346196D+02 -.562623655050880D+02 -.255552532363005D+02
 0.452410910506497D+02 0.170093051936839D+02 0.353171617669571D+02 0.225862334400377D+02
0.340316086145D-03 0.000000000000D+00 0.000000000000D+00 0.253270570438D-02 0.000000000000D+00  5 -1 2 25 24 21 0 0.10965307D-01 0.36414148D-01 0.16204263D+05 0.16204263D+05 0.16204263D+05 0.12440172D+01  1  2  2  1  5  1       -1 0.273722921123D+00 0.100000000000D+01
-.188971303716D-04 0.000000000000D+00 -.130690337808D-05 0.253270570438D-02 0.000000000000D+00  5 -1 2 25 24 21 2 0.10965307D-01 0.36414148D-01 0.16204263D+05 0.16204263D+05 0.16204263D+05 0.12440172D+01  1  2  3  1  5  1       -1 -.235221663214D-01 0.100000000000D+01
0.234944286952D-04 0.000000000000D+00 0.000000000000D+00 0.253270570438D-02 0.000000000000D+00  5 -1 2 25 24 21 2 0.10965307D-01 0.36414148D-01 0.16204263D+05 0.16204263D+05 0.16204263D+05 0.12440172D+01  1  2 15  1  5  1       -1 0.292446444792D-01 0.100000000000D+01
0.264323835235D-03 0.000000000000D+00 0.000000000000D+00 0.253270570438D-02 0.000000000000D+00  5 -1 2 25 24 21 2 0.14380069D-01 0.36414148D-01 0.22023793D+05 0.22023793D+05 0.22023793D+05 0.12292438D+01  1  2 12  1  5  1       -1 0.213185656267D+00 0.100000000000D+01
-.281160854652D-03 0.000000000000D+00 0.000000000000D+00 0.253270570438D-02 0.000000000000D+00  5 -1 2 25 24 21 2 0.10965307D-01 0.36414148D-01 0.16204263D+05 0.16204263D+05 0.16204263D+05 0.12440172D+01  1  2  4  1  5  1       -1 -.349974427658D+00 0.100000000000D+01
-.475350008166D-03 0.000000000000D+00 -.148068519443D-03 0.253270570438D-02 0.000000000000D+00  5 -1 2 25 24 21 2 0.15263841D-01 0.36414148D-01 0.16204263D+05 0.16204263D+05 0.16204263D+05 0.12440172D+01  1  2  5  1  5  1       -1 -.354555154182D+00 0.100000000000D+01
0.504236300243D-03 0.000000000000D+00 0.140322924239D-03 0.253270570438D-02 0.000000000000D+00  5 -1 2 25 24 21 2 0.10965307D-01 0.36414148D-01 0.16204263D+05 0.16204263D+05 0.16204263D+05 0.12440172D+01  1  2  6  1  5  1       -1 0.627647155221D+00 0.100000000000D+01
0.949351521236D-05 0.000000000000D+00 0.000000000000D+00 0.253270570438D-02 0.000000000000D+00  5 21 2 25 24 1 2 0.14380069D-01 0.36414148D-01 0.22023793D+05 0.22023793D+05 0.22023793D+05 0.12292438D+01  1  2 12  3  5  1       -1 0.105874319595D+00 0.100000000000D+01
-.158621029492D-04 0.000000000000D+00 -.614081984711D-05 0.253270570438D-02 0.000000000000D+00  5 21 2 25 24 1 2 0.15263841D-01 0.36414148D-01 0.16204263D+05 0.16204263D+05 0.16204263D+05 0.12440172D+01  1  2  5  3  5  1       -1 -.162141259746D+00 0.100000000000D+01
  </mgrwgt>
  </event>
  <event>
  5     66 0.45252658E-03 0.10424168E+03 0.75467711E-02 0.12051035E+00
       21 -1    0    0  502  501 0.00000000E+00 0.00000000E+00 0.55807258E+02 0.55812297E+02 0.75000000E+00 0.0000E+00 0.9000E+01
        2 -1    0    0  501    0 0.00000000E+00 0.00000000E+00 -.44959171E+03 0.44959182E+03 0.32000000E+00 0.0000E+00 0.9000E+01
       25  1    1    2    0    0 -.46723398E+02 0.39097773E+02 -.12809695E+03 0.18906491E+03 0.12500000E+03 0.0000E+00 0.9000E+01
       24  1    1    2    0    0 -.13288732E+02 0.71382207E+00 -.68707588E+02 0.10660698E+03 0.80419002E+02 0.0000E+00 0.9000E+01
        1  1    1    2  502    0 0.60012130E+02 -.39811595E+02 -.19697991E+03 0.20973223E+03 0.32000000E+00 0.0000E+00 0.9000E+01
#aMCatNLO 2  0  0  1  2 0.72016796D+02 0.00000000D+00  -5  5  0 0.00000000D+00 0.00000000D+00 0.00000000D+00 0.00000000D+00 0.00000000D+00
  <mgrwgt>
 0.9135063726D-01    1    2    0
 0.104287370750265D+03 0.000000000000000D+00 0.000000000000000D+00 0.104287370750265D+03
 0.104287370750265D+03 0.000000000000000D+00 0.000000000000000D+00 -.104287370750265D+03
 0.126240613937207D+03 -.962692909154355D+01 0.144882547397268D+02 -.301750196455437D+01
 0.823341275633224D+02 0.962692909154355D+01 -.144882547397268D+02 0.301750196455437D+01
 0.000000000000000D+00 0.000000000000000D+00 -.000000000000000D+00 -.000000000000000D+00
 0.124559317788900D+03 0.000000000000000D+00 0.000000000000000D+00 0.124559317788900D+03
 0.201443720285979D+03 0.000000000000000D+00 0.000000000000000D+00 -.201443720285979D+03
 0.139089241518996D+03 -.467233982382151D+02 0.390977728943297D+02 -.301750196455437D+01
 0.815685062251917D+02 -.132887318201908D+02 0.713822067161178D+00 0.301750196455437D+01
 0.105345290330692D+03 0.600121300584060D+02 -.398115949614909D+02 -.768844024970793D+02
0.651500011865D-05 0.000000000000D+00 0.000000000000D+00 0.318502670734D-02 0.270310250487D-06  5 21 2 25 24 1 2 0.85861129D-02 0.69168227D-01 0.21401638D+05 0.21401638D+05 0.21401638D+05 0.12306006D+01  1  2  1  3  5  1       -1 0.913506372643D-01 0.100000000000D+01
  </mgrwgt>
  </event>
  <event>
  4     66 0.45252658E-03 0.11912815E+03 0.75467711E-02 0.12239956E+00
       -1 -1    0    0    0  501 0.00000000E+00 0.00000000E+00 0.58625305E+02 0.58626178E+02 0.32000000E+00 0.0000E+00 0.9000E+01
        2 -1    0    0  501    0 0.00000000E+00 0.00000000E+00 -.24254752E+03 0.24254773E+03 0.32000000E+00 0.0000E+00 0.9000E+01
       25  1    1    2    0    0 -.54706634E+02 0.22845935E+02 -.10016435E+03 0.17080003E+03 0.12500000E+03 0.0000E+00 0.9000E+01
       24  1    1    2    0    0 0.54706634E+02 -.22845935E+02 -.83757864E+02 0.13037388E+03 0.80419002E+02 0.0000E+00 0.9000E+01
#aMCatNLO 1  0  0  2  2 0.25137629D+02 0.00000000D+00  -5  5  0 0.00000000D+00 0.00000000D+00 0.00000000D+00 0.00000000D+00 0.00000000D+00
  <mgrwgt>
 0.2604120768D+00    4    2    0
 0.119245902787891D+03 0.000000000000000D+00 0.000000000000000D+00 0.119245902787891D+03
 0.119245902787891D+03 0.000000000000000D+00 0.000000000000000D+00 -.119245902787891D+03
 0.138445271134154D+03 -.547066338105881D+02 0.228459350653499D+02 0.522882085305610D+01
 0.100046534441628D+03 0.547066338105881D+02 -.228459350653499D+02 -.522882085305610D+01
 0.000000000000000D+00 -.000000000000000D+00 0.000000000000000D+00 0.000000000000000D+00
 0.155783011244919D+03 0.000000000000000D+00 0.000000000000000D+00 0.155783011244919D+03
 0.124309762768216D+03 0.000000000000000D+00 0.000000000000000D+00 -.124309762768216D+03
 0.133054284696983D+03 -.426659374412253D+02 0.151894664479672D+02 0.522882085305610D+01
 0.106758646009315D+03 0.638782082457589D+02 -.286779791332953D+02 -.522882085305610D+01
 0.402798433068377D+02 -.212122708045335D+02 0.134885126853281D+02 0.314732484767028D+02
0.313690002676D-03 0.000000000000D+00 0.000000000000D+00 0.279315420146D-02 0.000000000000D+00  5 -1 2 25 24 21 0 0.90193611D-02 0.37315086D-01 0.14191516D+05 0.14191516D+05 0.14191516D+05 0.12505750D+01  1  2  2  2  5  2        2 0.329304816940D+00 0.100000000000D+01
-.174272016881D-04 0.000000000000D+00 -.120465220675D-05 0.279315420146D-02 0.000000000000D+00  5 -1 2 25 24 21 2 0.90193611D-02 0.37315086D-01 0.14191516D+05 0.14191516D+05 0.14191516D+05 0.12505750D+01  1  2  3  2  5  2        2 -.286117604421D-01 0.100000000000D+01
0.216710347847D-04 0.000000000000D+00 0.000000000000D+00 0.279315420146D-02 0.000000000000D+00  5 -1 2 25 24 21 2 0.90193611D-02 0.37315086D-01 0.14191516D+05 0.14191516D+05 0.14191516D+05 0.12505750D+01  1  2 15  2  5  2        2 0.355792322192D-01 0.100000000000D+01
-.462058675688D-04 0.000000000000D+00 0.000000000000D+00 0.279315420146D-02 0.000000000000D+00  5 -1 2 25 24 21 2 0.90193611D-02 0.37315086D-01 0.14191516D+05 0.14191516D+05 0.14191516D+05 0.12505750D+01  1  2  4  2  5  2        2 -.758602119582D-01 0.100000000000D+01
  </mgrwgt>
  </event>
  <event>
  4     66 0.45252658E-03 0.10849444E+03 0.75467711E-02 0.12127235E+00
       -1 -1    0    0    0  501 0.00000000E+00 0.00000000E+00 0.93403862E+01 0.93458661E+01 0.32000000E+00 0.0000E+00 0.9000E+01
        2 -1    0    0  501    0 0.00000000E+00 0.00000000E+00 -.15955831E+04 0.15955832E+04 0.32000000E+00 0.0000E+00 0.9000E+01
       25  1    1    2    0    0 0.44733360E+02 0.43758902E+02 -.10282585E+04 0.10377169E+04 0.12500000E+03 0.0000E+00 0.9000E+01
       24  1    1    2    0    0 -.44733360E+02 -.43758902E+02 -.55798425E+03 0.56721209E+03 0.80419002E+02 0.0000E+00 0.9000E+01
#aMCatNLO 1  0  0  2  1 0.36545394D+02 0.00000000D+00  -5  5  0 0.00000000D+00 0.00000000D+00 0.00000000D+00 0.00000000D+00 0.00000000D+00
  <mgrwgt>
 0.5032694676D+00    9    2    0
 0.122097443685821D+03 0.000000000000000D+00 0.000000000000000D+00 0.122097443685821D+03
 0.122097443685821D+03 0.000000000000000D+00 0.000000000000000D+00 -.122097443685821D+03
 0.140848417844613D+03 0.447333604327629D+02 0.437589022779589D+02 -.172441800370789D+02
 0.103346469527029D+03 -.447333604327629D+02 -.437589022779589D+02 0.172441800370789D+02
 0.000000000000000D+00 -.000000000000000D+00 -.000000000000000D+00 -.000000000000000D+00
 0.134370085207196D+03 0.000000000000000D+00 0.000000000000000D+00 0.134370085207196D+03
 0.154053228246452D+03 0.000000000000000D+00 0.000000000000000D+00 -.154053228246452D+03
 0.151706468867922D+03 0.582394202804829D+02 0.608330574327471D+02 -.172441800370789D+02
 0.952079066321296D+02 -.355669188205011D+02 -.321708264016711D+02 0.172441800370789D+02
 0.415089379535958D+02 -.226725014599818D+02 -.286622310310760D+02 -.196831430392561D+02
0.196768813844D-03 0.000000000000D+00 0.000000000000D+00 0.269714780669D-02 0.000000000000D+00  5 -1 2 25 24 21 0 0.14374065D-02 0.24547475D+00 0.14603088D+05 0.14603088D+05 0.14603088D+05 0.12491524D+01  1  2  2  2  5  2        2 0.291146272663D+00 0.100000000000D+01
-.109301837650D-04 0.000000000000D+00 -.755644055580D-06 0.269714780669D-02 0.000000000000D+00  5 -1 2 25 24 21 2 0.14374065D-02 0.24547475D+00 0.14603088D+05 0.14603088D+05 0.14603088D+05 0.12491524D+01  1  2  3  2  5  2        2 -.252355813392D-01 0.100000000000D+01
0.135914077101D-04 0.000000000000D+00 0.000000000000D+00 0.269714780669D-02 0.000000000000D+00  5 -1 2 25 24 21 2 0.14374065D-02 0.24547475D+00 0.14603088D+05 0.14603088D+05 0.14603088D+05 0.12491524D+01  1  2 15  2  5  2        2 0.313798086252D-01 0.100000000000D+01
0.179850394359D-03 0.000000000000D+00 0.000000000000D+00 0.269714780669D-02 0.000000000000D+00  5 -1 2 25 24 21 2 0.14374065D-02 0.31957669D+00 0.19726464D+05 0.19726464D+05 0.19726464D+05 0.12344850D+01  1  2 12  2  5  2        2 0.231429066605D+00 0.100000000000D+01
-.189467387010D-03 0.000000000000D+00 0.000000000000D+00 0.269714780669D-02 0.000000000000D+00  5 -1 2 25 24 21 2 0.14374065D-02 0.24547475D+00 0.14603088D+05 0.14603088D+05 0.14603088D+05 0.12491524D+01  1  2  4  2  5  2        2 -.437441836188D+00 0.100000000000D+01
-.363220583544D-03 0.000000000000D+00 -.102198009969D-03 0.269714780669D-02 0.000000000000D+00  5 -1 2 25 24 21 2 0.14374065D-02 0.32291315D+00 0.14603088D+05 0.14603088D+05 0.14603088D+05 0.12491524D+01  1  2  5  2  5  2        2 -.464707407683D+00 0.100000000000D+01
0.380571537968D-03 0.000000000000D+00 0.984731661007D-04 0.269714780669D-02 0.000000000000D+00  5 -1 2 25 24 21 2 0.14374065D-02 0.24547475D+00 0.14603088D+05 0.14603088D+05 0.14603088D+05 0.12491524D+01  1  2  6  2  5  2        2 0.878662628943D+00 0.100000000000D+01
0.633190503677D-05 0.000000000000D+00 0.000000000000D+00 0.269714780669D-02 0.000000000000D+00  5 -1 21 25 24 -2 2 0.14374065D-02 0.31957669D+00 0.19726464D+05 0.19726464D+05 0.19726464D+05 0.12344850D+01  1  2 12  4  5  2        2 0.256762977081D-02 0.100000000000D+01
-.111646938794D-04 0.000000000000D+00 -.370094826943D-05 0.269714780669D-02 0.000000000000D+00  5 -1 21 25 24 -2 2 0.14374065D-02 0.32291315D+00 0.14603088D+05 0.14603088D+05 0.14603088D+05 0.12491524D+01  1  2  5  4  5  2        2 -.453111377917D-02 0.100000000000D+01
  </mgrwgt>
  </event>
  <event>
  5     66 0.45252658E-03 0.12183454E+03 0.75467711E-02 0.12272029E+00
       21 -1    0    0  502  501 0.00000000E+00 0.00000000E+00 0.10117199E+02 0.10144960E+02 0.75000000E+00 0.0000E+00 0.9000E+01
        2 -1    0    0  501    0 0.00000000E+00 0.00000000E+00 -.18852482E+04 0.18852482E+04 0.32000000E+00 0.0000E+00 0.9000E+01
       25  1    1    2    0    0 0.52267804E+02 -.47896578E+02 -.11643151E+04 0.11731499E+04 0.12500000E+03 0.0000E+00 0.9000E+01
       24  1    1    2    0    0 -.51194819E+02 0.31787417E+02 -.68063961E+03 0.68801805E+03 0.80419002E+02 0.0000E+00 0.9000E+01
        1  1    1    2  502    0 -.10729855E+01 0.16109161E+02 -.30176283E+02 0.34225236E+02 0.32000000E+00 0.0000E+00 0.9000E+01
#aMCatNLO 2  0  0  1  2 0.16144856D+02 0.00000000D+00  -5  5  0 0.00000000D+00 0.00000000D+00 0.00000000D+00 0.00000000D+00 0.00000000D+00
  <mgrwgt>
 0.2003664837D-01    2    2    0
 0.122298375631368D+03 0.000000000000000D+00 0.000000000000000D+00 0.122298375631368D+03
 0.122298375631368D+03 0.000000000000000D+00 0.000000000000000D+00 -.122298375631368D+03
 0.141018542596694D+03 0.516431362563944D+02 -.385181877138240D+02 -.105149916282320D+02
 0.103578208666042D+03 -.516431362563944D+02 0.385181877138240D+02 0.105149916282320D+02
 0.000000000000000D+00 -.000000000000000D+00 0.000000000000000D+00 0.000000000000000D+00
 0.153171762752264D+03 0.000000000000000D+00 0.000000000000000D+00 0.153171762752264D+03
 0.124693540677061D+03 0.000000000000000D+00 0.000000000000000D+00 -.124693540677061D+03
 0.144088759573919D+03 0.522678042335113D+02 -.478965784499904D+02 -.105149916282320D+02
 0.101040241356276D+03 -.511948187552884D+02 0.317874173634047D+02 0.105149916282320D+02
 0.327363024991306D+02 -.107298547822294D+01 0.161091610865857D+02 0.284782220752023D+02
-.290535144083D-04 0.000000000000D+00 0.000000000000D+00 0.272356838005D-02 0.000000000000D+00  5 21 2 25 24 1 2 0.15686861D-02 0.28446735D+00 0.16944366D+05 0.16944366D+05 0.16944366D+05 0.12418328D+01  1  2 13  3  5  1       -1 -.944143184015D+00 0.100000000000D+01
0.306408016160D-04 0.000000000000D+00 0.000000000000D+00 0.272356838005D-02 0.282392624262D-05  5 21 2 25 24 1 2 0.15586200D-02 0.29003853D+00 0.16944366D+05 0.16944366D+05 0.16944366D+05 0.12418328D+01  1  2  1  3  5  1       -1 0.964179832386D+00 0.100000000000D+01
  </mgrwgt>
  </event>
  <event>
  4     66 0.45252658E-03 0.71076850E+02 0.75467711E-02 0.12228175E+00
       -1 -1    0    0    0  501 0.00000000E+00 0.00000000E+00 0.59477633E+02 0.59478494E+02 0.32000000E+00 0.0000E+00 0.9000E+01
        2 -1    0    0  501    0 0.00000000E+00 0.00000000E+00 -.22258804E+03 0.22258827E+03 0.32000000E+00 0.0000E+00 0.9000E+01
       25  1    1    2    0    0 -.29832778E+02 -.13296747E+02 -.47837013E+02 0.13776857E+03 0.12500000E+03 0.0000E+00 0.9000E+01
       24  1    1    2    0    0 0.29832778E+02 0.13296747E+02 -.11527339E+03 0.14429819E+03 0.80419002E+02 0.0000E+00 0.9000E+01
#aMCatNLO 1  0  0  2  1 0.45377207D+02 0.00000000D+00  -5  5  0 0.00000000D+00 0.00000000D+00 0.00000000D+00 0.00000000D+00 0.00000000D+00
  <mgrwgt>
 0.3661439242D+00    9    2    0
 0.115061563135595D+03 0.000000000000000D+00 0.000000000000000D+00 0.115061563135595D+03
 0.115061563135595D+03 0.000000000000000D+00 0.000000000000000D+00 -.115061563135595D+03
 0.134959137521138D+03 -.298327783047442D+02 -.132967469648675D+02 0.390150055648046D+02
 0.951639887500519D+02 0.298327783047442D+02 0.132967469648675D+02 -.390150055648046D+02
 0.000000000000000D+00 -.000000000000000D+00 -.000000000000000D+00 -.000000000000000D+00
 0.138177696402850D+03 0.000000000000000D+00 0.000000000000000D+00 0.138177696402850D+03
 0.141906837303678D+03 0.000000000000000D+00 0.000000000000000D+00 -.141906837303678D+03
 0.131117646500109D+03 -.619161363716711D+01 -.251604552298594D+01 0.390150055648046D+02
 0.103436705780266D+03 0.474786309474592D+02 0.213435023469932D+02 -.390150055648046D+02
 0.455301814261535D+02 -.412870173102921D+02 -.188274568240073D+02 -.372914090082812D+01
0.220022050079D-03 0.000000000000D+00 0.000000000000D+00 0.260275765733D-02 0.000000000000D+00  5 -1 2 25 24 21 0 0.91504890D-02 0.34244397D-01 0.11663508D+05 0.11663508D+05 0.11663508D+05 0.12604743D+01  1  2  2  2  5  2        2 0.245650577659D+00 0.100000000000D+01
-.121637894418D-04 0.000000000000D+00 -.844942605440D-06 0.260275765733D-02 0.000000000000D+00  5 -1 2 25 24 21 2 0.91504890D-02 0.34244397D-01 0.11663508D+05 0.11663508D+05 0.11663508D+05 0.12604743D+01  1  2  3  2  5  2        2 -.215768723267D-01 0.100000000000D+01
0.150489631233D-04 0.000000000000D+00 0.000000000000D+00 0.260275765733D-02 0.000000000000D+00  5 -1 2 25 24 21 2 0.91504890D-02 0.34244397D-01 0.11663508D+05 0.11663508D+05 0.11663508D+05 0.12604743D+01  1  2 15  2  5  2        2 0.266947695465D-01 0.100000000000D+01
0.106847630229D-03 0.000000000000D+00 0.000000000000D+00 0.260275765733D-02 0.000000000000D+00  5 -1 2 25 24 21 2 0.91504890D-02 0.44970507D-01 0.17735888D+05 0.17735888D+05 0.17735888D+05 0.12396120D+01  1  2 12  2  5  2        2 0.139530867974D+00 0.100000000000D+01
-.119218713170D-03 0.000000000000D+00 0.000000000000D+00 0.260275765733D-02 0.000000000000D+00  5 -1 2 25 24 21 2 0.91504890D-02 0.34244397D-01 0.11663508D+05 0.11663508D+05 0.11663508D+05 0.12604743D+01  1  2  4  2  5  2        2 -.211477431876D+00 0.100000000000D+01
-.245165718257D-03 0.000000000000D+00 -.115335581312D-03 0.260275765733D-02 0.000000000000D+00  5 -1 2 25 24 21 2 0.91504890D-02 0.49927658D-01 0.11663508D+05 0.11663508D+05 0.11663508D+05 0.12604743D+01  1  2  5  2  5  2        2 -.292138786437D+00 0.100000000000D+01
0.276503675419D-03 0.000000000000D+00 0.107596154585D-03 0.260275765733D-02 0.000000000000D+00  5 -1 2 25 24 21 2 0.91504890D-02 0.34244397D-01 0.11663508D+05 0.11663508D+05 0.11663508D+05 0.12604743D+01  1  2  6  2  5  2        2 0.490479100360D+00 0.100000000000D+01
0.385177148851D-05 0.000000000000D+00 0.000000000000D+00 0.260275765733D-02 0.000000000000D+00  5 -1 21 25 24 -2 2 0.91504890D-02 0.44970507D-01 0.17735888D+05 0.17735888D+05 0.17735888D+05 0.12396120D+01  1  2 12  4  5  2        2 0.174651850681D-01 0.100000000000D+01
-.754878042543D-05 0.000000000000D+00 -.525818339010D-05 0.260275765733D-02 0.000000000000D+00  5 -1 21 25 24 -2 2 0.91504890D-02 0.49927658D-01 0.11663508D+05 0.11663508D+05 0.11663508D+05 0.12604743D+01  1  2  5  4  5  2        2 -.284834857329D-01 0.100000000000D+01
  </mgrwgt>
  </event>
  <event>
  5     66 0.45252658E-03 0.15136863E+03 0.75467711E-02 0.11869347E+00
       21 -1    0    0  502  501 0.00000000E+00 0.00000000E+00 0.25250561E+03 0.25250672E+03 0.75000000E+00 0.0000E+00 0.9000E+01
        2 -1    0    0  501    0 0.00000000E+00 0.00000000E+00 -.20258716E+03 0.20258741E+03 0.32000000E+00 0.0000E+00 0.9000E+01
       25  1    1    2    0    0 0.24676435E+02 -.10150238E+03 0.15585312E+03 0.22544812E+03 0.12500000E+03 0.0000E+00 0.9000E+01
       24  1    1    2    0    0 -.43565328E+02 0.10681179E+03 -.20644038E+02 0.14212701E+03 0.80419002E+02 0.0000E+00 0.9000E+01
        1  1    1    2  502    0 0.18888892E+02 -.53094021E+01 -.85290632E+02 0.87518994E+02 0.32000000E+00 0.0000E+00 0.9000E+01
#aMCatNLO 2  0  0  1  1 0.19620907D+02 0.00000000D+00  -5  5  0 0.00000000D+00 0.00000000D+00 0.00000000D+00 0.00000000D+00 0.00000000D+00
  <mgrwgt>
 0.7335659574D-01    1    2    0
 0.170620195689842D+03 0.000000000000000D+00 0.000000000000000D+00 0.170620195689842D+03
 0.170620195689842D+03 0.000000000000000D+00 0.000000000000000D+00 -.170620195689842D+03
 0.184038572114455D+03 0.347655262161252D+02 -.104338286337512D+03 0.784224216470936D+02
 0.157201819265229D+03 -.347655262161252D+02 0.104338286337512D+03 -.784224216470936D+02
 0.000000000000000D+00 0.000000000000000D+00 -.000000000000000D+00 -.000000000000000D+00
 0.171659253459688D+03 0.000000000000000D+00 0.000000000000000D+00 0.171659253459688D+03
 0.298000745007976D+03 0.000000000000000D+00 0.000000000000000D+00 -.298000745007976D+03
 0.180794736610660D+03 0.246764353195415D+02 -.101502384745600D+03 0.784224216470936D+02
 0.161009278453937D+03 -.435653276937070D+02 0.106811786801983D+03 -.784224216470936D+02
 0.127855983403067D+03 0.188888923741655D+02 -.530940205638264D+01 -.126341491548289D+03
0.369707755261D-04 0.000000000000D+00 0.000000000000D+00 0.182820137839D-02 0.666876896960D-07  5 21 2 25 24 1 2 0.38847077D-01 0.31167324D-01 0.26105094D+05 0.26105094D+05 0.26105094D+05 0.12212887D+01  1  2  1  3  5  1       -1 0.733565957362D-01 0.100000000000D+01
  </mgrwgt>
  </event>
  <event>
  5     66 -.45252658E-03 0.10497273E+03 0.75467711E-02 0.12566165E+00
       -1 -1    0    0    0  502 0.00000000E+00 0.00000000E+00 0.41710834E+02 0.41712062E+02 0.32000000E+00 0.0000E+00 0.9000E+01
        2 -1    0    0  501    0 0.00000000E+00 0.00000000E+00 -.30961578E+03 0.30961594E+03 0.32000000E+00 0.0000E+00 0.9000E+01
       25  1    1    2    0    0 0.12932532E+02 -.22255704E+02 -.17655315E+03 0.21784991E+03 0.12500000E+03 0.0000E+00 0.9000E+01
       24  1    1    2    0    0 -.17408447E+02 0.90724406E+01 -.83005204E+02 0.11722817E+03 0.80419002E+02 0.0000E+00 0.9000E+01
       21  1    1    2  501  502 0.44759150E+01 0.13183264E+02 -.83465906E+01 0.16249933E+02 0.75000000E+00 0.0000E+00 0.9000E+01
#aMCatNLO 2  0  0  1  2 0.13922365D+02 0.00000000D+00  -5  5  0 0.00000000D+00 0.00000000D+00 0.00000000D+00 0.00000000D+00 0.00000000D+00
  <mgrwgt>
 -.2126556922D-01    2    2    0
 0.105727176519344D+03 0.000000000000000D+00 0.000000000000000D+00 0.105727176519344D+03
 0.105727176519344D+03 0.000000000000000D+00 0.000000000000000D+00 -.105727176519344D+03
 0.127381457724787D+03 0.156347766742337D+02 -.142965718516326D+02 -.123368376713633D+02
 0.840728953139010D+02 -.156347766742337D+02 0.142965718516326D+02 0.123368376713633D+02
 0.000000000000000D+00 0.000000000000000D+00 0.000000000000000D+00 0.000000000000000D+00
 0.117035201550886D+03 0.000000000000000D+00 0.000000000000000D+00 0.117035201550886D+03
 0.110329918163456D+03 0.000000000000000D+00 0.000000000000000D+00 -.110329918163456D+03
 0.128217644361573D+03 0.129325322959966D+02 -.222557042196886D+02 -.123368376713633D+02
 0.836945442307012D+02 -.174084473039820D+02 0.907244059496576D+01 0.123368376713633D+02
 0.154529311220686D+02 0.447591500798543D+01 0.131832636247228D+02 0.670528338743009D+01
-.230958562226D-03 0.000000000000D+00 0.000000000000D+00 0.310372074761D-02 0.000000000000D+00  5 -1 2 25 24 21 2 0.65328575D-02 0.45642440D-01 0.12580474D+05 0.12580474D+05 0.12580474D+05 0.12566268D+01  1  2 13  1  5  1       -1 -.499472050976D+00 0.100000000000D+01
0.225178084586D-03 0.000000000000D+00 0.000000000000D+00 0.310372074761D-02 0.135670939692D-03  5 -1 2 25 24 21 2 0.64166386D-02 0.47629444D-01 0.12580474D+05 0.12580474D+05 0.12580474D+05 0.12566268D+01  1  2  1  1  5  1       -1 0.478206481755D+00 0.100000000000D+01
  </mgrwgt>
  </event>
  <event>
  4     66 0.45252658E-03 0.10964862E+03 0.75467711E-02 0.98799564E-01
       -1 -1    0    0    0  501 0.00000000E+00 0.00000000E+00 0.10959320E+02 0.10963991E+02 0.32000000E+00 0.0000E+00 0.9000E+01
        2 -1    0    0  501    0 0.00000000E+00 0.00000000E+00 -.10988270E+04 0.10988270E+04 0.32000000E+00 0.0000E+00 0.9000E+01
       25  1    1    2    0    0 0.17417915E+02 0.33306096E+02 -.62393721E+03 0.63744437E+03 0.12500000E+03 0.0000E+00 0.9000E+01
       24  1    1    2    0    0 -.17417915E+02 -.33306096E+02 -.46393047E+03 0.47234667E+03 0.80419002E+02 0.0000E+00 0.9000E+01
#aMCatNLO 1  0  0  2  2 0.59279365D+03 0.00000000D+00  -5  5  0 0.00000000D+00 0.00000000D+00 0.00000000D+00 0.00000000D+00 0.00000000D+00
  <mgrwgt>
 0.5411122622D+00    3    2    0
 0.109749781380996D+03 0.000000000000000D+00 0.000000000000000D+00 0.109749781380996D+03
 0.109749781380996D+03 0.000000000000000D+00 0.000000000000000D+00 -.109749781380996D+03
 0.130610378847332D+03 0.174179147821883D+02 0.333060955426428D+02 0.462507372789825D+01
 0.888891839146600D+02 -.174179147821883D+02 -.333060955426428D+02 -.462507372789825D+01
 0.000000000000000D+00 -.000000000000000D+00 0.000000000000000D+00 0.000000000000000D+00
 0.143247928334989D+04 0.000000000000000D+00 0.000000000000000D+00 0.143247928334989D+04
 0.394753712312747D+03 0.000000000000000D+00 0.000000000000000D+00 -.394753712312747D+03
 0.356732030036636D+03 0.282418086588095D+03 -.178469533296275D+03 0.462507372789825D+01
 0.275394831504865D+03 0.180667301920764D+03 -.191606450765379D+03 -.462507372789825D+01
 0.119510613412114D+04 -.463085388508859D+03 0.370075984061654D+03 0.103772557103714D+04
0.246099620361D-03 0.000000000000D+00 0.000000000000D+00 0.301402260322D-02 0.000000000000D+00  5 -1 2 25 24 21 0 0.16864121D-02 0.16905067D+00 0.12022820D+05 0.12022820D+05 0.12022820D+05 0.12589274D+01  1  2  2  2  5  2        2 0.529832784085D+00 0.100000000000D+01
-.136721869946D-04 0.000000000000D+00 -.945087341703D-06 0.301402260322D-02 0.000000000000D+00  5 -1 2 25 24 21 2 0.16864121D-02 0.16905067D+00 0.12022820D+05 0.12022820D+05 0.12022820D+05 0.12589274D+01  1  2  3  2  5  2        2 -.466516766977D-01 0.100000000000D+01
0.169778588461D-04 0.000000000000D+00 0.000000000000D+00 0.301402260322D-02 0.000000000000D+00  5 -1 2 25 24 21 2 0.16864121D-02 0.16905067D+00 0.12022820D+05 0.12022820D+05 0.12022820D+05 0.12589274D+01  1  2 15  2  5  2        2 0.579311548487D-01 0.100000000000D+01
  </mgrwgt>
  </event>
  <event>
  4     66 0.45252658E-03 0.11865954E+03 0.75467711E-02 0.11017309E+00
       -1 -1    0    0    0  501 0.00000000E+00 0.00000000E+00 0.19085592E+02 0.19088275E+02 0.32000000E+00 0.0000E+00 0.9000E+01
        2 -1    0    0  501    0 0.00000000E+00 0.00000000E+00 -.11913288E+04 0.11913289E+04 0.32000000E+00 0.0000E+00 0.9000E+01
       25  1    1    2    0    0 0.54240419E+02 -.21545825E+02 -.27474029E+03 0.30743044E+03 0.12500000E+03 0.0000E+00 0.9000E+01
       24  1    1    2    0    0 -.54240419E+02 0.21545825E+02 -.89750294E+03 0.90298670E+03 0.80419002E+02 0.0000E+00 0.9000E+01
#aMCatNLO 1  0  0  1  2 0.21672918D+03 0.00000000D+00  -5  5  0 0.00000000D+00 0.00000000D+00 0.00000000D+00 0.00000000D+00 0.00000000D+00
  <mgrwgt>
 0.3829918282D+00    5    2    0
 0.150794116173551D+03 0.000000000000000D+00 0.000000000000000D+00 0.150794116173551D+03
 0.150794116173551D+03 0.000000000000000D+00 0.000000000000000D+00 -.150794116173551D+03
 0.165976711287358D+03 0.542404186803178D+02 -.215458249410810D+02 0.922877191112615D+02
 0.135611521059744D+03 -.542404186803178D+02 0.215458249410810D+02 -.922877191112615D+02
 0.000000000000000D+00 0.000000000000000D+00 -.000000000000000D+00 0.000000000000000D+00
 0.459031650760204D+03 0.000000000000000D+00 0.000000000000000D+00 0.459031650760204D+03
 0.228653497167283D+03 0.000000000000000D+00 0.000000000000000D+00 -.228653497167283D+03
 0.169018508416427D+03 -.891230472498342D+01 0.659227116633079D+02 0.922877191112615D+02
 0.202366734130120D+03 -.117955498811566D+03 0.109793243551121D+03 -.922877191112615D+02
 0.316299905380940D+03 0.126867803536550D+03 -.175715955214429D+03 0.230378153592922D+03
0.378762893841D-03 0.000000000000D+00 0.000000000000D+00 0.157966735569D-02 0.000000000000D+00  5 -1 2 25 24 21 0 0.29364546D-02 0.18328157D+00 0.14080086D+05 0.14080086D+05 0.14080086D+05 0.12509682D+01  1  2  2  1  5  1       -1 0.327474484920D+00 0.100000000000D+01
-.195729257896D-04 0.000000000000D+00 -.145454924291D-05 0.157966735569D-02 0.000000000000D+00  5 -1 2 25 24 21 2 0.29364546D-02 0.18328157D+00 0.14080086D+05 0.14080086D+05 0.14080086D+05 0.12509682D+01  1  2  3  1  5  1       -1 -.264824598775D-01 0.100000000000D+01
0.258225154397D-04 0.000000000000D+00 0.000000000000D+00 0.157966735569D-02 0.000000000000D+00  5 -1 2 25 24 21 2 0.29364546D-02 0.18328157D+00 0.14080086D+05 0.14080086D+05 0.14080086D+05 0.12509682D+01  1  2 15  1  5  1       -1 0.349382476805D-01 0.100000000000D+01
0.107594044307D-03 0.000000000000D+00 -.139387743712D-03 0.157966735569D-02 0.000000000000D+00  5 -1 2 25 24 21 2 0.13962179D-01 0.18328157D+00 0.14080086D+05 0.14080086D+05 0.14080086D+05 0.12509682D+01  1  2  5  1  5  1       -1 0.142025458255D-01 0.100000000000D+01
0.177423542959D-04 0.000000000000D+00 -.263986518741D-04 0.157966735569D-02 0.000000000000D+00  5 21 2 25 24 1 2 0.13962179D-01 0.18328157D+00 0.14080086D+05 0.14080086D+05 0.14080086D+05 0.12509682D+01  1  2  5  3  5  1       -1 0.328590096586D-01 0.100000000000D+01
  </mgrwgt>
  </event>
  <event>
  4     66 0.45252658E-03 0.66248382E+02 0.75467711E-02 0.12107349E+00
       -1 -1    0    0    0  501 0.00000000E+00 0.00000000E+00 0.89887183E+02 0.89887753E+02 0.32000000E+00 0.0000E+00 0.9000E+01
        2 -1    0    0  501    0 0.00000000E+00 0.00000000E+00 -.26822455E+03 0.26822474E+03 0.32000000E+00 0.0000E+00 0.9000E+01
       25  1    1    2    0    0 -.68102499E+02 -.26855504E+02 -.20027518E+03 0.24717264E+03 0.12500000E+03 0.0000E+00 0.9000E+01
       24  1    1    2    0    0 0.68102499E+02 0.26855504E+02 0.21937805E+02 0.11093986E+03 0.80419002E+02 0.0000E+00 0.9000E+01
#aMCatNLO 1  0  0  2  1 0.28776841D+02 0.00000000D+00  -5  5  0 0.00000000D+00 0.00000000D+00 0.00000000D+00 0.00000000D+00 0.00000000D+00
  <mgrwgt>
 0.3710066520D+00    9    2    0
 0.155274227314193D+03 0.000000000000000D+00 0.000000000000000D+00 0.155274227314193D+03
 0.155274227314193D+03 0.000000000000000D+00 0.000000000000000D+00 -.155274227314193D+03
 0.170018760589343D+03 -.681024991917909D+02 -.268555036919267D+02 -.890068001762868D+02
 0.140529694039043D+03 0.681024991917909D+02 0.268555036919267D+02 0.890068001762868D+02
 0.000000000000000D+00 -.000000000000000D+00 0.000000000000000D+00 -.000000000000000D+00
 0.161653141538965D+03 0.000000000000000D+00 0.000000000000000D+00 0.161653141538965D+03
 0.192172887467408D+03 0.000000000000000D+00 0.000000000000000D+00 -.192172887467408D+03
 0.171781206871052D+03 -.646140386117518D+02 -.422681744428673D+02 -.890068001762868D+02
 0.140097694750097D+03 0.709666234652481D+02 0.142012674167158D+02 0.890068001762868D+02
 0.419471273852240D+02 -.635258485349627D+01 0.280669070261515D+02 -.305197459284430D+02
0.554811340236D-03 0.000000000000D+00 0.000000000000D+00 0.165345313475D-02 0.000000000000D+00  5 -1 2 25 24 21 0 0.13828856D-01 0.41265374D-01 0.16079294D+05 0.16079294D+05 0.16079294D+05 0.12443971D+01  1  2  2  2  5  2        2 0.273064892688D+00 0.100000000000D+01
-.292853553224D-04 0.000000000000D+00 -.213062163169D-05 0.165345313475D-02 0.000000000000D+00  5 -1 2 25 24 21 2 0.13828856D-01 0.41265374D-01 0.16079294D+05 0.16079294D+05 0.16079294D+05 0.12443971D+01  1  2  3  2  5  2        2 -.223197332522D-01 0.100000000000D+01
0.378053389784D-04 0.000000000000D+00 0.000000000000D+00 0.165345313475D-02 0.000000000000D+00  5 -1 2 25 24 21 2 0.13828856D-01 0.41265374D-01 0.16079294D+05 0.16079294D+05 0.16079294D+05 0.12443971D+01  1  2 15  2  5  2        2 0.288132096134D-01 0.100000000000D+01
0.131557647400D-02 0.000000000000D+00 0.000000000000D+00 0.165345313475D-02 0.000000000000D+00  5 -1 2 25 24 21 2 0.13828856D-01 0.51776524D-01 0.20148510D+05 0.20148510D+05 0.20148510D+05 0.12334725D+01  1  2 12  2  5  2        2 0.779124986618D+00 0.100000000000D+01
-.135917775189D-02 0.000000000000D+00 0.000000000000D+00 0.165345313475D-02 0.000000000000D+00  5 -1 2 25 24 21 2 0.13828856D-01 0.41265374D-01 0.16079294D+05 0.16079294D+05 0.16079294D+05 0.12443971D+01  1  2  4  2  5  2        2 -.103589266821D+01 0.100000000000D+01
-.195409489578D-02 0.000000000000D+00 -.402419001633D-03 0.165345313475D-02 0.000000000000D+00  5 -1 2 25 24 21 2 0.13828856D-01 0.52670364D-01 0.16079294D+05 0.16079294D+05 0.16079294D+05 0.12443971D+01  1  2  5  2  5  2        2 -.115053624395D+01 0.100000000000D+01
0.200402197529D-02 0.000000000000D+00 0.390727202366D-03 0.165345313475D-02 0.000000000000D+00  5 -1 2 25 24 21 2 0.13828856D-01 0.41265374D-01 0.16079294D+05 0.16079294D+05 0.16079294D+05 0.12443971D+01  1  2  6  2  5  2        2 0.152735848439D+01 0.100000000000D+01
0.414288815510D-04 0.000000000000D+00 0.000000000000D+00 0.165345313475D-02 0.000000000000D+00  5 -1 21 25 24 -2 2 0.13828856D-01 0.51776524D-01 0.20148510D+05 0.20148510D+05 0.20148510D+05 0.12334725D+01  1  2 12  4  5  2        2 0.737887395014D-01 0.100000000000D+01
-.584804643358D-04 0.000000000000D+00 -.133780041862D-04 0.165345313475D-02 0.000000000000D+00  5 -1 21 25 24 -2 2 0.13828856D-01 0.52670364D-01 0.16079294D+05 0.16079294D+05 0.16079294D+05 0.12443971D+01  1  2  5  4  5  2        2 -.102395015445D+00 0.100000000000D+01
  </mgrwgt>
  </event>
  <event>
  4     66 0.45252658E-03 0.17236160E+03 0.75467711E-02 0.11120686E+00
       -1 -1    0    0    0  501 0.00000000E+00 0.00000000E+00 0.22283354E+03 0.22283377E+03 0.32000000E+00 0.0000E+00 0.9000E+01
        2 -1    0    0  501    0 0.00000000E+00 0.00000000E+00 -.15274765E+03 0.15274798E+03 0.32000000E+00 0.0000E+00 0.9000E+01
       25  1    1    2    0    0 -.13636042E+03 0.15642312E+02 -.29396782E+02 0.18795749E+03 0.12500000E+03 0.0000E+00 0.9000E+01
       24  1    1    2    0    0 0.13636042E+03 -.15642312E+02 0.99482677E+02 0.18762426E+03 0.80419002E+02 0.0000E+00 0.9000E+01
#aMCatNLO 1  0  0  2  1 0.13597061D+03 0.00000000D+00  -5  5  0 0.00000000D+00 0.00000000D+00 0.00000000D+00 0.00000000D+00 0.00000000D+00
  <mgrwgt>
 0.3539704918D+00    3    2    0
 0.184492288827338D+03 0.000000000000000D+00 0.000000000000000D+00 0.184492288827338D+03
 0.184492288827338D+03 0.000000000000000D+00 0.000000000000000D+00 -.184492288827338D+03
 0.196901728950605D+03 -.136360418646854D+03 0.156423120423528D+02 -.656235107576679D+02
 0.172082848704071D+03 0.136360418646854D+03 -.156423120423528D+02 0.656235107576679D+02
 0.000000000000000D+00 0.000000000000000D+00 -.000000000000000D+00 0.000000000000000D+00
 0.399867179274613D+03 0.000000000000000D+00 0.000000000000000D+00 0.399867179274613D+03
 0.219360737843254D+03 0.000000000000000D+00 0.000000000000000D+00 -.219360737843254D+03
 0.256173547937398D+03 -.206213705428608D+03 0.562969732052800D+02 -.656235107576679D+02
 0.137066358584951D+03 0.886970626071250D+02 0.120977940995004D+02 0.656235107576679D+02
 0.225988010595518D+03 0.117516642821483D+03 -.683947673047804D+02 0.180506441431359D+03
0.165448876045D-02 0.000000000000D+00 0.000000000000D+00 0.195153654423D-02 0.000000000000D+00  5 -1 2 25 24 21 0 0.34282127D-01 0.23499681D-01 0.29708521D+05 0.29708521D+05 0.29708521D+05 0.12153437D+01  1  2  2  2  5  2        2 0.346991993841D+00 0.100000000000D+01
-.913990813433D-04 0.000000000000D+00 -.635367247701D-05 0.195153654423D-02 0.000000000000D+00  5 -1 2 25 24 21 2 0.34282127D-01 0.23499681D-01 0.29708521D+05 0.29708521D+05 0.29708521D+05 0.12153437D+01  1  2  3  2  5  2        2 -.283136380608D-01 0.100000000000D+01
0.113926327843D-03 0.000000000000D+00 0.000000000000D+00 0.195153654423D-02 0.000000000000D+00  5 -1 2 25 24 21 2 0.34282127D-01 0.23499681D-01 0.29708521D+05 0.29708521D+05 0.29708521D+05 0.12153437D+01  1  2 15  2  5  2        2 0.352921360340D-01 0.100000000000D+01
  </mgrwgt>
  </event>
  <event>
  4     66 0.45252658E-03 0.14441375E+03 0.75467711E-02 0.11923166E+00
       -1 -1    0    0    0  501 0.00000000E+00 0.00000000E+00 0.64235338E+03 0.64235346E+03 0.32000000E+00 0.0000E+00 0.9000E+01
        2 -1    0    0  501    0 0.00000000E+00 0.00000000E+00 -.33635097E+02 0.33636619E+02 0.32000000E+00 0.0000E+00 0.9000E+01
       25  1    1    2    0    0 -.86079154E+02 -.51487189E+02 0.27396987E+03 0.31740359E+03 0.12500000E+03 0.0000E+00 0.9000E+01
       24  1    1    2    0    0 0.86079154E+02 0.51487189E+02 0.33474841E+03 0.35858648E+03 0.80419002E+02 0.0000E+00 0.9000E+01
#aMCatNLO 1  0  0  1  2 0.23902689D+02 0.00000000D+00  -5  5  0 0.00000000D+00 0.00000000D+00 0.00000000D+00 0.00000000D+00 0.00000000D+00
  <mgrwgt>
 0.2458722141D+00    4    2    0
 0.146990338583996D+03 0.000000000000000D+00 0.000000000000000D+00 0.146990338583996D+03
 0.146990338583996D+03 0.000000000000000D+00 0.000000000000000D+00 -.146990338583996D+03
 0.162565824928625D+03 -.860791544356092D+02 -.514871892506608D+02 -.272414380942250D+02
 0.131414852239368D+03 0.860791544356092D+02 0.514871892506608D+02 0.272414380942250D+02
 0.000000000000000D+00 0.000000000000000D+00 -.000000000000000D+00 -.000000000000000D+00
 0.150667401853518D+03 0.000000000000000D+00 0.000000000000000D+00 0.150667401853518D+03
 0.192223102930664D+03 0.000000000000000D+00 0.000000000000000D+00 -.192223102930664D+03
 0.168207759613859D+03 -.986656523590691D+02 -.468171281630073D+02 -.272414380942250D+02
 0.126743044950708D+03 0.762558070198777D+02 0.551320182408760D+02 0.272414380942250D+02
 0.479397002196159D+02 0.224098453391914D+02 -.831489007786863D+01 -.415557010771462D+02
0.158182791602D-02 0.000000000000D+00 0.000000000000D+00 0.235837192308D-02 0.000000000000D+00  5 -1 2 25 24 21 0 0.98823720D-01 0.51747536D-02 0.20855330D+05 0.20855330D+05 0.20855330D+05 0.12318288D+01  1  2  2  1  5  1       -1 0.273743449552D+00 0.100000000000D+01
-.878459129057D-04 0.000000000000D+00 -.607463570238D-05 0.235837192308D-02 0.000000000000D+00  5 -1 2 25 24 21 2 0.98823720D-01 0.51747536D-02 0.20855330D+05 0.20855330D+05 0.20855330D+05 0.12318288D+01  1  2  3  1  5  1       -1 -.230678320901D-01 0.100000000000D+01
0.109372243441D-03 0.000000000000D+00 0.000000000000D+00 0.235837192308D-02 0.000000000000D+00  5 -1 2 25 24 21 2 0.98823720D-01 0.51747536D-02 0.20855330D+05 0.20855330D+05 0.20855330D+05 0.12318288D+01  1  2 15  1  5  1       -1 0.287205228286D-01 0.100000000000D+01
-.127664354874D-03 0.000000000000D+00 0.000000000000D+00 0.235837192308D-02 0.000000000000D+00  5 -1 2 25 24 21 2 0.98823720D-01 0.51747536D-02 0.20855330D+05 0.20855330D+05 0.20855330D+05 0.12318288D+01  1  2  4  1  5  1       -1 -.335239262103D-01 0.100000000000D+01
  </mgrwgt>
  </event>
  <event>
  4     66 0.45252658E-03 0.12599891E+03 0.75467711E-02 0.10568265E+00
       -1 -1    0    0    0  501 0.00000000E+00 0.00000000E+00 0.24645342E+02 0.24647419E+02 0.32000000E+00 0.0000E+00 0.9000E+01
        2 -1    0    0  501    0 0.00000000E+00 0.00000000E+00 -.75411678E+03 0.75411685E+03 0.32000000E+00 0.0000E+00 0.9000E+01
       25  1    1    2    0    0 0.43602683E+02 -.57084017E+02 -.26229044E+03 0.29930094E+03 0.12500000E+03 0.0000E+00 0.9000E+01
       24  1    1    2    0    0 -.43602683E+02 0.57084017E+02 -.46718100E+03 0.47946333E+03 0.80419002E+02 0.0000E+00 0.9000E+01
#aMCatNLO 1  0  0  1  2 0.32087376D+03 0.00000000D+00  -5  5  0 0.00000000D+00 0.00000000D+00 0.00000000D+00 0.00000000D+00 0.00000000D+00
  <mgrwgt>
 0.3886681133D+00    5    2    0
 0.136331585103622D+03 0.000000000000000D+00 0.000000000000000D+00 0.136331585103622D+03
 0.136331585103622D+03 0.000000000000000D+00 0.000000000000000D+00 -.136331585103622D+03
 0.153124802975088D+03 0.436026825408779D+02 -.570840173755394D+02 0.515987046510668D+02
 0.119538367232157D+03 -.436026825408779D+02 0.570840173755394D+02 -.515987046510668D+02
 0.000000000000000D+00 -.000000000000000D+00 -.000000000000000D+00 0.000000000000000D+00
 0.942757785797613D+03 0.000000000000000D+00 0.000000000000000D+00 0.942757785797613D+03
 0.245691476340816D+03 0.000000000000000D+00 0.000000000000000D+00 -.245691476340816D+03
 0.187960145048574D+03 0.913170635591172D+02 0.932887115783743D+02 0.515987046510668D+02
 0.233116061218844D+03 0.573015335346104D+01 0.212557335946551D+03 -.515987046510668D+02
 0.767373055871011D+03 -.970472169125783D+02 -.305846047524925D+03 0.697066309456797D+03
0.334744236308D-03 0.000000000000D+00 0.000000000000D+00 0.221509910942D-02 0.000000000000D+00  5 -1 2 25 24 21 0 0.37917561D-02 0.11601813D+00 0.15875725D+05 0.15875725D+05 0.15875725D+05 0.12450230D+01  1  2  2  1  5  1       -1 0.369794657934D+00 0.100000000000D+01
-.184564397277D-04 0.000000000000D+00 -.128550600760D-05 0.221509910942D-02 0.000000000000D+00  5 -1 2 25 24 21 2 0.37917561D-02 0.11601813D+00 0.15875725D+05 0.15875725D+05 0.15875725D+05 0.12450230D+01  1  2  3  1  5  1       -1 -.316045948466D-01 0.100000000000D+01
0.230431177820D-04 0.000000000000D+00 0.000000000000D+00 0.221509910942D-02 0.000000000000D+00  5 -1 2 25 24 21 2 0.37917561D-02 0.11601813D+00 0.15875725D+05 0.15875725D+05 0.15875725D+05 0.12450230D+01  1  2 15  1  5  1       -1 0.394587695269D-01 0.100000000000D+01
0.214232645965D-03 0.000000000000D+00 -.263473244310D-03 0.221509910942D-02 0.000000000000D+00  5 -1 2 25 24 21 2 0.46569211D-01 0.11601813D+00 0.15875725D+05 0.15875725D+05 0.15875725D+05 0.12450230D+01  1  2  5  1  5  1       -1 0.705620877951D-02 0.100000000000D+01
0.115606253222D-04 0.000000000000D+00 -.766734802406D-04 0.221509910942D-02 0.000000000000D+00  5 21 2 25 24 1 2 0.46569211D-01 0.11601813D+00 0.15875725D+05 0.15875725D+05 0.15875725D+05 0.12450230D+01  1  2  5  3  5  1       -1 0.396307191780D-02 0.100000000000D+01
  </mgrwgt>
  </event>
  <event>
  4     66 0.45252658E-03 0.10763686E+03 0.75467711E-02 0.12512828E+00
       -1 -1    0    0    0  501 0.00000000E+00 0.00000000E+00 0.19376862E+02 0.19379504E+02 0.32000000E+00 0.0000E+00 0.9000E+01
        2 -1    0    0  501    0 0.00000000E+00 0.00000000E+00 -.10240230E+04 0.10240230E+04 0.32000000E+00 0.0000E+00 0.9000E+01
       25  1    1    2    0    0 -.28286730E+02 0.13851464E+02 -.89296885E+03 0.90222524E+03 0.12500000E+03 0.0000E+00 0.9000E+01
       24  1    1    2    0    0 0.28286730E+02 -.13851464E+02 -.11167727E+03 0.14117730E+03 0.80419002E+02 0.0000E+00 0.9000E+01
#aMCatNLO 1  0  0  1  2 0.14922220D+02 0.00000000D+00  -5  5  0 0.00000000D+00 0.00000000D+00 0.00000000D+00 0.00000000D+00 0.00000000D+00
  <mgrwgt>
 0.3570550121D+00    4    2    0
 0.140867867454214D+03 0.000000000000000D+00 0.000000000000000D+00 0.140867867454214D+03
 0.140867867454214D+03 0.000000000000000D+00 0.000000000000000D+00 -.140867867454214D+03
 0.157120303533375D+03 -.282867301343796D+02 0.138514640308791D+02 -.898319966655862D+02
 0.124615431375052D+03 0.282867301343796D+02 -.138514640308791D+02 0.898319966655862D+02
 0.000000000000000D+00 0.000000000000000D+00 -.000000000000000D+00 -.000000000000000D+00
 0.142570415182324D+03 0.000000000000000D+00 0.000000000000000D+00 0.142570415182324D+03
 0.178051771357981D+03 0.000000000000000D+00 0.000000000000000D+00 -.178051771357981D+03
 0.158927637594025D+03 -.365661556637682D+02 0.150373743141816D+02 -.898319966655862D+02
 0.123203000560474D+03 0.217946952718807D+02 -.129215721107613D+02 0.898319966655862D+02
 0.384915483858064D+02 0.147714603918875D+02 -.211580220342030D+01 -.354813561756562D+02
0.364115446691D-03 0.000000000000D+00 0.000000000000D+00 0.157773672525D-02 0.000000000000D+00  5 -1 2 25 24 21 0 0.29812627D-02 0.15754220D+00 0.11585693D+05 0.11585693D+05 0.11585693D+05 0.12608164D+01  1  2  2  1  5  1       -1 0.381079332544D+00 0.100000000000D+01
-.184481284610D-04 0.000000000000D+00 -.139829918909D-05 0.157773672525D-02 0.000000000000D+00  5 -1 2 25 24 21 2 0.29812627D-02 0.15754220D+00 0.11585693D+05 0.11585693D+05 0.11585693D+05 0.12608164D+01  1  2  3  1  5  1       -1 -.306925034093D-01 0.100000000000D+01
0.248611313292D-04 0.000000000000D+00 0.000000000000D+00 0.157773672525D-02 0.000000000000D+00  5 -1 2 25 24 21 2 0.29812627D-02 0.15754220D+00 0.11585693D+05 0.11585693D+05 0.11585693D+05 0.12608164D+01  1  2 15  1  5  1       -1 0.413619386756D-01 0.100000000000D+01
-.208531332096D-04 0.000000000000D+00 0.000000000000D+00 0.157773672525D-02 0.000000000000D+00  5 -1 2 25 24 21 2 0.29812627D-02 0.15754220D+00 0.11585693D+05 0.11585693D+05 0.11585693D+05 0.12608164D+01  1  2  4  1  5  1       -1 -.346937557099D-01 0.100000000000D+01
  </mgrwgt>
  </event>
  <event>
  4     66 0.45252658E-03 0.10277066E+03 0.75467711E-02 0.12724837E+00
       -1 -1    0    0    0  501 0.00000000E+00 0.00000000E+00 0.53792179E+01 0.53887276E+01 0.32000000E+00 0.0000E+00 0.9000E+01
        2 -1    0    0  501    0 0.00000000E+00 0.00000000E+00 -.19978515E+04 0.19978516E+04 0.32000000E+00 0.0000E+00 0.9000E+01
       25  1    1    2    0    0 -.34559772E+01 -.18096063E+00 -.10766947E+04 0.10839319E+04 0.12500000E+03 0.0000E+00 0.9000E+01
       24  1    1    2    0    0 0.34559772E+01 0.18096063E+00 -.91577763E+03 0.91930836E+03 0.80419002E+02 0.0000E+00 0.9000E+01
#aMCatNLO 1  0  0  1  2 0.20663988D+01 0.00000000D+00  -5  5  0 0.00000000D+00 0.00000000D+00 0.00000000D+00 0.00000000D+00 0.00000000D+00
  <mgrwgt>
 0.4509821777D+00    6    2    0
 0.103713207722748D+03 0.000000000000000D+00 0.000000000000000D+00 0.103713207722748D+03
 0.103713207722748D+03 0.000000000000000D+00 0.000000000000000D+00 -.103713207722748D+03
 0.125787985484204D+03 -.345597715111666D+01 -.180960633596359D+00 0.136250052240096D+02
 0.816384299612920D+02 0.345597715111666D+01 0.180960633596359D+00 -.136250052240096D+02
 0.000000000000000D+00 -.000000000000000D+00 -.000000000000000D+00 -.000000000000000D+00
 0.104288033374325D+03 0.000000000000000D+00 0.000000000000000D+00 0.104288033374325D+03
 0.105592216804518D+03 0.000000000000000D+00 0.000000000000000D+00 -.105592216804518D+03
 0.125766339528299D+03 -.248235449703384D+01 0.607706462168620D+00 0.136250052240096D+02
 0.816703684780148D+02 0.408805193561362D+01 0.692962467679693D+00 -.136250052240096D+02
 0.244354217252839D+01 -.160569743857979D+01 -.130066892984831D+01 -.130418343019313D+01
0.170614716831D-03 0.000000000000D+00 0.000000000000D+00 0.316193454390D-02 0.000000000000D+00  5 -1 2 25 24 21 0 0.82830547D-03 0.30736251D+00 0.10561809D+05 0.10561809D+05 0.10561809D+05 0.12655743D+01  1  2  2  1  5  1       -1 0.342237402556D+00 0.100000000000D+01
-.947763482469D-05 0.000000000000D+00 -.655205436519D-06 0.316193454390D-02 0.000000000000D+00  5 -1 2 25 24 21 2 0.82830547D-03 0.30736251D+00 0.10561809D+05 0.10561809D+05 0.10561809D+05 0.12655743D+01  1  2  3  1  5  1       -1 -.304499283569D-01 0.100000000000D+01
0.116692637360D-04 0.000000000000D+00 0.000000000000D+00 0.316193454390D-02 0.000000000000D+00  5 -1 2 25 24 21 2 0.82830547D-03 0.30736251D+00 0.10561809D+05 0.10561809D+05 0.10561809D+05 0.12655743D+01  1  2 15  1  5  1       -1 0.374912360847D-01 0.100000000000D+01
-.280088775540D-03 0.000000000000D+00 0.000000000000D+00 0.316193454390D-02 0.000000000000D+00  5 -1 2 25 24 21 2 0.82830547D-03 0.30736251D+00 0.10561809D+05 0.10561809D+05 0.10561809D+05 0.12655743D+01  1  2  4  1  5  1       -1 -.899874631859D+00 0.100000000000D+01
0.280103165806D-03 0.000000000000D+00 0.000000000000D+00 0.316193454390D-02 0.631630328054D-02  5 -1 2 25 24 21 2 0.83289632D-03 0.31293110D+00 0.10776344D+05 0.10776344D+05 0.10776344D+05 0.12645356D+01  1  2 11  1  5  1       -1 0.855113367307D+00 0.100000000000D+01
0.199243238332D-05 0.000000000000D+00 0.000000000000D+00 0.316193454390D-02 0.655373260340D-05  5 21 2 25 24 1 2 0.83289632D-03 0.31293110D+00 0.10776344D+05 0.10776344D+05 0.10776344D+05 0.12645356D+01  1  2 11  3  5  1       -1 0.146464731949D+00 0.100000000000D+01
  </mgrwgt>
  </event>
  <event>
  4     66 0.45252658E-03 0.11701242E+03 0.75467711E-02 0.11887145E+00
       -3 -1    0    0    0  501 0.00000000E+00 0.00000000E+00 0.11431523E+03 0.11431632E+03 0.50000000E+00 0.0000E+00 0.9000E+01
        4 -1    0    0  501    0 0.00000000E+00 0.00000000E+00 -.14304249E+03 0.14305089E+03 0.15500000E+01 0.0000E+00 0.9000E+01
       25  1    1    2    0    0 -.42650561E+02 -.34778600E+02 -.67675016E+02 0.15242549E+03 0.12500000E+03 0.0000E+00 0.9000E+01
       24  1    1    2    0    0 0.42650561E+02 0.34778600E+02 0.38947759E+02 0.10494172E+03 0.80419002E+02 0.0000E+00 0.9000E+01
#aMCatNLO 1  0  0  1  2 0.75098407D+02 0.00000000D+00  -5  5  0 0.00000000D+00 0.00000000D+00 0.00000000D+00 0.00000000D+00 0.00000000D+00
  <mgrwgt>
 0.4476475906D-01    7    2    0
 0.127879460471185D+03 0.000000000000000D+00 0.000000000000000D+00 0.127879460471185D+03
 0.127879460471185D+03 0.000000000000000D+00 0.000000000000000D+00 -.127879460471185D+03
 0.145782617107690D+03 -.426505612214482D+02 -.347785997636854D+02 -.509798987517658D+02
 0.109976303834680D+03 0.426505612214482D+02 0.347785997636854D+02 0.509798987517658D+02
 0.000000000000000D+00 0.000000000000000D+00 0.000000000000000D+00 0.000000000000000D+00
 0.177790129937598D+03 0.000000000000000D+00 0.000000000000000D+00 0.177790129937598D+03
 0.164953945409143D+03 0.000000000000000D+00 0.000000000000000D+00 -.164953945409143D+03
 0.163932357635990D+03 -.494117185239433D+02 -.787930826650691D+02 -.509798987517658D+02
 0.102624196272050D+03 0.380094377982093D+02 0.456533324495284D+01 0.509798987517658D+02
 0.761875214387012D+02 0.114022807257340D+02 0.742277494201163D+02 0.128361845284545D+02
0.436201114688D-03 0.000000000000D+00 0.000000000000D+00 0.228000192271D-02 0.000000000000D+00  5 -3 4 25 24 21 0 0.17587689D-01 0.22007267D-01 0.13691907D+05 0.13691907D+05 0.13691907D+05 0.12523656D+01  1  2  2  1  5  1       -3 0.441155201849D-01 0.100000000000D+01
-.240010146830D-04 0.000000000000D+00 -.167512713479D-05 0.228000192271D-02 0.000000000000D+00  5 -3 4 25 24 21 2 0.17587689D-01 0.22007267D-01 0.13691907D+05 0.13691907D+05 0.13691907D+05 0.12523656D+01  1  2  3  1  5  1       -3 -.380711910209D-02 0.100000000000D+01
0.300521306610D-04 0.000000000000D+00 0.000000000000D+00 0.228000192271D-02 0.000000000000D+00  5 -3 4 25 24 21 2 0.17587689D-01 0.22007267D-01 0.13691907D+05 0.13691907D+05 0.13691907D+05 0.12523656D+01  1  2 15  1  5  1       -3 0.476696682240D-02 0.100000000000D+01
-.140890229880D-03 0.000000000000D+00 0.000000000000D+00 0.228000192271D-02 0.000000000000D+00  5 -3 4 25 24 21 2 0.17587689D-01 0.22007267D-01 0.13691907D+05 0.13691907D+05 0.13691907D+05 0.12523656D+01  1  2  4  1  5  1       -3 -.223484670359D-01 0.100000000000D+01
-.166556095259D-03 0.000000000000D+00 -.135068192238D-03 0.228000192271D-02 0.000000000000D+00  5 -3 4 25 24 21 2 0.31116747D-01 0.22007267D-01 0.13691907D+05 0.13691907D+05 0.13691907D+05 0.12523656D+01  1  2  5  1  5  1       -3 -.952482206395D-02 0.100000000000D+01
0.225294726153D-03 0.000000000000D+00 0.115717319385D-03 0.228000192271D-02 0.000000000000D+00  5 -3 4 25 24 21 2 0.17587689D-01 0.22007267D-01 0.13691907D+05 0.13691907D+05 0.13691907D+05 0.12523656D+01  1  2  6  1  5  1       -3 0.357369830762D-01 0.100000000000D+01
-.347839660394D-05 0.000000000000D+00 -.848701126872D-05 0.228000192271D-02 0.000000000000D+00  5 21 4 25 24 3 2 0.31116747D-01 0.22007267D-01 0.13691907D+05 0.13691907D+05 0.13691907D+05 0.12523656D+01  1  2  5  3  5  1       -3 -.417430282111D-02 0.100000000000D+01
  </mgrwgt>
  </event>
  <event>
  4     66 0.45252658E-03 0.16249700E+03 0.75467711E-02 0.11182457E+00
       -1 -1    0    0    0  501 0.00000000E+00 0.00000000E+00 0.32241601E+02 0.32243189E+02 0.32000000E+00 0.0000E+00 0.9000E+01
        2 -1    0    0  501    0 0.00000000E+00 0.00000000E+00 -.88257706E+03 0.88257712E+03 0.32000000E+00 0.0000E+00 0.9000E+01
       25  1    1    2    0    0 0.13906630E+02 0.12395272E+03 -.33699814E+03 0.38046080E+03 0.12500000E+03 0.0000E+00 0.9000E+01
       24  1    1    2    0    0 -.13906630E+02 -.12395272E+03 -.51333732E+03 0.53435951E+03 0.80419002E+02 0.0000E+00 0.9000E+01
#aMCatNLO 1  0  0  2  1 0.13353236D+03 0.00000000D+00  -5  5  0 0.00000000D+00 0.00000000D+00 0.00000000D+00 0.00000000D+00 0.00000000D+00
  <mgrwgt>
 0.4511190869D+00    3    2    0
 0.168690399037930D+03 0.000000000000000D+00 0.000000000000000D+00 0.168690399037930D+03
 0.168690399037930D+03 0.000000000000000D+00 0.000000000000000D+00 -.168690399037930D+03
 0.182262279977595D+03 0.139066302916813D+02 0.123952716083551D+03 0.451316796947800D+02
 0.155118518098265D+03 -.139066302916813D+02 -.123952716083551D+03 -.451316796947800D+02
 0.000000000000000D+00 -.000000000000000D+00 0.000000000000000D+00 0.000000000000000D+00
 0.305184024325248D+03 0.000000000000000D+00 0.000000000000000D+00 0.305184024325248D+03
 0.217441329014158D+03 0.000000000000000D+00 0.000000000000000D+00 -.217441329014158D+03
 0.153671675523592D+03 0.405013584837841D+02 0.656715715292702D+02 0.451316796947800D+02
 0.209173601556454D+03 0.149331155752947D+02 -.187153715380888D+03 -.451316796947800D+02
 0.159780076259359D+03 -.554344740590787D+02 0.121482143851618D+03 0.877426953110905D+02
0.715324662077D-03 0.000000000000D+00 0.000000000000D+00 0.213477278442D-02 0.000000000000D+00  5 -1 2 25 24 21 0 0.49603730D-02 0.13578121D+00 0.26405274D+05 0.26405274D+05 0.26405274D+05 0.12207594D+01  1  2  2  2  5  2        2 0.442314348036D+00 0.100000000000D+01
-.396726531174D-04 0.000000000000D+00 -.274703505168D-05 0.213477278442D-02 0.000000000000D+00  5 -1 2 25 24 21 2 0.49603730D-02 0.13578121D+00 0.26405274D+05 0.26405274D+05 0.26405274D+05 0.12207594D+01  1  2  3  2  5  2        2 -.365577330225D-01 0.100000000000D+01
0.492276042456D-04 0.000000000000D+00 0.000000000000D+00 0.213477278442D-02 0.000000000000D+00  5 -1 2 25 24 21 2 0.49603730D-02 0.13578121D+00 0.26405274D+05 0.26405274D+05 0.26405274D+05 0.12207594D+01  1  2 15  2  5  2        2 0.453624719280D-01 0.100000000000D+01
  </mgrwgt>
  </event>
  <event>
  4     66 0.45252658E-03 0.12130584E+03 0.75467711E-02 0.12346399E+00
       -1 -1    0    0    0  501 0.00000000E+00 0.00000000E+00 0.71302331E+01 0.71374101E+01 0.32000000E+00 0.0000E+00 0.9000E+01
        2 -1    0    0  501    0 0.00000000E+00 0.00000000E+00 -.22217848E+04 0.22217848E+04 0.32000000E+00 0.0000E+00 0.9000E+01
       25  1    1    2    0    0 0.48236790E+02 -.50909726E+02 -.11372140E+04 0.11462108E+04 0.12500000E+03 0.0000E+00 0.9000E+01
       24  1    1    2    0    0 -.48236790E+02 0.50909726E+02 -.10774406E+04 0.10827114E+04 0.80419002E+02 0.0000E+00 0.9000E+01
#aMCatNLO 1  0  0  2  2 0.51454733D+00 0.00000000D+00  -5  5  0 0.00000000D+00 0.00000000D+00 0.00000000D+00 0.00000000D+00 0.00000000D+00
  <mgrwgt>
 0.1686443631D+00    7    2    0
 0.125896257429243D+03 0.000000000000000D+00 0.000000000000000D+00 0.125896257429243D+03
 0.125896257429243D+03 0.000000000000000D+00 0.000000000000000D+00 -.125896257429243D+03
 0.144081436704283D+03 0.482367904936799D+02 -.509097259298242D+02 0.146925917179170D+02
 0.107711078154203D+03 -.482367904936799D+02 0.509097259298242D+02 -.146925917179170D+02
 0.000000000000000D+00 0.000000000000000D+00 -.000000000000000D+00 0.000000000000000D+00
 0.126234678033146D+03 0.000000000000000D+00 0.000000000000000D+00 0.126234678033146D+03
 0.126092256592583D+03 0.000000000000000D+00 0.000000000000000D+00 -.126092256592583D+03
 0.143952093869777D+03 0.479626121982707D+02 -.508027647793098D+02 0.146925917179170D+02
 0.107840946736430D+03 -.484419738507659D+02 0.509897710986351D+02 -.146925917179170D+02
 0.533894019522926D+00 0.479361652495187D+00 -.187006319325378D+00 0.142421440562175D+00
0.218741391161D-03 0.000000000000D+00 0.000000000000D+00 0.264934162963D-02 0.000000000000D+00  5 -1 2 25 24 21 0 0.10975128D-02 0.34181360D+00 0.15629329D+05 0.15629329D+05 0.15629329D+05 0.12457928D+01  1  2  2  2  5  2        2 0.228105951366D+00 0.100000000000D+01
-.121515742782D-04 0.000000000000D+00 -.840024537988D-06 0.264934162963D-02 0.000000000000D+00  5 -1 2 25 24 21 2 0.10975128D-02 0.34181360D+00 0.15629329D+05 0.15629329D+05 0.15629329D+05 0.12457928D+01  1  2  3  2  5  2        2 -.196666258025D-01 0.100000000000D+01
0.151021938537D-04 0.000000000000D+00 0.000000000000D+00 0.264934162963D-02 0.000000000000D+00  5 -1 2 25 24 21 2 0.10975128D-02 0.34181360D+00 0.15629329D+05 0.15629329D+05 0.15629329D+05 0.12457928D+01  1  2 15  2  5  2        2 0.244420343010D-01 0.100000000000D+01
-.502183404827D-02 0.000000000000D+00 0.000000000000D+00 0.264934162963D-02 0.000000000000D+00  5 -1 2 25 24 21 2 0.10975128D-02 0.34181360D+00 0.15629329D+05 0.15629329D+05 0.15629329D+05 0.12457928D+01  1  2  4  2  5  2        2 -.812755029175D+01 0.100000000000D+01
0.502185253558D-02 0.000000000000D+00 0.000000000000D+00 0.264934162963D-02 0.828014239458D-01  5 -1 2 25 24 21 2 0.11004630D-02 0.34234575D+00 0.15693857D+05 0.15693857D+05 0.15693857D+05 0.12455899D+01  1  2 11  2  5  2        2 0.806113419303D+01 0.100000000000D+01
0.262705949445D-16 0.000000000000D+00 0.000000000000D+00 0.264934162963D-02 0.000000000000D+00  5 -1 21 25 24 -2 2 0.10975128D-02 0.34280419D+00 0.15693857D+05 0.15693857D+05 0.15693857D+05 0.12455899D+01  1  2 12  4  5  2        2 0.119507142811D-13 0.100000000000D+01
0.477958696575D-05 0.000000000000D+00 0.000000000000D+00 0.264934162963D-02 0.241226748060D-04  5 -1 21 25 24 -2 2 0.11004630D-02 0.34234575D+00 0.15693857D+05 0.15693857D+05 0.15693857D+05 0.12455899D+01  1  2 11  4  5  2        2 0.217910194857D-02 0.100000000000D+01
  </mgrwgt>
  </event>
  <event>
  4     66 0.45252658E-03 0.11321920E+03 0.75467711E-02 0.10259571E+00
       -1 -1    0    0    0  501 0.00000000E+00 0.00000000E+00 0.14275748E+02 0.14279334E+02 0.32000000E+00 0.0000E+00 0.9000E+01
        2 -1    0    0  501    0 0.00000000E+00 0.00000000E+00 -.93458609E+03 0.93458614E+03 0.32000000E+00 0.0000E+00 0.9000E+01
       25  1    1    2    0    0 0.29504691E+02 -.36205729E+02 -.44644883E+03 0.46596452E+03 0.12500000E+03 0.0000E+00 0.9000E+01
       24  1    1    2    0    0 -.29504691E+02 0.36205729E+02 -.47386151E+03 0.48290095E+03 0.80419002E+02 0.0000E+00 0.9000E+01
#aMCatNLO 1  0  0  2  1 0.42784013D+03 0.00000000D+00  -5  5  0 0.00000000D+00 0.00000000D+00 0.00000000D+00 0.00000000D+00 0.00000000D+00
  <mgrwgt>
 0.4177739210D+00    5    2    0
 0.115514686152717D+03 0.000000000000000D+00 0.000000000000000D+00 0.115514686152717D+03
 0.115514686152717D+03 0.000000000000000D+00 0.000000000000000D+00 -.115514686152717D+03
 0.135334209432905D+03 0.295046907363614D+02 -.362057291078287D+02 0.225602891637410D+02
 0.956951628725295D+02 -.295046907363614D+02 0.362057291078287D+02 -.225602891637410D+02
 0.000000000000000D+00 0.000000000000000D+00 -.000000000000000D+00 -.000000000000000D+00
 0.353110456587644D+03 0.000000000000000D+00 0.000000000000000D+00 0.353110456587644D+03
 0.659153747757222D+03 0.000000000000000D+00 0.000000000000000D+00 -.659153747757222D+03
 0.210877399958760D+03 -.165062473660427D+03 0.330104673598566D+02 0.225602891637410D+02
 0.275354796127327D+03 -.238030737852460D+03 0.110387721175016D+03 -.225602891637410D+02
 0.526032008258778D+03 0.403093211512887D+03 -.143398188534873D+03 -.306043291169578D+03
0.221600451930D-03 0.000000000000D+00 0.000000000000D+00 0.278188850390D-02 0.000000000000D+00  5 -1 2 25 24 21 0 0.21965490D-02 0.14378275D+00 0.12818586D+05 0.12818586D+05 0.12818586D+05 0.12556791D+01  1  2  2  2  5  2        2 0.408976082402D+00 0.100000000000D+01
-.123051056411D-04 0.000000000000D+00 -.851004084150D-06 0.278188850390D-02 0.000000000000D+00  5 -1 2 25 24 21 2 0.21965490D-02 0.14378275D+00 0.12818586D+05 0.12818586D+05 0.12818586D+05 0.12556791D+01  1  2  3  2  5  2        2 -.358071673949D-01 0.100000000000D+01
0.153159422714D-04 0.000000000000D+00 0.000000000000D+00 0.278188850390D-02 0.000000000000D+00  5 -1 2 25 24 21 2 0.21965490D-02 0.14378275D+00 0.12818586D+05 0.12818586D+05 0.12818586D+05 0.12556791D+01  1  2 15  2  5  2        2 0.445685331534D-01 0.100000000000D+01
0.160998564623D-03 0.000000000000D+00 -.115345388367D-03 0.278188850390D-02 0.000000000000D+00  5 -1 2 25 24 21 2 0.21965490D-02 0.90065492D+00 0.12818586D+05 0.12818586D+05 0.12818586D+05 0.12556791D+01  1  2  5  2  5  2        2 0.364471332481D-04 0.100000000000D+01
0.278506295089D-04 0.000000000000D+00 -.259352869170D-04 0.278188850390D-02 0.000000000000D+00  5 -1 21 25 24 -2 2 0.21965490D-02 0.90065492D+00 0.12818586D+05 0.12818586D+05 0.12818586D+05 0.12556791D+01  1  2  5  4  5  2        2 0.257379545400D-07 0.100000000000D+01
  </mgrwgt>
  </event>
  <event>
  4     66 0.45252658E-03 0.11372159E+03 0.75467711E-02 0.11709933E+00
       -1 -1    0    0    0  501 0.00000000E+00 0.00000000E+00 0.37312817E+01 0.37449783E+01 0.32000000E+00 0.0000E+00 0.9000E+01
        2 -1    0    0  501    0 0.00000000E+00 0.00000000E+00 -.35677436E+04 0.35677436E+04 0.32000000E+00 0.0000E+00 0.9000E+01
       25  1    1    2    0    0 0.24243512E+02 -.41280051E+02 -.17818164E+04 0.17868370E+04 0.12500000E+03 0.0000E+00 0.9000E+01
       24  1    1    2    0    0 -.24243512E+02 0.41280051E+02 -.17821959E+04 0.17846515E+04 0.80419002E+02 0.0000E+00 0.9000E+01
#aMCatNLO 1  0  0  1  2 0.10363937D+03 0.00000000D+00  -5  5  0 0.00000000D+00 0.00000000D+00 0.00000000D+00 0.00000000D+00 0.00000000D+00
  <mgrwgt>
 0.5623415845D+00    5    2    0
 0.115484806109571D+03 0.000000000000000D+00 0.000000000000000D+00 0.115484806109571D+03
 0.115484806109571D+03 0.000000000000000D+00 0.000000000000000D+00 -.115484806109571D+03
 0.135309457408160D+03 0.242435123492240D+02 -.412800514278701D+02 0.197954218741623D+02
 0.956601548109827D+02 -.242435123492240D+02 0.412800514278701D+02 -.197954218741623D+02
 0.000000000000000D+00 0.000000000000000D+00 0.000000000000000D+00 0.000000000000000D+00
 0.182276642751641D+03 0.000000000000000D+00 0.000000000000000D+00 0.182276642751641D+03
 0.174789080750801D+03 0.000000000000000D+00 0.000000000000000D+00 -.174789080750801D+03
 0.156844079443386D+03 -.126573942086024D+02 -.917768865298621D+02 0.197954218741623D+02
 0.963121564883870D+02 -.484908735049016D+02 0.809888835758213D+01 -.197954218741623D+02
 0.103909487570668D+03 0.611482677135041D+02 0.836779981722800D+02 0.748756200084043D+01
0.891957666197D-03 0.000000000000D+00 0.000000000000D+00 0.280405833419D-02 0.000000000000D+00  5 -1 2 25 24 21 0 0.57509803D-03 0.54888468D+00 0.12932600D+05 0.12932600D+05 0.12932600D+05 0.12552324D+01  1  2  2  1  5  1       -1 0.395220184869D+00 0.100000000000D+01
-.495389414302D-04 0.000000000000D+00 -.342535229604D-05 0.280405833419D-02 0.000000000000D+00  5 -1 2 25 24 21 2 0.57509803D-03 0.54888468D+00 0.12932600D+05 0.12932600D+05 0.12932600D+05 0.12552324D+01  1  2  3  1  5  1       -1 -.345851647876D-01 0.100000000000D+01
0.614176429031D-04 0.000000000000D+00 0.000000000000D+00 0.280405833419D-02 0.000000000000D+00  5 -1 2 25 24 21 2 0.57509803D-03 0.54888468D+00 0.12932600D+05 0.12932600D+05 0.12932600D+05 0.12552324D+01  1  2 15  1  5  1       -1 0.428781729958D-01 0.100000000000D+01
0.555316815042D-03 0.000000000000D+00 -.355174878327D-03 0.280405833419D-02 0.000000000000D+00  5 -1 2 25 24 21 2 0.30622101D-02 0.54888468D+00 0.12932600D+05 0.12932600D+05 0.12932600D+05 0.12552324D+01  1  2  5  1  5  1       -1 0.356694460688D-01 0.100000000000D+01
0.991407226271D-04 0.000000000000D+00 -.726142754875D-04 0.280405833419D-02 0.000000000000D+00  5 21 2 25 24 1 2 0.30622101D-02 0.54888468D+00 0.12932600D+05 0.12932600D+05 0.12932600D+05 0.12552324D+01  1  2  5  3  5  1       -1 0.123158945332D+00 0.100000000000D+01
  </mgrwgt>
  </event>
  <event>
  4     66 0.45252658E-03 0.40526652E+02 0.75467711E-02 0.12114511E+00
       -1 -1    0    0    0  501 0.00000000E+00 0.00000000E+00 0.17728511E+02 0.17731399E+02 0.32000000E+00 0.0000E+00 0.9000E+01
        2 -1    0    0  501    0 0.00000000E+00 0.00000000E+00 -.86388613E+03 0.86388619E+03 0.32000000E+00 0.0000E+00 0.9000E+01
       25  1    1    2    0    0 0.19766309E+02 -.59272291E+02 -.39148444E+03 0.41567893E+03 0.12500000E+03 0.0000E+00 0.9000E+01
       24  1    1    2    0    0 -.19766309E+02 0.59272291E+02 -.45467318E+03 0.46593865E+03 0.80419002E+02 0.0000E+00 0.9000E+01
#aMCatNLO 1  0  0  1  2 0.38291260D+02 0.00000000D+00  -5  5  0 0.00000000D+00 0.00000000D+00 0.00000000D+00 0.00000000D+00 0.00000000D+00
  <mgrwgt>
 0.3194601819D+00    9    2    0
 0.123760712398079D+03 0.000000000000000D+00 0.000000000000000D+00 0.123760712398079D+03
 0.123760712398079D+03 0.000000000000000D+00 0.000000000000000D+00 -.123760712398079D+03
 0.142259684867171D+03 0.197663086150070D+02 -.592722914372745D+02 0.266252971817782D+02
 0.105261739928986D+03 -.197663086150070D+02 0.592722914372745D+02 -.266252971817782D+02
 0.000000000000000D+00 -.000000000000000D+00 0.000000000000000D+00 0.000000000000000D+00
 0.218972847358251D+03 0.000000000000000D+00 0.000000000000000D+00 0.218972847358251D+03
 0.129143198504071D+03 0.000000000000000D+00 0.000000000000000D+00 -.129143198504071D+03
 0.148674630044678D+03 0.417401451780131D+02 -.634665222729446D+02 0.266252971817782D+02
 0.101791088757092D+03 -.412791608357091D+01 0.562873312102521D+02 -.266252971817782D+02
 0.976503270605525D+02 -.376122290944421D+02 0.717919106269250D+01 0.898296488541808D+02
0.195061198489D-03 0.000000000000D+00 0.000000000000D+00 0.260631356394D-02 0.000000000000D+00  5 -1 2 25 24 21 0 0.27276900D-02 0.13290578D+00 0.14590781D+05 0.14590781D+05 0.14590781D+05 0.12491943D+01  1  2  2  1  5  1       -1 0.293059012357D+00 0.100000000000D+01
-.108289675093D-04 0.000000000000D+00 -.749086362990D-06 0.260631356394D-02 0.000000000000D+00  5 -1 2 25 24 21 2 0.27276900D-02 0.13290578D+00 0.14590781D+05 0.14590781D+05 0.14590781D+05 0.12491943D+01  1  2  3  1  5  1       -1 -.253881612637D-01 0.100000000000D+01
0.134910771451D-04 0.000000000000D+00 0.000000000000D+00 0.260631356394D-02 0.000000000000D+00  5 -1 2 25 24 21 2 0.27276900D-02 0.13290578D+00 0.14590781D+05 0.14590781D+05 0.14590781D+05 0.12491943D+01  1  2 15  1  5  1       -1 0.316293905107D-01 0.100000000000D+01
0.408048320445D-03 0.000000000000D+00 0.000000000000D+00 0.260631356394D-02 0.000000000000D+00  5 -1 2 25 24 21 2 0.48444978D-02 0.13290578D+00 0.19995319D+05 0.19995319D+05 0.19995319D+05 0.12338372D+01  1  2 12  1  5  1       -1 0.406522761620D+00 0.100000000000D+01
-.396938453362D-03 0.000000000000D+00 0.000000000000D+00 0.260631356394D-02 0.000000000000D+00  5 -1 2 25 24 21 2 0.27276900D-02 0.13290578D+00 0.14590781D+05 0.14590781D+05 0.14590781D+05 0.12491943D+01  1  2  4  1  5  1       -1 -.930609262336D+00 0.100000000000D+01
-.453473291896D-03 0.000000000000D+00 -.595373280162D-04 0.260631356394D-02 0.000000000000D+00  5 -1 2 25 24 21 2 0.50298582D-02 0.13290578D+00 0.14590781D+05 0.14590781D+05 0.14590781D+05 0.12491943D+01  1  2  5  1  5  1       -1 -.434897684411D+00 0.100000000000D+01
0.418677146495D-03 0.000000000000D+00 0.498993063764D-04 0.260631356394D-02 0.000000000000D+00  5 -1 2 25 24 21 2 0.27276900D-02 0.13290578D+00 0.14590781D+05 0.14590781D+05 0.14590781D+05 0.12491943D+01  1  2  6  1  5  1       -1 0.981574919629D+00 0.100000000000D+01
0.257871320885D-04 0.000000000000D+00 0.000000000000D+00 0.260631356394D-02 0.000000000000D+00  5 21 2 25 24 1 2 0.48444978D-02 0.13290578D+00 0.19995319D+05 0.19995319D+05 0.19995319D+05 0.12338372D+01  1  2 12  3  5  1       -1 0.451743322321D+00 0.100000000000D+01
-.270114857871D-04 0.000000000000D+00 -.397653701339D-05 0.260631356394D-02 0.000000000000D+00  5 21 2 25 24 1 2 0.50298582D-02 0.13290578D+00 0.14590781D+05 0.14590781D+05 0.14590781D+05 0.12491943D+01  1  2  5  3  5  1       -1 -.454174116530D+00 0.100000000000D+01
  </mgrwgt>
  </event>
  <event>
  4     66 0.45252658E-03 0.14807802E+03 0.75467711E-02 0.10715285E+00
       -1 -1    0    0    0  501 0.00000000E+00 0.00000000E+00 0.19017374E+02 0.19020066E+02 0.32000000E+00 0.0000E+00 0.9000E+01
        2 -1    0    0  501    0 0.00000000E+00 0.00000000E+00 -.15270463E+04 0.15270463E+04 0.32000000E+00 0.0000E+00 0.9000E+01
       25  1    1    2    0    0 0.10532822E+03 0.50991725E+01 -.43240005E+03 0.46229302E+03 0.12500000E+03 0.0000E+00 0.9000E+01
       24  1    1    2    0    0 -.10532822E+03 -.50991725E+01 -.10756289E+04 0.10837734E+04 0.80419002E+02 0.0000E+00 0.9000E+01
#aMCatNLO 1  0  0  2  1 0.26470615D+03 0.00000000D+00  -5  5  0 0.00000000D+00 0.00000000D+00 0.00000000D+00 0.00000000D+00 0.00000000D+00
  <mgrwgt>
 0.4775266144D+00    3    2    0
 0.170418651425090D+03 0.000000000000000D+00 0.000000000000000D+00 0.170418651425090D+03
 0.170418651425090D+03 0.000000000000000D+00 0.000000000000000D+00 -.170418651425090D+03
 0.183852896986021D+03 0.105328221594271D+03 0.509917249244441D+01 0.840050707150039D+02
 0.156984405864159D+03 -.105328221594271D+03 -.509917249244441D+01 -.840050707150039D+02
 0.000000000000000D+00 0.000000000000000D+00 -.000000000000000D+00 0.000000000000000D+00
 0.436879544535167D+03 0.000000000000000D+00 0.000000000000000D+00 0.436879544535167D+03
 0.295004639249124D+03 0.000000000000000D+00 0.000000000000000D+00 -.295004639249124D+03
 0.153445031509562D+03 -.791483101990215D+01 0.282998452127247D+02 0.840050707150039D+02
 0.278109612472224D+03 -.251404940862425D+03 0.248282983550566D+02 -.840050707150039D+02
 0.300329539802505D+03 0.259319771882327D+03 -.531281435677812D+02 0.141874905286042D+03
0.805583109946D-03 0.000000000000D+00 0.000000000000D+00 0.176162807063D-02 0.000000000000D+00  5 -1 2 25 24 21 0 0.29259595D-02 0.23493041D+00 0.21927099D+05 0.21927099D+05 0.21927099D+05 0.12294519D+01  1  2  2  2  5  2        2 0.467380970242D+00 0.100000000000D+01
-.436801623379D-04 0.000000000000D+00 -.309365125710D-05 0.176162807063D-02 0.000000000000D+00  5 -1 2 25 24 21 2 0.29259595D-02 0.23493041D+00 0.21927099D+05 0.21927099D+05 0.21927099D+05 0.12294519D+01  1  2  3  2  5  2        2 -.383061036138D-01 0.100000000000D+01
0.552491642258D-04 0.000000000000D+00 0.000000000000D+00 0.176162807063D-02 0.000000000000D+00  5 -1 2 25 24 21 2 0.29259595D-02 0.23493041D+00 0.21927099D+05 0.21927099D+05 0.21927099D+05 0.12294519D+01  1  2 15  2  5  2        2 0.484517477988D-01 0.100000000000D+01
  </mgrwgt>
  </event>
  <event>
  5     66 -.45252658E-03 0.24516802E+03 0.75467711E-02 0.11147243E+00
       -1 -1    0    0    0  502 0.00000000E+00 0.00000000E+00 0.37601042E+03 0.37601055E+03 0.32000000E+00 0.0000E+00 0.9000E+01
        2 -1    0    0  501    0 0.00000000E+00 0.00000000E+00 -.23545063E+03 0.23545085E+03 0.32000000E+00 0.0000E+00 0.9000E+01
       25  1    1    2    0    0 0.10408962E+03 0.19442415E+03 -.97769717E+02 0.27169711E+03 0.12500000E+03 0.0000E+00 0.9000E+01
       24  1    1    2    0    0 -.10923300E+03 -.19421005E+03 0.23202265E+03 0.33158878E+03 0.80419002E+02 0.0000E+00 0.9000E+01
       21  1    1    2  501  502 0.51433786E+01 -.21409744E+00 0.63068588E+01 0.81755213E+01 0.75000000E+00 0.0000E+00 0.9000E+01
#aMCatNLO 2  0  0  1  2 0.51478327D+01 0.00000000D+00  -5  5  0 0.00000000D+00 0.00000000D+00 0.00000000D+00 0.00000000D+00 0.00000000D+00
  <mgrwgt>
 -.9439413415D-01    3    2    0
 0.294067809506961D+03 0.000000000000000D+00 0.000000000000000D+00 0.294067809506961D+03
 0.294067809506961D+03 0.000000000000000D+00 0.000000000000000D+00 -.294067809506961D+03
 0.301853245169728D+03 0.106725620946305D+03 0.194314426197916D+03 -.162301963095017D+03
 0.286282373844193D+03 -.106725620946305D+03 -.194314426197916D+03 0.162301963095017D+03
 0.000000000000000D+00 0.000000000000000D+00 -.000000000000000D+00 0.000000000000000D+00
 0.299833070259443D+03 0.000000000000000D+00 0.000000000000000D+00 0.299833070259443D+03
 0.295230455304815D+03 0.000000000000000D+00 0.000000000000000D+00 -.295230455304815D+03
 0.301002203805894D+03 0.104089618020904D+03 0.194424152027909D+03 -.162301963095017D+03
 0.287155943747920D+03 -.109232996612028D+03 -.194210054585360D+03 0.162301963095017D+03
 0.690537801044359D+01 0.514337859112484D+01 -.214097442548749D+00 0.460261495462857D+01
-.277707413440D-02 0.000000000000D+00 0.000000000000D+00 0.141407112757D-02 0.000000000000D+00  5 -1 2 25 24 21 2 0.57954619D-01 0.36078076D-01 0.61388394D+05 0.61388394D+05 0.61388394D+05 0.11835556D+01  1  2 13  1  5  1       -1 -.197860332535D+00 0.100000000000D+01
-.311504287984D-01 0.000000000000D+00 0.000000000000D+00 0.141407112757D-02 0.000000000000D+00  5 -1 2 25 24 21 2 0.56731582D-01 0.36078076D-01 0.60107359D+05 0.60107359D+05 0.60107359D+05 0.11844433D+01  1  2  8  1  5  1       -1 -.231513871135D+01 0.100000000000D+01
0.339680240634D-01 0.000000000000D+00 0.000000000000D+00 0.141407112757D-02 0.398770402202D-03  5 -1 2 25 24 21 2 0.57843816D-01 0.36220717D-01 0.61388394D+05 0.61388394D+05 0.61388394D+05 0.11835556D+01  1  2  1  1  5  1       -1 0.241860490974D+01 0.100000000000D+01
  </mgrwgt>
  </event>
  <event>
  5     66 0.45252658E-03 0.11377690E+03 0.75467711E-02 0.12278036E+00
       21 -1    0    0  502  501 0.00000000E+00 0.00000000E+00 0.99313249E+01 0.99596041E+01 0.75000000E+00 0.0000E+00 0.9000E+01
        2 -1    0    0  501    0 0.00000000E+00 0.00000000E+00 -.27008055E+04 0.27008055E+04 0.32000000E+00 0.0000E+00 0.9000E+01
       25  1    1    2    0    0 -.29364471E+02 -.49273721E+02 -.18951417E+04 0.19001256E+04 0.12500000E+03 0.0000E+00 0.9000E+01
       24  1    1    2    0    0 -.51456645E+00 0.43960086E+02 -.29318606E+03 0.30717753E+03 0.80419002E+02 0.0000E+00 0.9000E+01
        1  1    1    2  502    0 0.29879037E+02 0.53136353E+01 -.50254645E+03 0.50346204E+03 0.32000000E+00 0.0000E+00 0.9000E+01
#aMCatNLO 2  0  0  1  2 0.30347843D+02 0.00000000D+00  -5  5  0 0.00000000D+00 0.00000000D+00 0.00000000D+00 0.00000000D+00 0.00000000D+00
  <mgrwgt>
 0.8554588095D-01    1    2    0
 0.143603329493556D+03 0.000000000000000D+00 0.000000000000000D+00 0.143603329493556D+03
 0.143603329493556D+03 0.000000000000000D+00 0.000000000000000D+00 -.143603329493556D+03
 0.159546177194104D+03 -.126536459929682D+02 -.463018973507317D+02 -.867525342688008D+02
 0.127660481793008D+03 0.126536459929682D+02 0.463018973507317D+02 0.867525342688008D+02
 0.000000000000000D+00 0.000000000000000D+00 0.000000000000000D+00 -.000000000000000D+00
 0.151369839303429D+03 0.000000000000000D+00 0.000000000000000D+00 0.151369839303429D+03
 0.177450879861856D+03 0.000000000000000D+00 0.000000000000000D+00 -.177450879861856D+03
 0.162607422722298D+03 -.293644707523724D+02 -.492737209855479D+02 -.867525342688008D+02
 0.126198146045457D+03 -.514566451568321D+00 0.439600856487731D+02 0.867525342688008D+02
 0.400151503975309D+02 0.298790372039407D+02 0.531363533677482D+01 -.260810405584271D+02
0.705140130106D-05 0.000000000000D+00 0.000000000000D+00 0.165016309985D-02 0.167905998720D-06  5 21 2 25 24 1 2 0.15300666D-02 0.41550901D+00 0.16839167D+05 0.16839167D+05 0.16839167D+05 0.12421367D+01  1  2  1  3  5  1       -1 0.855458809450D-01 0.100000000000D+01
  </mgrwgt>
  </event>
  <event>
  4     66 0.45252658E-03 0.10528407E+03 0.75467711E-02 0.12640604E+00
       -1 -1    0    0    0  501 0.00000000E+00 0.00000000E+00 0.19305875E+03 0.19305901E+03 0.32000000E+00 0.0000E+00 0.9000E+01
        2 -1    0    0  501    0 0.00000000E+00 0.00000000E+00 -.57484246E+02 0.57485137E+02 0.32000000E+00 0.0000E+00 0.9000E+01
       25  1    1    2    0    0 0.53925604E+01 -.21963860E+02 0.86005952E+02 0.15340637E+03 0.12500000E+03 0.0000E+00 0.9000E+01
       24  1    1    2    0    0 -.53925604E+01 0.21963860E+02 0.49568547E+02 0.97137777E+02 0.80419002E+02 0.0000E+00 0.9000E+01
#aMCatNLO 1  0  0  1  1 0.56291879D+01 0.00000000D+00  -5  5  0 0.00000000D+00 0.00000000D+00 0.00000000D+00 0.00000000D+00 0.00000000D+00
  <mgrwgt>
 0.2475829907D+00    6    2    0
 0.105346956700019D+03 0.000000000000000D+00 0.000000000000000D+00 0.105346956700019D+03
 0.105346956700019D+03 0.000000000000000D+00 0.000000000000000D+00 -.105346956700019D+03
 0.127079392862619D+03 0.539256035341817D+01 -.219638601780538D+02 0.356107136202789D+01
 0.836145205374183D+02 -.539256035341817D+01 0.219638601780538D+02 -.356107136202789D+01
 0.000000000000000D+00 0.000000000000000D+00 -.000000000000000D+00 -.000000000000000D+00
 0.105822205272246D+03 0.000000000000000D+00 0.000000000000000D+00 0.105822205272246D+03
 0.123485384281704D+03 0.000000000000000D+00 0.000000000000000D+00 -.123485384281704D+03
 0.126662694203356D+03 0.265364710176761D+01 -.199678499259871D+02 0.356107136202789D+01
 0.841064043384149D+02 -.720295400562325D+01 0.232832025441912D+02 -.356107136202789D+01
 0.185384910121792D+02 0.454930690385563D+01 -.331535261820412D+01 -.176631790094577D+02
0.297519165210D-03 0.000000000000D+00 0.000000000000D+00 0.314849439337D-02 0.000000000000D+00  5 -1 2 25 24 21 0 0.29701434D-01 0.88438191D-02 0.11084736D+05 0.11084736D+05 0.11084736D+05 0.12630825D+01  1  2  2  1  5  1       -1 0.244093440586D+00 0.100000000000D+01
-.165288353463D-04 0.000000000000D+00 -.114255193300D-05 0.314849439337D-02 0.000000000000D+00  5 -1 2 25 24 21 2 0.29701434D-01 0.88438191D-02 0.11084736D+05 0.11084736D+05 0.11084736D+05 0.12630825D+01  1  2  3  1  5  1       -1 -.216344981413D-01 0.100000000000D+01
0.205852387645D-04 0.000000000000D+00 0.000000000000D+00 0.314849439337D-02 0.000000000000D+00  5 -1 2 25 24 21 2 0.29701434D-01 0.88438191D-02 0.11084736D+05 0.11084736D+05 0.11084736D+05 0.12630825D+01  1  2 15  1  5  1       -1 0.269439013977D-01 0.100000000000D+01
-.204293298747D-04 0.000000000000D+00 0.000000000000D+00 0.314849439337D-02 0.000000000000D+00  5 -1 2 25 24 21 2 0.29701434D-01 0.88438191D-02 0.11084736D+05 0.11084736D+05 0.11084736D+05 0.12630825D+01  1  2  4  1  5  1       -1 -.267398331427D-01 0.100000000000D+01
0.714263450157D-05 0.000000000000D+00 0.000000000000D+00 0.314849439337D-02 0.852434712502D-03  5 -1 2 25 24 21 2 0.29835426D-01 0.10366530D-01 0.11693481D+05 0.11693481D+05 0.11693481D+05 0.12603433D+01  1  2 11  1  5  1       -1 0.762324161288D-02 0.100000000000D+01
0.138539320067D-05 0.000000000000D+00 0.000000000000D+00 0.314849439337D-02 0.779887438910D-06  5 21 2 25 24 1 2 0.29835426D-01 0.10366530D-01 0.11693481D+05 0.11693481D+05 0.11693481D+05 0.12603433D+01  1  2 11  3  5  1       -1 0.172967383969D-01 0.100000000000D+01
  </mgrwgt>
  </event>
  <event>
  4     66 0.45252658E-03 0.10701052E+03 0.75467711E-02 0.10923845E+00
       -1 -1    0    0    0  501 0.00000000E+00 0.00000000E+00 0.16963030E+02 0.16966048E+02 0.32000000E+00 0.0000E+00 0.9000E+01
        2 -1    0    0  501    0 0.00000000E+00 0.00000000E+00 -.75509979E+03 0.75509986E+03 0.32000000E+00 0.0000E+00 0.9000E+01
       25  1    1    2    0    0 0.15448566E+02 0.24984270E+02 -.31157311E+03 0.33699507E+03 0.12500000E+03 0.0000E+00 0.9000E+01
       24  1    1    2    0    0 -.15448566E+02 -.24984270E+02 -.42656365E+03 0.43507084E+03 0.80419002E+02 0.0000E+00 0.9000E+01
#aMCatNLO 1  0  0  2  1 0.24596379D+03 0.00000000D+00  -5  5  0 0.00000000D+00 0.00000000D+00 0.00000000D+00 0.00000000D+00 0.00000000D+00
  <mgrwgt>
 0.3704960265D+00    5    2    0
 0.113181145353270D+03 0.000000000000000D+00 0.000000000000000D+00 0.113181145353270D+03
 0.113181145353270D+03 0.000000000000000D+00 0.000000000000000D+00 -.113181145353270D+03
 0.133409302651567D+03 0.154485659321295D+02 0.249842698586515D+02 0.361962719661589D+02
 0.929529880549730D+02 -.154485659321295D+02 -.249842698586515D+02 -.361962719661589D+02
 0.000000000000000D+00 -.000000000000000D+00 0.000000000000000D+00 -.000000000000000D+00
 0.254992008748179D+03 0.000000000000000D+00 0.000000000000000D+00 0.254992008748179D+03
 0.339288193361394D+03 0.000000000000000D+00 0.000000000000000D+00 -.339288193361394D+03
 0.177613531186933D+03 0.640226262997979D+02 -.102530481702370D+03 0.361962719661589D+02
 0.156658919016370D+03 0.235346292659053D+02 -.127321451743511D+03 -.361962719661589D+02
 0.260007751906270D+03 -.875572555657032D+02 0.229851933445881D+03 -.842961846132151D+02
0.187951978085D-03 0.000000000000D+00 0.000000000000D+00 0.267566384727D-02 0.000000000000D+00  5 -1 2 25 24 21 0 0.26099343D-02 0.11616944D+00 0.11451252D+05 0.11451252D+05 0.11451252D+05 0.12614136D+01  1  2  2  2  5  2        2 0.352284848055D+00 0.100000000000D+01
-.104018740818D-04 0.000000000000D+00 -.721785084737D-06 0.267566384727D-02 0.000000000000D+00  5 -1 2 25 24 21 2 0.26099343D-02 0.11616944D+00 0.11451252D+05 0.11451252D+05 0.11451252D+05 0.12614136D+01  1  2  3  2  5  2        2 -.310222752270D-01 0.100000000000D+01
0.128480360820D-04 0.000000000000D+00 0.000000000000D+00 0.267566384727D-02 0.000000000000D+00  5 -1 2 25 24 21 2 0.26099343D-02 0.11616944D+00 0.11451252D+05 0.11451252D+05 0.11451252D+05 0.12614136D+01  1  2 15  2  5  2        2 0.383176443329D-01 0.100000000000D+01
0.829607511117D-04 0.000000000000D+00 -.781379270145D-04 0.267566384727D-02 0.000000000000D+00  5 -1 2 25 24 21 2 0.26099343D-02 0.50072761D+00 0.11451252D+05 0.11451252D+05 0.11451252D+05 0.12614136D+01  1  2  5  2  5  2        2 0.107101526113D-01 0.100000000000D+01
0.145098251137D-04 0.000000000000D+00 -.137446235144D-04 0.267566384727D-02 0.000000000000D+00  5 -1 21 25 24 -2 2 0.26099343D-02 0.50072761D+00 0.11451252D+05 0.11451252D+05 0.11451252D+05 0.12614136D+01  1  2  5  4  5  2        2 0.205656716697D-03 0.100000000000D+01
  </mgrwgt>
  </event>
  <event>
  5     66 0.45252658E-03 0.14812719E+03 0.75467711E-02 0.11640986E+00
       -1 -1    0    0    0  501 0.00000000E+00 0.00000000E+00 0.21040173E+02 0.21042606E+02 0.32000000E+00 0.0000E+00 0.9000E+01
        2 -1    0    0  502    0 0.00000000E+00 0.00000000E+00 -.16417882E+04 0.16417883E+04 0.32000000E+00 0.0000E+00 0.9000E+01
       25  1    1    2    0    0 -.15450744E+02 0.85327121E+02 -.60611113E+03 0.62491211E+03 0.12500000E+03 0.0000E+00 0.9000E+01
       24  1    1    2    0    0 -.37486807E+02 -.12227384E+03 -.62708876E+03 0.64502998E+03 0.80419002E+02 0.0000E+00 0.9000E+01
       21  1    1    2  502  501 0.52937551E+02 0.36946714E+02 -.38754818E+03 0.39288879E+03 0.75000000E+00 0.0000E+00 0.9000E+01
#aMCatNLO 2  0  0  2  1 0.64555743D+02 0.00000000D+00  -5  5  0 0.00000000D+00 0.00000000D+00 0.00000000D+00 0.00000000D+00 0.00000000D+00
  <mgrwgt>
 0.2730227437D-01    2    2    0
 0.148158284617908D+03 0.000000000000000D+00 0.000000000000000D+00 0.148158284617908D+03
 0.148158284617908D+03 0.000000000000000D+00 0.000000000000000D+00 -.148158284617908D+03
 0.163610987902856D+03 0.124290963766847D+02 0.104785302777852D+03 0.301881558917480D+01
 0.132705581332960D+03 -.124290963766847D+02 -.104785302777852D+03 -.301881558917480D+01
 0.000000000000000D+00 0.000000000000000D+00 0.000000000000000D+00 -.000000000000000D+00
 0.173672088586381D+03 0.000000000000000D+00 0.000000000000000D+00 0.173672088586381D+03
 0.198908104284326D+03 0.000000000000000D+00 0.000000000000000D+00 -.198908104284326D+03
 0.152162926869161D+03 -.154507435417313D+02 0.853271210684848D+02 0.301881558917480D+01
 0.151104204823708D+03 -.374868070841717D+02 -.122273835337358D+03 -.301881558917480D+01
 0.693130611778380D+02 0.529375506259030D+02 0.369467142688730D+02 -.252360156979450D+02
-.231905512019D-03 0.000000000000D+00 0.000000000000D+00 0.242358442487D-02 0.000000000000D+00  5 -1 2 25 24 21 2 0.27615470D-02 0.26433045D+00 0.33812363D+05 0.33812363D+05 0.33812363D+05 0.12094831D+01  1  2 13  2  5  2        2 -.171146941722D+00 0.100000000000D+01
0.309846389825D-03 0.000000000000D+00 0.000000000000D+00 0.242358442487D-02 0.475434344292D-05  5 -1 2 25 24 21 2 0.32371031D-02 0.25258018D+00 0.33812363D+05 0.33812363D+05 0.33812363D+05 0.12094831D+01  1  2  1  2  5  2        2 0.198449216092D+00 0.100000000000D+01
  </mgrwgt>
  </event>
  <event>
  4     66 0.45252658E-03 0.10098017E+03 0.75467711E-02 0.12488004E+00
       -1 -1    0    0    0  501 0.00000000E+00 0.00000000E+00 0.18114703E+02 0.18117529E+02 0.32000000E+00 0.0000E+00 0.9000E+01
        2 -1    0    0  501    0 0.00000000E+00 0.00000000E+00 -.76557009E+03 0.76557016E+03 0.32000000E+00 0.0000E+00 0.9000E+01
       25  1    1    2    0    0 0.94647902E+01 0.52681694E+02 -.49641792E+03 0.51470447E+03 0.12500000E+03 0.0000E+00 0.9000E+01
       24  1    1    2    0    0 -.94647902E+01 -.52681694E+02 -.25103747E+03 0.26898322E+03 0.80419002E+02 0.0000E+00 0.9000E+01
#aMCatNLO 1  0  0  2  1 0.63419787D+00 0.00000000D+00  -5  5  0 0.00000000D+00 0.00000000D+00 0.00000000D+00 0.00000000D+00 0.00000000D+00
  <mgrwgt>
 0.4732898910D+00   10    2    0
 0.117767603328513D+03 0.000000000000000D+00 0.000000000000000D+00 0.117767603328513D+03
 0.117767603328513D+03 0.000000000000000D+00 0.000000000000000D+00 -.117767603328513D+03
 0.137207975270370D+03 0.946479022606110D+01 0.526816940206653D+02 -.183326304409421D+02
 0.983272313866563D+02 -.946479022606110D+01 -.526816940206653D+02 0.183326304409421D+02
 0.000000000000000D+00 -.000000000000000D+00 -.000000000000000D+00 -.000000000000000D+00
 0.118068203695783D+03 0.000000000000000D+00 0.000000000000000D+00 0.118068203695783D+03
 0.118103008995431D+03 0.000000000000000D+00 0.000000000000000D+00 -.118103008995431D+03
 0.137253217170559D+03 0.983078548249368D+01 0.527324941718271D+02 -.183326304409421D+02
 0.982828432998129D+02 -.920260979150808D+01 -.526453033694946D+02 0.183326304409421D+02
 0.635152220841742D+00 -.628175690985594D+00 -.871908023325814D-01 -.348052996477407D-01
0.840426924699D-04 0.000000000000D+00 0.000000000000D+00 0.276850352651D-02 0.000000000000D+00  5 -1 2 25 24 21 0 0.27870999D-02 0.11778024D+00 0.13523461D+05 0.13523461D+05 0.13523461D+05 0.12529858D+01  1  2  2  2  5  2        2 0.141848341474D+00 0.100000000000D+01
-.466813397835D-05 0.000000000000D+00 -.322746068034D-06 0.276850352651D-02 0.000000000000D+00  5 -1 2 25 24 21 2 0.27870999D-02 0.11778024D+00 0.13523461D+05 0.13523461D+05 0.13523461D+05 0.12529858D+01  1  2  3  2  5  2        2 -.123697221556D-01 0.100000000000D+01
0.580179217857D-05 0.000000000000D+00 0.000000000000D+00 0.276850352651D-02 0.000000000000D+00  5 -1 2 25 24 21 2 0.27870999D-02 0.11778024D+00 0.13523461D+05 0.13523461D+05 0.13523461D+05 0.12529858D+01  1  2 15  2  5  2        2 0.153737141192D-01 0.100000000000D+01
-.265525526061D-02 0.000000000000D+00 0.000000000000D+00 0.276850352651D-02 0.000000000000D+00  5 -1 2 25 24 21 2 0.27870999D-02 0.11778024D+00 0.13523461D+05 0.13523461D+05 0.13523461D+05 0.12529858D+01  1  2  4  2  5  2        2 -.703595269076D+01 0.100000000000D+01
-.269286478892D-01 0.000000000000D+00 -.244700643498D-02 0.276850352651D-02 0.000000000000D+00  5 -1 2 25 24 21 2 0.27870999D-02 0.11835063D+00 0.13523461D+05 0.13523461D+05 0.13523461D+05 0.12529858D+01  1  2  5  2  5  2        2 -.709380646548D+02 0.100000000000D+01
0.269401839939D-01 0.000000000000D+00 0.244697787824D-02 0.276850352651D-02 0.000000000000D+00  5 -1 2 25 24 21 2 0.27870999D-02 0.11778024D+00 0.13523461D+05 0.13523461D+05 0.13523461D+05 0.12529858D+01  1  2  6  2  5  2        2 0.713866809243D+02 0.100000000000D+01
0.265527478084D-02 0.000000000000D+00 0.000000000000D+00 0.276850352651D-02 0.576103291206D-01  5 -1 2 25 24 21 2 0.27942139D-02 0.11811568D+00 0.13597367D+05 0.13597367D+05 0.13597367D+05 0.12527126D+01  1  2 11  2  5  2        2 0.698432232225D+01 0.100000000000D+01
0.109304105357D-12 0.000000000000D+00 0.000000000000D+00 0.276850352651D-02 0.000000000000D+00  5 -1 21 25 24 -2 2 0.27870999D-02 0.11826559D+00 0.13597367D+05 0.13597367D+05 0.13597367D+05 0.12527126D+01  1  2 12  4  5  2        2 0.347575236761D-09 0.100000000000D+01
-.241961364170D-04 0.000000000000D+00 -.220063759670D-05 0.276850352651D-02 0.000000000000D+00  5 -1 21 25 24 -2 2 0.27870999D-02 0.11835063D+00 0.13523461D+05 0.13523461D+05 0.13523461D+05 0.12529858D+01  1  2  5  4  5  2        2 -.768410508344D-01 0.100000000000D+01
0.260951291435D-05 0.000000000000D+00 0.000000000000D+00 0.276850352651D-02 0.306265100638D-04  5 -1 21 25 24 -2 2 0.27942139D-02 0.11811568D+00 0.13597367D+05 0.13597367D+05 0.13597367D+05 0.12527126D+01  1  2 11  4  5  2        2 0.829270705534D-02 0.100000000000D+01
  </mgrwgt>
  </event>
  <event>
  4     66 0.45252658E-03 0.91172219E+02 0.75467711E-02 0.11343205E+00
       -1 -1    0    0    0  501 0.00000000E+00 0.00000000E+00 0.13419287E+03 0.13419325E+03 0.32000000E+00 0.0000E+00 0.9000E+01
        2 -1    0    0  501    0 0.00000000E+00 0.00000000E+00 -.28091456E+03 0.28091474E+03 0.32000000E+00 0.0000E+00 0.9000E+01
       25  1    1    2    0    0 0.13167059E+03 0.87902204E+02 -.12222611E+03 0.23585624E+03 0.12500000E+03 0.0000E+00 0.9000E+01
       24  1    1    2    0    0 -.13167059E+03 -.87902204E+02 -.24495583E+02 0.17925176E+03 0.80419002E+02 0.0000E+00 0.9000E+01
#aMCatNLO 1  0  0  2  1 0.55477752D+02 0.00000000D+00  -5  5  0 0.00000000D+00 0.00000000D+00 0.00000000D+00 0.00000000D+00 0.00000000D+00
  <mgrwgt>
 0.4986283086D+00    9    2    0
 0.194156760543294D+03 0.000000000000000D+00 0.000000000000000D+00 0.194156760543294D+03
 0.194156760543294D+03 0.000000000000000D+00 0.000000000000000D+00 -.194156760543294D+03
 0.205948500398249D+03 0.131670593804432D+03 0.879022035092980D+02 -.415432565127708D+02
 0.182365020688339D+03 -.131670593804432D+03 -.879022035092980D+02 0.415432565127708D+02
 0.000000000000000D+00 0.000000000000000D+00 -.000000000000000D+00 -.000000000000000D+00
 0.219157113008668D+03 0.000000000000000D+00 0.000000000000000D+00 0.219157113008668D+03
 0.229540477006811D+03 0.000000000000000D+00 0.000000000000000D+00 -.229540477006811D+03
 0.200731533209966D+03 0.108715536408806D+03 0.105466764463899D+03 -.415432565127708D+02
 0.191524979338164D+03 -.152774817520827D+03 -.717538481609556D+02 0.415432565127708D+02
 0.564410774673493D+02 0.440592811120215D+02 -.337129163029434D+02 -.103833639981422D+02
0.120879919040D-02 0.000000000000D+00 0.000000000000D+00 0.208706716875D-02 0.000000000000D+00  5 -1 2 25 24 21 0 0.20645100D-01 0.43217668D-01 0.35964307D+05 0.35964307D+05 0.35964307D+05 0.12067191D+01  1  2  2  2  5  2        2 0.305129065563D+00 0.100000000000D+01
-.671103236188D-04 0.000000000000D+00 -.464210717526D-05 0.208706716875D-02 0.000000000000D+00  5 -1 2 25 24 21 2 0.20645100D-01 0.43217668D-01 0.35964307D+05 0.35964307D+05 0.35964307D+05 0.12067191D+01  1  2  3  2  5  2        2 -.246678407414D-01 0.100000000000D+01
0.831056345850D-04 0.000000000000D+00 0.000000000000D+00 0.208706716875D-02 0.000000000000D+00  5 -1 2 25 24 21 2 0.20645100D-01 0.43217668D-01 0.35964307D+05 0.35964307D+05 0.35964307D+05 0.12067191D+01  1  2 15  2  5  2        2 0.305472608105D-01 0.100000000000D+01
0.102187144910D-02 0.000000000000D+00 0.000000000000D+00 0.208706716875D-02 0.000000000000D+00  5 -1 2 25 24 21 2 0.20645100D-01 0.53447726D-01 0.48142620D+05 0.48142620D+05 0.48142620D+05 0.11939134D+01  1  2 12  2  5  2        2 0.293824341863D+00 0.100000000000D+01
-.973913081084D-03 0.000000000000D+00 0.000000000000D+00 0.208706716875D-02 0.000000000000D+00  5 -1 2 25 24 21 2 0.20645100D-01 0.43217668D-01 0.35964307D+05 0.35964307D+05 0.35964307D+05 0.12067191D+01  1  2  4  2  5  2        2 -.357982669204D+00 0.100000000000D+01
-.237594151896D-02 0.000000000000D+00 -.794249969275D-03 0.208706716875D-02 0.000000000000D+00  5 -1 2 25 24 21 2 0.20645100D-01 0.56897504D-01 0.35964307D+05 0.35964307D+05 0.35964307D+05 0.12067191D+01  1  2  5  2  5  2        2 -.650255987490D+00 0.100000000000D+01
0.252730775905D-02 0.000000000000D+00 0.765135063890D-03 0.208706716875D-02 0.000000000000D+00  5 -1 2 25 24 21 2 0.20645100D-01 0.43217668D-01 0.35964307D+05 0.35964307D+05 0.35964307D+05 0.12067191D+01  1  2  6  2  5  2        2 0.928966244581D+00 0.100000000000D+01
0.306215328525D-04 0.000000000000D+00 0.000000000000D+00 0.208706716875D-02 0.000000000000D+00  5 -1 21 25 24 -2 2 0.20645100D-01 0.53447726D-01 0.48142620D+05 0.48142620D+05 0.48142620D+05 0.11939134D+01  1  2 12  4  5  2        2 0.249662761736D-01 0.100000000000D+01
-.706974074305D-04 0.000000000000D+00 -.288246615884D-04 0.208706716875D-02 0.000000000000D+00  5 -1 21 25 24 -2 2 0.20645100D-01 0.56897504D-01 0.35964307D+05 0.35964307D+05 0.35964307D+05 0.12067191D+01  1  2  5  4  5  2        2 -.518983829496D-01 0.100000000000D+01
  </mgrwgt>
  </event>
  <event>
  4     66 0.45252658E-03 0.12483366E+03 0.75467711E-02 0.10249140E+00
       -1 -1    0    0    0  501 0.00000000E+00 0.00000000E+00 0.88254887E+02 0.88255467E+02 0.32000000E+00 0.0000E+00 0.9000E+01
        2 -1    0    0  501    0 0.00000000E+00 0.00000000E+00 -.20712349E+03 0.20712374E+03 0.32000000E+00 0.0000E+00 0.9000E+01
       25  1    1    2    0    0 0.64191681E+02 0.27442997E+02 -.10680391E+02 0.14357145E+03 0.12500000E+03 0.0000E+00 0.9000E+01
       24  1    1    2    0    0 -.64191681E+02 -.27442997E+02 -.10818822E+03 0.15180776E+03 0.80419002E+02 0.0000E+00 0.9000E+01
#aMCatNLO 1  0  0  2  1 0.42594845D+03 0.00000000D+00  -5  5  0 0.00000000D+00 0.00000000D+00 0.00000000D+00 0.00000000D+00 0.00000000D+00
  <mgrwgt>
 0.4001606764D+00    5    2    0
 0.135202746722097D+03 0.000000000000000D+00 0.000000000000000D+00 0.135202746722097D+03
 0.135202746722097D+03 0.000000000000000D+00 0.000000000000000D+00 -.135202746722097D+03
 0.152136174976429D+03 0.641916808593290D+02 0.274429973196738D+02 0.514463384802573D+02
 0.118269318467764D+03 -.641916808593290D+02 -.274429973196738D+02 -.514463384802573D+02
 0.000000000000000D+00 0.000000000000000D+00 -.000000000000000D+00 -.000000000000000D+00
 0.361901635987911D+03 0.000000000000000D+00 0.000000000000000D+00 0.361901635987911D+03
 0.665978892480526D+03 0.000000000000000D+00 0.000000000000000D+00 -.665978892480526D+03
 0.187651666671841D+03 -.121611112252369D+03 0.463913746124869D+02 0.514463384802573D+02
 0.316879018094956D+03 -.302139501355378D+03 -.317681163294297D+01 -.514463384802573D+02
 0.523349843701640D+03 0.423750613607747D+03 -.432145629795439D+02 -.304077256492615D+03
0.511929517987D-03 0.000000000000D+00 0.000000000000D+00 0.222373107620D-02 0.000000000000D+00  5 -1 2 25 24 21 0 0.13577739D-01 0.31865217D-01 0.15583443D+05 0.15583443D+05 0.15583443D+05 0.12459377D+01  1  2  2  2  5  2        2 0.341200365899D+00 0.100000000000D+01
-.282203617364D-04 0.000000000000D+00 -.196594414321D-05 0.222373107620D-02 0.000000000000D+00  5 -1 2 25 24 21 2 0.13577739D-01 0.31865217D-01 0.15583443D+05 0.15583443D+05 0.15583443D+05 0.12459377D+01  1  2  3  2  5  2        2 -.291980972142D-01 0.100000000000D+01
0.352784053378D-04 0.000000000000D+00 0.000000000000D+00 0.222373107620D-02 0.000000000000D+00  5 -1 2 25 24 21 2 0.13577739D-01 0.31865217D-01 0.15583443D+05 0.15583443D+05 0.15583443D+05 0.12459377D+01  1  2 15  2  5  2        2 0.365006770019D-01 0.100000000000D+01
0.933621925741D-03 0.000000000000D+00 -.429595485883D-03 0.222373107620D-02 0.000000000000D+00  5 -1 2 25 24 21 2 0.13577739D-01 0.30808045D+00 0.15583443D+05 0.15583443D+05 0.15583443D+05 0.12459377D+01  1  2  5  2  5  2        2 0.483536466397D-01 0.100000000000D+01
0.186898973712D-03 0.000000000000D+00 -.116402366730D-03 0.222373107620D-02 0.000000000000D+00  5 -1 21 25 24 -2 2 0.13577739D-01 0.30808045D+00 0.15583443D+05 0.15583443D+05 0.15583443D+05 0.12459377D+01  1  2  5  4  5  2        2 0.330408404198D-02 0.100000000000D+01
  </mgrwgt>
  </event>
  <event>
  4     66 0.45252658E-03 0.15981617E+03 0.75467711E-02 0.10827131E+00
       -1 -1    0    0    0  501 0.00000000E+00 0.00000000E+00 0.52043052E+02 0.52044036E+02 0.32000000E+00 0.0000E+00 0.9000E+01
        2 -1    0    0  501    0 0.00000000E+00 0.00000000E+00 -.60338837E+03 0.60338845E+03 0.32000000E+00 0.0000E+00 0.9000E+01
       25  1    1    2    0    0 0.11818610E+03 0.27062231E+02 -.43689127E+03 0.47031829E+03 0.12500000E+03 0.0000E+00 0.9000E+01
       24  1    1    2    0    0 -.11818610E+03 -.27062231E+02 -.11445405E+03 0.18511419E+03 0.80419002E+02 0.0000E+00 0.9000E+01
#aMCatNLO 1  0  0  1  1 0.22174303D+03 0.00000000D+00  -5  5  0 0.00000000D+00 0.00000000D+00 0.00000000D+00 0.00000000D+00 0.00000000D+00
  <mgrwgt>
 0.4318743549D+00    3    2    0
 0.177207568277460D+03 0.000000000000000D+00 0.000000000000000D+00 0.177207568277460D+03
 0.177207568277460D+03 0.000000000000000D+00 0.000000000000000D+00 -.177207568277460D+03
 0.190127140695623D+03 0.118186103327705D+03 0.270622306068670D+02 -.763086514353849D+02
 0.164287995859296D+03 -.118186103327705D+03 -.270622306068670D+02 0.763086514353849D+02
 0.000000000000000D+00 0.000000000000000D+00 -.000000000000000D+00 -.000000000000000D+00
 0.270212286805035D+03 0.000000000000000D+00 0.000000000000000D+00 0.270212286805035D+03
 0.409960996544455D+03 0.000000000000000D+00 0.000000000000000D+00 -.409960996544455D+03
 0.178969931446660D+03 0.375393754412136D+02 0.957758913799226D+02 -.763086514353849D+02
 0.239097123265642D+03 -.206324678219972D+03 0.480347298636418D+02 0.763086514353849D+02
 0.262106228637188D+03 0.168785302778758D+03 -.143810621243564D+03 -.139748709739420D+03
0.883775439397D-03 0.000000000000D+00 0.000000000000D+00 0.185525732293D-02 0.000000000000D+00  5 -1 2 25 24 21 0 0.80067056D-02 0.92829062D-01 0.25541207D+05 0.25541207D+05 0.25541207D+05 0.12223017D+01  1  2  2  1  5  1       -1 0.423060012209D+00 0.100000000000D+01
-.484616480048D-04 0.000000000000D+00 -.339393039070D-05 0.185525732293D-02 0.000000000000D+00  5 -1 2 25 24 21 2 0.80067056D-02 0.92829062D-01 0.25541207D+05 0.25541207D+05 0.25541207D+05 0.12223017D+01  1  2  3  1  5  1       -1 -.346589210711D-01 0.100000000000D+01
0.607862547500D-04 0.000000000000D+00 0.000000000000D+00 0.185525732293D-02 0.000000000000D+00  5 -1 2 25 24 21 2 0.80067056D-02 0.92829062D-01 0.25541207D+05 0.25541207D+05 0.25541207D+05 0.12223017D+01  1  2 15  1  5  1       -1 0.434732637524D-01 0.100000000000D+01
  </mgrwgt>
  </event>
  <event>
  4     66 0.45252658E-03 0.80616600E+02 0.75467711E-02 0.11633548E+00
       -1 -1    0    0    0  501 0.00000000E+00 0.00000000E+00 0.69885846E+02 0.69886579E+02 0.32000000E+00 0.0000E+00 0.9000E+01
        2 -1    0    0  501    0 0.00000000E+00 0.00000000E+00 -.47161645E+03 0.47161656E+03 0.32000000E+00 0.0000E+00 0.9000E+01
       25  1    1    2    0    0 0.13660607E+03 0.56990659E+01 -.12812976E+03 0.22524638E+03 0.12500000E+03 0.0000E+00 0.9000E+01
       24  1    1    2    0    0 -.13660607E+03 -.56990659E+01 -.27360084E+03 0.31625676E+03 0.80419002E+02 0.0000E+00 0.9000E+01
#aMCatNLO 1  0  0  2  1 0.24786275D+02 0.00000000D+00  -5  5  0 0.00000000D+00 0.00000000D+00 0.00000000D+00 0.00000000D+00 0.00000000D+00
  <mgrwgt>
 0.5580660212D+00    6    2    0
 0.181547631817784D+03 0.000000000000000D+00 0.000000000000000D+00 0.181547631817784D+03
 0.181547631817784D+03 0.000000000000000D+00 0.000000000000000D+00 -.181547631817784D+03
 0.194158349944392D+03 0.136606069710938D+03 0.569906587012944D+01 0.581271642131910D+02
 0.168936913691175D+03 -.136606069710938D+03 -.569906587012944D+01 -.581271642131910D+02
 0.000000000000000D+00 -.000000000000000D+00 0.000000000000000D+00 0.000000000000000D+00
 0.197024203175547D+03 0.000000000000000D+00 0.000000000000000D+00 0.197024203175547D+03
 0.192172694962455D+03 0.000000000000000D+00 0.000000000000000D+00 -.192172694962455D+03
 0.203523874180524D+03 0.149710591968437D+03 0.222233985759929D+01 0.581271642131910D+02
 0.160416409282930D+03 -.125753138174980D+03 -.857842832545918D+01 -.581271642131910D+02
 0.252566146745482D+02 -.239574537934574D+02 0.635608846785989D+01 0.485150821309139D+01
0.897975491937D-03 0.000000000000D+00 0.000000000000D+00 0.201270952000D-02 0.000000000000D+00  5 -1 2 25 24 21 0 0.10751733D-01 0.72556442D-01 0.29562501D+05 0.29562501D+05 0.29562501D+05 0.12155686D+01  1  2  2  2  5  2        2 0.362113788426D+00 0.100000000000D+01
-.497081098857D-04 0.000000000000D+00 -.344846233141D-05 0.201270952000D-02 0.000000000000D+00  5 -1 2 25 24 21 2 0.10751733D-01 0.72556442D-01 0.29562501D+05 0.29562501D+05 0.29562501D+05 0.12155686D+01  1  2  3  2  5  2        2 -.296187523753D-01 0.100000000000D+01
0.617828106552D-04 0.000000000000D+00 0.000000000000D+00 0.201270952000D-02 0.000000000000D+00  5 -1 2 25 24 21 2 0.10751733D-01 0.72556442D-01 0.29562501D+05 0.29562501D+05 0.29562501D+05 0.12155686D+01  1  2 15  2  5  2        2 0.368135053627D-01 0.100000000000D+01
0.125020555233D-02 0.000000000000D+00 0.000000000000D+00 0.201270952000D-02 0.000000000000D+00  5 -1 2 25 24 21 2 0.10751733D-01 0.79686395D-01 0.34104426D+05 0.34104426D+05 0.34104426D+05 0.12090967D+01  1  2 12  2  5  2        2 0.666166490079D+00 0.100000000000D+01
-.833099443189D-03 0.000000000000D+00 0.000000000000D+00 0.201270952000D-02 0.000000000000D+00  5 -1 2 25 24 21 2 0.10751733D-01 0.72556442D-01 0.29562501D+05 0.29562501D+05 0.29562501D+05 0.12155686D+01  1  2  4  2  5  2        2 -.496405237870D+00 0.100000000000D+01
0.191975389271D-04 0.000000000000D+00 0.000000000000D+00 0.201270952000D-02 0.000000000000D+00  5 -1 21 25 24 -2 2 0.10751733D-01 0.79686395D-01 0.34104426D+05 0.34104426D+05 0.34104426D+05 0.12090967D+01  1  2 12  4  5  2        2 0.189962275936D-01 0.100000000000D+01
  </mgrwgt>
  </event>
  <event>
  5     66 -.45252658E-03 0.13402945E+03 0.75467711E-02 0.12056873E+00
       -1 -1    0    0    0  501 0.00000000E+00 0.00000000E+00 0.10773825E+03 0.10773872E+03 0.32000000E+00 0.0000E+00 0.9000E+01
        2 -1    0    0  502    0 0.00000000E+00 0.00000000E+00 -.23415620E+03 0.23415642E+03 0.32000000E+00 0.0000E+00 0.9000E+01
       25  1    1    2    0    0 -.79957722E+02 -.38210732E+00 -.12718202E+03 0.19543195E+03 0.12500000E+03 0.0000E+00 0.9000E+01
       24  1    1    2    0    0 0.87433369E+02 0.21640324E+02 0.11868782E+02 0.12133005E+03 0.80419002E+02 0.0000E+00 0.9000E+01
       21  1    1    2  502  501 -.74756468E+01 -.21258217E+02 -.11104717E+02 0.25133132E+02 0.75000000E+00 0.0000E+00 0.9000E+01
#aMCatNLO 2  0  0  2  1 0.22534353D+02 0.00000000D+00  -5  5  0 0.00000000D+00 0.00000000D+00 0.00000000D+00 0.00000000D+00 0.00000000D+00
  <mgrwgt>
 -.1110706789D+00    2    2    0
 0.147082655149392D+03 0.000000000000000D+00 0.000000000000000D+00 0.147082655149392D+03
 0.147082655149392D+03 0.000000000000000D+00 0.000000000000000D+00 -.147082655149392D+03
 0.162648365525520D+03 -.840529879127177D+02 -.120276610222461D+02 -.601657826459661D+02
 0.131516944773264D+03 0.840529879127177D+02 0.120276610222461D+02 0.601657826459661D+02
 0.000000000000000D+00 -.000000000000000D+00 -.000000000000000D+00 -.000000000000000D+00
 0.157779903053307D+03 0.000000000000000D+00 0.000000000000000D+00 0.157779903053307D+03
 0.159879185562040D+03 0.000000000000000D+00 0.000000000000000D+00 -.159879185562040D+03
 0.160119657575874D+03 -.799577221712076D+02 -.382107321893235D+00 -.601657826459661D+02
 0.134907505338119D+03 0.874333690073438D+02 0.216403240458208D+02 0.601657826459661D+02
 0.226319257013533D+02 -.747564683613614D+01 -.212582167239275D+02 -.209928250873314D+01
-.714605279872D-03 0.000000000000D+00 0.000000000000D+00 0.206296301347D-02 0.000000000000D+00  5 -1 2 25 24 21 2 0.15450791D-01 0.37133459D-01 0.21267617D+05 0.21267617D+05 0.21267617D+05 0.12308986D+01  1  2 13  2  5  2        2 -.505115088035D+00 0.100000000000D+01
0.602839113524D-03 0.000000000000D+00 0.000000000000D+00 0.206296301347D-02 0.330356476790D-04  5 -1 2 25 24 21 2 0.16574520D-01 0.36022674D-01 0.21267617D+05 0.21267617D+05 0.21267617D+05 0.12308986D+01  1  2  1  2  5  2        2 0.394044409176D+00 0.100000000000D+01
  </mgrwgt>
  </event>
  <event>
  5     66 0.45252658E-03 0.15885745E+03 0.75467711E-02 0.11292537E+00
       21 -1    0    0  502  501 0.00000000E+00 0.00000000E+00 0.68628434E+02 0.68632532E+02 0.75000000E+00 0.0000E+00 0.9000E+01
        2 -1    0    0  501    0 0.00000000E+00 0.00000000E+00 -.20134749E+04 0.20134750E+04 0.32000000E+00 0.0000E+00 0.9000E+01
       25  1    1    2    0    0 -.12480188E+03 0.47251192E+02 -.91537182E+03 0.93345528E+03 0.12500000E+03 0.0000E+00 0.9000E+01
       24  1    1    2    0    0 0.11424716E+03 0.67081834E+02 -.10218972E+04 0.10335828E+04 0.80419002E+02 0.0000E+00 0.9000E+01
        1  1    1    2  502    0 0.10554725E+02 -.11433303E+03 -.75774934E+01 0.11506939E+03 0.32000000E+00 0.0000E+00 0.9000E+01
#aMCatNLO 2  0  0  1  2 0.11481918D+03 0.00000000D+00  -5  5  0 0.00000000D+00 0.00000000D+00 0.00000000D+00 0.00000000D+00 0.00000000D+00
  <mgrwgt>
 0.5521822504D+00    2    2    0
 0.160502535049907D+03 0.000000000000000D+00 0.000000000000000D+00 0.160502535049907D+03
 0.160502535049907D+03 0.000000000000000D+00 0.000000000000000D+00 -.160502535049907D+03
 0.174766770880796D+03 -.119076924154957D+03 -.147638369348817D+02 0.228284790745074D+02
 0.146238299219018D+03 0.119076924154957D+03 0.147638369348817D+02 -.228284790745074D+02
 0.000000000000000D+00 0.000000000000000D+00 -.000000000000000D+00 0.000000000000000D+00
 0.785970394173496D+03 0.000000000000000D+00 0.000000000000000D+00 0.785970394173496D+03
 0.175815605068290D+03 0.000000000000000D+00 0.000000000000000D+00 -.175815605068290D+03
 0.184266990898606D+03 -.124801880261820D+03 0.472511921657667D+02 0.228284790745074D+02
 0.156654844736490D+03 0.114247155651793D+03 0.670818335591907D+02 -.228284790745074D+02
 0.620864163606690D+03 0.105547246100267D+02 -.114333025724957D+03 0.610154789105206D+03
-.895103612947D-04 0.000000000000D+00 0.000000000000D+00 0.229088187691D-02 0.000000000000D+00  5 21 2 25 24 1 2 0.10114815D-01 0.28278586D+00 0.51222823D+05 0.51222823D+05 0.51222823D+05 0.11912439D+01  1  2 13  3  5  1       -1 -.116509068272D+00 0.100000000000D+01
0.684582403288D-03 0.000000000000D+00 0.000000000000D+00 0.229088187691D-02 0.735798359717D-06  5 21 2 25 24 1 2 0.10558535D-01 0.30976562D+00 0.51222823D+05 0.51222823D+05 0.51222823D+05 0.11912439D+01  1  2  1  3  5  1       -1 0.668691318630D+00 0.100000000000D+01
  </mgrwgt>
  </event>
  <event>
  4     66 -.45252658E-03 0.11496488E+03 0.75467711E-02 0.11247958E+00
       -3 -1    0    0    0  501 0.00000000E+00 0.00000000E+00 0.59951624E+02 0.59953709E+02 0.50000000E+00 0.0000E+00 0.9000E+01
        4 -1    0    0  501    0 0.00000000E+00 0.00000000E+00 -.89062037E+03 0.89062172E+03 0.15500000E+01 0.0000E+00 0.9000E+01
       25  1    1    2    0    0 -.16852267E+03 0.11675999E+03 -.47504605E+03 0.53228426E+03 0.12500000E+03 0.0000E+00 0.9000E+01
       24  1    1    2    0    0 0.16852267E+03 -.11675999E+03 -.35562269E+03 0.41829117E+03 0.80419002E+02 0.0000E+00 0.9000E+01
#aMCatNLO 1  0  0  1  2 0.49062605D+01 0.00000000D+00  -5  5  0 0.00000000D+00 0.00000000D+00 0.00000000D+00 0.00000000D+00 0.00000000D+00
  <mgrwgt>
 -.1136831756D-01   11    2    0
 0.231075247069248D+03 0.000000000000000D+00 0.000000000000000D+00 0.231075247069248D+03
 0.231075247069248D+03 0.000000000000000D+00 0.000000000000000D+00 -.231075247069248D+03
 0.240983041350308D+03 -.168522666546631D+03 0.116759986924804D+03 -.203725926621327D+02
 0.221167452788187D+03 0.168522666546631D+03 -.116759986924804D+03 0.203725926621327D+02
 0.000000000000000D+00 0.000000000000000D+00 -.000000000000000D+00 0.000000000000000D+00
 0.233543455988607D+03 0.000000000000000D+00 0.000000000000000D+00 0.233543455988607D+03
 0.233539342437620D+03 0.000000000000000D+00 0.000000000000000D+00 -.233539342437620D+03
 0.242980822798007D+03 -.171048909242152D+03 0.117225886061438D+03 -.203725926621327D+02
 0.219195713413487D+03 0.166224015109191D+03 -.116336061020130D+03 0.203725926621327D+02
 0.490626221473402D+01 0.482489413296150D+01 -.889825041307986D+00 0.411355098705384D-02
0.122492519858D-02 0.000000000000D+00 0.000000000000D+00 0.207636939295D-02 0.000000000000D+00  5 -3 4 25 24 21 0 0.92235910D-02 0.13701878D+00 0.52979957D+05 0.52979957D+05 0.52979957D+05 0.11897998D+01  1  2  2  1  5  1       -3 0.870721152259D-02 0.100000000000D+01
-.680501356682D-04 0.000000000000D+00 -.470403529276D-05 0.207636939295D-02 0.000000000000D+00  5 -3 4 25 24 21 2 0.92235910D-02 0.13701878D+00 0.52979957D+05 0.52979957D+05 0.52979957D+05 0.11897998D+01  1  2  3  1  5  1       -3 -.684772531638D-03 0.100000000000D+01
0.837924200635D-04 0.000000000000D+00 0.000000000000D+00 0.207636939295D-02 0.000000000000D+00  5 -3 4 25 24 21 2 0.92235910D-02 0.13701878D+00 0.52979957D+05 0.52979957D+05 0.52979957D+05 0.11897998D+01  1  2 15  1  5  1       -3 0.843183441966D-03 0.100000000000D+01
0.211023493967D-03 0.000000000000D+00 0.000000000000D+00 0.207636939295D-02 0.000000000000D+00  5 -3 4 25 24 21 2 0.93707682D-02 0.13701878D+00 0.54121005D+05 0.54121005D+05 0.54121005D+05 0.11888903D+01  1  2 12  1  5  1       -3 0.206731274857D-02 0.100000000000D+01
-.447100549008D-02 0.000000000000D+00 0.000000000000D+00 0.207636939295D-02 0.000000000000D+00  5 -3 4 25 24 21 2 0.92235910D-02 0.13701878D+00 0.52979957D+05 0.52979957D+05 0.52979957D+05 0.11897998D+01  1  2  4  1  5  1       -3 -.449906780986D-01 0.100000000000D+01
-.536473041320D-01 0.000000000000D+00 -.671886535832D-02 0.207636939295D-02 0.000000000000D+00  5 -3 4 25 24 21 2 0.94234812D-02 0.13701878D+00 0.52979957D+05 0.52979957D+05 0.52979957D+05 0.11897998D+01  1  2  5  1  5  1       -3 -.520934480515D+00 0.100000000000D+01
0.537805401341D-01 0.000000000000D+00 0.671732139127D-02 0.207636939295D-02 0.000000000000D+00  5 -3 4 25 24 21 2 0.92235910D-02 0.13701878D+00 0.52979957D+05 0.52979957D+05 0.52979957D+05 0.11897998D+01  1  2  6  1  5  1       -3 0.541180943416D+00 0.100000000000D+01
0.431171080814D-02 0.000000000000D+00 0.000000000000D+00 0.207636939295D-02 0.650285236905D-03  5 -3 4 25 24 21 2 0.93221119D-02 0.13847990D+00 0.54121005D+05 0.54121005D+05 0.54121005D+05 0.11888903D+01  1  2 11  1  5  1       -3 0.414790852031D-01 0.100000000000D+01
0.926083226778D-05 0.000000000000D+00 0.000000000000D+00 0.207636939295D-02 0.000000000000D+00  5 21 4 25 24 3 2 0.93707682D-02 0.13701878D+00 0.54121005D+05 0.54121005D+05 0.54121005D+05 0.11888903D+01  1  2 12  3  5  1       -3 0.200801779338D-02 0.100000000000D+01
-.207764803478D-03 0.000000000000D+00 -.261619594032D-04 0.207636939295D-02 0.000000000000D+00  5 21 4 25 24 3 2 0.94234812D-02 0.13701878D+00 0.52979957D+05 0.52979957D+05 0.52979957D+05 0.11897998D+01  1  2  5  3  5  1       -3 -.446667008125D-01 0.100000000000D+01
0.170043932478D-04 0.000000000000D+00 0.000000000000D+00 0.207636939295D-02 0.128388323696D-05  5 21 4 25 24 3 2 0.93221119D-02 0.13847990D+00 0.54121005D+05 0.54121005D+05 0.54121005D+05 0.11888903D+01  1  2 11  3  5  1       -3 0.362256026992D-02 0.100000000000D+01
  </mgrwgt>
  </event>
</LesHouchesEvents>
