<event>
 5    0  0.1911311E+001  0.3120720E+03  0.7546771E-02  0.1079357E+00
         21   -1    0    0  502  501  0.00000000000E+00  0.00000000000E+00  0.21754595128E+03  0.21754595128E+03  0.00000000000E+00 0.  1.
         21   -1    0    0  504  502 -0.00000000000E+00 -0.00000000000E+00 -0.11527877454E+04  0.11527877454E+04  0.00000000000E+00 0.  1.
         25    1    1    2    0    0 -0.26705464851E+02 -0.28731587228E+03 -0.25144055233E+03  0.40263003325E+03  0.12500000000E+03 0.  0.
         21    1    1    2  503  501  0.76605309232E+00  0.28515273292E+03 -0.17532388705E+01  0.28515915166E+03  0.00000000000E+00 0.  1.
         21    1    1    2  504  503  0.25939411759E+02  0.21631393584E+01 -0.68204800291E+03  0.68254451176E+03  0.00000000000E+00 0. -1.
<mgrwt>
<rscale>  4 0.31207198E+03</rscale>
<asrwt>0</asrwt>
<pdfrwt beam="1">  1       21 0.33468608E-01 0.31207198E+03</pdfrwt>
<pdfrwt beam="2">  1       21 0.17735196E+00 0.31207198E+03</pdfrwt>
<totfact> 0.14802855E+03</totfact>
</mgrwt>
</event>
<event>
 5    0  0.1911311E+001  0.1803945E+03  0.7546771E-02  0.1167422E+00
         21   -1    0    0  502  501  0.00000000000E+00  0.00000000000E+00  0.38363354806E+03  0.38363354806E+03  0.00000000000E+00 0.  1.
         21   -1    0    0  504  502 -0.00000000000E+00 -0.00000000000E+00 -0.30445486383E+03  0.30445486383E+03  0.00000000000E+00 0.  1.
         25    1    1    2    0    0 -0.10314825376E+03 -0.17395489307E+03 -0.13955930976E+03  0.27568400030E+03  0.12500000000E+03 0.  0.
         21    1    1    2  503  501  0.53771775779E+02  0.11340959461E+03  0.28406932853E+03  0.31056162581E+03  0.00000000000E+00 0.  1.
         21    1    1    2  504  503  0.49376477983E+02  0.60545298465E+02 -0.65331334534E+02  0.10184278578E+03  0.00000000000E+00 0.  1.
<mgrwt>
<rscale>  4 0.18039446E+03</rscale>
<asrwt>0</asrwt>
<pdfrwt beam="1">  1       21 0.59020546E-01 0.18039446E+03</pdfrwt>
<pdfrwt beam="2">  1       21 0.46839210E-01 0.18039446E+03</pdfrwt>
<totfact> 0.11809196E+04</totfact>
</mgrwt>
</event>
<event>
 5    0  0.2034524E+001  0.2616226E+03  0.7546771E-02  0.1106172E+00
         21   -1    0    0  502  501  0.00000000000E+00  0.00000000000E+00  0.10900391198E+03  0.10900391198E+03  0.00000000000E+00 0. -1.
         21   -1    0    0  504  502 -0.00000000000E+00 -0.00000000000E+00 -0.14442147192E+04  0.14442147192E+04  0.00000000000E+00 0.  1.
         25    1    1    2    0    0 -0.11665926553E+03 -0.17032855694E+03 -0.12549997408E+03  0.27202287594E+03  0.12500000000E+03 0.  0.
         21    1    1    2  503  501  0.11198374303E+02 -0.38123186118E+02  0.86299217108E+01  0.40660256462E+02  0.00000000000E+00 0.  1.
         21    1    1    2  504  503  0.10546089123E+03  0.20845174306E+03 -0.12183407549E+04  0.12405354988E+04  0.00000000000E+00 0.  1.
<mgrwt>
<rscale>  4 0.26162255E+03</rscale>
<asrwt>0</asrwt>
<pdfrwt beam="1">  1       21 0.16769834E-01 0.26162255E+03</pdfrwt>
<pdfrwt beam="2">  1       21 0.22218686E+00 0.26162255E+03</pdfrwt>
<totfact> 0.29324613E+03</totfact>
</mgrwt>
</event>
<event>
 5    0  0.2307805E+001  0.3985414E+03  0.7546771E-02  0.1044286E+00
         21   -1    0    0  503  501  0.00000000000E+00  0.00000000000E+00  0.24097862460E+03  0.24097862460E+03  0.00000000000E+00 0. -1.
         21   -1    0    0  501  502 -0.00000000000E+00 -0.00000000000E+00 -0.82165195349E+03  0.82165195349E+03  0.00000000000E+00 0. -1.
         25    1    1    2    0    0 -0.25928218307E+03  0.27382393833E+03 -0.44147675625E+03  0.59391373614E+03  0.12500000000E+03 0.  0.
         21    1    1    2  503  504  0.23917225400E+03 -0.29696487736E+03 -0.17671827420E+03  0.42026283907E+03  0.00000000000E+00 0. -1.
         21    1    1    2  504  502  0.20109929062E+02  0.23140939025E+02  0.37521701567E+02  0.48454002872E+02  0.00000000000E+00 0.  1.
<mgrwt>
<rscale>  4 0.39854140E+03</rscale>
<asrwt>0</asrwt>
<pdfrwt beam="1">  1       21 0.37073634E-01 0.39854140E+03</pdfrwt>
<pdfrwt beam="2">  1       21 0.12640799E+00 0.39854140E+03</pdfrwt>
<totfact> 0.28744516E+03</totfact>
</mgrwt>
</event>
