<event>
 5    0  0.1257040E+001  0.2219042E+03  0.7546771E-02  0.1132471E+00
         21   -1    0    0  502  501  0.00000000000E+00  0.00000000000E+00  0.33838666175E+03  0.33838666175E+03  0.00000000000E+00 0.  1.
         21   -1    0    0  504  502 -0.00000000000E+00 -0.00000000000E+00 -0.18988924933E+03  0.18988924933E+03  0.00000000000E+00 0.  1.
         25    1    1    2    0    0 -0.19785149712E+03  0.38256025097E+02  0.16448344739E+03  0.28859754475E+03  0.12500000000E+03 0.  0.
         21    1    1    2  503  501  0.23222484038E+02 -0.24884961528E+01  0.45478188399E+02  0.51124768929E+02  0.00000000000E+00 0. -1.
         21    1    1    2  504  503  0.17462901308E+03 -0.35767528944E+02 -0.61464223373E+02  0.18855359740E+03  0.00000000000E+00 0.  1.
<mgrwt>
<rscale>  4 0.22190416E+03</rscale>
<asrwt>0</asrwt>
<pdfrwt beam="1">  1       21 0.52059486E-01 0.22190416E+03</pdfrwt>
<pdfrwt beam="2">  1       21 0.29213731E-01 0.22190416E+03</pdfrwt>
<totfact> 0.38723422E+04</totfact>
</mgrwt>
</event>
<event>
 5    0  0.1257040E+001  0.2589727E+03  0.7546771E-02  0.1107762E+00
         21   -1    0    0  502  501  0.00000000000E+00  0.00000000000E+00  0.29691188177E+03  0.29691188177E+03  0.00000000000E+00 0. -1.
         21   -1    0    0  504  502 -0.00000000000E+00 -0.00000000000E+00 -0.42573022559E+03  0.42573022559E+03  0.00000000000E+00 0. -1.
         25    1    1    2    0    0 -0.12347768517E+01 -0.24568531925E+03 -0.23861875069E+03  0.36459115314E+03  0.12500000000E+03 0.  0.
         21    1    1    2  503  501  0.55714081834E+02  0.21736079130E+03  0.16256899817E+03  0.27708924857E+03  0.00000000000E+00 0. -1.
         21    1    1    2  504  503 -0.54479304982E+02  0.28324527950E+02 -0.52768591288E+02  0.80961705648E+02  0.00000000000E+00 0.  1.
<mgrwt>
<rscale>  4 0.25897268E+03</rscale>
<asrwt>0</asrwt>
<pdfrwt beam="1">  1       21 0.45678751E-01 0.25897268E+03</pdfrwt>
<pdfrwt beam="2">  1       21 0.65496957E-01 0.25897268E+03</pdfrwt>
<totfact> 0.94547349E+03</totfact>
</mgrwt>
</event>
<event>
 5    0  0.1257040E+001  0.2590315E+03  0.7546771E-02  0.1107727E+00
         21   -1    0    0  502  501  0.00000000000E+00  0.00000000000E+00  0.40254106493E+03  0.40254106493E+03  0.00000000000E+00 0.  1.
         21   -1    0    0  504  502 -0.00000000000E+00 -0.00000000000E+00 -0.46497705949E+03  0.46497705949E+03  0.00000000000E+00 0.  1.
         25    1    1    2    0    0 -0.96850595641E+02 -0.19829937883E+03  0.25852312893E+03  0.36216279449E+03  0.12500000000E+03 0.  0.
         21    1    1    2  503  501 -0.31520030424E+02  0.10208346675E+02  0.55932738049E+02  0.65009182778E+02  0.00000000000E+00 0. -1.
         21    1    1    2  504  503  0.12837062606E+03  0.18809103215E+03 -0.37689186155E+03  0.44034614715E+03  0.00000000000E+00 0.  1.
<mgrwt>
<rscale>  4 0.25903146E+03</rscale>
<asrwt>0</asrwt>
<pdfrwt beam="1">  1       21 0.61929395E-01 0.25903146E+03</pdfrwt>
<pdfrwt beam="2">  1       21 0.71534932E-01 0.25903146E+03</pdfrwt>
<totfact> 0.40779392E+03</totfact>
</mgrwt>
</event>
<event>
 5    0  0.1257040E+001  0.2669310E+03  0.7546771E-02  0.1103049E+00
         21   -1    0    0  503  501  0.00000000000E+00  0.00000000000E+00  0.88644884609E+02  0.88644884609E+02  0.00000000000E+00 0.  1.
         21   -1    0    0  504  502 -0.00000000000E+00 -0.00000000000E+00 -0.12055556859E+04  0.12055556859E+04  0.00000000000E+00 0.  1.
         25    1    1    2    0    0 -0.79652592745E+02  0.19424415963E+03 -0.50720713393E+03  0.56299147932E+03  0.12500000000E+03 0.  0.
         21    1    1    2  503  502  0.85690958781E+02 -0.24563435506E+03 -0.62522348385E+03  0.67718799573E+03  0.00000000000E+00 0.  1.
         21    1    1    2  504  501 -0.60383660367E+01  0.51390195426E+02  0.15519816491E+02  0.54021095455E+02  0.00000000000E+00 0.  1.
<mgrwt>
<rscale>  4 0.26693095E+03</rscale>
<asrwt>0</asrwt>
<pdfrwt beam="1">  1       21 0.13637674E-01 0.26693095E+03</pdfrwt>
<pdfrwt beam="2">  1       21 0.18547011E+00 0.26693095E+03</pdfrwt>
<totfact> 0.73776419E+03</totfact>
</mgrwt>
</event>
<event>
 5    0  0.1257040E+001  0.2408301E+03  0.7546771E-02  0.1119241E+00
         21   -1    0    0  502  501  0.00000000000E+00  0.00000000000E+00  0.45084733918E+03  0.45084733918E+03  0.00000000000E+00 0.  1.
         21   -1    0    0  504  502 -0.00000000000E+00 -0.00000000000E+00 -0.86113124528E+03  0.86113124528E+03  0.00000000000E+00 0. -1.
         25    1    1    2    0    0  0.12407907443E+03 -0.20750283298E+03  0.32876632893E+03  0.42680831932E+03  0.12500000000E+03 0.  0.
         21    1    1    2  503  501 -0.62475017733E+02  0.12171262152E+02  0.42955076902E+02  0.76788059585E+02  0.00000000000E+00 0.  1.
         21    1    1    2  504  503 -0.61604056696E+02  0.19533157082E+03 -0.78200531194E+03  0.80838220556E+03  0.00000000000E+00 0. -1.
<mgrwt>
<rscale>  4 0.24083009E+03</rscale>
<asrwt>0</asrwt>
<pdfrwt beam="1">  1       21 0.69361130E-01 0.24083009E+03</pdfrwt>
<pdfrwt beam="2">  1       21 0.13248173E+00 0.24083009E+03</pdfrwt>
<totfact> 0.74346152E+02</totfact>
</mgrwt>
</event>
<event>
 5    0  0.1257040E+001  0.2755705E+03  0.7546771E-02  0.1098133E+00
         21   -1    0    0  502  501  0.00000000000E+00  0.00000000000E+00  0.76669735821E+03  0.76669735821E+03  0.00000000000E+00 0. -1.
         21   -1    0    0  504  502 -0.00000000000E+00 -0.00000000000E+00 -0.79725416243E+03  0.79725416243E+03  0.00000000000E+00 0. -1.
         25    1    1    2    0    0 -0.23439737972E+03 -0.15122335143E+03  0.61508073947E+03  0.68684783592E+03  0.12500000000E+03 0.  0.
         21    1    1    2  503  501  0.26591434428E+02  0.22242741215E+02  0.92880546267E+02  0.99139496653E+02  0.00000000000E+00 0. -1.
         21    1    1    2  504  503  0.20780594529E+03  0.12898061022E+03 -0.73851808996E+03  0.77796418806E+03  0.00000000000E+00 0. -1.
<mgrwt>
<rscale>  4 0.27557046E+03</rscale>
<asrwt>0</asrwt>
<pdfrwt beam="1">  1       21 0.11795344E+00 0.27557046E+03</pdfrwt>
<pdfrwt beam="2">  1       21 0.12265449E+00 0.27557046E+03</pdfrwt>
<totfact> 0.25309114E+02</totfact>
</mgrwt>
</event>
<event>
 5    0  0.1257040E+001  0.2940008E+03  0.7546771E-02  0.1088279E+00
         21   -1    0    0  503  501  0.00000000000E+00  0.00000000000E+00  0.80582931267E+03  0.80582931267E+03  0.00000000000E+00 0.  1.
         21   -1    0    0  504  502 -0.00000000000E+00 -0.00000000000E+00 -0.34419170229E+03  0.34419170229E+03  0.00000000000E+00 0.  1.
         25    1    1    2    0    0 -0.15091628771E+03 -0.24041595405E+03  0.65817100815E+03  0.72759166627E+03  0.12500000000E+03 0.  0.
         21    1    1    2  503  502  0.14756779491E+03  0.21969574444E+03 -0.25057253061E+03  0.36445722289E+03  0.00000000000E+00 0.  1.
         21    1    1    2  504  501  0.33484927911E+01  0.20720209610E+02  0.54039132847E+02  0.57972125794E+02  0.00000000000E+00 0. -1.
<mgrwt>
<rscale>  4 0.29400077E+03</rscale>
<asrwt>0</asrwt>
<pdfrwt beam="1">  1       21 0.12397374E+00 0.29400077E+03</pdfrwt>
<pdfrwt beam="2">  1       21 0.52952570E-01 0.29400077E+03</pdfrwt>
<totfact> 0.15195658E+03</totfact>
</mgrwt>
</event>
<event>
 5    0  0.1257040E+001  0.3251331E+03  0.7546771E-02  0.1073311E+00
         21   -1    0    0  504  501  0.00000000000E+00  0.00000000000E+00  0.11113626496E+04  0.11113626496E+04  0.00000000000E+00 0. -1.
         21   -1    0    0  503  502 -0.00000000000E+00 -0.00000000000E+00 -0.13691111023E+03  0.13691111023E+03  0.00000000000E+00 0. -1.
         25    1    1    2    0    0  0.11331558949E+03 -0.24986619360E+03  0.78958630987E+03  0.84518937420E+03  0.12500000000E+03 0.  0.
         21    1    1    2  503  501 -0.13224986012E+03  0.27731760077E+03  0.11941587133E+03  0.32962892398E+03  0.00000000000E+00 0. -1.
         21    1    1    2  504  502  0.18934270631E+02 -0.27451407173E+02  0.65449358131E+02  0.73455461607E+02  0.00000000000E+00 0. -1.
<mgrwt>
<rscale>  4 0.32513313E+03</rscale>
<asrwt>0</asrwt>
<pdfrwt beam="1">  1       21 0.17097886E+00 0.32513313E+03</pdfrwt>
<pdfrwt beam="2">  1       21 0.21063248E-01 0.32513313E+03</pdfrwt>
<totfact> 0.40132097E+03</totfact>
</mgrwt>
</event>
<event>
 5    0  0.1257040E+001  0.4268533E+03  0.7546771E-02  0.1034859E+00
         21   -1    0    0  502  501  0.00000000000E+00  0.00000000000E+00  0.23118467454E+03  0.23118467454E+03  0.00000000000E+00 0. -1.
         21   -1    0    0  504  502 -0.00000000000E+00 -0.00000000000E+00 -0.29048092509E+04  0.29048092509E+04  0.00000000000E+00 0.  1.
         25    1    1    2    0    0 -0.18949332689E+03 -0.41490795532E+03 -0.25336438966E+04  0.25774081413E+04  0.12500000000E+03 0.  0.
         21    1    1    2  503  501  0.12224928919E+03  0.38563243906E+03 -0.45493886759E+01  0.40457133327E+03  0.00000000000E+00 0. -1.
         21    1    1    2  504  503  0.67244037701E+02  0.29275516255E+02 -0.13543129115E+03  0.15401445088E+03  0.00000000000E+00 0.  1.
<mgrwt>
<rscale>  4 0.42685331E+03</rscale>
<asrwt>0</asrwt>
<pdfrwt beam="1">  1       21 0.35566873E-01 0.42685331E+03</pdfrwt>
<pdfrwt beam="2">  1       21 0.44689373E+00 0.42685331E+03</pdfrwt>
<totfact> 0.24705665E+01</totfact>
</mgrwt>
</event>
<event>
 5    0  0.1257040E+001  0.2443845E+03  0.7546771E-02  0.1116906E+00
         21   -1    0    0  503  501  0.00000000000E+00  0.00000000000E+00  0.41511425520E+03  0.41511425520E+03  0.00000000000E+00 0.  1.
         21   -1    0    0  504  502 -0.00000000000E+00 -0.00000000000E+00 -0.26268342065E+03  0.26268342065E+03  0.00000000000E+00 0.  1.
         25    1    1    2    0    0  0.17969183881E+03  0.13923470219E+03  0.14890501450E+03  0.29912064886E+03  0.12500000000E+03 0.  0.
         21    1    1    2  503  502 -0.16554154390E+03 -0.12198232815E+03 -0.13001493935E+03  0.24328496787E+03  0.00000000000E+00 0.  1.
         21    1    1    2  504  501 -0.14150294913E+02 -0.17252374036E+02  0.13354075939E+03  0.13539205913E+03  0.00000000000E+00 0. -1.
<mgrwt>
<rscale>  4 0.24438446E+03</rscale>
<asrwt>0</asrwt>
<pdfrwt beam="1">  1       21 0.63863732E-01 0.24438446E+03</pdfrwt>
<pdfrwt beam="2">  1       21 0.40412834E-01 0.24438446E+03</pdfrwt>
<totfact> 0.12951024E+04</totfact>
</mgrwt>
</event>
<event>
 5    0  0.1257040E+001  0.2452177E+03  0.7546771E-02  0.1116365E+00
         21   -1    0    0  502  501  0.00000000000E+00  0.00000000000E+00  0.11022754431E+03  0.11022754431E+03  0.00000000000E+00 0.  1.
         21   -1    0    0  504  502 -0.00000000000E+00 -0.00000000000E+00 -0.12026452121E+04  0.12026452121E+04  0.00000000000E+00 0.  1.
         25    1    1    2    0    0  0.34439903993E+02  0.22406815217E+03 -0.72144352759E+03  0.76648444688E+03  0.12500000000E+03 0.  0.
         21    1    1    2  503  501 -0.10333729217E+03 -0.18321618187E+03 -0.50867095427E+02  0.21641216844E+03  0.00000000000E+00 0.  1.
         21    1    1    2  504  503  0.68897388176E+02 -0.40851970295E+02 -0.32010704473E+03  0.32997614105E+03  0.00000000000E+00 0.  1.
<mgrwt>
<rscale>  4 0.24521770E+03</rscale>
<asrwt>0</asrwt>
<pdfrwt beam="1">  1       21 0.16958083E-01 0.24521770E+03</pdfrwt>
<pdfrwt beam="2">  1       21 0.18502235E+00 0.24521770E+03</pdfrwt>
<totfact> 0.50538597E+03</totfact>
</mgrwt>
</event>
<event>
 5    0  0.1257040E+001  0.2701775E+03  0.7546771E-02  0.1101178E+00
         21   -1    0    0  502  501  0.00000000000E+00  0.00000000000E+00  0.63754593798E+03  0.63754593798E+03  0.00000000000E+00 0. -1.
         21   -1    0    0  504  502 -0.00000000000E+00 -0.00000000000E+00 -0.20051750202E+03  0.20051750202E+03  0.00000000000E+00 0. -1.
         25    1    1    2    0    0  0.82743396570E+02 -0.29608592135E+03  0.15874883982E+03  0.36788522210E+03  0.12500000000E+03 0.  0.
         21    1    1    2  503  501 -0.13814433394E+03  0.95844441567E+02  0.15446544451E+03  0.22831904766E+03  0.00000000000E+00 0. -1.
         21    1    1    2  504  503  0.55400937366E+02  0.20024147978E+03  0.12381415161E+03  0.24185917023E+03  0.00000000000E+00 0. -1.
<mgrwt>
<rscale>  4 0.27017752E+03</rscale>
<asrwt>0</asrwt>
<pdfrwt beam="1">  1       21 0.98083990E-01 0.27017752E+03</pdfrwt>
<pdfrwt beam="2">  1       21 0.30848847E-01 0.27017752E+03</pdfrwt>
<totfact> 0.82587671E+03</totfact>
</mgrwt>
</event>
<event>
 5    0  0.1257040E+001  0.3265503E+03  0.7546771E-02  0.1072674E+00
         21   -1    0    0  502  501  0.00000000000E+00  0.00000000000E+00  0.30521943127E+03  0.30521943127E+03  0.00000000000E+00 0.  1.
         21   -1    0    0  504  502 -0.00000000000E+00 -0.00000000000E+00 -0.49742472720E+03  0.49742472720E+03  0.00000000000E+00 0.  1.
         25    1    1    2    0    0 -0.18376388025E+03  0.23925080371E+03  0.13490429510E+03  0.35331894882E+03  0.12500000000E+03 0.  0.
         21    1    1    2  503  501  0.32775952817E+01 -0.35703094212E+02 -0.42725035940E+02  0.55775283623E+02  0.00000000000E+00 0. -1.
         21    1    1    2  504  503  0.18048628497E+03 -0.20354770950E+03 -0.28438455509E+03  0.39354992603E+03  0.00000000000E+00 0.  1.
<mgrwt>
<rscale>  4 0.32655032E+03</rscale>
<asrwt>0</asrwt>
<pdfrwt beam="1">  1       21 0.46956836E-01 0.32655032E+03</pdfrwt>
<pdfrwt beam="2">  1       21 0.76526881E-01 0.32655032E+03</pdfrwt>
<totfact> 0.61004535E+03</totfact>
</mgrwt>
</event>
<event>
 5    0  0.1257040E+001  0.3059565E+03  0.7546771E-02  0.1082300E+00
         21   -1    0    0  504  501  0.00000000000E+00  0.00000000000E+00  0.16664133346E+03  0.16664133346E+03  0.00000000000E+00 0.  1.
         21   -1    0    0  503  502 -0.00000000000E+00 -0.00000000000E+00 -0.15693930392E+04  0.15693930392E+04  0.00000000000E+00 0.  1.
         25    1    1    2    0    0  0.29948173251E+02  0.27609242870E+03 -0.12831325316E+04  0.13187789867E+04  0.12500000000E+03 0.  0.
         21    1    1    2  503  501 -0.67399631767E+02  0.19837538261E+02 -0.94712940154E+02  0.11792700844E+03  0.00000000000E+00 0.  1.
         21    1    1    2  504  502  0.37451458516E+02 -0.29592996696E+03 -0.24906234034E+02  0.29932837751E+03  0.00000000000E+00 0.  1.
<mgrwt>
<rscale>  4 0.30595647E+03</rscale>
<asrwt>0</asrwt>
<pdfrwt beam="1">  1       21 0.25637127E-01 0.30595647E+03</pdfrwt>
<pdfrwt beam="2">  1       21 0.24144510E+00 0.30595647E+03</pdfrwt>
<totfact> 0.96739012E+02</totfact>
</mgrwt>
</event>
<event>
 5    0  0.1257040E+001  0.3639456E+03  0.7546771E-02  0.1057032E+00
         21   -1    0    0  502  501  0.00000000000E+00  0.00000000000E+00  0.67104805732E+03  0.67104805732E+03  0.00000000000E+00 0. -1.
         21   -1    0    0  504  502 -0.00000000000E+00 -0.00000000000E+00 -0.21382332390E+03  0.21382332390E+03  0.00000000000E+00 0. -1.
         25    1    1    2    0    0 -0.29624897076E+03  0.17742313686E+03  0.28028429531E+03  0.46198128573E+03  0.12500000000E+03 0.  0.
         21    1    1    2  503  501  0.27250517606E+03 -0.20129275746E+03  0.18799580005E+03  0.38745356628E+03  0.00000000000E+00 0. -1.
         21    1    1    2  504  503  0.23743794704E+02  0.23869620604E+02 -0.11055361947E+02  0.35436529211E+02  0.00000000000E+00 0.  1.
<mgrwt>
<rscale>  4 0.36394558E+03</rscale>
<asrwt>0</asrwt>
<pdfrwt beam="1">  1       21 0.10323816E+00 0.36394558E+03</pdfrwt>
<pdfrwt beam="2">  1       21 0.32895896E-01 0.36394558E+03</pdfrwt>
<totfact> 0.61515286E+03</totfact>
</mgrwt>
</event>
<event>
 5    0  0.1257040E+001  0.3288996E+03  0.7546771E-02  0.1071625E+00
         21   -1    0    0  502  501  0.00000000000E+00  0.00000000000E+00  0.10441469342E+03  0.10441469342E+03  0.00000000000E+00 0. -1.
         21   -1    0    0  504  502 -0.00000000000E+00 -0.00000000000E+00 -0.12497074513E+04  0.12497074513E+04  0.00000000000E+00 0.  1.
         25    1    1    2    0    0 -0.33799591381E+02  0.31452896542E+03 -0.35717088473E+03  0.49322096810E+03  0.12500000000E+03 0.  0.
         21    1    1    2  503  501  0.18270592894E+02 -0.15517020852E+02 -0.79618480946E+01  0.25258335770E+02  0.00000000000E+00 0. -1.
         21    1    1    2  504  503  0.15528998488E+02 -0.29901194457E+03 -0.78016002503E+03  0.83564284084E+03  0.00000000000E+00 0.  1.
<mgrwt>
<rscale>  4 0.32889963E+03</rscale>
<asrwt>0</asrwt>
<pdfrwt beam="1">  1       21 0.16063800E-01 0.32889963E+03</pdfrwt>
<pdfrwt beam="2">  1       21 0.19226268E+00 0.32889963E+03</pdfrwt>
<totfact> 0.47412644E+03</totfact>
</mgrwt>
</event>
<event>
 5    0  0.1257040E+001  0.2342599E+03  0.7546771E-02  0.1123677E+00
         21   -1    0    0  502  501  0.00000000000E+00  0.00000000000E+00  0.52191878752E+03  0.52191878752E+03  0.00000000000E+00 0.  1.
         21   -1    0    0  504  502 -0.00000000000E+00 -0.00000000000E+00 -0.13024681485E+03  0.13024681485E+03  0.00000000000E+00 0.  1.
         25    1    1    2    0    0 -0.11875130090E+03 -0.18141918878E+03  0.31024414279E+03  0.39861161756E+03  0.12500000000E+03 0.  0.
         21    1    1    2  503  501  0.69835872088E+01  0.24944829471E+02  0.53239338779E+02  0.59206774961E+02  0.00000000000E+00 0. -1.
         21    1    1    2  504  503  0.11176771369E+03  0.15647435931E+03  0.28188491103E+02  0.19434720985E+03  0.00000000000E+00 0.  1.
<mgrwt>
<rscale>  4 0.23425994E+03</rscale>
<asrwt>0</asrwt>
<pdfrwt beam="1">  1       21 0.80295197E-01 0.23425994E+03</pdfrwt>
<pdfrwt beam="2">  1       21 0.20037972E-01 0.23425994E+03</pdfrwt>
<totfact> 0.30694658E+04</totfact>
</mgrwt>
</event>
<event>
 5    0  0.1257040E+001  0.3429433E+03  0.7546771E-02  0.1065549E+00
         21   -1    0    0  502  501  0.00000000000E+00  0.00000000000E+00  0.17003008687E+03  0.17003008687E+03  0.00000000000E+00 0. -1.
         21   -1    0    0  504  502 -0.00000000000E+00 -0.00000000000E+00 -0.11568459701E+04  0.11568459701E+04  0.00000000000E+00 0. -1.
         25    1    1    2    0    0  0.28776045328E+02 -0.38053480614E+03 -0.29031093506E+03  0.49552016960E+03  0.12500000000E+03 0.  0.
         21    1    1    2  503  501  0.21140027191E+02  0.27096092282E+03 -0.25131450945E+03  0.37016983279E+03  0.00000000000E+00 0. -1.
         21    1    1    2  504  503 -0.49916072520E+02  0.10957388332E+03 -0.44519043869E+03  0.46118605454E+03  0.00000000000E+00 0. -1.
<mgrwt>
<rscale>  4 0.34294333E+03</rscale>
<asrwt>0</asrwt>
<pdfrwt beam="1">  1       21 0.26158476E-01 0.34294333E+03</pdfrwt>
<pdfrwt beam="2">  1       21 0.17797630E+00 0.34294333E+03</pdfrwt>
<totfact> 0.23382139E+03</totfact>
</mgrwt>
</event>
<event>
 5    0  0.1257040E+001  0.2032548E+03  0.7546771E-02  0.1147022E+00
         21   -1    0    0  503  501  0.00000000000E+00  0.00000000000E+00  0.66042981431E+02  0.66042981431E+02  0.00000000000E+00 0.  1.
         21   -1    0    0  504  502 -0.00000000000E+00 -0.00000000000E+00 -0.11894249007E+04  0.11894249007E+04  0.00000000000E+00 0.  1.
         25    1    1    2    0    0  0.19460270780E+03 -0.75785638845E+02 -0.27788377248E+03  0.36940231178E+03  0.12500000000E+03 0.  0.
         21    1    1    2  503  502 -0.11731469638E+03  0.98758468077E+02 -0.72526384744E+03  0.74129860475E+03  0.00000000000E+00 0.  1.
         21    1    1    2  504  501 -0.77288011418E+02 -0.22972829231E+02 -0.12023429940E+03  0.14476696565E+03  0.00000000000E+00 0. -1.
<mgrwt>
<rscale>  4 0.20325485E+03</rscale>
<asrwt>0</asrwt>
<pdfrwt beam="1">  1       21 0.10160458E-01 0.20325485E+03</pdfrwt>
<pdfrwt beam="2">  1       21 0.18298845E+00 0.20325485E+03</pdfrwt>
<totfact> 0.13590656E+04</totfact>
</mgrwt>
</event>
<event>
 5    0  0.1257040E+001  0.2414844E+03  0.7546771E-02  0.1118808E+00
         21   -1    0    0  502  501  0.00000000000E+00  0.00000000000E+00  0.41656729054E+03  0.41656729054E+03  0.00000000000E+00 0. -1.
         21   -1    0    0  504  502 -0.00000000000E+00 -0.00000000000E+00 -0.17166806687E+03  0.17166806687E+03  0.00000000000E+00 0. -1.
         25    1    1    2    0    0 -0.30310702125E+02 -0.22711210009E+03  0.49320435940E+02  0.26562407660E+03  0.12500000000E+03 0.  0.
         21    1    1    2  503  501  0.38346390140E+02  0.19470298858E+03  0.20753769425E+03  0.28714385582E+03  0.00000000000E+00 0. -1.
         21    1    1    2  504  503 -0.80356880150E+01  0.32409111507E+02 -0.11958906513E+02  0.35467424992E+02  0.00000000000E+00 0.  1.
<mgrwt>
<rscale>  4 0.24148443E+03</rscale>
<asrwt>0</asrwt>
<pdfrwt beam="1">  1       21 0.64087275E-01 0.24148443E+03</pdfrwt>
<pdfrwt beam="2">  1       21 0.26410472E-01 0.24148443E+03</pdfrwt>
<totfact> 0.29888560E+04</totfact>
</mgrwt>
</event>
<event>
 5    0  0.1257040E+001  0.2792314E+03  0.7546771E-02  0.1096109E+00
         21   -1    0    0  503  501  0.00000000000E+00  0.00000000000E+00  0.33608734753E+03  0.33608734753E+03  0.00000000000E+00 0.  1.
         21   -1    0    0  504  502 -0.00000000000E+00 -0.00000000000E+00 -0.55829685098E+03  0.55829685098E+03  0.00000000000E+00 0. -1.
         25    1    1    2    0    0 -0.73251795129E+02 -0.24181579157E+03  0.22541355186E+03  0.36093901410E+03  0.12500000000E+03 0.  0.
         21    1    1    2  503  502  0.94841974032E+02  0.21057410607E+03 -0.43657135242E+03  0.49389371320E+03  0.00000000000E+00 0. -1.
         21    1    1    2  504  501 -0.21590178903E+02  0.31241685498E+02 -0.11051702904E+02  0.39551471210E+02  0.00000000000E+00 0.  1.
<mgrwt>
<rscale>  4 0.27923144E+03</rscale>
<asrwt>0</asrwt>
<pdfrwt beam="1">  1       21 0.51705746E-01 0.27923144E+03</pdfrwt>
<pdfrwt beam="2">  1       21 0.85891822E-01 0.27923144E+03</pdfrwt>
<totfact> 0.39150341E+03</totfact>
</mgrwt>
</event>
<event>
 5    0  0.1257040E+001  0.2639726E+03  0.7546771E-02  0.1104780E+00
         21   -1    0    0  504  501  0.00000000000E+00  0.00000000000E+00  0.68800282881E+03  0.68800282881E+03  0.00000000000E+00 0.  1.
         21   -1    0    0  503  502 -0.00000000000E+00 -0.00000000000E+00 -0.17607203974E+03  0.17607203974E+03  0.00000000000E+00 0.  1.
         25    1    1    2    0    0  0.22214170251E+03  0.21402395617E+02 -0.64329114942E+01  0.25587375966E+03  0.12500000000E+03 0.  0.
         21    1    1    2  503  501  0.11294682807E+02 -0.50876933863E+02  0.17758026843E+02  0.55057967420E+02  0.00000000000E+00 0.  1.
         21    1    1    2  504  502 -0.23343638532E+03  0.29474538246E+02  0.50060567372E+03  0.55314314147E+03  0.00000000000E+00 0.  1.
<mgrwt>
<rscale>  4 0.26397260E+03</rscale>
<asrwt>0</asrwt>
<pdfrwt beam="1">  1       21 0.10584659E+00 0.26397260E+03</pdfrwt>
<pdfrwt beam="2">  1       21 0.27088006E-01 0.26397260E+03</pdfrwt>
<totfact> 0.88954086E+03</totfact>
</mgrwt>
</event>
<event>
 5    0  0.1257040E+001  0.3053565E+03  0.7546771E-02  0.1082593E+00
         21   -1    0    0  503  501  0.00000000000E+00  0.00000000000E+00  0.81385293300E+03  0.81385293300E+03  0.00000000000E+00 0.  1.
         21   -1    0    0  504  502 -0.00000000000E+00 -0.00000000000E+00 -0.20603283757E+03  0.20603283757E+03  0.00000000000E+00 0.  1.
         25    1    1    2    0    0 -0.21507946752E+03  0.97201244778E+02  0.59583628132E+03  0.65295722177E+03  0.12500000000E+03 0.  0.
         21    1    1    2  503  502  0.25853689573E+03 -0.12458828069E+03 -0.44679518090E+02  0.29044762949E+03  0.00000000000E+00 0.  1.
         21    1    1    2  504  501 -0.43457428212E+02  0.27387035910E+02  0.56663332204E+02  0.76480919315E+02  0.00000000000E+00 0. -1.
<mgrwt>
<rscale>  4 0.30535654E+03</rscale>
<asrwt>0</asrwt>
<pdfrwt beam="1">  1       21 0.12520814E+00 0.30535654E+03</pdfrwt>
<pdfrwt beam="2">  1       21 0.31697360E-01 0.30535654E+03</pdfrwt>
<totfact> 0.42154782E+03</totfact>
</mgrwt>
</event>
<event>
 5    0  0.1257040E+001  0.5958964E+03  0.7546771E-02  0.9913956E-01
         21   -1    0    0  503  501  0.00000000000E+00  0.00000000000E+00  0.10884484471E+04  0.10884484471E+04  0.00000000000E+00 0. -1.
         21   -1    0    0  504  502 -0.00000000000E+00 -0.00000000000E+00 -0.38007055406E+03  0.38007055406E+03  0.00000000000E+00 0. -1.
         25    1    1    2    0    0  0.54524214186E+03 -0.20537409091E+03  0.75701327211E+02  0.60068560946E+03  0.12500000000E+03 0.  0.
         21    1    1    2  503  502 -0.13166066326E+02  0.28250550289E+02  0.18905709745E+02  0.36453597286E+02  0.00000000000E+00 0. -1.
         21    1    1    2  504  501 -0.53207607553E+03  0.17712354062E+03  0.61377085611E+03  0.83137979444E+03  0.00000000000E+00 0. -1.
<mgrwt>
<rscale>  4 0.59589639E+03</rscale>
<asrwt>0</asrwt>
<pdfrwt beam="1">  1       21 0.16745361E+00 0.59589639E+03</pdfrwt>
<pdfrwt beam="2">  1       21 0.58472393E-01 0.59589639E+03</pdfrwt>
<totfact> 0.47657479E+02</totfact>
</mgrwt>
</event>
<event>
 5    0  0.1257040E+001  0.3459049E+03  0.7546771E-02  0.1064308E+00
         21   -1    0    0  502  501  0.00000000000E+00  0.00000000000E+00  0.12079818687E+03  0.12079818687E+03  0.00000000000E+00 0. -1.
         21   -1    0    0  504  502 -0.00000000000E+00 -0.00000000000E+00 -0.20268444545E+04  0.20268444545E+04  0.00000000000E+00 0. -1.
         25    1    1    2    0    0  0.31959877663E+03  0.86599075365E+02 -0.15287974116E+04  0.15692320745E+04  0.12500000000E+03 0.  0.
         21    1    1    2  503  501 -0.31605596004E+03 -0.57591329323E+02 -0.15943849243E+03  0.35864852427E+03  0.00000000000E+00 0. -1.
         21    1    1    2  504  503 -0.35428165862E+01 -0.29007746042E+02 -0.21781036361E+03  0.21976204262E+03  0.00000000000E+00 0. -1.
<mgrwt>
<rscale>  4 0.34590491E+03</rscale>
<asrwt>0</asrwt>
<pdfrwt beam="1">  1       21 0.18584337E-01 0.34590491E+03</pdfrwt>
<pdfrwt beam="2">  1       21 0.31182221E+00 0.34590491E+03</pdfrwt>
<totfact> 0.65900128E+02</totfact>
</mgrwt>
</event>
<event>
 5    0  0.1257040E+001  0.2759777E+03  0.7546771E-02  0.1097906E+00
         21   -1    0    0  502  501  0.00000000000E+00  0.00000000000E+00  0.21382703028E+03  0.21382703028E+03  0.00000000000E+00 0.  1.
         21   -1    0    0  504  502 -0.00000000000E+00 -0.00000000000E+00 -0.78953525562E+03  0.78953525562E+03  0.00000000000E+00 0.  1.
         25    1    1    2    0    0 -0.11387485760E+03 -0.21794669112E+03 -0.89939241400E+02  0.29014187996E+03  0.12500000000E+03 0.  0.
         21    1    1    2  503  501 -0.97353663022E+02  0.78487182652E+02  0.38670641500E+02  0.13089458376E+03  0.00000000000E+00 0. -1.
         21    1    1    2  504  503  0.21122852063E+03  0.13945950847E+03 -0.52443962544E+03  0.58232582217E+03  0.00000000000E+00 0.  1.
<mgrwt>
<rscale>  4 0.27597766E+03</rscale>
<asrwt>0</asrwt>
<pdfrwt beam="1">  1       21 0.32896467E-01 0.27597766E+03</pdfrwt>
<pdfrwt beam="2">  1       21 0.12146696E+00 0.27597766E+03</pdfrwt>
<totfact> 0.42979637E+03</totfact>
</mgrwt>
</event>
<event>
 5    0  0.1257040E+001  0.2591859E+03  0.7546771E-02  0.1107633E+00
         21   -1    0    0  503  501  0.00000000000E+00  0.00000000000E+00  0.54254958311E+03  0.54254958311E+03  0.00000000000E+00 0. -1.
         21   -1    0    0  504  502 -0.00000000000E+00 -0.00000000000E+00 -0.28449867764E+03  0.28449867764E+03  0.00000000000E+00 0. -1.
         25    1    1    2    0    0  0.93028245407E+02 -0.17935265587E+03 -0.17487190612E+03  0.29500307314E+03  0.12500000000E+03 0.  0.
         21    1    1    2  503  502  0.12778900142E+02 -0.24893702539E+02 -0.12566728600E+02  0.30674409247E+02  0.00000000000E+00 0. -1.
         21    1    1    2  504  501 -0.10580714555E+03  0.20424635840E+03  0.44548954020E+03  0.50137077836E+03  0.00000000000E+00 0. -1.
<mgrwt>
<rscale>  4 0.25918589E+03</rscale>
<asrwt>0</asrwt>
<pdfrwt beam="1">  1       21 0.83469166E-01 0.25918589E+03</pdfrwt>
<pdfrwt beam="2">  1       21 0.43769028E-01 0.25918589E+03</pdfrwt>
<totfact> 0.59911312E+03</totfact>
</mgrwt>
</event>
<event>
 5    0  0.1257040E+001  0.2168354E+03  0.7546771E-02  0.1136265E+00
         21   -1    0    0  502  501  0.00000000000E+00  0.00000000000E+00  0.15199229596E+03  0.15199229596E+03  0.00000000000E+00 0.  1.
         21   -1    0    0  504  502 -0.00000000000E+00 -0.00000000000E+00 -0.46361490149E+03  0.46361490149E+03  0.00000000000E+00 0.  1.
         25    1    1    2    0    0  0.14637048193E+03 -0.14046425509E+03 -0.48460465843E+02  0.24316237720E+03  0.12500000000E+03 0.  0.
         21    1    1    2  503  501 -0.15921804435E+01  0.48608858045E+02  0.10264287975E+02  0.49706254401E+02  0.00000000000E+00 0.  1.
         21    1    1    2  504  503 -0.14477830148E+03  0.91855397042E+02 -0.27342642766E+03  0.32273856586E+03  0.00000000000E+00 0.  1.
<mgrwt>
<rscale>  4 0.21683536E+03</rscale>
<asrwt>0</asrwt>
<pdfrwt beam="1">  1       21 0.23383430E-01 0.21683536E+03</pdfrwt>
<pdfrwt beam="2">  1       21 0.71325369E-01 0.21683536E+03</pdfrwt>
<totfact> 0.30180024E+04</totfact>
</mgrwt>
</event>
<event>
 5    0  0.1257040E+001  0.2951142E+03  0.7546771E-02  0.1087709E+00
         21   -1    0    0  502  501  0.00000000000E+00  0.00000000000E+00  0.50992422577E+03  0.50992422577E+03  0.00000000000E+00 0. -1.
         21   -1    0    0  504  502 -0.00000000000E+00 -0.00000000000E+00 -0.22465502512E+03  0.22465502512E+03  0.00000000000E+00 0. -1.
         25    1    1    2    0    0  0.14067675799E+03  0.21951200712E+03 -0.27226588575E+02  0.29041652610E+03  0.12500000000E+03 0.  0.
         21    1    1    2  503  501 -0.59118118452E+00  0.27306864770E+02  0.52930028176E+02  0.59561751497E+02  0.00000000000E+00 0. -1.
         21    1    1    2  504  503 -0.14008557680E+03 -0.24681887189E+03  0.25956576104E+03  0.38460097329E+03  0.00000000000E+00 0. -1.
<mgrwt>
<rscale>  4 0.29511416E+03</rscale>
<asrwt>0</asrwt>
<pdfrwt beam="1">  1       21 0.78449881E-01 0.29511416E+03</pdfrwt>
<pdfrwt beam="2">  1       21 0.34562312E-01 0.29511416E+03</pdfrwt>
<totfact> 0.10947831E+04</totfact>
</mgrwt>
</event>
<event>
 5    0  0.1257040E+001  0.3102664E+03  0.7546771E-02  0.1080218E+00
         21   -1    0    0  503  501  0.00000000000E+00  0.00000000000E+00  0.18850268951E+04  0.18850268951E+04  0.00000000000E+00 0. -1.
         21   -1    0    0  504  502 -0.00000000000E+00 -0.00000000000E+00 -0.30967976516E+04  0.30967976516E+04  0.00000000000E+00 0.  1.
         25    1    1    2    0    0 -0.18246086925E+03 -0.28765320391E+03 -0.34967624101E+03  0.50391944600E+03  0.12500000000E+03 0.  0.
         21    1    1    2  503  502  0.43503825244E+02  0.41671154562E+02 -0.26586193993E+04  0.26593018216E+04  0.00000000000E+00 0.  1.
         21    1    1    2  504  501  0.13895704400E+03  0.24598204935E+03  0.17965248838E+04  0.18186032791E+04  0.00000000000E+00 0. -1.
<mgrwt>
<rscale>  4 0.31026642E+03</rscale>
<asrwt>0</asrwt>
<pdfrwt beam="1">  1       21 0.29000414E+00 0.31026642E+03</pdfrwt>
<pdfrwt beam="2">  1       21 0.47643040E+00 0.31026642E+03</pdfrwt>
<totfact> 0.81522787E-02</totfact>
</mgrwt>
</event>
<event>
 5    0  0.1257040E+001  0.3117253E+03  0.7546771E-02  0.1079522E+00
         21   -1    0    0  504  501  0.00000000000E+00  0.00000000000E+00  0.92267989370E+02  0.92267989370E+02  0.00000000000E+00 0. -1.
         21   -1    0    0  503  502 -0.00000000000E+00 -0.00000000000E+00 -0.12163430305E+04  0.12163430305E+04  0.00000000000E+00 0. -1.
         25    1    1    2    0    0  0.24405736107E+03 -0.14826888609E+03 -0.80472482277E+03  0.86299171401E+03  0.12500000000E+03 0.  0.
         21    1    1    2  503  501 -0.16369827466E+03  0.41715057281E+02 -0.22853280570E+03  0.28419098229E+03  0.00000000000E+00 0. -1.
         21    1    1    2  504  502 -0.80359086404E+02  0.10655382881E+03 -0.90817412610E+02  0.16142832352E+03  0.00000000000E+00 0. -1.
<mgrwt>
<rscale>  4 0.31172529E+03</rscale>
<asrwt>0</asrwt>
<pdfrwt beam="1">  1       21 0.14195076E-01 0.31172529E+03</pdfrwt>
<pdfrwt beam="2">  1       21 0.18712969E+00 0.31172529E+03</pdfrwt>
<totfact> 0.65097929E+03</totfact>
</mgrwt>
</event>
<event>
 5    0  0.1257040E+001  0.3469127E+03  0.7546771E-02  0.1063889E+00
         21   -1    0    0  503  501  0.00000000000E+00  0.00000000000E+00  0.10241519889E+04  0.10241519889E+04  0.00000000000E+00 0.  1.
         21   -1    0    0  504  502 -0.00000000000E+00 -0.00000000000E+00 -0.12792660879E+03  0.12792660879E+03  0.00000000000E+00 0. -1.
         25    1    1    2    0    0 -0.30680987901E+03 -0.81358676281E+02  0.28300705473E+03  0.44324883428E+03  0.12500000000E+03 0.  0.
         21    1    1    2  503  502 -0.41292466032E+01 -0.19806538161E+02  0.97285820830E+01  0.22449831643E+02  0.00000000000E+00 0.  1.
         21    1    1    2  504  501  0.31093912562E+03  0.10116521444E+03  0.60348974325E+03  0.68637993172E+03  0.00000000000E+00 0.  1.
<mgrwt>
<rscale>  4 0.34691268E+03</rscale>
<asrwt>0</asrwt>
<pdfrwt beam="1">  1       21 0.15756184E+00 0.34691268E+03</pdfrwt>
<pdfrwt beam="2">  1       21 0.19681017E-01 0.34691268E+03</pdfrwt>
<totfact> 0.56666574E+03</totfact>
</mgrwt>
</event>
<event>
 5    0  0.1257040E+001  0.3614101E+03  0.7546771E-02  0.1058027E+00
         21   -1    0    0  504  501  0.00000000000E+00  0.00000000000E+00  0.38487117462E+03  0.38487117462E+03  0.00000000000E+00 0. -1.
         21   -1    0    0  503  502 -0.00000000000E+00 -0.00000000000E+00 -0.16109956160E+04  0.16109956160E+04  0.00000000000E+00 0.  1.
         25    1    1    2    0    0  0.31016405710E+03  0.89341536716E+02 -0.14531518861E+04  0.14938069007E+04  0.12500000000E+03 0.  0.
         21    1    1    2  503  501  0.11523091774E+02  0.20768142298E+02 -0.55255117066E+02  0.60143373205E+02  0.00000000000E+00 0. -1.
         21    1    1    2  504  502 -0.32168714887E+03 -0.11010967901E+03  0.28228256171E+03  0.44191651679E+03  0.00000000000E+00 0. -1.
<mgrwt>
<rscale>  4 0.36141013E+03</rscale>
<asrwt>0</asrwt>
<pdfrwt beam="1">  1       21 0.59210949E-01 0.36141013E+03</pdfrwt>
<pdfrwt beam="2">  1       21 0.24784548E+00 0.36141013E+03</pdfrwt>
<totfact> 0.15322658E+02</totfact>
</mgrwt>
</event>
<event>
 5    0  0.1257040E+001  0.1847736E+03  0.7546771E-02  0.1163261E+00
         21   -1    0    0  502  501  0.00000000000E+00  0.00000000000E+00  0.15303966886E+03  0.15303966886E+03  0.00000000000E+00 0.  1.
         21   -1    0    0  504  502 -0.00000000000E+00 -0.00000000000E+00 -0.14676501751E+04  0.14676501751E+04  0.00000000000E+00 0.  1.
         25    1    1    2    0    0 -0.14235279699E+03  0.15350368883E+03 -0.17671482660E+02  0.24446877632E+03  0.12500000000E+03 0.  0.
         21    1    1    2  503  501  0.88557438122E+02 -0.30621226817E+02 -0.24663632405E+02  0.96893622813E+02  0.00000000000E+00 0.  1.
         21    1    1    2  504  503  0.53795358864E+02 -0.12288246202E+03 -0.12722753911E+04  0.12793274448E+04  0.00000000000E+00 0.  1.
<mgrwt>
<rscale>  4 0.18477364E+03</rscale>
<asrwt>0</asrwt>
<pdfrwt beam="1">  1       21 0.23544564E-01 0.18477364E+03</pdfrwt>
<pdfrwt beam="2">  1       21 0.22579234E+00 0.18477364E+03</pdfrwt>
<totfact> 0.15887817E+03</totfact>
</mgrwt>
</event>
<event>
 5    0  0.1257040E+001  0.2027528E+03  0.7546771E-02  0.1147437E+00
         21   -1    0    0  503  501  0.00000000000E+00  0.00000000000E+00  0.46091720329E+03  0.46091720329E+03  0.00000000000E+00 0. -1.
         21   -1    0    0  504  502 -0.00000000000E+00 -0.00000000000E+00 -0.17487408562E+03  0.17487408562E+03  0.00000000000E+00 0. -1.
         25    1    1    2    0    0  0.19027581204E+03  0.12230835689E+03  0.15800199642E+03  0.30290897921E+03  0.12500000000E+03 0.  0.
         21    1    1    2  503  502 -0.10932261008E+03 -0.93342458537E+02 -0.35542643870E+02  0.14807946236E+03  0.00000000000E+00 0. -1.
         21    1    1    2  504  501 -0.80953201955E+02 -0.28965898349E+02  0.16358376511E+03  0.18480284733E+03  0.00000000000E+00 0. -1.
<mgrwt>
<rscale>  4 0.20275283E+03</rscale>
<asrwt>0</asrwt>
<pdfrwt beam="1">  1       21 0.70910339E-01 0.20275283E+03</pdfrwt>
<pdfrwt beam="2">  1       21 0.26903706E-01 0.20275283E+03</pdfrwt>
<totfact> 0.23557790E+04</totfact>
</mgrwt>
</event>
<event>
 5    0  0.1257040E+001  0.2466282E+03  0.7546771E-02  0.1115454E+00
         21   -1    0    0  504  501  0.00000000000E+00  0.00000000000E+00  0.28151761274E+02  0.28151761274E+02  0.00000000000E+00 0. -1.
         21   -1    0    0  503  502 -0.00000000000E+00 -0.00000000000E+00 -0.23955166947E+04  0.23955166947E+04  0.00000000000E+00 0. -1.
         25    1    1    2    0    0 -0.72483846580E+02  0.19986631480E+03 -0.17363170634E+04  0.17537452485E+04  0.12500000000E+03 0.  0.
         21    1    1    2  503  501  0.86503200491E+02 -0.17597714866E+03 -0.57257835281E+03  0.60522452912E+03  0.00000000000E+00 0. -1.
         21    1    1    2  504  502 -0.14019353911E+02 -0.23889166139E+02 -0.58469517154E+02  0.64698678341E+02  0.00000000000E+00 0. -1.
<mgrwt>
<rscale>  4 0.24662817E+03</rscale>
<asrwt>0</asrwt>
<pdfrwt beam="1">  1       21 0.43310417E-02 0.24662817E+03</pdfrwt>
<pdfrwt beam="2">  1       21 0.36854090E+00 0.24662817E+03</pdfrwt>
<totfact> 0.43653987E+03</totfact>
</mgrwt>
</event>
<event>
 5    0  0.1257040E+001  0.2870468E+03  0.7546771E-02  0.1091901E+00
         21   -1    0    0  502  501  0.00000000000E+00  0.00000000000E+00  0.91626068829E+03  0.91626068829E+03  0.00000000000E+00 0.  1.
         21   -1    0    0  504  502 -0.00000000000E+00 -0.00000000000E+00 -0.19676463545E+03  0.19676463545E+03  0.00000000000E+00 0.  1.
         25    1    1    2    0    0 -0.31961117295E+03 -0.26082014980E+02  0.20801998353E+03  0.40215530200E+03  0.12500000000E+03 0.  0.
         21    1    1    2  503  501  0.24115418173E+03 -0.33534337289E+02  0.55278121450E+03  0.60402563045E+03  0.00000000000E+00 0.  1.
         21    1    1    2  504  503  0.78456991223E+02  0.59616352269E+02 -0.41305145197E+02  0.10684439129E+03  0.00000000000E+00 0.  1.
<mgrwt>
<rscale>  4 0.28704676E+03</rscale>
<asrwt>0</asrwt>
<pdfrwt beam="1">  1       21 0.14096318E+00 0.28704676E+03</pdfrwt>
<pdfrwt beam="2">  1       21 0.30271483E-01 0.28704676E+03</pdfrwt>
<totfact> 0.34361974E+03</totfact>
</mgrwt>
</event>
<event>
 5    0  0.1257040E+001  0.2802052E+03  0.7546771E-02  0.1095577E+00
         21   -1    0    0  504  501  0.00000000000E+00  0.00000000000E+00  0.58945999736E+03  0.58945999736E+03  0.00000000000E+00 0. -1.
         21   -1    0    0  503  502 -0.00000000000E+00 -0.00000000000E+00 -0.21745655351E+03  0.21745655351E+03  0.00000000000E+00 0. -1.
         25    1    1    2    0    0 -0.26272121355E+03 -0.69860340082E+02  0.36489715573E+03  0.47188752625E+03  0.12500000000E+03 0.  0.
         21    1    1    2  503  501  0.23843784754E+03  0.60806267767E+02 -0.68235153529E+02  0.25535474445E+03  0.00000000000E+00 0. -1.
         21    1    1    2  504  502  0.24283366018E+02  0.90540723151E+01  0.75341441648E+02  0.79674280168E+02  0.00000000000E+00 0. -1.
<mgrwt>
<rscale>  4 0.28020519E+03</rscale>
<asrwt>0</asrwt>
<pdfrwt beam="1">  1       21 0.90686153E-01 0.28020519E+03</pdfrwt>
<pdfrwt beam="2">  1       21 0.33454854E-01 0.28020519E+03</pdfrwt>
<totfact> 0.84193905E+03</totfact>
</mgrwt>
</event>
<event>
 5    0  0.1257040E+001  0.1756235E+03  0.7546771E-02  0.1172107E+00
         21   -1    0    0  503  501  0.00000000000E+00  0.00000000000E+00  0.83151315418E+02  0.83151315418E+02  0.00000000000E+00 0. -1.
         21   -1    0    0  501  502 -0.00000000000E+00 -0.00000000000E+00 -0.78449231318E+03  0.78449231318E+03  0.00000000000E+00 0. -1.
         25    1    1    2    0    0  0.14672952154E+03 -0.14612234332E+03 -0.49678042426E+03  0.55253695047E+03  0.12500000000E+03 0.  0.
         21    1    1    2  503  504 -0.91296586521E+02  0.48893573964E+02 -0.16801687497E+03  0.19737101753E+03  0.00000000000E+00 0. -1.
         21    1    1    2  504  502 -0.55432935015E+02  0.97228769356E+02 -0.36543698535E+02  0.11773566060E+03  0.00000000000E+00 0. -1.
<mgrwt>
<rscale>  4 0.17562348E+03</rscale>
<asrwt>0</asrwt>
<pdfrwt beam="1">  1       21 0.12792510E-01 0.17562348E+03</pdfrwt>
<pdfrwt beam="2">  1       21 0.12069112E+00 0.17562348E+03</pdfrwt>
<totfact> 0.27522171E+04</totfact>
</mgrwt>
</event>
<event>
 5    0  0.1257040E+001  0.2952326E+03  0.7546771E-02  0.1087648E+00
         21   -1    0    0  503  501  0.00000000000E+00  0.00000000000E+00  0.10379019022E+03  0.10379019022E+03  0.00000000000E+00 0. -1.
         21   -1    0    0  504  502 -0.00000000000E+00 -0.00000000000E+00 -0.17335108209E+04  0.17335108209E+04  0.00000000000E+00 0. -1.
         25    1    1    2    0    0 -0.28726991154E+03  0.20579313387E+02 -0.14468577111E+04  0.14805302247E+04  0.12500000000E+03 0.  0.
         21    1    1    2  503  502  0.23639531213E+02  0.16894785459E+01 -0.61083143580E+02  0.65519708511E+02  0.00000000000E+00 0. -1.
         21    1    1    2  504  501  0.26363038033E+03 -0.22268791933E+02 -0.12177977602E+03  0.29125107789E+03  0.00000000000E+00 0. -1.
<mgrwt>
<rscale>  4 0.29523264E+03</rscale>
<asrwt>0</asrwt>
<pdfrwt beam="1">  1       21 0.15967723E-01 0.29523264E+03</pdfrwt>
<pdfrwt beam="2">  1       21 0.26669395E+00 0.29523264E+03</pdfrwt>
<totfact> 0.16832536E+03</totfact>
</mgrwt>
</event>
<event>
 5    0  0.1257040E+001  0.2447982E+03  0.7546771E-02  0.1116637E+00
         21   -1    0    0  502  501  0.00000000000E+00  0.00000000000E+00  0.12775986577E+04  0.12775986577E+04  0.00000000000E+00 0. -1.
         21   -1    0    0  504  502 -0.00000000000E+00 -0.00000000000E+00 -0.12392099377E+03  0.12392099377E+03  0.00000000000E+00 0.  1.
         25    1    1    2    0    0  0.15100052144E+03 -0.17883613679E+03  0.26525681246E+03  0.37519288087E+03  0.12500000000E+03 0.  0.
         21    1    1    2  503  501 -0.12229001667E+03  0.16551795017E+03  0.94193519599E+03  0.96415400920E+03  0.00000000000E+00 0. -1.
         21    1    1    2  504  503 -0.28710504767E+02  0.13318186625E+02 -0.53514344577E+02  0.62172761354E+02  0.00000000000E+00 0.  1.
<mgrwt>
<rscale>  4 0.24479825E+03</rscale>
<asrwt>0</asrwt>
<pdfrwt beam="1">  1       21 0.19655363E+00 0.24479825E+03</pdfrwt>
<pdfrwt beam="2">  1       21 0.19064769E-01 0.24479825E+03</pdfrwt>
<totfact> 0.34077608E+03</totfact>
</mgrwt>
</event>
<event>
 5    0  0.1257040E+001  0.2393780E+03  0.7546771E-02  0.1120208E+00
         21   -1    0    0  502  501  0.00000000000E+00  0.00000000000E+00  0.66485183052E+03  0.66485183052E+03  0.00000000000E+00 0. -1.
         21   -1    0    0  504  502 -0.00000000000E+00 -0.00000000000E+00 -0.15398838574E+03  0.15398838574E+03  0.00000000000E+00 0. -1.
         25    1    1    2    0    0 -0.20152964973E+03 -0.91005196411E+02  0.42074073345E+03  0.49147116932E+03  0.12500000000E+03 0.  0.
         21    1    1    2  503  501  0.63468220491E+02 -0.58532826048E+02  0.88779788855E+02  0.12383924114E+03  0.00000000000E+00 0.  1.
         21    1    1    2  504  503  0.13806142924E+03  0.14953802246E+03  0.13429224790E+01  0.20352980579E+03  0.00000000000E+00 0. -1.
<mgrwt>
<rscale>  4 0.23937803E+03</rscale>
<asrwt>0</asrwt>
<pdfrwt beam="1">  1       21 0.10228490E+00 0.23937803E+03</pdfrwt>
<pdfrwt beam="2">  1       21 0.23690521E-01 0.23937803E+03</pdfrwt>
<totfact> 0.12675842E+04</totfact>
</mgrwt>
</event>
