<event>
 5    0  0.1283376E+001  0.3338947E+03  0.7546771E-02  0.1069426E+00
         21   -1    0    0  503  501  0.00000000000E+00  0.00000000000E+00  0.43229876977E+03  0.43229876977E+03  0.00000000000E+00 0.  1.
         21   -1    0    0  504  502 -0.00000000000E+00 -0.00000000000E+00 -0.12541656888E+04  0.12541656888E+04  0.00000000000E+00 0.  1.
         25    1    1    2    0    0  0.26713893423E+03  0.17238635621E+03  0.30350158526E+03  0.45696660517E+03  0.12500000000E+03 0.  0.
         21    1    1    2  503  502 -0.10438234113E+03 -0.27630166493E+03 -0.57851072365E+03  0.64954825884E+03  0.00000000000E+00 0.  1.
         21    1    1    2  504  501 -0.16275659310E+03  0.10391530872E+03 -0.54685778067E+03  0.57994959458E+03  0.00000000000E+00 0.  1.
<mgrwt>
<rscale>  4 0.33389468E+03</rscale>
<asrwt>0</asrwt>
<pdfrwt beam="1">  1       21 0.66507505E-01 0.33389468E+03</pdfrwt>
<pdfrwt beam="2">  1       21 0.19294856E+00 0.33389468E+03</pdfrwt>
<totfact> 0.27008410E+02</totfact>
</mgrwt>
</event>
<event>
 5    0  0.1283376E+001  0.3136936E+03  0.7546771E-02  0.1078589E+00
         21   -1    0    0  504  501  0.00000000000E+00  0.00000000000E+00  0.12077528838E+04  0.12077528838E+04  0.00000000000E+00 0.  1.
         21   -1    0    0  501  502 -0.00000000000E+00 -0.00000000000E+00 -0.94981088307E+02  0.94981088307E+02  0.00000000000E+00 0.  1.
         25    1    1    2    0    0 -0.62249810907E+02 -0.27744233194E+03  0.62378916880E+03  0.69684088113E+03  0.12500000000E+03 0.  0.
         21    1    1    2  503  502  0.44503969743E+01  0.29535420253E+03  0.42752419031E+03  0.51964492135E+03  0.00000000000E+00 0.  1.
         21    1    1    2  504  503  0.57799413933E+02 -0.17911870598E+02  0.61458436370E+02  0.86248169606E+02  0.00000000000E+00 0.  1.
<mgrwt>
<rscale>  4 0.31369363E+03</rscale>
<asrwt>0</asrwt>
<pdfrwt beam="1">  1       21 0.18580813E+00 0.31369363E+03</pdfrwt>
<pdfrwt beam="2">  1       21 0.14612476E-01 0.31369363E+03</pdfrwt>
<totfact> 0.62950905E+03</totfact>
</mgrwt>
</event>
<event>
 5    0  0.1283376E+001  0.2820267E+03  0.7546771E-02  0.1094587E+00
         21   -1    0    0  504  501  0.00000000000E+00  0.00000000000E+00  0.15382222382E+03  0.15382222382E+03  0.00000000000E+00 0. -1.
         21   -1    0    0  501  502 -0.00000000000E+00 -0.00000000000E+00 -0.11990199173E+04  0.11990199173E+04  0.00000000000E+00 0.  1.
         25    1    1    2    0    0  0.23839818463E+03  0.77260070560E+02 -0.14239011251E+02  0.28041141627E+03  0.12500000000E+03 0.  0.
         21    1    1    2  503  502  0.88509512476E+01  0.23663171563E+02 -0.14182834842E+03  0.14406097821E+03  0.00000000000E+00 0.  1.
         21    1    1    2  504  503 -0.24724913587E+03 -0.10092324212E+03 -0.88913033382E+03  0.92836974666E+03  0.00000000000E+00 0.  1.
<mgrwt>
<rscale>  4 0.28202665E+03</rscale>
<asrwt>0</asrwt>
<pdfrwt beam="1">  1       21 0.23664959E-01 0.28202665E+03</pdfrwt>
<pdfrwt beam="2">  1       21 0.18446459E+00 0.28202665E+03</pdfrwt>
<totfact> 0.26538839E+03</totfact>
</mgrwt>
</event>
<event>
 5    0  0.1283376E+001  0.2473532E+03  0.7546771E-02  0.1114989E+00
         21   -1    0    0  504  501  0.00000000000E+00  0.00000000000E+00  0.37292588366E+03  0.37292588366E+03  0.00000000000E+00 0.  1.
         21   -1    0    0  501  502 -0.00000000000E+00 -0.00000000000E+00 -0.33696289785E+03  0.33696289785E+03  0.00000000000E+00 0.  1.
         25    1    1    2    0    0  0.22348300261E+03 -0.20932951606E+03  0.94895843583E+02  0.34408388494E+03  0.12500000000E+03 0.  0.
         21    1    1    2  503  502 -0.77681625698E+02  0.17606752236E+03 -0.90975627309E+02  0.21286327106E+03  0.00000000000E+00 0.  1.
         21    1    1    2  504  503 -0.14580137691E+03  0.33261993701E+02  0.32042769541E+02  0.15294162551E+03  0.00000000000E+00 0.  1.
<mgrwt>
<rscale>  4 0.24735320E+03</rscale>
<asrwt>0</asrwt>
<pdfrwt beam="1">  1       21 0.57373213E-01 0.24735320E+03</pdfrwt>
<pdfrwt beam="2">  1       21 0.51840445E-01 0.24735320E+03</pdfrwt>
<totfact> 0.97340934E+03</totfact>
</mgrwt>
</event>
<event>
 5    0  0.1283376E+001  0.2630509E+03  0.7546771E-02  0.1105324E+00
         21   -1    0    0  504  501  0.00000000000E+00  0.00000000000E+00  0.59633041233E+02  0.59633041233E+02  0.00000000000E+00 0. -1.
         21   -1    0    0  503  502 -0.00000000000E+00 -0.00000000000E+00 -0.22791110775E+04  0.22791110775E+04  0.00000000000E+00 0.  1.
         25    1    1    2    0    0  0.11095668040E+03  0.20948032862E+03 -0.30543947438E+03  0.40633934774E+03  0.12500000000E+03 0.  0.
         21    1    1    2  503  501 -0.10153889825E+03 -0.18581454834E+03 -0.12447765802E+04  0.12626582787E+04  0.00000000000E+00 0.  1.
         21    1    1    2  504  502 -0.94177821566E+01 -0.23665780285E+02 -0.66926198165E+03  0.66974649223E+03  0.00000000000E+00 0. -1.
<mgrwt>
<rscale>  4 0.26305089E+03</rscale>
<asrwt>0</asrwt>
<pdfrwt beam="1">  1       21 0.91743141E-02 0.26305089E+03</pdfrwt>
<pdfrwt beam="2">  1       21 0.35063247E+00 0.26305089E+03</pdfrwt>
<totfact> 0.15045638E+03</totfact>
</mgrwt>
</event>
<event>
 5    0  0.1283376E+001  0.4665201E+03  0.7546771E-02  0.1022907E+00
         21   -1    0    0  504  501  0.00000000000E+00  0.00000000000E+00  0.65364185173E+03  0.65364185173E+03  0.00000000000E+00 0.  1.
         21   -1    0    0  501  502 -0.00000000000E+00 -0.00000000000E+00 -0.38401194304E+03  0.38401194304E+03  0.00000000000E+00 0.  1.
         25    1    1    2    0    0 -0.14545759565E+03 -0.41479269273E+03  0.12310651130E+03  0.47327698359E+03  0.12500000000E+03 0.  0.
         21    1    1    2  503  502 -0.50768783595E+02 -0.45102771892E+00 -0.43970462910E+02  0.67164532472E+02  0.00000000000E+00 0.  1.
         21    1    1    2  504  503  0.19622637924E+03  0.41524372045E+03  0.19049386030E+03  0.49721227871E+03  0.00000000000E+00 0.  1.
<mgrwt>
<rscale>  4 0.46652013E+03</rscale>
<asrwt>0</asrwt>
<pdfrwt beam="1">  1       21 0.10056028E+00 0.46652013E+03</pdfrwt>
<pdfrwt beam="2">  1       21 0.59078761E-01 0.46652013E+03</pdfrwt>
<totfact> 0.18574347E+03</totfact>
</mgrwt>
</event>
<event>
 5    0  0.1283376E+001  0.2587063E+03  0.7546771E-02  0.1107923E+00
         21   -1    0    0  503  501  0.00000000000E+00  0.00000000000E+00  0.24526721783E+03  0.24526721783E+03  0.00000000000E+00 0.  1.
         21   -1    0    0  504  502 -0.00000000000E+00 -0.00000000000E+00 -0.15685876156E+04  0.15685876156E+04  0.00000000000E+00 0. -1.
         25    1    1    2    0    0  0.34647553032E+02 -0.22392772826E+03  0.16282981479E+03  0.30574929108E+03  0.12500000000E+03 0.  0.
         21    1    1    2  503  502 -0.59219627461E+01  0.22647824341E+03 -0.13562787068E+04  0.13750706873E+04  0.00000000000E+00 0. -1.
         21    1    1    2  504  501 -0.28725590286E+02 -0.25505151502E+01 -0.12987150570E+03  0.13303485505E+03  0.00000000000E+00 0. -1.
<mgrwt>
<rscale>  4 0.25870631E+03</rscale>
<asrwt>0</asrwt>
<pdfrwt beam="1">  1       21 0.37733416E-01 0.25870631E+03</pdfrwt>
<pdfrwt beam="2">  1       21 0.24132118E+00 0.25870631E+03</pdfrwt>
<totfact> 0.47027203E+02</totfact>
</mgrwt>
</event>
<event>
 5    0  0.1283376E+001  0.3116734E+03  0.7546771E-02  0.1079547E+00
         21   -1    0    0  504  501  0.00000000000E+00  0.00000000000E+00  0.22044558200E+03  0.22044558200E+03  0.00000000000E+00 0. -1.
         21   -1    0    0  503  502 -0.00000000000E+00 -0.00000000000E+00 -0.88993453903E+03  0.88993453903E+03  0.00000000000E+00 0. -1.
         25    1    1    2    0    0  0.21387071544E+03 -0.21503254668E+03 -0.30149626674E+02  0.32941414518E+03  0.12500000000E+03 0.  0.
         21    1    1    2  503  501 -0.95286601396E+02  0.25434010508E+03 -0.23968029915E+03  0.36223620921E+03  0.00000000000E+00 0. -1.
         21    1    1    2  504  502 -0.11858411404E+03 -0.39307558406E+02 -0.39965903120E+03  0.41872976664E+03  0.00000000000E+00 0. -1.
<mgrwt>
<rscale>  4 0.31167342E+03</rscale>
<asrwt>0</asrwt>
<pdfrwt beam="1">  1       21 0.33914705E-01 0.31167342E+03</pdfrwt>
<pdfrwt beam="2">  1       21 0.13691301E+00 0.31167342E+03</pdfrwt>
<totfact> 0.29187688E+03</totfact>
</mgrwt>
</event>
<event>
 5    0  0.1283376E+001  0.2880635E+03  0.7546771E-02  0.1091365E+00
         21   -1    0    0  504  501  0.00000000000E+00  0.00000000000E+00  0.25638154536E+03  0.25638154536E+03  0.00000000000E+00 0. -1.
         21   -1    0    0  501  502 -0.00000000000E+00 -0.00000000000E+00 -0.53162276909E+03  0.53162276909E+03  0.00000000000E+00 0. -1.
         25    1    1    2    0    0  0.27302200882E+02 -0.25512921383E+03  0.10227776647E+03  0.30318652252E+03  0.12500000000E+03 0.  0.
         21    1    1    2  503  502  0.22610281669E+02 -0.10800437404E+02 -0.74388381651E+02  0.78495258519E+02  0.00000000000E+00 0.  1.
         21    1    1    2  504  503 -0.49912482551E+02  0.26592965123E+03 -0.30313060854E+03  0.40632253341E+03  0.00000000000E+00 0. -1.
<mgrwt>
<rscale>  4 0.28806355E+03</rscale>
<asrwt>0</asrwt>
<pdfrwt beam="1">  1       21 0.39443315E-01 0.28806355E+03</pdfrwt>
<pdfrwt beam="2">  1       21 0.81788118E-01 0.28806355E+03</pdfrwt>
<totfact> 0.76493941E+03</totfact>
</mgrwt>
</event>
<event>
 5    0  0.1283376E+001  0.2405981E+03  0.7546771E-02  0.1119395E+00
         21   -1    0    0  504  501  0.00000000000E+00  0.00000000000E+00  0.64318497390E+03  0.64318497390E+03  0.00000000000E+00 0.  1.
         21   -1    0    0  501  502 -0.00000000000E+00 -0.00000000000E+00 -0.30284273426E+03  0.30284273426E+03  0.00000000000E+00 0.  1.
         25    1    1    2    0    0 -0.10069955807E+03  0.20980722166E+03  0.30609977165E+03  0.40432850686E+03  0.12500000000E+03 0.  0.
         21    1    1    2  503  502  0.23914018065E+03 -0.10306572848E+02 -0.10544471265E+03  0.26155848078E+03  0.00000000000E+00 0.  1.
         21    1    1    2  504  503 -0.13844062258E+03 -0.19950064881E+03  0.13968718064E+03  0.28014072051E+03  0.00000000000E+00 0.  1.
<mgrwt>
<rscale>  4 0.24059805E+03</rscale>
<asrwt>0</asrwt>
<pdfrwt beam="1">  1       21 0.98951535E-01 0.24059805E+03</pdfrwt>
<pdfrwt beam="2">  1       21 0.46591190E-01 0.24059805E+03</pdfrwt>
<totfact> 0.35791281E+03</totfact>
</mgrwt>
</event>
<event>
 5    0  0.1283376E+001  0.3079061E+03  0.7546771E-02  0.1081354E+00
         21   -1    0    0  504  501  0.00000000000E+00  0.00000000000E+00  0.13150648397E+03  0.13150648397E+03  0.00000000000E+00 0.  1.
         21   -1    0    0  501  502 -0.00000000000E+00 -0.00000000000E+00 -0.11566782038E+04  0.11566782038E+04  0.00000000000E+00 0.  1.
         25    1    1    2    0    0 -0.22951606625E+03  0.16279914587E+03 -0.11014719798E+03  0.32701466601E+03  0.12500000000E+03 0.  0.
         21    1    1    2  503  502  0.76248168284E+02 -0.18829083632E+02 -0.17433417198E+03  0.19120858003E+03  0.00000000000E+00 0.  1.
         21    1    1    2  504  503  0.15326789796E+03 -0.14397006224E+03 -0.74069034986E+03  0.76996144173E+03  0.00000000000E+00 0.  1.
<mgrwt>
<rscale>  4 0.30790613E+03</rscale>
<asrwt>0</asrwt>
<pdfrwt beam="1">  1       21 0.20231767E-01 0.30790613E+03</pdfrwt>
<pdfrwt beam="2">  1       21 0.17795049E+00 0.30790613E+03</pdfrwt>
<totfact> 0.39036243E+03</totfact>
</mgrwt>
</event>
<event>
 5    0  0.1283376E+001  0.2514015E+03  0.7546771E-02  0.1112422E+00
         21   -1    0    0  504  501  0.00000000000E+00  0.00000000000E+00  0.98575489141E+03  0.98575489141E+03  0.00000000000E+00 0. -1.
         21   -1    0    0  501  502 -0.00000000000E+00 -0.00000000000E+00 -0.10798446930E+03  0.10798446930E+03  0.00000000000E+00 0. -1.
         25    1    1    2    0    0 -0.17064163359E+03 -0.11357343773E+03  0.49173194101E+03  0.54721366456E+03  0.12500000000E+03 0.  0.
         21    1    1    2  503  502 -0.32239062950E+02  0.36851766777E+00 -0.45887105024E+02  0.56081364041E+02  0.00000000000E+00 0. -1.
         21    1    1    2  504  503  0.20288069654E+03  0.11320492006E+03  0.43192558612E+03  0.49044433211E+03  0.00000000000E+00 0. -1.
<mgrwt>
<rscale>  4 0.25140154E+03</rscale>
<asrwt>0</asrwt>
<pdfrwt beam="1">  1       21 0.15165459E+00 0.25140154E+03</pdfrwt>
<pdfrwt beam="2">  1       21 0.16612996E-01 0.25140154E+03</pdfrwt>
<totfact> 0.90733819E+03</totfact>
</mgrwt>
</event>
<event>
 5    0  0.1283376E+001  0.3409483E+03  0.7546771E-02  0.1066393E+00
         21   -1    0    0  504  501  0.00000000000E+00  0.00000000000E+00  0.31459290385E+03  0.31459290385E+03  0.00000000000E+00 0. -1.
         21   -1    0    0  503  502 -0.00000000000E+00 -0.00000000000E+00 -0.18870128112E+04  0.18870128112E+04  0.00000000000E+00 0.  1.
         25    1    1    2    0    0  0.27535860204E+03 -0.14672947882E+03  0.14636351786E+03  0.36660493591E+03  0.12500000000E+03 0.  0.
         21    1    1    2  503  501  0.70095076198E+02  0.69387376054E+02 -0.12165572957E+04  0.12205488853E+04  0.00000000000E+00 0.  1.
         21    1    1    2  504  502 -0.34545367824E+03  0.77342102763E+02 -0.50222612942E+03  0.61445189376E+03  0.00000000000E+00 0. -1.
<mgrwt>
<rscale>  4 0.34094832E+03</rscale>
<asrwt>0</asrwt>
<pdfrwt beam="1">  1       21 0.48398908E-01 0.34094832E+03</pdfrwt>
<pdfrwt beam="2">  1       21 0.29030966E+00 0.34094832E+03</pdfrwt>
<totfact> 0.13336283E+02</totfact>
</mgrwt>
</event>
<event>
 5    0  0.1283376E+001  0.2632941E+03  0.7546771E-02  0.1105180E+00
         21   -1    0    0  504  501  0.00000000000E+00  0.00000000000E+00  0.17504598714E+03  0.17504598714E+03  0.00000000000E+00 0.  1.
         21   -1    0    0  501  502 -0.00000000000E+00 -0.00000000000E+00 -0.13824917564E+04  0.13824917564E+04  0.00000000000E+00 0. -1.
         25    1    1    2    0    0 -0.51887896941E+02 -0.22609621950E+03  0.52869948580E+02  0.26876027568E+03  0.12500000000E+03 0.  0.
         21    1    1    2  503  502 -0.20354453843E+02  0.72442911011E+01 -0.31627435904E+03  0.31701144101E+03  0.00000000000E+00 0. -1.
         21    1    1    2  504  503  0.72242350784E+02  0.21885192840E+03 -0.94404135878E+03  0.97176602683E+03  0.00000000000E+00 0. -1.
<mgrwt>
<rscale>  4 0.26329414E+03</rscale>
<asrwt>0</asrwt>
<pdfrwt beam="1">  1       21 0.26930151E-01 0.26329414E+03</pdfrwt>
<pdfrwt beam="2">  1       21 0.21269105E+00 0.26329414E+03</pdfrwt>
<totfact> 0.13702018E+03</totfact>
</mgrwt>
</event>
<event>
 5    0  0.1283376E+001  0.2357988E+03  0.7546771E-02  0.1122624E+00
         21   -1    0    0  503  501  0.00000000000E+00  0.00000000000E+00  0.29914107865E+03  0.29914107865E+03  0.00000000000E+00 0. -1.
         21   -1    0    0  504  502 -0.00000000000E+00 -0.00000000000E+00 -0.53108107319E+03  0.53108107319E+03  0.00000000000E+00 0. -1.
         25    1    1    2    0    0  0.19289305915E+03 -0.12005259954E+03  0.12501449204E+03  0.28787841556E+03  0.12500000000E+03 0.  0.
         21    1    1    2  503  502 -0.85290510738E+01  0.12665680015E+03 -0.33292177961E+03  0.35630268183E+03  0.00000000000E+00 0. -1.
         21    1    1    2  504  501 -0.18436400808E+03 -0.66042006171E+01 -0.24032706976E+02  0.18604105446E+03  0.00000000000E+00 0. -1.
<mgrwt>
<rscale>  4 0.23579876E+03</rscale>
<asrwt>0</asrwt>
<pdfrwt beam="1">  1       21 0.46021705E-01 0.23579876E+03</pdfrwt>
<pdfrwt beam="2">  1       21 0.81704780E-01 0.23579876E+03</pdfrwt>
<totfact> 0.57532786E+03</totfact>
</mgrwt>
</event>
<event>
 5    0  0.1283376E+001  0.2730403E+03  0.7546771E-02  0.1099552E+00
         21   -1    0    0  503  501  0.00000000000E+00  0.00000000000E+00  0.94589589552E+03  0.94589589552E+03  0.00000000000E+00 0. -1.
         21   -1    0    0  504  502 -0.00000000000E+00 -0.00000000000E+00 -0.13880855190E+03  0.13880855190E+03  0.00000000000E+00 0. -1.
         25    1    1    2    0    0  0.12022632054E+02 -0.23549173893E+03  0.63318668180E+03  0.68713264862E+03  0.12500000000E+03 0.  0.
         21    1    1    2  503  502 -0.90219551568E+01  0.25772531992E+03  0.22469697289E+03  0.34204161418E+03  0.00000000000E+00 0. -1.
         21    1    1    2  504  501 -0.30006768974E+01 -0.22233580989E+02 -0.50796311068E+02  0.55530184617E+02  0.00000000000E+00 0. -1.
<mgrwt>
<rscale>  4 0.27304034E+03</rscale>
<asrwt>0</asrwt>
<pdfrwt beam="1">  1       21 0.14552244E+00 0.27304034E+03</pdfrwt>
<pdfrwt beam="2">  1       21 0.21355162E-01 0.27304034E+03</pdfrwt>
<totfact> 0.62482581E+03</totfact>
</mgrwt>
</event>
<event>
 5    0  0.1283376E+001  0.2645960E+03  0.7546771E-02  0.1104413E+00
         21   -1    0    0  503  501  0.00000000000E+00  0.00000000000E+00  0.10721019481E+04  0.10721019481E+04  0.00000000000E+00 0.  1.
         21   -1    0    0  504  502 -0.00000000000E+00 -0.00000000000E+00 -0.20781606486E+03  0.20781606486E+03  0.00000000000E+00 0. -1.
         25    1    1    2    0    0  0.23836414470E+03 -0.12753356191E+03  0.83396108939E+03  0.88554975779E+03  0.12500000000E+03 0.  0.
         21    1    1    2  503  502 -0.77814321301E+02  0.54332521218E+02 -0.12660629255E+03  0.15822845754E+03  0.00000000000E+00 0. -1.
         21    1    1    2  504  501 -0.16054982340E+03  0.73201040694E+02  0.15693108641E+03  0.23613979765E+03  0.00000000000E+00 0.  1.
<mgrwt>
<rscale>  4 0.26459604E+03</rscale>
<asrwt>0</asrwt>
<pdfrwt beam="1">  1       21 0.16493876E+00 0.26459604E+03</pdfrwt>
<pdfrwt beam="2">  1       21 0.31971703E-01 0.26459604E+03</pdfrwt>
<totfact> 0.20522869E+03</totfact>
</mgrwt>
</event>
<event>
 5    0  0.1283376E+001  0.2851170E+03  0.7546771E-02  0.1092926E+00
         21   -1    0    0  504  501  0.00000000000E+00  0.00000000000E+00  0.18362653835E+04  0.18362653835E+04  0.00000000000E+00 0. -1.
         21   -1    0    0  503  502 -0.00000000000E+00 -0.00000000000E+00 -0.20604335250E+03  0.20604335250E+03  0.00000000000E+00 0.  1.
         25    1    1    2    0    0  0.35487294225E+03  0.74211625871E+02  0.23001616724E+03  0.44718520519E+03  0.12500000000E+03 0.  0.
         21    1    1    2  503  501 -0.24495289496E+03  0.36776805890E+02  0.14165682332E+04  0.14380611995E+04  0.00000000000E+00 0. -1.
         21    1    1    2  504  502 -0.10992004729E+03 -0.11098843176E+03 -0.16362369439E+02  0.15706233130E+03  0.00000000000E+00 0.  1.
<mgrwt>
<rscale>  4 0.28511704E+03</rscale>
<asrwt>0</asrwt>
<pdfrwt beam="1">  1       21 0.28250236E+00 0.28511704E+03</pdfrwt>
<pdfrwt beam="2">  1       21 0.31698979E-01 0.28511704E+03</pdfrwt>
<totfact> 0.36966090E+02</totfact>
</mgrwt>
</event>
<event>
 5    0  0.1283376E+001  0.2639766E+03  0.7546771E-02  0.1104777E+00
         21   -1    0    0  502  501  0.00000000000E+00  0.00000000000E+00  0.19470624515E+03  0.19470624515E+03  0.00000000000E+00 0.  1.
         21   -1    0    0  503  502 -0.00000000000E+00 -0.00000000000E+00 -0.53959192737E+03  0.53959192737E+03  0.00000000000E+00 0.  1.
         25    1    1    2    0    0  0.14176475303E+03  0.17536945305E+03  0.29933570532E+02  0.25956253372E+03  0.12500000000E+03 0.  0.
         21    1    1    2  503  504 -0.14420021321E+03 -0.21091395751E+03 -0.32260855429E+03  0.41152725093E+03  0.00000000000E+00 0.  1.
         21    1    1    2  504  501  0.24354601789E+01  0.35544504455E+02 -0.52210698461E+02  0.63208387869E+02  0.00000000000E+00 0.  1.
<mgrwt>
<rscale>  4 0.26397662E+03</rscale>
<asrwt>0</asrwt>
<pdfrwt beam="1">  1       21 0.29954807E-01 0.26397662E+03</pdfrwt>
<pdfrwt beam="2">  1       21 0.83014142E-01 0.26397662E+03</pdfrwt>
<totfact> 0.12965862E+04</totfact>
</mgrwt>
</event>
<event>
 5    0  0.1283376E+001  0.3227930E+03  0.7546771E-02  0.1074371E+00
         21   -1    0    0  503  501  0.00000000000E+00  0.00000000000E+00  0.10233851431E+04  0.10233851431E+04  0.00000000000E+00 0.  1.
         21   -1    0    0  504  502 -0.00000000000E+00 -0.00000000000E+00 -0.29533385640E+03  0.29533385640E+03  0.00000000000E+00 0.  1.
         25    1    1    2    0    0 -0.23181752992E+03  0.18117551106E+03  0.79474977581E+03  0.85663069005E+03  0.12500000000E+03 0.  0.
         21    1    1    2  503  502  0.17521052875E+03 -0.28710607795E+03 -0.37082243956E+02  0.33838398631E+03  0.00000000000E+00 0.  1.
         21    1    1    2  504  501  0.56607001175E+02  0.10593056688E+03 -0.29616245155E+02  0.12370432312E+03  0.00000000000E+00 0. -1.
<mgrwt>
<rscale>  4 0.32279298E+03</rscale>
<asrwt>0</asrwt>
<pdfrwt beam="1">  1       21 0.15744387E+00 0.32279298E+03</pdfrwt>
<pdfrwt beam="2">  1       21 0.45435978E-01 0.32279298E+03</pdfrwt>
<totfact> 0.11000164E+03</totfact>
</mgrwt>
</event>
<event>
 5    0  0.1283376E+001  0.2670411E+03  0.7546771E-02  0.1102985E+00
         21   -1    0    0  503  501  0.00000000000E+00  0.00000000000E+00  0.72772727482E+02  0.72772727482E+02  0.00000000000E+00 0.  1.
         21   -1    0    0  504  502 -0.00000000000E+00 -0.00000000000E+00 -0.15759350295E+04  0.15759350295E+04  0.00000000000E+00 0.  1.
         25    1    1    2    0    0  0.17662304569E+03 -0.17470145292E+03 -0.29028934319E+03  0.40200646847E+03  0.12500000000E+03 0.  0.
         21    1    1    2  503  502 -0.18096333776E+03  0.11128266706E+03 -0.75082207653E+03  0.78029824568E+03  0.00000000000E+00 0.  1.
         21    1    1    2  504  501  0.43402920729E+01  0.63418785853E+02 -0.46205088231E+03  0.46640304285E+03  0.00000000000E+00 0.  1.
<mgrwt>
<rscale>  4 0.26704113E+03</rscale>
<asrwt>0</asrwt>
<pdfrwt beam="1">  1       21 0.11195805E-01 0.26704113E+03</pdfrwt>
<pdfrwt beam="2">  1       21 0.24245152E+00 0.26704113E+03</pdfrwt>
<totfact> 0.45823983E+03</totfact>
</mgrwt>
</event>
<event>
 5    0  0.1283376E+001  0.2556823E+03  0.7546771E-02  0.1109765E+00
         21   -1    0    0  504  501  0.00000000000E+00  0.00000000000E+00  0.74963782956E+03  0.74963782956E+03  0.00000000000E+00 0. -1.
         21   -1    0    0  501  502 -0.00000000000E+00 -0.00000000000E+00 -0.11016007259E+03  0.11016007259E+03  0.00000000000E+00 0. -1.
         25    1    1    2    0    0 -0.12549068489E+02 -0.22109196025E+03  0.35096684961E+03  0.43340727213E+03  0.12500000000E+03 0.  0.
         21    1    1    2  503  502 -0.34763881842E+02  0.39331636627E+00 -0.23012001641E+02  0.41692138324E+02  0.00000000000E+00 0. -1.
         21    1    1    2  504  503  0.47312950331E+02  0.22069864388E+03  0.31152290900E+03  0.38469849170E+03  0.00000000000E+00 0. -1.
<mgrwt>
<rscale>  4 0.25568232E+03</rscale>
<asrwt>0</asrwt>
<pdfrwt beam="1">  1       21 0.11532889E+00 0.25568232E+03</pdfrwt>
<pdfrwt beam="2">  1       21 0.16947704E-01 0.25568232E+03</pdfrwt>
<totfact> 0.17608555E+04</totfact>
</mgrwt>
</event>
<event>
 5    0  0.1283376E+001  0.2634092E+03  0.7546771E-02  0.1105112E+00
         21   -1    0    0  504  501  0.00000000000E+00  0.00000000000E+00  0.61421407663E+03  0.61421407663E+03  0.00000000000E+00 0. -1.
         21   -1    0    0  501  502 -0.00000000000E+00 -0.00000000000E+00 -0.14498843469E+03  0.14498843469E+03  0.00000000000E+00 0. -1.
         25    1    1    2    0    0 -0.16507965386E+03 -0.15632953522E+03  0.37184229178E+03  0.45341140883E+03  0.12500000000E+03 0.  0.
         21    1    1    2  503  502 -0.29205834159E+02  0.13101285697E+02 -0.19630537812E+02  0.37549733030E+02  0.00000000000E+00 0. -1.
         21    1    1    2  504  503  0.19428548802E+03  0.14322824953E+03  0.11701388798E+03  0.26824136947E+03  0.00000000000E+00 0. -1.
<mgrwt>
<rscale>  4 0.26340915E+03</rscale>
<asrwt>0</asrwt>
<pdfrwt beam="1">  1       21 0.94494472E-01 0.26340915E+03</pdfrwt>
<pdfrwt beam="2">  1       21 0.22305913E-01 0.26340915E+03</pdfrwt>
<totfact> 0.16953117E+04</totfact>
</mgrwt>
</event>
<event>
 5    0  0.1283376E+001  0.2542145E+03  0.7546771E-02  0.1110670E+00
         21   -1    0    0  504  501  0.00000000000E+00  0.00000000000E+00  0.74152574009E+03  0.74152574009E+03  0.00000000000E+00 0. -1.
         21   -1    0    0  501  502 -0.00000000000E+00 -0.00000000000E+00 -0.15437795614E+03  0.15437795614E+03  0.00000000000E+00 0.  1.
         25    1    1    2    0    0  0.22218884639E+03  0.88829416896E+02  0.55650153515E+03  0.61852850168E+03  0.12500000000E+03 0.  0.
         21    1    1    2  503  502 -0.79472973434E+02  0.30318502764E+02 -0.13927309740E+02  0.86192430485E+02  0.00000000000E+00 0.  1.
         21    1    1    2  504  503 -0.14271587295E+03 -0.11914791966E+03  0.44573558534E+02  0.19118276406E+03  0.00000000000E+00 0.  1.
<mgrwt>
<rscale>  4 0.25421453E+03</rscale>
<asrwt>0</asrwt>
<pdfrwt beam="1">  1       21 0.11408088E+00 0.25421453E+03</pdfrwt>
<pdfrwt beam="2">  1       21 0.23750455E-01 0.25421453E+03</pdfrwt>
<totfact> 0.95945591E+03</totfact>
</mgrwt>
</event>
<event>
 5    0  0.1283376E+001  0.3418068E+03  0.7546771E-02  0.1066029E+00
         21   -1    0    0  503  501  0.00000000000E+00  0.00000000000E+00  0.11499550263E+04  0.11499550263E+04  0.00000000000E+00 0. -1.
         21   -1    0    0  504  502 -0.00000000000E+00 -0.00000000000E+00 -0.59981830351E+03  0.59981830351E+03  0.00000000000E+00 0.  1.
         25    1    1    2    0    0  0.27419745131E+03 -0.15568612064E+03  0.10406125406E+04  0.10944961718E+04  0.12500000000E+03 0.  0.
         21    1    1    2  503  502 -0.30363566775E+03  0.21244839630E+03 -0.41635745073E+03  0.55738897244E+03  0.00000000000E+00 0.  1.
         21    1    1    2  504  501  0.29438216439E+02 -0.56762275657E+02 -0.74118367099E+02  0.97888185530E+02  0.00000000000E+00 0.  1.
<mgrwt>
<rscale>  4 0.34180680E+03</rscale>
<asrwt>0</asrwt>
<pdfrwt beam="1">  1       21 0.17691616E+00 0.34180680E+03</pdfrwt>
<pdfrwt beam="2">  1       21 0.92279739E-01 0.34180680E+03</pdfrwt>
<totfact> 0.16362253E+02</totfact>
</mgrwt>
</event>
<event>
 5    0  0.1283376E+001  0.2799800E+03  0.7546771E-02  0.1095700E+00
         21   -1    0    0  503  501  0.00000000000E+00  0.00000000000E+00  0.12303897621E+03  0.12303897621E+03  0.00000000000E+00 0. -1.
         21   -1    0    0  504  502 -0.00000000000E+00 -0.00000000000E+00 -0.77304343778E+03  0.77304343778E+03  0.00000000000E+00 0. -1.
         25    1    1    2    0    0  0.24451399830E+03 -0.43447855585E+02 -0.15894779447E+03  0.32025647985E+03  0.12500000000E+03 0.  0.
         21    1    1    2  503  502 -0.47556344693E-01 -0.29874160829E+02 -0.13177081861E+03  0.13511482666E+03  0.00000000000E+00 0.  1.
         21    1    1    2  504  501 -0.24446644195E+03  0.73322016414E+02 -0.35928584849E+03  0.44071110748E+03  0.00000000000E+00 0. -1.
<mgrwt>
<rscale>  4 0.27998002E+03</rscale>
<asrwt>0</asrwt>
<pdfrwt beam="1">  1       21 0.18929073E-01 0.27998002E+03</pdfrwt>
<pdfrwt beam="2">  1       21 0.11892976E+00 0.27998002E+03</pdfrwt>
<totfact> 0.13121131E+04</totfact>
</mgrwt>
</event>
<event>
 5    0  0.1283376E+001  0.2624671E+03  0.7546771E-02  0.1105670E+00
         21   -1    0    0  503  501  0.00000000000E+00  0.00000000000E+00  0.24390268601E+03  0.24390268601E+03  0.00000000000E+00 0.  1.
         21   -1    0    0  504  502 -0.00000000000E+00 -0.00000000000E+00 -0.78006786474E+03  0.78006786474E+03  0.00000000000E+00 0. -1.
         25    1    1    2    0    0 -0.14753815073E+03  0.18146603750E+03  0.13814216456E+03  0.29900783654E+03  0.12500000000E+03 0.  0.
         21    1    1    2  503  502  0.16715282575E+03 -0.13255493369E+03 -0.55172819925E+03  0.59153603733E+03  0.00000000000E+00 0. -1.
         21    1    1    2  504  501 -0.19614675028E+02 -0.48911103808E+02 -0.12257914404E+03  0.13342667689E+03  0.00000000000E+00 0.  1.
<mgrwt>
<rscale>  4 0.26246707E+03</rscale>
<asrwt>0</asrwt>
<pdfrwt beam="1">  1       21 0.37523490E-01 0.26246707E+03</pdfrwt>
<pdfrwt beam="2">  1       21 0.12001044E+00 0.26246707E+03</pdfrwt>
<totfact> 0.34326619E+03</totfact>
</mgrwt>
</event>
<event>
 5    0  0.1283376E+001  0.2305008E+03  0.7546771E-02  0.1126288E+00
         21   -1    0    0  502  501  0.00000000000E+00  0.00000000000E+00  0.79814507967E+03  0.79814507967E+03  0.00000000000E+00 0. -1.
         21   -1    0    0  503  502 -0.00000000000E+00 -0.00000000000E+00 -0.22157779915E+03  0.22157779915E+03  0.00000000000E+00 0. -1.
         25    1    1    2    0    0  0.12879164764E+03  0.17423128359E+03  0.70268440552E+03  0.74587814182E+03  0.12500000000E+03 0.  0.
         21    1    1    2  503  504 -0.11232344708E+03 -0.15590727028E+03 -0.14669066656E+03  0.24174735851E+03  0.00000000000E+00 0. -1.
         21    1    1    2  504  501 -0.16468200564E+02 -0.18324013309E+02  0.20573541567E+02  0.32097378493E+02  0.00000000000E+00 0. -1.
<mgrwt>
<rscale>  4 0.23050077E+03</rscale>
<asrwt>0</asrwt>
<pdfrwt beam="1">  1       21 0.12279155E+00 0.23050077E+03</pdfrwt>
<pdfrwt beam="2">  1       21 0.34088893E-01 0.23050077E+03</pdfrwt>
<totfact> 0.40137055E+03</totfact>
</mgrwt>
</event>
<event>
 5    0  0.1283376E+001  0.2329853E+03  0.7546771E-02  0.1124556E+00
         21   -1    0    0  504  501  0.00000000000E+00  0.00000000000E+00  0.25918726421E+03  0.25918726421E+03  0.00000000000E+00 0. -1.
         21   -1    0    0  501  502 -0.00000000000E+00 -0.00000000000E+00 -0.89559809990E+03  0.89559809990E+03  0.00000000000E+00 0. -1.
         25    1    1    2    0    0 -0.17361698130E+03 -0.12171855495E+03  0.16100554394E+03  0.29411910511E+03  0.12500000000E+03 0.  0.
         21    1    1    2  503  502  0.72159044255E+02  0.61632790619E+01 -0.62683199133E+03  0.63100179004E+03  0.00000000000E+00 0. -1.
         21    1    1    2  504  503  0.10145793704E+03  0.11555527589E+03 -0.17058438830E+03  0.22966446897E+03  0.00000000000E+00 0. -1.
<mgrwt>
<rscale>  4 0.23298530E+03</rscale>
<asrwt>0</asrwt>
<pdfrwt beam="1">  1       21 0.39874964E-01 0.23298530E+03</pdfrwt>
<pdfrwt beam="2">  1       21 0.13778432E+00 0.23298530E+03</pdfrwt>
<totfact> 0.21822837E+03</totfact>
</mgrwt>
</event>
<event>
 5    0  0.1283376E+001  0.3293935E+03  0.7546771E-02  0.1071406E+00
         21   -1    0    0  504  501  0.00000000000E+00  0.00000000000E+00  0.13978583237E+03  0.13978583237E+03  0.00000000000E+00 0. -1.
         21   -1    0    0  501  502 -0.00000000000E+00 -0.00000000000E+00 -0.18042982706E+04  0.18042982706E+04  0.00000000000E+00 0. -1.
         25    1    1    2    0    0 -0.53949574893E+02  0.30587370236E+03 -0.16002718675E+03  0.37108352015E+03  0.12500000000E+03 0.  0.
         21    1    1    2  503  502  0.10114515797E+03 -0.86542752252E+01 -0.80701389044E+03  0.81337362806E+03  0.00000000000E+00 0. -1.
         21    1    1    2  504  503 -0.47195583077E+02 -0.29721942714E+03 -0.69747136101E+03  0.75962695474E+03  0.00000000000E+00 0. -1.
<mgrwt>
<rscale>  4 0.32939350E+03</rscale>
<asrwt>0</asrwt>
<pdfrwt beam="1">  1       21 0.21505512E-01 0.32939350E+03</pdfrwt>
<pdfrwt beam="2">  1       21 0.27758436E+00 0.32939350E+03</pdfrwt>
<totfact> 0.80836124E+02</totfact>
</mgrwt>
</event>
<event>
 5    0  0.1283376E+001  0.2964085E+03  0.7546771E-02  0.1087050E+00
         21   -1    0    0  504  501  0.00000000000E+00  0.00000000000E+00  0.43556894209E+03  0.43556894209E+03  0.00000000000E+00 0. -1.
         21   -1    0    0  501  502 -0.00000000000E+00 -0.00000000000E+00 -0.69783265768E+03  0.69783265768E+03  0.00000000000E+00 0.  1.
         25    1    1    2    0    0  0.18875457548E+02  0.24426260425E+03  0.19060730250E+03  0.33462911783E+03  0.12500000000E+03 0.  0.
         21    1    1    2  503  502 -0.27659064432E+02  0.75140030330E+02 -0.47193669637E+03  0.47868078443E+03  0.00000000000E+00 0.  1.
         21    1    1    2  504  503  0.87836068846E+01 -0.31940263458E+03  0.19065678280E+02  0.32009169751E+03  0.00000000000E+00 0. -1.
<mgrwt>
<rscale>  4 0.29640849E+03</rscale>
<asrwt>0</asrwt>
<pdfrwt beam="1">  1       21 0.67010607E-01 0.29640849E+03</pdfrwt>
<pdfrwt beam="2">  1       21 0.10735887E+00 0.29640849E+03</pdfrwt>
<totfact> 0.13014892E+03</totfact>
</mgrwt>
</event>
<event>
 5    0  0.1283376E+001  0.2717148E+03  0.7546771E-02  0.1100302E+00
         21   -1    0    0  504  501  0.00000000000E+00  0.00000000000E+00  0.11937850452E+03  0.11937850452E+03  0.00000000000E+00 0.  1.
         21   -1    0    0  503  502 -0.00000000000E+00 -0.00000000000E+00 -0.98674292432E+03  0.98674292432E+03  0.00000000000E+00 0.  1.
         25    1    1    2    0    0  0.82364864659E+02  0.23105721658E+03 -0.61897552697E+03  0.67744159250E+03  0.12500000000E+03 0.  0.
         21    1    1    2  503  501 -0.60465338608E+02 -0.23270956960E+03 -0.72080335687E+02  0.25100871648E+03  0.00000000000E+00 0.  1.
         21    1    1    2  504  502 -0.21899526051E+02  0.16523530167E+01 -0.17630855715E+03  0.17767111987E+03  0.00000000000E+00 0.  1.
<mgrwt>
<rscale>  4 0.27171476E+03</rscale>
<asrwt>0</asrwt>
<pdfrwt beam="1">  1       21 0.18365924E-01 0.27171476E+03</pdfrwt>
<pdfrwt beam="2">  1       21 0.15180660E+00 0.27171476E+03</pdfrwt>
<totfact> 0.74208369E+03</totfact>
</mgrwt>
</event>
<event>
 5    0  0.1283376E+001  0.2717361E+03  0.7546771E-02  0.1100290E+00
         21   -1    0    0  504  501  0.00000000000E+00  0.00000000000E+00  0.90574349573E+03  0.90574349573E+03  0.00000000000E+00 0. -1.
         21   -1    0    0  501  502 -0.00000000000E+00 -0.00000000000E+00 -0.63471907413E+03  0.63471907413E+03  0.00000000000E+00 0.  1.
         25    1    1    2    0    0  0.18237439100E+03  0.15934315143E+03  0.84910711513E+03  0.89177270162E+03  0.12500000000E+03 0.  0.
         21    1    1    2  503  502 -0.17026706248E+03 -0.13331909416E+03 -0.58090275811E+03  0.61984906857E+03  0.00000000000E+00 0.  1.
         21    1    1    2  504  503 -0.12107328513E+02 -0.26024057277E+02  0.28200645827E+01  0.28840799662E+02  0.00000000000E+00 0.  1.
<mgrwt>
<rscale>  4 0.27173612E+03</rscale>
<asrwt>0</asrwt>
<pdfrwt beam="1">  1       21 0.13934515E+00 0.27173612E+03</pdfrwt>
<pdfrwt beam="2">  1       21 0.97649088E-01 0.27173612E+03</pdfrwt>
<totfact> 0.29009060E+02</totfact>
</mgrwt>
</event>
<event>
 5    0  0.1283376E+001  0.2512696E+03  0.7546771E-02  0.1112505E+00
         21   -1    0    0  504  501  0.00000000000E+00  0.00000000000E+00  0.58479962503E+03  0.58479962503E+03  0.00000000000E+00 0. -1.
         21   -1    0    0  501  502 -0.00000000000E+00 -0.00000000000E+00 -0.46509339786E+03  0.46509339786E+03  0.00000000000E+00 0. -1.
         25    1    1    2    0    0 -0.35400714097E+02 -0.20562024474E+03  0.34208896357E+03  0.41974129485E+03  0.12500000000E+03 0.  0.
         21    1    1    2  503  502  0.10931293284E+02 -0.27630123185E+02 -0.35800185873E+03  0.35923286004E+03  0.00000000000E+00 0. -1.
         21    1    1    2  504  503  0.24469420814E+02  0.23325036793E+03  0.13561912232E+03  0.27091886799E+03  0.00000000000E+00 0. -1.
<mgrwt>
<rscale>  4 0.25126962E+03</rscale>
<asrwt>0</asrwt>
<pdfrwt beam="1">  1       21 0.89969173E-01 0.25126962E+03</pdfrwt>
<pdfrwt beam="2">  1       21 0.71552830E-01 0.25126962E+03</pdfrwt>
<totfact> 0.17684424E+03</totfact>
</mgrwt>
</event>
<event>
 5    0  0.1283376E+001  0.2479325E+03  0.7546771E-02  0.1114618E+00
         21   -1    0    0  504  501  0.00000000000E+00  0.00000000000E+00  0.47169820461E+03  0.47169820461E+03  0.00000000000E+00 0. -1.
         21   -1    0    0  501  502 -0.00000000000E+00 -0.00000000000E+00 -0.12025338962E+04  0.12025338962E+04  0.00000000000E+00 0. -1.
         25    1    1    2    0    0  0.19630953509E+03 -0.90035590872E+02  0.42502825800E+03  0.49286698133E+03  0.12500000000E+03 0.  0.
         21    1    1    2  503  502 -0.42260799589E+02  0.34893218263E+00 -0.49764465090E+03  0.49943597738E+03  0.00000000000E+00 0. -1.
         21    1    1    2  504  503 -0.15404873551E+03  0.89686658689E+02 -0.65821929869E+03  0.68192914209E+03  0.00000000000E+00 0. -1.
<mgrwt>
<rscale>  4 0.24793248E+03</rscale>
<asrwt>0</asrwt>
<pdfrwt beam="1">  1       21 0.72568954E-01 0.24793248E+03</pdfrwt>
<pdfrwt beam="2">  1       21 0.18500522E+00 0.24793248E+03</pdfrwt>
<totfact> 0.27055632E+02</totfact>
</mgrwt>
</event>
<event>
 5    0  0.1283376E+001  0.3224635E+03  0.7546771E-02  0.1074521E+00
         21   -1    0    0  504  501  0.00000000000E+00  0.00000000000E+00  0.99388036784E+03  0.99388036784E+03  0.00000000000E+00 0.  1.
         21   -1    0    0  501  502 -0.00000000000E+00 -0.00000000000E+00 -0.13279765539E+03  0.13279765539E+03  0.00000000000E+00 0.  1.
         25    1    1    2    0    0  0.48515684514E+01  0.27752658550E+03  0.54027191595E+03  0.62013166872E+03  0.12500000000E+03 0.  0.
         21    1    1    2  503  502 -0.67839631261E+02  0.25518725464E+02  0.11116858801E+03  0.13270974297E+03  0.00000000000E+00 0.  1.
         21    1    1    2  504  503  0.62988062809E+02 -0.30304531097E+03  0.20964220849E+03  0.37383661155E+03  0.00000000000E+00 0.  1.
<mgrwt>
<rscale>  4 0.32246349E+03</rscale>
<asrwt>0</asrwt>
<pdfrwt beam="1">  1       21 0.15290467E+00 0.32246349E+03</pdfrwt>
<pdfrwt beam="2">  1       21 0.20430409E-01 0.32246349E+03</pdfrwt>
<totfact> 0.57973319E+03</totfact>
</mgrwt>
</event>
<event>
 5    0  0.1283376E+001  0.3727621E+03  0.7546771E-02  0.1053642E+00
         21   -1    0    0  503  501  0.00000000000E+00  0.00000000000E+00  0.14123648000E+04  0.14123648000E+04  0.00000000000E+00 0.  1.
         21   -1    0    0  504  502 -0.00000000000E+00 -0.00000000000E+00 -0.27176628477E+03  0.27176628477E+03  0.00000000000E+00 0.  1.
         25    1    1    2    0    0  0.25539267450E+02  0.38110458653E+03  0.38927722588E+03  0.55951292983E+03  0.12500000000E+03 0.  0.
         21    1    1    2  503  502  0.45742018928E+02 -0.47723008000E+02 -0.14840865639E+03  0.16246521806E+03  0.00000000000E+00 0.  1.
         21    1    1    2  504  501 -0.71281286378E+02 -0.33338157853E+03  0.89972994570E+03  0.96215293685E+03  0.00000000000E+00 0.  1.
<mgrwt>
<rscale>  4 0.37276215E+03</rscale>
<asrwt>0</asrwt>
<pdfrwt beam="1">  1       21 0.21728689E+00 0.37276215E+03</pdfrwt>
<pdfrwt beam="2">  1       21 0.41810199E-01 0.37276215E+03</pdfrwt>
<totfact> 0.49194000E+02</totfact>
</mgrwt>
</event>
<event>
 5    0  0.1283376E+001  0.7290999E+03  0.7546771E-02  0.9668722E-01
         21   -1    0    0  503  501  0.00000000000E+00  0.00000000000E+00  0.13899453820E+04  0.13899453820E+04  0.00000000000E+00 0. -1.
         21   -1    0    0  504  502 -0.00000000000E+00 -0.00000000000E+00 -0.12908304053E+04  0.12908304053E+04  0.00000000000E+00 0. -1.
         25    1    1    2    0    0  0.57557794645E+03 -0.41967923991E+03  0.11212211641E+04  0.13342348128E+04  0.12500000000E+03 0.  0.
         21    1    1    2  503  502  0.54369034728E+02 -0.24661915188E+02 -0.24409750810E+03  0.25129225109E+03  0.00000000000E+00 0. -1.
         21    1    1    2  504  501 -0.62994698118E+03  0.44434115510E+03 -0.77800867929E+03  0.10952487235E+04  0.00000000000E+00 0. -1.
<mgrwt>
<rscale>  4 0.72909989E+03</rscale>
<asrwt>0</asrwt>
<pdfrwt beam="1">  1       21 0.21383775E+00 0.72909989E+03</pdfrwt>
<pdfrwt beam="2">  1       21 0.19858929E+00 0.72909989E+03</pdfrwt>
<totfact> 0.95843631E+00</totfact>
</mgrwt>
</event>
<event>
 5    0  0.1283376E+001  0.2477362E+03  0.7546771E-02  0.1114744E+00
         21   -1    0    0  504  501  0.00000000000E+00  0.00000000000E+00  0.40497412931E+03  0.40497412931E+03  0.00000000000E+00 0. -1.
         21   -1    0    0  501  502 -0.00000000000E+00 -0.00000000000E+00 -0.25714212680E+03  0.25714212680E+03  0.00000000000E+00 0. -1.
         25    1    1    2    0    0 -0.73255474898E+02  0.19742660730E+03 -0.76203202289E+02  0.25646745975E+03  0.12500000000E+03 0.  0.
         21    1    1    2  503  502 -0.21589709224E+02 -0.46756995502E+01 -0.51633792085E+02  0.56160717550E+02  0.00000000000E+00 0.  1.
         21    1    1    2  504  503  0.94845184122E+02 -0.19275090775E+03  0.27566899688E+03  0.34948807881E+03  0.00000000000E+00 0. -1.
<mgrwt>
<rscale>  4 0.24773620E+03</rscale>
<asrwt>0</asrwt>
<pdfrwt beam="1">  1       21 0.62303712E-01 0.24773620E+03</pdfrwt>
<pdfrwt beam="2">  1       21 0.39560327E-01 0.24773620E+03</pdfrwt>
<totfact> 0.14248302E+04</totfact>
</mgrwt>
</event>
<event>
 5    0  0.1283376E+001  0.2684471E+03  0.7546771E-02  0.1102172E+00
         21   -1    0    0  504  501  0.00000000000E+00  0.00000000000E+00  0.54755057574E+03  0.54755057574E+03  0.00000000000E+00 0.  1.
         21   -1    0    0  503  502 -0.00000000000E+00 -0.00000000000E+00 -0.79165081894E+03  0.79165081894E+03  0.00000000000E+00 0. -1.
         25    1    1    2    0    0 -0.15006574063E+03 -0.17962184257E+03  0.47009164957E+03  0.53981005162E+03  0.12500000000E+03 0.  0.
         21    1    1    2  503  501  0.13360115418E+03  0.19665050835E+03 -0.73207586200E+03  0.76971147748E+03  0.00000000000E+00 0. -1.
         21    1    1    2  504  502  0.16464586445E+02 -0.17028665784E+02  0.17883969236E+02  0.29679865580E+02  0.00000000000E+00 0. -1.
<mgrwt>
<rscale>  4 0.26844711E+03</rscale>
<asrwt>0</asrwt>
<pdfrwt beam="1">  1       21 0.84238550E-01 0.26844711E+03</pdfrwt>
<pdfrwt beam="2">  1       21 0.12179243E+00 0.26844711E+03</pdfrwt>
<totfact> 0.57998230E+02</totfact>
</mgrwt>
</event>
<event>
 5    0  0.1283376E+001  0.3148731E+03  0.7546771E-02  0.1078033E+00
         21   -1    0    0  503  501  0.00000000000E+00  0.00000000000E+00  0.62090803796E+03  0.62090803796E+03  0.00000000000E+00 0. -1.
         21   -1    0    0  504  502 -0.00000000000E+00 -0.00000000000E+00 -0.25223397632E+03  0.25223397632E+03  0.00000000000E+00 0. -1.
         25    1    1    2    0    0 -0.28380263101E+03 -0.36956067182E+02  0.42483980820E+03  0.52727938221E+03  0.12500000000E+03 0.  0.
         21    1    1    2  503  502  0.29069293987E+03  0.71782319432E+02 -0.28353123022E+02  0.30076400426E+03  0.00000000000E+00 0. -1.
         21    1    1    2  504  501 -0.68903088591E+01 -0.34826252250E+02 -0.27812623542E+02  0.45098627809E+02  0.00000000000E+00 0. -1.
<mgrwt>
<rscale>  4 0.31487310E+03</rscale>
<asrwt>0</asrwt>
<pdfrwt beam="1">  1       21 0.95524313E-01 0.31487310E+03</pdfrwt>
<pdfrwt beam="2">  1       21 0.38805227E-01 0.31487310E+03</pdfrwt>
<totfact> 0.54314340E+03</totfact>
</mgrwt>
</event>
<event>
 5    0  0.1283376E+001  0.2442444E+03  0.7546771E-02  0.1116997E+00
         21   -1    0    0  504  501  0.00000000000E+00  0.00000000000E+00  0.10204378255E+03  0.10204378255E+03  0.00000000000E+00 0. -1.
         21   -1    0    0  501  502 -0.00000000000E+00 -0.00000000000E+00 -0.61255730058E+03  0.61255730058E+03  0.00000000000E+00 0. -1.
         25    1    1    2    0    0 -0.18169615011E+02 -0.21843075146E+03 -0.21099033582E+03  0.32891343832E+03  0.12500000000E+03 0.  0.
         21    1    1    2  503  502 -0.16323487734E+02  0.19684433176E+02 -0.95172601783E+02  0.98548248545E+02  0.00000000000E+00 0.  1.
         21    1    1    2  504  503  0.34493102744E+02  0.19874631829E+03 -0.20435058043E+03  0.28713939627E+03  0.00000000000E+00 0. -1.
<mgrwt>
<rscale>  4 0.24424438E+03</rscale>
<asrwt>0</asrwt>
<pdfrwt beam="1">  1       21 0.15699044E-01 0.24424438E+03</pdfrwt>
<pdfrwt beam="2">  1       21 0.94239582E-01 0.24424438E+03</pdfrwt>
<totfact> 0.33186143E+04</totfact>
</mgrwt>
</event>
<event>
 5    0  0.1283376E+001  0.3315755E+03  0.7546771E-02  0.1070442E+00
         21   -1    0    0  504  501  0.00000000000E+00  0.00000000000E+00  0.13223225611E+03  0.13223225611E+03  0.00000000000E+00 0. -1.
         21   -1    0    0  501  502 -0.00000000000E+00 -0.00000000000E+00 -0.12853542089E+04  0.12853542089E+04  0.00000000000E+00 0. -1.
         25    1    1    2    0    0  0.10908132510E+03  0.31364243817E+03 -0.53393779505E+03  0.64108102725E+03  0.12500000000E+03 0.  0.
         21    1    1    2  503  502 -0.16350889138E+03 -0.14435086640E+02 -0.20343180249E+03  0.26139630363E+03  0.00000000000E+00 0.  1.
         21    1    1    2  504  503  0.54427566284E+02 -0.29920735153E+03 -0.41575235530E+03  0.51510913418E+03  0.00000000000E+00 0. -1.
<mgrwt>
<rscale>  4 0.33157546E+03</rscale>
<asrwt>0</asrwt>
<pdfrwt beam="1">  1       21 0.20343425E-01 0.33157546E+03</pdfrwt>
<pdfrwt beam="2">  1       21 0.19774680E+00 0.33157546E+03</pdfrwt>
<totfact> 0.27958407E+03</totfact>
</mgrwt>
</event>
<event>
 5    0  0.1283376E+001  0.2741156E+03  0.7546771E-02  0.1098947E+00
         21   -1    0    0  504  501  0.00000000000E+00  0.00000000000E+00  0.22495556688E+03  0.22495556688E+03  0.00000000000E+00 0. -1.
         21   -1    0    0  503  502 -0.00000000000E+00 -0.00000000000E+00 -0.17159740968E+04  0.17159740968E+04  0.00000000000E+00 0. -1.
         25    1    1    2    0    0 -0.17697584221E+03 -0.16747946898E+03  0.12250759773E+03  0.30000488789E+03  0.12500000000E+03 0.  0.
         21    1    1    2  503  501  0.15504395110E+03  0.19673425953E+03 -0.12046101903E+04  0.12303774649E+04  0.00000000000E+00 0. -1.
         21    1    1    2  504  502  0.21931891113E+02 -0.29254790545E+02 -0.40891593733E+03  0.41054731081E+03  0.00000000000E+00 0. -1.
<mgrwt>
<rscale>  4 0.27411557E+03</rscale>
<asrwt>0</asrwt>
<pdfrwt beam="1">  1       21 0.34608549E-01 0.27411557E+03</pdfrwt>
<pdfrwt beam="2">  1       21 0.26399601E+00 0.27411557E+03</pdfrwt>
<totfact> 0.40345589E+02</totfact>
</mgrwt>
</event>
<event>
 5    0  0.1283376E+001  0.2117914E+03  0.7546771E-02  0.1140155E+00
         21   -1    0    0  503  501  0.00000000000E+00  0.00000000000E+00  0.18382986668E+03  0.18382986668E+03  0.00000000000E+00 0.  1.
         21   -1    0    0  504  502 -0.00000000000E+00 -0.00000000000E+00 -0.11026937135E+04  0.11026937135E+04  0.00000000000E+00 0. -1.
         25    1    1    2    0    0 -0.21446871788E+03 -0.26527115352E+02 -0.33664422457E+03  0.41911198114E+03  0.12500000000E+03 0.  0.
         21    1    1    2  503  502  0.55591305928E+02 -0.19779222871E+02 -0.67507765700E+03  0.67765142510E+03  0.00000000000E+00 0. -1.
         21    1    1    2  504  501  0.15887741195E+03  0.46306338223E+02  0.92858034772E+02  0.18976017393E+03  0.00000000000E+00 0.  1.
<mgrwt>
<rscale>  4 0.21179142E+03</rscale>
<asrwt>0</asrwt>
<pdfrwt beam="1">  1       21 0.28281518E-01 0.21179142E+03</pdfrwt>
<pdfrwt beam="2">  1       21 0.16964519E+00 0.21179142E+03</pdfrwt>
<totfact> 0.25192198E+03</totfact>
</mgrwt>
</event>
<event>
 5    0  0.1283376E+001  0.2738831E+03  0.7546771E-02  0.1099078E+00
         21   -1    0    0  503  501  0.00000000000E+00  0.00000000000E+00  0.20749114045E+04  0.20749114045E+04  0.00000000000E+00 0. -1.
         21   -1    0    0  504  502 -0.00000000000E+00 -0.00000000000E+00 -0.11663920873E+03  0.11663920873E+03  0.00000000000E+00 0. -1.
         25    1    1    2    0    0  0.64963956870E+02 -0.23460124464E+03  0.18297495768E+04  0.18500990712E+04  0.12500000000E+03 0.  0.
         21    1    1    2  503  502 -0.14426844639E+02  0.25090544257E+03  0.66832405872E+02  0.26005431247E+03  0.00000000000E+00 0. -1.
         21    1    1    2  504  501 -0.50537112232E+02 -0.16304197929E+02  0.61690213176E+02  0.81397229588E+02  0.00000000000E+00 0.  1.
<mgrwt>
<rscale>  4 0.27388305E+03</rscale>
<asrwt>0</asrwt>
<pdfrwt beam="1">  1       21 0.31921711E+00 0.27388305E+03</pdfrwt>
<pdfrwt beam="2">  1       21 0.17944495E-01 0.27388305E+03</pdfrwt>
<totfact> 0.67730639E+02</totfact>
</mgrwt>
</event>
<event>
 5    0  0.1283376E+001  0.2449444E+03  0.7546771E-02  0.1116542E+00
         21   -1    0    0  504  501  0.00000000000E+00  0.00000000000E+00  0.91064457040E+03  0.91064457040E+03  0.00000000000E+00 0. -1.
         21   -1    0    0  503  502 -0.00000000000E+00 -0.00000000000E+00 -0.12540089104E+03  0.12540089104E+03  0.00000000000E+00 0. -1.
         25    1    1    2    0    0 -0.12678809860E+03 -0.16247432273E+03  0.68154251350E+03  0.72290962451E+03  0.12500000000E+03 0.  0.
         21    1    1    2  503  501  0.10522375287E+03  0.21005460738E+03  0.54067117598E+02  0.24107722716E+03  0.00000000000E+00 0. -1.
         21    1    1    2  504  502  0.21564345725E+02 -0.47580284653E+02  0.49634048260E+02  0.72058609762E+02  0.00000000000E+00 0. -1.
<mgrwt>
<rscale>  4 0.24494435E+03</rscale>
<asrwt>0</asrwt>
<pdfrwt beam="1">  1       21 0.14009916E+00 0.24494435E+03</pdfrwt>
<pdfrwt beam="2">  1       21 0.19292445E-01 0.24494435E+03</pdfrwt>
<totfact> 0.85018720E+03</totfact>
</mgrwt>
</event>
<event>
 5    0  0.1283376E+001  0.2699659E+03  0.7546771E-02  0.1101299E+00
         21   -1    0    0  504  501  0.00000000000E+00  0.00000000000E+00  0.12997624465E+04  0.12997624465E+04  0.00000000000E+00 0.  1.
         21   -1    0    0  501  502 -0.00000000000E+00 -0.00000000000E+00 -0.60163975639E+02  0.60163975639E+02  0.00000000000E+00 0.  1.
         25    1    1    2    0    0 -0.16167221319E+03 -0.17391371823E+03  0.48041621032E+03  0.55028049306E+03  0.12500000000E+03 0.  0.
         21    1    1    2  503  502  0.18730224748E+03  0.15427564734E+03  0.59980825157E+03  0.64703403769E+03  0.00000000000E+00 0.  1.
         21    1    1    2  504  503 -0.25630034286E+02  0.19638070887E+02  0.15937400895E+03  0.16261189137E+03  0.00000000000E+00 0.  1.
<mgrwt>
<rscale>  4 0.26996595E+03</rscale>
<asrwt>0</asrwt>
<pdfrwt beam="1">  1       21 0.19996343E+00 0.26996595E+03</pdfrwt>
<pdfrwt beam="2">  1       21 0.92559972E-02 0.26996595E+03</pdfrwt>
<totfact> 0.11825819E+04</totfact>
</mgrwt>
</event>
<event>
 5    0  0.1283376E+001  0.2423065E+03  0.7546771E-02  0.1118266E+00
         21   -1    0    0  504  501  0.00000000000E+00  0.00000000000E+00  0.55825639836E+03  0.55825639836E+03  0.00000000000E+00 0.  1.
         21   -1    0    0  503  502 -0.00000000000E+00 -0.00000000000E+00 -0.15876002885E+04  0.15876002885E+04  0.00000000000E+00 0.  1.
         25    1    1    2    0    0  0.40105957374E+02 -0.21770126676E+03  0.43026675675E+03  0.49975675216E+03  0.12500000000E+03 0.  0.
         21    1    1    2  503  501 -0.49563881828E+02  0.16825342843E+03  0.99437460585E+01  0.17568344443E+03  0.00000000000E+00 0.  1.
         21    1    1    2  504  502  0.94579244541E+01  0.49447838327E+02 -0.14695543929E+04  0.14704164902E+04  0.00000000000E+00 0.  1.
<mgrwt>
<rscale>  4 0.24230655E+03</rscale>
<asrwt>0</asrwt>
<pdfrwt beam="1">  1       21 0.85885601E-01 0.24230655E+03</pdfrwt>
<pdfrwt beam="2">  1       21 0.24424620E+00 0.24230655E+03</pdfrwt>
<totfact> 0.78502709E+01</totfact>
</mgrwt>
</event>
<event>
 5    0  0.1283376E+001  0.3321448E+03  0.7546771E-02  0.1070192E+00
         21   -1    0    0  504  501  0.00000000000E+00  0.00000000000E+00  0.47206710947E+03  0.47206710947E+03  0.00000000000E+00 0.  1.
         21   -1    0    0  503  502 -0.00000000000E+00 -0.00000000000E+00 -0.12293493075E+04  0.12293493075E+04  0.00000000000E+00 0.  1.
         25    1    1    2    0    0 -0.16365620074E+03  0.25310324972E+03  0.17178303159E+03  0.36875332812E+03  0.12500000000E+03 0.  0.
         21    1    1    2  503  501  0.18383832076E+03 -0.25684233562E+03  0.78036321767E+02  0.32535239520E+03  0.00000000000E+00 0.  1.
         21    1    1    2  504  502 -0.20182120017E+02  0.37390858963E+01 -0.10071015514E+04  0.10073106937E+04  0.00000000000E+00 0.  1.
<mgrwt>
<rscale>  4 0.33214484E+03</rscale>
<asrwt>0</asrwt>
<pdfrwt beam="1">  1       21 0.72625710E-01 0.33214484E+03</pdfrwt>
<pdfrwt beam="2">  1       21 0.18913066E+00 0.33214484E+03</pdfrwt>
<totfact> 0.23573776E+02</totfact>
</mgrwt>
</event>
<event>
 5    0  0.1283376E+001  0.2134443E+03  0.7546771E-02  0.1138867E+00
         21   -1    0    0  504  501  0.00000000000E+00  0.00000000000E+00  0.65330288540E+02  0.65330288540E+02  0.00000000000E+00 0. -1.
         21   -1    0    0  503  502 -0.00000000000E+00 -0.00000000000E+00 -0.12745674927E+04  0.12745674927E+04  0.00000000000E+00 0. -1.
         25    1    1    2    0    0  0.24636057243E+03  0.21597640274E+02 -0.54137527749E+03  0.60817117721E+03  0.12500000000E+03 0.  0.
         21    1    1    2  503  501 -0.14376668670E+03  0.33372653594E+02 -0.19388471245E+03  0.24366755208E+03  0.00000000000E+00 0. -1.
         21    1    1    2  504  502 -0.10259388572E+03 -0.54970293868E+02 -0.47397721425E+03  0.48805905199E+03  0.00000000000E+00 0. -1.
<mgrwt>
<rscale>  4 0.21344431E+03</rscale>
<asrwt>0</asrwt>
<pdfrwt beam="1">  1       21 0.10050814E-01 0.21344431E+03</pdfrwt>
<pdfrwt beam="2">  1       21 0.19608730E+00 0.21344431E+03</pdfrwt>
<totfact> 0.11255922E+04</totfact>
</mgrwt>
</event>
<event>
 5    0  0.1283376E+001  0.3005248E+03  0.7546771E-02  0.1084979E+00
         21   -1    0    0  503  501  0.00000000000E+00  0.00000000000E+00  0.92421092535E+02  0.92421092535E+02  0.00000000000E+00 0. -1.
         21   -1    0    0  504  502 -0.00000000000E+00 -0.00000000000E+00 -0.12931483895E+04  0.12931483895E+04  0.00000000000E+00 0.  1.
         25    1    1    2    0    0 -0.52453748951E+02 -0.25322389746E+03 -0.50985528832E+03  0.58519326129E+03  0.12500000000E+03 0.  0.
         21    1    1    2  503  502  0.14880284100E+01 -0.25386267818E+02 -0.37600630679E+03  0.37686525386E+03  0.00000000000E+00 0.  1.
         21    1    1    2  504  501  0.50965720541E+02  0.27861016528E+03 -0.31486570185E+03  0.42351096688E+03  0.00000000000E+00 0. -1.
<mgrwt>
<rscale>  4 0.30052483E+03</rscale>
<asrwt>0</asrwt>
<pdfrwt beam="1">  1       21 0.14218631E-01 0.30052483E+03</pdfrwt>
<pdfrwt beam="2">  1       21 0.19894589E+00 0.30052483E+03</pdfrwt>
<totfact> 0.54457184E+03</totfact>
</mgrwt>
</event>
<event>
 5    0  0.1283376E+001  0.2314719E+03  0.7546771E-02  0.1125608E+00
         21   -1    0    0  504  501  0.00000000000E+00  0.00000000000E+00  0.82252157510E+03  0.82252157510E+03  0.00000000000E+00 0. -1.
         21   -1    0    0  501  502 -0.00000000000E+00 -0.00000000000E+00 -0.11872720754E+03  0.11872720754E+03  0.00000000000E+00 0. -1.
         25    1    1    2    0    0  0.34376776360E+02  0.19837832398E+03  0.64229842611E+03  0.68462251669E+03  0.12500000000E+03 0.  0.
         21    1    1    2  503  502  0.23292702151E+02 -0.17444849326E+03  0.11026120632E+02  0.17634171971E+03  0.00000000000E+00 0. -1.
         21    1    1    2  504  503 -0.57669478510E+02 -0.23929830712E+02  0.50469820816E+02  0.80284546227E+02  0.00000000000E+00 0. -1.
<mgrwt>
<rscale>  4 0.23147187E+03</rscale>
<asrwt>0</asrwt>
<pdfrwt beam="1">  1       21 0.12654178E+00 0.23147187E+03</pdfrwt>
<pdfrwt beam="2">  1       21 0.18265725E-01 0.23147187E+03</pdfrwt>
<totfact> 0.12318355E+04</totfact>
</mgrwt>
</event>
<event>
 5    0  0.1283376E+001  0.2876244E+03  0.7546771E-02  0.1091596E+00
         21   -1    0    0  504  501  0.00000000000E+00  0.00000000000E+00  0.20228754346E+04  0.20228754346E+04  0.00000000000E+00 0.  1.
         21   -1    0    0  503  502 -0.00000000000E+00 -0.00000000000E+00 -0.47095761979E+03  0.47095761979E+03  0.00000000000E+00 0.  1.
         25    1    1    2    0    0 -0.16743180136E+03 -0.19807782580E+03  0.19368173947E+04  0.19580998069E+04  0.12500000000E+03 0.  0.
         21    1    1    2  503  501 -0.31907248038E+02  0.44883652277E+02  0.20455491697E+02  0.58745568851E+02  0.00000000000E+00 0.  1.
         21    1    1    2  504  502  0.19933904940E+03  0.15319417352E+03 -0.40535507167E+03  0.47698767861E+03  0.00000000000E+00 0.  1.
<mgrwt>
<rscale>  4 0.28762437E+03</rscale>
<asrwt>0</asrwt>
<pdfrwt beam="1">  1       21 0.31121160E+00 0.28762437E+03</pdfrwt>
<pdfrwt beam="2">  1       21 0.72455020E-01 0.28762437E+03</pdfrwt>
<totfact> 0.44088312E+01</totfact>
</mgrwt>
</event>
<event>
 5    0  0.1283376E+001  0.2670652E+03  0.7546771E-02  0.1102971E+00
         21   -1    0    0  503  501  0.00000000000E+00  0.00000000000E+00  0.15605789457E+04  0.15605789457E+04  0.00000000000E+00 0. -1.
         21   -1    0    0  504  502 -0.00000000000E+00 -0.00000000000E+00 -0.40568714203E+03  0.40568714203E+03  0.00000000000E+00 0.  1.
         25    1    1    2    0    0  0.19274978704E+03 -0.12700130789E+03  0.57660966335E+03  0.63354993211E+03  0.12500000000E+03 0.  0.
         21    1    1    2  503  502 -0.80610654764E+01 -0.24977945922E+02 -0.36176613592E+03  0.36271699113E+03  0.00000000000E+00 0.  1.
         21    1    1    2  504  501 -0.18468872156E+03  0.15197925381E+03  0.94004827628E+03  0.96999916454E+03  0.00000000000E+00 0. -1.
<mgrwt>
<rscale>  4 0.26706518E+03</rscale>
<asrwt>0</asrwt>
<pdfrwt beam="1">  1       21 0.24008906E+00 0.26706518E+03</pdfrwt>
<pdfrwt beam="2">  1       21 0.62413407E-01 0.26706518E+03</pdfrwt>
<totfact> 0.16535647E+02</totfact>
</mgrwt>
</event>
<event>
 5    0  0.1283376E+001  0.2781978E+03  0.7546771E-02  0.1100014E+00
         21   -1    0    0  502  501  0.00000000000E+00  0.00000000000E+00  0.14583492877E+04  0.14583492877E+04  0.00000000000E+00 0.  1.
         21   -1    0    0  503  502 -0.00000000000E+00 -0.00000000000E+00 -0.16937957147E+03  0.16937957147E+03  0.00000000000E+00 0.  1.
         25    1    1    2    0    0 -0.79473206048E+02 -0.20763424421E+03  0.80455055891E+03  0.84401100211E+03  0.12500000000E+03 0.  0.
         21    1    1    2  503  504  0.28665043995E+03 -0.29011895184E+02  0.15072131019E+03  0.32515700535E+03  0.00000000000E+00 0.  1.
         21    1    1    2  504  501 -0.20717723390E+03  0.23664613939E+03  0.33369784709E+03  0.45856085167E+03  0.00000000000E+00 0.  1.
<mgrwt>
<rscale>  4 0.27222228E+03</rscale>
<asrwt>0</asrwt>
<pdfrwt beam="1">  1       21 0.22436142E+00 0.27819780E+03</pdfrwt>
<pdfrwt beam="2">  1       21 0.26058397E-01 0.27819780E+03</pdfrwt>
<totfact> 0.12191543E+03</totfact>
</mgrwt>
</event>
<event>
 5    0  0.1283376E+001  0.2734383E+03  0.7546771E-02  0.1099328E+00
         21   -1    0    0  503  501  0.00000000000E+00  0.00000000000E+00  0.67548956196E+03  0.67548956196E+03  0.00000000000E+00 0. -1.
         21   -1    0    0  504  502 -0.00000000000E+00 -0.00000000000E+00 -0.18372936345E+03  0.18372936345E+03  0.00000000000E+00 0. -1.
         25    1    1    2    0    0  0.12073101313E+03  0.21111018229E+03  0.52280562450E+03  0.58999509117E+03  0.12500000000E+03 0.  0.
         21    1    1    2  503  502 -0.44686278736E+02 -0.83457325868E+02 -0.67454119560E+02  0.11624133083E+03  0.00000000000E+00 0. -1.
         21    1    1    2  504  501 -0.76044734392E+02 -0.12765285642E+03  0.36408693575E+02  0.15298250341E+03  0.00000000000E+00 0. -1.
<mgrwt>
<rscale>  4 0.27343827E+03</rscale>
<asrwt>0</asrwt>
<pdfrwt beam="1">  1       21 0.10392147E+00 0.27343827E+03</pdfrwt>
<pdfrwt beam="2">  1       21 0.28266056E-01 0.27343827E+03</pdfrwt>
<totfact> 0.85171664E+03</totfact>
</mgrwt>
</event>
<event>
 5    0  0.1283376E+001  0.3736576E+03  0.7546771E-02  0.1053303E+00
         21   -1    0    0  503  501  0.00000000000E+00  0.00000000000E+00  0.64334645895E+03  0.64334645895E+03  0.00000000000E+00 0.  1.
         21   -1    0    0  504  502 -0.00000000000E+00 -0.00000000000E+00 -0.54253791579E+03  0.54253791579E+03  0.00000000000E+00 0.  1.
         25    1    1    2    0    0 -0.12138858013E+03 -0.19821248390E+03  0.43136139020E+03  0.50568866421E+03  0.12500000000E+03 0.  0.
         21    1    1    2  503  502 -0.95214866099E+02 -0.10371666385E+03  0.48953274812E+02  0.14906186703E+03  0.00000000000E+00 0.  1.
         21    1    1    2  504  501  0.21660344623E+03  0.30192914775E+03 -0.37950612186E+03  0.53113384349E+03  0.00000000000E+00 0.  1.
<mgrwt>
<rscale>  4 0.37365759E+03</rscale>
<asrwt>0</asrwt>
<pdfrwt beam="1">  1       21 0.98976378E-01 0.37365759E+03</pdfrwt>
<pdfrwt beam="2">  1       21 0.83467372E-01 0.37365759E+03</pdfrwt>
<totfact> 0.92312390E+02</totfact>
</mgrwt>
</event>
<event>
 5    0  0.1283376E+001  0.2427817E+03  0.7546771E-02  0.1117953E+00
         21   -1    0    0  503  501  0.00000000000E+00  0.00000000000E+00  0.54738070694E+02  0.54738070694E+02  0.00000000000E+00 0. -1.
         21   -1    0    0  504  502 -0.00000000000E+00 -0.00000000000E+00 -0.19875475805E+04  0.19875475805E+04  0.00000000000E+00 0. -1.
         25    1    1    2    0    0  0.71901288755E+01 -0.20997086524E+03 -0.29856992502E+03  0.38588659258E+03  0.12500000000E+03 0.  0.
         21    1    1    2  503  502  0.43033201457E+02  0.10476381344E+02 -0.61576624779E+03  0.61735701415E+03  0.00000000000E+00 0. -1.
         21    1    1    2  504  501 -0.50223330332E+02  0.19949448390E+03 -0.10184733370E+04  0.10390420445E+04  0.00000000000E+00 0. -1.
<mgrwt>
<rscale>  4 0.24278172E+03</rscale>
<asrwt>0</asrwt>
<pdfrwt beam="1">  1       21 0.84212430E-02 0.24278172E+03</pdfrwt>
<pdfrwt beam="2">  1       21 0.30577650E+00 0.24278172E+03</pdfrwt>
<totfact> 0.32841493E+03</totfact>
</mgrwt>
</event>
<event>
 5    0  0.1283376E+001  0.2530944E+03  0.7546771E-02  0.1111365E+00
         21   -1    0    0  504  501  0.00000000000E+00  0.00000000000E+00  0.12180890241E+03  0.12180890241E+03  0.00000000000E+00 0. -1.
         21   -1    0    0  503  502 -0.00000000000E+00 -0.00000000000E+00 -0.72440025509E+03  0.72440025509E+03  0.00000000000E+00 0. -1.
         25    1    1    2    0    0 -0.13567255859E+03 -0.16236439397E+03 -0.15520654033E+03  0.29066012754E+03  0.12500000000E+03 0.  0.
         21    1    1    2  503  501  0.13874532791E+03  0.18286456710E+03 -0.19180566307E+03  0.29913062081E+03  0.00000000000E+00 0. -1.
         21    1    1    2  504  502 -0.30727693214E+01 -0.20500173125E+02 -0.25557914928E+03  0.25641840916E+03  0.00000000000E+00 0.  1.
<mgrwt>
<rscale>  4 0.25309440E+03</rscale>
<asrwt>0</asrwt>
<pdfrwt beam="1">  1       21 0.18739831E-01 0.25309440E+03</pdfrwt>
<pdfrwt beam="2">  1       21 0.11144620E+00 0.25309440E+03</pdfrwt>
<totfact> 0.15908208E+04</totfact>
</mgrwt>
</event>
<event>
 5    0  0.1283376E+001  0.1720839E+03  0.7546771E-02  0.1175692E+00
         21   -1    0    0  503  501  0.00000000000E+00  0.00000000000E+00  0.19705014543E+03  0.19705014543E+03  0.00000000000E+00 0.  1.
         21   -1    0    0  504  502 -0.00000000000E+00 -0.00000000000E+00 -0.12273953295E+04  0.12273953295E+04  0.00000000000E+00 0. -1.
         25    1    1    2    0    0  0.83747195466E+02  0.19690048508E+03 -0.74448934443E+03  0.78464818724E+03  0.12500000000E+03 0.  0.
         21    1    1    2  503  502 -0.12509185596E+02 -0.10537800441E+03 -0.43676365348E+03  0.44947023543E+03  0.00000000000E+00 0. -1.
         21    1    1    2  504  501 -0.71238009870E+02 -0.91522480673E+02  0.15090781388E+03  0.19032705222E+03  0.00000000000E+00 0.  1.
<mgrwt>
<rscale>  4 0.17208390E+03</rscale>
<asrwt>0</asrwt>
<pdfrwt beam="1">  1       21 0.30315407E-01 0.17208390E+03</pdfrwt>
<pdfrwt beam="2">  1       21 0.18883005E+00 0.17208390E+03</pdfrwt>
<totfact> 0.16953458E+03</totfact>
</mgrwt>
</event>
<event>
 5    0  0.1283376E+001  0.2851078E+03  0.7546771E-02  0.1092931E+00
         21   -1    0    0  504  501  0.00000000000E+00  0.00000000000E+00  0.26720956245E+03  0.26720956245E+03  0.00000000000E+00 0. -1.
         21   -1    0    0  501  502 -0.00000000000E+00 -0.00000000000E+00 -0.12237276044E+04  0.12237276044E+04  0.00000000000E+00 0. -1.
         25    1    1    2    0    0  0.23023089097E+03  0.21848744838E+02  0.58059621081E+02  0.26922026374E+03  0.12500000000E+03 0.  0.
         21    1    1    2  503  502  0.76983178934E+02  0.72155556709E+02 -0.85773804210E+03  0.86420332276E+03  0.00000000000E+00 0. -1.
         21    1    1    2  504  503 -0.30721406990E+03 -0.94004301547E+02 -0.15683962094E+03  0.35751358037E+03  0.00000000000E+00 0. -1.
<mgrwt>
<rscale>  4 0.28510780E+03</rscale>
<asrwt>0</asrwt>
<pdfrwt beam="1">  1       21 0.41109164E-01 0.28510780E+03</pdfrwt>
<pdfrwt beam="2">  1       21 0.18826578E+00 0.28510780E+03</pdfrwt>
<totfact> 0.83742300E+02</totfact>
</mgrwt>
</event>
<event>
 5    0  0.1283376E+001  0.3174306E+03  0.7546771E-02  0.1076838E+00
         21   -1    0    0  504  501  0.00000000000E+00  0.00000000000E+00  0.59905843649E+03  0.59905843649E+03  0.00000000000E+00 0.  1.
         21   -1    0    0  503  502 -0.00000000000E+00 -0.00000000000E+00 -0.17859421797E+03  0.17859421797E+03  0.00000000000E+00 0.  1.
         25    1    1    2    0    0  0.23405233968E+03 -0.15442832106E+03  0.24771174634E+03  0.39448030791E+03  0.12500000000E+03 0.  0.
         21    1    1    2  503  501 -0.26084917964E+03  0.15879568504E+03  0.18075491104E+03  0.35486716102E+03  0.00000000000E+00 0.  1.
         21    1    1    2  504  502  0.26796839961E+02 -0.43673639764E+01 -0.80024388501E+01  0.28305185524E+02  0.00000000000E+00 0.  1.
<mgrwt>
<rscale>  4 0.31743063E+03</rscale>
<asrwt>0</asrwt>
<pdfrwt beam="1">  1       21 0.92162835E-01 0.31743063E+03</pdfrwt>
<pdfrwt beam="2">  1       21 0.27476034E-01 0.31743063E+03</pdfrwt>
<totfact> 0.11747320E+04</totfact>
</mgrwt>
</event>
<event>
 5    0  0.1283376E+001  0.2987097E+03  0.7546771E-02  0.1085887E+00
         21   -1    0    0  504  501  0.00000000000E+00  0.00000000000E+00  0.19214740953E+03  0.19214740953E+03  0.00000000000E+00 0. -1.
         21   -1    0    0  501  502 -0.00000000000E+00 -0.00000000000E+00 -0.64368813436E+03  0.64368813436E+03  0.00000000000E+00 0. -1.
         25    1    1    2    0    0 -0.25900124008E+03  0.55904122201E+01 -0.33537782429E+02  0.28959053493E+03  0.12500000000E+03 0.  0.
         21    1    1    2  503  502 -0.41531162030E+02 -0.18099406385E+02 -0.92769368564E+02  0.10324040718E+03  0.00000000000E+00 0.  1.
         21    1    1    2  504  503  0.30053240211E+03  0.12508994165E+02 -0.32523357383E+03  0.44300460178E+03  0.00000000000E+00 0. -1.
<mgrwt>
<rscale>  4 0.29870968E+03</rscale>
<asrwt>0</asrwt>
<pdfrwt beam="1">  1       21 0.29561139E-01 0.29870968E+03</pdfrwt>
<pdfrwt beam="2">  1       21 0.99028946E-01 0.29870968E+03</pdfrwt>
<totfact> 0.86537003E+03</totfact>
</mgrwt>
</event>
<event>
 5    0  0.1283376E+001  0.5206167E+03  0.7546771E-02  0.1008533E+00
         21   -1    0    0  503  501  0.00000000000E+00  0.00000000000E+00  0.13789636139E+04  0.13789636139E+04  0.00000000000E+00 0.  1.
         21   -1    0    0  504  502 -0.00000000000E+00 -0.00000000000E+00 -0.11328917769E+04  0.11328917769E+04  0.00000000000E+00 0. -1.
         25    1    1    2    0    0  0.87818659261E+02  0.51650815645E+03  0.70391787799E+03  0.88635104307E+03  0.12500000000E+03 0.  0.
         21    1    1    2  503  502 -0.44653038667E+02 -0.32758562728E+02 -0.93971445603E+03  0.94134492943E+03  0.00000000000E+00 0. -1.
         21    1    1    2  504  501 -0.43165620593E+02 -0.48374959373E+03  0.48186841506E+03  0.68415941831E+03  0.00000000000E+00 0.  1.
<mgrwt>
<rscale>  4 0.52061670E+03</rscale>
<asrwt>0</asrwt>
<pdfrwt beam="1">  1       21 0.21214825E+00 0.52061670E+03</pdfrwt>
<pdfrwt beam="2">  1       21 0.17429104E+00 0.52061670E+03</pdfrwt>
<totfact> 0.16181646E+01</totfact>
</mgrwt>
</event>
<event>
 5    0  0.1283376E+001  0.2765434E+03  0.7546771E-02  0.1097592E+00
         21   -1    0    0  503  501  0.00000000000E+00  0.00000000000E+00  0.20844736004E+03  0.20844736004E+03  0.00000000000E+00 0.  1.
         21   -1    0    0  504  502 -0.00000000000E+00 -0.00000000000E+00 -0.94996773745E+03  0.94996773745E+03  0.00000000000E+00 0.  1.
         25    1    1    2    0    0  0.14369176355E+03 -0.20364711431E+03  0.67740404629E+02  0.28693768051E+03  0.12500000000E+03 0.  0.
         21    1    1    2  503  502  0.49520382737E+02  0.59732360633E+02 -0.13835867118E+03  0.15862958458E+03  0.00000000000E+00 0.  1.
         21    1    1    2  504  501 -0.19321214629E+03  0.14391475367E+03 -0.67090211086E+03  0.71284783239E+03  0.00000000000E+00 0.  1.
<mgrwt>
<rscale>  4 0.27654344E+03</rscale>
<asrwt>0</asrwt>
<pdfrwt beam="1">  1       21 0.32068824E-01 0.27654344E+03</pdfrwt>
<pdfrwt beam="2">  1       21 0.14614888E+00 0.27654344E+03</pdfrwt>
<totfact> 0.28055518E+03</totfact>
</mgrwt>
</event>
<event>
 5    0  0.1283376E+001  0.2490144E+03  0.7546771E-02  0.1113929E+00
         21   -1    0    0  503  501  0.00000000000E+00  0.00000000000E+00  0.57038146366E+03  0.57038146366E+03  0.00000000000E+00 0. -1.
         21   -1    0    0  504  502 -0.00000000000E+00 -0.00000000000E+00 -0.26529697117E+03  0.26529697117E+03  0.00000000000E+00 0.  1.
         25    1    1    2    0    0  0.87538496400E+02 -0.19677448346E+03  0.48830102756E+03  0.54812961898E+03  0.12500000000E+03 0.  0.
         21    1    1    2  503  502 -0.24686236438E+02  0.14604530319E+02 -0.28289257253E+02  0.40286283661E+02  0.00000000000E+00 0.  1.
         21    1    1    2  504  501 -0.62852259962E+02  0.18216995314E+03 -0.15492727782E+03  0.24726253219E+03  0.00000000000E+00 0.  1.
<mgrwt>
<rscale>  4 0.24901443E+03</rscale>
<asrwt>0</asrwt>
<pdfrwt beam="1">  1       21 0.87750994E-01 0.24901443E+03</pdfrwt>
<pdfrwt beam="2">  1       21 0.40814919E-01 0.24901443E+03</pdfrwt>
<totfact> 0.61967627E+03</totfact>
</mgrwt>
</event>
<event>
 5    0  0.1283376E+001  0.2334573E+03  0.7546771E-02  0.1124230E+00
         21   -1    0    0  504  501  0.00000000000E+00  0.00000000000E+00  0.16035752449E+03  0.16035752449E+03  0.00000000000E+00 0. -1.
         21   -1    0    0  503  502 -0.00000000000E+00 -0.00000000000E+00 -0.52470025487E+03  0.52470025487E+03  0.00000000000E+00 0. -1.
         25    1    1    2    0    0 -0.20471438429E+03  0.42010640067E+01  0.11273927166E+01  0.23989976884E+03  0.12500000000E+03 0.  0.
         21    1    1    2  503  501  0.18009350866E+03  0.47454217095E+02 -0.21654407763E+03  0.28561672244E+03  0.00000000000E+00 0. -1.
         21    1    1    2  504  502  0.24620875634E+02 -0.51655281102E+02 -0.14892604548E+03  0.15954128809E+03  0.00000000000E+00 0. -1.
<mgrwt>
<rscale>  4 0.23345725E+03</rscale>
<asrwt>0</asrwt>
<pdfrwt beam="1">  1       21 0.24670388E-01 0.23345725E+03</pdfrwt>
<pdfrwt beam="2">  1       21 0.80723117E-01 0.23345725E+03</pdfrwt>
<totfact> 0.20453021E+04</totfact>
</mgrwt>
</event>
<event>
 5    0  0.1283376E+001  0.2458708E+03  0.7546771E-02  0.1115942E+00
         21   -1    0    0  504  501  0.00000000000E+00  0.00000000000E+00  0.10375086382E+04  0.10375086382E+04  0.00000000000E+00 0. -1.
         21   -1    0    0  501  502 -0.00000000000E+00 -0.00000000000E+00 -0.79991516087E+02  0.79991516087E+02  0.00000000000E+00 0. -1.
         25    1    1    2    0    0 -0.21822144847E+03 -0.80369761890E+02  0.69356038112E+03  0.74211245877E+03  0.12500000000E+03 0.  0.
         21    1    1    2  503  502  0.14293952698E+03  0.11396978689E+03  0.16193473923E+03  0.24422055701E+03  0.00000000000E+00 0. -1.
         21    1    1    2  504  503  0.75281921483E+02 -0.33600024999E+02  0.10202200179E+03  0.13116713853E+03  0.00000000000E+00 0. -1.
<mgrwt>
<rscale>  4 0.24587085E+03</rscale>
<asrwt>0</asrwt>
<pdfrwt beam="1">  1       21 0.15961670E+00 0.24587085E+03</pdfrwt>
<pdfrwt beam="2">  1       21 0.12306388E-01 0.24587085E+03</pdfrwt>
<totfact> 0.13712653E+04</totfact>
</mgrwt>
</event>
<event>
 5    0  0.1283376E+001  0.3352795E+03  0.7546771E-02  0.1068824E+00
         21   -1    0    0  502  501  0.00000000000E+00  0.00000000000E+00  0.35364219322E+03  0.35364219322E+03  0.00000000000E+00 0.  1.
         21   -1    0    0  503  502 -0.00000000000E+00 -0.00000000000E+00 -0.36192374211E+03  0.36192374211E+03  0.00000000000E+00 0.  1.
         25    1    1    2    0    0  0.24328722398E+03  0.19390372696E+03  0.14373947605E+03  0.36479222258E+03  0.12500000000E+03 0.  0.
         21    1    1    2  503  504 -0.21837432183E+03 -0.18530587086E+03 -0.12336322808E+03  0.31183985674E+03  0.00000000000E+00 0.  1.
         21    1    1    2  504  501 -0.24912902154E+02 -0.85978560988E+01 -0.28657796855E+02  0.38933856010E+02  0.00000000000E+00 0. -1.
<mgrwt>
<rscale>  4 0.33527948E+03</rscale>
<asrwt>0</asrwt>
<pdfrwt beam="1">  1       21 0.54406492E-01 0.33527948E+03</pdfrwt>
<pdfrwt beam="2">  1       21 0.55680575E-01 0.33527948E+03</pdfrwt>
<totfact> 0.89837604E+03</totfact>
</mgrwt>
</event>
<event>
 5    0  0.1283376E+001  0.4217635E+03  0.7546771E-02  0.1036494E+00
         21   -1    0    0  504  501  0.00000000000E+00  0.00000000000E+00  0.71323137945E+03  0.71323137945E+03  0.00000000000E+00 0. -1.
         21   -1    0    0  503  502 -0.00000000000E+00 -0.00000000000E+00 -0.40530883640E+03  0.40530883640E+03  0.00000000000E+00 0. -1.
         25    1    1    2    0    0  0.34539536297E+03 -0.12948715371E+03  0.16855978046E+03  0.42438458894E+03  0.12500000000E+03 0.  0.
         21    1    1    2  503  501 -0.35721699576E+03  0.26480671310E+03  0.25775340695E+03  0.51396828322E+03  0.00000000000E+00 0. -1.
         21    1    1    2  504  502  0.11821632789E+02 -0.13531955939E+03 -0.11839064437E+03  0.18018734370E+03  0.00000000000E+00 0. -1.
<mgrwt>
<rscale>  4 0.42176351E+03</rscale>
<asrwt>0</asrwt>
<pdfrwt beam="1">  1       21 0.10972790E+00 0.42176351E+03</pdfrwt>
<pdfrwt beam="2">  1       21 0.62355206E-01 0.42176351E+03</pdfrwt>
<totfact> 0.13549843E+03</totfact>
</mgrwt>
</event>
<event>
 5    0  0.1283376E+001  0.2765495E+03  0.7546771E-02  0.1097589E+00
         21   -1    0    0  504  501  0.00000000000E+00  0.00000000000E+00  0.49668737032E+03  0.49668737032E+03  0.00000000000E+00 0.  1.
         21   -1    0    0  501  502 -0.00000000000E+00 -0.00000000000E+00 -0.52708945018E+03  0.52708945018E+03  0.00000000000E+00 0.  1.
         25    1    1    2    0    0  0.24572994643E+03 -0.21712635205E+02  0.41930932638E+03  0.50229469068E+03  0.12500000000E+03 0.  0.
         21    1    1    2  503  502 -0.42829456567E+02 -0.21065367051E+02 -0.14703326813E+03  0.15458620241E+03  0.00000000000E+00 0.  1.
         21    1    1    2  504  503 -0.20290048986E+03  0.42778002255E+02 -0.30267813810E+03  0.36689592740E+03  0.00000000000E+00 0.  1.
<mgrwt>
<rscale>  4 0.27654953E+03</rscale>
<asrwt>0</asrwt>
<pdfrwt beam="1">  1       21 0.76413442E-01 0.27654953E+03</pdfrwt>
<pdfrwt beam="2">  1       21 0.81090684E-01 0.27654953E+03</pdfrwt>
<totfact> 0.19065092E+03</totfact>
</mgrwt>
</event>
<event>
 5    0  0.1283376E+001  0.3206950E+03  0.7546771E-02  0.1075330E+00
         21   -1    0    0  503  501  0.00000000000E+00  0.00000000000E+00  0.10314088843E+04  0.10314088843E+04  0.00000000000E+00 0. -1.
         21   -1    0    0  504  502 -0.00000000000E+00 -0.00000000000E+00 -0.12648739974E+03  0.12648739974E+03  0.00000000000E+00 0. -1.
         25    1    1    2    0    0 -0.40799535129E+02  0.30129194727E+03  0.45383378977E+03  0.56038517850E+03  0.12500000000E+03 0.  0.
         21    1    1    2  503  502 -0.10839508232E+02 -0.17029866514E+02 -0.30104903234E+02  0.36246606612E+02  0.00000000000E+00 0.  1.
         21    1    1    2  504  501  0.51639043361E+02 -0.28426208075E+03  0.48119259799E+03  0.56126449889E+03  0.00000000000E+00 0. -1.
<mgrwt>
<rscale>  4 0.32069502E+03</rscale>
<asrwt>0</asrwt>
<pdfrwt beam="1">  1       21 0.15867828E+00 0.32069502E+03</pdfrwt>
<pdfrwt beam="2">  1       21 0.19459601E-01 0.32069502E+03</pdfrwt>
<totfact> 0.57509353E+03</totfact>
</mgrwt>
</event>
<event>
 5    0  0.1283376E+001  0.2777291E+03  0.7546771E-02  0.1096936E+00
         21   -1    0    0  503  501  0.00000000000E+00  0.00000000000E+00  0.20509256154E+03  0.20509256154E+03  0.00000000000E+00 0.  1.
         21   -1    0    0  504  502 -0.00000000000E+00 -0.00000000000E+00 -0.78540959475E+03  0.78540959475E+03  0.00000000000E+00 0. -1.
         25    1    1    2    0    0  0.85392133935E+02  0.31409716043E+03 -0.75787681202E+02  0.35681594044E+03  0.12500000000E+03 0.  0.
         21    1    1    2  503  502 -0.12038472792E+03 -0.20056401380E+03 -0.44042606666E+03  0.49869181519E+03  0.00000000000E+00 0. -1.
         21    1    1    2  504  501  0.34992593990E+02 -0.11353314663E+03 -0.64103285345E+02  0.13499440066E+03  0.00000000000E+00 0.  1.
<mgrwt>
<rscale>  4 0.27772912E+03</rscale>
<asrwt>0</asrwt>
<pdfrwt beam="1">  1       21 0.31552702E-01 0.27772912E+03</pdfrwt>
<pdfrwt beam="2">  1       21 0.12083224E+00 0.27772912E+03</pdfrwt>
<totfact> 0.47254453E+03</totfact>
</mgrwt>
</event>
<event>
 5    0  0.1283376E+001  0.2430871E+03  0.7546771E-02  0.1117753E+00
         21   -1    0    0  503  501  0.00000000000E+00  0.00000000000E+00  0.17081851609E+04  0.17081851609E+04  0.00000000000E+00 0.  1.
         21   -1    0    0  504  502 -0.00000000000E+00 -0.00000000000E+00 -0.63988591207E+02  0.63988591207E+02  0.00000000000E+00 0.  1.
         25    1    1    2    0    0 -0.65860274562E+02 -0.22010375345E+03  0.10521204495E+04  0.10841428312E+04  0.12500000000E+03 0.  0.
         21    1    1    2  503  502  0.15862610405E+03  0.11147227340E+03  0.24306103649E+03  0.31091313269E+03  0.00000000000E+00 0.  1.
         21    1    1    2  504  501 -0.92765829489E+02  0.10863148005E+03  0.34901508367E+03  0.37711778824E+03  0.00000000000E+00 0.  1.
<mgrwt>
<rscale>  4 0.24308711E+03</rscale>
<asrwt>0</asrwt>
<pdfrwt beam="1">  1       21 0.26279768E+00 0.24308711E+03</pdfrwt>
<pdfrwt beam="2">  1       21 0.98443999E-02 0.24308711E+03</pdfrwt>
<totfact> 0.44450674E+03</totfact>
</mgrwt>
</event>
<event>
 5    0  0.1283376E+001  0.2807069E+03  0.7546771E-02  0.1095303E+00
         21   -1    0    0  504  501  0.00000000000E+00  0.00000000000E+00  0.13652099310E+04  0.13652099310E+04  0.00000000000E+00 0. -1.
         21   -1    0    0  501  502 -0.00000000000E+00 -0.00000000000E+00 -0.57071442671E+02  0.57071442671E+02  0.00000000000E+00 0. -1.
         25    1    1    2    0    0  0.24196128120E+03 -0.68015377647E+02  0.86036248355E+03  0.90499721342E+03  0.12500000000E+03 0.  0.
         21    1    1    2  503  502 -0.17424708272E+03  0.67075421972E+02  0.36787783582E+03  0.41254728233E+03  0.00000000000E+00 0. -1.
         21    1    1    2  504  503 -0.67714198490E+02  0.93995567497E+00  0.79898168952E+02  0.10473687792E+03  0.00000000000E+00 0. -1.
<mgrwt>
<rscale>  4 0.28070688E+03</rscale>
<asrwt>0</asrwt>
<pdfrwt beam="1">  1       21 0.21003227E+00 0.28070688E+03</pdfrwt>
<pdfrwt beam="2">  1       21 0.87802230E-02 0.28070688E+03</pdfrwt>
<totfact> 0.11107503E+04</totfact>
</mgrwt>
</event>
<event>
 5    0  0.1283376E+001  0.2884132E+03  0.7546771E-02  0.1091181E+00
         21   -1    0    0  503  501  0.00000000000E+00  0.00000000000E+00  0.38329756534E+03  0.38329756534E+03  0.00000000000E+00 0.  1.
         21   -1    0    0  504  502 -0.00000000000E+00 -0.00000000000E+00 -0.55813240085E+03  0.55813240085E+03  0.00000000000E+00 0. -1.
         25    1    1    2    0    0 -0.53249186165E+02 -0.24926700842E+03  0.26008956346E+03  0.38502090636E+03  0.12500000000E+03 0.  0.
         21    1    1    2  503  502  0.51962519003E+02  0.29242108432E+03 -0.41090478411E+03  0.50700388119E+03  0.00000000000E+00 0. -1.
         21    1    1    2  504  501  0.12866671626E+01 -0.43154075901E+02 -0.24019614854E+02  0.49405178645E+02  0.00000000000E+00 0.  1.
<mgrwt>
<rscale>  4 0.28841322E+03</rscale>
<asrwt>0</asrwt>
<pdfrwt beam="1">  1       21 0.58968856E-01 0.28841322E+03</pdfrwt>
<pdfrwt beam="2">  1       21 0.85866524E-01 0.28841322E+03</pdfrwt>
<totfact> 0.29424819E+03</totfact>
</mgrwt>
</event>
<event>
 5    0  0.1283376E+001  0.2684169E+03  0.7546771E-02  0.1102189E+00
         21   -1    0    0  503  501  0.00000000000E+00  0.00000000000E+00  0.12049756915E+03  0.12049756915E+03  0.00000000000E+00 0.  1.
         21   -1    0    0  504  502 -0.00000000000E+00 -0.00000000000E+00 -0.77443978140E+03  0.77443978140E+03  0.00000000000E+00 0. -1.
         25    1    1    2    0    0 -0.21475881439E+03  0.26063831860E+02 -0.17020045272E+03  0.30231418391E+03  0.12500000000E+03 0.  0.
         21    1    1    2  503  502  0.27194444846E+03 -0.92000005227E+01 -0.32992001069E+03  0.42765130248E+03  0.00000000000E+00 0. -1.
         21    1    1    2  504  501 -0.57185634074E+02 -0.16863831337E+02 -0.15382174883E+03  0.16497186416E+03  0.00000000000E+00 0.  1.
<mgrwt>
<rscale>  4 0.26841688E+03</rscale>
<asrwt>0</asrwt>
<pdfrwt beam="1">  1       21 0.18538088E-01 0.26841688E+03</pdfrwt>
<pdfrwt beam="2">  1       21 0.11914458E+00 0.26841688E+03</pdfrwt>
<totfact> 0.13661094E+04</totfact>
</mgrwt>
</event>
<event>
 5    0  0.1283376E+001  0.3736421E+03  0.7546771E-02  0.1053309E+00
         21   -1    0    0  504  501  0.00000000000E+00  0.00000000000E+00  0.82050698310E+02  0.82050698310E+02  0.00000000000E+00 0. -1.
         21   -1    0    0  501  502 -0.00000000000E+00 -0.00000000000E+00 -0.19806944431E+04  0.19806944431E+04  0.00000000000E+00 0. -1.
         25    1    1    2    0    0  0.88493679626E+02  0.34240228580E+03 -0.60378177312E+03  0.71080791091E+03  0.12500000000E+03 0.  0.
         21    1    1    2  503  502  0.32611926550E+02 -0.13449167347E+02 -0.17401322507E+03  0.17755286636E+03  0.00000000000E+00 0. -1.
         21    1    1    2  504  503 -0.12110560618E+03 -0.32895311845E+03 -0.11208487466E+04  0.11743843642E+04  0.00000000000E+00 0. -1.
<mgrwt>
<rscale>  4 0.37364210E+03</rscale>
<asrwt>0</asrwt>
<pdfrwt beam="1">  1       21 0.12623185E-01 0.37364210E+03</pdfrwt>
<pdfrwt beam="2">  1       21 0.30472222E+00 0.37364210E+03</pdfrwt>
<totfact> 0.14574528E+03</totfact>
</mgrwt>
</event>
<event>
 5    0  0.1283376E+001  0.3065158E+03  0.7546771E-02  0.1082028E+00
         21   -1    0    0  504  501  0.00000000000E+00  0.00000000000E+00  0.72835493387E+03  0.72835493387E+03  0.00000000000E+00 0.  1.
         21   -1    0    0  503  502 -0.00000000000E+00 -0.00000000000E+00 -0.15147176714E+03  0.15147176714E+03  0.00000000000E+00 0.  1.
         25    1    1    2    0    0 -0.22762146173E+02 -0.26811185461E+03  0.28155931770E+03  0.40902656547E+03  0.12500000000E+03 0.  0.
         21    1    1    2  503  501  0.35841699904E+02  0.28709288209E+03  0.32375804871E+03  0.43419606689E+03  0.00000000000E+00 0.  1.
         21    1    1    2  504  502 -0.13079553731E+02 -0.18981027485E+02 -0.28434199673E+02  0.36604068643E+02  0.00000000000E+00 0.  1.
<mgrwt>
<rscale>  4 0.30651584E+03</rscale>
<asrwt>0</asrwt>
<pdfrwt beam="1">  1       21 0.11205460E+00 0.30651584E+03</pdfrwt>
<pdfrwt beam="2">  1       21 0.23303349E-01 0.30651584E+03</pdfrwt>
<totfact> 0.10125955E+04</totfact>
</mgrwt>
</event>
<event>
 5    0  0.1283376E+001  0.3571623E+03  0.7546771E-02  0.1059713E+00
         21   -1    0    0  504  501  0.00000000000E+00  0.00000000000E+00  0.36245314290E+03  0.36245314290E+03  0.00000000000E+00 0. -1.
         21   -1    0    0  503  502 -0.00000000000E+00 -0.00000000000E+00 -0.43733924100E+03  0.43733924100E+03  0.00000000000E+00 0. -1.
         25    1    1    2    0    0  0.33278797654E+03 -0.10395052856E+03  0.17769763083E+02  0.37080225754E+03  0.12500000000E+03 0.  0.
         21    1    1    2  503  501 -0.27910873563E+03  0.16643776995E+03 -0.31693588281E+02  0.32650834769E+03  0.00000000000E+00 0. -1.
         21    1    1    2  504  502 -0.53679240902E+02 -0.62487241388E+02 -0.60962272903E+02  0.10248177866E+03  0.00000000000E+00 0. -1.
<mgrwt>
<rscale>  4 0.35716230E+03</rscale>
<asrwt>0</asrwt>
<pdfrwt beam="1">  1       21 0.55762022E-01 0.35716230E+03</pdfrwt>
<pdfrwt beam="2">  1       21 0.67282960E-01 0.35716230E+03</pdfrwt>
<totfact> 0.55838277E+03</totfact>
</mgrwt>
</event>
<event>
 5    0  0.1283376E+001  0.2372657E+03  0.7546771E-02  0.1121628E+00
         21   -1    0    0  504  501  0.00000000000E+00  0.00000000000E+00  0.67787757332E+03  0.67787757332E+03  0.00000000000E+00 0. -1.
         21   -1    0    0  501  502 -0.00000000000E+00 -0.00000000000E+00 -0.25553860754E+03  0.25553860754E+03  0.00000000000E+00 0. -1.
         25    1    1    2    0    0  0.78887092049E+02 -0.19283116472E+03  0.57282536337E+03  0.62222257135E+03  0.12500000000E+03 0.  0.
         21    1    1    2  503  502 -0.11399244880E+03  0.13726562712E+03 -0.40343869603E+02  0.18293102139E+03  0.00000000000E+00 0. -1.
         21    1    1    2  504  503  0.35105356748E+02  0.55565537597E+02 -0.11014252798E+03  0.12826258812E+03  0.00000000000E+00 0. -1.
<mgrwt>
<rscale>  4 0.23726574E+03</rscale>
<asrwt>0</asrwt>
<pdfrwt beam="1">  1       21 0.10428886E+00 0.23726574E+03</pdfrwt>
<pdfrwt beam="2">  1       21 0.39313632E-01 0.23726574E+03</pdfrwt>
<totfact> 0.44796923E+03</totfact>
</mgrwt>
</event>
<event>
 5    0  0.1283376E+001  0.3600639E+03  0.7546771E-02  0.1058559E+00
         21   -1    0    0  504  501  0.00000000000E+00  0.00000000000E+00  0.13649204639E+04  0.13649204639E+04  0.00000000000E+00 0. -1.
         21   -1    0    0  503  502 -0.00000000000E+00 -0.00000000000E+00 -0.34477242506E+03  0.34477242506E+03  0.00000000000E+00 0. -1.
         25    1    1    2    0    0  0.43710742997E+03 -0.48525334114E+02  0.95740816766E+03  0.10609773857E+04  0.12500000000E+03 0.  0.
         21    1    1    2  503  501 -0.24217864641E+03 -0.48959852599E+02  0.25718367678E+03  0.35663848298E+03  0.00000000000E+00 0. -1.
         21    1    1    2  504  502 -0.19492878355E+03  0.97485186713E+02 -0.19444380556E+03  0.29207702034E+03  0.00000000000E+00 0. -1.
<mgrwt>
<rscale>  4 0.36006393E+03</rscale>
<asrwt>0</asrwt>
<pdfrwt beam="1">  1       21 0.20998776E+00 0.36006393E+03</pdfrwt>
<pdfrwt beam="2">  1       21 0.53041912E-01 0.36006393E+03</pdfrwt>
<totfact> 0.33523309E+02</totfact>
</mgrwt>
</event>
<event>
 5    0  0.1283376E+001  0.3307921E+03  0.7546771E-02  0.1070787E+00
         21   -1    0    0  503  501  0.00000000000E+00  0.00000000000E+00  0.59911685214E+02  0.59911685214E+02  0.00000000000E+00 0.  1.
         21   -1    0    0  504  502 -0.00000000000E+00 -0.00000000000E+00 -0.21812172066E+04  0.21812172066E+04  0.00000000000E+00 0.  1.
         25    1    1    2    0    0  0.25984504323E+03  0.92686091109E+02 -0.81255390248E+03  0.86716722863E+03  0.12500000000E+03 0.  0.
         21    1    1    2  503  502  0.71563058912E+02  0.34736535859E+01 -0.27263897962E+03  0.28189599301E+03  0.00000000000E+00 0.  1.
         21    1    1    2  504  501 -0.33140810215E+03 -0.96159744695E+02 -0.10361126393E+04  0.10920656702E+04  0.00000000000E+00 0.  1.
<mgrwt>
<rscale>  4 0.33079206E+03</rscale>
<asrwt>0</asrwt>
<pdfrwt beam="1">  1       21 0.92171838E-02 0.33079206E+03</pdfrwt>
<pdfrwt beam="2">  1       21 0.33557182E+00 0.33079206E+03</pdfrwt>
<totfact> 0.17302368E+03</totfact>
</mgrwt>
</event>
<event>
 5    0  0.1283376E+001  0.2703613E+03  0.7546771E-02  0.1101073E+00
         21   -1    0    0  504  501  0.00000000000E+00  0.00000000000E+00  0.55782360134E+03  0.55782360134E+03  0.00000000000E+00 0. -1.
         21   -1    0    0  501  502 -0.00000000000E+00 -0.00000000000E+00 -0.78517653427E+03  0.78517653427E+03  0.00000000000E+00 0. -1.
         25    1    1    2    0    0  0.19387964605E+03 -0.14099960637E+03  0.50381968379E+03  0.57177747413E+03  0.12500000000E+03 0.  0.
         21    1    1    2  503  502 -0.17095418704E+02  0.34383499960E+02 -0.13267122815E+03  0.13811637553E+03  0.00000000000E+00 0.  1.
         21    1    1    2  504  503 -0.17678422735E+03  0.10661610641E+03 -0.59850138858E+03  0.63310628595E+03  0.00000000000E+00 0. -1.
<mgrwt>
<rscale>  4 0.27036125E+03</rscale>
<asrwt>0</asrwt>
<pdfrwt beam="1">  1       21 0.85819016E-01 0.27036125E+03</pdfrwt>
<pdfrwt beam="2">  1       21 0.12079639E+00 0.27036125E+03</pdfrwt>
<totfact> 0.56634327E+02</totfact>
</mgrwt>
</event>
<event>
 5    0  0.1283376E+001  0.2563640E+03  0.7546771E-02  0.1109348E+00
         21   -1    0    0  504  501  0.00000000000E+00  0.00000000000E+00  0.53801949307E+03  0.53801949307E+03  0.00000000000E+00 0.  1.
         21   -1    0    0  501  502 -0.00000000000E+00 -0.00000000000E+00 -0.20840494975E+03  0.20840494975E+03  0.00000000000E+00 0.  1.
         25    1    1    2    0    0  0.14373326361E+02 -0.21932889829E+03  0.38071237027E+03  0.45703245728E+03  0.12500000000E+03 0.  0.
         21    1    1    2  503  502 -0.45909569165E+02  0.23755998673E+03 -0.64785109569E+02  0.25047863433E+03  0.00000000000E+00 0.  1.
         21    1    1    2  504  503  0.31536242804E+02 -0.18231088443E+02  0.13687282627E+02  0.38913351202E+02  0.00000000000E+00 0.  1.
<mgrwt>
<rscale>  4 0.25636403E+03</rscale>
<asrwt>0</asrwt>
<pdfrwt beam="1">  1       21 0.82772229E-01 0.25636403E+03</pdfrwt>
<pdfrwt beam="2">  1       21 0.32062300E-01 0.25636403E+03</pdfrwt>
<totfact> 0.11461080E+04</totfact>
</mgrwt>
</event>
<event>
 5    0  0.1283376E+001  0.2522934E+03  0.7546771E-02  0.1111864E+00
         21   -1    0    0  504  501  0.00000000000E+00  0.00000000000E+00  0.39182171429E+03  0.39182171429E+03  0.00000000000E+00 0. -1.
         21   -1    0    0  503  502 -0.00000000000E+00 -0.00000000000E+00 -0.69242471108E+03  0.69242471108E+03  0.00000000000E+00 0. -1.
         25    1    1    2    0    0  0.77046736868E+02  0.20408468037E+03  0.13297136584E+03  0.28441719455E+03  0.12500000000E+03 0.  0.
         21    1    1    2  503  501 -0.12123170267E+03 -0.18653108128E+03  0.11415197960E+03  0.25004328518E+03  0.00000000000E+00 0. -1.
         21    1    1    2  504  502  0.44184965805E+02 -0.17553599086E+02 -0.54772634223E+03  0.54978594564E+03  0.00000000000E+00 0. -1.
<mgrwt>
<rscale>  4 0.25229338E+03</rscale>
<asrwt>0</asrwt>
<pdfrwt beam="1">  1       21 0.60280264E-01 0.25229338E+03</pdfrwt>
<pdfrwt beam="2">  1       21 0.10652688E+00 0.25229338E+03</pdfrwt>
<totfact> 0.17227137E+03</totfact>
</mgrwt>
</event>
<event>
 5    0  0.1283376E+001  0.2212201E+03  0.7546771E-02  0.1132977E+00
         21   -1    0    0  503  501  0.00000000000E+00  0.00000000000E+00  0.32831329617E+03  0.32831329617E+03  0.00000000000E+00 0.  1.
         21   -1    0    0  504  502 -0.00000000000E+00 -0.00000000000E+00 -0.39833256715E+03  0.39833256715E+03  0.00000000000E+00 0.  1.
         25    1    1    2    0    0  0.17423950651E+03  0.10021628943E+03  0.17403689568E+03  0.29379678582E+03  0.12500000000E+03 0.  0.
         21    1    1    2  503  502 -0.17598543628E+03  0.32851211293E+02 -0.31064089038E+02  0.18170044990E+03  0.00000000000E+00 0.  1.
         21    1    1    2  504  501  0.17459297685E+01 -0.13306750073E+03 -0.21299207762E+03  0.25114862761E+03  0.00000000000E+00 0.  1.
<mgrwt>
<rscale>  4 0.22122010E+03</rscale>
<asrwt>0</asrwt>
<pdfrwt beam="1">  1       21 0.50509738E-01 0.22122010E+03</pdfrwt>
<pdfrwt beam="2">  1       21 0.61281933E-01 0.22122010E+03</pdfrwt>
<totfact> 0.90601700E+03</totfact>
</mgrwt>
</event>
<event>
 5    0  0.1283376E+001  0.3668261E+03  0.7546771E-02  0.1055913E+00
         21   -1    0    0  503  501  0.00000000000E+00  0.00000000000E+00  0.80023274393E+03  0.80023274393E+03  0.00000000000E+00 0.  1.
         21   -1    0    0  504  502 -0.00000000000E+00 -0.00000000000E+00 -0.58257377555E+03  0.58257377555E+03  0.00000000000E+00 0. -1.
         25    1    1    2    0    0 -0.23800304983E+03  0.25525670758E+03  0.67164769727E+03  0.76716169596E+03  0.12500000000E+03 0.  0.
         21    1    1    2  503  502  0.67372637257E+02  0.15673859678E+02 -0.18485589258E+03  0.19737386643E+03  0.00000000000E+00 0.  1.
         21    1    1    2  504  501  0.17063041257E+03 -0.27093056725E+03 -0.26913283631E+03  0.41827095709E+03  0.00000000000E+00 0. -1.
<mgrwt>
<rscale>  4 0.36682613E+03</rscale>
<asrwt>0</asrwt>
<pdfrwt beam="1">  1       21 0.12311273E+00 0.36682613E+03</pdfrwt>
<pdfrwt beam="2">  1       21 0.89626735E-01 0.36682613E+03</pdfrwt>
<totfact> 0.45728031E+02</totfact>
</mgrwt>
</event>
<event>
 5    0  0.1283376E+001  0.2335450E+03  0.7546771E-02  0.1124169E+00
         21   -1    0    0  503  501  0.00000000000E+00  0.00000000000E+00  0.15916581858E+03  0.15916581858E+03  0.00000000000E+00 0.  1.
         21   -1    0    0  504  502 -0.00000000000E+00 -0.00000000000E+00 -0.74797962428E+03  0.74797962428E+03  0.00000000000E+00 0.  1.
         25    1    1    2    0    0 -0.20004208946E+03 -0.60451653085E+02  0.18945679775E+02  0.24424409655E+03  0.12500000000E+03 0.  0.
         21    1    1    2  503  502  0.15395796187E+03  0.71556588805E+02 -0.25111690164E+03  0.30312224880E+03  0.00000000000E+00 0.  1.
         21    1    1    2  504  501  0.46084127588E+02 -0.11104935720E+02 -0.35664258383E+03  0.35977909752E+03  0.00000000000E+00 0.  1.
<mgrwt>
<rscale>  4 0.23354495E+03</rscale>
<asrwt>0</asrwt>
<pdfrwt beam="1">  1       21 0.24487049E-01 0.23354495E+03</pdfrwt>
<pdfrwt beam="2">  1       21 0.11507379E+00 0.23354495E+03</pdfrwt>
<totfact> 0.89682305E+03</totfact>
</mgrwt>
</event>
<event>
 5    0  0.1283376E+001  0.2837706E+03  0.7546771E-02  0.1093647E+00
         21   -1    0    0  503  501  0.00000000000E+00  0.00000000000E+00  0.44987200398E+03  0.44987200398E+03  0.00000000000E+00 0.  1.
         21   -1    0    0  504  502 -0.00000000000E+00 -0.00000000000E+00 -0.18094136173E+03  0.18094136173E+03  0.00000000000E+00 0.  1.
         25    1    1    2    0    0  0.17680884280E+03  0.16521289188E+03  0.11201819922E+03  0.29449914006E+03  0.12500000000E+03 0.  0.
         21    1    1    2  503  502  0.29841160720E+02  0.20703369964E+01  0.57046349321E+01  0.30451995470E+02  0.00000000000E+00 0.  1.
         21    1    1    2  504  501 -0.20665000352E+03 -0.16728322888E+03  0.15120780810E+03  0.30586223018E+03  0.00000000000E+00 0.  1.
<mgrwt>
<rscale>  4 0.28377061E+03</rscale>
<asrwt>0</asrwt>
<pdfrwt beam="1">  1       21 0.69211077E-01 0.28377061E+03</pdfrwt>
<pdfrwt beam="2">  1       21 0.27837133E-01 0.28377061E+03</pdfrwt>
<totfact> 0.22363662E+04</totfact>
</mgrwt>
</event>
<event>
 5    0  0.1283376E+001  0.2611289E+03  0.7546771E-02  0.1106467E+00
         21   -1    0    0  504  501  0.00000000000E+00  0.00000000000E+00  0.47242021321E+03  0.47242021321E+03  0.00000000000E+00 0. -1.
         21   -1    0    0  503  502 -0.00000000000E+00 -0.00000000000E+00 -0.42491037039E+03  0.42491037039E+03  0.00000000000E+00 0.  1.
         25    1    1    2    0    0 -0.35351312128E+03  0.35459666807E+02 -0.51073918703E+02  0.38008217540E+03  0.12500000000E+03 0.  0.
         21    1    1    2  503  501  0.16282860466E+03 -0.22681478699E+02  0.23187728676E+03  0.28424405022E+03  0.00000000000E+00 0. -1.
         21    1    1    2  504  502  0.19068451662E+03 -0.12778188108E+02 -0.13329352523E+03  0.23300435798E+03  0.00000000000E+00 0.  1.
<mgrwt>
<rscale>  4 0.26112887E+03</rscale>
<asrwt>0</asrwt>
<pdfrwt beam="1">  1       21 0.72680033E-01 0.26112887E+03</pdfrwt>
<pdfrwt beam="2">  1       21 0.65370826E-01 0.26112887E+03</pdfrwt>
<totfact> 0.34925532E+03</totfact>
</mgrwt>
</event>
<event>
 5    0  0.1283376E+001  0.3108953E+03  0.7546771E-02  0.1079918E+00
         21   -1    0    0  503  501  0.00000000000E+00  0.00000000000E+00  0.10151805181E+04  0.10151805181E+04  0.00000000000E+00 0. -1.
         21   -1    0    0  504  502 -0.00000000000E+00 -0.00000000000E+00 -0.41498202214E+03  0.41498202214E+03  0.00000000000E+00 0. -1.
         25    1    1    2    0    0 -0.26116759890E+03  0.23215170371E+03  0.59409119383E+03  0.70048003172E+03  0.12500000000E+03 0.  0.
         21    1    1    2  503  502  0.15160799148E+02 -0.18959772293E+03 -0.28722257579E+03  0.34449086260E+03  0.00000000000E+00 0. -1.
         21    1    1    2  504  501  0.24600679976E+03 -0.42553980783E+02  0.29332987791E+03  0.38519164591E+03  0.00000000000E+00 0. -1.
<mgrwt>
<rscale>  4 0.31089527E+03</rscale>
<asrwt>0</asrwt>
<pdfrwt beam="1">  1       21 0.15618162E+00 0.31089527E+03</pdfrwt>
<pdfrwt beam="2">  1       21 0.63843388E-01 0.31089527E+03</pdfrwt>
<totfact> 0.54798934E+02</totfact>
</mgrwt>
</event>
<event>
 5    0  0.1283376E+001  0.2322694E+03  0.7546771E-02  0.1125053E+00
         21   -1    0    0  503  501  0.00000000000E+00  0.00000000000E+00  0.29053818607E+03  0.29053818607E+03  0.00000000000E+00 0.  1.
         21   -1    0    0  504  502 -0.00000000000E+00 -0.00000000000E+00 -0.34208144313E+03  0.34208144313E+03  0.00000000000E+00 0.  1.
         25    1    1    2    0    0 -0.18184531752E+03 -0.11340117679E+03  0.15760663917E+02  0.24859795842E+03  0.12500000000E+03 0.  0.
         21    1    1    2  503  502 -0.21541257315E+02  0.16281236862E+03 -0.22029216618E+00  0.16423136628E+03  0.00000000000E+00 0.  1.
         21    1    1    2  504  501  0.20338657483E+03 -0.49411191827E+02 -0.67083628804E+02  0.21979030450E+03  0.00000000000E+00 0.  1.
<mgrwt>
<rscale>  4 0.23226939E+03</rscale>
<asrwt>0</asrwt>
<pdfrwt beam="1">  1       21 0.44698183E-01 0.23226939E+03</pdfrwt>
<pdfrwt beam="2">  1       21 0.52627914E-01 0.23226939E+03</pdfrwt>
<totfact> 0.16064132E+04</totfact>
</mgrwt>
</event>
<event>
 5    0  0.1283376E+001  0.3027646E+03  0.7546771E-02  0.1083867E+00
         21   -1    0    0  504  501  0.00000000000E+00  0.00000000000E+00  0.81058528283E+03  0.81058528283E+03  0.00000000000E+00 0.  1.
         21   -1    0    0  501  502 -0.00000000000E+00 -0.00000000000E+00 -0.46187592223E+03  0.46187592223E+03  0.00000000000E+00 0. -1.
         25    1    1    2    0    0 -0.29561451312E+03  0.26662182458E+02  0.88440508904E+01  0.32218322361E+03  0.12500000000E+03 0.  0.
         21    1    1    2  503  502  0.26663094986E+02  0.13797502778E+02 -0.27568709320E+03  0.27731690369E+03  0.00000000000E+00 0. -1.
         21    1    1    2  504  503  0.26895141813E+03 -0.40459685236E+02  0.61555240291E+03  0.67296107775E+03  0.00000000000E+00 0.  1.
<mgrwt>
<rscale>  4 0.30276459E+03</rscale>
<asrwt>0</asrwt>
<pdfrwt beam="1">  1       21 0.12470543E+00 0.30276459E+03</pdfrwt>
<pdfrwt beam="2">  1       21 0.71057834E-01 0.30276459E+03</pdfrwt>
<totfact> 0.78417268E+02</totfact>
</mgrwt>
</event>
<event>
 5    0  0.1283376E+001  0.4169674E+03  0.7546771E-02  0.1038058E+00
         21   -1    0    0  504  501  0.00000000000E+00  0.00000000000E+00  0.13699809299E+04  0.13699809299E+04  0.00000000000E+00 0.  1.
         21   -1    0    0  503  502 -0.00000000000E+00 -0.00000000000E+00 -0.17892696222E+03  0.17892696222E+03  0.00000000000E+00 0.  1.
         25    1    1    2    0    0 -0.35885934410E+03 -0.81063400659E+02  0.23395724689E+03  0.45355517542E+03  0.12500000000E+03 0.  0.
         21    1    1    2  503  501  0.40195810512E+03  0.76319300637E+02  0.96776805963E+03  0.10506997531E+04  0.00000000000E+00 0.  1.
         21    1    1    2  504  502 -0.43098761017E+02  0.47441000225E+01 -0.10671338843E+02  0.44652963607E+02  0.00000000000E+00 0.  1.
<mgrwt>
<rscale>  4 0.41696741E+03</rscale>
<asrwt>0</asrwt>
<pdfrwt beam="1">  1       21 0.21076629E+00 0.41696741E+03</pdfrwt>
<pdfrwt beam="2">  1       21 0.27527226E-01 0.41696741E+03</pdfrwt>
<totfact> 0.12254087E+03</totfact>
</mgrwt>
</event>
<event>
 5    0  0.1283376E+001  0.2852121E+03  0.7546771E-02  0.1092876E+00
         21   -1    0    0  504  501  0.00000000000E+00  0.00000000000E+00  0.12751456591E+04  0.12751456591E+04  0.00000000000E+00 0.  1.
         21   -1    0    0  503  502 -0.00000000000E+00 -0.00000000000E+00 -0.40562682507E+03  0.40562682507E+03  0.00000000000E+00 0.  1.
         25    1    1    2    0    0 -0.13254468920E+03 -0.22039779238E+03  0.11827750313E+04  0.12168504658E+04  0.12500000000E+03 0.  0.
         21    1    1    2  503  501  0.10322515460E+03  0.22527225663E+03 -0.13300228497E+03  0.28123411947E+03  0.00000000000E+00 0.  1.
         21    1    1    2  504  502  0.29319534600E+02 -0.48744642481E+01 -0.18025391228E+03  0.18268789889E+03  0.00000000000E+00 0. -1.
<mgrwt>
<rscale>  4 0.28521210E+03</rscale>
<asrwt>0</asrwt>
<pdfrwt beam="1">  1       21 0.19617625E+00 0.28521210E+03</pdfrwt>
<pdfrwt beam="2">  1       21 0.62404128E-01 0.28521210E+03</pdfrwt>
<totfact> 0.30716836E+02</totfact>
</mgrwt>
</event>
<event>
 5    0  0.1283376E+001  0.3104544E+03  0.7546771E-02  0.1080128E+00
         21   -1    0    0  503  501  0.00000000000E+00  0.00000000000E+00  0.81446275431E+03  0.81446275431E+03  0.00000000000E+00 0.  1.
         21   -1    0    0  504  502 -0.00000000000E+00 -0.00000000000E+00 -0.25540778638E+03  0.25540778638E+03  0.00000000000E+00 0.  1.
         25    1    1    2    0    0 -0.93269065890E+01  0.28294767046E+03  0.66948738692E+03  0.73755320937E+03  0.12500000000E+03 0.  0.
         21    1    1    2  503  502 -0.20669896680E+02  0.68791251122E+01 -0.42327972188E+01  0.22191970696E+02  0.00000000000E+00 0. -1.
         21    1    1    2  504  501  0.29996803269E+02 -0.28982679558E+03 -0.10619962176E+03  0.31012536062E+03  0.00000000000E+00 0.  1.
<mgrwt>
<rscale>  4 0.31045442E+03</rscale>
<asrwt>0</asrwt>
<pdfrwt beam="1">  1       21 0.12530196E+00 0.31045442E+03</pdfrwt>
<pdfrwt beam="2">  1       21 0.39293506E-01 0.31045442E+03</pdfrwt>
<totfact> 0.27248930E+03</totfact>
</mgrwt>
</event>
<event>
 5    0  0.1283376E+001  0.2711122E+03  0.7546771E-02  0.1100645E+00
         21   -1    0    0  504  501  0.00000000000E+00  0.00000000000E+00  0.15435884271E+04  0.15435884271E+04  0.00000000000E+00 0. -1.
         21   -1    0    0  501  502 -0.00000000000E+00 -0.00000000000E+00 -0.97385872212E+02  0.97385872212E+02  0.00000000000E+00 0. -1.
         25    1    1    2    0    0 -0.19333252374E+03 -0.18441322666E+03  0.12314922768E+04  0.12663269447E+04  0.12500000000E+03 0.  0.
         21    1    1    2  503  502  0.37503182634E+02  0.60817815185E+01  0.10875976887E+03  0.11520487880E+03  0.00000000000E+00 0. -1.
         21    1    1    2  504  503  0.15582934111E+03  0.17833144514E+03  0.10595050919E+03  0.25944247585E+03  0.00000000000E+00 0. -1.
<mgrwt>
<rscale>  4 0.27111219E+03</rscale>
<asrwt>0</asrwt>
<pdfrwt beam="1">  1       21 0.23747513E+00 0.27111219E+03</pdfrwt>
<pdfrwt beam="2">  1       21 0.14982443E-01 0.27111219E+03</pdfrwt>
<totfact> 0.28865355E+03</totfact>
</mgrwt>
</event>
<event>
 5    0  0.1283376E+001  0.2752974E+03  0.7546771E-02  0.1098285E+00
         21   -1    0    0  504  501  0.00000000000E+00  0.00000000000E+00  0.12142224487E+04  0.12142224487E+04  0.00000000000E+00 0.  1.
         21   -1    0    0  501  502 -0.00000000000E+00 -0.00000000000E+00 -0.76604742529E+02  0.76604742529E+02  0.00000000000E+00 0.  1.
         25    1    1    2    0    0  0.39169693895E+02 -0.26389652328E+03  0.52992725871E+03  0.60631966770E+03  0.12500000000E+03 0.  0.
         21    1    1    2  503  502  0.22692902707E+02  0.38754648702E+02  0.14778636481E+02  0.47278945901E+02  0.00000000000E+00 0.  1.
         21    1    1    2  504  503 -0.61862596602E+02  0.22514187457E+03  0.59291181098E+03  0.63722857763E+03  0.00000000000E+00 0.  1.
<mgrwt>
<rscale>  4 0.27529738E+03</rscale>
<asrwt>0</asrwt>
<pdfrwt beam="1">  1       21 0.18680344E+00 0.27529738E+03</pdfrwt>
<pdfrwt beam="2">  1       21 0.11785346E-01 0.27529738E+03</pdfrwt>
<totfact> 0.93638604E+03</totfact>
</mgrwt>
</event>
<event>
 5    0  0.1283376E+001  0.3134457E+03  0.7546771E-02  0.1078706E+00
         21   -1    0    0  504  501  0.00000000000E+00  0.00000000000E+00  0.41024488176E+03  0.41024488176E+03  0.00000000000E+00 0. -1.
         21   -1    0    0  501  502 -0.00000000000E+00 -0.00000000000E+00 -0.36783085711E+03  0.36783085711E+03  0.00000000000E+00 0. -1.
         25    1    1    2    0    0  0.45428858959E+02  0.28382996264E+03  0.25993975762E+03  0.40720622111E+03  0.12500000000E+03 0.  0.
         21    1    1    2  503  502  0.14624597247E+02 -0.32041902724E+02 -0.54722838780E+02  0.65078041296E+02  0.00000000000E+00 0. -1.
         21    1    1    2  504  503 -0.60053456206E+02 -0.25178805992E+03 -0.16280289419E+03  0.30579147646E+03  0.00000000000E+00 0. -1.
<mgrwt>
<rscale>  4 0.31344574E+03</rscale>
<asrwt>0</asrwt>
<pdfrwt beam="1">  1       21 0.63114598E-01 0.31344574E+03</pdfrwt>
<pdfrwt beam="2">  1       21 0.56589362E-01 0.31344574E+03</pdfrwt>
<totfact> 0.63506607E+03</totfact>
</mgrwt>
</event>
<event>
 5    0  0.1283376E+001  0.2973954E+03  0.7546771E-02  0.1086550E+00
         21   -1    0    0  503  501  0.00000000000E+00  0.00000000000E+00  0.39567606473E+03  0.39567606473E+03  0.00000000000E+00 0. -1.
         21   -1    0    0  504  502 -0.00000000000E+00 -0.00000000000E+00 -0.65620980044E+03  0.65620980044E+03  0.00000000000E+00 0. -1.
         25    1    1    2    0    0  0.17516098890E+03  0.20762278318E+03  0.29867601573E+03  0.42263572317E+03  0.12500000000E+03 0.  0.
         21    1    1    2  503  502 -0.28973591918E+01 -0.21759987826E+02 -0.94601970206E+01  0.23903704486E+02  0.00000000000E+00 0. -1.
         21    1    1    2  504  501 -0.17226362971E+03 -0.18586279536E+03 -0.54974955442E+03  0.60534643751E+03  0.00000000000E+00 0. -1.
<mgrwt>
<rscale>  4 0.29739544E+03</rscale>
<asrwt>0</asrwt>
<pdfrwt beam="1">  1       21 0.60873242E-01 0.29739544E+03</pdfrwt>
<pdfrwt beam="2">  1       21 0.10095535E+00 0.29739544E+03</pdfrwt>
<totfact> 0.18644885E+03</totfact>
</mgrwt>
</event>
<event>
 5    0  0.1283376E+001  0.2819246E+03  0.7546771E-02  0.1094642E+00
         21   -1    0    0  504  501  0.00000000000E+00  0.00000000000E+00  0.43680071493E+03  0.43680071493E+03  0.00000000000E+00 0.  1.
         21   -1    0    0  503  502 -0.00000000000E+00 -0.00000000000E+00 -0.81342437759E+03  0.81342437759E+03  0.00000000000E+00 0.  1.
         25    1    1    2    0    0  0.22361669293E+03  0.12224575497E+03  0.33832218676E+03  0.44162806979E+03  0.12500000000E+03 0.  0.
         21    1    1    2  503  501 -0.22626753162E+03 -0.84704820006E+02 -0.27100647831E+03  0.36306530223E+03  0.00000000000E+00 0.  1.
         21    1    1    2  504  502  0.26508386908E+01 -0.37540934962E+02 -0.44393937111E+03  0.44553172050E+03  0.00000000000E+00 0.  1.
<mgrwt>
<rscale>  4 0.28192455E+03</rscale>
<asrwt>0</asrwt>
<pdfrwt beam="1">  1       21 0.67200111E-01 0.28192455E+03</pdfrwt>
<pdfrwt beam="2">  1       21 0.12514221E+00 0.28192455E+03</pdfrwt>
<totfact> 0.89253130E+02</totfact>
</mgrwt>
</event>
<event>
 5    0  0.1283376E+001  0.2735778E+03  0.7546771E-02  0.1099249E+00
         21   -1    0    0  504  501  0.00000000000E+00  0.00000000000E+00  0.74544151508E+03  0.74544151508E+03  0.00000000000E+00 0.  1.
         21   -1    0    0  501  502 -0.00000000000E+00 -0.00000000000E+00 -0.13133226409E+03  0.13133226409E+03  0.00000000000E+00 0.  1.
         25    1    1    2    0    0 -0.20568968021E+03 -0.12611381293E+03  0.46870801350E+03  0.54177960489E+03  0.12500000000E+03 0.  0.
         21    1    1    2  503  502 -0.18487903482E+02  0.20026765940E+02 -0.22625316596E+02  0.35422858160E+02  0.00000000000E+00 0.  1.
         21    1    1    2  504  503  0.22417758369E+03  0.10608704699E+03  0.16802655408E+03  0.29957131612E+03  0.00000000000E+00 0.  1.
<mgrwt>
<rscale>  4 0.27357784E+03</rscale>
<asrwt>0</asrwt>
<pdfrwt beam="1">  1       21 0.11468331E+00 0.27357784E+03</pdfrwt>
<pdfrwt beam="2">  1       21 0.20204964E-01 0.27357784E+03</pdfrwt>
<totfact> 0.12740837E+04</totfact>
</mgrwt>
</event>
<event>
 5    0  0.1283376E+001  0.2739907E+03  0.7546771E-02  0.1099017E+00
         21   -1    0    0  504  501  0.00000000000E+00  0.00000000000E+00  0.10822935220E+04  0.10822935220E+04  0.00000000000E+00 0. -1.
         21   -1    0    0  503  502 -0.00000000000E+00 -0.00000000000E+00 -0.15072901382E+03  0.15072901382E+03  0.00000000000E+00 0. -1.
         25    1    1    2    0    0 -0.24712982818E+03 -0.70327361282E+02  0.42390218437E+02  0.28886159375E+03  0.12500000000E+03 0.  0.
         21    1    1    2  503  501  0.23901369222E+03  0.39522431691E+02  0.87734737573E+03  0.91018019390E+03  0.00000000000E+00 0. -1.
         21    1    1    2  504  502  0.81161359649E+01  0.30804929591E+02  0.11826913983E+02  0.33980748145E+02  0.00000000000E+00 0. -1.
<mgrwt>
<rscale>  4 0.27399069E+03</rscale>
<asrwt>0</asrwt>
<pdfrwt beam="1">  1       21 0.16650669E+00 0.27399069E+03</pdfrwt>
<pdfrwt beam="2">  1       21 0.23189080E-01 0.27399069E+03</pdfrwt>
<totfact> 0.37077392E+03</totfact>
</mgrwt>
</event>
<event>
 5    0  0.1283376E+001  0.2452973E+03  0.7546771E-02  0.1116313E+00
         21   -1    0    0  504  501  0.00000000000E+00  0.00000000000E+00  0.48270911467E+03  0.48270911467E+03  0.00000000000E+00 0. -1.
         21   -1    0    0  503  502 -0.00000000000E+00 -0.00000000000E+00 -0.17412266717E+04  0.17412266717E+04  0.00000000000E+00 0. -1.
         25    1    1    2    0    0 -0.14639467214E+03  0.14617879736E+03  0.38540444988E+03  0.45492991857E+03  0.12500000000E+03 0.  0.
         21    1    1    2  503  501  0.89690292208E+02  0.57630820476E+02  0.48474057105E+01  0.10671999497E+03  0.00000000000E+00 0. -1.
         21    1    1    2  504  502  0.56704379932E+02 -0.20380961783E+03 -0.16487694126E+04  0.16622858728E+04  0.00000000000E+00 0. -1.
<mgrwt>
<rscale>  4 0.24529725E+03</rscale>
<asrwt>0</asrwt>
<pdfrwt beam="1">  1       21 0.74262941E-01 0.24529725E+03</pdfrwt>
<pdfrwt beam="2">  1       21 0.26788103E+00 0.24529725E+03</pdfrwt>
<totfact> 0.78853116E+01</totfact>
</mgrwt>
</event>
<event>
 5    0  0.1283376E+001  0.2465314E+03  0.7546771E-02  0.1115517E+00
         21   -1    0    0  504  501  0.00000000000E+00  0.00000000000E+00  0.22700798234E+03  0.22700798234E+03  0.00000000000E+00 0. -1.
         21   -1    0    0  503  502 -0.00000000000E+00 -0.00000000000E+00 -0.96825655772E+03  0.96825655772E+03  0.00000000000E+00 0. -1.
         25    1    1    2    0    0 -0.10792907664E+03  0.22945071110E+03 -0.64438226859E+02  0.28995447831E+03  0.12500000000E+03 0.  0.
         21    1    1    2  503  501  0.20648589032E+02 -0.19550134474E+03  0.24199228981E+02  0.19807256930E+03  0.00000000000E+00 0. -1.
         21    1    1    2  504  502  0.87280487609E+02 -0.33949366362E+02 -0.70100957750E+03  0.70723749245E+03  0.00000000000E+00 0. -1.
<mgrwt>
<rscale>  4 0.24653140E+03</rscale>
<asrwt>0</asrwt>
<pdfrwt beam="1">  1       21 0.34924305E-01 0.24653140E+03</pdfrwt>
<pdfrwt beam="2">  1       21 0.14896255E+00 0.24653140E+03</pdfrwt>
<totfact> 0.22985401E+03</totfact>
</mgrwt>
</event>
<event>
 5    0  0.1283376E+001  0.2929783E+03  0.7546771E-02  0.1088804E+00
         21   -1    0    0  503  501  0.00000000000E+00  0.00000000000E+00  0.10700783413E+04  0.10700783413E+04  0.00000000000E+00 0.  1.
         21   -1    0    0  504  502 -0.00000000000E+00 -0.00000000000E+00 -0.11817938160E+03  0.11817938160E+03  0.00000000000E+00 0.  1.
         25    1    1    2    0    0 -0.11591461384E+03  0.26069925172E+03  0.62433752443E+03  0.69772676741E+03  0.12500000000E+03 0.  0.
         21    1    1    2  503  502  0.34536534463E+02 -0.24482210308E+03  0.32397370229E+03  0.40754091101E+03  0.00000000000E+00 0.  1.
         21    1    1    2  504  501  0.81378079373E+02 -0.15877148641E+02  0.35877329519E+01  0.82990044458E+02  0.00000000000E+00 0.  1.
<mgrwt>
<rscale>  4 0.29297828E+03</rscale>
<asrwt>0</asrwt>
<pdfrwt beam="1">  1       21 0.16462743E+00 0.29297828E+03</pdfrwt>
<pdfrwt beam="2">  1       21 0.18181444E-01 0.29297828E+03</pdfrwt>
<totfact> 0.59903471E+03</totfact>
</mgrwt>
</event>
<event>
 5    0  0.1283376E+001  0.2345221E+03  0.7546771E-02  0.1123497E+00
         21   -1    0    0  503  501  0.00000000000E+00  0.00000000000E+00  0.12820318124E+03  0.12820318124E+03  0.00000000000E+00 0. -1.
         21   -1    0    0  504  502 -0.00000000000E+00 -0.00000000000E+00 -0.10891968633E+04  0.10891968633E+04  0.00000000000E+00 0.  1.
         25    1    1    2    0    0 -0.26577228585E+02 -0.20264628310E+03 -0.14988039093E+02  0.24004480092E+03  0.12500000000E+03 0.  0.
         21    1    1    2  503  502 -0.31176681194E+02  0.16636270469E+03 -0.77462109302E+03  0.79289745410E+03  0.00000000000E+00 0.  1.
         21    1    1    2  504  501  0.57753909779E+02  0.36283578407E+02 -0.17138454995E+03  0.18445778953E+03  0.00000000000E+00 0.  1.
<mgrwt>
<rscale>  4 0.23452211E+03</rscale>
<asrwt>0</asrwt>
<pdfrwt beam="1">  1       21 0.19723567E-01 0.23452211E+03</pdfrwt>
<pdfrwt beam="2">  1       21 0.16756875E+00 0.23452211E+03</pdfrwt>
<totfact> 0.50841066E+03</totfact>
</mgrwt>
</event>
<event>
 5    0  0.1283376E+001  0.2797189E+03  0.7546771E-02  0.1095843E+00
         21   -1    0    0  503  501  0.00000000000E+00  0.00000000000E+00  0.58557170153E+03  0.58557170153E+03  0.00000000000E+00 0.  1.
         21   -1    0    0  504  502 -0.00000000000E+00 -0.00000000000E+00 -0.31007458030E+03  0.31007458030E+03  0.00000000000E+00 0.  1.
         25    1    1    2    0    0 -0.24151465554E+03 -0.56918836437E+02  0.39098543263E+03  0.47964955051E+03  0.12500000000E+03 0.  0.
         21    1    1    2  503  502  0.25410051444E+03  0.33876239354E+02  0.38995386305E+02  0.25929772692E+03  0.00000000000E+00 0.  1.
         21    1    1    2  504  501 -0.12585858901E+02  0.23042597084E+02 -0.15448369770E+03  0.15669900440E+03  0.00000000000E+00 0.  1.
<mgrwt>
<rscale>  4 0.27971894E+03</rscale>
<asrwt>0</asrwt>
<pdfrwt beam="1">  1       21 0.90087954E-01 0.27971894E+03</pdfrwt>
<pdfrwt beam="2">  1       21 0.47703782E-01 0.27971894E+03</pdfrwt>
<totfact> 0.41489932E+03</totfact>
</mgrwt>
</event>
<event>
 5    0  0.1283376E+001  0.4686120E+03  0.7546771E-02  0.1022313E+00
         21   -1    0    0  504  501  0.00000000000E+00  0.00000000000E+00  0.13534292826E+04  0.13534292826E+04  0.00000000000E+00 0. -1.
         21   -1    0    0  501  502 -0.00000000000E+00 -0.00000000000E+00 -0.17177343522E+03  0.17177343522E+03  0.00000000000E+00 0. -1.
         25    1    1    2    0    0  0.45090645661E+03  0.25603863645E+02  0.81196564948E+03  0.93748888334E+03  0.12500000000E+03 0.  0.
         21    1    1    2  503  502 -0.41982189122E+03 -0.34355071152E+02  0.32238146369E+03  0.53043425549E+03  0.00000000000E+00 0. -1.
         21    1    1    2  504  503 -0.31084565387E+02  0.87512075066E+01  0.47308734228E+02  0.57279579017E+02  0.00000000000E+00 0. -1.
<mgrwt>
<rscale>  4 0.46861198E+03</rscale>
<asrwt>0</asrwt>
<pdfrwt beam="1">  1       21 0.20821988E+00 0.46861198E+03</pdfrwt>
<pdfrwt beam="2">  1       21 0.26426683E-01 0.46861198E+03</pdfrwt>
<totfact> 0.13467159E+03</totfact>
</mgrwt>
</event>
<event>
 5    0  0.1283376E+001  0.3656139E+03  0.7546771E-02  0.1056383E+00
         21   -1    0    0  504  501  0.00000000000E+00  0.00000000000E+00  0.42438116058E+03  0.42438116058E+03  0.00000000000E+00 0. -1.
         21   -1    0    0  503  502 -0.00000000000E+00 -0.00000000000E+00 -0.13048909536E+04  0.13048909536E+04  0.00000000000E+00 0.  1.
         25    1    1    2    0    0  0.21142085189E+03 -0.24465832190E+03 -0.39406190689E+02  0.34890445533E+03  0.12500000000E+03 0.  0.
         21    1    1    2  503  501 -0.38724425896E+03  0.72968625438E+02  0.10095355303E+03  0.40678514755E+03  0.00000000000E+00 0. -1.
         21    1    1    2  504  502  0.17582340708E+03  0.17168969646E+03 -0.94205715533E+03  0.97358251127E+03  0.00000000000E+00 0.  1.
<mgrwt>
<rscale>  4 0.36561391E+03</rscale>
<asrwt>0</asrwt>
<pdfrwt beam="1">  1       21 0.65289411E-01 0.36561391E+03</pdfrwt>
<pdfrwt beam="2">  1       21 0.20075245E+00 0.36561391E+03</pdfrwt>
<totfact> 0.24426656E+02</totfact>
</mgrwt>
</event>
<event>
 5    0  0.1283376E+001  0.4627209E+03  0.7546771E-02  0.1026377E+00
         21   -1    0    0  502  501  0.00000000000E+00  0.00000000000E+00  0.51957707804E+03  0.51957707804E+03  0.00000000000E+00 0.  1.
         21   -1    0    0  503  502 -0.00000000000E+00 -0.00000000000E+00 -0.45314267354E+03  0.45314267354E+03  0.00000000000E+00 0.  1.
         25    1    1    2    0    0 -0.41197052433E+03  0.16948077528E+02  0.22182875932E+03  0.48460287733E+03  0.12500000000E+03 0.  0.
         21    1    1    2  503  504  0.25252109522E+03  0.82263940062E+02 -0.42393962523E+02  0.26894517550E+03  0.00000000000E+00 0.  1.
         21    1    1    2  504  501  0.15944942912E+03 -0.99212017590E+02 -0.11300039229E+03  0.21917169876E+03  0.00000000000E+00 0.  1.
<mgrwt>
<rscale>  4 0.45453880E+03</rscale>
<asrwt>0</asrwt>
<pdfrwt beam="1">  1       21 0.79934935E-01 0.46272095E+03</pdfrwt>
<pdfrwt beam="2">  1       21 0.69714257E-01 0.46272095E+03</pdfrwt>
<totfact> 0.22192199E+03</totfact>
</mgrwt>
</event>
<event>
 5    0  0.1283376E+001  0.4073726E+03  0.7546771E-02  0.1041256E+00
         21   -1    0    0  502  501  0.00000000000E+00  0.00000000000E+00  0.70148806736E+03  0.70148806736E+03  0.00000000000E+00 0. -1.
         21   -1    0    0  503  502 -0.00000000000E+00 -0.00000000000E+00 -0.38809574306E+03  0.38809574306E+03  0.00000000000E+00 0. -1.
         25    1    1    2    0    0 -0.24870978238E+03 -0.35961098064E+03  0.34455233351E+03  0.57054178092E+03  0.12500000000E+03 0.  0.
         21    1    1    2  503  504  0.66859003163E+02  0.32508286034E+03 -0.36345110253E+01  0.33190691776E+03  0.00000000000E+00 0. -1.
         21    1    1    2  504  501  0.18185077921E+03  0.34528120307E+02 -0.27525498186E+02  0.18713511173E+03  0.00000000000E+00 0. -1.
<mgrwt>
<rscale>  4 0.40737256E+03</rscale>
<asrwt>0</asrwt>
<pdfrwt beam="1">  1       21 0.10792124E+00 0.40737256E+03</pdfrwt>
<pdfrwt beam="2">  1       21 0.59707037E-01 0.40737256E+03</pdfrwt>
<totfact> 0.15623825E+03</totfact>
</mgrwt>
</event>
<event>
 5    0  0.1283376E+001  0.3182407E+03  0.7546771E-02  0.1076462E+00
         21   -1    0    0  503  501  0.00000000000E+00  0.00000000000E+00  0.82497624971E+02  0.82497624971E+02  0.00000000000E+00 0. -1.
         21   -1    0    0  504  502 -0.00000000000E+00 -0.00000000000E+00 -0.12663818248E+04  0.12663818248E+04  0.00000000000E+00 0. -1.
         25    1    1    2    0    0 -0.10547223022E+03  0.25550798416E+03 -0.45696342398E+03  0.54849730371E+03  0.12500000000E+03 0.  0.
         21    1    1    2  503  502  0.10590385258E+03 -0.28530245291E+03 -0.67680732078E+03  0.74207901539E+03  0.00000000000E+00 0. -1.
         21    1    1    2  504  501 -0.43162235679E+00  0.29794468755E+02 -0.50113455025E+02  0.58303130626E+02  0.00000000000E+00 0.  1.
<mgrwt>
<rscale>  4 0.31824071E+03</rscale>
<asrwt>0</asrwt>
<pdfrwt beam="1">  1       21 0.12691943E-01 0.31824071E+03</pdfrwt>
<pdfrwt beam="2">  1       21 0.19482795E+00 0.31824071E+03</pdfrwt>
<totfact> 0.70632197E+03</totfact>
</mgrwt>
</event>
<event>
 5    0  0.1283376E+001  0.2400512E+03  0.7546771E-02  0.1119759E+00
         21   -1    0    0  503  501  0.00000000000E+00  0.00000000000E+00  0.35966483537E+03  0.35966483537E+03  0.00000000000E+00 0. -1.
         21   -1    0    0  504  502 -0.00000000000E+00 -0.00000000000E+00 -0.26267341173E+03  0.26267341173E+03  0.00000000000E+00 0. -1.
         25    1    1    2    0    0  0.12343008637E+03 -0.16622084489E+03  0.96544766914E+02  0.26040400826E+03  0.12500000000E+03 0.  0.
         21    1    1    2  503  502  0.38351209263E+02  0.38049289273E+02 -0.11383761854E+03  0.12600621834E+03  0.00000000000E+00 0. -1.
         21    1    1    2  504  501 -0.16178129563E+03  0.12817155562E+03  0.11428427527E+03  0.23592802051E+03  0.00000000000E+00 0. -1.
<mgrwt>
<rscale>  4 0.24005124E+03</rscale>
<asrwt>0</asrwt>
<pdfrwt beam="1">  1       21 0.55333051E-01 0.24005124E+03</pdfrwt>
<pdfrwt beam="2">  1       21 0.40411294E-01 0.24005124E+03</pdfrwt>
<totfact> 0.17684490E+04</totfact>
</mgrwt>
</event>
<event>
 5    0  0.1283376E+001  0.3804978E+03  0.7546771E-02  0.1050750E+00
         21   -1    0    0  504  501  0.00000000000E+00  0.00000000000E+00  0.19031139066E+03  0.19031139066E+03  0.00000000000E+00 0.  1.
         21   -1    0    0  501  502 -0.00000000000E+00 -0.00000000000E+00 -0.10497186084E+04  0.10497186084E+04  0.00000000000E+00 0.  1.
         25    1    1    2    0    0 -0.34658014721E+03  0.95056652205E+02 -0.92287782031E+02  0.39152982042E+03  0.12500000000E+03 0.  0.
         21    1    1    2  503  502  0.25312907867E+02 -0.47660654514E+00 -0.83528258403E+02  0.87280813529E+02  0.00000000000E+00 0. -1.
         21    1    1    2  504  503  0.32126723935E+03 -0.94580045659E+02 -0.68359117726E+03  0.76121936506E+03  0.00000000000E+00 0.  1.
<mgrwt>
<rscale>  4 0.38049779E+03</rscale>
<asrwt>0</asrwt>
<pdfrwt beam="1">  1       21 0.29278676E-01 0.38049779E+03</pdfrwt>
<pdfrwt beam="2">  1       21 0.16149517E+00 0.38049779E+03</pdfrwt>
<totfact> 0.24208732E+03</totfact>
</mgrwt>
</event>
<event>
 5    0  0.1283376E+001  0.2858122E+03  0.7546771E-02  0.1092556E+00
         21   -1    0    0  504  501  0.00000000000E+00  0.00000000000E+00  0.23236110814E+03  0.23236110814E+03  0.00000000000E+00 0.  1.
         21   -1    0    0  501  502 -0.00000000000E+00 -0.00000000000E+00 -0.10303639283E+04  0.10303639283E+04  0.00000000000E+00 0.  1.
         25    1    1    2    0    0  0.17251350880E+03  0.18891343642E+03  0.10793403248E+03  0.30450607965E+03  0.12500000000E+03 0.  0.
         21    1    1    2  503  502 -0.22292063400E+02  0.34112376198E+02 -0.16625403674E+03  0.17117533419E+03  0.00000000000E+00 0. -1.
         21    1    1    2  504  503 -0.15022144540E+03 -0.22302581262E+03 -0.73968281584E+03  0.78704362255E+03  0.00000000000E+00 0.  1.
<mgrwt>
<rscale>  4 0.28581224E+03</rscale>
<asrwt>0</asrwt>
<pdfrwt beam="1">  1       21 0.35747862E-01 0.28581224E+03</pdfrwt>
<pdfrwt beam="2">  1       21 0.15851753E+00 0.28581224E+03</pdfrwt>
<totfact> 0.18052265E+03</totfact>
</mgrwt>
</event>
<event>
 5    0  0.1283376E+001  0.2574228E+03  0.7546771E-02  0.1108702E+00
         21   -1    0    0  504  501  0.00000000000E+00  0.00000000000E+00  0.88373304097E+03  0.88373304097E+03  0.00000000000E+00 0. -1.
         21   -1    0    0  501  502 -0.00000000000E+00 -0.00000000000E+00 -0.11048013886E+03  0.11048013886E+03  0.00000000000E+00 0. -1.
         25    1    1    2    0    0 -0.20379294453E+03  0.80635215895E+02  0.43593962035E+03  0.50368835094E+03  0.12500000000E+03 0.  0.
         21    1    1    2  503  502 -0.29771674311E+02 -0.53620140162E+02 -0.18486070337E+02  0.64056278527E+02  0.00000000000E+00 0. -1.
         21    1    1    2  504  503  0.23356461884E+03 -0.27015075733E+02  0.35579935210E+03  0.42646855036E+03  0.00000000000E+00 0. -1.
<mgrwt>
<rscale>  4 0.25742281E+03</rscale>
<asrwt>0</asrwt>
<pdfrwt beam="1">  1       21 0.13595892E+00 0.25742281E+03</pdfrwt>
<pdfrwt beam="2">  1       21 0.16996945E-01 0.25742281E+03</pdfrwt>
<totfact> 0.11550139E+04</totfact>
</mgrwt>
</event>
<event>
 5    0  0.1283376E+001  0.2332088E+03  0.7546771E-02  0.1124401E+00
         21   -1    0    0  504  501  0.00000000000E+00  0.00000000000E+00  0.12485675480E+03  0.12485675480E+03  0.00000000000E+00 0.  1.
         21   -1    0    0  503  502 -0.00000000000E+00 -0.00000000000E+00 -0.21864318251E+04  0.21864318251E+04  0.00000000000E+00 0.  1.
         25    1    1    2    0    0  0.36356896497E+01 -0.21191046854E+03 -0.29545678004E+02  0.24782496243E+03  0.12500000000E+03 0.  0.
         21    1    1    2  503  501  0.13871105658E+02  0.19576897491E+03 -0.20301092185E+04  0.20395738128E+04  0.00000000000E+00 0.  1.
         21    1    1    2  504  502 -0.17506795308E+02  0.16141493633E+02 -0.19201738445E+01  0.23889804651E+02  0.00000000000E+00 0.  1.
<mgrwt>
<rscale>  4 0.23320879E+03</rscale>
<asrwt>0</asrwt>
<pdfrwt beam="1">  1       21 0.19208734E-01 0.23320879E+03</pdfrwt>
<pdfrwt beam="2">  1       21 0.33637409E+00 0.23320879E+03</pdfrwt>
<totfact> 0.49445231E+02</totfact>
</mgrwt>
</event>
<event>
 5    0  0.1283376E+001  0.2842924E+03  0.7546771E-02  0.1093367E+00
         21   -1    0    0  504  501  0.00000000000E+00  0.00000000000E+00  0.10706626412E+04  0.10706626412E+04  0.00000000000E+00 0. -1.
         21   -1    0    0  501  502 -0.00000000000E+00 -0.00000000000E+00 -0.42786262132E+03  0.42786262132E+03  0.00000000000E+00 0. -1.
         25    1    1    2    0    0 -0.20483860939E+03 -0.14572238441E+03  0.85532505751E+03  0.90022209660E+03  0.12500000000E+03 0.  0.
         21    1    1    2  503  502 -0.33858884100E+02  0.11634568195E+02 -0.30669635161E+03  0.30877894893E+03  0.00000000000E+00 0. -1.
         21    1    1    2  504  503  0.23869749349E+03  0.13408781622E+03  0.94171314014E+02  0.28952421701E+03  0.00000000000E+00 0. -1.
<mgrwt>
<rscale>  4 0.28429240E+03</rscale>
<asrwt>0</asrwt>
<pdfrwt beam="1">  1       21 0.16471733E+00 0.28429240E+03</pdfrwt>
<pdfrwt beam="2">  1       21 0.65825019E-01 0.28429240E+03</pdfrwt>
<totfact> 0.45143210E+02</totfact>
</mgrwt>
</event>
<event>
 5    0  0.1283376E+001  0.2658161E+03  0.7546771E-02  0.1103698E+00
         21   -1    0    0  504  501  0.00000000000E+00  0.00000000000E+00  0.96383792700E+03  0.96383792700E+03  0.00000000000E+00 0. -1.
         21   -1    0    0  501  502 -0.00000000000E+00 -0.00000000000E+00 -0.24052686883E+03  0.24052686883E+03  0.00000000000E+00 0. -1.
         25    1    1    2    0    0  0.18042532840E+03  0.13237964142E+03  0.83842599120E+03  0.87673303309E+03  0.12500000000E+03 0.  0.
         21    1    1    2  503  502 -0.16652155264E+03 -0.16666350901E+03 -0.14792156647E+03  0.27818508686E+03  0.00000000000E+00 0. -1.
         21    1    1    2  504  503 -0.13903775760E+02  0.34283867590E+02  0.32806633435E+02  0.49446675870E+02  0.00000000000E+00 0.  1.
<mgrwt>
<rscale>  4 0.26581606E+03</rscale>
<asrwt>0</asrwt>
<pdfrwt beam="1">  1       21 0.14828276E+00 0.26581606E+03</pdfrwt>
<pdfrwt beam="2">  1       21 0.37004134E-01 0.26581606E+03</pdfrwt>
<totfact> 0.20431302E+03</totfact>
</mgrwt>
</event>
<event>
 5    0  0.1283376E+001  0.2532050E+03  0.7546771E-02  0.1111296E+00
         21   -1    0    0  504  501  0.00000000000E+00  0.00000000000E+00  0.11161067008E+04  0.11161067008E+04  0.00000000000E+00 0.  1.
         21   -1    0    0  501  502 -0.00000000000E+00 -0.00000000000E+00 -0.10632386884E+03  0.10632386884E+03  0.00000000000E+00 0.  1.
         25    1    1    2    0    0  0.62602497106E+02 -0.22694585260E+03  0.63157237962E+03  0.68551598330E+03  0.12500000000E+03 0.  0.
         21    1    1    2  503  502  0.12162505311E+03  0.95008258174E+02  0.16093963632E+03  0.22298158938E+03  0.00000000000E+00 0.  1.
         21    1    1    2  504  503 -0.18422755022E+03  0.13193759443E+03  0.21727081599E+03  0.31393299693E+03  0.00000000000E+00 0.  1.
<mgrwt>
<rscale>  4 0.25320502E+03</rscale>
<asrwt>0</asrwt>
<pdfrwt beam="1">  1       21 0.17170871E+00 0.25320502E+03</pdfrwt>
<pdfrwt beam="2">  1       21 0.16357519E-01 0.25320502E+03</pdfrwt>
<totfact> 0.66422222E+03</totfact>
</mgrwt>
</event>
<event>
 5    0  0.1283376E+001  0.2509050E+03  0.7546771E-02  0.1112734E+00
         21   -1    0    0  504  501  0.00000000000E+00  0.00000000000E+00  0.12573535268E+04  0.12573535268E+04  0.00000000000E+00 0. -1.
         21   -1    0    0  501  502 -0.00000000000E+00 -0.00000000000E+00 -0.11903808948E+03  0.11903808948E+03  0.00000000000E+00 0. -1.
         25    1    1    2    0    0 -0.61550170193E+02 -0.21819709218E+03  0.94487566706E+03  0.97970067913E+03  0.12500000000E+03 0.  0.
         21    1    1    2  503  502 -0.28503228451E+02  0.38032448572E+02 -0.57703164151E+02  0.74756647394E+02  0.00000000000E+00 0. -1.
         21    1    1    2  504  503  0.90053398645E+02  0.18016464361E+03  0.25114293441E+03  0.32193428975E+03  0.00000000000E+00 0. -1.
<mgrwt>
<rscale>  4 0.25090504E+03</rscale>
<asrwt>0</asrwt>
<pdfrwt beam="1">  1       21 0.19343899E+00 0.25090504E+03</pdfrwt>
<pdfrwt beam="2">  1       21 0.18313553E-01 0.25090504E+03</pdfrwt>
<totfact> 0.38333432E+03</totfact>
</mgrwt>
</event>
<event>
 5    0  0.1283376E+001  0.3772668E+03  0.7546771E-02  0.1051949E+00
         21   -1    0    0  504  501  0.00000000000E+00  0.00000000000E+00  0.25680782774E+03  0.25680782774E+03  0.00000000000E+00 0. -1.
         21   -1    0    0  501  502 -0.00000000000E+00 -0.00000000000E+00 -0.68615325148E+03  0.68615325148E+03  0.00000000000E+00 0. -1.
         25    1    1    2    0    0  0.29057278094E+03  0.21872223840E+03 -0.88337532984E+02  0.39458899925E+03  0.12500000000E+03 0.  0.
         21    1    1    2  503  502 -0.42543690111E+02  0.25260450813E+02 -0.13559906341E+03  0.14434390164E+03  0.00000000000E+00 0. -1.
         21    1    1    2  504  503 -0.24802909083E+03 -0.24398268921E+03 -0.20540882735E+03  0.40402817833E+03  0.00000000000E+00 0. -1.
<mgrwt>
<rscale>  4 0.37726678E+03</rscale>
<asrwt>0</asrwt>
<pdfrwt beam="1">  1       21 0.39508896E-01 0.37726678E+03</pdfrwt>
<pdfrwt beam="2">  1       21 0.10556204E+00 0.37726678E+03</pdfrwt>
<totfact> 0.39996517E+03</totfact>
</mgrwt>
</event>
<event>
 5    0  0.1283376E+001  0.3620126E+03  0.7546771E-02  0.1057790E+00
         21   -1    0    0  504  501  0.00000000000E+00  0.00000000000E+00  0.15116185811E+04  0.15116185811E+04  0.00000000000E+00 0.  1.
         21   -1    0    0  503  502 -0.00000000000E+00 -0.00000000000E+00 -0.57800069818E+03  0.57800069818E+03  0.00000000000E+00 0.  1.
         25    1    1    2    0    0 -0.22553307226E+03 -0.27493850032E+03  0.13988582830E+04  0.14487532024E+04  0.12500000000E+03 0.  0.
         21    1    1    2  503  501  0.78931161016E+02  0.21767517909E+03 -0.11856201313E+03  0.26013374008E+03  0.00000000000E+00 0.  1.
         21    1    1    2  504  502  0.14660191125E+03  0.57263321231E+02 -0.34667838690E+03  0.38073233680E+03  0.00000000000E+00 0.  1.
<mgrwt>
<rscale>  4 0.36201257E+03</rscale>
<asrwt>0</asrwt>
<pdfrwt beam="1">  1       21 0.23255670E+00 0.36201257E+03</pdfrwt>
<pdfrwt beam="2">  1       21 0.88923185E-01 0.36201257E+03</pdfrwt>
<totfact> 0.75916854E+01</totfact>
</mgrwt>
</event>
<event>
 5    0  0.1283376E+001  0.2554441E+03  0.7546771E-02  0.1109912E+00
         21   -1    0    0  503  501  0.00000000000E+00  0.00000000000E+00  0.52948222851E+03  0.52948222851E+03  0.00000000000E+00 0. -1.
         21   -1    0    0  504  502 -0.00000000000E+00 -0.00000000000E+00 -0.14615426730E+03  0.14615426730E+03  0.00000000000E+00 0. -1.
         25    1    1    2    0    0  0.24618728904E+03 -0.14788866819E+02  0.23146486631E+03  0.36059378281E+03  0.12500000000E+03 0.  0.
         21    1    1    2  503  502 -0.41023771133E+02  0.21326137221E+02 -0.16980400319E+02  0.49255333942E+02  0.00000000000E+00 0.  1.
         21    1    1    2  504  501 -0.20516351791E+03 -0.65372704020E+01  0.16884349522E+03  0.26578737905E+03  0.00000000000E+00 0. -1.
<mgrwt>
<rscale>  4 0.25544409E+03</rscale>
<asrwt>0</asrwt>
<pdfrwt beam="1">  1       21 0.81458803E-01 0.25544409E+03</pdfrwt>
<pdfrwt beam="2">  1       21 0.22485272E-01 0.25544409E+03</pdfrwt>
<totfact> 0.23657429E+04</totfact>
</mgrwt>
</event>
<event>
 5    0  0.1283376E+001  0.2905373E+03  0.7546771E-02  0.1090069E+00
         21   -1    0    0  504  501  0.00000000000E+00  0.00000000000E+00  0.63877688441E+02  0.63877688441E+02  0.00000000000E+00 0. -1.
         21   -1    0    0  501  502 -0.00000000000E+00 -0.00000000000E+00 -0.13911950699E+04  0.13911950699E+04  0.00000000000E+00 0. -1.
         25    1    1    2    0    0  0.13981911000E+03  0.20804205853E+03 -0.53078483272E+03  0.60015699636E+03  0.12500000000E+03 0.  0.
         21    1    1    2  503  502  0.95469108872E+01  0.24404467700E+02 -0.14291851661E+03  0.14530114914E+03  0.00000000000E+00 0. -1.
         21    1    1    2  504  503 -0.14936602089E+03 -0.23244652623E+03 -0.65361403213E+03  0.70961461283E+03  0.00000000000E+00 0. -1.
<mgrwt>
<rscale>  4 0.29053728E+03</rscale>
<asrwt>0</asrwt>
<pdfrwt beam="1">  1       21 0.98273359E-02 0.29053728E+03</pdfrwt>
<pdfrwt beam="2">  1       21 0.21403003E+00 0.29053728E+03</pdfrwt>
<totfact> 0.85288557E+03</totfact>
</mgrwt>
</event>
<event>
 5    0  0.1283376E+001  0.3461624E+03  0.7546771E-02  0.1064201E+00
         21   -1    0    0  504  501  0.00000000000E+00  0.00000000000E+00  0.12184583365E+04  0.12184583365E+04  0.00000000000E+00 0. -1.
         21   -1    0    0  501  502 -0.00000000000E+00 -0.00000000000E+00 -0.21655451895E+03  0.21655451895E+03  0.00000000000E+00 0. -1.
         25    1    1    2    0    0  0.86618297042E+01  0.34855058156E+03  0.50229448976E+03  0.62408916803E+03  0.12500000000E+03 0.  0.
         21    1    1    2  503  502  0.42108014947E+02 -0.44314466682E+02 -0.11106375785E+03  0.12677545184E+03  0.00000000000E+00 0. -1.
         21    1    1    2  504  503 -0.50769844651E+02 -0.30423611488E+03  0.61067308568E+03  0.68414823561E+03  0.00000000000E+00 0. -1.
<mgrwt>
<rscale>  4 0.34616235E+03</rscale>
<asrwt>0</asrwt>
<pdfrwt beam="1">  1       21 0.18745512E+00 0.34616235E+03</pdfrwt>
<pdfrwt beam="2">  1       21 0.33316081E-01 0.34616235E+03</pdfrwt>
<totfact> 0.12456723E+03</totfact>
</mgrwt>
</event>
<event>
 5    0  0.1283376E+001  0.2418572E+03  0.7546771E-02  0.1118562E+00
         21   -1    0    0  503  501  0.00000000000E+00  0.00000000000E+00  0.59631682719E+03  0.59631682719E+03  0.00000000000E+00 0.  1.
         21   -1    0    0  504  502 -0.00000000000E+00 -0.00000000000E+00 -0.37931827108E+03  0.37931827108E+03  0.00000000000E+00 0. -1.
         25    1    1    2    0    0 -0.15159579295E+03  0.14428961538E+03  0.50007010057E+03  0.55632354169E+03  0.12500000000E+03 0.  0.
         21    1    1    2  503  502  0.11512320318E+03 -0.16143863446E+03 -0.82549660487E+02  0.21477949403E+03  0.00000000000E+00 0.  1.
         21    1    1    2  504  501  0.36472589774E+02  0.17149019080E+02 -0.20052188397E+03  0.20453206255E+03  0.00000000000E+00 0. -1.
<mgrwt>
<rscale>  4 0.24185724E+03</rscale>
<asrwt>0</asrwt>
<pdfrwt beam="1">  1       21 0.91741051E-01 0.24185724E+03</pdfrwt>
<pdfrwt beam="2">  1       21 0.58356657E-01 0.24185724E+03</pdfrwt>
<totfact> 0.26575481E+03</totfact>
</mgrwt>
</event>
<event>
 5    0  0.1283376E+001  0.3482112E+03  0.7546771E-02  0.1063352E+00
         21   -1    0    0  503  501  0.00000000000E+00  0.00000000000E+00  0.10530161515E+04  0.10530161515E+04  0.00000000000E+00 0. -1.
         21   -1    0    0  504  502 -0.00000000000E+00 -0.00000000000E+00 -0.35610596851E+03  0.35610596851E+03  0.00000000000E+00 0.  1.
         25    1    1    2    0    0 -0.20741337066E+03  0.20206687383E+03  0.48735516222E+03  0.58050958818E+03  0.12500000000E+03 0.  0.
         21    1    1    2  503  502  0.26197682243E+03 -0.27311740445E+03  0.44059210697E+03  0.58081526911E+03  0.00000000000E+00 0.  1.
         21    1    1    2  504  501 -0.54563451770E+02  0.71050530628E+02 -0.23103708624E+03  0.24779726268E+03  0.00000000000E+00 0.  1.
<mgrwt>
<rscale>  4 0.34821120E+03</rscale>
<asrwt>0</asrwt>
<pdfrwt beam="1">  1       21 0.16200248E+00 0.34821120E+03</pdfrwt>
<pdfrwt beam="2">  1       21 0.54785534E-01 0.34821120E+03</pdfrwt>
<totfact> 0.67419108E+02</totfact>
</mgrwt>
</event>
<event>
 5    0  0.1283376E+001  0.2429727E+03  0.7546771E-02  0.1117828E+00
         21   -1    0    0  504  501  0.00000000000E+00  0.00000000000E+00  0.22203648842E+03  0.22203648842E+03  0.00000000000E+00 0. -1.
         21   -1    0    0  501  502 -0.00000000000E+00 -0.00000000000E+00 -0.70714167078E+03  0.70714167078E+03  0.00000000000E+00 0.  1.
         25    1    1    2    0    0  0.42562516891E+02 -0.20395868213E+03  0.13188535417E+03  0.27645878265E+03  0.12500000000E+03 0.  0.
         21    1    1    2  503  502  0.88948957069E+01  0.29110183550E+02 -0.10081689493E+03  0.10531176696E+03  0.00000000000E+00 0.  1.
         21    1    1    2  504  503 -0.51457412598E+02  0.17484849858E+03 -0.51617364160E+03  0.54740760960E+03  0.00000000000E+00 0.  1.
<mgrwt>
<rscale>  4 0.24297266E+03</rscale>
<asrwt>0</asrwt>
<pdfrwt beam="1">  1       21 0.34159460E-01 0.24297266E+03</pdfrwt>
<pdfrwt beam="2">  1       21 0.10879103E+00 0.24297266E+03</pdfrwt>
<totfact> 0.53412251E+03</totfact>
</mgrwt>
</event>
<event>
 5    0  0.1283376E+001  0.2187996E+03  0.7546771E-02  0.1134781E+00
         21   -1    0    0  504  501  0.00000000000E+00  0.00000000000E+00  0.93462912911E+03  0.93462912911E+03  0.00000000000E+00 0.  1.
         21   -1    0    0  503  502 -0.00000000000E+00 -0.00000000000E+00 -0.81907130922E+03  0.81907130922E+03  0.00000000000E+00 0. -1.
         25    1    1    2    0    0 -0.16354461240E+03  0.12070555220E+03  0.53777863979E+03  0.58834304279E+03  0.12500000000E+03 0.  0.
         21    1    1    2  503  501  0.14887981423E+03 -0.69071596475E+02  0.35247098912E+03  0.38880828528E+03  0.00000000000E+00 0.  1.
         21    1    1    2  504  502  0.14664798168E+02 -0.51633955729E+02 -0.77469180902E+03  0.77654911026E+03  0.00000000000E+00 0. -1.
<mgrwt>
<rscale>  4 0.21879955E+03</rscale>
<asrwt>0</asrwt>
<pdfrwt beam="1">  1       21 0.14378910E+00 0.21879955E+03</pdfrwt>
<pdfrwt beam="2">  1       21 0.12601097E+00 0.21879955E+03</pdfrwt>
<totfact> 0.15104151E+02</totfact>
</mgrwt>
</event>
<event>
 5    0  0.1283376E+001  0.2818480E+03  0.7546771E-02  0.1094684E+00
         21   -1    0    0  504  501  0.00000000000E+00  0.00000000000E+00  0.28926374252E+03  0.28926374252E+03  0.00000000000E+00 0.  1.
         21   -1    0    0  501  502 -0.00000000000E+00 -0.00000000000E+00 -0.46870706030E+03  0.46870706030E+03  0.00000000000E+00 0.  1.
         25    1    1    2    0    0 -0.84718696351E+02  0.27935553484E+03 -0.93241019441E+01  0.31769279381E+03  0.12500000000E+03 0.  0.
         21    1    1    2  503  502 -0.58429275698E+02 -0.96083882745E+02 -0.17460403237E+03  0.20768404103E+03  0.00000000000E+00 0.  1.
         21    1    1    2  504  503  0.14314797205E+03 -0.18327165210E+03  0.44848165306E+01  0.23259396799E+03  0.00000000000E+00 0.  1.
<mgrwt>
<rscale>  4 0.28184798E+03</rscale>
<asrwt>0</asrwt>
<pdfrwt beam="1">  1       21 0.44502114E-01 0.28184798E+03</pdfrwt>
<pdfrwt beam="2">  1       21 0.72108778E-01 0.28184798E+03</pdfrwt>
<totfact> 0.79679413E+03</totfact>
</mgrwt>
</event>
<event>
 5    0  0.1283376E+001  0.2403517E+03  0.7546771E-02  0.1119559E+00
         21   -1    0    0  504  501  0.00000000000E+00  0.00000000000E+00  0.10310726301E+03  0.10310726301E+03  0.00000000000E+00 0.  1.
         21   -1    0    0  501  502 -0.00000000000E+00 -0.00000000000E+00 -0.76650745378E+03  0.76650745378E+03  0.00000000000E+00 0.  1.
         25    1    1    2    0    0  0.20731641022E+03 -0.11855438673E+02 -0.16435934979E+03  0.29284747094E+03  0.12500000000E+03 0.  0.
         21    1    1    2  503  502 -0.54478792821E+01  0.54473134266E+02 -0.23705905214E+03  0.24329816265E+03  0.00000000000E+00 0.  1.
         21    1    1    2  504  503 -0.20186853094E+03 -0.42617695593E+02 -0.26198178885E+03  0.33346908320E+03  0.00000000000E+00 0.  1.
<mgrwt>
<rscale>  4 0.24035167E+03</rscale>
<asrwt>0</asrwt>
<pdfrwt beam="1">  1       21 0.15862656E-01 0.24035167E+03</pdfrwt>
<pdfrwt beam="2">  1       21 0.11792422E+00 0.24035167E+03</pdfrwt>
<totfact> 0.18983760E+04</totfact>
</mgrwt>
</event>
<event>
 5    0  0.1283376E+001  0.2353717E+03  0.7546771E-02  0.1122915E+00
         21   -1    0    0  504  501  0.00000000000E+00  0.00000000000E+00  0.64567225227E+03  0.64567225227E+03  0.00000000000E+00 0.  1.
         21   -1    0    0  503  502 -0.00000000000E+00 -0.00000000000E+00 -0.15281543080E+03  0.15281543080E+03  0.00000000000E+00 0.  1.
         25    1    1    2    0    0 -0.19022735475E+03  0.68622466092E+02  0.48889012910E+03  0.54363043299E+03  0.12500000000E+03 0.  0.
         21    1    1    2  503  501  0.17156032578E+03 -0.10179499929E+03 -0.32531179122E+02  0.20212235126E+03  0.00000000000E+00 0.  1.
         21    1    1    2  504  502  0.18667028964E+02  0.33172533198E+02  0.36497871496E+02  0.52734898813E+02  0.00000000000E+00 0. -1.
<mgrwt>
<rscale>  4 0.23537169E+03</rscale>
<asrwt>0</asrwt>
<pdfrwt beam="1">  1       21 0.99334192E-01 0.23537169E+03</pdfrwt>
<pdfrwt beam="2">  1       21 0.23510067E-01 0.23537169E+03</pdfrwt>
<totfact> 0.13827101E+04</totfact>
</mgrwt>
</event>
<event>
 5    0  0.1283376E+001  0.2455595E+03  0.7546771E-02  0.1116144E+00
         21   -1    0    0  504  501  0.00000000000E+00  0.00000000000E+00  0.97943290237E+02  0.97943290237E+02  0.00000000000E+00 0.  1.
         21   -1    0    0  501  502 -0.00000000000E+00 -0.00000000000E+00 -0.92195583458E+03  0.92195583458E+03  0.00000000000E+00 0.  1.
         25    1    1    2    0    0 -0.20304251253E+03 -0.54004074913E+02 -0.12176881015E+03  0.27312148420E+03  0.12500000000E+03 0.  0.
         21    1    1    2  503  502  0.26827046604E+01 -0.26938069169E+02 -0.17320641825E+03  0.17530921196E+03  0.00000000000E+00 0.  1.
         21    1    1    2  504  503  0.20035980787E+03  0.80942144081E+02 -0.52903731594E+03  0.57146842866E+03  0.00000000000E+00 0.  1.
<mgrwt>
<rscale>  4 0.24555946E+03</rscale>
<asrwt>0</asrwt>
<pdfrwt beam="1">  1       21 0.15068198E-01 0.24555946E+03</pdfrwt>
<pdfrwt beam="2">  1       21 0.14183936E+00 0.24555946E+03</pdfrwt>
<totfact> 0.13002063E+04</totfact>
</mgrwt>
</event>
<event>
 5    0  0.1283376E+001  0.2650372E+03  0.7546771E-02  0.1104154E+00
         21   -1    0    0  504  501  0.00000000000E+00  0.00000000000E+00  0.97342374843E+02  0.97342374843E+02  0.00000000000E+00 0. -1.
         21   -1    0    0  503  502 -0.00000000000E+00 -0.00000000000E+00 -0.12796014822E+04  0.12796014822E+04  0.00000000000E+00 0. -1.
         25    1    1    2    0    0  0.22081275389E+03 -0.62909380420E+02 -0.15347629942E+03  0.30314326136E+03  0.12500000000E+03 0.  0.
         21    1    1    2  503  501 -0.24508679386E+03  0.37618124762E+02 -0.68983839579E+03  0.73304820587E+03  0.00000000000E+00 0. -1.
         21    1    1    2  504  502  0.24274039970E+02  0.25291255659E+02 -0.33894441214E+03  0.34075238979E+03  0.00000000000E+00 0. -1.
<mgrwt>
<rscale>  4 0.26503718E+03</rscale>
<asrwt>0</asrwt>
<pdfrwt beam="1">  1       21 0.14975750E-01 0.26503718E+03</pdfrwt>
<pdfrwt beam="2">  1       21 0.19686177E+00 0.26503718E+03</pdfrwt>
<totfact> 0.52260259E+03</totfact>
</mgrwt>
</event>
<event>
 5    0  0.1283376E+001  0.5253415E+03  0.7546771E-02  0.1007368E+00
         21   -1    0    0  504  501  0.00000000000E+00  0.00000000000E+00  0.77234399893E+03  0.77234399893E+03  0.00000000000E+00 0. -1.
         21   -1    0    0  501  502 -0.00000000000E+00 -0.00000000000E+00 -0.50248122613E+03  0.50248122613E+03  0.00000000000E+00 0.  1.
         25    1    1    2    0    0  0.52082812514E+03 -0.30905936001E+02  0.35035392377E+03  0.64077295879E+03  0.12500000000E+03 0.  0.
         21    1    1    2  503  502 -0.29435496260E+02 -0.67437627285E+01 -0.13488751421E+03  0.13822651072E+03  0.00000000000E+00 0. -1.
         21    1    1    2  504  503 -0.49139262888E+03  0.37649698729E+02  0.54396363248E+02  0.49582575555E+03  0.00000000000E+00 0.  1.
<mgrwt>
<rscale>  4 0.52534149E+03</rscale>
<asrwt>0</asrwt>
<pdfrwt beam="1">  1       21 0.11882215E+00 0.52534149E+03</pdfrwt>
<pdfrwt beam="2">  1       21 0.77304804E-01 0.52534149E+03</pdfrwt>
<totfact> 0.65669338E+02</totfact>
</mgrwt>
</event>
<event>
 5    0  0.1283376E+001  0.2525014E+03  0.7546771E-02  0.1111734E+00
         21   -1    0    0  504  501  0.00000000000E+00  0.00000000000E+00  0.17208604062E+03  0.17208604062E+03  0.00000000000E+00 0.  1.
         21   -1    0    0  503  502 -0.00000000000E+00 -0.00000000000E+00 -0.44022528748E+03  0.44022528748E+03  0.00000000000E+00 0.  1.
         25    1    1    2    0    0  0.77096667915E+02  0.19401989527E+03 -0.23560392059E+03  0.33870610175E+03  0.12500000000E+03 0.  0.
         21    1    1    2  503  501 -0.66626162901E+02 -0.21330007323E+03  0.12182271061E+02  0.22379538546E+03  0.00000000000E+00 0.  1.
         21    1    1    2  504  502 -0.10470505014E+02  0.19280177961E+02 -0.44717597333E+02  0.49809840882E+02  0.00000000000E+00 0.  1.
<mgrwt>
<rscale>  4 0.25250136E+03</rscale>
<asrwt>0</asrwt>
<pdfrwt beam="1">  1       21 0.26474776E-01 0.25250136E+03</pdfrwt>
<pdfrwt beam="2">  1       21 0.67726967E-01 0.25250136E+03</pdfrwt>
<totfact> 0.26218697E+04</totfact>
</mgrwt>
</event>
<event>
 5    0  0.1283376E+001  0.3284444E+03  0.7546771E-02  0.1071827E+00
         21   -1    0    0  503  501  0.00000000000E+00  0.00000000000E+00  0.51925433024E+03  0.51925433024E+03  0.00000000000E+00 0. -1.
         21   -1    0    0  504  502 -0.00000000000E+00 -0.00000000000E+00 -0.24481029241E+03  0.24481029241E+03  0.00000000000E+00 0. -1.
         25    1    1    2    0    0 -0.10176936443E+03 -0.27579034468E+03  0.16042720774E+02  0.31984322198E+03  0.12500000000E+03 0.  0.
         21    1    1    2  503  502 -0.37425653554E+02  0.84780948068E-02 -0.56252674998E+01  0.37846046693E+02  0.00000000000E+00 0.  1.
         21    1    1    2  504  501  0.13919501798E+03  0.27578186659E+03  0.26402658456E+03  0.40637535398E+03  0.00000000000E+00 0. -1.
<mgrwt>
<rscale>  4 0.32844436E+03</rscale>
<asrwt>0</asrwt>
<pdfrwt beam="1">  1       21 0.79885281E-01 0.32844436E+03</pdfrwt>
<pdfrwt beam="2">  1       21 0.37663122E-01 0.32844436E+03</pdfrwt>
<totfact> 0.87053438E+03</totfact>
</mgrwt>
</event>
<event>
 5    0  0.1283376E+001  0.2296030E+03  0.7546771E-02  0.1126919E+00
         21   -1    0    0  503  501  0.00000000000E+00  0.00000000000E+00  0.26708363997E+03  0.26708363997E+03  0.00000000000E+00 0. -1.
         21   -1    0    0  504  502 -0.00000000000E+00 -0.00000000000E+00 -0.51109400114E+03  0.51109400114E+03  0.00000000000E+00 0. -1.
         25    1    1    2    0    0 -0.24156140740E+03  0.30607961918E+02 -0.35216943096E+01  0.27372643864E+03  0.12500000000E+03 0.  0.
         21    1    1    2  503  502  0.68283245073E+02  0.32877788240E+02  0.95018398389E+02  0.12154030833E+03  0.00000000000E+00 0. -1.
         21    1    1    2  504  501  0.17327816233E+03 -0.63485750158E+02 -0.33550706526E+03  0.38291089414E+03  0.00000000000E+00 0. -1.
<mgrwt>
<rscale>  4 0.22960303E+03</rscale>
<asrwt>0</asrwt>
<pdfrwt beam="1">  1       21 0.41089791E-01 0.22960303E+03</pdfrwt>
<pdfrwt beam="2">  1       21 0.78629845E-01 0.22960303E+03</pdfrwt>
<totfact> 0.79539655E+03</totfact>
</mgrwt>
</event>
<event>
 5    0  0.1283376E+001  0.2537028E+03  0.7546771E-02  0.1110987E+00
         21   -1    0    0  504  501  0.00000000000E+00  0.00000000000E+00  0.64911504146E+02  0.64911504146E+02  0.00000000000E+00 0. -1.
         21   -1    0    0  501  502 -0.00000000000E+00 -0.00000000000E+00 -0.16593712981E+04  0.16593712981E+04  0.00000000000E+00 0. -1.
         25    1    1    2    0    0 -0.21765053555E+03 -0.95442969451E+02 -0.39321798924E+03  0.47615806525E+03  0.12500000000E+03 0.  0.
         21    1    1    2  503  502  0.21197264757E+03 -0.22919227920E+02 -0.64237690910E+03  0.67683512591E+03  0.00000000000E+00 0. -1.
         21    1    1    2  504  503  0.56778879784E+01  0.11836219737E+03 -0.55886489562E+03  0.57128961109E+03  0.00000000000E+00 0. -1.
<mgrwt>
<rscale>  4 0.25370279E+03</rscale>
<asrwt>0</asrwt>
<pdfrwt beam="1">  1       21 0.99863863E-02 0.25370279E+03</pdfrwt>
<pdfrwt beam="2">  1       21 0.25528787E+00 0.25370279E+03</pdfrwt>
<totfact> 0.47580316E+03</totfact>
</mgrwt>
</event>
<event>
 5    0  0.1283376E+001  0.2580111E+03  0.7546771E-02  0.1108344E+00
         21   -1    0    0  503  501  0.00000000000E+00  0.00000000000E+00  0.94607619167E+03  0.94607619167E+03  0.00000000000E+00 0. -1.
         21   -1    0    0  504  502 -0.00000000000E+00 -0.00000000000E+00 -0.30506240861E+03  0.30506240861E+03  0.00000000000E+00 0.  1.
         25    1    1    2    0    0  0.98047927648E+02  0.19877445435E+03  0.58191364969E+03  0.63511666292E+03  0.12500000000E+03 0.  0.
         21    1    1    2  503  502  0.11613322535E+03 -0.32414983292E+03 -0.44302516916E+02  0.34716387084E+03  0.00000000000E+00 0.  1.
         21    1    1    2  504  501 -0.21418115299E+03  0.12537537857E+03  0.10340265028E+03  0.26885806652E+03  0.00000000000E+00 0. -1.
<mgrwt>
<rscale>  4 0.25801115E+03</rscale>
<asrwt>0</asrwt>
<pdfrwt beam="1">  1       21 0.14555018E+00 0.25801115E+03</pdfrwt>
<pdfrwt beam="2">  1       21 0.46932679E-01 0.25801115E+03</pdfrwt>
<totfact> 0.13269491E+03</totfact>
</mgrwt>
</event>
<event>
 5    0  0.1283376E+001  0.3350143E+03  0.7546771E-02  0.1068940E+00
         21   -1    0    0  502  501  0.00000000000E+00  0.00000000000E+00  0.73054970714E+02  0.73054970714E+02  0.00000000000E+00 0.  1.
         21   -1    0    0  503  502 -0.00000000000E+00 -0.00000000000E+00 -0.15097577012E+04  0.15097577012E+04  0.00000000000E+00 0.  1.
         25    1    1    2    0    0 -0.12104494876E+03 -0.28628250974E+03 -0.59382113931E+03  0.68180503114E+03  0.12500000000E+03 0.  0.
         21    1    1    2  503  504  0.10818315022E+03  0.26172702296E+03 -0.69387463567E+03  0.74944421978E+03  0.00000000000E+00 0.  1.
         21    1    1    2  504  501  0.12861798536E+02  0.24555486776E+02 -0.14900695545E+03  0.15156342094E+03  0.00000000000E+00 0. -1.
<mgrwt>
<rscale>  4 0.33501426E+03</rscale>
<asrwt>0</asrwt>
<pdfrwt beam="1">  1       21 0.11239225E-01 0.33501426E+03</pdfrwt>
<pdfrwt beam="2">  1       21 0.23227043E+00 0.33501426E+03</pdfrwt>
<totfact> 0.50240338E+03</totfact>
</mgrwt>
</event>
<event>
 5    0  0.1283376E+001  0.3383429E+03  0.7546771E-02  0.1067504E+00
         21   -1    0    0  503  501  0.00000000000E+00  0.00000000000E+00  0.55271867624E+03  0.55271867624E+03  0.00000000000E+00 0.  1.
         21   -1    0    0  504  502 -0.00000000000E+00 -0.00000000000E+00 -0.70492726748E+03  0.70492726748E+03  0.00000000000E+00 0. -1.
         25    1    1    2    0    0 -0.12506084145E+03  0.29146581804E+03  0.44848673863E+03  0.56334526880E+03  0.12500000000E+03 0.  0.
         21    1    1    2  503  502  0.10699191120E+02 -0.22670694728E+02 -0.18233930753E+03  0.18405449237E+03  0.00000000000E+00 0. -1.
         21    1    1    2  504  501  0.11436165033E+03 -0.26879512332E+03 -0.41835602234E+03  0.51024618255E+03  0.00000000000E+00 0. -1.
<mgrwt>
<rscale>  4 0.33834286E+03</rscale>
<asrwt>0</asrwt>
<pdfrwt beam="1">  1       21 0.85033642E-01 0.33834286E+03</pdfrwt>
<pdfrwt beam="2">  1       21 0.10845035E+00 0.33834286E+03</pdfrwt>
<totfact> 0.72133359E+02</totfact>
</mgrwt>
</event>
<event>
 5    0  0.1283376E+001  0.2444803E+03  0.7546771E-02  0.1116844E+00
         21   -1    0    0  503  501  0.00000000000E+00  0.00000000000E+00  0.72085070747E+02  0.72085070747E+02  0.00000000000E+00 0. -1.
         21   -1    0    0  504  502 -0.00000000000E+00 -0.00000000000E+00 -0.21155342422E+04  0.21155342422E+04  0.00000000000E+00 0. -1.
         25    1    1    2    0    0  0.95594982960E+02  0.20615289999E+03 -0.20428074574E+03  0.33014094266E+03  0.12500000000E+03 0.  0.
         21    1    1    2  503  502 -0.10945434643E+02 -0.15701953962E+03 -0.95159811286E+03  0.96452781545E+03  0.00000000000E+00 0. -1.
         21    1    1    2  504  501 -0.84649548317E+02 -0.49133360371E+02 -0.88757031281E+03  0.89295055480E+03  0.00000000000E+00 0. -1.
<mgrwt>
<rscale>  4 0.24448034E+03</rscale>
<asrwt>0</asrwt>
<pdfrwt beam="1">  1       21 0.11090013E-01 0.24448034E+03</pdfrwt>
<pdfrwt beam="2">  1       21 0.32546675E+00 0.24448034E+03</pdfrwt>
<totfact> 0.15438129E+03</totfact>
</mgrwt>
</event>
<event>
 5    0  0.1283376E+001  0.3528436E+03  0.7546771E-02  0.1061454E+00
         21   -1    0    0  504  501  0.00000000000E+00  0.00000000000E+00  0.51022923695E+03  0.51022923695E+03  0.00000000000E+00 0. -1.
         21   -1    0    0  503  502 -0.00000000000E+00 -0.00000000000E+00 -0.75882119635E+03  0.75882119635E+03  0.00000000000E+00 0. -1.
         25    1    1    2    0    0  0.30223325396E+03 -0.12896680842E+03  0.38951012950E+03  0.52470993745E+03  0.12500000000E+03 0.  0.
         21    1    1    2  503  501 -0.32292084597E+03  0.11272414518E+03 -0.51342771950E+03  0.61692189848E+03  0.00000000000E+00 0. -1.
         21    1    1    2  504  502  0.20687592009E+02  0.16242663240E+02 -0.12467436939E+03  0.12741859737E+03  0.00000000000E+00 0. -1.
<mgrwt>
<rscale>  4 0.35284362E+03</rscale>
<asrwt>0</asrwt>
<pdfrwt beam="1">  1       21 0.78496806E-01 0.35284362E+03</pdfrwt>
<pdfrwt beam="2">  1       21 0.11674172E+00 0.35284362E+03</pdfrwt>
<totfact> 0.71696031E+02</totfact>
</mgrwt>
</event>
<event>
 5    0  0.1283376E+001  0.2167578E+03  0.7546771E-02  0.1136324E+00
         21   -1    0    0  504  501  0.00000000000E+00  0.00000000000E+00  0.15026379281E+03  0.15026379281E+03  0.00000000000E+00 0. -1.
         21   -1    0    0  501  502 -0.00000000000E+00 -0.00000000000E+00 -0.42368146796E+03  0.42368146796E+03  0.00000000000E+00 0. -1.
         25    1    1    2    0    0 -0.16150691180E+03 -0.13746221996E+03 -0.15002525192E+03  0.28829311592E+03  0.12500000000E+03 0.  0.
         21    1    1    2  503  502  0.33061624686E+02  0.36899822090E+02 -0.11159331688E+03  0.12209724104E+03  0.00000000000E+00 0.  1.
         21    1    1    2  504  503  0.12844528711E+03  0.10056239787E+03 -0.11799106355E+02  0.16355490380E+03  0.00000000000E+00 0. -1.
<mgrwt>
<rscale>  4 0.21675784E+03</rscale>
<asrwt>0</asrwt>
<pdfrwt beam="1">  1       21 0.23117507E-01 0.21675784E+03</pdfrwt>
<pdfrwt beam="2">  1       21 0.65181763E-01 0.21675784E+03</pdfrwt>
<totfact> 0.37609194E+04</totfact>
</mgrwt>
</event>
<event>
 5    0  0.1283376E+001  0.4016134E+03  0.7546771E-02  0.1043222E+00
         21   -1    0    0  503  501  0.00000000000E+00  0.00000000000E+00  0.74600277721E+03  0.74600277721E+03  0.00000000000E+00 0. -1.
         21   -1    0    0  504  502 -0.00000000000E+00 -0.00000000000E+00 -0.40994294008E+03  0.40994294008E+03  0.00000000000E+00 0. -1.
         25    1    1    2    0    0  0.38156888766E+03  0.85722277824E+01  0.57287438285E+03  0.69962729910E+03  0.12500000000E+03 0.  0.
         21    1    1    2  503  502 -0.27135770769E+02 -0.11840005056E+02  0.75937815569E+00  0.29616083977E+02  0.00000000000E+00 0. -1.
         21    1    1    2  504  501 -0.35443311689E+03  0.32677772734E+01 -0.23757392388E+03  0.42670233422E+03  0.00000000000E+00 0. -1.
<mgrwt>
<rscale>  4 0.40161337E+03</rscale>
<asrwt>0</asrwt>
<pdfrwt beam="1">  1       21 0.11476966E+00 0.40161337E+03</pdfrwt>
<pdfrwt beam="2">  1       21 0.63068145E-01 0.40161337E+03</pdfrwt>
<totfact> 0.11925470E+03</totfact>
</mgrwt>
</event>
<event>
 5    0  0.1283376E+001  0.2795931E+03  0.7546771E-02  0.1095911E+00
         21   -1    0    0  503  501  0.00000000000E+00  0.00000000000E+00  0.20413286748E+04  0.20413286748E+04  0.00000000000E+00 0. -1.
         21   -1    0    0  504  502 -0.00000000000E+00 -0.00000000000E+00 -0.11039059896E+03  0.11039059896E+03  0.00000000000E+00 0.  1.
         25    1    1    2    0    0  0.12212224277E+03  0.21694556879E+03  0.18237550511E+04  0.18449083198E+04  0.12500000000E+03 0.  0.
         21    1    1    2  503  502 -0.10988459320E+03 -0.23676346936E+03  0.84649691738E+02  0.27440323350E+03  0.00000000000E+00 0.  1.
         21    1    1    2  504  501 -0.12237649575E+02  0.19817900570E+02  0.22533333004E+02  0.32407720476E+02  0.00000000000E+00 0.  1.
<mgrwt>
<rscale>  4 0.27959315E+03</rscale>
<asrwt>0</asrwt>
<pdfrwt beam="1">  1       21 0.31405054E+00 0.27959315E+03</pdfrwt>
<pdfrwt beam="2">  1       21 0.16983171E-01 0.27959315E+03</pdfrwt>
<totfact> 0.80020312E+02</totfact>
</mgrwt>
</event>
<event>
 5    0  0.1283376E+001  0.2568225E+03  0.7546771E-02  0.1109067E+00
         21   -1    0    0  503  501  0.00000000000E+00  0.00000000000E+00  0.42591604549E+02  0.42591604549E+02  0.00000000000E+00 0.  1.
         21   -1    0    0  504  502 -0.00000000000E+00 -0.00000000000E+00 -0.33572069973E+04  0.33572069973E+04  0.00000000000E+00 0.  1.
         25    1    1    2    0    0  0.70662561355E+02  0.28478614845E+03 -0.10900663416E+04  0.11357666913E+04  0.12500000000E+03 0.  0.
         21    1    1    2  503  502  0.97145473026E+02 -0.17090484788E+03 -0.14545276655E+04  0.14677521724E+04  0.00000000000E+00 0.  1.
         21    1    1    2  504  501 -0.16780803438E+03 -0.11388130057E+03 -0.77002138565E+03  0.79627973815E+03  0.00000000000E+00 0.  1.
<mgrwt>
<rscale>  4 0.25682252E+03</rscale>
<asrwt>0</asrwt>
<pdfrwt beam="1">  1       21 0.65525550E-02 0.25682252E+03</pdfrwt>
<pdfrwt beam="2">  1       21 0.51649335E+00 0.25682252E+03</pdfrwt>
<totfact> 0.22237392E+02</totfact>
</mgrwt>
</event>
<event>
 5    0  0.1283376E+001  0.4091785E+03  0.7546771E-02  0.1040647E+00
         21   -1    0    0  504  501  0.00000000000E+00  0.00000000000E+00  0.28047662256E+03  0.28047662256E+03  0.00000000000E+00 0. -1.
         21   -1    0    0  501  502 -0.00000000000E+00 -0.00000000000E+00 -0.17158239346E+04  0.17158239346E+04  0.00000000000E+00 0.  1.
         25    1    1    2    0    0 -0.39478235025E+03  0.63065506303E+02  0.67267301215E+02  0.42424079480E+03  0.12500000000E+03 0.  0.
         21    1    1    2  503  502  0.31510115930E+03  0.27331070928E+01 -0.13594706411E+04  0.13955130363E+04  0.00000000000E+00 0.  1.
         21    1    1    2  504  503  0.79681190950E+02 -0.65798613396E+02 -0.14314397213E+03  0.17654672603E+03  0.00000000000E+00 0.  1.
<mgrwt>
<rscale>  4 0.40917850E+03</rscale>
<asrwt>0</asrwt>
<pdfrwt beam="1">  1       21 0.43150250E-01 0.40917850E+03</pdfrwt>
<pdfrwt beam="2">  1       21 0.26397291E+00 0.40917850E+03</pdfrwt>
<totfact> 0.23171261E+02</totfact>
</mgrwt>
</event>
<event>
 5    0  0.1283376E+001  0.2685580E+03  0.7546771E-02  0.1102108E+00
         21   -1    0    0  504  501  0.00000000000E+00  0.00000000000E+00  0.43157253346E+03  0.43157253346E+03  0.00000000000E+00 0. -1.
         21   -1    0    0  501  502 -0.00000000000E+00 -0.00000000000E+00 -0.10839352747E+04  0.10839352747E+04  0.00000000000E+00 0. -1.
         25    1    1    2    0    0 -0.12742035926E+03 -0.19392787503E+03  0.32750890012E+03  0.42039392042E+03  0.12500000000E+03 0.  0.
         21    1    1    2  503  502  0.58157288648E+02 -0.11675892801E+03 -0.51804613340E+03  0.53421598050E+03  0.00000000000E+00 0. -1.
         21    1    1    2  504  503  0.69263070609E+02  0.31068680305E+03 -0.46182550793E+03  0.56089790721E+03  0.00000000000E+00 0. -1.
<mgrwt>
<rscale>  4 0.26855800E+03</rscale>
<asrwt>0</asrwt>
<pdfrwt beam="1">  1       21 0.66395776E-01 0.26855800E+03</pdfrwt>
<pdfrwt beam="2">  1       21 0.16675927E+00 0.26855800E+03</pdfrwt>
<totfact> 0.43366391E+02</totfact>
</mgrwt>
</event>
<event>
 5    0  0.1283376E+001  0.2515143E+03  0.7546771E-02  0.1112352E+00
         21   -1    0    0  504  501  0.00000000000E+00  0.00000000000E+00  0.79344835820E+03  0.79344835820E+03  0.00000000000E+00 0. -1.
         21   -1    0    0  501  502 -0.00000000000E+00 -0.00000000000E+00 -0.20253131711E+03  0.20253131711E+03  0.00000000000E+00 0. -1.
         25    1    1    2    0    0 -0.90739894861E+02 -0.19289509437E+03  0.60271826756E+03  0.65141120347E+03  0.12500000000E+03 0.  0.
         21    1    1    2  503  502  0.33148709415E+01 -0.26637189190E+02 -0.91370415810E+02  0.95231723194E+02  0.00000000000E+00 0. -1.
         21    1    1    2  504  503  0.87425023919E+02  0.21953228356E+03  0.79569189336E+02  0.24933674865E+03  0.00000000000E+00 0. -1.
<mgrwt>
<rscale>  4 0.25151435E+03</rscale>
<asrwt>0</asrwt>
<pdfrwt beam="1">  1       21 0.12206898E+00 0.25151435E+03</pdfrwt>
<pdfrwt beam="2">  1       21 0.31158665E-01 0.25151435E+03</pdfrwt>
<totfact> 0.47978057E+03</totfact>
</mgrwt>
</event>
<event>
 5    0  0.1283376E+001  0.2568246E+03  0.7546771E-02  0.1109066E+00
         21   -1    0    0  504  501  0.00000000000E+00  0.00000000000E+00  0.37730468636E+03  0.37730468636E+03  0.00000000000E+00 0. -1.
         21   -1    0    0  501  502 -0.00000000000E+00 -0.00000000000E+00 -0.19211990174E+03  0.19211990174E+03  0.00000000000E+00 0. -1.
         25    1    1    2    0    0  0.68454933159E+02  0.19629814124E+03  0.10685024337E+03  0.26506793966E+03  0.12500000000E+03 0.  0.
         21    1    1    2  503  502  0.41233292960E+02  0.20960532482E+02 -0.63013800274E+01  0.46682285296E+02  0.00000000000E+00 0. -1.
         21    1    1    2  504  503 -0.10968822612E+03 -0.21725867372E+03  0.84635921280E+02  0.25767436315E+03  0.00000000000E+00 0. -1.
<mgrwt>
<rscale>  4 0.25682463E+03</rscale>
<asrwt>0</asrwt>
<pdfrwt beam="1">  1       21 0.58046875E-01 0.25682463E+03</pdfrwt>
<pdfrwt beam="2">  1       21 0.29556908E-01 0.25682463E+03</pdfrwt>
<totfact> 0.29555530E+04</totfact>
</mgrwt>
</event>
<event>
 5    0  0.1283376E+001  0.4810399E+03  0.7546771E-02  0.1018850E+00
         21   -1    0    0  503  501  0.00000000000E+00  0.00000000000E+00  0.15842201396E+03  0.15842201396E+03  0.00000000000E+00 0.  1.
         21   -1    0    0  504  502 -0.00000000000E+00 -0.00000000000E+00 -0.18233962419E+04  0.18233962419E+04  0.00000000000E+00 0.  1.
         25    1    1    2    0    0 -0.40117612378E+03  0.15046412704E+03 -0.79974969113E+03  0.91586369307E+03  0.12500000000E+03 0.  0.
         21    1    1    2  503  502 -0.56817929594E+02  0.86533176481E+02 -0.10603304239E+03  0.14818661826E+03  0.00000000000E+00 0. -1.
         21    1    1    2  504  501  0.45799405337E+03 -0.23699730352E+03 -0.75919149445E+03  0.91776794455E+03  0.00000000000E+00 0.  1.
<mgrwt>
<rscale>  4 0.48103994E+03</rscale>
<asrwt>0</asrwt>
<pdfrwt beam="1">  1       21 0.24372620E-01 0.48103994E+03</pdfrwt>
<pdfrwt beam="2">  1       21 0.28052248E+00 0.48103994E+03</pdfrwt>
<totfact> 0.55578313E+02</totfact>
</mgrwt>
</event>
<event>
 5    0  0.1283376E+001  0.3235232E+03  0.7546771E-02  0.1074039E+00
         21   -1    0    0  503  501  0.00000000000E+00  0.00000000000E+00  0.47717131256E+03  0.47717131256E+03  0.00000000000E+00 0.  1.
         21   -1    0    0  504  502 -0.00000000000E+00 -0.00000000000E+00 -0.93905867199E+03  0.93905867199E+03  0.00000000000E+00 0.  1.
         25    1    1    2    0    0 -0.32722954028E+03 -0.36912357952E+03  0.94078532664E+01  0.50896453383E+03  0.12500000000E+03 0.  0.
         21    1    1    2  503  502  0.10299262872E+03  0.20762845938E+03  0.11528068420E+03  0.25885651405E+03  0.00000000000E+00 0.  1.
         21    1    1    2  504  501  0.22423691156E+03  0.16149512014E+03 -0.58657589689E+03  0.64840893667E+03  0.00000000000E+00 0.  1.
<mgrwt>
<rscale>  4 0.32352321E+03</rscale>
<asrwt>0</asrwt>
<pdfrwt beam="1">  1       21 0.73410972E-01 0.32352321E+03</pdfrwt>
<pdfrwt beam="2">  1       21 0.14447056E+00 0.32352321E+03</pdfrwt>
<totfact> 0.49090826E+02</totfact>
</mgrwt>
</event>
<event>
 5    0  0.1283376E+001  0.3118074E+03  0.7546771E-02  0.1079483E+00
         21   -1    0    0  503  501  0.00000000000E+00  0.00000000000E+00  0.20033123636E+04  0.20033123636E+04  0.00000000000E+00 0. -1.
         21   -1    0    0  504  502 -0.00000000000E+00 -0.00000000000E+00 -0.29534183771E+03  0.29534183771E+03  0.00000000000E+00 0. -1.
         25    1    1    2    0    0 -0.10428364504E+03  0.24411667593E+03  0.65020616095E+03  0.71334499496E+03  0.12500000000E+03 0.  0.
         21    1    1    2  503  502 -0.24472519213E+02  0.22851699446E+02 -0.24600510577E+03  0.24827326966E+03  0.00000000000E+00 0. -1.
         21    1    1    2  504  501  0.12875616425E+03 -0.26696837538E+03  0.13037694707E+04  0.13370359367E+04  0.00000000000E+00 0. -1.
<mgrwt>
<rscale>  4 0.31180736E+03</rscale>
<asrwt>0</asrwt>
<pdfrwt beam="1">  1       21 0.30820189E+00 0.31180736E+03</pdfrwt>
<pdfrwt beam="2">  1       21 0.45437207E-01 0.31180736E+03</pdfrwt>
<totfact> 0.12249982E+02</totfact>
</mgrwt>
</event>
<event>
 5    0  0.1283376E+001  0.2226342E+03  0.7546771E-02  0.1131934E+00
         21   -1    0    0  504  501  0.00000000000E+00  0.00000000000E+00  0.16871620838E+04  0.16871620838E+04  0.00000000000E+00 0.  1.
         21   -1    0    0  503  502 -0.00000000000E+00 -0.00000000000E+00 -0.13185170931E+03  0.13185170931E+03  0.00000000000E+00 0. -1.
         25    1    1    2    0    0 -0.16882470538E+03  0.14815741061E+03  0.36109248506E+03  0.44324393085E+03  0.12500000000E+03 0.  0.
         21    1    1    2  503  501  0.12369074399E+03 -0.12830853700E+03  0.12715924060E+04  0.12840209219E+04  0.00000000000E+00 0.  1.
         21    1    1    2  504  502  0.45133961391E+02 -0.19848873606E+02 -0.77374516554E+02  0.91748940410E+02  0.00000000000E+00 0. -1.
<mgrwt>
<rscale>  4 0.22263422E+03</rscale>
<asrwt>0</asrwt>
<pdfrwt beam="1">  1       21 0.25956338E+00 0.22263422E+03</pdfrwt>
<pdfrwt beam="2">  1       21 0.20284880E-01 0.22263422E+03</pdfrwt>
<totfact> 0.12692243E+03</totfact>
</mgrwt>
</event>
<event>
 5    0  0.1283376E+001  0.4037174E+03  0.7546771E-02  0.1042500E+00
         21   -1    0    0  503  501  0.00000000000E+00  0.00000000000E+00  0.91383629359E+03  0.91383629359E+03  0.00000000000E+00 0.  1.
         21   -1    0    0  504  502 -0.00000000000E+00 -0.00000000000E+00 -0.85308520852E+03  0.85308520852E+03  0.00000000000E+00 0.  1.
         25    1    1    2    0    0  0.44201530161E+03 -0.22370116201E+03  0.19120467906E+03  0.54553090292E+03  0.12500000000E+03 0.  0.
         21    1    1    2  503  502 -0.12725916747E+03  0.74481250427E+02 -0.61062539185E+03  0.62817650508E+03  0.00000000000E+00 0.  1.
         21    1    1    2  504  501 -0.31475613414E+03  0.14921991158E+03  0.48017179786E+03  0.59321409411E+03  0.00000000000E+00 0.  1.
<mgrwt>
<rscale>  4 0.40371742E+03</rscale>
<asrwt>0</asrwt>
<pdfrwt beam="1">  1       21 0.14059020E+00 0.40371742E+03</pdfrwt>
<pdfrwt beam="2">  1       21 0.13124388E+00 0.40371742E+03</pdfrwt>
<totfact> 0.12368214E+02</totfact>
</mgrwt>
</event>
<event>
 5    0  0.1283376E+001  0.4513107E+03  0.7546771E-02  0.1027332E+00
         21   -1    0    0  503  501  0.00000000000E+00  0.00000000000E+00  0.63376358111E+03  0.63376358111E+03  0.00000000000E+00 0.  1.
         21   -1    0    0  504  502 -0.00000000000E+00 -0.00000000000E+00 -0.99986354318E+03  0.99986354318E+03  0.00000000000E+00 0. -1.
         25    1    1    2    0    0  0.34093229429E+03  0.25089294209E+03  0.43146419259E+03  0.61722641484E+03  0.12500000000E+03 0.  0.
         21    1    1    2  503  502  0.10866897647E+03  0.11579855167E+02 -0.12992990246E+03  0.16977873556E+03  0.00000000000E+00 0.  1.
         21    1    1    2  504  501 -0.44960127076E+03 -0.26247279726E+03 -0.66763425220E+03  0.84662197390E+03  0.00000000000E+00 0. -1.
<mgrwt>
<rscale>  4 0.45131067E+03</rscale>
<asrwt>0</asrwt>
<pdfrwt beam="1">  1       21 0.97502089E-01 0.45131067E+03</pdfrwt>
<pdfrwt beam="2">  1       21 0.15382516E+00 0.45131067E+03</pdfrwt>
<totfact> 0.19868316E+02</totfact>
</mgrwt>
</event>
<event>
 5    0  0.1283376E+001  0.2985571E+03  0.7546771E-02  0.1085964E+00
         21   -1    0    0  503  501  0.00000000000E+00  0.00000000000E+00  0.79831555472E+03  0.79831555472E+03  0.00000000000E+00 0. -1.
         21   -1    0    0  504  502 -0.00000000000E+00 -0.00000000000E+00 -0.96072852595E+03  0.96072852595E+03  0.00000000000E+00 0.  1.
         25    1    1    2    0    0  0.18363080416E+03 -0.13042342080E+03 -0.47202436422E+02  0.26188472833E+03  0.12500000000E+03 0.  0.
         21    1    1    2  503  502  0.21517883307E+02 -0.59945176765E+02 -0.77648850254E+03  0.77909616743E+03  0.00000000000E+00 0.  1.
         21    1    1    2  504  501 -0.20514868747E+03  0.19036859756E+03  0.66127796773E+03  0.71806318490E+03  0.00000000000E+00 0. -1.
<mgrwt>
<rscale>  4 0.29855709E+03</rscale>
<asrwt>0</asrwt>
<pdfrwt beam="1">  1       21 0.12281778E+00 0.29855709E+03</pdfrwt>
<pdfrwt beam="2">  1       21 0.14780439E+00 0.29855709E+03</pdfrwt>
<totfact> 0.13838551E+02</totfact>
</mgrwt>
</event>
<event>
 5    0  0.1283376E+001  0.2575699E+03  0.7546771E-02  0.1108612E+00
         21   -1    0    0  504  501  0.00000000000E+00  0.00000000000E+00  0.76041704079E+02  0.76041704079E+02  0.00000000000E+00 0. -1.
         21   -1    0    0  503  502 -0.00000000000E+00 -0.00000000000E+00 -0.10796645327E+04  0.10796645327E+04  0.00000000000E+00 0. -1.
         25    1    1    2    0    0  0.20510214701E+03  0.15631899999E+02 -0.34976636943E+03  0.42458539799E+03  0.12500000000E+03 0.  0.
         21    1    1    2  503  501  0.23933723876E+02  0.50329643753E+02 -0.30016402216E+02  0.63299925599E+02  0.00000000000E+00 0.  1.
         21    1    1    2  504  502 -0.22903587088E+03 -0.65961543752E+02 -0.62384005698E+03  0.66782091319E+03  0.00000000000E+00 0. -1.
<mgrwt>
<rscale>  4 0.25756986E+03</rscale>
<asrwt>0</asrwt>
<pdfrwt beam="1">  1       21 0.11698724E-01 0.25756986E+03</pdfrwt>
<pdfrwt beam="2">  1       21 0.16610223E+00 0.25756986E+03</pdfrwt>
<totfact> 0.13375500E+04</totfact>
</mgrwt>
</event>
<event>
 5    0  0.1283376E+001  0.2862668E+03  0.7546771E-02  0.1092315E+00
         21   -1    0    0  504  501  0.00000000000E+00  0.00000000000E+00  0.38914300974E+03  0.38914300974E+03  0.00000000000E+00 0. -1.
         21   -1    0    0  503  502 -0.00000000000E+00 -0.00000000000E+00 -0.43945087511E+03  0.43945087511E+03  0.00000000000E+00 0. -1.
         25    1    1    2    0    0 -0.19218881909E+03  0.17715400751E+03  0.23438673217E+03  0.37266905530E+03  0.12500000000E+03 0.  0.
         21    1    1    2  503  501  0.22434378309E+03 -0.11670051383E+03 -0.12483085158E+03  0.28201397917E+03  0.00000000000E+00 0. -1.
         21    1    1    2  504  502 -0.32154964005E+02 -0.60453493673E+02 -0.15986374596E+03  0.17391085038E+03  0.00000000000E+00 0. -1.
<mgrwt>
<rscale>  4 0.28626677E+03</rscale>
<asrwt>0</asrwt>
<pdfrwt beam="1">  1       21 0.59868155E-01 0.28626677E+03</pdfrwt>
<pdfrwt beam="2">  1       21 0.67607827E-01 0.28626677E+03</pdfrwt>
<totfact> 0.48984152E+03</totfact>
</mgrwt>
</event>
<event>
 5    0  0.1283376E+001  0.2292201E+03  0.7546771E-02  0.1127190E+00
         21   -1    0    0  504  501  0.00000000000E+00  0.00000000000E+00  0.26888493314E+03  0.26888493314E+03  0.00000000000E+00 0. -1.
         21   -1    0    0  501  502 -0.00000000000E+00 -0.00000000000E+00 -0.75915059060E+03  0.75915059060E+03  0.00000000000E+00 0. -1.
         25    1    1    2    0    0  0.18642780766E+03 -0.88170308083E+02  0.18935003561E+03  0.30660686013E+03  0.12500000000E+03 0.  0.
         21    1    1    2  503  502 -0.64777970548E+02  0.10069032256E+03 -0.33197034495E+03  0.35290088758E+03  0.00000000000E+00 0.  1.
         21    1    1    2  504  503 -0.12164983711E+03 -0.12520014476E+02 -0.34764534812E+03  0.36852777602E+03  0.00000000000E+00 0. -1.
<mgrwt>
<rscale>  4 0.22922014E+03</rscale>
<asrwt>0</asrwt>
<pdfrwt beam="1">  1       21 0.41366913E-01 0.22922014E+03</pdfrwt>
<pdfrwt beam="2">  1       21 0.11679240E+00 0.22922014E+03</pdfrwt>
<totfact> 0.30832766E+03</totfact>
</mgrwt>
</event>
<event>
 5    0  0.1283376E+001  0.2826022E+03  0.7546771E-02  0.1094276E+00
         21   -1    0    0  504  501  0.00000000000E+00  0.00000000000E+00  0.98096246444E+03  0.98096246444E+03  0.00000000000E+00 0.  1.
         21   -1    0    0  501  502 -0.00000000000E+00 -0.00000000000E+00 -0.92689969302E+02  0.92689969302E+02  0.00000000000E+00 0.  1.
         25    1    1    2    0    0 -0.20114116926E+03 -0.15302461668E+03  0.48414181532E+03  0.56026118964E+03  0.12500000000E+03 0.  0.
         21    1    1    2  503  502  0.32012985313E+02 -0.40290641679E+02  0.29972511098E+02  0.59552652813E+02  0.00000000000E+00 0.  1.
         21    1    1    2  504  503  0.16912818395E+03  0.19331525836E+03  0.37415816872E+03  0.45383859129E+03  0.00000000000E+00 0.  1.
<mgrwt>
<rscale>  4 0.28260222E+03</rscale>
<asrwt>0</asrwt>
<pdfrwt beam="1">  1       21 0.15091729E+00 0.28260222E+03</pdfrwt>
<pdfrwt beam="2">  1       21 0.14259996E-01 0.28260222E+03</pdfrwt>
<totfact> 0.11960251E+04</totfact>
</mgrwt>
</event>
<event>
 5    0  0.1283376E+001  0.3167372E+03  0.7546771E-02  0.1077161E+00
         21   -1    0    0  503  501  0.00000000000E+00  0.00000000000E+00  0.22866291647E+03  0.22866291647E+03  0.00000000000E+00 0. -1.
         21   -1    0    0  504  502 -0.00000000000E+00 -0.00000000000E+00 -0.50350410017E+03  0.50350410017E+03  0.00000000000E+00 0. -1.
         25    1    1    2    0    0 -0.18819947035E+03 -0.24082841832E+03 -0.11739554463E+03  0.35046266793E+03  0.12500000000E+03 0.  0.
         21    1    1    2  503  502  0.16895320315E+03  0.22321197229E+03 -0.67384592252E+02  0.28794001581E+03  0.00000000000E+00 0. -1.
         21    1    1    2  504  501  0.19246267203E+02  0.17616446030E+02 -0.90061046819E+02  0.93764332910E+02  0.00000000000E+00 0.  1.
<mgrwt>
<rscale>  4 0.31673719E+03</rscale>
<asrwt>0</asrwt>
<pdfrwt beam="1">  1       21 0.35178910E-01 0.31673719E+03</pdfrwt>
<pdfrwt beam="2">  1       21 0.77462169E-01 0.31673719E+03</pdfrwt>
<totfact> 0.10772813E+04</totfact>
</mgrwt>
</event>
<event>
 5    0  0.1283376E+001  0.2633717E+03  0.7546771E-02  0.1105134E+00
         21   -1    0    0  504  501  0.00000000000E+00  0.00000000000E+00  0.13228900081E+04  0.13228900081E+04  0.00000000000E+00 0. -1.
         21   -1    0    0  503  502 -0.00000000000E+00 -0.00000000000E+00 -0.94848268816E+02  0.94848268816E+02  0.00000000000E+00 0. -1.
         25    1    1    2    0    0  0.54875056665E+02 -0.22676570456E+03  0.72714052598E+03  0.77381671029E+03  0.12500000000E+03 0.  0.
         21    1    1    2  503  501 -0.81371101515E+02  0.21639135336E+03  0.54467791415E+03  0.59170981413E+03  0.00000000000E+00 0. -1.
         21    1    1    2  504  502  0.26496044849E+02  0.10374351205E+02 -0.43776700879E+02  0.52211752464E+02  0.00000000000E+00 0. -1.
<mgrwt>
<rscale>  4 0.26337174E+03</rscale>
<asrwt>0</asrwt>
<pdfrwt beam="1">  1       21 0.20352153E+00 0.26337174E+03</pdfrwt>
<pdfrwt beam="2">  1       21 0.14592042E-01 0.26337174E+03</pdfrwt>
<totfact> 0.49652609E+03</totfact>
</mgrwt>
</event>
<event>
 5    0  0.1283376E+001  0.2389079E+03  0.7546771E-02  0.1120522E+00
         21   -1    0    0  504  501  0.00000000000E+00  0.00000000000E+00  0.20235559962E+04  0.20235559962E+04  0.00000000000E+00 0. -1.
         21   -1    0    0  501  502 -0.00000000000E+00 -0.00000000000E+00 -0.59633579858E+02  0.59633579858E+02  0.00000000000E+00 0. -1.
         25    1    1    2    0    0  0.74265319176E+02 -0.18591483284E+03  0.16327107930E+04  0.16496815439E+04  0.12500000000E+03 0.  0.
         21    1    1    2  503  502 -0.19539034568E+02 -0.24905424595E+02 -0.58554568539E+01  0.32192241629E+02  0.00000000000E+00 0.  1.
         21    1    1    2  504  503 -0.54726284608E+02  0.21082025744E+03  0.33706708017E+03  0.40131579050E+03  0.00000000000E+00 0. -1.
<mgrwt>
<rscale>  4 0.23890794E+03</rscale>
<asrwt>0</asrwt>
<pdfrwt beam="1">  1       21 0.31131625E+00 0.23890794E+03</pdfrwt>
<pdfrwt beam="2">  1       21 0.91743984E-02 0.23890794E+03</pdfrwt>
<totfact> 0.26317893E+03</totfact>
</mgrwt>
</event>
<event>
 5    0  0.1283376E+001  0.2582816E+03  0.7546771E-02  0.1108180E+00
         21   -1    0    0  504  501  0.00000000000E+00  0.00000000000E+00  0.20429758605E+03  0.20429758605E+03  0.00000000000E+00 0. -1.
         21   -1    0    0  501  502 -0.00000000000E+00 -0.00000000000E+00 -0.31955469783E+03  0.31955469783E+03  0.00000000000E+00 0. -1.
         25    1    1    2    0    0  0.22497408369E+03 -0.21703957826E+02  0.42159425171E+01  0.25831603568E+03  0.12500000000E+03 0.  0.
         21    1    1    2  503  502 -0.15657880598E+03  0.72588886094E+01 -0.44306871269E+02  0.16288865150E+03  0.00000000000E+00 0. -1.
         21    1    1    2  504  503 -0.68395277714E+02  0.14445069217E+02 -0.75166183029E+02  0.10264759670E+03  0.00000000000E+00 0. -1.
<mgrwt>
<rscale>  4 0.25828163E+03</rscale>
<asrwt>0</asrwt>
<pdfrwt beam="1">  1       21 0.31430398E-01 0.25828163E+03</pdfrwt>
<pdfrwt beam="2">  1       21 0.49162261E-01 0.25828163E+03</pdfrwt>
<totfact> 0.37236755E+04</totfact>
</mgrwt>
</event>
<event>
 5    0  0.1283376E+001  0.2470802E+03  0.7546771E-02  0.1115164E+00
         21   -1    0    0  503  501  0.00000000000E+00  0.00000000000E+00  0.63758801695E+03  0.63758801695E+03  0.00000000000E+00 0. -1.
         21   -1    0    0  504  502 -0.00000000000E+00 -0.00000000000E+00 -0.96858203147E+02  0.96858203147E+02  0.00000000000E+00 0. -1.
         25    1    1    2    0    0  0.17009521360E+03  0.10804841713E+03  0.19963432530E+03  0.30997694426E+03  0.12500000000E+03 0.  0.
         21    1    1    2  503  502  0.25020845094E+02 -0.54583397277E+01  0.11796567612E+02  0.28195658695E+02  0.00000000000E+00 0.  1.
         21    1    1    2  504  501 -0.19511605870E+03 -0.10259007740E+03  0.32929892090E+03  0.39627361715E+03  0.00000000000E+00 0. -1.
<mgrwt>
<rscale>  4 0.24708022E+03</rscale>
<asrwt>0</asrwt>
<pdfrwt beam="1">  1       21 0.98090462E-01 0.24708022E+03</pdfrwt>
<pdfrwt beam="2">  1       21 0.14901262E-01 0.24708022E+03</pdfrwt>
<totfact> 0.33175733E+04</totfact>
</mgrwt>
</event>
<event>
 5    0  0.1283376E+001  0.2674534E+03  0.7546771E-02  0.1102746E+00
         21   -1    0    0  502  501  0.00000000000E+00  0.00000000000E+00  0.53717984969E+03  0.53717984969E+03  0.00000000000E+00 0.  1.
         21   -1    0    0  503  502 -0.00000000000E+00 -0.00000000000E+00 -0.28556221926E+03  0.28556221926E+03  0.00000000000E+00 0.  1.
         25    1    1    2    0    0 -0.15483154613E+03  0.17881928837E+03  0.42931033613E+03  0.50584731914E+03  0.12500000000E+03 0.  0.
         21    1    1    2  503  504  0.16952210558E+03 -0.16507889534E+03 -0.17905858199E+03  0.29673348606E+03  0.00000000000E+00 0.  1.
         21    1    1    2  504  501 -0.14690559446E+02 -0.13740393036E+02  0.13658762951E+01  0.20161263742E+02  0.00000000000E+00 0.  1.
<mgrwt>
<rscale>  4 0.26745344E+03</rscale>
<asrwt>0</asrwt>
<pdfrwt beam="1">  1       21 0.82643054E-01 0.26745344E+03</pdfrwt>
<pdfrwt beam="2">  1       21 0.43932649E-01 0.26745344E+03</pdfrwt>
<totfact> 0.60539259E+03</totfact>
</mgrwt>
</event>
<event>
 5    0  0.1283376E+001  0.2500038E+03  0.7546771E-02  0.1113302E+00
         21   -1    0    0  504  501  0.00000000000E+00  0.00000000000E+00  0.15727835946E+03  0.15727835946E+03  0.00000000000E+00 0. -1.
         21   -1    0    0  503  502 -0.00000000000E+00 -0.00000000000E+00 -0.77591670694E+03  0.77591670694E+03  0.00000000000E+00 0. -1.
         25    1    1    2    0    0  0.18986165823E+03  0.88757586587E+02 -0.12209217765E+02  0.24433465460E+03  0.12500000000E+03 0.  0.
         21    1    1    2  503  501 -0.20850931671E+03 -0.10842546909E+03 -0.29932336550E+03  0.38056102617E+03  0.00000000000E+00 0. -1.
         21    1    1    2  504  502  0.18647658488E+02  0.19667882507E+02 -0.30710576422E+03  0.30829938564E+03  0.00000000000E+00 0. -1.
<mgrwt>
<rscale>  4 0.25000375E+03</rscale>
<asrwt>0</asrwt>
<pdfrwt beam="1">  1       21 0.24196670E-01 0.25000375E+03</pdfrwt>
<pdfrwt beam="2">  1       21 0.11937181E+00 0.25000375E+03</pdfrwt>
<totfact> 0.82982731E+03</totfact>
</mgrwt>
</event>
<event>
 5    0  0.1283376E+001  0.3012355E+03  0.7546771E-02  0.1084625E+00
         21   -1    0    0  503  501  0.00000000000E+00  0.00000000000E+00  0.18593267823E+03  0.18593267823E+03  0.00000000000E+00 0. -1.
         21   -1    0    0  504  502 -0.00000000000E+00 -0.00000000000E+00 -0.72539350281E+03  0.72539350281E+03  0.00000000000E+00 0. -1.
         25    1    1    2    0    0 -0.25418381153E+03  0.12507351050E+03 -0.10622604193E+03  0.32735571640E+03  0.12500000000E+03 0.  0.
         21    1    1    2  503  502 -0.16880477765E+02 -0.99970763478E+02 -0.20510719235E+03  0.22879699393E+03  0.00000000000E+00 0. -1.
         21    1    1    2  504  501  0.27106428930E+03 -0.25102747022E+02 -0.22812759030E+03  0.35517347071E+03  0.00000000000E+00 0. -1.
<mgrwt>
<rscale>  4 0.30123551E+03</rscale>
<asrwt>0</asrwt>
<pdfrwt beam="1">  1       21 0.28605027E-01 0.30123551E+03</pdfrwt>
<pdfrwt beam="2">  1       21 0.11159900E+00 0.30123551E+03</pdfrwt>
<totfact> 0.68940250E+03</totfact>
</mgrwt>
</event>
<event>
 5    0  0.1283376E+001  0.3169946E+03  0.7546771E-02  0.1077041E+00
         21   -1    0    0  504  501  0.00000000000E+00  0.00000000000E+00  0.39075378597E+03  0.39075378597E+03  0.00000000000E+00 0.  1.
         21   -1    0    0  501  502 -0.00000000000E+00 -0.00000000000E+00 -0.26927643434E+03  0.26927643434E+03  0.00000000000E+00 0. -1.
         25    1    1    2    0    0 -0.30097226775E+03  0.48652133902E+02  0.36375823031E+02  0.33151099015E+03  0.12500000000E+03 0.  0.
         21    1    1    2  503  502  0.27822666220E+03 -0.47228816877E+02  0.10207822648E+03  0.30010098471E+03  0.00000000000E+00 0. -1.
         21    1    1    2  504  503  0.22745605549E+02 -0.14233170249E+01 -0.16976697878E+02  0.28418245441E+02  0.00000000000E+00 0. -1.
<mgrwt>
<rscale>  4 0.31699465E+03</rscale>
<asrwt>0</asrwt>
<pdfrwt beam="1">  1       21 0.60115967E-01 0.31699465E+03</pdfrwt>
<pdfrwt beam="2">  1       21 0.41427144E-01 0.31699465E+03</pdfrwt>
<totfact> 0.13579697E+04</totfact>
</mgrwt>
</event>
<event>
 5    0  0.1283376E+001  0.2359973E+03  0.7546771E-02  0.1122488E+00
         21   -1    0    0  503  501  0.00000000000E+00  0.00000000000E+00  0.10730857518E+04  0.10730857518E+04  0.00000000000E+00 0.  1.
         21   -1    0    0  504  502 -0.00000000000E+00 -0.00000000000E+00 -0.43722538517E+03  0.43722538517E+03  0.00000000000E+00 0.  1.
         25    1    1    2    0    0 -0.28211105296E+02  0.20860270866E+03  0.91443137123E+03  0.94663651377E+03  0.12500000000E+03 0.  0.
         21    1    1    2  503  502  0.33055174943E+02 -0.39358451521E+02 -0.36842689736E+03  0.37199477280E+03  0.00000000000E+00 0.  1.
         21    1    1    2  504  501 -0.48440696467E+01 -0.16924425714E+03  0.89855892757E+02  0.19167985040E+03  0.00000000000E+00 0.  1.
<mgrwt>
<rscale>  4 0.23599731E+03</rscale>
<asrwt>0</asrwt>
<pdfrwt beam="1">  1       21 0.16509011E+00 0.23599731E+03</pdfrwt>
<pdfrwt beam="2">  1       21 0.67265444E-01 0.23599731E+03</pdfrwt>
<totfact> 0.44621738E+02</totfact>
</mgrwt>
</event>
<event>
 5    0  0.1283376E+001  0.3184645E+03  0.7546771E-02  0.1076358E+00
         21   -1    0    0  503  501  0.00000000000E+00  0.00000000000E+00  0.47793866028E+03  0.47793866028E+03  0.00000000000E+00 0. -1.
         21   -1    0    0  504  502 -0.00000000000E+00 -0.00000000000E+00 -0.68925222204E+03  0.68925222204E+03  0.00000000000E+00 0.  1.
         25    1    1    2    0    0  0.23251151344E+03  0.12262761649E+03  0.23919068888E+03  0.37674437203E+03  0.12500000000E+03 0.  0.
         21    1    1    2  503  502 -0.37542255660E+03 -0.20028230765E+03 -0.15447432666E+03  0.45267804934E+03  0.00000000000E+00 0.  1.
         21    1    1    2  504  501  0.14291104316E+03  0.77654691163E+02 -0.29602992398E+03  0.33776846095E+03  0.00000000000E+00 0.  1.
<mgrwt>
<rscale>  4 0.31846453E+03</rscale>
<asrwt>0</asrwt>
<pdfrwt beam="1">  1       21 0.73529025E-01 0.31846453E+03</pdfrwt>
<pdfrwt beam="2">  1       21 0.10603880E+00 0.31846453E+03</pdfrwt>
<totfact> 0.10756177E+03</totfact>
</mgrwt>
</event>
<event>
 5    0  0.1283376E+001  0.2634499E+03  0.7546771E-02  0.1105088E+00
         21   -1    0    0  504  501  0.00000000000E+00  0.00000000000E+00  0.17358372267E+03  0.17358372267E+03  0.00000000000E+00 0. -1.
         21   -1    0    0  503  502 -0.00000000000E+00 -0.00000000000E+00 -0.39203777534E+03  0.39203777534E+03  0.00000000000E+00 0. -1.
         25    1    1    2    0    0  0.61538757809E+02  0.23071257159E+03 -0.90573550970E+02  0.28433057792E+03  0.12500000000E+03 0.  0.
         21    1    1    2  503  501 -0.39406615371E+02 -0.22229888633E+03 -0.10750770066E+03  0.25005515772E+03  0.00000000000E+00 0. -1.
         21    1    1    2  504  502 -0.22132142438E+02 -0.84136852609E+01 -0.20372801045E+02  0.31235762372E+02  0.00000000000E+00 0.  1.
<mgrwt>
<rscale>  4 0.26344990E+03</rscale>
<asrwt>0</asrwt>
<pdfrwt beam="1">  1       21 0.26705189E-01 0.26344990E+03</pdfrwt>
<pdfrwt beam="2">  1       21 0.60313503E-01 0.26344990E+03</pdfrwt>
<totfact> 0.33064328E+04</totfact>
</mgrwt>
</event>
<event>
 5    0  0.1283376E+001  0.3596847E+03  0.7546771E-02  0.1058709E+00
         21   -1    0    0  504  501  0.00000000000E+00  0.00000000000E+00  0.60289121393E+03  0.60289121393E+03  0.00000000000E+00 0.  1.
         21   -1    0    0  501  502 -0.00000000000E+00 -0.00000000000E+00 -0.85287650762E+03  0.85287650762E+03  0.00000000000E+00 0.  1.
         25    1    1    2    0    0 -0.18424065870E+03  0.33023575706E+03  0.12325628771E+03  0.41691412547E+03  0.12500000000E+03 0.  0.
         21    1    1    2  503  502 -0.49026820321E+02 -0.10961876780E+03 -0.62150287295E+03  0.63299741268E+03  0.00000000000E+00 0.  1.
         21    1    1    2  504  503  0.23326747902E+03 -0.22061698926E+03  0.24826129156E+03  0.40585618340E+03  0.00000000000E+00 0.  1.
<mgrwt>
<rscale>  4 0.35968473E+03</rscale>
<asrwt>0</asrwt>
<pdfrwt beam="1">  1       21 0.92752495E-01 0.35968473E+03</pdfrwt>
<pdfrwt beam="2">  1       21 0.13121177E+00 0.35968473E+03</pdfrwt>
<totfact> 0.35965587E+02</totfact>
</mgrwt>
</event>
<event>
 5    0  0.1283376E+001  0.2623462E+03  0.7546771E-02  0.1105742E+00
         21   -1    0    0  504  501  0.00000000000E+00  0.00000000000E+00  0.37872285483E+03  0.37872285483E+03  0.00000000000E+00 0. -1.
         21   -1    0    0  503  502 -0.00000000000E+00 -0.00000000000E+00 -0.24048988361E+03  0.24048988361E+03  0.00000000000E+00 0. -1.
         25    1    1    2    0    0  0.13988631198E+03 -0.15015863149E+03  0.86016358218E+02  0.25522462415E+03  0.12500000000E+03 0.  0.
         21    1    1    2  503  501 -0.17026766546E+03  0.19007514586E+03  0.11809363815E+03  0.28118631962E+03  0.00000000000E+00 0. -1.
         21    1    1    2  504  502  0.30381353480E+02 -0.39916514366E+02 -0.65877025150E+02  0.82801794673E+02  0.00000000000E+00 0. -1.
<mgrwt>
<rscale>  4 0.26234618E+03</rscale>
<asrwt>0</asrwt>
<pdfrwt beam="1">  1       21 0.58265055E-01 0.26234618E+03</pdfrwt>
<pdfrwt beam="2">  1       21 0.36998444E-01 0.26234618E+03</pdfrwt>
<totfact> 0.18724096E+04</totfact>
</mgrwt>
</event>
<event>
 5    0  0.1283376E+001  0.2503098E+03  0.7546771E-02  0.1113109E+00
         21   -1    0    0  503  501  0.00000000000E+00  0.00000000000E+00  0.79227844243E+03  0.79227844243E+03  0.00000000000E+00 0.  1.
         21   -1    0    0  504  502 -0.00000000000E+00 -0.00000000000E+00 -0.13019300021E+04  0.13019300021E+04  0.00000000000E+00 0. -1.
         25    1    1    2    0    0 -0.15963595264E+03  0.15671756932E+03  0.46772820782E+03  0.53332795755E+03  0.12500000000E+03 0.  0.
         21    1    1    2  503  502 -0.35855387932E+01 -0.25274581488E+02 -0.12313471206E+04  0.12316117050E+04  0.00000000000E+00 0. -1.
         21    1    1    2  504  501  0.16322149144E+03 -0.13144298784E+03  0.25396735312E+03  0.32926878195E+03  0.00000000000E+00 0.  1.
<mgrwt>
<rscale>  4 0.25030984E+03</rscale>
<asrwt>0</asrwt>
<pdfrwt beam="1">  1       21 0.12188899E+00 0.25030984E+03</pdfrwt>
<pdfrwt beam="2">  1       21 0.20029692E+00 0.25030984E+03</pdfrwt>
<totfact> 0.62875667E+01</totfact>
</mgrwt>
</event>
<event>
 5    0  0.1283376E+001  0.2458870E+03  0.7546771E-02  0.1115932E+00
         21   -1    0    0  504  501  0.00000000000E+00  0.00000000000E+00  0.10240564155E+04  0.10240564155E+04  0.00000000000E+00 0.  1.
         21   -1    0    0  501  502 -0.00000000000E+00 -0.00000000000E+00 -0.74741709324E+02  0.74741709324E+02  0.00000000000E+00 0.  1.
         25    1    1    2    0    0 -0.47540844398E+02  0.22772767516E+03  0.51981854551E+03  0.58305775544E+03  0.12500000000E+03 0.  0.
         21    1    1    2  503  502  0.68595240233E+02 -0.29122880546E+02  0.59805054661E+02  0.95551523886E+02  0.00000000000E+00 0.  1.
         21    1    1    2  504  503 -0.21054395835E+02 -0.19860479461E+03  0.36969110601E+03  0.42018884551E+03  0.00000000000E+00 0.  1.
<mgrwt>
<rscale>  4 0.24588702E+03</rscale>
<asrwt>0</asrwt>
<pdfrwt beam="1">  1       21 0.15754713E+00 0.24588702E+03</pdfrwt>
<pdfrwt beam="2">  1       21 0.11498725E-01 0.24588702E+03</pdfrwt>
<totfact> 0.16051529E+04</totfact>
</mgrwt>
</event>
<event>
 5    0  0.1283376E+001  0.3820651E+03  0.7546771E-02  0.1050173E+00
         21   -1    0    0  504  501  0.00000000000E+00  0.00000000000E+00  0.50785833119E+03  0.50785833119E+03  0.00000000000E+00 0.  1.
         21   -1    0    0  501  502 -0.00000000000E+00 -0.00000000000E+00 -0.19788480508E+04  0.19788480508E+04  0.00000000000E+00 0.  1.
         25    1    1    2    0    0 -0.80739292398E+02  0.35219002219E+03  0.37011266603E+03  0.53213253107E+03  0.12500000000E+03 0.  0.
         21    1    1    2  503  502 -0.36752753041E+02 -0.11078918181E+02 -0.13211860155E+04  0.13217435435E+04  0.00000000000E+00 0.  1.
         21    1    1    2  504  503  0.11749204544E+03 -0.34111110401E+03 -0.51991637015E+03  0.63283030740E+03  0.00000000000E+00 0.  1.
<mgrwt>
<rscale>  4 0.38206505E+03</rscale>
<asrwt>0</asrwt>
<pdfrwt beam="1">  1       21 0.78132051E-01 0.38206505E+03</pdfrwt>
<pdfrwt beam="2">  1       21 0.30443816E+00 0.38206505E+03</pdfrwt>
<totfact> 0.37160974E+01</totfact>
</mgrwt>
</event>
<event>
 5    0  0.1283376E+001  0.4421582E+03  0.7546771E-02  0.1030538E+00
         21   -1    0    0  504  501  0.00000000000E+00  0.00000000000E+00  0.15072622257E+03  0.15072622257E+03  0.00000000000E+00 0.  1.
         21   -1    0    0  501  502 -0.00000000000E+00 -0.00000000000E+00 -0.14123565998E+04  0.14123565998E+04  0.00000000000E+00 0. -1.
         25    1    1    2    0    0 -0.16929151584E+03 -0.38217120493E+03 -0.38764457369E+03  0.58361610904E+03  0.12500000000E+03 0.  0.
         21    1    1    2  503  502  0.18471456075E+03  0.32062040105E+03 -0.80362066595E+03  0.88471638691E+03  0.00000000000E+00 0. -1.
         21    1    1    2  504  503 -0.15423044913E+02  0.61550803877E+02 -0.70365137603E+02  0.94750326449E+02  0.00000000000E+00 0.  1.
<mgrwt>
<rscale>  4 0.44068102E+03</rscale>
<asrwt>0</asrwt>
<pdfrwt beam="1">  1       21 0.23188648E-01 0.44215818E+03</pdfrwt>
<pdfrwt beam="2">  1       21 0.21728565E+00 0.44215818E+03</pdfrwt>
<totfact> 0.15344793E+03</totfact>
</mgrwt>
</event>
<event>
 5    0  0.1283376E+001  0.2530978E+03  0.7546771E-02  0.1111363E+00
         21   -1    0    0  504  501  0.00000000000E+00  0.00000000000E+00  0.13005265350E+03  0.13005265350E+03  0.00000000000E+00 0. -1.
         21   -1    0    0  501  502 -0.00000000000E+00 -0.00000000000E+00 -0.75862311350E+03  0.75862311350E+03  0.00000000000E+00 0. -1.
         25    1    1    2    0    0  0.19993034144E+03  0.85014306381E+02 -0.82035490929E+02  0.26373167328E+03  0.12500000000E+03 0.  0.
         21    1    1    2  503  502 -0.70546408203E+01  0.35591406095E+02 -0.24265352748E+03  0.24535127989E+03  0.00000000000E+00 0. -1.
         21    1    1    2  504  503 -0.19287570062E+03 -0.12060571248E+03 -0.30388144159E+03  0.37959281383E+03  0.00000000000E+00 0. -1.
<mgrwt>
<rscale>  4 0.25309777E+03</rscale>
<asrwt>0</asrwt>
<pdfrwt beam="1">  1       21 0.20008100E-01 0.25309777E+03</pdfrwt>
<pdfrwt beam="2">  1       21 0.11671125E+00 0.25309777E+03</pdfrwt>
<totfact> 0.12562853E+04</totfact>
</mgrwt>
</event>
<event>
 5    0  0.1283376E+001  0.2343791E+03  0.7546771E-02  0.1123595E+00
         21   -1    0    0  503  501  0.00000000000E+00  0.00000000000E+00  0.10988017489E+04  0.10988017489E+04  0.00000000000E+00 0. -1.
         21   -1    0    0  504  502 -0.00000000000E+00 -0.00000000000E+00 -0.67912941944E+02  0.67912941944E+02  0.00000000000E+00 0. -1.
         25    1    1    2    0    0  0.19954349120E+03 -0.26962195346E+02  0.85488845233E+03  0.88713236373E+03  0.12500000000E+03 0.  0.
         21    1    1    2  503  502 -0.15384490083E+02 -0.20901257144E+02  0.30515903138E+02  0.40059523583E+02  0.00000000000E+00 0. -1.
         21    1    1    2  504  501 -0.18415900112E+03  0.47863452490E+02  0.14548445146E+03  0.23952280349E+03  0.00000000000E+00 0. -1.
<mgrwt>
<rscale>  4 0.23437914E+03</rscale>
<asrwt>0</asrwt>
<pdfrwt beam="1">  1       21 0.16904641E+00 0.23437914E+03</pdfrwt>
<pdfrwt beam="2">  1       21 0.10448146E-01 0.23437914E+03</pdfrwt>
<totfact> 0.15812819E+04</totfact>
</mgrwt>
</event>
<event>
 5    0  0.1283376E+001  0.2562538E+03  0.7546771E-02  0.1109415E+00
         21   -1    0    0  503  501  0.00000000000E+00  0.00000000000E+00  0.15255688557E+04  0.15255688557E+04  0.00000000000E+00 0.  1.
         21   -1    0    0  504  502 -0.00000000000E+00 -0.00000000000E+00 -0.53177486522E+02  0.53177486522E+02  0.00000000000E+00 0.  1.
         25    1    1    2    0    0  0.17303204212E+03 -0.14177778565E+03  0.11633009215E+04  0.11911906070E+04  0.12500000000E+03 0.  0.
         21    1    1    2  503  502 -0.11218391780E+03  0.77815137856E+02  0.23727954410E+03  0.27375538194E+03  0.00000000000E+00 0.  1.
         21    1    1    2  504  501 -0.60848124315E+02  0.63962647791E+02  0.71810903542E+02  0.11380035331E+03  0.00000000000E+00 0.  1.
<mgrwt>
<rscale>  4 0.25625384E+03</rscale>
<asrwt>0</asrwt>
<pdfrwt beam="1">  1       21 0.23470287E+00 0.25625384E+03</pdfrwt>
<pdfrwt beam="2">  1       21 0.81811529E-02 0.25625384E+03</pdfrwt>
<totfact> 0.89764082E+03</totfact>
</mgrwt>
</event>
<event>
 5    0  0.1283376E+001  0.2453955E+03  0.7546771E-02  0.1116250E+00
         21   -1    0    0  504  501  0.00000000000E+00  0.00000000000E+00  0.38813254413E+03  0.38813254413E+03  0.00000000000E+00 0. -1.
         21   -1    0    0  501  502 -0.00000000000E+00 -0.00000000000E+00 -0.26705848173E+03  0.26705848173E+03  0.00000000000E+00 0. -1.
         25    1    1    2    0    0  0.94506077929E+01 -0.20391320697E+03  0.23260069994E+03  0.33376338262E+03  0.12500000000E+03 0.  0.
         21    1    1    2  503  502  0.56011324602E+02 -0.25556476199E+02 -0.35068645342E+02  0.70853453307E+02  0.00000000000E+00 0. -1.
         21    1    1    2  504  503 -0.65461932395E+02  0.22946968317E+03 -0.76457992199E+02  0.25057418993E+03  0.00000000000E+00 0. -1.
<mgrwt>
<rscale>  4 0.24539554E+03</rscale>
<asrwt>0</asrwt>
<pdfrwt beam="1">  1       21 0.59712699E-01 0.24539554E+03</pdfrwt>
<pdfrwt beam="2">  1       21 0.41085920E-01 0.24539554E+03</pdfrwt>
<totfact> 0.14481669E+04</totfact>
</mgrwt>
</event>
<event>
 5    0  0.1283376E+001  0.2306116E+03  0.7546771E-02  0.1126210E+00
         21   -1    0    0  503  501  0.00000000000E+00  0.00000000000E+00  0.51001858867E+03  0.51001858867E+03  0.00000000000E+00 0.  1.
         21   -1    0    0  504  502 -0.00000000000E+00 -0.00000000000E+00 -0.45906620298E+03  0.45906620298E+03  0.00000000000E+00 0.  1.
         25    1    1    2    0    0  0.24803762393E+03 -0.85474844103E+02  0.16315194729E+03  0.33327491619E+03  0.12500000000E+03 0.  0.
         21    1    1    2  503  502 -0.17386145196E+03 -0.12254611860E+02  0.22058256397E+03  0.28113101487E+03  0.00000000000E+00 0.  1.
         21    1    1    2  504  501 -0.74176171961E+02  0.97729455963E+02 -0.33278212558E+03  0.35467886060E+03  0.00000000000E+00 0.  1.
<mgrwt>
<rscale>  4 0.23061157E+03</rscale>
<asrwt>0</asrwt>
<pdfrwt beam="1">  1       21 0.78464398E-01 0.23061157E+03</pdfrwt>
<pdfrwt beam="2">  1       21 0.70625570E-01 0.23061157E+03</pdfrwt>
<totfact> 0.25305471E+03</totfact>
</mgrwt>
</event>
<event>
 5    0  0.1283376E+001  0.2490587E+03  0.7546771E-02  0.1113901E+00
         21   -1    0    0  502  501  0.00000000000E+00  0.00000000000E+00  0.40974852170E+03  0.40974852170E+03  0.00000000000E+00 0. -1.
         21   -1    0    0  503  502 -0.00000000000E+00 -0.00000000000E+00 -0.16210239969E+03  0.16210239969E+03  0.00000000000E+00 0.  1.
         25    1    1    2    0    0 -0.22380050467E+03 -0.39783485115E+00  0.15647431077E+03  0.30032654577E+03  0.12500000000E+03 0.  0.
         21    1    1    2  503  504  0.20527408345E+03  0.40933066249E+02  0.87289936605E+02  0.22678734154E+03  0.00000000000E+00 0.  1.
         21    1    1    2  504  501  0.18526421217E+02 -0.40535231398E+02  0.38818746342E+01  0.44737034080E+02  0.00000000000E+00 0.  1.
<mgrwt>
<rscale>  4 0.24905866E+03</rscale>
<asrwt>0</asrwt>
<pdfrwt beam="1">  1       21 0.63038234E-01 0.24905866E+03</pdfrwt>
<pdfrwt beam="2">  1       21 0.24938831E-01 0.24905866E+03</pdfrwt>
<totfact> 0.34483970E+04</totfact>
</mgrwt>
</event>
<event>
 5    0  0.1283376E+001  0.2033262E+03  0.7546771E-02  0.1146963E+00
         21   -1    0    0  503  501  0.00000000000E+00  0.00000000000E+00  0.75127605438E+03  0.75127605438E+03  0.00000000000E+00 0.  1.
         21   -1    0    0  504  502 -0.00000000000E+00 -0.00000000000E+00 -0.10422899110E+04  0.10422899110E+04  0.00000000000E+00 0.  1.
         25    1    1    2    0    0  0.10945436150E+03  0.18017725263E+03  0.56953923721E+03  0.62003551700E+03  0.12500000000E+03 0.  0.
         21    1    1    2  503  502 -0.14397514802E+03 -0.70193901241E+02 -0.98845435914E+03  0.10013481149E+04  0.00000000000E+00 0.  1.
         21    1    1    2  504  501  0.34520786514E+02 -0.10998335139E+03  0.12790126536E+03  0.17218233349E+03  0.00000000000E+00 0.  1.
<mgrwt>
<rscale>  4 0.20332617E+03</rscale>
<asrwt>0</asrwt>
<pdfrwt beam="1">  1       21 0.11558093E+00 0.20332617E+03</pdfrwt>
<pdfrwt beam="2">  1       21 0.16035229E+00 0.20332617E+03</pdfrwt>
<totfact> 0.14287055E+02</totfact>
</mgrwt>
</event>
<event>
 5    0  0.1283376E+001  0.2697154E+03  0.7546771E-02  0.1101443E+00
         21   -1    0    0  504  501  0.00000000000E+00  0.00000000000E+00  0.29061217554E+03  0.29061217554E+03  0.00000000000E+00 0. -1.
         21   -1    0    0  501  502 -0.00000000000E+00 -0.00000000000E+00 -0.31060314465E+03  0.31060314465E+03  0.00000000000E+00 0. -1.
         25    1    1    2    0    0 -0.19190332978E+03 -0.12939328824E+03  0.11148343245E+03  0.28569750915E+03  0.12500000000E+03 0.  0.
         21    1    1    2  503  502 -0.20171599817E+02 -0.12012500678E+02 -0.36713708304E+02  0.43578549645E+02  0.00000000000E+00 0.  1.
         21    1    1    2  504  503  0.21207492960E+03  0.14140578892E+03 -0.94760693257E+02  0.27193926140E+03  0.00000000000E+00 0. -1.
<mgrwt>
<rscale>  4 0.26971541E+03</rscale>
<asrwt>0</asrwt>
<pdfrwt beam="1">  1       21 0.44709565E-01 0.26971541E+03</pdfrwt>
<pdfrwt beam="2">  1       21 0.47785099E-01 0.26971541E+03</pdfrwt>
<totfact> 0.19305064E+04</totfact>
</mgrwt>
</event>
<event>
 5    0  0.1283376E+001  0.4654927E+03  0.7546771E-02  0.1023200E+00
         21   -1    0    0  504  501  0.00000000000E+00  0.00000000000E+00  0.46352316675E+03  0.46352316675E+03  0.00000000000E+00 0.  1.
         21   -1    0    0  501  502 -0.00000000000E+00 -0.00000000000E+00 -0.50037704789E+03  0.50037704789E+03  0.00000000000E+00 0.  1.
         25    1    1    2    0    0 -0.42541012433E+03 -0.14172041284E+03  0.12860608596E+03  0.48293164593E+03  0.12500000000E+03 0.  0.
         21    1    1    2  503  502  0.39586132021E+03  0.11883362332E+03 -0.15997546291E+03  0.44319269354E+03  0.00000000000E+00 0.  1.
         21    1    1    2  504  503  0.29548804112E+02  0.22886789517E+02 -0.54845041943E+01  0.37775875174E+02  0.00000000000E+00 0.  1.
<mgrwt>
<rscale>  4 0.46549270E+03</rscale>
<asrwt>0</asrwt>
<pdfrwt beam="1">  1       21 0.71311257E-01 0.46549270E+03</pdfrwt>
<pdfrwt beam="2">  1       21 0.76981084E-01 0.46549270E+03</pdfrwt>
<totfact> 0.22973703E+03</totfact>
</mgrwt>
</event>
<event>
 5    0  0.1283376E+001  0.3043375E+03  0.7546771E-02  0.1083092E+00
         21   -1    0    0  504  501  0.00000000000E+00  0.00000000000E+00  0.87421863054E+02  0.87421863054E+02  0.00000000000E+00 0.  1.
         21   -1    0    0  501  502 -0.00000000000E+00 -0.00000000000E+00 -0.33498341222E+04  0.33498341222E+04  0.00000000000E+00 0.  1.
         25    1    1    2    0    0 -0.18390435679E+03 -0.10835298213E+03 -0.48243686953E+03  0.54215451143E+03  0.12500000000E+03 0.  0.
         21    1    1    2  503  502 -0.17799693527E+03  0.51430123089E+02 -0.22086493986E+04  0.22164070322E+04  0.00000000000E+00 0.  1.
         21    1    1    2  504  503  0.36190129206E+03  0.56922859040E+02 -0.57132599110E+03  0.67869444169E+03  0.00000000000E+00 0.  1.
<mgrwt>
<rscale>  4 0.30433746E+03</rscale>
<asrwt>0</asrwt>
<pdfrwt beam="1">  1       21 0.13449519E-01 0.30433746E+03</pdfrwt>
<pdfrwt beam="2">  1       21 0.51535905E+00 0.30433746E+03</pdfrwt>
<totfact> 0.59693080E+01</totfact>
</mgrwt>
</event>
<event>
 5    0  0.1283376E+001  0.2372146E+03  0.7546771E-02  0.1121662E+00
         21   -1    0    0  504  501  0.00000000000E+00  0.00000000000E+00  0.77014274452E+03  0.77014274452E+03  0.00000000000E+00 0. -1.
         21   -1    0    0  501  502 -0.00000000000E+00 -0.00000000000E+00 -0.85951255559E+02  0.85951255559E+02  0.00000000000E+00 0. -1.
         25    1    1    2    0    0 -0.80634227090E+02 -0.19608341135E+03  0.48242380823E+03  0.54157946188E+03  0.12500000000E+03 0.  0.
         21    1    1    2  503  502 -0.27243135621E+02  0.39834338395E+02  0.21981846052E+02  0.53029845461E+02  0.00000000000E+00 0. -1.
         21    1    1    2  504  503  0.10787736271E+03  0.15624907295E+03  0.17978583468E+03  0.26148469274E+03  0.00000000000E+00 0. -1.
<mgrwt>
<rscale>  4 0.23721459E+03</rscale>
<asrwt>0</asrwt>
<pdfrwt beam="1">  1       21 0.11848349E+00 0.23721459E+03</pdfrwt>
<pdfrwt beam="2">  1       21 0.13223271E-01 0.23721459E+03</pdfrwt>
<totfact> 0.26197025E+04</totfact>
</mgrwt>
</event>
<event>
 5    0  0.1283376E+001  0.2670602E+03  0.7546771E-02  0.1102974E+00
         21   -1    0    0  504  501  0.00000000000E+00  0.00000000000E+00  0.16779629513E+03  0.16779629513E+03  0.00000000000E+00 0.  1.
         21   -1    0    0  503  502 -0.00000000000E+00 -0.00000000000E+00 -0.13296337158E+04  0.13296337158E+04  0.00000000000E+00 0. -1.
         25    1    1    2    0    0 -0.17099242783E+03  0.16739322080E+03  0.31765756545E+02  0.27183260296E+03  0.12500000000E+03 0.  0.
         21    1    1    2  503  501  0.18494150274E+03 -0.11430702268E+03 -0.83611250835E+03  0.86391757795E+03  0.00000000000E+00 0. -1.
         21    1    1    2  504  502 -0.13949074910E+02 -0.53086198119E+02 -0.35749066883E+03  0.36167982999E+03  0.00000000000E+00 0. -1.
<mgrwt>
<rscale>  4 0.26706019E+03</rscale>
<asrwt>0</asrwt>
<pdfrwt beam="1">  1       21 0.25814814E-01 0.26706019E+03</pdfrwt>
<pdfrwt beam="2">  1       21 0.20455904E+00 0.26706019E+03</pdfrwt>
<totfact> 0.16707550E+03</totfact>
</mgrwt>
</event>
<event>
 5    0  0.1283376E+001  0.2668464E+03  0.7546771E-02  0.1103098E+00
         21   -1    0    0  504  501  0.00000000000E+00  0.00000000000E+00  0.37758462704E+03  0.37758462704E+03  0.00000000000E+00 0.  1.
         21   -1    0    0  503  502 -0.00000000000E+00 -0.00000000000E+00 -0.60344898725E+03  0.60344898725E+03  0.00000000000E+00 0.  1.
         25    1    1    2    0    0  0.10379940989E+03  0.21113372286E+03  0.58278298874E+02  0.27271436805E+03  0.12500000000E+03 0.  0.
         21    1    1    2  503  501 -0.12914064990E+03 -0.19837867545E+03  0.14542708794E+03  0.27781368620E+03  0.00000000000E+00 0.  1.
         21    1    1    2  504  502  0.25341240013E+02 -0.12755047407E+02 -0.42956974701E+03  0.43050556004E+03  0.00000000000E+00 0.  1.
<mgrwt>
<rscale>  4 0.26684644E+03</rscale>
<asrwt>0</asrwt>
<pdfrwt beam="1">  1       21 0.58089943E-01 0.26684644E+03</pdfrwt>
<pdfrwt beam="2">  1       21 0.92838305E-01 0.26684644E+03</pdfrwt>
<totfact> 0.25665201E+03</totfact>
</mgrwt>
</event>
<event>
 5    0  0.1283376E+001  0.2442820E+03  0.7546771E-02  0.1116973E+00
         21   -1    0    0  504  501  0.00000000000E+00  0.00000000000E+00  0.29969032387E+03  0.29969032387E+03  0.00000000000E+00 0.  1.
         21   -1    0    0  503  502 -0.00000000000E+00 -0.00000000000E+00 -0.36087498637E+03  0.36087498637E+03  0.00000000000E+00 0.  1.
         25    1    1    2    0    0  0.99591941544E+02 -0.25354359237E+03  0.98306603870E+01  0.29987422353E+03  0.12500000000E+03 0.  0.
         21    1    1    2  503  501 -0.33470087971E+02  0.18002418368E+03  0.63443641970E+02  0.19378867151E+03  0.00000000000E+00 0.  1.
         21    1    1    2  504  502 -0.66121853573E+02  0.73519408689E+02 -0.13445896485E+03  0.16690241521E+03  0.00000000000E+00 0.  1.
<mgrwt>
<rscale>  4 0.24428200E+03</rscale>
<asrwt>0</asrwt>
<pdfrwt beam="1">  1       21 0.46106204E-01 0.24428200E+03</pdfrwt>
<pdfrwt beam="2">  1       21 0.55519228E-01 0.24428200E+03</pdfrwt>
<totfact> 0.13364686E+04</totfact>
</mgrwt>
</event>
<event>
 5    0  0.1283376E+001  0.2469199E+03  0.7546771E-02  0.1115267E+00
         21   -1    0    0  504  501  0.00000000000E+00  0.00000000000E+00  0.81881525638E+03  0.81881525638E+03  0.00000000000E+00 0. -1.
         21   -1    0    0  501  502 -0.00000000000E+00 -0.00000000000E+00 -0.39951725062E+03  0.39951725062E+03  0.00000000000E+00 0. -1.
         25    1    1    2    0    0 -0.20647880452E+03  0.80007934667E+02  0.73423353781E+03  0.77701908238E+03  0.12500000000E+03 0.  0.
         21    1    1    2  503  502  0.44212801228E+02 -0.38504147732E+02 -0.25774459030E+03  0.26432861180E+03  0.00000000000E+00 0. -1.
         21    1    1    2  504  503  0.16226600330E+03 -0.41503786935E+02 -0.57190941747E+02  0.17698481283E+03  0.00000000000E+00 0. -1.
<mgrwt>
<rscale>  4 0.24691994E+03</rscale>
<asrwt>0</asrwt>
<pdfrwt beam="1">  1       21 0.12597158E+00 0.24691994E+03</pdfrwt>
<pdfrwt beam="2">  1       21 0.61464193E-01 0.24691994E+03</pdfrwt>
<totfact> 0.10957479E+03</totfact>
</mgrwt>
</event>
<event>
 5    0  0.1283376E+001  0.1884567E+03  0.7546771E-02  0.1159861E+00
         21   -1    0    0  504  501  0.00000000000E+00  0.00000000000E+00  0.29803747718E+04  0.29803747718E+04  0.00000000000E+00 0.  1.
         21   -1    0    0  501  502 -0.00000000000E+00 -0.00000000000E+00 -0.20394092052E+04  0.20394092052E+04  0.00000000000E+00 0. -1.
         25    1    1    2    0    0  0.22985466281E+03 -0.24104213524E+02  0.28057791710E+04  0.28180553464E+04  0.12500000000E+03 0.  0.
         21    1    1    2  503  502 -0.14087027295E+03  0.49419601771E+01 -0.20183349925E+04  0.20232510963E+04  0.00000000000E+00 0. -1.
         21    1    1    2  504  503 -0.88984389862E+02  0.19162253346E+02  0.15352138809E+03  0.17847753414E+03  0.00000000000E+00 0.  1.
<mgrwt>
<rscale>  4 0.18845669E+03</rscale>
<asrwt>0</asrwt>
<pdfrwt beam="1">  1       21 0.45851920E+00 0.18845669E+03</pdfrwt>
<pdfrwt beam="2">  1       21 0.31375526E+00 0.18845669E+03</pdfrwt>
<totfact> 0.10525674E-01</totfact>
</mgrwt>
</event>
<event>
 5    0  0.1283376E+001  0.2608595E+03  0.7546771E-02  0.1106628E+00
         21   -1    0    0  504  501  0.00000000000E+00  0.00000000000E+00  0.70123363693E+03  0.70123363693E+03  0.00000000000E+00 0. -1.
         21   -1    0    0  501  502 -0.00000000000E+00 -0.00000000000E+00 -0.15400047183E+04  0.15400047183E+04  0.00000000000E+00 0. -1.
         25    1    1    2    0    0  0.83541889837E+02  0.22525209779E+03  0.55367918298E+03  0.61636303635E+03  0.12500000000E+03 0.  0.
         21    1    1    2  503  502 -0.90158210690E+01 -0.41335919865E+02 -0.14234047817E+04  0.14240333970E+04  0.00000000000E+00 0. -1.
         21    1    1    2  504  503 -0.74526068768E+02 -0.18391617792E+03  0.30954517345E+02  0.20084192185E+03  0.00000000000E+00 0. -1.
<mgrwt>
<rscale>  4 0.26085948E+03</rscale>
<asrwt>0</asrwt>
<pdfrwt beam="1">  1       21 0.10788210E+00 0.26085948E+03</pdfrwt>
<pdfrwt beam="2">  1       21 0.23692380E+00 0.26085948E+03</pdfrwt>
<totfact> 0.49506189E+01</totfact>
</mgrwt>
</event>
<event>
 5    0  0.1283376E+001  0.3326666E+03  0.7546771E-02  0.1069963E+00
         21   -1    0    0  502  501  0.00000000000E+00  0.00000000000E+00  0.14283910285E+03  0.14283910285E+03  0.00000000000E+00 0. -1.
         21   -1    0    0  503  502 -0.00000000000E+00 -0.00000000000E+00 -0.78397437397E+03  0.78397437397E+03  0.00000000000E+00 0. -1.
         25    1    1    2    0    0  0.22337227797E+03  0.19930292095E+03 -0.30222594858E+03  0.44337608513E+03  0.12500000000E+03 0.  0.
         21    1    1    2  503  504 -0.22137263614E+03 -0.22693253240E+03 -0.31319239359E+03  0.44563852357E+03  0.00000000000E+00 0. -1.
         21    1    1    2  504  501 -0.19996418356E+01  0.27629611451E+02 -0.25716928953E+02  0.37798868120E+02  0.00000000000E+00 0. -1.
<mgrwt>
<rscale>  4 0.33266658E+03</rscale>
<asrwt>0</asrwt>
<pdfrwt beam="1">  1       21 0.21975246E-01 0.33266658E+03</pdfrwt>
<pdfrwt beam="2">  1       21 0.12061145E+00 0.33266658E+03</pdfrwt>
<totfact> 0.93240921E+03</totfact>
</mgrwt>
</event>
<event>
 5    0  0.1283376E+001  0.2556545E+03  0.7546771E-02  0.1109783E+00
         21   -1    0    0  503  501  0.00000000000E+00  0.00000000000E+00  0.64027828212E+03  0.64027828212E+03  0.00000000000E+00 0.  1.
         21   -1    0    0  504  502 -0.00000000000E+00 -0.00000000000E+00 -0.15920397423E+03  0.15920397423E+03  0.00000000000E+00 0.  1.
         25    1    1    2    0    0  0.95981232610E+02  0.20130032518E+03  0.50476158585E+03  0.56581222723E+03  0.12500000000E+03 0.  0.
         21    1    1    2  503  502 -0.29991127062E+02 -0.54660209757E+02  0.22631208569E+02  0.66327805891E+02  0.00000000000E+00 0.  1.
         21    1    1    2  504  501 -0.65990105548E+02 -0.14664011543E+03 -0.46318486522E+02  0.16734222323E+03  0.00000000000E+00 0.  1.
<mgrwt>
<rscale>  4 0.25565449E+03</rscale>
<asrwt>0</asrwt>
<pdfrwt beam="1">  1       21 0.98504350E-01 0.25565449E+03</pdfrwt>
<pdfrwt beam="2">  1       21 0.24492919E-01 0.25565449E+03</pdfrwt>
<totfact> 0.12900742E+04</totfact>
</mgrwt>
</event>
<event>
 5    0  0.1283376E+001  0.2790054E+03  0.7546771E-02  0.1096233E+00
         21   -1    0    0  503  501  0.00000000000E+00  0.00000000000E+00  0.25032925317E+03  0.25032925317E+03  0.00000000000E+00 0.  1.
         21   -1    0    0  504  502 -0.00000000000E+00 -0.00000000000E+00 -0.35204339820E+03  0.35204339820E+03  0.00000000000E+00 0.  1.
         25    1    1    2    0    0  0.11788698636E+03  0.20869508372E+03  0.36684764404E+02  0.27280350339E+03  0.12500000000E+03 0.  0.
         21    1    1    2  503  502  0.13538407310E+02  0.21744121443E+02 -0.38203239668E+02  0.45995465113E+02  0.00000000000E+00 0.  1.
         21    1    1    2  504  501 -0.13142539366E+03 -0.23043920516E+03 -0.10019566976E+03  0.28357368287E+03  0.00000000000E+00 0.  1.
<mgrwt>
<rscale>  4 0.27900544E+03</rscale>
<asrwt>0</asrwt>
<pdfrwt beam="1">  1       21 0.38512193E-01 0.27900544E+03</pdfrwt>
<pdfrwt beam="2">  1       21 0.54160523E-01 0.27900544E+03</pdfrwt>
<totfact> 0.20040572E+04</totfact>
</mgrwt>
</event>
<event>
 5    0  0.1283376E+001  0.4684370E+03  0.7546771E-02  0.1022362E+00
         21   -1    0    0  504  501  0.00000000000E+00  0.00000000000E+00  0.13171709734E+04  0.13171709734E+04  0.00000000000E+00 0.  1.
         21   -1    0    0  501  502 -0.00000000000E+00 -0.00000000000E+00 -0.29117121155E+03  0.29117121155E+03  0.00000000000E+00 0.  1.
         25    1    1    2    0    0 -0.26856079599E+03  0.16202158287E+03  0.69251864789E+03  0.77044336076E+03  0.12500000000E+03 0.  0.
         21    1    1    2  503  502 -0.22433157774E+03 -0.80500618674E+01  0.20903552305E+03  0.30673328832E+03  0.00000000000E+00 0.  1.
         21    1    1    2  504  503  0.49289237373E+03 -0.15397152101E+03  0.12444559087E+03  0.53116553583E+03  0.00000000000E+00 0.  1.
<mgrwt>
<rscale>  4 0.46843703E+03</rscale>
<asrwt>0</asrwt>
<pdfrwt beam="1">  1       21 0.20264169E+00 0.46843703E+03</pdfrwt>
<pdfrwt beam="2">  1       21 0.44795572E-01 0.46843703E+03</pdfrwt>
<totfact> 0.50386359E+02</totfact>
</mgrwt>
</event>
<event>
 5    0  0.1283376E+001  0.2912680E+03  0.7546771E-02  0.1089689E+00
         21   -1    0    0  503  501  0.00000000000E+00  0.00000000000E+00  0.82261425463E+03  0.82261425463E+03  0.00000000000E+00 0.  1.
         21   -1    0    0  504  502 -0.00000000000E+00 -0.00000000000E+00 -0.12189265950E+03  0.12189265950E+03  0.00000000000E+00 0.  1.
         25    1    1    2    0    0 -0.18828165659E+03 -0.17424485297E+03  0.52070409912E+03  0.59377521827E+03  0.12500000000E+03 0.  0.
         21    1    1    2  503  502 -0.11232129284E+02 -0.18820910815E+02  0.23009350019E+02  0.31777627357E+02  0.00000000000E+00 0. -1.
         21    1    1    2  504  501  0.19951378587E+03  0.19306576379E+03  0.15700814599E+03  0.31895406849E+03  0.00000000000E+00 0.  1.
<mgrwt>
<rscale>  4 0.29126798E+03</rscale>
<asrwt>0</asrwt>
<pdfrwt beam="1">  1       21 0.12655604E+00 0.29126798E+03</pdfrwt>
<pdfrwt beam="2">  1       21 0.18752717E-01 0.29126798E+03</pdfrwt>
<totfact> 0.11352018E+04</totfact>
</mgrwt>
</event>
<event>
 5    0  0.1283376E+001  0.4015388E+03  0.7546771E-02  0.1043248E+00
         21   -1    0    0  503  501  0.00000000000E+00  0.00000000000E+00  0.16229293082E+03  0.16229293082E+03  0.00000000000E+00 0.  1.
         21   -1    0    0  504  502 -0.00000000000E+00 -0.00000000000E+00 -0.13168036743E+04  0.13168036743E+04  0.00000000000E+00 0. -1.
         25    1    1    2    0    0 -0.26695689597E+03  0.26400047312E+03 -0.21962339700E+03  0.45257228221E+03  0.12500000000E+03 0.  0.
         21    1    1    2  503  502 -0.16166184846E+02  0.15514976855E+02 -0.88496384136E+02  0.91288937141E+02  0.00000000000E+00 0.  1.
         21    1    1    2  504  501  0.28312308081E+03 -0.27951544998E+03 -0.84639096237E+03  0.93523538580E+03  0.00000000000E+00 0. -1.
<mgrwt>
<rscale>  4 0.40153885E+03</rscale>
<asrwt>0</asrwt>
<pdfrwt beam="1">  1       21 0.24968143E-01 0.40153885E+03</pdfrwt>
<pdfrwt beam="2">  1       21 0.20258518E+00 0.40153885E+03</pdfrwt>
<totfact> 0.16897034E+03</totfact>
</mgrwt>
</event>
<event>
 5    0  0.1283376E+001  0.2825900E+03  0.7546771E-02  0.1094283E+00
         21   -1    0    0  503  501  0.00000000000E+00  0.00000000000E+00  0.42530246491E+03  0.42530246491E+03  0.00000000000E+00 0.  1.
         21   -1    0    0  504  502 -0.00000000000E+00 -0.00000000000E+00 -0.45451035733E+03  0.45451035733E+03  0.00000000000E+00 0.  1.
         25    1    1    2    0    0  0.22125030632E+03  0.23851880092E+03  0.18938790492E+03  0.39665563776E+03  0.12500000000E+03 0.  0.
         21    1    1    2  503  502 -0.13878731905E+03 -0.58626854922E+02 -0.24077356573E+03  0.28402629808E+03  0.00000000000E+00 0.  1.
         21    1    1    2  504  501 -0.82462987271E+02 -0.17989194600E+03  0.22177768399E+02  0.19913088639E+03  0.00000000000E+00 0.  1.
<mgrwt>
<rscale>  4 0.28258998E+03</rscale>
<asrwt>0</asrwt>
<pdfrwt beam="1">  1       21 0.65431149E-01 0.28258998E+03</pdfrwt>
<pdfrwt beam="2">  1       21 0.69924670E-01 0.28258998E+03</pdfrwt>
<totfact> 0.37511002E+03</totfact>
</mgrwt>
</event>
<event>
 5    0  0.1283376E+001  0.2596680E+03  0.7546771E-02  0.1107343E+00
         21   -1    0    0  503  501  0.00000000000E+00  0.00000000000E+00  0.79084758664E+03  0.79084758664E+03  0.00000000000E+00 0. -1.
         21   -1    0    0  504  502 -0.00000000000E+00 -0.00000000000E+00 -0.17027881480E+03  0.17027881480E+03  0.00000000000E+00 0.  1.
         25    1    1    2    0    0 -0.20430279486E+03 -0.89419228613E+02  0.57549762089E+03  0.62972846695E+03  0.12500000000E+03 0.  0.
         21    1    1    2  503  502  0.70067432844E+01 -0.71809761981E+02  0.22630219067E+02  0.75616553626E+02  0.00000000000E+00 0. -1.
         21    1    1    2  504  501  0.19729605157E+03  0.16122899059E+03  0.22440931885E+02  0.25578138087E+03  0.00000000000E+00 0.  1.
<mgrwt>
<rscale>  4 0.25966804E+03</rscale>
<asrwt>0</asrwt>
<pdfrwt beam="1">  1       21 0.12166886E+00 0.25966804E+03</pdfrwt>
<pdfrwt beam="2">  1       21 0.26196741E-01 0.25966804E+03</pdfrwt>
<totfact> 0.67520990E+03</totfact>
</mgrwt>
</event>
<event>
 5    0  0.1283376E+001  0.2711935E+03  0.7546771E-02  0.1100598E+00
         21   -1    0    0  503  501  0.00000000000E+00  0.00000000000E+00  0.26253428715E+04  0.26253428715E+04  0.00000000000E+00 0. -1.
         21   -1    0    0  504  502 -0.00000000000E+00 -0.00000000000E+00 -0.43656028534E+02  0.43656028534E+02  0.00000000000E+00 0. -1.
         25    1    1    2    0    0  0.26258524031E+02  0.23923089280E+03  0.21567243105E+04  0.21737078188E+04  0.12500000000E+03 0.  0.
         21    1    1    2  503  502 -0.37545411967E+02 -0.53930890831E+02  0.14720183485E+03  0.16120353324E+03  0.00000000000E+00 0.  1.
         21    1    1    2  504  501  0.11286887937E+02 -0.18530000197E+03  0.27776069766E+03  0.33408754800E+03  0.00000000000E+00 0. -1.
<mgrwt>
<rscale>  4 0.27119353E+03</rscale>
<asrwt>0</asrwt>
<pdfrwt beam="1">  1       21 0.40389878E+00 0.27119353E+03</pdfrwt>
<pdfrwt beam="2">  1       21 0.67163141E-02 0.27119353E+03</pdfrwt>
<totfact> 0.12108363E+03</totfact>
</mgrwt>
</event>
<event>
 5    0  0.1283376E+001  0.4832090E+03  0.7546771E-02  0.1018257E+00
         21   -1    0    0  504  501  0.00000000000E+00  0.00000000000E+00  0.24939051692E+03  0.24939051692E+03  0.00000000000E+00 0. -1.
         21   -1    0    0  501  502 -0.00000000000E+00 -0.00000000000E+00 -0.17401311571E+04  0.17401311571E+04  0.00000000000E+00 0. -1.
         25    1    1    2    0    0 -0.10790775596E+03  0.35140887611E+03 -0.50011601836E+03  0.63314557081E+03  0.12500000000E+03 0.  0.
         21    1    1    2  503  502 -0.41523616172E+01  0.17911314313E+03 -0.73572023170E+03  0.75722058840E+03  0.00000000000E+00 0. -1.
         21    1    1    2  504  503  0.11206011758E+03 -0.53052201924E+03 -0.25490439013E+03  0.59915551484E+03  0.00000000000E+00 0. -1.
<mgrwt>
<rscale>  4 0.48320900E+03</rscale>
<asrwt>0</asrwt>
<pdfrwt beam="1">  1       21 0.38367773E-01 0.48320900E+03</pdfrwt>
<pdfrwt beam="2">  1       21 0.26771248E+00 0.48320900E+03</pdfrwt>
<totfact> 0.26848704E+02</totfact>
</mgrwt>
</event>
<event>
 5    0  0.1283376E+001  0.2775350E+03  0.7546771E-02  0.1097043E+00
         21   -1    0    0  504  501  0.00000000000E+00  0.00000000000E+00  0.27926483715E+03  0.27926483715E+03  0.00000000000E+00 0. -1.
         21   -1    0    0  503  502 -0.00000000000E+00 -0.00000000000E+00 -0.67258157341E+03  0.67258157341E+03  0.00000000000E+00 0. -1.
         25    1    1    2    0    0 -0.13615145115E+03 -0.22306015259E+03  0.11254943357E+03  0.31078195623E+03  0.12500000000E+03 0.  0.
         21    1    1    2  503  501  0.13589069941E+03  0.17684293818E+03 -0.12158326894E+03  0.25401220100E+03  0.00000000000E+00 0. -1.
         21    1    1    2  504  502  0.26075174798E+00  0.46217214410E+02 -0.38428290089E+03  0.38705225334E+03  0.00000000000E+00 0. -1.
<mgrwt>
<rscale>  4 0.27753499E+03</rscale>
<asrwt>0</asrwt>
<pdfrwt beam="1">  1       21 0.42963822E-01 0.27753499E+03</pdfrwt>
<pdfrwt beam="2">  1       21 0.10347409E+00 0.27753499E+03</pdfrwt>
<totfact> 0.37129308E+03</totfact>
</mgrwt>
</event>
<event>
 5    0  0.1283376E+001  0.2139392E+03  0.7546771E-02  0.1138484E+00
         21   -1    0    0  504  501  0.00000000000E+00  0.00000000000E+00  0.16044989040E+04  0.16044989040E+04  0.00000000000E+00 0.  1.
         21   -1    0    0  501  502 -0.00000000000E+00 -0.00000000000E+00 -0.48829064029E+02  0.48829064029E+02  0.00000000000E+00 0.  1.
         25    1    1    2    0    0  0.21035443234E+03  0.13245260828E+02  0.10602352382E+04  0.10881857307E+04  0.12500000000E+03 0.  0.
         21    1    1    2  503  502 -0.98836518633E+02  0.79256318281E+02  0.21741948543E+03  0.25163754499E+03  0.00000000000E+00 0.  1.
         21    1    1    2  504  503 -0.11151791371E+03 -0.92501579109E+02  0.27801511632E+03  0.31350469234E+03  0.00000000000E+00 0.  1.
<mgrwt>
<rscale>  4 0.21393924E+03</rscale>
<asrwt>0</asrwt>
<pdfrwt beam="1">  1       21 0.24684594E+00 0.21393924E+03</pdfrwt>
<pdfrwt beam="2">  1       21 0.75121649E-02 0.21393924E+03</pdfrwt>
<totfact> 0.91091947E+03</totfact>
</mgrwt>
</event>
<event>
 5    0  0.1283376E+001  0.2477303E+03  0.7546771E-02  0.1114748E+00
         21   -1    0    0  503  501  0.00000000000E+00  0.00000000000E+00  0.79572795818E+03  0.79572795818E+03  0.00000000000E+00 0. -1.
         21   -1    0    0  504  502 -0.00000000000E+00 -0.00000000000E+00 -0.12289852627E+04  0.12289852627E+04  0.00000000000E+00 0. -1.
         25    1    1    2    0    0 -0.70127564904E+02  0.25758203635E+03 -0.15600417543E+03  0.33350964537E+03  0.12500000000E+03 0.  0.
         21    1    1    2  503  502  0.41064820392E+02 -0.48993385933E+02 -0.96746566139E+03  0.96957541084E+03  0.00000000000E+00 0. -1.
         21    1    1    2  504  501  0.29062744512E+02 -0.20858865041E+03  0.69021253233E+03  0.72162816463E+03  0.00000000000E+00 0. -1.
<mgrwt>
<rscale>  4 0.24773027E+03</rscale>
<asrwt>0</asrwt>
<pdfrwt beam="1">  1       21 0.12241969E+00 0.24773027E+03</pdfrwt>
<pdfrwt beam="2">  1       21 0.18907466E+00 0.24773027E+03</pdfrwt>
<totfact> 0.73959155E+01</totfact>
</mgrwt>
</event>
<event>
 5    0  0.1283376E+001  0.2399163E+03  0.7546771E-02  0.1119849E+00
         21   -1    0    0  504  501  0.00000000000E+00  0.00000000000E+00  0.18546802220E+04  0.18546802220E+04  0.00000000000E+00 0. -1.
         21   -1    0    0  501  502 -0.00000000000E+00 -0.00000000000E+00 -0.76331336453E+02  0.76331336453E+02  0.00000000000E+00 0. -1.
         25    1    1    2    0    0 -0.11388242078E+03  0.17385915762E+03  0.15014495468E+04  0.15209115536E+04  0.12500000000E+03 0.  0.
         21    1    1    2  503  502 -0.82540927627E+01 -0.19944769450E+02 -0.35205558069E+02  0.41295946469E+02  0.00000000000E+00 0. -1.
         21    1    1    2  504  503  0.12213651355E+03 -0.15391438817E+03  0.31210489685E+03  0.36880405837E+03  0.00000000000E+00 0. -1.
<mgrwt>
<rscale>  4 0.23991635E+03</rscale>
<asrwt>0</asrwt>
<pdfrwt beam="1">  1       21 0.28533538E+00 0.23991635E+03</pdfrwt>
<pdfrwt beam="2">  1       21 0.11743284E-01 0.23991635E+03</pdfrwt>
<totfact> 0.24012292E+03</totfact>
</mgrwt>
</event>
<event>
 5    0  0.1283376E+001  0.3010467E+03  0.7546771E-02  0.1084719E+00
         21   -1    0    0  504  501  0.00000000000E+00  0.00000000000E+00  0.25527998019E+03  0.25527998019E+03  0.00000000000E+00 0.  1.
         21   -1    0    0  501  502 -0.00000000000E+00 -0.00000000000E+00 -0.84139768299E+03  0.84139768299E+03  0.00000000000E+00 0.  1.
         25    1    1    2    0    0  0.10975200842E+03  0.26130499415E+03  0.11022830775E+03  0.32878729165E+03  0.12500000000E+03 0.  0.
         21    1    1    2  503  502  0.92922266238E+01 -0.55068304626E+02 -0.30280988850E+03  0.30791669689E+03  0.00000000000E+00 0. -1.
         21    1    1    2  504  503 -0.11904423505E+03 -0.20623668952E+03 -0.39353612205E+03  0.45997367464E+03  0.00000000000E+00 0.  1.
<mgrwt>
<rscale>  4 0.30104672E+03</rscale>
<asrwt>0</asrwt>
<pdfrwt beam="1">  1       21 0.39273843E-01 0.30104672E+03</pdfrwt>
<pdfrwt beam="2">  1       21 0.12944580E+00 0.30104672E+03</pdfrwt>
<totfact> 0.25237864E+03</totfact>
</mgrwt>
</event>
<event>
 5    0  0.1283376E+001  0.2325361E+03  0.7546771E-02  0.1124867E+00
         21   -1    0    0  503  501  0.00000000000E+00  0.00000000000E+00  0.35505816470E+03  0.35505816470E+03  0.00000000000E+00 0.  1.
         21   -1    0    0  504  502 -0.00000000000E+00 -0.00000000000E+00 -0.26889629973E+03  0.26889629973E+03  0.00000000000E+00 0.  1.
         25    1    1    2    0    0 -0.76907368669E+02 -0.19345622060E+03 -0.47776147765E+02  0.24748255078E+03  0.12500000000E+03 0.  0.
         21    1    1    2  503  502  0.13262702563E+03 -0.22176131161E+01 -0.44204556616E+00  0.13264630089E+03  0.00000000000E+00 0.  1.
         21    1    1    2  504  501 -0.55719656961E+02  0.19567383371E+03  0.13438005830E+03  0.24382561277E+03  0.00000000000E+00 0.  1.
<mgrwt>
<rscale>  4 0.23253612E+03</rscale>
<asrwt>0</asrwt>
<pdfrwt beam="1">  1       21 0.54624333E-01 0.23253612E+03</pdfrwt>
<pdfrwt beam="2">  1       21 0.41368661E-01 0.23253612E+03</pdfrwt>
<totfact> 0.17397356E+04</totfact>
</mgrwt>
</event>
<event>
 5    0  0.1283376E+001  0.3029986E+03  0.7546771E-02  0.1083751E+00
         21   -1    0    0  504  501  0.00000000000E+00  0.00000000000E+00  0.13022114741E+04  0.13022114741E+04  0.00000000000E+00 0.  1.
         21   -1    0    0  501  502 -0.00000000000E+00 -0.00000000000E+00 -0.84917203796E+02  0.84917203796E+02  0.00000000000E+00 0.  1.
         25    1    1    2    0    0 -0.17279465037E+03  0.22392179241E+03  0.87832147343E+03  0.93116731633E+03  0.12500000000E+03 0.  0.
         21    1    1    2  503  502  0.27015583048E+02 -0.30214887646E+01  0.16950916528E+01  0.27236821722E+02  0.00000000000E+00 0. -1.
         21    1    1    2  504  503  0.14577906732E+03 -0.22090030365E+03  0.33727770521E+03  0.42872453983E+03  0.00000000000E+00 0.  1.
<mgrwt>
<rscale>  4 0.30299863E+03</rscale>
<asrwt>0</asrwt>
<pdfrwt beam="1">  1       21 0.20034021E+00 0.30299863E+03</pdfrwt>
<pdfrwt beam="2">  1       21 0.13064186E-01 0.30299863E+03</pdfrwt>
<totfact> 0.62147490E+03</totfact>
</mgrwt>
</event>
<event>
 5    0  0.1283376E+001  0.2764751E+03  0.7546771E-02  0.1097630E+00
         21   -1    0    0  503  501  0.00000000000E+00  0.00000000000E+00  0.10113749714E+04  0.10113749714E+04  0.00000000000E+00 0. -1.
         21   -1    0    0  504  502 -0.00000000000E+00 -0.00000000000E+00 -0.29072064717E+03  0.29072064717E+03  0.00000000000E+00 0.  1.
         25    1    1    2    0    0  0.20149846021E+03  0.62169138654E+02  0.81656009194E+03  0.85256203001E+03  0.12500000000E+03 0.  0.
         21    1    1    2  503  502 -0.23857425887E+03 -0.71530371720E+02 -0.21214296637E+03  0.32716801380E+03  0.00000000000E+00 0.  1.
         21    1    1    2  504  501  0.37075798655E+02  0.93612330663E+01  0.11623719866E+03  0.12236557474E+03  0.00000000000E+00 0. -1.
<mgrwt>
<rscale>  4 0.27647510E+03</rscale>
<asrwt>0</asrwt>
<pdfrwt beam="1">  1       21 0.15559615E+00 0.27647510E+03</pdfrwt>
<pdfrwt beam="2">  1       21 0.44726254E-01 0.27647510E+03</pdfrwt>
<totfact> 0.12103964E+03</totfact>
</mgrwt>
</event>
<event>
 5    0  0.1283376E+001  0.2988440E+03  0.7546771E-02  0.1085820E+00
         21   -1    0    0  502  501  0.00000000000E+00  0.00000000000E+00  0.63432428680E+03  0.63432428680E+03  0.00000000000E+00 0. -1.
         21   -1    0    0  503  502 -0.00000000000E+00 -0.00000000000E+00 -0.10005748252E+04  0.10005748252E+04  0.00000000000E+00 0.  1.
         25    1    1    2    0    0 -0.20779991741E+03  0.17748495665E+03  0.56478309060E+03  0.63975515233E+03  0.12500000000E+03 0.  0.
         21    1    1    2  503  504  0.14829275644E+03 -0.20338391282E+03 -0.50560775103E+03  0.56479638412E+03  0.00000000000E+00 0.  1.
         21    1    1    2  504  501  0.59507160968E+02  0.25898956175E+02 -0.42542587799E+03  0.43034757558E+03  0.00000000000E+00 0. -1.
<mgrwt>
<rscale>  4 0.29884396E+03</rscale>
<asrwt>0</asrwt>
<pdfrwt beam="1">  1       21 0.97588352E-01 0.29884396E+03</pdfrwt>
<pdfrwt beam="2">  1       21 0.15393459E+00 0.29884396E+03</pdfrwt>
<totfact> 0.21810206E+02</totfact>
</mgrwt>
</event>
<event>
 5    0  0.1283376E+001  0.2067170E+03  0.7546771E-02  0.1144192E+00
         21   -1    0    0  504  501  0.00000000000E+00  0.00000000000E+00  0.13899309325E+04  0.13899309325E+04  0.00000000000E+00 0. -1.
         21   -1    0    0  501  502 -0.00000000000E+00 -0.00000000000E+00 -0.20566783732E+03  0.20566783732E+03  0.00000000000E+00 0. -1.
         25    1    1    2    0    0  0.11360512984E+03 -0.22816078025E+03  0.24257750526E+03  0.37340636474E+03  0.12500000000E+03 0.  0.
         21    1    1    2  503  502 -0.54744363742E+02  0.82898433347E+02 -0.11613228338E+03  0.15282605425E+03  0.00000000000E+00 0. -1.
         21    1    1    2  504  503 -0.58860766100E+02  0.14526234690E+03  0.10578178733E+04  0.10693663508E+04  0.00000000000E+00 0. -1.
<mgrwt>
<rscale>  4 0.20671696E+03</rscale>
<asrwt>0</asrwt>
<pdfrwt beam="1">  1       21 0.21383552E+00 0.20671696E+03</pdfrwt>
<pdfrwt beam="2">  1       21 0.31641207E-01 0.20671696E+03</pdfrwt>
<totfact> 0.10379564E+03</totfact>
</mgrwt>
</event>
<event>
 5    0  0.1283376E+001  0.2902655E+03  0.7546771E-02  0.1090211E+00
         21   -1    0    0  503  501  0.00000000000E+00  0.00000000000E+00  0.24727424682E+04  0.24727424682E+04  0.00000000000E+00 0.  1.
         21   -1    0    0  504  502 -0.00000000000E+00 -0.00000000000E+00 -0.43977475570E+02  0.43977475570E+02  0.00000000000E+00 0.  1.
         25    1    1    2    0    0 -0.28038573135E+02 -0.24979532163E+03  0.11156219433E+04  0.11504004453E+04  0.12500000000E+03 0.  0.
         21    1    1    2  503  502  0.27307954985E+02 -0.21386385315E+02  0.11222768731E+02  0.36456171223E+02  0.00000000000E+00 0.  1.
         21    1    1    2  504  501  0.73061815058E+00  0.27118170694E+03  0.13019202806E+04  0.13298633272E+04  0.00000000000E+00 0.  1.
<mgrwt>
<rscale>  4 0.29026551E+03</rscale>
<asrwt>0</asrwt>
<pdfrwt beam="1">  1       21 0.38042181E+00 0.29026551E+03</pdfrwt>
<pdfrwt beam="2">  1       21 0.67657674E-02 0.29026551E+03</pdfrwt>
<totfact> 0.16452334E+03</totfact>
</mgrwt>
</event>
<event>
 5    0  0.1283376E+001  0.4245042E+03  0.7546771E-02  0.1035610E+00
         21   -1    0    0  504  501  0.00000000000E+00  0.00000000000E+00  0.69873793355E+03  0.69873793355E+03  0.00000000000E+00 0. -1.
         21   -1    0    0  501  502 -0.00000000000E+00 -0.00000000000E+00 -0.31916171426E+03  0.31916171426E+03  0.00000000000E+00 0. -1.
         25    1    1    2    0    0 -0.33597495136E+03 -0.17689032095E+03  0.14768220171E+02  0.40001556709E+03  0.12500000000E+03 0.  0.
         21    1    1    2  503  502 -0.36928816368E+02 -0.11861678000E+02 -0.25178344503E+02  0.46242684992E+02  0.00000000000E+00 0. -1.
         21    1    1    2  504  503  0.37290376772E+03  0.18875199895E+03  0.38998634362E+03  0.57164139572E+03  0.00000000000E+00 0. -1.
<mgrwt>
<rscale>  4 0.42450421E+03</rscale>
<asrwt>0</asrwt>
<pdfrwt beam="1">  1       21 0.10749814E+00 0.42450421E+03</pdfrwt>
<pdfrwt beam="2">  1       21 0.49101802E-01 0.42450421E+03</pdfrwt>
<totfact> 0.23854394E+03</totfact>
</mgrwt>
</event>
<event>
 5    0  0.1283376E+001  0.2470639E+03  0.7546771E-02  0.1115175E+00
         21   -1    0    0  504  501  0.00000000000E+00  0.00000000000E+00  0.10631021239E+03  0.10631021239E+03  0.00000000000E+00 0. -1.
         21   -1    0    0  501  502 -0.00000000000E+00 -0.00000000000E+00 -0.68286225829E+03  0.68286225829E+03  0.00000000000E+00 0. -1.
         25    1    1    2    0    0 -0.82445591004E+02  0.19480611929E+03 -0.22949125626E+03  0.33621114837E+03  0.12500000000E+03 0.  0.
         21    1    1    2  503  502  0.24039639596E+02  0.12199135107E+02 -0.17625122313E+03  0.17830091649E+03  0.00000000000E+00 0. -1.
         21    1    1    2  504  503  0.58405951408E+02 -0.20700525440E+03 -0.17080956652E+03  0.27466040581E+03  0.00000000000E+00 0. -1.
<mgrwt>
<rscale>  4 0.24706389E+03</rscale>
<asrwt>0</asrwt>
<pdfrwt beam="1">  1       21 0.16355417E-01 0.24706389E+03</pdfrwt>
<pdfrwt beam="2">  1       21 0.10505574E+00 0.24706389E+03</pdfrwt>
<totfact> 0.23714455E+04</totfact>
</mgrwt>
</event>
<event>
 5    0  0.1283376E+001  0.2628573E+03  0.7546771E-02  0.1105439E+00
         21   -1    0    0  504  501  0.00000000000E+00  0.00000000000E+00  0.16251010557E+03  0.16251010557E+03  0.00000000000E+00 0. -1.
         21   -1    0    0  501  502 -0.00000000000E+00 -0.00000000000E+00 -0.19987058858E+04  0.19987058858E+04  0.00000000000E+00 0. -1.
         25    1    1    2    0    0 -0.23259074399E+03  0.55094400543E+02 -0.67525915600E+01  0.26982298763E+03  0.12500000000E+03 0.  0.
         21    1    1    2  503  502  0.54083430757E+02  0.75619093915E+02 -0.14438013810E+04  0.14467915166E+04  0.00000000000E+00 0. -1.
         21    1    1    2  504  503  0.17850731323E+03 -0.13071349446E+03 -0.38564180772E+03  0.44460148715E+03  0.00000000000E+00 0. -1.
<mgrwt>
<rscale>  4 0.26285728E+03</rscale>
<asrwt>0</asrwt>
<pdfrwt beam="1">  1       21 0.25001555E-01 0.26285728E+03</pdfrwt>
<pdfrwt beam="2">  1       21 0.30749321E+00 0.26285728E+03</pdfrwt>
<totfact> 0.42859370E+02</totfact>
</mgrwt>
</event>
<event>
 5    0  0.1283376E+001  0.2906962E+03  0.7546771E-02  0.1089986E+00
         21   -1    0    0  503  501  0.00000000000E+00  0.00000000000E+00  0.84796491330E+03  0.84796491330E+03  0.00000000000E+00 0.  1.
         21   -1    0    0  504  502 -0.00000000000E+00 -0.00000000000E+00 -0.42300711198E+03  0.42300711198E+03  0.00000000000E+00 0. -1.
         25    1    1    2    0    0  0.26245925326E+03 -0.27932742527E+02  0.76220316791E+03  0.81623756769E+03  0.12500000000E+03 0.  0.
         21    1    1    2  503  502 -0.19936812729E+02  0.27003525321E+02  0.63571942416E+01  0.34162564309E+02  0.00000000000E+00 0.  1.
         21    1    1    2  504  501 -0.24252244053E+03  0.92921720574E+00 -0.34360256083E+03  0.42057189328E+03  0.00000000000E+00 0. -1.
<mgrwt>
<rscale>  4 0.29069617E+03</rscale>
<asrwt>0</asrwt>
<pdfrwt beam="1">  1       21 0.13045614E+00 0.29069617E+03</pdfrwt>
<pdfrwt beam="2">  1       21 0.65078017E-01 0.29069617E+03</pdfrwt>
<totfact> 0.85644917E+02</totfact>
</mgrwt>
</event>
<event>
 5    0  0.1283376E+001  0.2573361E+03  0.7546771E-02  0.1108754E+00
         21   -1    0    0  504  501  0.00000000000E+00  0.00000000000E+00  0.51647951464E+03  0.51647951464E+03  0.00000000000E+00 0.  1.
         21   -1    0    0  501  502 -0.00000000000E+00 -0.00000000000E+00 -0.25698282995E+03  0.25698282995E+03  0.00000000000E+00 0. -1.
         25    1    1    2    0    0 -0.50558891673E+02 -0.21918183834E+03  0.41948420010E+03  0.49212688802E+03  0.12500000000E+03 0.  0.
         21    1    1    2  503  502  0.45767189619E+02  0.13874993224E+03 -0.12934318413E+03  0.19513031190E+03  0.00000000000E+00 0. -1.
         21    1    1    2  504  503  0.47917020533E+01  0.80431906095E+02 -0.30644331277E+02  0.86205144661E+02  0.00000000000E+00 0. -1.
<mgrwt>
<rscale>  4 0.25733612E+03</rscale>
<asrwt>0</asrwt>
<pdfrwt beam="1">  1       21 0.79458387E-01 0.25733612E+03</pdfrwt>
<pdfrwt beam="2">  1       21 0.39535820E-01 0.25733612E+03</pdfrwt>
<totfact> 0.82650093E+03</totfact>
</mgrwt>
</event>
<event>
 5    0  0.1283376E+001  0.3704229E+03  0.7546771E-02  0.1054531E+00
         21   -1    0    0  504  501  0.00000000000E+00  0.00000000000E+00  0.22670295051E+03  0.22670295051E+03  0.00000000000E+00 0.  1.
         21   -1    0    0  503  502 -0.00000000000E+00 -0.00000000000E+00 -0.12142799316E+04  0.12142799316E+04  0.00000000000E+00 0. -1.
         25    1    1    2    0    0  0.40170441246E+03 -0.17934970584E+03 -0.29696472058E+03  0.54529422998E+03  0.12500000000E+03 0.  0.
         21    1    1    2  503  501 -0.23578902858E+03  0.18373987868E+03 -0.15861356805E+03  0.33840075796E+03  0.00000000000E+00 0.  1.
         21    1    1    2  504  502 -0.16591538388E+03 -0.43901728457E+01 -0.53199869246E+03  0.55728789418E+03  0.00000000000E+00 0. -1.
<mgrwt>
<rscale>  4 0.37042291E+03</rscale>
<asrwt>0</asrwt>
<pdfrwt beam="1">  1       21 0.34877376E-01 0.37042291E+03</pdfrwt>
<pdfrwt beam="2">  1       21 0.18681230E+00 0.37042291E+03</pdfrwt>
<totfact> 0.11322106E+03</totfact>
</mgrwt>
</event>
<event>
 5    0  0.1283376E+001  0.2314878E+03  0.7546771E-02  0.1125597E+00
         21   -1    0    0  504  501  0.00000000000E+00  0.00000000000E+00  0.14028697383E+03  0.14028697383E+03  0.00000000000E+00 0. -1.
         21   -1    0    0  503  502 -0.00000000000E+00 -0.00000000000E+00 -0.73390309528E+03  0.73390309528E+03  0.00000000000E+00 0. -1.
         25    1    1    2    0    0 -0.64113543906E+02 -0.20260495686E+03 -0.81100034141E+02  0.25954099983E+03  0.12500000000E+03 0.  0.
         21    1    1    2  503  501  0.56857778656E+02  0.16914655360E+03 -0.10778582669E+03  0.20847337485E+03  0.00000000000E+00 0. -1.
         21    1    1    2  504  502  0.72557652507E+01  0.33458403256E+02 -0.40473026062E+03  0.40617569442E+03  0.00000000000E+00 0. -1.
<mgrwt>
<rscale>  4 0.23148778E+03</rscale>
<asrwt>0</asrwt>
<pdfrwt beam="1">  1       21 0.21582611E-01 0.23148778E+03</pdfrwt>
<pdfrwt beam="2">  1       21 0.11290817E+00 0.23148778E+03</pdfrwt>
<totfact> 0.11960019E+04</totfact>
</mgrwt>
</event>
<event>
 5    0  0.1283376E+001  0.3293967E+03  0.7546771E-02  0.1071404E+00
         21   -1    0    0  503  501  0.00000000000E+00  0.00000000000E+00  0.57889465573E+03  0.57889465573E+03  0.00000000000E+00 0. -1.
         21   -1    0    0  504  502 -0.00000000000E+00 -0.00000000000E+00 -0.18161409531E+04  0.18161409531E+04  0.00000000000E+00 0. -1.
         25    1    1    2    0    0 -0.25803826724E+03  0.11607414044E+03 -0.47005909731E+03  0.56270552548E+03  0.12500000000E+03 0.  0.
         21    1    1    2  503  502 -0.33152019816E+02 -0.19639479336E+02 -0.12552700197E+04  0.12558612933E+04  0.00000000000E+00 0. -1.
         21    1    1    2  504  501  0.29119028706E+03 -0.96434661109E+02  0.48808281962E+03  0.57646879009E+03  0.00000000000E+00 0. -1.
<mgrwt>
<rscale>  4 0.32939671E+03</rscale>
<asrwt>0</asrwt>
<pdfrwt beam="1">  1       21 0.89060715E-01 0.32939671E+03</pdfrwt>
<pdfrwt beam="2">  1       21 0.27940630E+00 0.32939671E+03</pdfrwt>
<totfact> 0.40529637E+01</totfact>
</mgrwt>
</event>
<event>
 5    0  0.1283376E+001  0.2244089E+03  0.7546771E-02  0.1130638E+00
         21   -1    0    0  504  501  0.00000000000E+00  0.00000000000E+00  0.13691705261E+04  0.13691705261E+04  0.00000000000E+00 0. -1.
         21   -1    0    0  501  502 -0.00000000000E+00 -0.00000000000E+00 -0.43394260958E+02  0.43394260958E+02  0.00000000000E+00 0. -1.
         25    1    1    2    0    0 -0.20025032843E+03 -0.26245507362E+02  0.88869582000E+03  0.91988818950E+03  0.12500000000E+03 0.  0.
         21    1    1    2  503  502  0.29973763704E+02  0.31387542001E+02  0.34187031020E+02  0.55248143801E+02  0.00000000000E+00 0.  1.
         21    1    1    2  504  503  0.17027656473E+03 -0.51420346394E+01  0.40289341416E+03  0.43742845379E+03  0.00000000000E+00 0. -1.
<mgrwt>
<rscale>  4 0.22440890E+03</rscale>
<asrwt>0</asrwt>
<pdfrwt beam="1">  1       21 0.21064159E+00 0.22440890E+03</pdfrwt>
<pdfrwt beam="2">  1       21 0.66760412E-02 0.22440890E+03</pdfrwt>
<totfact> 0.18424776E+04</totfact>
</mgrwt>
</event>
<event>
 5    0  0.1283376E+001  0.4297713E+03  0.7546771E-02  0.1033932E+00
         21   -1    0    0  503  501  0.00000000000E+00  0.00000000000E+00  0.11959793206E+04  0.11959793206E+04  0.00000000000E+00 0. -1.
         21   -1    0    0  504  502 -0.00000000000E+00 -0.00000000000E+00 -0.10964742037E+04  0.10964742037E+04  0.00000000000E+00 0. -1.
         25    1    1    2    0    0  0.24647613597E+03 -0.35091044557E+03  0.98256462175E+03  0.10793270414E+04  0.12500000000E+03 0.  0.
         21    1    1    2  503  502 -0.11755785505E+03  0.33130924249E+03 -0.32966022716E+02  0.35308982157E+03  0.00000000000E+00 0. -1.
         21    1    1    2  504  501 -0.12891828091E+03  0.19601203083E+02 -0.85009348216E+03  0.86003666127E+03  0.00000000000E+00 0. -1.
<mgrwt>
<rscale>  4 0.42977128E+03</rscale>
<asrwt>0</asrwt>
<pdfrwt beam="1">  1       21 0.18399682E+00 0.42977128E+03</pdfrwt>
<pdfrwt beam="2">  1       21 0.16868834E+00 0.42977128E+03</pdfrwt>
<totfact> 0.29121693E+01</totfact>
</mgrwt>
</event>
<event>
 5    0  0.1283376E+001  0.3027439E+03  0.7546771E-02  0.1083877E+00
         21   -1    0    0  504  501  0.00000000000E+00  0.00000000000E+00  0.12497779341E+04  0.12497779341E+04  0.00000000000E+00 0.  1.
         21   -1    0    0  501  502 -0.00000000000E+00 -0.00000000000E+00 -0.55159690043E+03  0.55159690043E+03  0.00000000000E+00 0.  1.
         25    1    1    2    0    0 -0.19101221899E+03 -0.21039461467E+03  0.11117149419E+04  0.11542472325E+04  0.12500000000E+03 0.  0.
         21    1    1    2  503  502 -0.31731332731E+02  0.11640397732E+03 -0.38526888258E+03  0.40371880722E+03  0.00000000000E+00 0.  1.
         21    1    1    2  504  503  0.22274355173E+03  0.93990637343E+02 -0.28265025595E+02  0.24340879486E+03  0.00000000000E+00 0. -1.
<mgrwt>
<rscale>  4 0.30274386E+03</rscale>
<asrwt>0</asrwt>
<pdfrwt beam="1">  1       21 0.19227353E+00 0.30274386E+03</pdfrwt>
<pdfrwt beam="2">  1       21 0.84861062E-01 0.30274386E+03</pdfrwt>
<totfact> 0.16109470E+02</totfact>
</mgrwt>
</event>
<event>
 5    0  0.1283376E+001  0.3051879E+03  0.7546771E-02  0.1082676E+00
         21   -1    0    0  504  501  0.00000000000E+00  0.00000000000E+00  0.14902987914E+04  0.14902987914E+04  0.00000000000E+00 0. -1.
         21   -1    0    0  501  502 -0.00000000000E+00 -0.00000000000E+00 -0.64391731659E+02  0.64391731659E+02  0.00000000000E+00 0.  1.
         25    1    1    2    0    0 -0.75670767344E+02  0.26793391981E+03  0.97257992149E+03  0.10193386847E+04  0.12500000000E+03 0.  0.
         21    1    1    2  503  502  0.54931052112E+02 -0.24066857784E+03  0.36525052837E+03  0.44084774392E+03  0.00000000000E+00 0.  1.
         21    1    1    2  504  503  0.20739715231E+02 -0.27265341969E+02  0.88076609903E+02  0.94504094475E+02  0.00000000000E+00 0.  1.
<mgrwt>
<rscale>  4 0.30518789E+03</rscale>
<asrwt>0</asrwt>
<pdfrwt beam="1">  1       21 0.22927671E+00 0.30518789E+03</pdfrwt>
<pdfrwt beam="2">  1       21 0.99064214E-02 0.30518789E+03</pdfrwt>
<totfact> 0.66912959E+03</totfact>
</mgrwt>
</event>
<event>
 5    0  0.1283376E+001  0.2445012E+03  0.7546771E-02  0.1116830E+00
         21   -1    0    0  502  501  0.00000000000E+00  0.00000000000E+00  0.13403588303E+04  0.13403588303E+04  0.00000000000E+00 0.  1.
         21   -1    0    0  503  502 -0.00000000000E+00 -0.00000000000E+00 -0.63848732049E+02  0.63848732049E+02  0.00000000000E+00 0.  1.
         25    1    1    2    0    0  0.16469465328E+03 -0.14434072745E+03  0.10190335775E+04  0.10497680727E+04  0.12500000000E+03 0.  0.
         21    1    1    2  503  504 -0.14263762244E+03  0.15183748313E+03  0.18605452472E+03  0.27931415787E+03  0.00000000000E+00 0.  1.
         21    1    1    2  504  501 -0.22057030845E+02 -0.74967556866E+01  0.71421996014E+02  0.75125331748E+02  0.00000000000E+00 0.  1.
<mgrwt>
<rscale>  4 0.24450124E+03</rscale>
<asrwt>0</asrwt>
<pdfrwt beam="1">  1       21 0.20620903E+00 0.24450124E+03</pdfrwt>
<pdfrwt beam="2">  1       21 0.98228829E-02 0.24450124E+03</pdfrwt>
<totfact> 0.98599765E+03</totfact>
</mgrwt>
</event>
<event>
 5    0  0.1283376E+001  0.2574270E+03  0.7546771E-02  0.1108699E+00
         21   -1    0    0  503  501  0.00000000000E+00  0.00000000000E+00  0.16714032494E+03  0.16714032494E+03  0.00000000000E+00 0. -1.
         21   -1    0    0  504  502 -0.00000000000E+00 -0.00000000000E+00 -0.74484318595E+03  0.74484318595E+03  0.00000000000E+00 0. -1.
         25    1    1    2    0    0  0.16357386869E+03 -0.12310454401E+03  0.32728905438E+02  0.24208948867E+03  0.12500000000E+03 0.  0.
         21    1    1    2  503  502  0.28239898880E+02 -0.58299221285E+00 -0.14497360578E+02  0.31749098135E+02  0.00000000000E+00 0.  1.
         21    1    1    2  504  501 -0.19181376757E+03  0.12368753622E+03 -0.59593440587E+03  0.63814492409E+03  0.00000000000E+00 0. -1.
<mgrwt>
<rscale>  4 0.25742696E+03</rscale>
<asrwt>0</asrwt>
<pdfrwt beam="1">  1       21 0.25713896E-01 0.25742696E+03</pdfrwt>
<pdfrwt beam="2">  1       21 0.11459126E+00 0.25742696E+03</pdfrwt>
<totfact> 0.81329419E+03</totfact>
</mgrwt>
</event>
<event>
 5    0  0.1283376E+001  0.2595882E+03  0.7546771E-02  0.1107391E+00
         21   -1    0    0  503  501  0.00000000000E+00  0.00000000000E+00  0.71187853451E+03  0.71187853451E+03  0.00000000000E+00 0.  1.
         21   -1    0    0  504  502 -0.00000000000E+00 -0.00000000000E+00 -0.14765596923E+03  0.14765596923E+03  0.00000000000E+00 0.  1.
         25    1    1    2    0    0 -0.40735643141E+02  0.25218445203E+03  0.26838999646E+03  0.39104293967E+03  0.12500000000E+03 0.  0.
         21    1    1    2  503  502 -0.87906377195E+02 -0.20447399466E+03  0.21386703547E+03  0.30866851881E+03  0.00000000000E+00 0.  1.
         21    1    1    2  504  501  0.12864202034E+03 -0.47710457373E+02  0.81965533359E+02  0.15982304526E+03  0.00000000000E+00 0.  1.
<mgrwt>
<rscale>  4 0.25958823E+03</rscale>
<asrwt>0</asrwt>
<pdfrwt beam="1">  1       21 0.10951977E+00 0.25958823E+03</pdfrwt>
<pdfrwt beam="2">  1       21 0.22716303E-01 0.25958823E+03</pdfrwt>
<totfact> 0.11508387E+04</totfact>
</mgrwt>
</event>
<event>
 5    0  0.1283376E+001  0.2735129E+03  0.7546771E-02  0.1099286E+00
         21   -1    0    0  504  501  0.00000000000E+00  0.00000000000E+00  0.13407224113E+04  0.13407224113E+04  0.00000000000E+00 0.  1.
         21   -1    0    0  503  502 -0.00000000000E+00 -0.00000000000E+00 -0.86567281820E+02  0.86567281820E+02  0.00000000000E+00 0.  1.
         25    1    1    2    0    0 -0.13279909629E+03  0.18552776507E+03  0.67372584545E+03  0.72221026469E+03  0.12500000000E+03 0.  0.
         21    1    1    2  503  501  0.15573976926E+03 -0.20804164167E+03  0.60896437122E+03  0.66209803338E+03  0.00000000000E+00 0.  1.
         21    1    1    2  504  502 -0.22940672973E+02  0.22513876605E+02 -0.28535087213E+02  0.42981395027E+02  0.00000000000E+00 0.  1.
<mgrwt>
<rscale>  4 0.27351290E+03</rscale>
<asrwt>0</asrwt>
<pdfrwt beam="1">  1       21 0.20626497E+00 0.27351290E+03</pdfrwt>
<pdfrwt beam="2">  1       21 0.13318044E-01 0.27351290E+03</pdfrwt>
<totfact> 0.55929724E+03</totfact>
</mgrwt>
</event>
<event>
 5    0  0.1283376E+001  0.2937451E+03  0.7546771E-02  0.1088410E+00
         21   -1    0    0  504  501  0.00000000000E+00  0.00000000000E+00  0.19197799816E+03  0.19197799816E+03  0.00000000000E+00 0.  1.
         21   -1    0    0  501  502 -0.00000000000E+00 -0.00000000000E+00 -0.54557134683E+03  0.54557134683E+03  0.00000000000E+00 0.  1.
         25    1    1    2    0    0  0.90099178963E+02  0.25054547900E+03 -0.54436392566E+02  0.29913077396E+03  0.12500000000E+03 0.  0.
         21    1    1    2  503  502 -0.13802886422E+03 -0.23008103678E+03 -0.25382542806E+03  0.36934617742E+03  0.00000000000E+00 0.  1.
         21    1    1    2  504  503  0.47929685258E+02 -0.20464442221E+02 -0.45331528042E+02  0.69072393610E+02  0.00000000000E+00 0. -1.
<mgrwt>
<rscale>  4 0.29374515E+03</rscale>
<asrwt>0</asrwt>
<pdfrwt beam="1">  1       21 0.29535077E-01 0.29374515E+03</pdfrwt>
<pdfrwt beam="2">  1       21 0.83934054E-01 0.29374515E+03</pdfrwt>
<totfact> 0.12814534E+04</totfact>
</mgrwt>
</event>
<event>
 5    0  0.1283376E+001  0.3469337E+03  0.7546771E-02  0.1063881E+00
         21   -1    0    0  504  501  0.00000000000E+00  0.00000000000E+00  0.17608644314E+04  0.17608644314E+04  0.00000000000E+00 0.  1.
         21   -1    0    0  501  502 -0.00000000000E+00 -0.00000000000E+00 -0.12331440045E+03  0.12331440045E+03  0.00000000000E+00 0.  1.
         25    1    1    2    0    0 -0.24323395301E+03  0.21063990416E+03  0.12808135966E+04  0.13265143777E+04  0.12500000000E+03 0.  0.
         21    1    1    2  503  502  0.10467862911E+02  0.22039855617E+02 -0.37105427936E+02  0.44408829886E+02  0.00000000000E+00 0.  1.
         21    1    1    2  504  503  0.23276609010E+03 -0.23267975978E+03  0.39384186229E+03  0.51325562423E+03  0.00000000000E+00 0.  1.
<mgrwt>
<rscale>  4 0.34693369E+03</rscale>
<asrwt>0</asrwt>
<pdfrwt beam="1">  1       21 0.27090220E+00 0.34693369E+03</pdfrwt>
<pdfrwt beam="2">  1       21 0.18971447E-01 0.34693369E+03</pdfrwt>
<totfact> 0.11093771E+03</totfact>
</mgrwt>
</event>
<event>
 5    0  0.1283376E+001  0.3840910E+03  0.7546771E-02  0.1049432E+00
         21   -1    0    0  503  501  0.00000000000E+00  0.00000000000E+00  0.96278434919E+03  0.96278434919E+03  0.00000000000E+00 0. -1.
         21   -1    0    0  504  502 -0.00000000000E+00 -0.00000000000E+00 -0.92784417710E+03  0.92784417710E+03  0.00000000000E+00 0. -1.
         25    1    1    2    0    0  0.20474267804E+03 -0.22253389521E+03 -0.22856675544E+03  0.39913489001E+03  0.12500000000E+03 0.  0.
         21    1    1    2  503  502 -0.24985897255E+03  0.27395782024E+03  0.83620476128E+03  0.91472443732E+03  0.00000000000E+00 0. -1.
         21    1    1    2  504  501  0.45116294505E+02 -0.51423925037E+02 -0.57269783375E+03  0.57676919897E+03  0.00000000000E+00 0. -1.
<mgrwt>
<rscale>  4 0.38409100E+03</rscale>
<asrwt>0</asrwt>
<pdfrwt beam="1">  1       21 0.14812067E+00 0.38409100E+03</pdfrwt>
<pdfrwt beam="2">  1       21 0.14274526E+00 0.38409100E+03</pdfrwt>
<totfact> 0.87393824E+01</totfact>
</mgrwt>
</event>
<event>
 5    0  0.1283376E+001  0.2748331E+03  0.7546771E-02  0.1098545E+00
         21   -1    0    0  503  501  0.00000000000E+00  0.00000000000E+00  0.28857691597E+03  0.28857691597E+03  0.00000000000E+00 0.  1.
         21   -1    0    0  504  502 -0.00000000000E+00 -0.00000000000E+00 -0.27746672707E+03  0.27746672707E+03  0.00000000000E+00 0.  1.
         25    1    1    2    0    0 -0.14660707309E+03 -0.19478347005E+03 -0.45662494546E+02  0.27774862284E+03  0.12500000000E+03 0.  0.
         21    1    1    2  503  502  0.20467596343E+02 -0.16190626822E+02 -0.17606469634E+02  0.31480893728E+02  0.00000000000E+00 0. -1.
         21    1    1    2  504  501  0.12613947675E+03  0.21097409687E+03  0.74379153075E+02  0.25681412647E+03  0.00000000000E+00 0.  1.
<mgrwt>
<rscale>  4 0.27483310E+03</rscale>
<asrwt>0</asrwt>
<pdfrwt beam="1">  1       21 0.44396449E-01 0.27483310E+03</pdfrwt>
<pdfrwt beam="2">  1       21 0.42687189E-01 0.27483310E+03</pdfrwt>
<totfact> 0.24691530E+04</totfact>
</mgrwt>
</event>
<event>
 5    0  0.1283376E+001  0.2915915E+03  0.7546771E-02  0.1089521E+00
         21   -1    0    0  503  501  0.00000000000E+00  0.00000000000E+00  0.11843961480E+03  0.11843961480E+03  0.00000000000E+00 0.  1.
         21   -1    0    0  504  502 -0.00000000000E+00 -0.00000000000E+00 -0.12467877534E+04  0.12467877534E+04  0.00000000000E+00 0.  1.
         25    1    1    2    0    0  0.11683587657E+03  0.20402561889E+03 -0.33127311227E+03  0.42502229369E+03  0.12500000000E+03 0.  0.
         21    1    1    2  503  502  0.28523861768E+01 -0.32138060446E+03 -0.43155760132E+03  0.53808511621E+03  0.00000000000E+00 0.  1.
         21    1    1    2  504  501 -0.11968826275E+03  0.11735498557E+03 -0.36551742497E+03  0.40211995827E+03  0.00000000000E+00 0.  1.
<mgrwt>
<rscale>  4 0.29159149E+03</rscale>
<asrwt>0</asrwt>
<pdfrwt beam="1">  1       21 0.18221480E-01 0.29159149E+03</pdfrwt>
<pdfrwt beam="2">  1       21 0.19181350E+00 0.29159149E+03</pdfrwt>
<totfact> 0.38587251E+03</totfact>
</mgrwt>
</event>
<event>
 5    0  0.1283376E+001  0.3165578E+03  0.7546771E-02  0.1077245E+00
         21   -1    0    0  503  501  0.00000000000E+00  0.00000000000E+00  0.11952041464E+03  0.11952041464E+03  0.00000000000E+00 0. -1.
         21   -1    0    0  504  502 -0.00000000000E+00 -0.00000000000E+00 -0.24382129699E+04  0.24382129699E+04  0.00000000000E+00 0. -1.
         25    1    1    2    0    0  0.28323443706E+03 -0.45528169697E+02 -0.12918886771E+03  0.33853998894E+03  0.12500000000E+03 0.  0.
         21    1    1    2  503  502  0.34707774235E+02 -0.13159079665E+02 -0.29079301812E+03  0.29315246947E+03  0.00000000000E+00 0. -1.
         21    1    1    2  504  501 -0.31794221129E+03  0.58687249363E+02 -0.18987106695E+04  0.19260409262E+04  0.00000000000E+00 0. -1.
<mgrwt>
<rscale>  4 0.31655777E+03</rscale>
<asrwt>0</asrwt>
<pdfrwt beam="1">  1       21 0.18387758E-01 0.31655777E+03</pdfrwt>
<pdfrwt beam="2">  1       21 0.37510965E+00 0.31655777E+03</pdfrwt>
<totfact> 0.28599052E+02</totfact>
</mgrwt>
</event>
<event>
 5    0  0.1283376E+001  0.3552810E+03  0.7546771E-02  0.1060468E+00
         21   -1    0    0  504  501  0.00000000000E+00  0.00000000000E+00  0.13283011255E+04  0.13283011255E+04  0.00000000000E+00 0.  1.
         21   -1    0    0  501  502 -0.00000000000E+00 -0.00000000000E+00 -0.21451200031E+03  0.21451200031E+03  0.00000000000E+00 0.  1.
         25    1    1    2    0    0  0.25998892578E+03  0.25349604857E+03  0.67753249887E+03  0.77880021520E+03  0.12500000000E+03 0.  0.
         21    1    1    2  503  502  0.72709798989E+02 -0.21003427037E+03  0.11280051666E+02  0.22254965551E+03  0.00000000000E+00 0.  1.
         21    1    1    2  504  503 -0.33269872477E+03 -0.43461778199E+02  0.42497657464E+03  0.54146325509E+03  0.00000000000E+00 0.  1.
<mgrwt>
<rscale>  4 0.35528105E+03</rscale>
<asrwt>0</asrwt>
<pdfrwt beam="1">  1       21 0.20435401E+00 0.35528105E+03</pdfrwt>
<pdfrwt beam="2">  1       21 0.33001847E-01 0.35528105E+03</pdfrwt>
<totfact> 0.97404800E+02</totfact>
</mgrwt>
</event>
<event>
 5    0  0.1283376E+001  0.2495357E+03  0.7546771E-02  0.1113599E+00
         21   -1    0    0  503  501  0.00000000000E+00  0.00000000000E+00  0.78161637675E+03  0.78161637675E+03  0.00000000000E+00 0. -1.
         21   -1    0    0  504  502 -0.00000000000E+00 -0.00000000000E+00 -0.11765805187E+03  0.11765805187E+03  0.00000000000E+00 0. -1.
         25    1    1    2    0    0 -0.12204611016E+03  0.17298797165E+03  0.56752215252E+03  0.61848725528E+03  0.12500000000E+03 0.  0.
         21    1    1    2  503  502 -0.25104208621E+02  0.20473531489E+01 -0.11775548913E+02  0.27804253229E+02  0.00000000000E+00 0. -1.
         21    1    1    2  504  501  0.14715031878E+03 -0.17503532480E+03  0.10821172128E+03  0.25298292011E+03  0.00000000000E+00 0. -1.
<mgrwt>
<rscale>  4 0.24953568E+03</rscale>
<asrwt>0</asrwt>
<pdfrwt beam="1">  1       21 0.12024867E+00 0.24953568E+03</pdfrwt>
<pdfrwt beam="2">  1       21 0.18101239E-01 0.24953568E+03</pdfrwt>
<totfact> 0.14095317E+04</totfact>
</mgrwt>
</event>
<event>
 5    0  0.1283376E+001  0.2229664E+03  0.7546771E-02  0.1131691E+00
         21   -1    0    0  503  501  0.00000000000E+00  0.00000000000E+00  0.15937807344E+04  0.15937807344E+04  0.00000000000E+00 0.  1.
         21   -1    0    0  504  502 -0.00000000000E+00 -0.00000000000E+00 -0.24142182451E+03  0.24142182451E+03  0.00000000000E+00 0. -1.
         25    1    1    2    0    0  0.20471787113E+03 -0.73114386136E+02  0.12141127115E+04  0.12397377934E+04  0.12500000000E+03 0.  0.
         21    1    1    2  503  502 -0.12449999430E+03  0.80195173704E+02  0.34399457998E+03  0.37451807102E+03  0.00000000000E+00 0. -1.
         21    1    1    2  504  501 -0.80217876834E+02 -0.70807875681E+01 -0.20574838154E+03  0.22094669452E+03  0.00000000000E+00 0. -1.
<mgrwt>
<rscale>  4 0.22296639E+03</rscale>
<asrwt>0</asrwt>
<pdfrwt beam="1">  1       21 0.24519703E+00 0.22296639E+03</pdfrwt>
<pdfrwt beam="2">  1       21 0.37141820E-01 0.22296639E+03</pdfrwt>
<totfact> 0.47789270E+02</totfact>
</mgrwt>
</event>
<event>
 5    0  0.1283376E+001  0.2936663E+03  0.7546771E-02  0.1088450E+00
         21   -1    0    0  503  501  0.00000000000E+00  0.00000000000E+00  0.28832539581E+03  0.28832539581E+03  0.00000000000E+00 0.  1.
         21   -1    0    0  504  502 -0.00000000000E+00 -0.00000000000E+00 -0.50302061657E+03  0.50302061657E+03  0.00000000000E+00 0.  1.
         25    1    1    2    0    0 -0.27794136364E+03  0.25158560909E+02 -0.79304655460E+02  0.31590913755E+03  0.12500000000E+03 0.  0.
         21    1    1    2  503  502  0.25670794173E+03 -0.35423488341E+02  0.70213848872E+02  0.26848421824E+03  0.00000000000E+00 0.  1.
         21    1    1    2  504  501  0.21233421916E+02  0.10264927432E+02 -0.20560441417E+03  0.20695265658E+03  0.00000000000E+00 0.  1.
<mgrwt>
<rscale>  4 0.29366631E+03</rscale>
<asrwt>0</asrwt>
<pdfrwt beam="1">  1       21 0.44357754E-01 0.29366631E+03</pdfrwt>
<pdfrwt beam="2">  1       21 0.77387786E-01 0.29366631E+03</pdfrwt>
<totfact> 0.68004907E+03</totfact>
</mgrwt>
</event>
<event>
 5    0  0.1283376E+001  0.2298924E+03  0.7546771E-02  0.1126715E+00
         21   -1    0    0  504  501  0.00000000000E+00  0.00000000000E+00  0.98933403535E+03  0.98933403535E+03  0.00000000000E+00 0. -1.
         21   -1    0    0  501  502 -0.00000000000E+00 -0.00000000000E+00 -0.63159953539E+02  0.63159953539E+02  0.00000000000E+00 0.  1.
         25    1    1    2    0    0  0.10644959250E+03 -0.17927375512E+03  0.38034495110E+03  0.45139547721E+03  0.12500000000E+03 0.  0.
         21    1    1    2  503  502 -0.27206168234E+01  0.24570924635E+02  0.37986025668E+00  0.24724004270E+02  0.00000000000E+00 0.  1.
         21    1    1    2  504  503 -0.10372897567E+03  0.15470283048E+03  0.54544927045E+03  0.57637450741E+03  0.00000000000E+00 0. -1.
<mgrwt>
<rscale>  4 0.22989245E+03</rscale>
<asrwt>0</asrwt>
<pdfrwt beam="1">  1       21 0.15220522E+00 0.22989245E+03</pdfrwt>
<pdfrwt beam="2">  1       21 0.97169167E-02 0.22989245E+03</pdfrwt>
<totfact> 0.23988294E+04</totfact>
</mgrwt>
</event>
<event>
 5    0  0.1283376E+001  0.2630803E+03  0.7546771E-02  0.1105307E+00
         21   -1    0    0  503  501  0.00000000000E+00  0.00000000000E+00  0.22400661861E+03  0.22400661861E+03  0.00000000000E+00 0.  1.
         21   -1    0    0  504  502 -0.00000000000E+00 -0.00000000000E+00 -0.50542302668E+03  0.50542302668E+03  0.00000000000E+00 0.  1.
         25    1    1    2    0    0  0.73297984541E+02  0.21157499379E+03  0.57715305516E+02  0.26285476793E+03  0.12500000000E+03 0.  0.
         21    1    1    2  503  502 -0.32850769484E+02 -0.25584641447E+03 -0.25051241855E+03  0.35957340377E+03  0.00000000000E+00 0.  1.
         21    1    1    2  504  501 -0.40447215057E+02  0.44271420685E+02 -0.88619295041E+02  0.10700147358E+03  0.00000000000E+00 0. -1.
<mgrwt>
<rscale>  4 0.26308025E+03</rscale>
<asrwt>0</asrwt>
<pdfrwt beam="1">  1       21 0.34462557E-01 0.26308025E+03</pdfrwt>
<pdfrwt beam="2">  1       21 0.77757389E-01 0.26308025E+03</pdfrwt>
<totfact> 0.11410397E+04</totfact>
</mgrwt>
</event>
<event>
 5    0  0.1283376E+001  0.3014080E+03  0.7546771E-02  0.1084539E+00
         21   -1    0    0  504  501  0.00000000000E+00  0.00000000000E+00  0.17672839825E+04  0.17672839825E+04  0.00000000000E+00 0.  1.
         21   -1    0    0  503  502 -0.00000000000E+00 -0.00000000000E+00 -0.83777602659E+02  0.83777602659E+02  0.00000000000E+00 0. -1.
         25    1    1    2    0    0  0.26330049843E+03 -0.23908696907E+02  0.12803390379E+04  0.13133133023E+04  0.12500000000E+03 0.  0.
         21    1    1    2  503  501 -0.30695386949E+03  0.39522980579E+02  0.35090590258E+03  0.46788641405E+03  0.00000000000E+00 0. -1.
         21    1    1    2  504  502  0.43653371061E+02 -0.15614283673E+02  0.52261439445E+02  0.69861868802E+02  0.00000000000E+00 0.  1.
<mgrwt>
<rscale>  4 0.30140805E+03</rscale>
<asrwt>0</asrwt>
<pdfrwt beam="1">  1       21 0.27188982E+00 0.30140805E+03</pdfrwt>
<pdfrwt beam="2">  1       21 0.12888863E-01 0.30140805E+03</pdfrwt>
<totfact> 0.23109009E+03</totfact>
</mgrwt>
</event>
<event>
 5    0  0.1283376E+001  0.2458296E+03  0.7546771E-02  0.1115969E+00
         21   -1    0    0  503  501  0.00000000000E+00  0.00000000000E+00  0.10555262992E+03  0.10555262992E+03  0.00000000000E+00 0.  1.
         21   -1    0    0  504  502 -0.00000000000E+00 -0.00000000000E+00 -0.22490101423E+04  0.22490101423E+04  0.00000000000E+00 0.  1.
         25    1    1    2    0    0 -0.21172780895E+03  0.50657737755E+02 -0.71787660935E+02  0.26110024845E+03  0.12500000000E+03 0.  0.
         21    1    1    2  503  502  0.82034396095E+02  0.29079417954E+02 -0.23681890792E+03  0.25230626199E+03  0.00000000000E+00 0.  1.
         21    1    1    2  504  501  0.12969341286E+03 -0.79737155709E+02 -0.18348509435E+04  0.18411562618E+04  0.00000000000E+00 0.  1.
<mgrwt>
<rscale>  4 0.24582962E+03</rscale>
<asrwt>0</asrwt>
<pdfrwt beam="1">  1       21 0.16238866E-01 0.24582962E+03</pdfrwt>
<pdfrwt beam="2">  1       21 0.34600156E+00 0.24582962E+03</pdfrwt>
<totfact> 0.58330573E+02</totfact>
</mgrwt>
</event>
<event>
 5    0  0.1283376E+001  0.4225191E+03  0.7546771E-02  0.1036250E+00
         21   -1    0    0  503  501  0.00000000000E+00  0.00000000000E+00  0.19731185469E+03  0.19731185469E+03  0.00000000000E+00 0.  1.
         21   -1    0    0  504  502 -0.00000000000E+00 -0.00000000000E+00 -0.15734275666E+04  0.15734275666E+04  0.00000000000E+00 0.  1.
         25    1    1    2    0    0 -0.21466527534E+03  0.14452357532E+03 -0.11831628239E+03  0.31079251429E+03  0.12500000000E+03 0.  0.
         21    1    1    2  503  502 -0.19608352622E+03  0.11465592702E+03 -0.23044628507E+03  0.32357413549E+03  0.00000000000E+00 0.  1.
         21    1    1    2  504  501  0.41074880156E+03 -0.25917950234E+03 -0.10273531445E+04  0.11363727715E+04  0.00000000000E+00 0.  1.
<mgrwt>
<rscale>  4 0.42251907E+03</rscale>
<asrwt>0</asrwt>
<pdfrwt beam="1">  1       21 0.30355670E-01 0.42251907E+03</pdfrwt>
<pdfrwt beam="2">  1       21 0.24206578E+00 0.42251907E+03</pdfrwt>
<totfact> 0.63888037E+02</totfact>
</mgrwt>
</event>
<event>
 5    0  0.1283376E+001  0.2485101E+03  0.7546771E-02  0.1114250E+00
         21   -1    0    0  503  501  0.00000000000E+00  0.00000000000E+00  0.56739215236E+03  0.56739215236E+03  0.00000000000E+00 0. -1.
         21   -1    0    0  504  502 -0.00000000000E+00 -0.00000000000E+00 -0.19203875692E+03  0.19203875692E+03  0.00000000000E+00 0. -1.
         25    1    1    2    0    0  0.56513871521E+02 -0.21349080576E+03  0.43603374994E+03  0.50450230218E+03  0.12500000000E+03 0.  0.
         21    1    1    2  503  502  0.32379470393E+02  0.37740917725E+02 -0.21204182675E+02  0.54059451871E+02  0.00000000000E+00 0.  1.
         21    1    1    2  504  501 -0.88893341914E+02  0.17574988804E+03 -0.39476171816E+02  0.20086915523E+03  0.00000000000E+00 0. -1.
<mgrwt>
<rscale>  4 0.24851009E+03</rscale>
<asrwt>0</asrwt>
<pdfrwt beam="1">  1       21 0.87291100E-01 0.24851009E+03</pdfrwt>
<pdfrwt beam="2">  1       21 0.29544424E-01 0.24851009E+03</pdfrwt>
<totfact> 0.11959576E+04</totfact>
</mgrwt>
</event>
<event>
 5    0  0.1283376E+001  0.3304278E+03  0.7546771E-02  0.1070948E+00
         21   -1    0    0  503  501  0.00000000000E+00  0.00000000000E+00  0.29056629921E+03  0.29056629921E+03  0.00000000000E+00 0.  1.
         21   -1    0    0  504  502 -0.00000000000E+00 -0.00000000000E+00 -0.13629979893E+04  0.13629979893E+04  0.00000000000E+00 0.  1.
         25    1    1    2    0    0 -0.23182406059E+03  0.20284658684E+03  0.16576347317E+03  0.37147228954E+03  0.12500000000E+03 0.  0.
         21    1    1    2  503  502  0.33035308887E+02  0.30628359893E+01 -0.28303509205E+03  0.28497293895E+03  0.00000000000E+00 0.  1.
         21    1    1    2  504  501  0.19878875170E+03 -0.20590942283E+03 -0.95516007123E+03  0.99711906004E+03  0.00000000000E+00 0.  1.
<mgrwt>
<rscale>  4 0.33042779E+03</rscale>
<asrwt>0</asrwt>
<pdfrwt beam="1">  1       21 0.44702508E-01 0.33042779E+03</pdfrwt>
<pdfrwt beam="2">  1       21 0.20969200E+00 0.33042779E+03</pdfrwt>
<totfact> 0.49261073E+02</totfact>
</mgrwt>
</event>
<event>
 5    0  0.1283376E+001  0.3012644E+03  0.7546771E-02  0.1084610E+00
         21   -1    0    0  503  501  0.00000000000E+00  0.00000000000E+00  0.35702066381E+03  0.35702066381E+03  0.00000000000E+00 0.  1.
         21   -1    0    0  504  502 -0.00000000000E+00 -0.00000000000E+00 -0.33780329627E+03  0.33780329627E+03  0.00000000000E+00 0.  1.
         25    1    1    2    0    0 -0.12618079488E+03  0.19580530872E+03  0.24996347356E+02  0.26553931781E+03  0.12500000000E+03 0.  0.
         21    1    1    2  503  502  0.18057714045E+03 -0.26594188727E+03  0.48725773595E+02  0.32512673232E+03  0.00000000000E+00 0.  1.
         21    1    1    2  504  501 -0.54396345563E+02  0.70136578545E+02 -0.54504753414E+02  0.10415790995E+03  0.00000000000E+00 0.  1.
<mgrwt>
<rscale>  4 0.30126443E+03</rscale>
<asrwt>0</asrwt>
<pdfrwt beam="1">  1       21 0.54926256E-01 0.30126443E+03</pdfrwt>
<pdfrwt beam="2">  1       21 0.51969738E-01 0.30126443E+03</pdfrwt>
<totfact> 0.10348561E+04</totfact>
</mgrwt>
</event>
<event>
 5    0  0.1283376E+001  0.2343128E+03  0.7546771E-02  0.1123640E+00
         21   -1    0    0  504  501  0.00000000000E+00  0.00000000000E+00  0.41433591498E+03  0.41433591498E+03  0.00000000000E+00 0. -1.
         21   -1    0    0  501  502 -0.00000000000E+00 -0.00000000000E+00 -0.16139834516E+03  0.16139834516E+03  0.00000000000E+00 0.  1.
         25    1    1    2    0    0 -0.18593075312E+03 -0.94505600619E+02  0.23565476494E+03  0.33861441455E+03  0.12500000000E+03 0.  0.
         21    1    1    2  503  502  0.15544415622E+02  0.23810457336E+02 -0.35274568796E+02  0.45308519500E+02  0.00000000000E+00 0. -1.
         21    1    1    2  504  503  0.17038633750E+03  0.70695143284E+02  0.52557373675E+02  0.19181132609E+03  0.00000000000E+00 0.  1.
<mgrwt>
<rscale>  4 0.23431284E+03</rscale>
<asrwt>0</asrwt>
<pdfrwt beam="1">  1       21 0.63743987E-01 0.23431284E+03</pdfrwt>
<pdfrwt beam="2">  1       21 0.24830515E-01 0.23431284E+03</pdfrwt>
<totfact> 0.34163239E+04</totfact>
</mgrwt>
</event>
<event>
 5    0  0.1283376E+001  0.2729282E+03  0.7546771E-02  0.1099615E+00
         21   -1    0    0  504  501  0.00000000000E+00  0.00000000000E+00  0.99468653656E+03  0.99468653656E+03  0.00000000000E+00 0. -1.
         21   -1    0    0  501  502 -0.00000000000E+00 -0.00000000000E+00 -0.42322108857E+03  0.42322108857E+03  0.00000000000E+00 0.  1.
         25    1    1    2    0    0  0.32364734684E+03 -0.13608106497E+03  0.70287891307E+03  0.79556861916E+03  0.12500000000E+03 0.  0.
         21    1    1    2  503  502 -0.12490652557E+03  0.65884148921E+01  0.18718822478E+03  0.22513213639E+03  0.00000000000E+00 0. -1.
         21    1    1    2  504  503 -0.19874082126E+03  0.12949265008E+03 -0.31860168986E+03  0.39720686958E+03  0.00000000000E+00 0.  1.
<mgrwt>
<rscale>  4 0.27292817E+03</rscale>
<asrwt>0</asrwt>
<pdfrwt beam="1">  1       21 0.15302870E+00 0.27292817E+03</pdfrwt>
<pdfrwt beam="2">  1       21 0.65110937E-01 0.27292817E+03</pdfrwt>
<totfact> 0.57037846E+02</totfact>
</mgrwt>
</event>
<event>
 5    0  0.1283376E+001  0.2384380E+03  0.7546771E-02  0.1120838E+00
         21   -1    0    0  504  501  0.00000000000E+00  0.00000000000E+00  0.36654284260E+03  0.36654284260E+03  0.00000000000E+00 0.  1.
         21   -1    0    0  501  502 -0.00000000000E+00 -0.00000000000E+00 -0.45418674549E+03  0.45418674549E+03  0.00000000000E+00 0.  1.
         25    1    1    2    0    0 -0.18340757081E+03 -0.14478299799E+03  0.17566287238E+03  0.31793536807E+03  0.12500000000E+03 0.  0.
         21    1    1    2  503  502  0.52690484151E+02  0.28397941368E+02 -0.31473297782E+03  0.32037412118E+03  0.00000000000E+00 0.  1.
         21    1    1    2  504  503  0.13071708666E+03  0.11638505662E+03  0.51426202551E+02  0.18242009884E+03  0.00000000000E+00 0.  1.
<mgrwt>
<rscale>  4 0.23843798E+03</rscale>
<asrwt>0</asrwt>
<pdfrwt beam="1">  1       21 0.56391207E-01 0.23843798E+03</pdfrwt>
<pdfrwt beam="2">  1       21 0.69874884E-01 0.23843798E+03</pdfrwt>
<totfact> 0.53260836E+03</totfact>
</mgrwt>
</event>
<event>
 5    0  0.1283376E+001  0.2931862E+03  0.7546771E-02  0.1088697E+00
         21   -1    0    0  504  501  0.00000000000E+00  0.00000000000E+00  0.16703885972E+03  0.16703885972E+03  0.00000000000E+00 0.  1.
         21   -1    0    0  503  502 -0.00000000000E+00 -0.00000000000E+00 -0.26978141113E+04  0.26978141113E+04  0.00000000000E+00 0.  1.
         25    1    1    2    0    0  0.22838345556E+03 -0.12773772556E+03 -0.56813363047E+00  0.29000215875E+03  0.12500000000E+03 0.  0.
         21    1    1    2  503  501 -0.28132844809E+03  0.88528814865E+02 -0.98418348943E+03  0.10274240544E+04  0.00000000000E+00 0.  1.
         21    1    1    2  504  502  0.52944992528E+02  0.39208910691E+02 -0.15460236285E+04  0.15474267578E+04  0.00000000000E+00 0.  1.
<mgrwt>
<rscale>  4 0.29318615E+03</rscale>
<asrwt>0</asrwt>
<pdfrwt beam="1">  1       21 0.25698286E-01 0.29318615E+03</pdfrwt>
<pdfrwt beam="2">  1       21 0.41504832E+00 0.29318615E+03</pdfrwt>
<totfact> 0.86854254E+01</totfact>
</mgrwt>
</event>
<event>
 5    0  0.1283376E+001  0.2987496E+03  0.7546771E-02  0.1085867E+00
         21   -1    0    0  503  501  0.00000000000E+00  0.00000000000E+00  0.38766509209E+03  0.38766509209E+03  0.00000000000E+00 0. -1.
         21   -1    0    0  504  502 -0.00000000000E+00 -0.00000000000E+00 -0.30995794993E+03  0.30995794993E+03  0.00000000000E+00 0. -1.
         25    1    1    2    0    0  0.24422307310E+03 -0.16925487239E+03  0.15843609976E+02  0.32275089658E+03  0.12500000000E+03 0.  0.
         21    1    1    2  503  502 -0.19069088658E+03  0.17492316386E+03  0.12873783844E+03  0.28902345671E+03  0.00000000000E+00 0. -1.
         21    1    1    2  504  501 -0.53532186516E+02 -0.56682914666E+01 -0.66874306257E+02  0.85848688742E+02  0.00000000000E+00 0. -1.
<mgrwt>
<rscale>  4 0.29874958E+03</rscale>
<asrwt>0</asrwt>
<pdfrwt beam="1">  1       21 0.59640783E-01 0.29874958E+03</pdfrwt>
<pdfrwt beam="2">  1       21 0.47685839E-01 0.29874958E+03</pdfrwt>
<totfact> 0.10400452E+04</totfact>
</mgrwt>
</event>
<event>
 5    0  0.1283376E+001  0.1842031E+03  0.7546771E-02  0.1163796E+00
         21   -1    0    0  504  501  0.00000000000E+00  0.00000000000E+00  0.28587153288E+03  0.28587153288E+03  0.00000000000E+00 0. -1.
         21   -1    0    0  501  502 -0.00000000000E+00 -0.00000000000E+00 -0.58140596771E+03  0.58140596771E+03  0.00000000000E+00 0.  1.
         25    1    1    2    0    0  0.71707402589E+02 -0.22784610134E+03  0.87824695751E+02  0.28353831252E+03  0.12500000000E+03 0.  0.
         21    1    1    2  503  502 -0.32970863829E+01  0.13035937301E+03 -0.43485621185E+03  0.45398718253E+03  0.00000000000E+00 0.  1.
         21    1    1    2  504  503 -0.68410316206E+02  0.97486728328E+02  0.51497081277E+02  0.12975200555E+03  0.00000000000E+00 0. -1.
<mgrwt>
<rscale>  4 0.18420311E+03</rscale>
<asrwt>0</asrwt>
<pdfrwt beam="1">  1       21 0.43980236E-01 0.18420311E+03</pdfrwt>
<pdfrwt beam="2">  1       21 0.89447071E-01 0.18420311E+03</pdfrwt>
<totfact> 0.53280266E+03</totfact>
</mgrwt>
</event>
<event>
 5    0  0.1283376E+001  0.2872623E+03  0.7546771E-02  0.1091787E+00
         21   -1    0    0  504  501  0.00000000000E+00  0.00000000000E+00  0.14111251122E+04  0.14111251122E+04  0.00000000000E+00 0.  1.
         21   -1    0    0  501  502 -0.00000000000E+00 -0.00000000000E+00 -0.15234102300E+03  0.15234102300E+03  0.00000000000E+00 0.  1.
         25    1    1    2    0    0  0.27229730849E+02  0.25436119734E+03  0.11971831168E+04  0.12305744561E+04  0.12500000000E+03 0.  0.
         21    1    1    2  503  502 -0.37835027077E+02 -0.27263542249E+03  0.96854325931E+02  0.29179157514E+03  0.00000000000E+00 0.  1.
         21    1    1    2  504  503  0.10605296228E+02  0.18274225152E+02 -0.35253353498E+02  0.41100103964E+02  0.00000000000E+00 0.  1.
<mgrwt>
<rscale>  4 0.28726231E+03</rscale>
<asrwt>0</asrwt>
<pdfrwt beam="1">  1       21 0.21709616E+00 0.28726231E+03</pdfrwt>
<pdfrwt beam="2">  1       21 0.23437081E-01 0.28726231E+03</pdfrwt>
<totfact> 0.16484359E+03</totfact>
</mgrwt>
</event>
<event>
 5    0  0.1283376E+001  0.2758870E+03  0.7546771E-02  0.1097957E+00
         21   -1    0    0  503  501  0.00000000000E+00  0.00000000000E+00  0.72219164314E+03  0.72219164314E+03  0.00000000000E+00 0. -1.
         21   -1    0    0  504  502 -0.00000000000E+00 -0.00000000000E+00 -0.12005080929E+03  0.12005080929E+03  0.00000000000E+00 0. -1.
         25    1    1    2    0    0  0.12458895919E+03  0.21205242688E+03  0.49232206356E+03  0.56435330669E+03  0.12500000000E+03 0.  0.
         21    1    1    2  503  502 -0.10441301040E+02 -0.46708942592E+02 -0.20895810923E+01  0.47907331742E+02  0.00000000000E+00 0. -1.
         21    1    1    2  504  501 -0.11414765815E+03 -0.16534348429E+03  0.11190835138E+03  0.22998181400E+03  0.00000000000E+00 0. -1.
<mgrwt>
<rscale>  4 0.27588701E+03</rscale>
<asrwt>0</asrwt>
<pdfrwt beam="1">  1       21 0.11110640E+00 0.27588701E+03</pdfrwt>
<pdfrwt beam="2">  1       21 0.18469356E-01 0.27588701E+03</pdfrwt>
<totfact> 0.16283368E+04</totfact>
</mgrwt>
</event>
<event>
 5    0  0.1283376E+001  0.2518243E+03  0.7546771E-02  0.1112157E+00
         21   -1    0    0  504  501  0.00000000000E+00  0.00000000000E+00  0.20699984524E+03  0.20699984524E+03  0.00000000000E+00 0. -1.
         21   -1    0    0  501  502 -0.00000000000E+00 -0.00000000000E+00 -0.81078402225E+03  0.81078402225E+03  0.00000000000E+00 0. -1.
         25    1    1    2    0    0  0.20810904368E+03  0.18181085310E+03 -0.43183766777E+01  0.30332854917E+03  0.12500000000E+03 0.  0.
         21    1    1    2  503  502 -0.80693102046E+02 -0.19822158635E+03 -0.52265499465E+03  0.56477554608E+03  0.00000000000E+00 0. -1.
         21    1    1    2  504  503 -0.12741594163E+03  0.16410733253E+02 -0.76810805680E+02  0.14967977224E+03  0.00000000000E+00 0. -1.
<mgrwt>
<rscale>  4 0.25182432E+03</rscale>
<asrwt>0</asrwt>
<pdfrwt beam="1">  1       21 0.31846130E-01 0.25182432E+03</pdfrwt>
<pdfrwt beam="2">  1       21 0.12473600E+00 0.25182432E+03</pdfrwt>
<totfact> 0.43513467E+03</totfact>
</mgrwt>
</event>
<event>
 5    0  0.1283376E+001  0.2656593E+03  0.7546771E-02  0.1103790E+00
         21   -1    0    0  502  501  0.00000000000E+00  0.00000000000E+00  0.14009488526E+04  0.14009488526E+04  0.00000000000E+00 0.  1.
         21   -1    0    0  503  502 -0.00000000000E+00 -0.00000000000E+00 -0.16024781253E+03  0.16024781253E+03  0.00000000000E+00 0. -1.
         25    1    1    2    0    0 -0.45487337939E+02  0.25108725902E+03  0.12425213893E+04  0.12745973138E+04  0.12500000000E+03 0.  0.
         21    1    1    2  503  504  0.43867113778E+00 -0.16186397790E+03  0.55819972213E+02  0.17121918430E+03  0.00000000000E+00 0. -1.
         21    1    1    2  504  501  0.45048666801E+02 -0.89223281118E+02 -0.57640321466E+02  0.11538016698E+03  0.00000000000E+00 0. -1.
<mgrwt>
<rscale>  4 0.26565932E+03</rscale>
<asrwt>0</asrwt>
<pdfrwt beam="1">  1       21 0.21553059E+00 0.26565932E+03</pdfrwt>
<pdfrwt beam="2">  1       21 0.24653510E-01 0.26565932E+03</pdfrwt>
<totfact> 0.15560890E+03</totfact>
</mgrwt>
</event>
<event>
 5    0  0.1283376E+001  0.2703202E+03  0.7546771E-02  0.1101096E+00
         21   -1    0    0  504  501  0.00000000000E+00  0.00000000000E+00  0.12136436850E+03  0.12136436850E+03  0.00000000000E+00 0.  1.
         21   -1    0    0  501  502 -0.00000000000E+00 -0.00000000000E+00 -0.92101623223E+03  0.92101623223E+03  0.00000000000E+00 0.  1.
         25    1    1    2    0    0 -0.21213554174E+03 -0.10117332394E+03 -0.15902888415E+03  0.31008501341E+03  0.12500000000E+03 0.  0.
         21    1    1    2  503  502 -0.32526789577E+02  0.46682281952E+02 -0.32153167984E+03  0.32652694932E+03  0.00000000000E+00 0.  1.
         21    1    1    2  504  503  0.24466233131E+03  0.54491041984E+02 -0.31909129974E+03  0.40576863801E+03  0.00000000000E+00 0.  1.
<mgrwt>
<rscale>  4 0.27032023E+03</rscale>
<asrwt>0</asrwt>
<pdfrwt beam="1">  1       21 0.18671442E-01 0.27032023E+03</pdfrwt>
<pdfrwt beam="2">  1       21 0.14169480E+00 0.27032023E+03</pdfrwt>
<totfact> 0.86447672E+03</totfact>
</mgrwt>
</event>
<event>
 5    0  0.1283376E+001  0.7588205E+03  0.7546771E-02  0.9621613E-01
         21   -1    0    0  503  501  0.00000000000E+00  0.00000000000E+00  0.50482534529E+03  0.50482534529E+03  0.00000000000E+00 0.  1.
         21   -1    0    0  504  502 -0.00000000000E+00 -0.00000000000E+00 -0.22752542745E+04  0.22752542745E+04  0.00000000000E+00 0. -1.
         25    1    1    2    0    0  0.58478488178E+03  0.46303515341E+03  0.89227444934E+02  0.76155199966E+03  0.12500000000E+03 0.  0.
         21    1    1    2  503  502  0.50681752015E+01  0.20842610344E+02 -0.39607106051E+02  0.45042465025E+02  0.00000000000E+00 0. -1.
         21    1    1    2  504  501 -0.58985305699E+03 -0.48387776376E+03 -0.18200492681E+04  0.19734851551E+04  0.00000000000E+00 0. -1.
<mgrwt>
<rscale>  4 0.75882050E+03</rscale>
<asrwt>0</asrwt>
<pdfrwt beam="1">  1       21 0.77665436E-01 0.75882050E+03</pdfrwt>
<pdfrwt beam="2">  1       21 0.35003913E+00 0.75882050E+03</pdfrwt>
<totfact> 0.15901244E+01</totfact>
</mgrwt>
</event>
<event>
 5    0  0.1283376E+001  0.5513652E+03  0.7546771E-02  0.1001178E+00
         21   -1    0    0  503  501  0.00000000000E+00  0.00000000000E+00  0.95182966149E+03  0.95182966149E+03  0.00000000000E+00 0.  1.
         21   -1    0    0  504  502 -0.00000000000E+00 -0.00000000000E+00 -0.40855489619E+03  0.40855489619E+03  0.00000000000E+00 0.  1.
         25    1    1    2    0    0  0.48448028409E+03 -0.94522435915E+02  0.33057139801E+03  0.60708984981E+03  0.12500000000E+03 0.  0.
         21    1    1    2  503  502 -0.59707281958E+03  0.94012642592E+02  0.21251651066E+03  0.64070086323E+03  0.00000000000E+00 0.  1.
         21    1    1    2  504  501  0.11259253548E+03  0.50979332347E+00  0.18685663566E+00  0.11259384464E+03  0.00000000000E+00 0.  1.
<mgrwt>
<rscale>  4 0.55136524E+03</rscale>
<asrwt>0</asrwt>
<pdfrwt beam="1">  1       21 0.14643533E+00 0.55136524E+03</pdfrwt>
<pdfrwt beam="2">  1       21 0.62854600E-01 0.55136524E+03</pdfrwt>
<totfact> 0.59980341E+02</totfact>
</mgrwt>
</event>
<event>
 5    0  0.1283376E+001  0.2486826E+03  0.7546771E-02  0.1114140E+00
         21   -1    0    0  503  501  0.00000000000E+00  0.00000000000E+00  0.17079433891E+03  0.17079433891E+03  0.00000000000E+00 0. -1.
         21   -1    0    0  504  502 -0.00000000000E+00 -0.00000000000E+00 -0.97349035664E+03  0.97349035664E+03  0.00000000000E+00 0. -1.
         25    1    1    2    0    0 -0.17869750275E+03  0.12778647878E+03  0.37355652016E+02  0.25550465042E+03  0.12500000000E+03 0.  0.
         21    1    1    2  503  502  0.73459917880E+02  0.46262112457E+02 -0.25831570499E+03  0.27251338688E+03  0.00000000000E+00 0. -1.
         21    1    1    2  504  501  0.10523758487E+03 -0.17404859123E+03 -0.58173596475E+03  0.61626665825E+03  0.00000000000E+00 0. -1.
<mgrwt>
<rscale>  4 0.24868261E+03</rscale>
<asrwt>0</asrwt>
<pdfrwt beam="1">  1       21 0.26276052E-01 0.24868261E+03</pdfrwt>
<pdfrwt beam="2">  1       21 0.14976775E+00 0.24868261E+03</pdfrwt>
<totfact> 0.39550680E+03</totfact>
</mgrwt>
</event>
<event>
 5    0  0.1283376E+001  0.2374379E+03  0.7546771E-02  0.1121512E+00
         21   -1    0    0  503  501  0.00000000000E+00  0.00000000000E+00  0.33174004542E+03  0.33174004542E+03  0.00000000000E+00 0.  1.
         21   -1    0    0  504  502 -0.00000000000E+00 -0.00000000000E+00 -0.21880169759E+03  0.21880169759E+03  0.00000000000E+00 0.  1.
         25    1    1    2    0    0 -0.16885674905E+03  0.11593558999E+03  0.18531600273E+03  0.30318424035E+03  0.12500000000E+03 0.  0.
         21    1    1    2  503  502  0.17555990358E+03 -0.89658127875E+02 -0.33498991467E+02  0.19995510013E+03  0.00000000000E+00 0.  1.
         21    1    1    2  504  501 -0.67031545275E+01 -0.26277462113E+02 -0.38878663428E+02  0.47402402530E+02  0.00000000000E+00 0. -1.
<mgrwt>
<rscale>  4 0.23743786E+03</rscale>
<asrwt>0</asrwt>
<pdfrwt beam="1">  1       21 0.51036930E-01 0.23743786E+03</pdfrwt>
<pdfrwt beam="2">  1       21 0.33661800E-01 0.23743786E+03</pdfrwt>
<totfact> 0.30327529E+04</totfact>
</mgrwt>
</event>
<event>
 5    0  0.1283376E+001  0.2451954E+03  0.7546771E-02  0.1116379E+00
         21   -1    0    0  503  501  0.00000000000E+00  0.00000000000E+00  0.38375322857E+03  0.38375322857E+03  0.00000000000E+00 0.  1.
         21   -1    0    0  504  502 -0.00000000000E+00 -0.00000000000E+00 -0.15922608180E+03  0.15922608180E+03  0.00000000000E+00 0.  1.
         25    1    1    2    0    0  0.19008333655E+03 -0.10676684580E+03  0.66783874798E+02  0.26003061383E+03  0.12500000000E+03 0.  0.
         21    1    1    2  503  502 -0.16294643191E+03  0.12182127133E+03  0.14236900034E+03  0.24831611724E+03  0.00000000000E+00 0.  1.
         21    1    1    2  504  501 -0.27136904638E+02 -0.15054425534E+02  0.15374271631E+02  0.34632579310E+02  0.00000000000E+00 0. -1.
<mgrwt>
<rscale>  4 0.24519539E+03</rscale>
<asrwt>0</asrwt>
<pdfrwt beam="1">  1       21 0.59038958E-01 0.24519539E+03</pdfrwt>
<pdfrwt beam="2">  1       21 0.24496320E-01 0.24519539E+03</pdfrwt>
<totfact> 0.41203170E+04</totfact>
</mgrwt>
</event>
<event>
 5    0  0.1283376E+001  0.2410209E+03  0.7546771E-02  0.1119115E+00
         21   -1    0    0  503  501  0.00000000000E+00  0.00000000000E+00  0.11323478326E+03  0.11323478326E+03  0.00000000000E+00 0.  1.
         21   -1    0    0  504  502 -0.00000000000E+00 -0.00000000000E+00 -0.10288919845E+04  0.10288919845E+04  0.00000000000E+00 0.  1.
         25    1    1    2    0    0  0.84056513786E+02  0.18327815681E+03 -0.67030168532E+02  0.24652469200E+03  0.12500000000E+03 0.  0.
         21    1    1    2  503  502 -0.12788904750E+02  0.27313809290E+02 -0.32941954304E+03  0.33079727266E+03  0.00000000000E+00 0.  1.
         21    1    1    2  504  501 -0.71267609036E+02 -0.21059196610E+03 -0.51920748971E+03  0.56480480314E+03  0.00000000000E+00 0.  1.
<mgrwt>
<rscale>  4 0.24102091E+03</rscale>
<asrwt>0</asrwt>
<pdfrwt beam="1">  1       21 0.17420737E-01 0.24102091E+03</pdfrwt>
<pdfrwt beam="2">  1       21 0.15829107E+00 0.24102091E+03</pdfrwt>
<totfact> 0.74549086E+03</totfact>
</mgrwt>
</event>
<event>
 5    0  0.1283376E+001  0.3217253E+03  0.7546771E-02  0.1074858E+00
         21   -1    0    0  503  501  0.00000000000E+00  0.00000000000E+00  0.19489223798E+04  0.19489223798E+04  0.00000000000E+00 0.  1.
         21   -1    0    0  504  502 -0.00000000000E+00 -0.00000000000E+00 -0.19348456883E+03  0.19348456883E+03  0.00000000000E+00 0.  1.
         25    1    1    2    0    0  0.20680310251E+03  0.21682054032E+03  0.17384216914E+04  0.17684777768E+04  0.12500000000E+03 0.  0.
         21    1    1    2  503  502 -0.23639997927E+02 -0.10645812972E+02 -0.78031514243E+02  0.82225908635E+02  0.00000000000E+00 0.  1.
         21    1    1    2  504  501 -0.18316310458E+03 -0.20617472735E+03  0.95047633851E+02  0.29170326323E+03  0.00000000000E+00 0.  1.
<mgrwt>
<rscale>  4 0.32172535E+03</rscale>
<asrwt>0</asrwt>
<pdfrwt beam="1">  1       21 0.29983420E+00 0.32172535E+03</pdfrwt>
<pdfrwt beam="2">  1       21 0.29766858E-01 0.32172535E+03</pdfrwt>
<totfact> 0.32003027E+02</totfact>
</mgrwt>
</event>
<event>
 5    0  0.1283376E+001  0.3259005E+03  0.7546771E-02  0.1072965E+00
         21   -1    0    0  504  501  0.00000000000E+00  0.00000000000E+00  0.73717353550E+03  0.73717353550E+03  0.00000000000E+00 0.  1.
         21   -1    0    0  501  502 -0.00000000000E+00 -0.00000000000E+00 -0.35065178650E+03  0.35065178650E+03  0.00000000000E+00 0.  1.
         25    1    1    2    0    0 -0.10255656314E+03  0.28296338768E+03  0.61841501585E+03  0.69903380407E+03  0.12500000000E+03 0.  0.
         21    1    1    2  503  502 -0.14019644482E+02 -0.23654316326E+02 -0.16105376737E+02  0.31866287391E+02  0.00000000000E+00 0. -1.
         21    1    1    2  504  503  0.11657620763E+03 -0.25930907135E+03 -0.21578789011E+03  0.35692523053E+03  0.00000000000E+00 0.  1.
<mgrwt>
<rscale>  4 0.32590049E+03</rscale>
<asrwt>0</asrwt>
<pdfrwt beam="1">  1       21 0.11341131E+00 0.32590049E+03</pdfrwt>
<pdfrwt beam="2">  1       21 0.53946429E-01 0.32590049E+03</pdfrwt>
<totfact> 0.17910040E+03</totfact>
</mgrwt>
</event>
<event>
 5    0  0.1283376E+001  0.3237690E+03  0.7546771E-02  0.1073928E+00
         21   -1    0    0  503  501  0.00000000000E+00  0.00000000000E+00  0.49782027379E+03  0.49782027379E+03  0.00000000000E+00 0.  1.
         21   -1    0    0  504  502 -0.00000000000E+00 -0.00000000000E+00 -0.28049722199E+03  0.28049722199E+03  0.00000000000E+00 0.  1.
         25    1    1    2    0    0  0.14230596343E+02 -0.29351856312E+03  0.26565686900E+03  0.41539647184E+03  0.12500000000E+03 0.  0.
         21    1    1    2  503  502 -0.57837714606E+02  0.30617756926E+03 -0.27024976960E+02  0.31276229716E+03  0.00000000000E+00 0.  1.
         21    1    1    2  504  501  0.43607118263E+02 -0.12659006133E+02 -0.21308840245E+02  0.50158726779E+02  0.00000000000E+00 0. -1.
<mgrwt>
<rscale>  4 0.32376898E+03</rscale>
<asrwt>0</asrwt>
<pdfrwt beam="1">  1       21 0.76587734E-01 0.32376898E+03</pdfrwt>
<pdfrwt beam="2">  1       21 0.43153419E-01 0.32376898E+03</pdfrwt>
<totfact> 0.72679916E+03</totfact>
</mgrwt>
</event>
<event>
 5    0  0.1283376E+001  0.2721923E+03  0.7546771E-02  0.1100031E+00
         21   -1    0    0  503  501  0.00000000000E+00  0.00000000000E+00  0.23166493289E+04  0.23166493289E+04  0.00000000000E+00 0. -1.
         21   -1    0    0  504  502 -0.00000000000E+00 -0.00000000000E+00 -0.65515645004E+02  0.65515645004E+02  0.00000000000E+00 0. -1.
         25    1    1    2    0    0  0.19652267213E+03  0.17289021918E+03  0.17554699214E+04  0.17792728384E+04  0.12500000000E+03 0.  0.
         21    1    1    2  503  502 -0.20699484769E+03 -0.42487339361E+02  0.32901571163E+03  0.39102861721E+03  0.00000000000E+00 0. -1.
         21    1    1    2  504  501  0.10472175558E+02 -0.13040287981E+03  0.16664805086E+03  0.21186351829E+03  0.00000000000E+00 0. -1.
<mgrwt>
<rscale>  4 0.27219232E+03</rscale>
<asrwt>0</asrwt>
<pdfrwt beam="1">  1       21 0.35640753E+00 0.27219232E+03</pdfrwt>
<pdfrwt beam="2">  1       21 0.10079332E-01 0.27219232E+03</pdfrwt>
<totfact> 0.11642484E+03</totfact>
</mgrwt>
</event>
<event>
 5    0  0.1283376E+001  0.2951224E+03  0.7546771E-02  0.1087705E+00
         21   -1    0    0  503  501  0.00000000000E+00  0.00000000000E+00  0.82598240095E+03  0.82598240095E+03  0.00000000000E+00 0. -1.
         21   -1    0    0  504  502 -0.00000000000E+00 -0.00000000000E+00 -0.16238789143E+03  0.16238789143E+03  0.00000000000E+00 0. -1.
         25    1    1    2    0    0  0.25647292094E+03  0.19968403251E+02  0.45224122182E+02  0.28956401284E+03  0.12500000000E+03 0.  0.
         21    1    1    2  503  502  0.13235226435E+02 -0.15501114842E+02 -0.37488212886E+01  0.20724609555E+02  0.00000000000E+00 0. -1.
         21    1    1    2  504  501 -0.26970814738E+03 -0.44672884091E+01  0.62211920862E+03  0.67808166998E+03  0.00000000000E+00 0. -1.
<mgrwt>
<rscale>  4 0.29512242E+03</rscale>
<asrwt>0</asrwt>
<pdfrwt beam="1">  1       21 0.12707421E+00 0.29512242E+03</pdfrwt>
<pdfrwt beam="2">  1       21 0.24982753E-01 0.29512242E+03</pdfrwt>
<totfact> 0.65003652E+03</totfact>
</mgrwt>
</event>
<event>
 5    0  0.1283376E+001  0.2807733E+03  0.7546771E-02  0.1095267E+00
         21   -1    0    0  503  501  0.00000000000E+00  0.00000000000E+00  0.18396060506E+04  0.18396060506E+04  0.00000000000E+00 0.  1.
         21   -1    0    0  504  502 -0.00000000000E+00 -0.00000000000E+00 -0.78476789876E+02  0.78476789876E+02  0.00000000000E+00 0. -1.
         25    1    1    2    0    0  0.86671981081E+02 -0.23600131741E+03  0.15460175232E+04  0.15713064107E+04  0.12500000000E+03 0.  0.
         21    1    1    2  503  502 -0.10288534030E+03  0.14536729130E+03  0.16038384473E+03  0.23966647717E+03  0.00000000000E+00 0. -1.
         21    1    1    2  504  501  0.16213359221E+02  0.90634026113E+02  0.54727892792E+02  0.10710995265E+03  0.00000000000E+00 0. -1.
<mgrwt>
<rscale>  4 0.28077331E+03</rscale>
<asrwt>0</asrwt>
<pdfrwt beam="1">  1       21 0.28301628E+00 0.28077331E+03</pdfrwt>
<pdfrwt beam="2">  1       21 0.12073354E-01 0.28077331E+03</pdfrwt>
<totfact> 0.22718694E+03</totfact>
</mgrwt>
</event>
<event>
 5    0  0.1283376E+001  0.2709657E+03  0.7546771E-02  0.1100728E+00
         21   -1    0    0  504  501  0.00000000000E+00  0.00000000000E+00  0.58175105604E+03  0.58175105604E+03  0.00000000000E+00 0.  1.
         21   -1    0    0  501  502 -0.00000000000E+00 -0.00000000000E+00 -0.46175846543E+03  0.46175846543E+03  0.00000000000E+00 0. -1.
         25    1    1    2    0    0  0.18223820581E+03  0.19312274290E+03  0.25293113461E+03  0.38743556411E+03  0.12500000000E+03 0.  0.
         21    1    1    2  503  502  0.43867303741E+01 -0.67914016714E+02 -0.34225714205E+03  0.34895774580E+03  0.00000000000E+00 0. -1.
         21    1    1    2  504  503 -0.18662493618E+03 -0.12520872619E+03  0.20931859804E+03  0.30711621156E+03  0.00000000000E+00 0.  1.
<mgrwt>
<rscale>  4 0.27096573E+03</rscale>
<asrwt>0</asrwt>
<pdfrwt beam="1">  1       21 0.89500163E-01 0.27096573E+03</pdfrwt>
<pdfrwt beam="2">  1       21 0.71039763E-01 0.27096573E+03</pdfrwt>
<totfact> 0.17944333E+03</totfact>
</mgrwt>
</event>
<event>
 5    0  0.1283376E+001  0.2176028E+03  0.7546771E-02  0.1135683E+00
         21   -1    0    0  503  501  0.00000000000E+00  0.00000000000E+00  0.21585607167E+04  0.21585607167E+04  0.00000000000E+00 0. -1.
         21   -1    0    0  504  502 -0.00000000000E+00 -0.00000000000E+00 -0.72279511218E+02  0.72279511218E+02  0.00000000000E+00 0. -1.
         25    1    1    2    0    0  0.37911454868E+02 -0.20010429021E+03  0.64976849183E+03  0.69231719490E+03  0.12500000000E+03 0.  0.
         21    1    1    2  503  502  0.12955007634E+02  0.35452183699E+02 -0.38242966509E+02  0.53732802265E+02  0.00000000000E+00 0. -1.
         21    1    1    2  504  501 -0.50866462503E+02  0.16465210651E+03  0.14747556801E+04  0.14847902307E+04  0.00000000000E+00 0. -1.
<mgrwt>
<rscale>  4 0.21760277E+03</rscale>
<asrwt>0</asrwt>
<pdfrwt beam="1">  1       21 0.33208622E+00 0.21760277E+03</pdfrwt>
<pdfrwt beam="2">  1       21 0.11119926E-01 0.21760277E+03</pdfrwt>
<totfact> 0.14490596E+03</totfact>
</mgrwt>
</event>
<event>
 5    0  0.1283376E+001  0.2330285E+03  0.7546771E-02  0.1124526E+00
         21   -1    0    0  503  501  0.00000000000E+00  0.00000000000E+00  0.12466890400E+03  0.12466890400E+03  0.00000000000E+00 0. -1.
         21   -1    0    0  504  502 -0.00000000000E+00 -0.00000000000E+00 -0.49315956142E+03  0.49315956142E+03  0.00000000000E+00 0. -1.
         25    1    1    2    0    0  0.14537581398E+03  0.13872062715E+03 -0.98296098519E+02  0.25625117106E+03  0.12500000000E+03 0.  0.
         21    1    1    2  503  502 -0.10548607274E+03 -0.16249918359E+03 -0.21370705336E+03  0.28845103721E+03  0.00000000000E+00 0. -1.
         21    1    1    2  504  501 -0.39889741240E+02  0.23778556437E+02 -0.56487505540E+02  0.73126257148E+02  0.00000000000E+00 0. -1.
<mgrwt>
<rscale>  4 0.23302855E+03</rscale>
<asrwt>0</asrwt>
<pdfrwt beam="1">  1       21 0.19179832E-01 0.23302855E+03</pdfrwt>
<pdfrwt beam="2">  1       21 0.75870701E-01 0.23302855E+03</pdfrwt>
<totfact> 0.37894768E+04</totfact>
</mgrwt>
</event>
<event>
 5    0  0.1283376E+001  0.3090228E+03  0.7546771E-02  0.1080815E+00
         21   -1    0    0  504  501  0.00000000000E+00  0.00000000000E+00  0.82360829917E+03  0.82360829917E+03  0.00000000000E+00 0.  1.
         21   -1    0    0  501  502 -0.00000000000E+00 -0.00000000000E+00 -0.19925186872E+03  0.19925186872E+03  0.00000000000E+00 0.  1.
         25    1    1    2    0    0 -0.89097236025E+02 -0.27485729485E+03  0.58975306669E+03  0.66851965541E+03  0.12500000000E+03 0.  0.
         21    1    1    2  503  502  0.29171461167E+02  0.13430999955E+02 -0.61545453876E+02  0.69420521455E+02  0.00000000000E+00 0.  1.
         21    1    1    2  504  503  0.59925774858E+02  0.26142629490E+03  0.96148817639E+02  0.28491999103E+03  0.00000000000E+00 0.  1.
<mgrwt>
<rscale>  4 0.30902284E+03</rscale>
<asrwt>0</asrwt>
<pdfrwt beam="1">  1       21 0.12670897E+00 0.30902284E+03</pdfrwt>
<pdfrwt beam="2">  1       21 0.30654134E-01 0.30902284E+03</pdfrwt>
<totfact> 0.43611465E+03</totfact>
</mgrwt>
</event>
<event>
 5    0  0.1283376E+001  0.3479134E+03  0.7546771E-02  0.1063475E+00
         21   -1    0    0  503  501  0.00000000000E+00  0.00000000000E+00  0.15048917143E+04  0.15048917143E+04  0.00000000000E+00 0.  1.
         21   -1    0    0  504  502 -0.00000000000E+00 -0.00000000000E+00 -0.92335164852E+02  0.92335164852E+02  0.00000000000E+00 0.  1.
         25    1    1    2    0    0  0.25413268132E+03  0.17023798230E+03  0.71732847666E+03  0.78977815477E+03  0.12500000000E+03 0.  0.
         21    1    1    2  503  502 -0.29338660319E+03 -0.18402722201E+03  0.68005627477E+03  0.76316332081E+03  0.00000000000E+00 0.  1.
         21    1    1    2  504  501  0.39253921876E+02  0.13789239714E+02  0.15171798025E+02  0.44285403575E+02  0.00000000000E+00 0.  1.
<mgrwt>
<rscale>  4 0.34791344E+03</rscale>
<asrwt>0</asrwt>
<pdfrwt beam="1">  1       21 0.23152178E+00 0.34791344E+03</pdfrwt>
<pdfrwt beam="2">  1       21 0.14205411E-01 0.34791344E+03</pdfrwt>
<totfact> 0.32919881E+03</totfact>
</mgrwt>
</event>
<event>
 5    0  0.1283376E+001  0.2433810E+03  0.7546771E-02  0.1117561E+00
         21   -1    0    0  503  501  0.00000000000E+00  0.00000000000E+00  0.59821645782E+03  0.59821645782E+03  0.00000000000E+00 0.  1.
         21   -1    0    0  504  502 -0.00000000000E+00 -0.00000000000E+00 -0.29610663352E+03  0.29610663352E+03  0.00000000000E+00 0.  1.
         25    1    1    2    0    0  0.46237914295E+01  0.20649330209E+03  0.45707817446E+03  0.51692003329E+03  0.12500000000E+03 0.  0.
         21    1    1    2  503  502  0.54843741039E+02  0.85619977849E+01 -0.14363725171E+03  0.15398962243E+03  0.00000000000E+00 0.  1.
         21    1    1    2  504  501 -0.59467532468E+02 -0.21505529987E+03 -0.11331098440E+02  0.22341343562E+03  0.00000000000E+00 0.  1.
<mgrwt>
<rscale>  4 0.24338104E+03</rscale>
<asrwt>0</asrwt>
<pdfrwt beam="1">  1       21 0.92033301E-01 0.24338104E+03</pdfrwt>
<pdfrwt beam="2">  1       21 0.45554867E-01 0.24338104E+03</pdfrwt>
<totfact> 0.44409638E+03</totfact>
</mgrwt>
</event>
<event>
 5    0  0.1283376E+001  0.2452357E+03  0.7546771E-02  0.1116353E+00
         21   -1    0    0  503  501  0.00000000000E+00  0.00000000000E+00  0.10137049028E+03  0.10137049028E+03  0.00000000000E+00 0.  1.
         21   -1    0    0  504  502 -0.00000000000E+00 -0.00000000000E+00 -0.10565755562E+04  0.10565755562E+04  0.00000000000E+00 0.  1.
         25    1    1    2    0    0 -0.22610584074E+03 -0.47653471401E+02 -0.71536334476E+03  0.76207901137E+03  0.12500000000E+03 0.  0.
         21    1    1    2  503  502  0.19906762090E+03  0.57793264248E+02 -0.62951622034E+02  0.21663537523E+03  0.00000000000E+00 0.  1.
         21    1    1    2  504  501  0.27038219839E+02 -0.10139792846E+02 -0.17689009910E+03  0.17923165985E+03  0.00000000000E+00 0. -1.
<mgrwt>
<rscale>  4 0.24523571E+03</rscale>
<asrwt>0</asrwt>
<pdfrwt beam="1">  1       21 0.15595459E-01 0.24523571E+03</pdfrwt>
<pdfrwt beam="2">  1       21 0.16255010E+00 0.24523571E+03</pdfrwt>
<totfact> 0.84824484E+03</totfact>
</mgrwt>
</event>
<event>
 5    0  0.1283376E+001  0.2405075E+03  0.7546771E-02  0.1119455E+00
         21   -1    0    0  503  501  0.00000000000E+00  0.00000000000E+00  0.17850009234E+04  0.17850009234E+04  0.00000000000E+00 0.  1.
         21   -1    0    0  504  502 -0.00000000000E+00 -0.00000000000E+00 -0.63040355016E+03  0.63040355016E+03  0.00000000000E+00 0. -1.
         25    1    1    2    0    0  0.96347837929E+02  0.18335128895E+03  0.11441985209E+04  0.11694938462E+04  0.12500000000E+03 0.  0.
         21    1    1    2  503  502 -0.11496483552E+03 -0.16860647688E+03  0.61133964506E+03  0.64450075181E+03  0.00000000000E+00 0.  1.
         21    1    1    2  504  501  0.18616997589E+02 -0.14744812062E+02 -0.60094079272E+03  0.60140987557E+03  0.00000000000E+00 0. -1.
<mgrwt>
<rscale>  4 0.24050749E+03</rscale>
<asrwt>0</asrwt>
<pdfrwt beam="1">  1       21 0.27461553E+00 0.24050749E+03</pdfrwt>
<pdfrwt beam="2">  1       21 0.96985162E-01 0.24050749E+03</pdfrwt>
<totfact> 0.39178638E+01</totfact>
</mgrwt>
</event>
<event>
 5    0  0.1283376E+001  0.3271971E+03  0.7546771E-02  0.1072384E+00
         21   -1    0    0  504  501  0.00000000000E+00  0.00000000000E+00  0.38446005620E+03  0.38446005620E+03  0.00000000000E+00 0.  1.
         21   -1    0    0  503  502 -0.00000000000E+00 -0.00000000000E+00 -0.34360564119E+03  0.34360564119E+03  0.00000000000E+00 0.  1.
         25    1    1    2    0    0 -0.26308207707E+03 -0.14078728838E+03  0.43685778515E+01  0.32353875242E+03  0.12500000000E+03 0.  0.
         21    1    1    2  503  501  0.23932918124E+03  0.19291252276E+03  0.95886579348E+02  0.32200610946E+03  0.00000000000E+00 0.  1.
         21    1    1    2  504  502  0.23752895838E+02 -0.52125234379E+02 -0.59400742193E+02  0.82520835507E+02  0.00000000000E+00 0.  1.
<mgrwt>
<rscale>  4 0.32719710E+03</rscale>
<asrwt>0</asrwt>
<pdfrwt beam="1">  1       21 0.59147701E-01 0.32719710E+03</pdfrwt>
<pdfrwt beam="2">  1       21 0.52862406E-01 0.32719710E+03</pdfrwt>
<totfact> 0.84134794E+03</totfact>
</mgrwt>
</event>
<event>
 5    0  0.1283376E+001  0.2955844E+03  0.7546771E-02  0.1087469E+00
         21   -1    0    0  503  501  0.00000000000E+00  0.00000000000E+00  0.11441271990E+03  0.11441271990E+03  0.00000000000E+00 0.  1.
         21   -1    0    0  504  502 -0.00000000000E+00 -0.00000000000E+00 -0.10751589129E+04  0.10751589129E+04  0.00000000000E+00 0. -1.
         25    1    1    2    0    0 -0.12138228397E+03  0.23448192531E+03 -0.30353946493E+03  0.42127976326E+03  0.12500000000E+03 0.  0.
         21    1    1    2  503  502  0.22237975053E+02 -0.28547032073E+03 -0.48112923842E+03  0.55988675249E+03  0.00000000000E+00 0. -1.
         21    1    1    2  504  501  0.99144308915E+02  0.50988395413E+02 -0.17607748966E+03  0.20840511708E+03  0.00000000000E+00 0. -1.
<mgrwt>
<rscale>  4 0.29558441E+03</rscale>
<asrwt>0</asrwt>
<pdfrwt beam="1">  1       21 0.17601957E-01 0.29558441E+03</pdfrwt>
<pdfrwt beam="2">  1       21 0.16540906E+00 0.29558441E+03</pdfrwt>
<totfact> 0.62715419E+03</totfact>
</mgrwt>
</event>
<event>
 5    0  0.1283376E+001  0.2794211E+03  0.7546771E-02  0.1096006E+00
         21   -1    0    0  504  501  0.00000000000E+00  0.00000000000E+00  0.40095428007E+02  0.40095428007E+02  0.00000000000E+00 0.  1.
         21   -1    0    0  501  502 -0.00000000000E+00 -0.00000000000E+00 -0.19747333362E+04  0.19747333362E+04  0.00000000000E+00 0.  1.
         25    1    1    2    0    0 -0.24734383145E+03 -0.35667299078E+02 -0.73021456520E+03  0.78185001018E+03  0.12500000000E+03 0.  0.
         21    1    1    2  503  502  0.62447443129E+02  0.38460939175E+02 -0.46698939231E+03  0.47271346451E+03  0.00000000000E+00 0. -1.
         21    1    1    2  504  503  0.18489638832E+03 -0.27936400973E+01 -0.73743395064E+03  0.76026528948E+03  0.00000000000E+00 0.  1.
<mgrwt>
<rscale>  4 0.27942106E+03</rscale>
<asrwt>0</asrwt>
<pdfrwt beam="1">  1       21 0.61685274E-02 0.27942106E+03</pdfrwt>
<pdfrwt beam="2">  1       21 0.30380513E+00 0.27942106E+03</pdfrwt>
<totfact> 0.56162953E+03</totfact>
</mgrwt>
</event>
<event>
 5    0  0.1283376E+001  0.2359441E+03  0.7546771E-02  0.1122525E+00
         21   -1    0    0  503  501  0.00000000000E+00  0.00000000000E+00  0.75820953184E+02  0.75820953184E+02  0.00000000000E+00 0.  1.
         21   -1    0    0  504  502 -0.00000000000E+00 -0.00000000000E+00 -0.91081983253E+03  0.91081983253E+03  0.00000000000E+00 0.  1.
         25    1    1    2    0    0  0.13869797955E+03 -0.17819171304E+03 -0.38772364574E+03  0.46577252130E+03  0.12500000000E+03 0.  0.
         21    1    1    2  503  502 -0.11605428028E+03  0.14454924664E+03 -0.20983121775E+03  0.27998610791E+03  0.00000000000E+00 0.  1.
         21    1    1    2  504  501 -0.22643699261E+02  0.33642466404E+02 -0.23744401585E+03  0.24088215651E+03  0.00000000000E+00 0. -1.
<mgrwt>
<rscale>  4 0.23594406E+03</rscale>
<asrwt>0</asrwt>
<pdfrwt beam="1">  1       21 0.11664762E-01 0.23594406E+03</pdfrwt>
<pdfrwt beam="2">  1       21 0.14012613E+00 0.23594406E+03</pdfrwt>
<totfact> 0.21461529E+04</totfact>
</mgrwt>
</event>
<event>
 5    0  0.1283376E+001  0.2454089E+03  0.7546771E-02  0.1116241E+00
         21   -1    0    0  504  501  0.00000000000E+00  0.00000000000E+00  0.16809138906E+04  0.16809138906E+04  0.00000000000E+00 0.  1.
         21   -1    0    0  501  502 -0.00000000000E+00 -0.00000000000E+00 -0.37336066024E+02  0.37336066024E+02  0.00000000000E+00 0. -1.
         25    1    1    2    0    0  0.11925382274E+03 -0.17429591025E+03  0.11373067242E+04  0.11634827560E+04  0.12500000000E+03 0.  0.
         21    1    1    2  503  502 -0.11873173300E+03  0.10798609501E+03  0.35384504526E+03  0.38854155144E+03  0.00000000000E+00 0. -1.
         21    1    1    2  504  503 -0.52208974619E+00  0.66309815238E+02  0.15242605513E+03  0.16622564922E+03  0.00000000000E+00 0.  1.
<mgrwt>
<rscale>  4 0.24540892E+03</rscale>
<asrwt>0</asrwt>
<pdfrwt beam="1">  1       21 0.25860208E+00 0.24540892E+03</pdfrwt>
<pdfrwt beam="2">  1       21 0.57440114E-02 0.24540892E+03</pdfrwt>
<totfact> 0.12020778E+04</totfact>
</mgrwt>
</event>
<event>
 5    0  0.1283376E+001  0.2499798E+03  0.7546771E-02  0.1113318E+00
         21   -1    0    0  504  501  0.00000000000E+00  0.00000000000E+00  0.55710646245E+03  0.55710646245E+03  0.00000000000E+00 0. -1.
         21   -1    0    0  501  502 -0.00000000000E+00 -0.00000000000E+00 -0.85024725122E+03  0.85024725122E+03  0.00000000000E+00 0.  1.
         25    1    1    2    0    0 -0.14482683897E+03 -0.16090397505E+03  0.51259612642E+03  0.57030228063E+03  0.12500000000E+03 0.  0.
         21    1    1    2  503  502  0.66872137607E+01  0.42694173119E+02 -0.11716525150E+03  0.12488077276E+03  0.00000000000E+00 0.  1.
         21    1    1    2  504  503  0.13813962521E+03  0.11820980193E+03 -0.68857166369E+03  0.71217066028E+03  0.00000000000E+00 0.  1.
<mgrwt>
<rscale>  4 0.24997980E+03</rscale>
<asrwt>0</asrwt>
<pdfrwt beam="1">  1       21 0.85708686E-01 0.24997980E+03</pdfrwt>
<pdfrwt beam="2">  1       21 0.13080727E+00 0.24997980E+03</pdfrwt>
<totfact> 0.47231161E+02</totfact>
</mgrwt>
</event>
<event>
 5    0  0.1283376E+001  0.2752621E+03  0.7546771E-02  0.1098305E+00
         21   -1    0    0  503  501  0.00000000000E+00  0.00000000000E+00  0.80183432870E+03  0.80183432870E+03  0.00000000000E+00 0.  1.
         21   -1    0    0  504  502 -0.00000000000E+00 -0.00000000000E+00 -0.11096011808E+03  0.11096011808E+03  0.00000000000E+00 0.  1.
         25    1    1    2    0    0 -0.14199990020E+03  0.19136577453E+03  0.38315440069E+03  0.46820628583E+03  0.12500000000E+03 0.  0.
         21    1    1    2  503  502  0.39427124377E+02  0.44241685641E+02  0.30715925543E+02  0.66747980995E+02  0.00000000000E+00 0.  1.
         21    1    1    2  504  501  0.10257277582E+03 -0.23560746017E+03  0.27700388439E+03  0.37784017996E+03  0.00000000000E+00 0.  1.
<mgrwt>
<rscale>  4 0.27526207E+03</rscale>
<asrwt>0</asrwt>
<pdfrwt beam="1">  1       21 0.12335912E+00 0.27526207E+03</pdfrwt>
<pdfrwt beam="2">  1       21 0.17070788E-01 0.27526207E+03</pdfrwt>
<totfact> 0.14544706E+04</totfact>
</mgrwt>
</event>
<event>
 5    0  0.1283376E+001  0.3051697E+03  0.7546771E-02  0.1082685E+00
         21   -1    0    0  504  501  0.00000000000E+00  0.00000000000E+00  0.13173702457E+04  0.13173702457E+04  0.00000000000E+00 0.  1.
         21   -1    0    0  501  502 -0.00000000000E+00 -0.00000000000E+00 -0.92290165187E+02  0.92290165187E+02  0.00000000000E+00 0.  1.
         25    1    1    2    0    0 -0.15428543117E+03 -0.24235640412E+03  0.90835876318E+03  0.96087525909E+03  0.12500000000E+03 0.  0.
         21    1    1    2  503  502 -0.18140655143E+02  0.43168616109E+02  0.17193010492E+02  0.49881984679E+02  0.00000000000E+00 0. -1.
         21    1    1    2  504  503  0.17242608632E+03  0.19918778802E+03  0.29952830685E+03  0.39890316713E+03  0.00000000000E+00 0.  1.
<mgrwt>
<rscale>  4 0.30516966E+03</rscale>
<asrwt>0</asrwt>
<pdfrwt beam="1">  1       21 0.20267233E+00 0.30516966E+03</pdfrwt>
<pdfrwt beam="2">  1       21 0.14198488E-01 0.30516966E+03</pdfrwt>
<totfact> 0.51477416E+03</totfact>
</mgrwt>
</event>
<event>
 5    0  0.1283376E+001  0.3023123E+03  0.7546771E-02  0.1084090E+00
         21   -1    0    0  504  501  0.00000000000E+00  0.00000000000E+00  0.51617339254E+03  0.51617339254E+03  0.00000000000E+00 0.  1.
         21   -1    0    0  503  502 -0.00000000000E+00 -0.00000000000E+00 -0.32082802192E+03  0.32082802192E+03  0.00000000000E+00 0. -1.
         25    1    1    2    0    0  0.18149765586E+03  0.20992358076E+03  0.38431798102E+03  0.49023934907E+03  0.12500000000E+03 0.  0.
         21    1    1    2  503  501 -0.15687528747E+03 -0.21440213349E+03 -0.17079421132E+03  0.31583032357E+03  0.00000000000E+00 0. -1.
         21    1    1    2  504  502 -0.24622368383E+02  0.44785527261E+01 -0.18178399083E+02  0.30931741828E+02  0.00000000000E+00 0. -1.
<mgrwt>
<rscale>  4 0.30231234E+03</rscale>
<asrwt>0</asrwt>
<pdfrwt beam="1">  1       21 0.79411291E-01 0.30231234E+03</pdfrwt>
<pdfrwt beam="2">  1       21 0.49358157E-01 0.30231234E+03</pdfrwt>
<totfact> 0.51088350E+03</totfact>
</mgrwt>
</event>
<event>
 5    0  0.1283376E+001  0.2626002E+03  0.7546771E-02  0.1105591E+00
         21   -1    0    0  504  501  0.00000000000E+00  0.00000000000E+00  0.77484306983E+03  0.77484306983E+03  0.00000000000E+00 0.  1.
         21   -1    0    0  501  502 -0.00000000000E+00 -0.00000000000E+00 -0.12569375652E+03  0.12569375652E+03  0.00000000000E+00 0.  1.
         25    1    1    2    0    0  0.19900264942E+03 -0.10008251825E+03  0.39008481881E+03  0.46627216387E+03  0.12500000000E+03 0.  0.
         21    1    1    2  503  502  0.29265486286E+02  0.21853843149E+02 -0.37222432066E+02  0.52149483189E+02  0.00000000000E+00 0.  1.
         21    1    1    2  504  503 -0.22826813571E+03  0.78228675097E+02  0.29628692656E+03  0.38211517928E+03  0.00000000000E+00 0.  1.
<mgrwt>
<rscale>  4 0.26260023E+03</rscale>
<asrwt>0</asrwt>
<pdfrwt beam="1">  1       21 0.11920662E+00 0.26260023E+03</pdfrwt>
<pdfrwt beam="2">  1       21 0.19337502E-01 0.26260023E+03</pdfrwt>
<totfact> 0.12644472E+04</totfact>
</mgrwt>
</event>
<event>
 5    0  0.1283376E+001  0.2172491E+03  0.7546771E-02  0.1135951E+00
         21   -1    0    0  503  501  0.00000000000E+00  0.00000000000E+00  0.59564321304E+03  0.59564321304E+03  0.00000000000E+00 0.  1.
         21   -1    0    0  504  502 -0.00000000000E+00 -0.00000000000E+00 -0.63813900529E+03  0.63813900529E+03  0.00000000000E+00 0. -1.
         25    1    1    2    0    0 -0.10694319873E+03  0.18580512120E+03  0.34178757093E+03  0.42237913592E+03  0.12500000000E+03 0.  0.
         21    1    1    2  503  502  0.16579240603E+03 -0.18824346335E+02 -0.54642215853E+03  0.57133059891E+03  0.00000000000E+00 0. -1.
         21    1    1    2  504  501 -0.58849207309E+02 -0.16698077487E+03  0.16213879535E+03  0.24007248350E+03  0.00000000000E+00 0.  1.
<mgrwt>
<rscale>  4 0.21724910E+03</rscale>
<asrwt>0</asrwt>
<pdfrwt beam="1">  1       21 0.91637417E-01 0.21724910E+03</pdfrwt>
<pdfrwt beam="2">  1       21 0.98175232E-01 0.21724910E+03</pdfrwt>
<totfact> 0.84313162E+02</totfact>
</mgrwt>
</event>
<event>
 5    0  0.1283376E+001  0.3496300E+03  0.7546771E-02  0.1062767E+00
         21   -1    0    0  503  501  0.00000000000E+00  0.00000000000E+00  0.18750576774E+04  0.18750576774E+04  0.00000000000E+00 0. -1.
         21   -1    0    0  504  502 -0.00000000000E+00 -0.00000000000E+00 -0.11463142996E+03  0.11463142996E+03  0.00000000000E+00 0. -1.
         25    1    1    2    0    0 -0.32717572789E+03 -0.87223070693E+02  0.12443965211E+04  0.12956849627E+04  0.12500000000E+03 0.  0.
         21    1    1    2  503  502  0.25661407507E+03  0.18747759747E+03  0.46025882896E+03  0.55931817663E+03  0.00000000000E+00 0. -1.
         21    1    1    2  504  501  0.70561652822E+02 -0.10025452678E+03  0.55770897467E+02  0.13468596806E+03  0.00000000000E+00 0. -1.
<mgrwt>
<rscale>  4 0.34963001E+03</rscale>
<asrwt>0</asrwt>
<pdfrwt beam="1">  1       21 0.28847039E+00 0.34963001E+03</pdfrwt>
<pdfrwt beam="2">  1       21 0.17635606E-01 0.34963001E+03</pdfrwt>
<totfact> 0.99805664E+02</totfact>
</mgrwt>
</event>
<event>
 5    0  0.1283376E+001  0.2622799E+03  0.7546771E-02  0.1105781E+00
         21   -1    0    0  503  501  0.00000000000E+00  0.00000000000E+00  0.11032901076E+03  0.11032901076E+03  0.00000000000E+00 0.  1.
         21   -1    0    0  504  502 -0.00000000000E+00 -0.00000000000E+00 -0.21870954970E+04  0.21870954970E+04  0.00000000000E+00 0. -1.
         25    1    1    2    0    0 -0.19649761598E+03  0.12063709205E+03 -0.68612952412E+02  0.27110396217E+03  0.12500000000E+03 0.  0.
         21    1    1    2  503  502 -0.17950171074E+02 -0.29601797454E+02 -0.17225219983E+03  0.17569660043E+03  0.00000000000E+00 0. -1.
         21    1    1    2  504  501  0.21444778705E+03 -0.91035294600E+02 -0.18359013340E+04  0.18506239452E+04  0.00000000000E+00 0. -1.
<mgrwt>
<rscale>  4 0.26227990E+03</rscale>
<asrwt>0</asrwt>
<pdfrwt beam="1">  1       21 0.16973693E-01 0.26227990E+03</pdfrwt>
<pdfrwt beam="2">  1       21 0.33647625E+00 0.26227990E+03</pdfrwt>
<totfact> 0.60110494E+02</totfact>
</mgrwt>
</event>
<event>
 5    0  0.1283376E+001  0.4210298E+03  0.7546771E-02  0.1036732E+00
         21   -1    0    0  504  501  0.00000000000E+00  0.00000000000E+00  0.14925003275E+03  0.14925003275E+03  0.00000000000E+00 0.  1.
         21   -1    0    0  503  502 -0.00000000000E+00 -0.00000000000E+00 -0.14480110395E+04  0.14480110395E+04  0.00000000000E+00 0.  1.
         25    1    1    2    0    0  0.89147636935E+02 -0.40090550985E+03 -0.38242656436E+03  0.57493269704E+03  0.12500000000E+03 0.  0.
         21    1    1    2  503  501 -0.84944583437E+02  0.37964025733E+03 -0.66780666676E+03  0.77285707049E+03  0.00000000000E+00 0.  1.
         21    1    1    2  504  502 -0.42030534975E+01  0.21265252519E+02 -0.24852777563E+03  0.24947130473E+03  0.00000000000E+00 0. -1.
<mgrwt>
<rscale>  4 0.42102982E+03</rscale>
<asrwt>0</asrwt>
<pdfrwt beam="1">  1       21 0.22961544E-01 0.42102982E+03</pdfrwt>
<pdfrwt beam="2">  1       21 0.22277093E+00 0.42102982E+03</pdfrwt>
<totfact> 0.14572287E+03</totfact>
</mgrwt>
</event>
<event>
 5    0  0.1283376E+001  0.2420887E+03  0.7546771E-02  0.1118409E+00
         21   -1    0    0  504  501  0.00000000000E+00  0.00000000000E+00  0.26137009136E+03  0.26137009136E+03  0.00000000000E+00 0.  1.
         21   -1    0    0  501  502 -0.00000000000E+00 -0.00000000000E+00 -0.53201230130E+03  0.53201230130E+03  0.00000000000E+00 0.  1.
         25    1    1    2    0    0  0.20729702327E+03 -0.31434529234E+01  0.17469415719E+03  0.29853808084E+03  0.12500000000E+03 0.  0.
         21    1    1    2  503  502 -0.25788235823E+02 -0.21240793690E+01 -0.11513973039E+03  0.11801145002E+03  0.00000000000E+00 0.  1.
         21    1    1    2  504  503 -0.18150878745E+03  0.52675322925E+01 -0.33019663674E+03  0.37683286180E+03  0.00000000000E+00 0.  1.
<mgrwt>
<rscale>  4 0.24208870E+03</rscale>
<asrwt>0</asrwt>
<pdfrwt beam="1">  1       21 0.40210784E-01 0.24208870E+03</pdfrwt>
<pdfrwt beam="2">  1       21 0.81848045E-01 0.24208870E+03</pdfrwt>
<totfact> 0.75295168E+03</totfact>
</mgrwt>
</event>
<event>
 5    0  0.1283376E+001  0.2536440E+03  0.7546771E-02  0.1111023E+00
         21   -1    0    0  503  501  0.00000000000E+00  0.00000000000E+00  0.41933152309E+03  0.41933152309E+03  0.00000000000E+00 0. -1.
         21   -1    0    0  504  502 -0.00000000000E+00 -0.00000000000E+00 -0.42099363082E+03  0.42099363082E+03  0.00000000000E+00 0. -1.
         25    1    1    2    0    0 -0.16632384855E+03 -0.15308351497E+03  0.27344826515E+03  0.37616105442E+03  0.12500000000E+03 0.  0.
         21    1    1    2  503  502  0.22501443759E+03  0.30673830892E+02 -0.22436655313E+03  0.31923773460E+03  0.00000000000E+00 0. -1.
         21    1    1    2  504  501 -0.58690589039E+02  0.12240968408E+03 -0.50743819748E+02  0.14492636489E+03  0.00000000000E+00 0. -1.
<mgrwt>
<rscale>  4 0.25364400E+03</rscale>
<asrwt>0</asrwt>
<pdfrwt beam="1">  1       21 0.64512542E-01 0.25364400E+03</pdfrwt>
<pdfrwt beam="2">  1       21 0.64768250E-01 0.25364400E+03</pdfrwt>
<totfact> 0.46616820E+03</totfact>
</mgrwt>
</event>
<event>
 5    0  0.1283376E+001  0.3156101E+03  0.7546771E-02  0.1077688E+00
         21   -1    0    0  504  501  0.00000000000E+00  0.00000000000E+00  0.11716804586E+03  0.11716804586E+03  0.00000000000E+00 0.  1.
         21   -1    0    0  503  502 -0.00000000000E+00 -0.00000000000E+00 -0.81651866313E+03  0.81651866313E+03  0.00000000000E+00 0.  1.
         25    1    1    2    0    0 -0.13299853718E+03  0.25748033649E+03 -0.41364966148E+03  0.52030354315E+03  0.12500000000E+03 0.  0.
         21    1    1    2  503  501  0.14198827980E+03 -0.23681601739E+03 -0.26701462288E+03  0.38410845672E+03  0.00000000000E+00 0.  1.
         21    1    1    2  504  502 -0.89897426212E+01 -0.20664319102E+02 -0.18686332916E+02  0.29274709122E+02  0.00000000000E+00 0. -1.
<mgrwt>
<rscale>  4 0.31561010E+03</rscale>
<asrwt>0</asrwt>
<pdfrwt beam="1">  1       21 0.18025854E-01 0.31561010E+03</pdfrwt>
<pdfrwt beam="2">  1       21 0.12561825E+00 0.31561010E+03</pdfrwt>
<totfact> 0.12319125E+04</totfact>
</mgrwt>
</event>
<event>
 5    0  0.1283376E+001  0.6137858E+03  0.7546771E-02  0.9877211E-01
         21   -1    0    0  503  501  0.00000000000E+00  0.00000000000E+00  0.79172633033E+03  0.79172633033E+03  0.00000000000E+00 0. -1.
         21   -1    0    0  504  502 -0.00000000000E+00 -0.00000000000E+00 -0.13419499765E+04  0.13419499765E+04  0.00000000000E+00 0. -1.
         25    1    1    2    0    0  0.25837712747E+03 -0.55641084364E+03  0.24789162052E+03  0.67336990017E+03  0.12500000000E+03 0.  0.
         21    1    1    2  503  502 -0.24466991633E+03  0.53207555967E+03  0.71731660340E+02  0.59001118655E+03  0.00000000000E+00 0. -1.
         21    1    1    2  504  501 -0.13707211138E+02  0.24335283971E+02 -0.86984692703E+03  0.87029522011E+03  0.00000000000E+00 0. -1.
<mgrwt>
<rscale>  4 0.61378578E+03</rscale>
<asrwt>0</asrwt>
<pdfrwt beam="1">  1       21 0.12180405E+00 0.61378578E+03</pdfrwt>
<pdfrwt beam="2">  1       21 0.20645384E+00 0.61378578E+03</pdfrwt>
<totfact> 0.44547757E+01</totfact>
</mgrwt>
</event>
<event>
 5    0  0.1283376E+001  0.2564008E+03  0.7546771E-02  0.1109325E+00
         21   -1    0    0  504  501  0.00000000000E+00  0.00000000000E+00  0.10142460557E+04  0.10142460557E+04  0.00000000000E+00 0. -1.
         21   -1    0    0  501  502 -0.00000000000E+00 -0.00000000000E+00 -0.25838664294E+03  0.25838664294E+03  0.00000000000E+00 0. -1.
         25    1    1    2    0    0  0.94408454516E+02 -0.20732697055E+03  0.92531760624E+03  0.96111138867E+03  0.12500000000E+03 0.  0.
         21    1    1    2  503  502 -0.86876188939E+01  0.33713681653E+02 -0.99885083960E+02  0.10577862284E+03  0.00000000000E+00 0. -1.
         21    1    1    2  504  503 -0.85720835622E+02  0.17361328890E+03 -0.69573109513E+02  0.20574268713E+03  0.00000000000E+00 0. -1.
<mgrwt>
<rscale>  4 0.25640081E+03</rscale>
<asrwt>0</asrwt>
<pdfrwt beam="1">  1       21 0.15603785E+00 0.25640081E+03</pdfrwt>
<pdfrwt beam="2">  1       21 0.39751792E-01 0.25640081E+03</pdfrwt>
<totfact> 0.15528566E+03</totfact>
</mgrwt>
</event>
<event>
 5    0  0.1283376E+001  0.3330824E+03  0.7546771E-02  0.1069781E+00
         21   -1    0    0  503  501  0.00000000000E+00  0.00000000000E+00  0.21980969297E+04  0.21980969297E+04  0.00000000000E+00 0. -1.
         21   -1    0    0  504  502 -0.00000000000E+00 -0.00000000000E+00 -0.74659084465E+02  0.74659084465E+02  0.00000000000E+00 0. -1.
         25    1    1    2    0    0 -0.32373580251E+03  0.26011581435E+02  0.11244347491E+04  0.11770556390E+04  0.12500000000E+03 0.  0.
         21    1    1    2  503  502  0.28512860179E+02 -0.58710770932E+01 -0.19528786730E+02  0.35054618140E+02  0.00000000000E+00 0. -1.
         21    1    1    2  504  501  0.29522294233E+03 -0.20140504342E+02  0.10185318829E+04  0.10606457571E+04  0.00000000000E+00 0. -1.
<mgrwt>
<rscale>  4 0.33308239E+03</rscale>
<asrwt>0</asrwt>
<pdfrwt beam="1">  1       21 0.33816871E+00 0.33308239E+03</pdfrwt>
<pdfrwt beam="2">  1       21 0.11486015E-01 0.33308239E+03</pdfrwt>
<totfact> 0.11233294E+03</totfact>
</mgrwt>
</event>
<event>
 5    0  0.1283376E+001  0.3868265E+03  0.7546771E-02  0.1048919E+00
         21   -1    0    0  504  501  0.00000000000E+00  0.00000000000E+00  0.28969440727E+04  0.28969440727E+04  0.00000000000E+00 0.  1.
         21   -1    0    0  501  502 -0.00000000000E+00 -0.00000000000E+00 -0.23205873983E+03  0.23205873983E+03  0.00000000000E+00 0. -1.
         25    1    1    2    0    0  0.35733475107E+03  0.47616831943E+02  0.27125477896E+04  0.27392509922E+04  0.12500000000E+03 0.  0.
         21    1    1    2  503  502 -0.11134307176E+03  0.27697541955E+02 -0.65065030068E+02  0.13190106746E+03  0.00000000000E+00 0. -1.
         21    1    1    2  504  503 -0.24599167931E+03 -0.75314373897E+02  0.17402573268E+02  0.25785075288E+03  0.00000000000E+00 0. -1.
<mgrwt>
<rscale>  4 0.38550063E+03</rscale>
<asrwt>0</asrwt>
<pdfrwt beam="1">  1       21 0.44568368E+00 0.38682654E+03</pdfrwt>
<pdfrwt beam="2">  1       21 0.35701347E-01 0.38682654E+03</pdfrwt>
<totfact> 0.25874904E+01</totfact>
</mgrwt>
</event>
<event>
 5    0  0.1283376E+001  0.3025820E+03  0.7546771E-02  0.1083957E+00
         21   -1    0    0  504  501  0.00000000000E+00  0.00000000000E+00  0.11562316338E+04  0.11562316338E+04  0.00000000000E+00 0. -1.
         21   -1    0    0  503  502 -0.00000000000E+00 -0.00000000000E+00 -0.14994020180E+03  0.14994020180E+03  0.00000000000E+00 0. -1.
         25    1    1    2    0    0 -0.13050260471E+03 -0.24617644403E+03  0.91502588570E+03  0.96464042157E+03  0.12500000000E+03 0.  0.
         21    1    1    2  503  501  0.13876083070E+03  0.22661449465E+03  0.13116589023E+03  0.29633290077E+03  0.00000000000E+00 0. -1.
         21    1    1    2  504  502 -0.82582259916E+01  0.19561949376E+02 -0.39900343895E+02  0.45198513282E+02  0.00000000000E+00 0. -1.
<mgrwt>
<rscale>  4 0.30258203E+03</rscale>
<asrwt>0</asrwt>
<pdfrwt beam="1">  1       21 0.17788178E+00 0.30258203E+03</pdfrwt>
<pdfrwt beam="2">  1       21 0.23067724E-01 0.30258203E+03</pdfrwt>
<totfact> 0.30546455E+03</totfact>
</mgrwt>
</event>
<event>
 5    0  0.1283376E+001  0.2407351E+03  0.7546771E-02  0.1119304E+00
         21   -1    0    0  504  501  0.00000000000E+00  0.00000000000E+00  0.36494991596E+03  0.36494991596E+03  0.00000000000E+00 0.  1.
         21   -1    0    0  501  502 -0.00000000000E+00 -0.00000000000E+00 -0.26807274348E+04  0.26807274348E+04  0.00000000000E+00 0.  1.
         25    1    1    2    0    0  0.71710149999E+02 -0.23725442664E+03  0.85811205237E+02  0.29055218381E+03  0.12500000000E+03 0.  0.
         21    1    1    2  503  502 -0.56472370338E+02  0.50903883980E+02 -0.25281836727E+04  0.25293265936E+04  0.00000000000E+00 0.  1.
         21    1    1    2  504  503 -0.15237779660E+02  0.18635054266E+03  0.12659494868E+03  0.22579857332E+03  0.00000000000E+00 0.  1.
<mgrwt>
<rscale>  4 0.24073513E+03</rscale>
<asrwt>0</asrwt>
<pdfrwt beam="1">  1       21 0.56146142E-01 0.24073513E+03</pdfrwt>
<pdfrwt beam="2">  1       21 0.41241960E+00 0.24073513E+03</pdfrwt>
<totfact> 0.19917344E+01</totfact>
</mgrwt>
</event>
<event>
 5    0  0.1283376E+001  0.4221138E+03  0.7546771E-02  0.1036381E+00
         21   -1    0    0  503  501  0.00000000000E+00  0.00000000000E+00  0.18424758220E+03  0.18424758220E+03  0.00000000000E+00 0.  1.
         21   -1    0    0  504  502 -0.00000000000E+00 -0.00000000000E+00 -0.16678860718E+04  0.16678860718E+04  0.00000000000E+00 0.  1.
         25    1    1    2    0    0 -0.30487748014E+03  0.31989811511E+03 -0.85409672027E+03  0.96973774265E+03  0.12500000000E+03 0.  0.
         21    1    1    2  503  502  0.31282948719E+03 -0.23517844143E+03 -0.19066087424E+03  0.43534211413E+03  0.00000000000E+00 0.  1.
         21    1    1    2  504  501 -0.79520070555E+01 -0.84719673681E+02 -0.43888089507E+03  0.44705379719E+03  0.00000000000E+00 0.  1.
<mgrwt>
<rscale>  4 0.42211381E+03</rscale>
<asrwt>0</asrwt>
<pdfrwt beam="1">  1       21 0.28345781E-01 0.42211381E+03</pdfrwt>
<pdfrwt beam="2">  1       21 0.25659787E+00 0.42211381E+03</pdfrwt>
<totfact> 0.59611216E+02</totfact>
</mgrwt>
</event>
<event>
 5    0  0.1283376E+001  0.3036877E+03  0.7546771E-02  0.1083412E+00
         21   -1    0    0  502  501  0.00000000000E+00  0.00000000000E+00  0.42651587644E+03  0.42651587644E+03  0.00000000000E+00 0. -1.
         21   -1    0    0  503  502 -0.00000000000E+00 -0.00000000000E+00 -0.34718093406E+03  0.34718093406E+03  0.00000000000E+00 0. -1.
         25    1    1    2    0    0  0.28425655679E+03  0.16112685091E+02  0.26497255576E+03  0.40853012619E+03  0.12500000000E+03 0.  0.
         21    1    1    2  503  504 -0.25617157422E+03  0.22592270118E+01 -0.10324939428E+03  0.27620538910E+03  0.00000000000E+00 0. -1.
         21    1    1    2  504  501 -0.28084982571E+02 -0.18371912103E+02 -0.82388219101E+02  0.88961295219E+02  0.00000000000E+00 0. -1.
<mgrwt>
<rscale>  4 0.30368765E+03</rscale>
<asrwt>0</asrwt>
<pdfrwt beam="1">  1       21 0.65617827E-01 0.30368765E+03</pdfrwt>
<pdfrwt beam="2">  1       21 0.53412452E-01 0.30368765E+03</pdfrwt>
<totfact> 0.66278980E+03</totfact>
</mgrwt>
</event>
<event>
 5    0  0.1283376E+001  0.2871903E+03  0.7546771E-02  0.1091825E+00
         21   -1    0    0  504  501  0.00000000000E+00  0.00000000000E+00  0.87885514101E+02  0.87885514101E+02  0.00000000000E+00 0. -1.
         21   -1    0    0  501  502 -0.00000000000E+00 -0.00000000000E+00 -0.19905280023E+04  0.19905280023E+04  0.00000000000E+00 0. -1.
         25    1    1    2    0    0  0.24954027751E+03  0.32573720843E+02 -0.21602532186E+03  0.35443382608E+03  0.12500000000E+03 0.  0.
         21    1    1    2  503  502 -0.28719185437E+03 -0.75309112677E+02 -0.14893253767E+04  0.15186311934E+04  0.00000000000E+00 0. -1.
         21    1    1    2  504  503  0.37651576865E+02  0.42735391833E+02 -0.19729178965E+03  0.20534849699E+03  0.00000000000E+00 0. -1.
<mgrwt>
<rscale>  4 0.28719035E+03</rscale>
<asrwt>0</asrwt>
<pdfrwt beam="1">  1       21 0.13520849E-01 0.28719035E+03</pdfrwt>
<pdfrwt beam="2">  1       21 0.30623507E+00 0.28719035E+03</pdfrwt>
<totfact> 0.13437427E+03</totfact>
</mgrwt>
</event>
<event>
 5    0  0.1283376E+001  0.2629220E+03  0.7546771E-02  0.1105400E+00
         21   -1    0    0  504  501  0.00000000000E+00  0.00000000000E+00  0.86741750851E+03  0.86741750851E+03  0.00000000000E+00 0. -1.
         21   -1    0    0  503  502 -0.00000000000E+00 -0.00000000000E+00 -0.22214169513E+03  0.22214169513E+03  0.00000000000E+00 0.  1.
         25    1    1    2    0    0  0.61780651857E+02  0.23216852398E+03  0.74872425727E+03  0.79619852166E+03  0.12500000000E+03 0.  0.
         21    1    1    2  503  501 -0.80494628053E+02 -0.17489686793E+03 -0.24554442858E+02  0.19409075254E+03  0.00000000000E+00 0.  1.
         21    1    1    2  504  502  0.18713976195E+02 -0.57271656054E+02 -0.78894001034E+02  0.99269929442E+02  0.00000000000E+00 0.  1.
<mgrwt>
<rscale>  4 0.26292204E+03</rscale>
<asrwt>0</asrwt>
<pdfrwt beam="1">  1       21 0.13344885E+00 0.26292204E+03</pdfrwt>
<pdfrwt beam="2">  1       21 0.34175646E-01 0.26292204E+03</pdfrwt>
<totfact> 0.31624421E+03</totfact>
</mgrwt>
</event>
<event>
 5    0  0.1283376E+001  0.4252994E+03  0.7546771E-02  0.1035355E+00
         21   -1    0    0  503  501  0.00000000000E+00  0.00000000000E+00  0.10588849163E+04  0.10588849163E+04  0.00000000000E+00 0. -1.
         21   -1    0    0  504  502 -0.00000000000E+00 -0.00000000000E+00 -0.80334739926E+03  0.80334739926E+03  0.00000000000E+00 0.  1.
         25    1    1    2    0    0  0.66868238452E+02 -0.39806823999E+03  0.90652994129E+03  0.10001755943E+04  0.12500000000E+03 0.  0.
         21    1    1    2  503  502  0.14107709553E+02 -0.28503204856E+02 -0.30558499349E+03  0.30723549339E+03  0.00000000000E+00 0.  1.
         21    1    1    2  504  501 -0.80975948004E+02  0.42657144484E+03 -0.34540743074E+03  0.55482122789E+03  0.00000000000E+00 0.  1.
<mgrwt>
<rscale>  4 0.42529940E+03</rscale>
<asrwt>0</asrwt>
<pdfrwt beam="1">  1       21 0.16290537E+00 0.42529940E+03</pdfrwt>
<pdfrwt beam="2">  1       21 0.12359191E+00 0.42529940E+03</pdfrwt>
<totfact> 0.95446709E+01</totfact>
</mgrwt>
</event>
<event>
 5    0  0.1283376E+001  0.2722981E+03  0.7546771E-02  0.1099971E+00
         21   -1    0    0  503  501  0.00000000000E+00  0.00000000000E+00  0.49429546740E+03  0.49429546740E+03  0.00000000000E+00 0.  1.
         21   -1    0    0  504  502 -0.00000000000E+00 -0.00000000000E+00 -0.31167921716E+03  0.31167921716E+03  0.00000000000E+00 0.  1.
         25    1    1    2    0    0  0.21985337419E+03 -0.80599599530E+02  0.34715323207E+03  0.43700362484E+03  0.12500000000E+03 0.  0.
         21    1    1    2  503  502 -0.26604215756E+03  0.93429300353E+02 -0.14645585600E+03  0.31773696909E+03  0.00000000000E+00 0.  1.
         21    1    1    2  504  501  0.46188783370E+02 -0.12829700823E+02 -0.18081125826E+02  0.51234090638E+02  0.00000000000E+00 0. -1.
<mgrwt>
<rscale>  4 0.27229813E+03</rscale>
<asrwt>0</asrwt>
<pdfrwt beam="1">  1       21 0.76045457E-01 0.27229813E+03</pdfrwt>
<pdfrwt beam="2">  1       21 0.47950649E-01 0.27229813E+03</pdfrwt>
<totfact> 0.60843169E+03</totfact>
</mgrwt>
</event>
<event>
 5    0  0.1283376E+001  0.3225834E+03  0.7546771E-02  0.1074466E+00
         21   -1    0    0  503  501  0.00000000000E+00  0.00000000000E+00  0.99485350341E+03  0.99485350341E+03  0.00000000000E+00 0. -1.
         21   -1    0    0  504  502 -0.00000000000E+00 -0.00000000000E+00 -0.24442216355E+03  0.24442216355E+03  0.00000000000E+00 0. -1.
         25    1    1    2    0    0 -0.14316158610E+03 -0.22337241484E+03  0.73272055347E+03  0.78923690038E+03  0.12500000000E+03 0.  0.
         21    1    1    2  503  502  0.21698365164E+03  0.21149531795E+03 -0.92542872154E+02  0.31682228107E+03  0.00000000000E+00 0. -1.
         21    1    1    2  504  501 -0.73822065547E+02  0.11877096886E+02  0.11025365854E+03  0.13321648552E+03  0.00000000000E+00 0. -1.
<mgrwt>
<rscale>  4 0.32258337E+03</rscale>
<asrwt>0</asrwt>
<pdfrwt beam="1">  1       21 0.15305438E+00 0.32258337E+03</pdfrwt>
<pdfrwt beam="2">  1       21 0.37603410E-01 0.32258337E+03</pdfrwt>
<totfact> 0.17525796E+03</totfact>
</mgrwt>
</event>
<event>
 5    0  0.1283376E+001  0.3163937E+03  0.7546771E-02  0.1077321E+00
         21   -1    0    0  502  501  0.00000000000E+00  0.00000000000E+00  0.67503781943E+03  0.67503781943E+03  0.00000000000E+00 0. -1.
         21   -1    0    0  503  502 -0.00000000000E+00 -0.00000000000E+00 -0.56263513425E+03  0.56263513425E+03  0.00000000000E+00 0. -1.
         25    1    1    2    0    0  0.15759362334E+03  0.24422169333E+03  0.59264911894E+03  0.67181691240E+03  0.12500000000E+03 0.  0.
         21    1    1    2  503  504 -0.15208036922E+03 -0.18423389251E+03 -0.38996564742E+03  0.45732239396E+03  0.00000000000E+00 0. -1.
         21    1    1    2  504  501 -0.55132541256E+01 -0.59987800824E+02 -0.90280786341E+02  0.10853364732E+03  0.00000000000E+00 0.  1.
<mgrwt>
<rscale>  4 0.31639372E+03</rscale>
<asrwt>0</asrwt>
<pdfrwt beam="1">  1       21 0.10385197E+00 0.31639372E+03</pdfrwt>
<pdfrwt beam="2">  1       21 0.86559251E-01 0.31639372E+03</pdfrwt>
<totfact> 0.77989032E+02</totfact>
</mgrwt>
</event>
<event>
 5    0  0.1283376E+001  0.2335112E+03  0.7546771E-02  0.1124193E+00
         21   -1    0    0  504  501  0.00000000000E+00  0.00000000000E+00  0.50526690774E+03  0.50526690774E+03  0.00000000000E+00 0. -1.
         21   -1    0    0  503  502 -0.00000000000E+00 -0.00000000000E+00 -0.24767038739E+03  0.24767038739E+03  0.00000000000E+00 0.  1.
         25    1    1    2    0    0  0.41366550147E+02 -0.20710197812E+03  0.36333693709E+03  0.43845313394E+03  0.12500000000E+03 0.  0.
         21    1    1    2  503  501  0.61441714182E+01  0.19604781985E+03 -0.15131497891E+03  0.24772711065E+03  0.00000000000E+00 0.  1.
         21    1    1    2  504  502 -0.47510721565E+02  0.11054158273E+02  0.45574562174E+02  0.66757050535E+02  0.00000000000E+00 0.  1.
<mgrwt>
<rscale>  4 0.23351121E+03</rscale>
<asrwt>0</asrwt>
<pdfrwt beam="1">  1       21 0.77733370E-01 0.23351121E+03</pdfrwt>
<pdfrwt beam="2">  1       21 0.38103137E-01 0.23351121E+03</pdfrwt>
<totfact> 0.94885995E+03</totfact>
</mgrwt>
</event>
<event>
 5    0  0.1283376E+001  0.4911042E+03  0.7546771E-02  0.1016127E+00
         21   -1    0    0  504  501  0.00000000000E+00  0.00000000000E+00  0.68189043516E+03  0.68189043516E+03  0.00000000000E+00 0. -1.
         21   -1    0    0  501  502 -0.00000000000E+00 -0.00000000000E+00 -0.39814389474E+03  0.39814389474E+03  0.00000000000E+00 0. -1.
         25    1    1    2    0    0  0.44997138081E+03  0.75644368269E+02  0.21336666750E+03  0.51898617400E+03  0.12500000000E+03 0.  0.
         21    1    1    2  503  502 -0.48911232114E+03 -0.11133283323E+03  0.77598796313E+02  0.50758983011E+03  0.00000000000E+00 0. -1.
         21    1    1    2  504  503  0.39140940331E+02  0.35688464960E+02 -0.72189234031E+01  0.53458325790E+02  0.00000000000E+00 0. -1.
<mgrwt>
<rscale>  4 0.49110421E+03</rscale>
<asrwt>0</asrwt>
<pdfrwt beam="1">  1       21 0.10490622E+00 0.49110421E+03</pdfrwt>
<pdfrwt beam="2">  1       21 0.61252907E-01 0.49110421E+03</pdfrwt>
<totfact> 0.15326614E+03</totfact>
</mgrwt>
</event>
<event>
 5    0  0.1283376E+001  0.2982228E+03  0.7546771E-02  0.1086132E+00
         21   -1    0    0  502  501  0.00000000000E+00  0.00000000000E+00  0.23980318573E+03  0.23980318573E+03  0.00000000000E+00 0. -1.
         21   -1    0    0  503  502 -0.00000000000E+00 -0.00000000000E+00 -0.59237029251E+03  0.59237029251E+03  0.00000000000E+00 0. -1.
         25    1    1    2    0    0  0.27005923048E+03  0.19489501446E+02  0.82244963201E+02  0.30935588342E+03  0.12500000000E+03 0.  0.
         21    1    1    2  503  504 -0.13457232046E+03 -0.60484791242E+02 -0.19802350394E+03  0.24694417895E+03  0.00000000000E+00 0.  1.
         21    1    1    2  504  501 -0.13548691002E+03  0.40995289796E+02 -0.23678856604E+03  0.27587341586E+03  0.00000000000E+00 0. -1.
<mgrwt>
<rscale>  4 0.29822278E+03</rscale>
<asrwt>0</asrwt>
<pdfrwt beam="1">  1       21 0.36892798E-01 0.29822278E+03</pdfrwt>
<pdfrwt beam="2">  1       21 0.91133891E-01 0.29822278E+03</pdfrwt>
<totfact> 0.67794977E+03</totfact>
</mgrwt>
</event>
<event>
 5    0  0.1283376E+001  0.4121040E+03  0.7546771E-02  0.1039667E+00
         21   -1    0    0  503  501  0.00000000000E+00  0.00000000000E+00  0.54954263715E+03  0.54954263715E+03  0.00000000000E+00 0. -1.
         21   -1    0    0  504  502 -0.00000000000E+00 -0.00000000000E+00 -0.40745230385E+03  0.40745230385E+03  0.00000000000E+00 0. -1.
         25    1    1    2    0    0 -0.38904550301E+03 -0.55211925428E+02  0.27544474001E+03  0.49588261204E+03  0.12500000000E+03 0.  0.
         21    1    1    2  503  502  0.43026138013E+01 -0.23016695614E+02 -0.56343703743E+02  0.61015520272E+02  0.00000000000E+00 0. -1.
         21    1    1    2  504  501  0.38474288921E+03  0.78228621042E+02 -0.77010702965E+02  0.40009680869E+03  0.00000000000E+00 0. -1.
<mgrwt>
<rscale>  4 0.41210403E+03</rscale>
<asrwt>0</asrwt>
<pdfrwt beam="1">  1       21 0.84545021E-01 0.41210403E+03</pdfrwt>
<pdfrwt beam="2">  1       21 0.62684970E-01 0.41210403E+03</pdfrwt>
<totfact> 0.25163153E+03</totfact>
</mgrwt>
</event>
<event>
 5    0  0.1283376E+001  0.2365584E+03  0.7546771E-02  0.1122107E+00
         21   -1    0    0  503  501  0.00000000000E+00  0.00000000000E+00  0.31039381765E+03  0.31039381765E+03  0.00000000000E+00 0.  1.
         21   -1    0    0  504  502 -0.00000000000E+00 -0.00000000000E+00 -0.25488767880E+03  0.25488767880E+03  0.00000000000E+00 0. -1.
         25    1    1    2    0    0 -0.18333376423E+03  0.93387367101E+02  0.18904338346E+03  0.30609617814E+03  0.12500000000E+03 0.  0.
         21    1    1    2  503  502  0.66363525211E+01 -0.31384600699E+02 -0.60405849563E+01  0.32642349830E+02  0.00000000000E+00 0. -1.
         21    1    1    2  504  501  0.17669741171E+03 -0.62002766402E+02 -0.12749665966E+03  0.22654296849E+03  0.00000000000E+00 0. -1.
<mgrwt>
<rscale>  4 0.23655842E+03</rscale>
<asrwt>0</asrwt>
<pdfrwt beam="1">  1       21 0.47752895E-01 0.23655842E+03</pdfrwt>
<pdfrwt beam="2">  1       21 0.39213489E-01 0.23655842E+03</pdfrwt>
<totfact> 0.25678082E+04</totfact>
</mgrwt>
</event>
<event>
 5    0  0.1283376E+001  0.2091460E+03  0.7546771E-02  0.1142244E+00
         21   -1    0    0  503  501  0.00000000000E+00  0.00000000000E+00  0.86930280134E+03  0.86930280134E+03  0.00000000000E+00 0. -1.
         21   -1    0    0  504  502 -0.00000000000E+00 -0.00000000000E+00 -0.13135603365E+03  0.13135603365E+03  0.00000000000E+00 0.  1.
         25    1    1    2    0    0 -0.58796926545E+02  0.19575533063E+03  0.38683141443E+03  0.45501733070E+03  0.12500000000E+03 0.  0.
         21    1    1    2  503  502  0.39054850623E+02 -0.43180222471E+02 -0.73644006921E+02  0.93878925884E+02  0.00000000000E+00 0.  1.
         21    1    1    2  504  501  0.19742075922E+02 -0.15257510816E+03  0.42475936018E+03  0.45176257841E+03  0.00000000000E+00 0. -1.
<mgrwt>
<rscale>  4 0.20914599E+03</rscale>
<asrwt>0</asrwt>
<pdfrwt beam="1">  1       21 0.13373889E+00 0.20914599E+03</pdfrwt>
<pdfrwt beam="2">  1       21 0.20208621E-01 0.20914599E+03</pdfrwt>
<totfact> 0.89979752E+03</totfact>
</mgrwt>
</event>
<event>
 5    0  0.1283376E+001  0.2656061E+03  0.7546771E-02  0.1103821E+00
         21   -1    0    0  503  501  0.00000000000E+00  0.00000000000E+00  0.18898937433E+03  0.18898937433E+03  0.00000000000E+00 0. -1.
         21   -1    0    0  504  502 -0.00000000000E+00 -0.00000000000E+00 -0.10812664541E+04  0.10812664541E+04  0.00000000000E+00 0. -1.
         25    1    1    2    0    0  0.19188393137E+03  0.13707557289E+03  0.50689217332E+02  0.27166809264E+03  0.12500000000E+03 0.  0.
         21    1    1    2  503  502 -0.16274845952E+03 -0.16317105457E+03 -0.46453360211E+03  0.51855888924E+03  0.00000000000E+00 0. -1.
         21    1    1    2  504  501 -0.29135471848E+02  0.26095481672E+02 -0.47843269497E+03  0.48002884653E+03  0.00000000000E+00 0. -1.
<mgrwt>
<rscale>  4 0.26560609E+03</rscale>
<asrwt>0</asrwt>
<pdfrwt beam="1">  1       21 0.29075288E-01 0.26560609E+03</pdfrwt>
<pdfrwt beam="2">  1       21 0.16634869E+00 0.26560609E+03</pdfrwt>
<totfact> 0.24146475E+03</totfact>
</mgrwt>
</event>
<event>
 5    0  0.1283376E+001  0.2636638E+03  0.7546771E-02  0.1104962E+00
         21   -1    0    0  503  501  0.00000000000E+00  0.00000000000E+00  0.96597303838E+03  0.96597303838E+03  0.00000000000E+00 0.  1.
         21   -1    0    0  504  502 -0.00000000000E+00 -0.00000000000E+00 -0.20925320861E+03  0.20925320861E+03  0.00000000000E+00 0.  1.
         25    1    1    2    0    0  0.10638136126E+02 -0.20508681308E+03  0.52933035201E+03  0.58136855127E+03  0.12500000000E+03 0.  0.
         21    1    1    2  503  502  0.53936985679E+02  0.28956552983E+03  0.33259808859E+03  0.44427343273E+03  0.00000000000E+00 0.  1.
         21    1    1    2  504  501 -0.64575121805E+02 -0.84478716752E+02 -0.10520861084E+03  0.14958426299E+03  0.00000000000E+00 0.  1.
<mgrwt>
<rscale>  4 0.26366384E+03</rscale>
<asrwt>0</asrwt>
<pdfrwt beam="1">  1       21 0.14861123E+00 0.26366384E+03</pdfrwt>
<pdfrwt beam="2">  1       21 0.32192802E-01 0.26366384E+03</pdfrwt>
<totfact> 0.26864469E+03</totfact>
</mgrwt>
</event>
<event>
 5    0  0.1283376E+001  0.2812800E+03  0.7546771E-02  0.1094992E+00
         21   -1    0    0  504  501  0.00000000000E+00  0.00000000000E+00  0.21032293296E+03  0.21032293296E+03  0.00000000000E+00 0. -1.
         21   -1    0    0  503  502 -0.00000000000E+00 -0.00000000000E+00 -0.56231827179E+03  0.56231827179E+03  0.00000000000E+00 0. -1.
         25    1    1    2    0    0  0.11686122958E+03 -0.16937179464E+03 -0.86646522591E+02  0.25588273032E+03  0.12500000000E+03 0.  0.
         21    1    1    2  503  501 -0.16273892731E+03  0.27381253500E+03 -0.14198326732E+03  0.34873558892E+03  0.00000000000E+00 0. -1.
         21    1    1    2  504  502  0.45877697738E+02 -0.10444074035E+03 -0.12336554892E+03  0.16802288551E+03  0.00000000000E+00 0. -1.
<mgrwt>
<rscale>  4 0.28128005E+03</rscale>
<asrwt>0</asrwt>
<pdfrwt beam="1">  1       21 0.32357374E-01 0.28128005E+03</pdfrwt>
<pdfrwt beam="2">  1       21 0.86510503E-01 0.28128005E+03</pdfrwt>
<totfact> 0.10036254E+04</totfact>
</mgrwt>
</event>
<event>
 5    0  0.1283376E+001  0.3200070E+03  0.7546771E-02  0.1075646E+00
         21   -1    0    0  503  501  0.00000000000E+00  0.00000000000E+00  0.15902578037E+04  0.15902578037E+04  0.00000000000E+00 0. -1.
         21   -1    0    0  504  502 -0.00000000000E+00 -0.00000000000E+00 -0.43431381136E+03  0.43431381136E+03  0.00000000000E+00 0.  1.
         25    1    1    2    0    0  0.27140599605E+03 -0.11819660089E+03  0.15130825461E+04  0.15468275413E+04  0.12500000000E+03 0.  0.
         21    1    1    2  503  502 -0.23558147690E+02  0.15417523115E+02 -0.10796382864E+03  0.11157452503E+03  0.00000000000E+00 0.  1.
         21    1    1    2  504  501 -0.24784784836E+03  0.10277907778E+03 -0.24917472514E+03  0.36616954873E+03  0.00000000000E+00 0.  1.
<mgrwt>
<rscale>  4 0.32000705E+03</rscale>
<asrwt>0</asrwt>
<pdfrwt beam="1">  1       21 0.24465504E+00 0.32000705E+03</pdfrwt>
<pdfrwt beam="2">  1       21 0.66817510E-01 0.32000705E+03</pdfrwt>
<totfact> 0.12705035E+02</totfact>
</mgrwt>
</event>
<event>
 5    0  0.1283376E+001  0.3266879E+03  0.7546771E-02  0.1072612E+00
         21   -1    0    0  503  501  0.00000000000E+00  0.00000000000E+00  0.13282036547E+04  0.13282036547E+04  0.00000000000E+00 0.  1.
         21   -1    0    0  504  502 -0.00000000000E+00 -0.00000000000E+00 -0.58846703122E+03  0.58846703122E+03  0.00000000000E+00 0.  1.
         25    1    1    2    0    0  0.34884433061E+03  0.87190383699E+02  0.59098564831E+03  0.70298191051E+03  0.12500000000E+03 0.  0.
         21    1    1    2  503  502 -0.25675935781E+03 -0.95422377055E+02  0.64927884139E+03  0.70469412637E+03  0.00000000000E+00 0.  1.
         21    1    1    2  504  501 -0.92084972798E+02  0.82319933557E+01 -0.50052786620E+03  0.50899464906E+03  0.00000000000E+00 0.  1.
<mgrwt>
<rscale>  4 0.32668792E+03</rscale>
<asrwt>0</asrwt>
<pdfrwt beam="1">  1       21 0.20433902E+00 0.32668792E+03</pdfrwt>
<pdfrwt beam="2">  1       21 0.90533390E-01 0.32668792E+03</pdfrwt>
<totfact> 0.11303245E+02</totfact>
</mgrwt>
</event>
<event>
 5    0  0.1283376E+001  0.4329528E+03  0.7546771E-02  0.1032931E+00
         21   -1    0    0  503  501  0.00000000000E+00  0.00000000000E+00  0.17520868500E+03  0.17520868500E+03  0.00000000000E+00 0.  1.
         21   -1    0    0  504  502 -0.00000000000E+00 -0.00000000000E+00 -0.14114072781E+04  0.14114072781E+04  0.00000000000E+00 0.  1.
         25    1    1    2    0    0 -0.89416386021E+02 -0.33183371665E+03 -0.34550029950E+03  0.50309478486E+03  0.12500000000E+03 0.  0.
         21    1    1    2  503  502  0.11611459556E+03  0.46054855836E+03 -0.77200385593E+03  0.90640913912E+03  0.00000000000E+00 0.  1.
         21    1    1    2  504  501 -0.26698209536E+02 -0.12871484171E+03 -0.11869443765E+03  0.17711203911E+03  0.00000000000E+00 0.  1.
<mgrwt>
<rscale>  4 0.43295280E+03</rscale>
<asrwt>0</asrwt>
<pdfrwt beam="1">  1       21 0.26955181E-01 0.43295280E+03</pdfrwt>
<pdfrwt beam="2">  1       21 0.21713959E+00 0.43295280E+03</pdfrwt>
<totfact> 0.11525344E+03</totfact>
</mgrwt>
</event>
<event>
 5    0  0.1283376E+001  0.2251880E+03  0.7546771E-02  0.1130073E+00
         21   -1    0    0  503  501  0.00000000000E+00  0.00000000000E+00  0.43635220571E+03  0.43635220571E+03  0.00000000000E+00 0. -1.
         21   -1    0    0  504  502 -0.00000000000E+00 -0.00000000000E+00 -0.19469624902E+03  0.19469624902E+03  0.00000000000E+00 0. -1.
         25    1    1    2    0    0  0.13496776484E+02 -0.21092957674E+03  0.27669778723E+03  0.36994609713E+03  0.12500000000E+03 0.  0.
         21    1    1    2  503  502  0.57794991833E+02  0.69596767075E+02 -0.47756692185E+02  0.10229698293E+03  0.00000000000E+00 0. -1.
         21    1    1    2  504  501 -0.71291768317E+02  0.14133280967E+03  0.12714861644E+02  0.15880537467E+03  0.00000000000E+00 0. -1.
<mgrwt>
<rscale>  4 0.22518804E+03</rscale>
<asrwt>0</asrwt>
<pdfrwt beam="1">  1       21 0.67131108E-01 0.22518804E+03</pdfrwt>
<pdfrwt beam="2">  1       21 0.29953269E-01 0.22518804E+03</pdfrwt>
<totfact> 0.21311699E+04</totfact>
</mgrwt>
</event>
<event>
 5    0  0.1283376E+001  0.2687964E+03  0.7546771E-02  0.1101970E+00
         21   -1    0    0  504  501  0.00000000000E+00  0.00000000000E+00  0.28579742601E+03  0.28579742601E+03  0.00000000000E+00 0. -1.
         21   -1    0    0  501  502 -0.00000000000E+00 -0.00000000000E+00 -0.35893061977E+03  0.35893061977E+03  0.00000000000E+00 0. -1.
         25    1    1    2    0    0 -0.58736288318E+02 -0.20795786887E+03 -0.26674747190E+02  0.25106367505E+03  0.12500000000E+03 0.  0.
         21    1    1    2  503  502 -0.25450159709E+02  0.26246767885E+03  0.32938893890E+02  0.26574793283E+03  0.00000000000E+00 0. -1.
         21    1    1    2  504  503  0.84186448027E+02 -0.54509809983E+02 -0.79397340459E+02  0.12791643791E+03  0.00000000000E+00 0. -1.
<mgrwt>
<rscale>  4 0.26879644E+03</rscale>
<asrwt>0</asrwt>
<pdfrwt beam="1">  1       21 0.43968835E-01 0.26879644E+03</pdfrwt>
<pdfrwt beam="2">  1       21 0.55220095E-01 0.26879644E+03</pdfrwt>
<totfact> 0.14731891E+04</totfact>
</mgrwt>
</event>
<event>
 5    0  0.1283376E+001  0.2864675E+03  0.7546771E-02  0.1092208E+00
         21   -1    0    0  504  501  0.00000000000E+00  0.00000000000E+00  0.61071961044E+03  0.61071961044E+03  0.00000000000E+00 0.  1.
         21   -1    0    0  501  502 -0.00000000000E+00 -0.00000000000E+00 -0.41848260330E+03  0.41848260330E+03  0.00000000000E+00 0.  1.
         25    1    1    2    0    0  0.25515307259E+03  0.36544970753E+02  0.53032124080E+03  0.60274724701E+03  0.12500000000E+03 0.  0.
         21    1    1    2  503  502 -0.23604185999E+02 -0.53546156241E+01 -0.17967879372E+02  0.30144223232E+02  0.00000000000E+00 0. -1.
         21    1    1    2  504  503 -0.23154888659E+03 -0.31190355129E+02 -0.32011635428E+03  0.39631074350E+03  0.00000000000E+00 0.  1.
<mgrwt>
<rscale>  4 0.28646749E+03</rscale>
<asrwt>0</asrwt>
<pdfrwt beam="1">  1       21 0.93956863E-01 0.28646749E+03</pdfrwt>
<pdfrwt beam="2">  1       21 0.64381939E-01 0.28646749E+03</pdfrwt>
<totfact> 0.19706508E+03</totfact>
</mgrwt>
</event>
<event>
 5    0  0.1283376E+001  0.5219496E+03  0.7546771E-02  0.1008203E+00
         21   -1    0    0  503  501  0.00000000000E+00  0.00000000000E+00  0.26121737855E+03  0.26121737855E+03  0.00000000000E+00 0.  1.
         21   -1    0    0  504  502 -0.00000000000E+00 -0.00000000000E+00 -0.17837346377E+04  0.17837346377E+04  0.00000000000E+00 0.  1.
         25    1    1    2    0    0  0.13695974510E+03 -0.54128858244E+03 -0.41856174721E+03  0.70892188391E+03  0.12500000000E+03 0.  0.
         21    1    1    2  503  502 -0.20564909369E+03  0.72253704008E+02 -0.62599927074E+03  0.66286290773E+03  0.00000000000E+00 0.  1.
         21    1    1    2  504  501  0.68689348590E+02  0.46903487843E+03 -0.47795624120E+03  0.67316722462E+03  0.00000000000E+00 0.  1.
<mgrwt>
<rscale>  4 0.52194958E+03</rscale>
<asrwt>0</asrwt>
<pdfrwt beam="1">  1       21 0.40187289E-01 0.52194958E+03</pdfrwt>
<pdfrwt beam="2">  1       21 0.27442071E+00 0.52194958E+03</pdfrwt>
<totfact> 0.21781273E+02</totfact>
</mgrwt>
</event>
<event>
 5    0  0.1283376E+001  0.3193932E+03  0.7546771E-02  0.1075929E+00
         21   -1    0    0  503  501  0.00000000000E+00  0.00000000000E+00  0.62117353414E+02  0.62117353414E+02  0.00000000000E+00 0.  1.
         21   -1    0    0  504  502 -0.00000000000E+00 -0.00000000000E+00 -0.24992572796E+04  0.24992572796E+04  0.00000000000E+00 0. -1.
         25    1    1    2    0    0  0.24849987743E+03  0.14198483842E+03 -0.99023406778E+03  0.10383161332E+04  0.12500000000E+03 0.  0.
         21    1    1    2  503  502 -0.32122177053E+03 -0.61530515836E+01 -0.99934978144E+03  0.10497243789E+04  0.00000000000E+00 0.  1.
         21    1    1    2  504  501  0.72721893109E+02 -0.13583178684E+03 -0.44755607700E+03  0.47333412101E+03  0.00000000000E+00 0. -1.
<mgrwt>
<rscale>  4 0.31939321E+03</rscale>
<asrwt>0</asrwt>
<pdfrwt beam="1">  1       21 0.95565147E-02 0.31939321E+03</pdfrwt>
<pdfrwt beam="2">  1       21 0.38450117E+00 0.31939321E+03</pdfrwt>
<totfact> 0.82319263E+02</totfact>
</mgrwt>
</event>
<event>
 5    0  0.1283376E+001  0.1948387E+03  0.7546771E-02  0.1154168E+00
         21   -1    0    0  503  501  0.00000000000E+00  0.00000000000E+00  0.73792107444E+03  0.73792107444E+03  0.00000000000E+00 0. -1.
         21   -1    0    0  504  502 -0.00000000000E+00 -0.00000000000E+00 -0.37271547963E+03  0.37271547963E+03  0.00000000000E+00 0.  1.
         25    1    1    2    0    0  0.98890129442E+01 -0.23705445598E+03  0.31702941221E+03  0.41524120205E+03  0.12500000000E+03 0.  0.
         21    1    1    2  503  502 -0.26127356685E+02  0.12664042298E+03  0.35025424097E+03  0.37336104352E+03  0.00000000000E+00 0. -1.
         21    1    1    2  504  501  0.16238343740E+02  0.11041403299E+03 -0.30207805838E+03  0.32203430848E+03  0.00000000000E+00 0.  1.
<mgrwt>
<rscale>  4 0.19483867E+03</rscale>
<asrwt>0</asrwt>
<pdfrwt beam="1">  1       21 0.11352632E+00 0.19483867E+03</pdfrwt>
<pdfrwt beam="2">  1       21 0.57340843E-01 0.19483867E+03</pdfrwt>
<totfact> 0.17237379E+03</totfact>
</mgrwt>
</event>
<event>
 5    0  0.1283376E+001  0.2425206E+03  0.7546771E-02  0.1118125E+00
         21   -1    0    0  503  501  0.00000000000E+00  0.00000000000E+00  0.44873067201E+03  0.44873067201E+03  0.00000000000E+00 0.  1.
         21   -1    0    0  504  502 -0.00000000000E+00 -0.00000000000E+00 -0.69400013631E+03  0.69400013631E+03  0.00000000000E+00 0. -1.
         25    1    1    2    0    0 -0.19918867479E+03 -0.26198625072E+02  0.23683359478E+03  0.33477999901E+03  0.12500000000E+03 0.  0.
         21    1    1    2  503  502  0.21862274530E+03  0.81896599389E+01  0.89034278384E+02  0.23619923374E+03  0.00000000000E+00 0.  1.
         21    1    1    2  504  501 -0.19434070509E+02  0.18008965133E+02 -0.57113733746E+03  0.57175157557E+03  0.00000000000E+00 0. -1.
<mgrwt>
<rscale>  4 0.24252064E+03</rscale>
<asrwt>0</asrwt>
<pdfrwt beam="1">  1       21 0.69035489E-01 0.24252064E+03</pdfrwt>
<pdfrwt beam="2">  1       21 0.10676925E+00 0.24252064E+03</pdfrwt>
<totfact> 0.12827949E+03</totfact>
</mgrwt>
</event>
<event>
 5    0  0.1283376E+001  0.2846722E+03  0.7546771E-02  0.1093164E+00
         21   -1    0    0  503  501  0.00000000000E+00  0.00000000000E+00  0.14902273787E+03  0.14902273787E+03  0.00000000000E+00 0. -1.
         21   -1    0    0  504  502 -0.00000000000E+00 -0.00000000000E+00 -0.94984551752E+03  0.94984551752E+03  0.00000000000E+00 0. -1.
         25    1    1    2    0    0 -0.16712536836E+03  0.18187500074E+03 -0.91932062337E+02  0.29169488979E+03  0.12500000000E+03 0.  0.
         21    1    1    2  503  502  0.20577466786E+03 -0.18184480150E+03 -0.34364913757E+03  0.43989257270E+03  0.00000000000E+00 0. -1.
         21    1    1    2  504  501 -0.38649299497E+02 -0.30199233072E-01 -0.36524157974E+03  0.36728079290E+03  0.00000000000E+00 0. -1.
<mgrwt>
<rscale>  4 0.28467220E+03</rscale>
<asrwt>0</asrwt>
<pdfrwt beam="1">  1       21 0.22926574E-01 0.28467220E+03</pdfrwt>
<pdfrwt beam="2">  1       21 0.14613008E+00 0.28467220E+03</pdfrwt>
<totfact> 0.53626541E+03</totfact>
</mgrwt>
</event>
<event>
 5    0  0.1283376E+001  0.3455197E+03  0.7546771E-02  0.1064469E+00
         21   -1    0    0  503  501  0.00000000000E+00  0.00000000000E+00  0.58313879495E+03  0.58313879495E+03  0.00000000000E+00 0.  1.
         21   -1    0    0  504  502 -0.00000000000E+00 -0.00000000000E+00 -0.60348988080E+03  0.60348988080E+03  0.00000000000E+00 0.  1.
         25    1    1    2    0    0  0.21885446136E+03  0.16597559480E+03  0.15191997291E+03  0.33786069836E+03  0.12500000000E+03 0.  0.
         21    1    1    2  503  502 -0.21697019930E+03 -0.33010131456E+03  0.19937854351E+03  0.44248700418E+03  0.00000000000E+00 0.  1.
         21    1    1    2  504  501 -0.18842620670E+01  0.16412571976E+03 -0.37164960227E+03  0.40628097321E+03  0.00000000000E+00 0.  1.
<mgrwt>
<rscale>  4 0.34551975E+03</rscale>
<asrwt>0</asrwt>
<pdfrwt beam="1">  1       21 0.89713661E-01 0.34551975E+03</pdfrwt>
<pdfrwt beam="2">  1       21 0.92844597E-01 0.34551975E+03</pdfrwt>
<totfact> 0.92228328E+02</totfact>
</mgrwt>
</event>
<event>
 5    0  0.1283376E+001  0.2898998E+03  0.7546771E-02  0.1090401E+00
         21   -1    0    0  503  501  0.00000000000E+00  0.00000000000E+00  0.92053916410E+03  0.92053916410E+03  0.00000000000E+00 0.  1.
         21   -1    0    0  504  502 -0.00000000000E+00 -0.00000000000E+00 -0.64130130988E+03  0.64130130988E+03  0.00000000000E+00 0.  1.
         25    1    1    2    0    0 -0.25425116093E+03  0.61252179898E+02  0.85075905716E+03  0.89878331967E+03  0.12500000000E+03 0.  0.
         21    1    1    2  503  502  0.97969819322E+01  0.44421414359E+02 -0.18225284756E+02  0.49004121389E+02  0.00000000000E+00 0.  1.
         21    1    1    2  504  501  0.24445417900E+03 -0.10567359426E+03 -0.55329591819E+03  0.61405303292E+03  0.00000000000E+00 0.  1.
<mgrwt>
<rscale>  4 0.28989979E+03</rscale>
<asrwt>0</asrwt>
<pdfrwt beam="1">  1       21 0.14162141E+00 0.28989979E+03</pdfrwt>
<pdfrwt beam="2">  1       21 0.98661739E-01 0.28989979E+03</pdfrwt>
<totfact> 0.26720494E+02</totfact>
</mgrwt>
</event>
<event>
 5    0  0.1283376E+001  0.3573599E+03  0.7546771E-02  0.1059634E+00
         21   -1    0    0  504  501  0.00000000000E+00  0.00000000000E+00  0.32897636318E+03  0.32897636318E+03  0.00000000000E+00 0. -1.
         21   -1    0    0  501  502 -0.00000000000E+00 -0.00000000000E+00 -0.86064816498E+03  0.86064816498E+03  0.00000000000E+00 0. -1.
         25    1    1    2    0    0 -0.26286252796E+03  0.31540656618E+03  0.62901794468E+02  0.43377372712E+03  0.12500000000E+03 0.  0.
         21    1    1    2  503  502  0.15658539518E+03 -0.98308396004E+02 -0.41628322320E+03  0.45549450998E+03  0.00000000000E+00 0. -1.
         21    1    1    2  504  503  0.10627713278E+03 -0.21709817018E+03 -0.17829037308E+03  0.30035629106E+03  0.00000000000E+00 0. -1.
<mgrwt>
<rscale>  4 0.35735993E+03</rscale>
<asrwt>0</asrwt>
<pdfrwt beam="1">  1       21 0.50611749E-01 0.35735993E+03</pdfrwt>
<pdfrwt beam="2">  1       21 0.13240741E+00 0.35735993E+03</pdfrwt>
<totfact> 0.13627951E+03</totfact>
</mgrwt>
</event>
<event>
 5    0  0.1283376E+001  0.2705875E+03  0.7546771E-02  0.1100944E+00
         21   -1    0    0  503  501  0.00000000000E+00  0.00000000000E+00  0.82752768328E+03  0.82752768328E+03  0.00000000000E+00 0.  1.
         21   -1    0    0  504  502 -0.00000000000E+00 -0.00000000000E+00 -0.51915678300E+03  0.51915678300E+03  0.00000000000E+00 0.  1.
         25    1    1    2    0    0  0.24323264402E+03 -0.13824611805E+02  0.76044308156E+03  0.80824001342E+03  0.12500000000E+03 0.  0.
         21    1    1    2  503  502 -0.20254701768E+03 -0.56777392009E+01 -0.20854249345E+03  0.29077053267E+03  0.00000000000E+00 0.  1.
         21    1    1    2  504  501 -0.40685626336E+02  0.19502351006E+02 -0.24352968783E+03  0.24767392018E+03  0.00000000000E+00 0.  1.
<mgrwt>
<rscale>  4 0.27058746E+03</rscale>
<asrwt>0</asrwt>
<pdfrwt beam="1">  1       21 0.12731195E+00 0.27058746E+03</pdfrwt>
<pdfrwt beam="2">  1       21 0.79870275E-01 0.27058746E+03</pdfrwt>
<totfact> 0.58480280E+02</totfact>
</mgrwt>
</event>
<event>
 5    0  0.1283376E+001  0.2772301E+03  0.7546771E-02  0.1097212E+00
         21   -1    0    0  504  501  0.00000000000E+00  0.00000000000E+00  0.79278606656E+03  0.79278606656E+03  0.00000000000E+00 0.  1.
         21   -1    0    0  503  502 -0.00000000000E+00 -0.00000000000E+00 -0.20105053026E+04  0.20105053026E+04  0.00000000000E+00 0.  1.
         25    1    1    2    0    0 -0.22931327942E+03 -0.11986459643E+03  0.73761070990E+03  0.79161016982E+03  0.12500000000E+03 0.  0.
         21    1    1    2  503  501  0.13916472415E+03  0.66266655337E+02 -0.19656365639E+03  0.24979063447E+03  0.00000000000E+00 0.  1.
         21    1    1    2  504  502  0.90148555272E+02  0.53597941095E+02 -0.17587662896E+04  0.17618905649E+04  0.00000000000E+00 0.  1.
<mgrwt>
<rscale>  4 0.27723007E+03</rscale>
<asrwt>0</asrwt>
<pdfrwt beam="1">  1       21 0.12196709E+00 0.27723007E+03</pdfrwt>
<pdfrwt beam="2">  1       21 0.30930850E+00 0.27723007E+03</pdfrwt>
<totfact> 0.13354254E+01</totfact>
</mgrwt>
</event>
<event>
 5    0  0.1283376E+001  0.3101219E+03  0.7546771E-02  0.1080287E+00
         21   -1    0    0  503  501  0.00000000000E+00  0.00000000000E+00  0.12204194651E+04  0.12204194651E+04  0.00000000000E+00 0.  1.
         21   -1    0    0  504  502 -0.00000000000E+00 -0.00000000000E+00 -0.10431067678E+03  0.10431067678E+03  0.00000000000E+00 0.  1.
         25    1    1    2    0    0 -0.25619819157E+03 -0.18003862034E+03  0.69463950389E+03  0.77214018062E+03  0.12500000000E+03 0.  0.
         21    1    1    2  503  502  0.15575416300E+03  0.19906114986E+03  0.26993845964E+03  0.36979923292E+03  0.00000000000E+00 0.  1.
         21    1    1    2  504  501  0.10044402857E+03 -0.19022529517E+02  0.15153082479E+03  0.18279072834E+03  0.00000000000E+00 0. -1.
<mgrwt>
<rscale>  4 0.31012188E+03</rscale>
<asrwt>0</asrwt>
<pdfrwt beam="1">  1       21 0.18775683E+00 0.31012188E+03</pdfrwt>
<pdfrwt beam="2">  1       21 0.16047797E-01 0.31012188E+03</pdfrwt>
<totfact> 0.51472286E+03</totfact>
</mgrwt>
</event>
<event>
 5    0  0.1283376E+001  0.2498627E+03  0.7546771E-02  0.1113392E+00
         21   -1    0    0  504  501  0.00000000000E+00  0.00000000000E+00  0.97144467064E+03  0.97144467064E+03  0.00000000000E+00 0.  1.
         21   -1    0    0  501  502 -0.00000000000E+00 -0.00000000000E+00 -0.83178612001E+02  0.83178612001E+02  0.00000000000E+00 0.  1.
         25    1    1    2    0    0 -0.83264698833E+02  0.19968316629E+03  0.75144704228E+03  0.79189900512E+03  0.12500000000E+03 0.  0.
         21    1    1    2  503  502  0.80654795516E+02 -0.17157796864E+03  0.94448713755E+02  0.21181301871E+03  0.00000000000E+00 0.  1.
         21    1    1    2  504  503  0.26099033170E+01 -0.28105197650E+02  0.42370302606E+02  0.50911258806E+02  0.00000000000E+00 0.  1.
<mgrwt>
<rscale>  4 0.24986272E+03</rscale>
<asrwt>0</asrwt>
<pdfrwt beam="1">  1       21 0.14945302E+00 0.24986272E+03</pdfrwt>
<pdfrwt beam="2">  1       21 0.12796710E-01 0.24986272E+03</pdfrwt>
<totfact> 0.15214832E+04</totfact>
</mgrwt>
</event>
<event>
 5    0  0.1283376E+001  0.4732773E+03  0.7546771E-02  0.1020999E+00
         21   -1    0    0  504  501  0.00000000000E+00  0.00000000000E+00  0.36668814002E+03  0.36668814002E+03  0.00000000000E+00 0. -1.
         21   -1    0    0  501  502 -0.00000000000E+00 -0.00000000000E+00 -0.67929931517E+03  0.67929931517E+03  0.00000000000E+00 0. -1.
         25    1    1    2    0    0  0.43230228610E+03 -0.16039245575E+03 -0.80813974232E+02  0.48452750682E+03  0.12500000000E+03 0.  0.
         21    1    1    2  503  502 -0.34644975974E+00  0.28172921982E+02 -0.80132233872E+02  0.84941205935E+02  0.00000000000E+00 0. -1.
         21    1    1    2  504  503 -0.43195583634E+03  0.13221953377E+03 -0.15166496705E+03  0.47651874243E+03  0.00000000000E+00 0. -1.
<mgrwt>
<rscale>  4 0.47327733E+03</rscale>
<asrwt>0</asrwt>
<pdfrwt beam="1">  1       21 0.56413561E-01 0.47327733E+03</pdfrwt>
<pdfrwt beam="2">  1       21 0.10450759E+00 0.47327733E+03</pdfrwt>
<totfact> 0.18643143E+03</totfact>
</mgrwt>
</event>
<event>
 5    0  0.1283376E+001  0.5251711E+03  0.7546771E-02  0.1007410E+00
         21   -1    0    0  503  501  0.00000000000E+00  0.00000000000E+00  0.42626792960E+03  0.42626792960E+03  0.00000000000E+00 0. -1.
         21   -1    0    0  504  502 -0.00000000000E+00 -0.00000000000E+00 -0.86608151186E+03  0.86608151186E+03  0.00000000000E+00 0.  1.
         25    1    1    2    0    0  0.56534309045E+03 -0.26832111862E+02 -0.34506589811E+03  0.67455781530E+03  0.12500000000E+03 0.  0.
         21    1    1    2  503  502 -0.83433028725E+02 -0.19753237679E+02 -0.10242473946E+03  0.13357427872E+03  0.00000000000E+00 0.  1.
         21    1    1    2  504  501 -0.48191006172E+03  0.46585349541E+02  0.76770553206E+01  0.48421734744E+03  0.00000000000E+00 0. -1.
<mgrwt>
<rscale>  4 0.52517114E+03</rscale>
<asrwt>0</asrwt>
<pdfrwt beam="1">  1       21 0.65579683E-01 0.52517114E+03</pdfrwt>
<pdfrwt beam="2">  1       21 0.13324331E+00 0.52517114E+03</pdfrwt>
<totfact> 0.70901128E+02</totfact>
</mgrwt>
</event>
<event>
 5    0  0.1283376E+001  0.2801119E+03  0.7546771E-02  0.1095628E+00
         21   -1    0    0  504  501  0.00000000000E+00  0.00000000000E+00  0.15998686638E+04  0.15998686638E+04  0.00000000000E+00 0. -1.
         21   -1    0    0  501  502 -0.00000000000E+00 -0.00000000000E+00 -0.16381857317E+03  0.16381857317E+03  0.00000000000E+00 0. -1.
         25    1    1    2    0    0  0.25514300241E+03 -0.28949069875E+02  0.12391423875E+04  0.12716268544E+04  0.12500000000E+03 0.  0.
         21    1    1    2  503  502 -0.28352102665E+02 -0.44466197403E+02 -0.98945738111E+02  0.11212200287E+03  0.00000000000E+00 0. -1.
         21    1    1    2  504  503 -0.22679089974E+03  0.73415267278E+02  0.29585344122E+03  0.37993837968E+03  0.00000000000E+00 0. -1.
<mgrwt>
<rscale>  4 0.28011193E+03</rscale>
<asrwt>0</asrwt>
<pdfrwt beam="1">  1       21 0.24613363E+00 0.28011193E+03</pdfrwt>
<pdfrwt beam="2">  1       21 0.25202859E-01 0.28011193E+03</pdfrwt>
<totfact> 0.95584756E+02</totfact>
</mgrwt>
</event>
<event>
 5    0  0.1283376E+001  0.2782130E+03  0.7546771E-02  0.1096669E+00
         21   -1    0    0  504  501  0.00000000000E+00  0.00000000000E+00  0.11957475205E+03  0.11957475205E+03  0.00000000000E+00 0. -1.
         21   -1    0    0  501  502 -0.00000000000E+00 -0.00000000000E+00 -0.11192411996E+04  0.11192411996E+04  0.00000000000E+00 0. -1.
         25    1    1    2    0    0 -0.18845859813E+03 -0.15433207233E+03 -0.10346151857E+03  0.29268467261E+03  0.12500000000E+03 0.  0.
         21    1    1    2  503  502 -0.55077581648E+01 -0.33091399992E+02 -0.10204528685E+03  0.10741795344E+03  0.00000000000E+00 0. -1.
         21    1    1    2  504  503  0.19396635629E+03  0.18742347232E+03 -0.79415964217E+03  0.83871332564E+03  0.00000000000E+00 0. -1.
<mgrwt>
<rscale>  4 0.27821296E+03</rscale>
<asrwt>0</asrwt>
<pdfrwt beam="1">  1       21 0.18396116E-01 0.27821296E+03</pdfrwt>
<pdfrwt beam="2">  1       21 0.17219095E+00 0.27821296E+03</pdfrwt>
<totfact> 0.52152155E+03</totfact>
</mgrwt>
</event>
<event>
 5    0  0.1283376E+001  0.4135293E+03  0.7546771E-02  0.1039193E+00
         21   -1    0    0  503  501  0.00000000000E+00  0.00000000000E+00  0.63946373276E+03  0.63946373276E+03  0.00000000000E+00 0. -1.
         21   -1    0    0  504  502 -0.00000000000E+00 -0.00000000000E+00 -0.34796176006E+03  0.34796176006E+03  0.00000000000E+00 0. -1.
         25    1    1    2    0    0 -0.81324352776E+02  0.35176726049E+03  0.21622674605E+03  0.43901350961E+03  0.12500000000E+03 0.  0.
         21    1    1    2  503  502  0.84559123833E+02 -0.44167973851E+03  0.85848324835E+02  0.45782220535E+03  0.00000000000E+00 0. -1.
         21    1    1    2  504  501 -0.32347710571E+01  0.89912478021E+02 -0.10573098193E+02  0.90589777862E+02  0.00000000000E+00 0. -1.
<mgrwt>
<rscale>  4 0.41352931E+03</rscale>
<asrwt>0</asrwt>
<pdfrwt beam="1">  1       21 0.98379036E-01 0.41352931E+03</pdfrwt>
<pdfrwt beam="2">  1       21 0.53532578E-01 0.41352931E+03</pdfrwt>
<totfact> 0.24747815E+03</totfact>
</mgrwt>
</event>
<event>
 5    0  0.1283376E+001  0.2664109E+03  0.7546771E-02  0.1103351E+00
         21   -1    0    0  503  501  0.00000000000E+00  0.00000000000E+00  0.77479437677E+03  0.77479437677E+03  0.00000000000E+00 0. -1.
         21   -1    0    0  504  502 -0.00000000000E+00 -0.00000000000E+00 -0.62004931048E+03  0.62004931048E+03  0.00000000000E+00 0. -1.
         25    1    1    2    0    0 -0.21776632192E+03 -0.47964383705E+02  0.44704590678E+03  0.51497358752E+03  0.12500000000E+03 0.  0.
         21    1    1    2  503  502  0.24194901844E+03  0.86080026341E+02  0.23651854132E+03  0.34912765408E+03  0.00000000000E+00 0. -1.
         21    1    1    2  504  501 -0.24182696513E+02 -0.38115642636E+02 -0.52881938181E+03  0.53074244564E+03  0.00000000000E+00 0. -1.
<mgrwt>
<rscale>  4 0.26641092E+03</rscale>
<asrwt>0</asrwt>
<pdfrwt beam="1">  1       21 0.11919913E+00 0.26641092E+03</pdfrwt>
<pdfrwt beam="2">  1       21 0.95392202E-01 0.26641092E+03</pdfrwt>
<totfact> 0.45869782E+02</totfact>
</mgrwt>
</event>
<event>
 5    0  0.1283376E+001  0.3087034E+03  0.7546771E-02  0.1080969E+00
         21   -1    0    0  503  501  0.00000000000E+00  0.00000000000E+00  0.48171018446E+03  0.48171018446E+03  0.00000000000E+00 0.  1.
         21   -1    0    0  504  502 -0.00000000000E+00 -0.00000000000E+00 -0.48635101127E+03  0.48635101127E+03  0.00000000000E+00 0.  1.
         25    1    1    2    0    0  0.20024239283E+03  0.22576363560E+03  0.24781736646E+03  0.41000570991E+03  0.12500000000E+03 0.  0.
         21    1    1    2  503  502 -0.28379496301E+02 -0.35831859252E+02 -0.29489602056E+03  0.29841746077E+03  0.00000000000E+00 0.  1.
         21    1    1    2  504  501 -0.17186289652E+03 -0.18993177635E+03  0.42437827294E+02  0.25963802506E+03  0.00000000000E+00 0.  1.
<mgrwt>
<rscale>  4 0.30870336E+03</rscale>
<asrwt>0</asrwt>
<pdfrwt beam="1">  1       21 0.74109260E-01 0.30870336E+03</pdfrwt>
<pdfrwt beam="2">  1       21 0.74823232E-01 0.30870336E+03</pdfrwt>
<totfact> 0.24068472E+03</totfact>
</mgrwt>
</event>
<event>
 5    0  0.1283376E+001  0.2946155E+03  0.7546771E-02  0.1087964E+00
         21   -1    0    0  503  501  0.00000000000E+00  0.00000000000E+00  0.58475730105E+03  0.58475730105E+03  0.00000000000E+00 0. -1.
         21   -1    0    0  504  502 -0.00000000000E+00 -0.00000000000E+00 -0.35124368800E+03  0.35124368800E+03  0.00000000000E+00 0. -1.
         25    1    1    2    0    0  0.17803505761E+03  0.18152717393E+03  0.36770697767E+03  0.46420040720E+03  0.12500000000E+03 0.  0.
         21    1    1    2  503  502  0.79086066941E+02 -0.69583045083E+01 -0.14002250489E+03  0.16096374083E+03  0.00000000000E+00 0. -1.
         21    1    1    2  504  501 -0.25712112455E+03 -0.17456886942E+03  0.58291402769E+01  0.31083684102E+03  0.00000000000E+00 0. -1.
<mgrwt>
<rscale>  4 0.29461552E+03</rscale>
<asrwt>0</asrwt>
<pdfrwt beam="1">  1       21 0.89962662E-01 0.29461552E+03</pdfrwt>
<pdfrwt beam="2">  1       21 0.54037491E-01 0.29461552E+03</pdfrwt>
<totfact> 0.31730157E+03</totfact>
</mgrwt>
</event>
<event>
 5    0  0.1283376E+001  0.2701089E+03  0.7546771E-02  0.1101217E+00
         21   -1    0    0  502  501  0.00000000000E+00  0.00000000000E+00  0.10787825174E+03  0.10787825174E+03  0.00000000000E+00 0. -1.
         21   -1    0    0  503  502 -0.00000000000E+00 -0.00000000000E+00 -0.15672150968E+04  0.15672150968E+04  0.00000000000E+00 0. -1.
         25    1    1    2    0    0  0.23357426801E+03  0.69779874331E+02 -0.10196664187E+03  0.29231552403E+03  0.12500000000E+03 0.  0.
         21    1    1    2  503  504 -0.20757757233E+03 -0.43006632851E+02 -0.12729050803E+04  0.12904361133E+04  0.00000000000E+00 0. -1.
         21    1    1    2  504  501 -0.25996695680E+02 -0.26773241480E+02 -0.84465122842E+02  0.92341711173E+02  0.00000000000E+00 0. -1.
<mgrwt>
<rscale>  4 0.27010895E+03</rscale>
<asrwt>0</asrwt>
<pdfrwt beam="1">  1       21 0.16596655E-01 0.27010895E+03</pdfrwt>
<pdfrwt beam="2">  1       21 0.24111001E+00 0.27010895E+03</pdfrwt>
<totfact> 0.22740760E+03</totfact>
</mgrwt>
</event>
<event>
 5    0  0.1283376E+001  0.2427809E+03  0.7546771E-02  0.1117954E+00
         21   -1    0    0  503  501  0.00000000000E+00  0.00000000000E+00  0.59332781754E+03  0.59332781754E+03  0.00000000000E+00 0. -1.
         21   -1    0    0  504  502 -0.00000000000E+00 -0.00000000000E+00 -0.64921089906E+03  0.64921089906E+03  0.00000000000E+00 0.  1.
         25    1    1    2    0    0 -0.20771925119E+03 -0.52449008781E+02  0.37164311539E+03  0.44681292624E+03  0.12500000000E+03 0.  0.
         21    1    1    2  503  502  0.10259094091E+02  0.21773078730E+02 -0.55706409813E+03  0.55758382813E+03  0.00000000000E+00 0.  1.
         21    1    1    2  504  501  0.19746015710E+03  0.30675930051E+02  0.12953790122E+03  0.23814196223E+03  0.00000000000E+00 0. -1.
<mgrwt>
<rscale>  4 0.24278093E+03</rscale>
<asrwt>0</asrwt>
<pdfrwt beam="1">  1       21 0.91281202E-01 0.24278093E+03</pdfrwt>
<pdfrwt beam="2">  1       21 0.99878600E-01 0.24278093E+03</pdfrwt>
<totfact> 0.79844625E+02</totfact>
</mgrwt>
</event>
<event>
 5    0  0.1283376E+001  0.2591704E+03  0.7546771E-02  0.1107643E+00
         21   -1    0    0  503  501  0.00000000000E+00  0.00000000000E+00  0.48551386369E+03  0.48551386369E+03  0.00000000000E+00 0.  1.
         21   -1    0    0  504  502 -0.00000000000E+00 -0.00000000000E+00 -0.85578910710E+03  0.85578910710E+03  0.00000000000E+00 0.  1.
         25    1    1    2    0    0  0.47027247318E+02  0.19953803777E+03  0.31645935483E+02  0.24218475538E+03  0.12500000000E+03 0.  0.
         21    1    1    2  503  502 -0.14190911146E+02 -0.23586848649E+03  0.30761466475E+03  0.38789445323E+03  0.00000000000E+00 0.  1.
         21    1    1    2  504  501 -0.32836336172E+02  0.36330448726E+02 -0.70953584364E+03  0.71122376218E+03  0.00000000000E+00 0.  1.
<mgrwt>
<rscale>  4 0.25917043E+03</rscale>
<asrwt>0</asrwt>
<pdfrwt beam="1">  1       21 0.74694441E-01 0.25917043E+03</pdfrwt>
<pdfrwt beam="2">  1       21 0.13165986E+00 0.25917043E+03</pdfrwt>
<totfact> 0.63053611E+02</totfact>
</mgrwt>
</event>
<event>
 5    0  0.1283376E+001  0.2837683E+03  0.7546771E-02  0.1093648E+00
         21   -1    0    0  503  501  0.00000000000E+00  0.00000000000E+00  0.42067253967E+03  0.42067253967E+03  0.00000000000E+00 0.  1.
         21   -1    0    0  504  502 -0.00000000000E+00 -0.00000000000E+00 -0.35468280931E+03  0.35468280931E+03  0.00000000000E+00 0.  1.
         25    1    1    2    0    0  0.26883353608E+03 -0.11169233458E+03  0.24420057764E+03  0.40000696225E+03  0.12500000000E+03 0.  0.
         21    1    1    2  503  502 -0.24268568099E+03  0.53302888042E+02 -0.18671956904E+03  0.31080819663E+03  0.00000000000E+00 0.  1.
         21    1    1    2  504  501 -0.26147855090E+02  0.58389446536E+02  0.85087217591E+01  0.64540190104E+02  0.00000000000E+00 0.  1.
<mgrwt>
<rscale>  4 0.28376834E+03</rscale>
<asrwt>0</asrwt>
<pdfrwt beam="1">  1       21 0.64718852E-01 0.28376834E+03</pdfrwt>
<pdfrwt beam="2">  1       21 0.54566586E-01 0.28376834E+03</pdfrwt>
<totfact> 0.65922785E+03</totfact>
</mgrwt>
</event>
<event>
 5    0  0.1283376E+001  0.2915166E+03  0.7546771E-02  0.1089560E+00
         21   -1    0    0  504  501  0.00000000000E+00  0.00000000000E+00  0.29556617484E+03  0.29556617484E+03  0.00000000000E+00 0. -1.
         21   -1    0    0  501  502 -0.00000000000E+00 -0.00000000000E+00 -0.64507878181E+03  0.64507878181E+03  0.00000000000E+00 0. -1.
         25    1    1    2    0    0  0.12472993661E+03 -0.22766530687E+03  0.16583471650E+03  0.33243826831E+03  0.12500000000E+03 0.  0.
         21    1    1    2  503  502 -0.23681062217E+00 -0.27587043035E+02 -0.10911468419E+03  0.11254827999E+03  0.00000000000E+00 0.  1.
         21    1    1    2  504  503 -0.12449312599E+03  0.25525234990E+03 -0.40623263929E+03  0.49565840836E+03  0.00000000000E+00 0. -1.
<mgrwt>
<rscale>  4 0.29151661E+03</rscale>
<asrwt>0</asrwt>
<pdfrwt beam="1">  1       21 0.45471719E-01 0.29151661E+03</pdfrwt>
<pdfrwt beam="2">  1       21 0.99242890E-01 0.29151661E+03</pdfrwt>
<totfact> 0.36225789E+03</totfact>
</mgrwt>
</event>
<event>
 5    0  0.1283376E+001  0.2946905E+03  0.7546771E-02  0.1087925E+00
         21   -1    0    0  503  501  0.00000000000E+00  0.00000000000E+00  0.30920693378E+03  0.30920693378E+03  0.00000000000E+00 0.  1.
         21   -1    0    0  504  502 -0.00000000000E+00 -0.00000000000E+00 -0.66743552016E+03  0.66743552016E+03  0.00000000000E+00 0.  1.
         25    1    1    2    0    0 -0.10897081607E+03 -0.24104328223E+03  0.98839771382E+02  0.30882163634E+03  0.12500000000E+03 0.  0.
         21    1    1    2  503  502  0.21629898139E+02 -0.16097868917E+02 -0.38622235520E+03  0.38716237102E+03  0.00000000000E+00 0.  1.
         21    1    1    2  504  501  0.87340917933E+02  0.25714115115E+03 -0.70846002567E+02  0.28065844658E+03  0.00000000000E+00 0.  1.
<mgrwt>
<rscale>  4 0.29469051E+03</rscale>
<asrwt>0</asrwt>
<pdfrwt beam="1">  1       21 0.47570298E-01 0.29469051E+03</pdfrwt>
<pdfrwt beam="2">  1       21 0.10268239E+00 0.29469051E+03</pdfrwt>
<totfact> 0.30320869E+03</totfact>
</mgrwt>
</event>
<event>
 5    0  0.1283376E+001  0.2746872E+03  0.7546771E-02  0.1098627E+00
         21   -1    0    0  504  501  0.00000000000E+00  0.00000000000E+00  0.37615958654E+03  0.37615958654E+03  0.00000000000E+00 0. -1.
         21   -1    0    0  501  502 -0.00000000000E+00 -0.00000000000E+00 -0.22213207746E+03  0.22213207746E+03  0.00000000000E+00 0. -1.
         25    1    1    2    0    0  0.24363305652E+03  0.21701885812E+02  0.20934466023E+03  0.34536679754E+03  0.12500000000E+03 0.  0.
         21    1    1    2  503  502 -0.21498073765E+03 -0.29155152631E+02 -0.44950543390E+02  0.22155652064E+03  0.00000000000E+00 0. -1.
         21    1    1    2  504  503 -0.28652318874E+02  0.74532668190E+01 -0.10366607751E+02  0.31368345819E+02  0.00000000000E+00 0.  1.
<mgrwt>
<rscale>  4 0.27468716E+03</rscale>
<asrwt>0</asrwt>
<pdfrwt beam="1">  1       21 0.57870706E-01 0.27468716E+03</pdfrwt>
<pdfrwt beam="2">  1       21 0.34174166E-01 0.27468716E+03</pdfrwt>
<totfact> 0.22155844E+04</totfact>
</mgrwt>
</event>
<event>
 5    0  0.1283376E+001  0.3124070E+03  0.7546771E-02  0.1079198E+00
         21   -1    0    0  503  501  0.00000000000E+00  0.00000000000E+00  0.12326016903E+03  0.12326016903E+03  0.00000000000E+00 0.  1.
         21   -1    0    0  504  502 -0.00000000000E+00 -0.00000000000E+00 -0.14750095104E+04  0.14750095104E+04  0.00000000000E+00 0.  1.
         25    1    1    2    0    0  0.11867263377E+03 -0.26088336737E+03 -0.16265496039E+03  0.35245561637E+03  0.12500000000E+03 0.  0.
         21    1    1    2  503  502  0.67195579056E+02  0.34382880203E+02 -0.18392007699E+03  0.19880649641E+03  0.00000000000E+00 0.  1.
         21    1    1    2  504  501 -0.18586821283E+03  0.22650048716E+03 -0.10051743040E+04  0.10470075667E+04  0.00000000000E+00 0.  1.
<mgrwt>
<rscale>  4 0.31240703E+03</rscale>
<asrwt>0</asrwt>
<pdfrwt beam="1">  1       21 0.18963103E-01 0.31240703E+03</pdfrwt>
<pdfrwt beam="2">  1       21 0.22692453E+00 0.31240703E+03</pdfrwt>
<totfact> 0.21015233E+03</totfact>
</mgrwt>
</event>
<event>
 5    0  0.1283376E+001  0.3143878E+03  0.7546771E-02  0.1078262E+00
         21   -1    0    0  504  501  0.00000000000E+00  0.00000000000E+00  0.77955644658E+02  0.77955644658E+02  0.00000000000E+00 0. -1.
         21   -1    0    0  503  502 -0.00000000000E+00 -0.00000000000E+00 -0.13808373024E+04  0.13808373024E+04  0.00000000000E+00 0. -1.
         25    1    1    2    0    0  0.28448968067E+03  0.11288300899E+03 -0.60220037291E+03  0.68698416376E+03  0.12500000000E+03 0.  0.
         21    1    1    2  503  501 -0.25235070117E+03 -0.10552496566E+03 -0.51409200198E+03  0.58232892875E+03  0.00000000000E+00 0. -1.
         21    1    1    2  504  502 -0.32138979497E+02 -0.73580433273E+01 -0.18658928287E+03  0.18947985457E+03  0.00000000000E+00 0. -1.
<mgrwt>
<rscale>  4 0.31438780E+03</rscale>
<asrwt>0</asrwt>
<pdfrwt beam="1">  1       21 0.11993178E-01 0.31438780E+03</pdfrwt>
<pdfrwt beam="2">  1       21 0.21243648E+00 0.31438780E+03</pdfrwt>
<totfact> 0.60228445E+03</totfact>
</mgrwt>
</event>
<event>
 5    0  0.1283376E+001  0.2335564E+03  0.7546771E-02  0.1124161E+00
         21   -1    0    0  503  501  0.00000000000E+00  0.00000000000E+00  0.13174275507E+04  0.13174275507E+04  0.00000000000E+00 0. -1.
         21   -1    0    0  504  502 -0.00000000000E+00 -0.00000000000E+00 -0.14932779170E+03  0.14932779170E+03  0.00000000000E+00 0. -1.
         25    1    1    2    0    0  0.25360162491E+03  0.12250252315E+02  0.87738690371E+03  0.92189838467E+03  0.12500000000E+03 0.  0.
         21    1    1    2  503  502 -0.10285508936E+03 -0.70240729425E+02 -0.74773768463E+02  0.14527231645E+03  0.00000000000E+00 0. -1.
         21    1    1    2  504  501 -0.15074653555E+03  0.57990477110E+02  0.36548662379E+03  0.39958464133E+03  0.00000000000E+00 0. -1.
<mgrwt>
<rscale>  4 0.23355637E+03</rscale>
<asrwt>0</asrwt>
<pdfrwt beam="1">  1       21 0.20268115E+00 0.23355637E+03</pdfrwt>
<pdfrwt beam="2">  1       21 0.22973507E-01 0.23355637E+03</pdfrwt>
<totfact> 0.22074921E+03</totfact>
</mgrwt>
</event>
<event>
 5    0  0.1283376E+001  0.2796706E+03  0.7546771E-02  0.1095869E+00
         21   -1    0    0  503  501  0.00000000000E+00  0.00000000000E+00  0.50774404124E+03  0.50774404124E+03  0.00000000000E+00 0. -1.
         21   -1    0    0  504  502 -0.00000000000E+00 -0.00000000000E+00 -0.50905555702E+03  0.50905555702E+03  0.00000000000E+00 0. -1.
         25    1    1    2    0    0  0.51784435215E+02  0.23484946354E+03  0.22433550404E+03  0.35183421754E+03  0.12500000000E+03 0.  0.
         21    1    1    2  503  502  0.26781818209E+02  0.15804197115E+02 -0.36587945989E+03  0.36719860785E+03  0.00000000000E+00 0. -1.
         21    1    1    2  504  501 -0.78566253423E+02 -0.25065366066E+03  0.14023244007E+03  0.29776677287E+03  0.00000000000E+00 0. -1.
<mgrwt>
<rscale>  4 0.27967056E+03</rscale>
<asrwt>0</asrwt>
<pdfrwt beam="1">  1       21 0.78114468E-01 0.27967056E+03</pdfrwt>
<pdfrwt beam="2">  1       21 0.78316239E-01 0.27967056E+03</pdfrwt>
<totfact> 0.19596213E+03</totfact>
</mgrwt>
</event>
<event>
 5    0  0.1283376E+001  0.1803947E+03  0.7546771E-02  0.1167422E+00
         21   -1    0    0  504  501  0.00000000000E+00  0.00000000000E+00  0.15721623478E+04  0.15721623478E+04  0.00000000000E+00 0. -1.
         21   -1    0    0  503  502 -0.00000000000E+00 -0.00000000000E+00 -0.14138952656E+03  0.14138952656E+03  0.00000000000E+00 0.  1.
         25    1    1    2    0    0 -0.20969494588E+03  0.20345726312E+02  0.21251485421E+03  0.32430461324E+03  0.12500000000E+03 0.  0.
         21    1    1    2  503  501  0.12497712145E+03  0.14740266382E+02  0.12751443272E+04  0.12813389916E+04  0.00000000000E+00 0. -1.
         21    1    1    2  504  502  0.84717824428E+02 -0.35085992694E+02 -0.56886360126E+02  0.10790826951E+03  0.00000000000E+00 0.  1.
<mgrwt>
<rscale>  4 0.18039466E+03</rscale>
<asrwt>0</asrwt>
<pdfrwt beam="1">  1       21 0.24187112E+00 0.18039466E+03</pdfrwt>
<pdfrwt beam="2">  1       21 0.21752236E-01 0.18039466E+03</pdfrwt>
<totfact> 0.14862284E+03</totfact>
</mgrwt>
</event>
<event>
 5    0  0.1283376E+001  0.2567758E+03  0.7546771E-02  0.1109096E+00
         21   -1    0    0  504  501  0.00000000000E+00  0.00000000000E+00  0.26539977934E+03  0.26539977934E+03  0.00000000000E+00 0.  1.
         21   -1    0    0  501  502 -0.00000000000E+00 -0.00000000000E+00 -0.30195451564E+03  0.30195451564E+03  0.00000000000E+00 0.  1.
         25    1    1    2    0    0  0.35652498956E+02  0.20636806325E+03  0.10621109219E+03  0.26601630460E+03  0.12500000000E+03 0.  0.
         21    1    1    2  503  502 -0.18623962066E+02  0.22593181877E+02  0.29173777929E+01  0.29424733195E+02  0.00000000000E+00 0.  1.
         21    1    1    2  504  503 -0.17028536889E+02 -0.22896124513E+03 -0.14568320628E+03  0.27191325718E+03  0.00000000000E+00 0.  1.
<mgrwt>
<rscale>  4 0.25677580E+03</rscale>
<asrwt>0</asrwt>
<pdfrwt beam="1">  1       21 0.40830736E-01 0.25677580E+03</pdfrwt>
<pdfrwt beam="2">  1       21 0.46454541E-01 0.25677580E+03</pdfrwt>
<totfact> 0.24814782E+04</totfact>
</mgrwt>
</event>
<event>
 5    0  0.1283376E+001  0.3373333E+03  0.7546771E-02  0.1067937E+00
         21   -1    0    0  504  501  0.00000000000E+00  0.00000000000E+00  0.23576406778E+03  0.23576406778E+03  0.00000000000E+00 0.  1.
         21   -1    0    0  501  502 -0.00000000000E+00 -0.00000000000E+00 -0.53993320646E+03  0.53993320646E+03  0.00000000000E+00 0.  1.
         25    1    1    2    0    0 -0.20702715908E+03  0.23594477259E+03 -0.25728153012E+03  0.42467513001E+03  0.12500000000E+03 0.  0.
         21    1    1    2  503  502 -0.16707296142E+02 -0.16588365503E+02 -0.28763561099E+02  0.37170553689E+02  0.00000000000E+00 0.  1.
         21    1    1    2  504  503  0.22373445523E+03 -0.21935640709E+03 -0.18124047463E+02  0.31385159053E+03  0.00000000000E+00 0.  1.
<mgrwt>
<rscale>  4 0.33733334E+03</rscale>
<asrwt>0</asrwt>
<pdfrwt beam="1">  1       21 0.36271395E-01 0.33733334E+03</pdfrwt>
<pdfrwt beam="2">  1       21 0.83066647E-01 0.33733334E+03</pdfrwt>
<totfact> 0.85551584E+03</totfact>
</mgrwt>
</event>
<event>
 5    0  0.1283376E+001  0.2963220E+03  0.7546771E-02  0.1087094E+00
         21   -1    0    0  504  501  0.00000000000E+00  0.00000000000E+00  0.10854060485E+04  0.10854060485E+04  0.00000000000E+00 0. -1.
         21   -1    0    0  501  502 -0.00000000000E+00 -0.00000000000E+00 -0.12990802116E+03  0.12990802116E+03  0.00000000000E+00 0.  1.
         25    1    1    2    0    0  0.71511377633E+02  0.27155353985E+03  0.81558474849E+03  0.87158400864E+03  0.12500000000E+03 0.  0.
         21    1    1    2  503  502  0.13032137088E+02 -0.45161943627E+02 -0.22952639456E+02  0.52309286052E+02  0.00000000000E+00 0.  1.
         21    1    1    2  504  503 -0.84543514721E+02 -0.22639159623E+03  0.16286591826E+03  0.29142077492E+03  0.00000000000E+00 0.  1.
<mgrwt>
<rscale>  4 0.29632199E+03</rscale>
<asrwt>0</asrwt>
<pdfrwt beam="1">  1       21 0.16698554E+00 0.29632199E+03</pdfrwt>
<pdfrwt beam="2">  1       21 0.19985850E-01 0.29632199E+03</pdfrwt>
<totfact> 0.48120243E+03</totfact>
</mgrwt>
</event>
<event>
 5    0  0.1283376E+001  0.4668684E+03  0.7546771E-02  0.1022808E+00
         21   -1    0    0  504  501  0.00000000000E+00  0.00000000000E+00  0.47218992616E+03  0.47218992616E+03  0.00000000000E+00 0.  1.
         21   -1    0    0  501  502 -0.00000000000E+00 -0.00000000000E+00 -0.72939724822E+03  0.72939724822E+03  0.00000000000E+00 0.  1.
         25    1    1    2    0    0 -0.42421938309E+03  0.72040750657E+01 -0.99428611432E+02  0.45334868750E+03  0.12500000000E+03 0.  0.
         21    1    1    2  503  502 -0.19648844661E+02  0.21438004051E+03 -0.12972345038E+03  0.25134250027E+03  0.00000000000E+00 0.  1.
         21    1    1    2  504  503  0.44386822775E+03 -0.22158411558E+03 -0.28055260254E+02  0.49689598661E+03  0.00000000000E+00 0.  1.
<mgrwt>
<rscale>  4 0.46686844E+03</rscale>
<asrwt>0</asrwt>
<pdfrwt beam="1">  1       21 0.72644604E-01 0.46686844E+03</pdfrwt>
<pdfrwt beam="2">  1       21 0.11221496E+00 0.46686844E+03</pdfrwt>
<totfact> 0.89396884E+02</totfact>
</mgrwt>
</event>
<event>
 5    0  0.1283376E+001  0.2616517E+03  0.7546771E-02  0.1106155E+00
         21   -1    0    0  503  501  0.00000000000E+00  0.00000000000E+00  0.64960041304E+03  0.64960041304E+03  0.00000000000E+00 0.  1.
         21   -1    0    0  504  502 -0.00000000000E+00 -0.00000000000E+00 -0.36668088534E+03  0.36668088534E+03  0.00000000000E+00 0.  1.
         25    1    1    2    0    0 -0.11944281761E+03 -0.19699619633E+03  0.54781383412E+03  0.60728830460E+03  0.12500000000E+03 0.  0.
         21    1    1    2  503  502  0.66664393077E+02 -0.33319786046E+02 -0.76431416097E+02  0.10675256818E+03  0.00000000000E+00 0. -1.
         21    1    1    2  504  501  0.52778424537E+02  0.23031598238E+03 -0.18846289033E+03  0.30224042560E+03  0.00000000000E+00 0.  1.
<mgrwt>
<rscale>  4 0.26165166E+03</rscale>
<asrwt>0</asrwt>
<pdfrwt beam="1">  1       21 0.99938525E-01 0.26165166E+03</pdfrwt>
<pdfrwt beam="2">  1       21 0.56412444E-01 0.26165166E+03</pdfrwt>
<totfact> 0.23030240E+03</totfact>
</mgrwt>
</event>
<event>
 5    0  0.1283376E+001  0.4241897E+03  0.7546771E-02  0.1035711E+00
         21   -1    0    0  503  501  0.00000000000E+00  0.00000000000E+00  0.10204523730E+04  0.10204523730E+04  0.00000000000E+00 0. -1.
         21   -1    0    0  504  502 -0.00000000000E+00 -0.00000000000E+00 -0.45388206829E+03  0.45388206829E+03  0.00000000000E+00 0. -1.
         25    1    1    2    0    0 -0.14530616304E+03 -0.34519234086E+03  0.24314003223E+03  0.46369570677E+03  0.12500000000E+03 0.  0.
         21    1    1    2  503  502  0.19156093197E+03  0.37903953414E+03  0.59615219830E+03  0.73195901705E+03  0.00000000000E+00 0. -1.
         21    1    1    2  504  501 -0.46254768936E+02 -0.33847193282E+02 -0.27272192578E+03  0.27867971750E+03  0.00000000000E+00 0. -1.
<mgrwt>
<rscale>  4 0.42418967E+03</rscale>
<asrwt>0</asrwt>
<pdfrwt beam="1">  1       21 0.15699267E+00 0.42418967E+03</pdfrwt>
<pdfrwt beam="2">  1       21 0.69828011E-01 0.42418967E+03</pdfrwt>
<totfact> 0.41396859E+02</totfact>
</mgrwt>
</event>
<event>
 5    0  0.1283376E+001  0.2740735E+03  0.7546771E-02  0.1098971E+00
         21   -1    0    0  503  501  0.00000000000E+00  0.00000000000E+00  0.18477887014E+04  0.18477887014E+04  0.00000000000E+00 0. -1.
         21   -1    0    0  504  502 -0.00000000000E+00 -0.00000000000E+00 -0.15856768920E+03  0.15856768920E+03  0.00000000000E+00 0.  1.
         25    1    1    2    0    0 -0.29072680938E+03  0.86282229254E+02  0.87259045249E+03  0.93220480505E+03  0.12500000000E+03 0.  0.
         21    1    1    2  503  502  0.79974078920E+02 -0.29016770181E+02 -0.10032863962E+03  0.13154338516E+03  0.00000000000E+00 0.  1.
         21    1    1    2  504  501  0.21075273046E+03 -0.57265459072E+02  0.91695919931E+03  0.94260820036E+03  0.00000000000E+00 0. -1.
<mgrwt>
<rscale>  4 0.27407348E+03</rscale>
<asrwt>0</asrwt>
<pdfrwt beam="1">  1       21 0.28427517E+00 0.27407348E+03</pdfrwt>
<pdfrwt beam="2">  1       21 0.24395030E-01 0.27407348E+03</pdfrwt>
<totfact> 0.60771280E+02</totfact>
</mgrwt>
</event>
<event>
 5    0  0.1283376E+001  0.2273135E+03  0.7546771E-02  0.1128545E+00
         21   -1    0    0  503  501  0.00000000000E+00  0.00000000000E+00  0.14582071129E+03  0.14582071129E+03  0.00000000000E+00 0. -1.
         21   -1    0    0  504  502 -0.00000000000E+00 -0.00000000000E+00 -0.43684004032E+03  0.43684004032E+03  0.00000000000E+00 0. -1.
         25    1    1    2    0    0  0.76872040454E+01 -0.21554925452E+03 -0.77737032350E+02  0.26112950892E+03  0.12500000000E+03 0.  0.
         21    1    1    2  503  502 -0.39359136693E+02  0.16354399881E+03 -0.10797121996E+03  0.19988388011E+03  0.00000000000E+00 0. -1.
         21    1    1    2  504  501  0.31671932647E+02  0.52005255711E+02 -0.10531107673E+03  0.12164736257E+03  0.00000000000E+00 0. -1.
<mgrwt>
<rscale>  4 0.22731353E+03</rscale>
<asrwt>0</asrwt>
<pdfrwt beam="1">  1       21 0.22433955E-01 0.22731353E+03</pdfrwt>
<pdfrwt beam="2">  1       21 0.67206160E-01 0.22731353E+03</pdfrwt>
<totfact> 0.37043950E+04</totfact>
</mgrwt>
</event>
<event>
 5    0  0.1283376E+001  0.2486801E+03  0.7546771E-02  0.1114142E+00
         21   -1    0    0  503  501  0.00000000000E+00  0.00000000000E+00  0.33010067488E+03  0.33010067488E+03  0.00000000000E+00 0. -1.
         21   -1    0    0  504  502 -0.00000000000E+00 -0.00000000000E+00 -0.31055074972E+03  0.31055074972E+03  0.00000000000E+00 0. -1.
         25    1    1    2    0    0 -0.18732868217E+03 -0.93544145840E+02  0.34195519503E+02  0.24624556024E+03  0.12500000000E+03 0.  0.
         21    1    1    2  503  502 -0.17294713187E+02  0.16247730013E+02 -0.14020192664E+03  0.14219590736E+03  0.00000000000E+00 0. -1.
         21    1    1    2  504  501  0.20462339536E+03  0.77296415828E+02  0.12555633230E+03  0.25220995700E+03  0.00000000000E+00 0. -1.
<mgrwt>
<rscale>  4 0.24868012E+03</rscale>
<asrwt>0</asrwt>
<pdfrwt beam="1">  1       21 0.50784719E-01 0.24868012E+03</pdfrwt>
<pdfrwt beam="2">  1       21 0.47777038E-01 0.24868012E+03</pdfrwt>
<totfact> 0.14955009E+04</totfact>
</mgrwt>
</event>
<event>
 5    0  0.1283376E+001  0.2667968E+03  0.7546771E-02  0.1103127E+00
         21   -1    0    0  503  501  0.00000000000E+00  0.00000000000E+00  0.92448562545E+03  0.92448562545E+03  0.00000000000E+00 0. -1.
         21   -1    0    0  504  502 -0.00000000000E+00 -0.00000000000E+00 -0.10866992948E+03  0.10866992948E+03  0.00000000000E+00 0. -1.
         25    1    1    2    0    0  0.12949709891E+03  0.20673353269E+03  0.66345873980E+03  0.71785148296E+03  0.12500000000E+03 0.  0.
         21    1    1    2  503  502 -0.13868912008E+03 -0.17105171457E+03  0.16625426159E+03  0.27592361367E+03  0.00000000000E+00 0. -1.
         21    1    1    2  504  501  0.91920211660E+01 -0.35681818121E+02 -0.13897305420E+02  0.39380458295E+02  0.00000000000E+00 0.  1.
<mgrwt>
<rscale>  4 0.26679676E+03</rscale>
<asrwt>0</asrwt>
<pdfrwt beam="1">  1       21 0.14222855E+00 0.26679676E+03</pdfrwt>
<pdfrwt beam="2">  1       21 0.16718451E-01 0.26679676E+03</pdfrwt>
<totfact> 0.10533533E+04</totfact>
</mgrwt>
</event>
<event>
 5    0  0.1283376E+001  0.2486096E+03  0.7546771E-02  0.1114187E+00
         21   -1    0    0  503  501  0.00000000000E+00  0.00000000000E+00  0.93504444914E+03  0.93504444914E+03  0.00000000000E+00 0.  1.
         21   -1    0    0  504  502 -0.00000000000E+00 -0.00000000000E+00 -0.20605374479E+03  0.20605374479E+03  0.00000000000E+00 0.  1.
         25    1    1    2    0    0 -0.21914420223E+03  0.33131168605E+01  0.71353119887E+03  0.75682688236E+03  0.12500000000E+03 0.  0.
         21    1    1    2  503  502  0.20454493637E+03  0.12201486271E+02  0.14625647043E+03  0.25175079424E+03  0.00000000000E+00 0.  1.
         21    1    1    2  504  501  0.14599265866E+02 -0.15514603131E+02 -0.13079696494E+03  0.13252051732E+03  0.00000000000E+00 0.  1.
<mgrwt>
<rscale>  4 0.24860963E+03</rscale>
<asrwt>0</asrwt>
<pdfrwt beam="1">  1       21 0.14385299E+00 0.24860963E+03</pdfrwt>
<pdfrwt beam="2">  1       21 0.31700577E-01 0.24860963E+03</pdfrwt>
<totfact> 0.30499516E+03</totfact>
</mgrwt>
</event>
<event>
 5    0  0.1283376E+001  0.3166109E+03  0.7546771E-02  0.1077220E+00
         21   -1    0    0  503  501  0.00000000000E+00  0.00000000000E+00  0.11184324529E+04  0.11184324529E+04  0.00000000000E+00 0. -1.
         21   -1    0    0  504  502 -0.00000000000E+00 -0.00000000000E+00 -0.18324331776E+04  0.18324331776E+04  0.00000000000E+00 0.  1.
         25    1    1    2    0    0 -0.27433227343E+03  0.66554352647E+00 -0.42061223351E+02  0.30438920103E+03  0.12500000000E+03 0.  0.
         21    1    1    2  503  502  0.26272345905E+03  0.13788323574E+03  0.96195652733E+03  0.10066755997E+04  0.00000000000E+00 0. -1.
         21    1    1    2  504  501  0.11608814383E+02 -0.13854877927E+03 -0.16338960287E+04  0.16398008298E+04  0.00000000000E+00 0.  1.
<mgrwt>
<rscale>  4 0.31661094E+03</rscale>
<asrwt>0</asrwt>
<pdfrwt beam="1">  1       21 0.17206653E+00 0.31661094E+03</pdfrwt>
<pdfrwt beam="2">  1       21 0.28191279E+00 0.31661094E+03</pdfrwt>
<totfact> 0.73976844E+00</totfact>
</mgrwt>
</event>
<event>
 5    0  0.1283376E+001  0.2589309E+03  0.7546771E-02  0.1107787E+00
         21   -1    0    0  504  501  0.00000000000E+00  0.00000000000E+00  0.18621709181E+03  0.18621709181E+03  0.00000000000E+00 0. -1.
         21   -1    0    0  503  502 -0.00000000000E+00 -0.00000000000E+00 -0.34144746734E+03  0.34144746734E+03  0.00000000000E+00 0. -1.
         25    1    1    2    0    0  0.19465117519E+03 -0.11632349282E+03 -0.15318256316E+02  0.25938366171E+03  0.12500000000E+03 0.  0.
         21    1    1    2  503  501 -0.17643273214E+03  0.10062171839E+03 -0.11394924900E+03  0.23288982488E+03  0.00000000000E+00 0. -1.
         21    1    1    2  504  502 -0.18218443049E+02  0.15701774429E+02 -0.25962870219E+02  0.35391072566E+02  0.00000000000E+00 0.  1.
<mgrwt>
<rscale>  4 0.25893095E+03</rscale>
<asrwt>0</asrwt>
<pdfrwt beam="1">  1       21 0.28648783E-01 0.25893095E+03</pdfrwt>
<pdfrwt beam="2">  1       21 0.52530379E-01 0.25893095E+03</pdfrwt>
<totfact> 0.38837932E+04</totfact>
</mgrwt>
</event>
<event>
 5    0  0.1283376E+001  0.2635491E+03  0.7546771E-02  0.1105029E+00
         21   -1    0    0  504  501  0.00000000000E+00  0.00000000000E+00  0.99825341014E+03  0.99825341014E+03  0.00000000000E+00 0. -1.
         21   -1    0    0  501  502 -0.00000000000E+00 -0.00000000000E+00 -0.40207337400E+03  0.40207337400E+03  0.00000000000E+00 0. -1.
         25    1    1    2    0    0  0.33211557978E+02 -0.23082084944E+03  0.93882428820E+03  0.97539597920E+03  0.12500000000E+03 0.  0.
         21    1    1    2  503  502 -0.38563662043E+02  0.21025656111E+03 -0.24564979051E+03  0.32563598864E+03  0.00000000000E+00 0. -1.
         21    1    1    2  504  503  0.53521040649E+01  0.20564288332E+02 -0.96994461546E+02  0.99294816296E+02  0.00000000000E+00 0.  1.
<mgrwt>
<rscale>  4 0.26354910E+03</rscale>
<asrwt>0</asrwt>
<pdfrwt beam="1">  1       21 0.15357745E+00 0.26354910E+03</pdfrwt>
<pdfrwt beam="2">  1       21 0.61857443E-01 0.26354910E+03</pdfrwt>
<totfact> 0.63674889E+02</totfact>
</mgrwt>
</event>
<event>
 5    0  0.1283376E+001  0.4534003E+03  0.7546771E-02  0.1026713E+00
         21   -1    0    0  503  501  0.00000000000E+00  0.00000000000E+00  0.26539713461E+04  0.26539713461E+04  0.00000000000E+00 0. -1.
         21   -1    0    0  504  502 -0.00000000000E+00 -0.00000000000E+00 -0.34746918855E+03  0.34746918855E+03  0.00000000000E+00 0.  1.
         25    1    1    2    0    0  0.38286624121E+03  0.21197194508E+03  0.24447036660E+04  0.24867086035E+04  0.12500000000E+03 0.  0.
         21    1    1    2  503  502 -0.73492095323E+01 -0.46613872133E+02  0.45156102067E+02  0.65314144791E+02  0.00000000000E+00 0.  1.
         21    1    1    2  504  501 -0.37551703168E+03 -0.16535807295E+03 -0.18335761051E+03  0.44941778637E+03  0.00000000000E+00 0.  1.
<mgrwt>
<rscale>  4 0.45340029E+03</rscale>
<asrwt>0</asrwt>
<pdfrwt beam="1">  1       21 0.40830327E+00 0.45340029E+03</pdfrwt>
<pdfrwt beam="2">  1       21 0.53456800E-01 0.45340029E+03</pdfrwt>
<totfact> 0.18595711E+01</totfact>
</mgrwt>
</event>
<event>
 5    0  0.1283376E+001  0.4064844E+03  0.7546771E-02  0.1041557E+00
         21   -1    0    0  503  501  0.00000000000E+00  0.00000000000E+00  0.31580050036E+03  0.31580050036E+03  0.00000000000E+00 0.  1.
         21   -1    0    0  504  502 -0.00000000000E+00 -0.00000000000E+00 -0.14901467788E+04  0.14901467788E+04  0.00000000000E+00 0.  1.
         25    1    1    2    0    0  0.24316079204E+03 -0.30523517647E+03  0.12767501674E+03  0.42921043049E+03  0.12500000000E+03 0.  0.
         21    1    1    2  503  502 -0.23424869531E+03  0.28128864768E+03 -0.86885299289E+03  0.94281561179E+03  0.00000000000E+00 0.  1.
         21    1    1    2  504  501 -0.89120967255E+01  0.23946528794E+02 -0.43316830225E+03  0.43392123685E+03  0.00000000000E+00 0. -1.
<mgrwt>
<rscale>  4 0.40648442E+03</rscale>
<asrwt>0</asrwt>
<pdfrwt beam="1">  1       21 0.48584693E-01 0.40648442E+03</pdfrwt>
<pdfrwt beam="2">  1       21 0.22925335E+00 0.40648442E+03</pdfrwt>
<totfact> 0.29581822E+02</totfact>
</mgrwt>
</event>
<event>
 5    0  0.1283376E+001  0.2407346E+03  0.7546771E-02  0.1119304E+00
         21   -1    0    0  504  501  0.00000000000E+00  0.00000000000E+00  0.21791238555E+03  0.21791238555E+03  0.00000000000E+00 0. -1.
         21   -1    0    0  503  502 -0.00000000000E+00 -0.00000000000E+00 -0.53328079620E+03  0.53328079620E+03  0.00000000000E+00 0. -1.
         25    1    1    2    0    0 -0.20225398227E+03  0.43860267579E+02  0.11145391962E+03  0.26622804626E+03  0.12500000000E+03 0.  0.
         21    1    1    2  503  501  0.19879217208E+03 -0.21077498735E+02 -0.41092184976E+03  0.45696756477E+03  0.00000000000E+00 0. -1.
         21    1    1    2  504  502  0.34618101863E+01 -0.22782768843E+02 -0.15900480515E+02  0.27997570725E+02  0.00000000000E+00 0. -1.
<mgrwt>
<rscale>  4 0.24073463E+03</rscale>
<asrwt>0</asrwt>
<pdfrwt beam="1">  1       21 0.33524983E-01 0.24073463E+03</pdfrwt>
<pdfrwt beam="2">  1       21 0.82043199E-01 0.24073463E+03</pdfrwt>
<totfact> 0.10797744E+04</totfact>
</mgrwt>
</event>
<event>
 5    0  0.1283376E+001  0.2833429E+03  0.7546771E-02  0.1093877E+00
         21   -1    0    0  503  501  0.00000000000E+00  0.00000000000E+00  0.14150799552E+03  0.14150799552E+03  0.00000000000E+00 0.  1.
         21   -1    0    0  504  502 -0.00000000000E+00 -0.00000000000E+00 -0.11637402726E+04  0.11637402726E+04  0.00000000000E+00 0. -1.
         25    1    1    2    0    0 -0.19773880613E+03 -0.69840844533E+02 -0.19843095303E+03  0.31460804525E+03  0.12500000000E+03 0.  0.
         21    1    1    2  503  502  0.27071655013E+03  0.14832845689E+03 -0.22414916378E+03  0.38148608004E+03  0.00000000000E+00 0.  1.
         21    1    1    2  504  501 -0.72977744004E+02 -0.78487612360E+02 -0.59965216023E+03  0.60915414280E+03  0.00000000000E+00 0. -1.
<mgrwt>
<rscale>  4 0.28334286E+03</rscale>
<asrwt>0</asrwt>
<pdfrwt beam="1">  1       21 0.21770460E-01 0.28334286E+03</pdfrwt>
<pdfrwt beam="2">  1       21 0.17903697E+00 0.28334286E+03</pdfrwt>
<totfact> 0.33883741E+03</totfact>
</mgrwt>
</event>
<event>
 5    0  0.1283376E+001  0.2138762E+03  0.7546771E-02  0.1138533E+00
         21   -1    0    0  504  501  0.00000000000E+00  0.00000000000E+00  0.12333610112E+03  0.12333610112E+03  0.00000000000E+00 0.  1.
         21   -1    0    0  501  502 -0.00000000000E+00 -0.00000000000E+00 -0.22907068730E+04  0.22907068730E+04  0.00000000000E+00 0.  1.
         25    1    1    2    0    0  0.20181780247E+03  0.18127168282E+02 -0.15821045363E+02  0.23860914715E+03  0.12500000000E+03 0.  0.
         21    1    1    2  503  502 -0.93780133890E+02  0.19175441380E+01 -0.18821634463E+04  0.18844993047E+04  0.00000000000E+00 0.  1.
         21    1    1    2  504  503 -0.10803766858E+03 -0.20044712420E+02 -0.26938628020E+03  0.29093452234E+03  0.00000000000E+00 0.  1.
<mgrwt>
<rscale>  4 0.21387616E+03</rscale>
<asrwt>0</asrwt>
<pdfrwt beam="1">  1       21 0.18974784E-01 0.21387616E+03</pdfrwt>
<pdfrwt beam="2">  1       21 0.35241645E+00 0.21387616E+03</pdfrwt>
<totfact> 0.41738381E+02</totfact>
</mgrwt>
</event>
<event>
 5    0  0.1283376E+001  0.5271450E+03  0.7546771E-02  0.1006927E+00
         21   -1    0    0  504  501  0.00000000000E+00  0.00000000000E+00  0.11951106308E+04  0.11951106308E+04  0.00000000000E+00 0.  1.
         21   -1    0    0  501  502 -0.00000000000E+00 -0.00000000000E+00 -0.54901596412E+03  0.54901596412E+03  0.00000000000E+00 0. -1.
         25    1    1    2    0    0 -0.31203392652E+03  0.39910446944E+03  0.76681039354E+03  0.92750888323E+03  0.12500000000E+03 0.  0.
         21    1    1    2  503  502 -0.25050682042E+00  0.24020057084E+02 -0.26912256688E+03  0.27019249046E+03  0.00000000000E+00 0. -1.
         21    1    1    2  504  503  0.31228443334E+03 -0.42312452653E+03  0.14840684005E+03  0.54642522126E+03  0.00000000000E+00 0. -1.
<mgrwt>
<rscale>  4 0.52714496E+03</rscale>
<asrwt>0</asrwt>
<pdfrwt beam="1">  1       21 0.18386317E+00 0.52714496E+03</pdfrwt>
<pdfrwt beam="2">  1       21 0.84463994E-01 0.52714496E+03</pdfrwt>
<totfact> 0.16209110E+02</totfact>
</mgrwt>
</event>
<event>
 5    0  0.1283376E+001  0.4114447E+03  0.7546771E-02  0.1039887E+00
         21   -1    0    0  503  501  0.00000000000E+00  0.00000000000E+00  0.46249505515E+03  0.46249505515E+03  0.00000000000E+00 0. -1.
         21   -1    0    0  504  502 -0.00000000000E+00 -0.00000000000E+00 -0.70517584044E+03  0.70517584044E+03  0.00000000000E+00 0. -1.
         25    1    1    2    0    0  0.31201584372E+03  0.26883404330E+03  0.21898023718E+03  0.48291093780E+03  0.12500000000E+03 0.  0.
         21    1    1    2  503  502  0.13848834042E+02 -0.15370396662E+03 -0.96659513412E+02  0.18209821825E+03  0.00000000000E+00 0. -1.
         21    1    1    2  504  501 -0.32586467776E+03 -0.11513007668E+03 -0.36500150906E+03  0.50266173953E+03  0.00000000000E+00 0. -1.
<mgrwt>
<rscale>  4 0.41144470E+03</rscale>
<asrwt>0</asrwt>
<pdfrwt beam="1">  1       21 0.71153086E-01 0.41144470E+03</pdfrwt>
<pdfrwt beam="2">  1       21 0.10848859E+00 0.41144470E+03</pdfrwt>
<totfact> 0.10432054E+03</totfact>
</mgrwt>
</event>
<event>
 5    0  0.1283376E+001  0.2469550E+03  0.7546771E-02  0.1115244E+00
         21   -1    0    0  504  501  0.00000000000E+00  0.00000000000E+00  0.17500892504E+03  0.17500892504E+03  0.00000000000E+00 0.  1.
         21   -1    0    0  501  502 -0.00000000000E+00 -0.00000000000E+00 -0.10634184634E+04  0.10634184634E+04  0.00000000000E+00 0.  1.
         25    1    1    2    0    0 -0.49032600423E+02  0.20726214626E+03  0.67323446898E+02  0.25596726291E+03  0.12500000000E+03 0.  0.
         21    1    1    2  503  502  0.42052271757E+02 -0.33687190522E+02 -0.22890334797E+03  0.23515944182E+03  0.00000000000E+00 0.  1.
         21    1    1    2  504  503  0.69803286662E+01 -0.17357495574E+03 -0.72682963730E+03  0.74730068373E+03  0.00000000000E+00 0.  1.
<mgrwt>
<rscale>  4 0.24695504E+03</rscale>
<asrwt>0</asrwt>
<pdfrwt beam="1">  1       21 0.26924451E-01 0.24695504E+03</pdfrwt>
<pdfrwt beam="2">  1       21 0.16360284E+00 0.24695504E+03</pdfrwt>
<totfact> 0.29756838E+03</totfact>
</mgrwt>
</event>
<event>
 5    0  0.1283376E+001  0.2561682E+03  0.7546771E-02  0.1109468E+00
         21   -1    0    0  503  501  0.00000000000E+00  0.00000000000E+00  0.30609709027E+03  0.30609709027E+03  0.00000000000E+00 0. -1.
         21   -1    0    0  504  502 -0.00000000000E+00 -0.00000000000E+00 -0.45258576427E+03  0.45258576427E+03  0.00000000000E+00 0. -1.
         25    1    1    2    0    0 -0.21637983040E+03 -0.56364149257E+02  0.21268185046E+03  0.33295002304E+03  0.12500000000E+03 0.  0.
         21    1    1    2  503  502  0.18845403210E+03  0.54277879780E+02 -0.28076371962E+03  0.34247522057E+03  0.00000000000E+00 0. -1.
         21    1    1    2  504  501  0.27925798293E+02  0.20862694766E+01 -0.78406804841E+02  0.83257610919E+02  0.00000000000E+00 0. -1.
<mgrwt>
<rscale>  4 0.25616820E+03</rscale>
<asrwt>0</asrwt>
<pdfrwt beam="1">  1       21 0.47091860E-01 0.25616820E+03</pdfrwt>
<pdfrwt beam="2">  1       21 0.69628579E-01 0.25616820E+03</pdfrwt>
<totfact> 0.77658032E+03</totfact>
</mgrwt>
</event>
<event>
 5    0  0.1283376E+001  0.2702795E+03  0.7546771E-02  0.1101120E+00
         21   -1    0    0  504  501  0.00000000000E+00  0.00000000000E+00  0.17628169189E+03  0.17628169189E+03  0.00000000000E+00 0. -1.
         21   -1    0    0  503  502 -0.00000000000E+00 -0.00000000000E+00 -0.67640673925E+03  0.67640673925E+03  0.00000000000E+00 0.  1.
         25    1    1    2    0    0 -0.18971401116E+03  0.16155619967E+03 -0.27327897445E+03  0.39038213273E+03  0.12500000000E+03 0.  0.
         21    1    1    2  503  501  0.16644229574E+03 -0.16792458304E+03 -0.22785567848E+01  0.23644638974E+03  0.00000000000E+00 0. -1.
         21    1    1    2  504  502  0.23271715418E+02  0.63683833708E+01 -0.22456751612E+03  0.22585990867E+03  0.00000000000E+00 0.  1.
<mgrwt>
<rscale>  4 0.27027954E+03</rscale>
<asrwt>0</asrwt>
<pdfrwt beam="1">  1       21 0.27120261E-01 0.27027954E+03</pdfrwt>
<pdfrwt beam="2">  1       21 0.10406257E+00 0.27027954E+03</pdfrwt>
<totfact> 0.92170117E+03</totfact>
</mgrwt>
</event>
<event>
 5    0  0.1283376E+001  0.2681746E+03  0.7546771E-02  0.1102329E+00
         21   -1    0    0  503  501  0.00000000000E+00  0.00000000000E+00  0.34713954072E+03  0.34713954072E+03  0.00000000000E+00 0.  1.
         21   -1    0    0  504  502 -0.00000000000E+00 -0.00000000000E+00 -0.29869044852E+03  0.29869044852E+03  0.00000000000E+00 0.  1.
         25    1    1    2    0    0 -0.20600369366E+03  0.13386671138E+03  0.13769133009E+03  0.30812614397E+03  0.12500000000E+03 0.  0.
         21    1    1    2  503  502 -0.14857716940E+02 -0.66499209262E+02 -0.82091355338E+02  0.10668592787E+03  0.00000000000E+00 0.  1.
         21    1    1    2  504  501  0.22086141060E+03 -0.67367502121E+02 -0.71508825476E+01  0.23101791739E+03  0.00000000000E+00 0.  1.
<mgrwt>
<rscale>  4 0.26817463E+03</rscale>
<asrwt>0</asrwt>
<pdfrwt beam="1">  1       21 0.53406083E-01 0.26817463E+03</pdfrwt>
<pdfrwt beam="2">  1       21 0.45952377E-01 0.26817463E+03</pdfrwt>
<totfact> 0.14441127E+04</totfact>
</mgrwt>
</event>
<event>
 5    0  0.1283376E+001  0.2856519E+03  0.7546771E-02  0.1092641E+00
         21   -1    0    0  503  501  0.00000000000E+00  0.00000000000E+00  0.81331211981E+03  0.81331211981E+03  0.00000000000E+00 0. -1.
         21   -1    0    0  504  502 -0.00000000000E+00 -0.00000000000E+00 -0.10905285664E+03  0.10905285664E+03  0.00000000000E+00 0. -1.
         25    1    1    2    0    0 -0.19491451455E+03 -0.14917312791E+03  0.38892034603E+03  0.47657982083E+03  0.12500000000E+03 0.  0.
         21    1    1    2  503  502 -0.83064188544E+00 -0.38780803543E+02  0.16602482008E+02  0.42193401122E+02  0.00000000000E+00 0.  1.
         21    1    1    2  504  501  0.19574515644E+03  0.18795393145E+03  0.29873643513E+03  0.40359175449E+03  0.00000000000E+00 0. -1.
<mgrwt>
<rscale>  4 0.28565191E+03</rscale>
<asrwt>0</asrwt>
<pdfrwt beam="1">  1       21 0.12512494E+00 0.28565191E+03</pdfrwt>
<pdfrwt beam="2">  1       21 0.16777363E-01 0.28565191E+03</pdfrwt>
<totfact> 0.14416920E+04</totfact>
</mgrwt>
</event>
<event>
 5    0  0.1283376E+001  0.4295474E+03  0.7546771E-02  0.1034003E+00
         21   -1    0    0  502  501  0.00000000000E+00  0.00000000000E+00  0.63249555767E+03  0.63249555767E+03  0.00000000000E+00 0. -1.
         21   -1    0    0  503  502 -0.00000000000E+00 -0.00000000000E+00 -0.13384080937E+04  0.13384080937E+04  0.00000000000E+00 0. -1.
         25    1    1    2    0    0 -0.39577783275E+03  0.11066104374E+03  0.52043602679E+03  0.67480709649E+03  0.12500000000E+03 0.  0.
         21    1    1    2  503  504  0.35144237858E+03 -0.69970466507E+02 -0.10177650148E+04  0.10790056705E+04  0.00000000000E+00 0. -1.
         21    1    1    2  504  501  0.44335454173E+02 -0.40690577232E+02 -0.20858354805E+03  0.21709088440E+03  0.00000000000E+00 0. -1.
<mgrwt>
<rscale>  4 0.42954739E+03</rscale>
<asrwt>0</asrwt>
<pdfrwt beam="1">  1       21 0.97307009E-01 0.42954739E+03</pdfrwt>
<pdfrwt beam="2">  1       21 0.20590894E+00 0.42954739E+03</pdfrwt>
<totfact> 0.86446586E+01</totfact>
</mgrwt>
</event>
<event>
 5    0  0.1283376E+001  0.2261293E+03  0.7546771E-02  0.1129394E+00
         21   -1    0    0  503  501  0.00000000000E+00  0.00000000000E+00  0.74897928417E+03  0.74897928417E+03  0.00000000000E+00 0. -1.
         21   -1    0    0  504  502 -0.00000000000E+00 -0.00000000000E+00 -0.95821853005E+02  0.95821853005E+02  0.00000000000E+00 0. -1.
         25    1    1    2    0    0 -0.63564212279E+02  0.19795659873E+03  0.47151349807E+03  0.53026144771E+03  0.12500000000E+03 0.  0.
         21    1    1    2  503  502 -0.13523711769E+02 -0.16259486130E+03  0.78660321639E+02  0.18112820294E+03  0.00000000000E+00 0. -1.
         21    1    1    2  504  501  0.77087924048E+02 -0.35361737433E+02  0.10298361146E+03  0.13341148653E+03  0.00000000000E+00 0. -1.
<mgrwt>
<rscale>  4 0.22612928E+03</rscale>
<asrwt>0</asrwt>
<pdfrwt beam="1">  1       21 0.11522758E+00 0.22612928E+03</pdfrwt>
<pdfrwt beam="2">  1       21 0.14741824E-01 0.22612928E+03</pdfrwt>
<totfact> 0.23159670E+04</totfact>
</mgrwt>
</event>
<event>
 5    0  0.1283376E+001  0.2654349E+03  0.7546771E-02  0.1103921E+00
         21   -1    0    0  504  501  0.00000000000E+00  0.00000000000E+00  0.12875200863E+04  0.12875200863E+04  0.00000000000E+00 0. -1.
         21   -1    0    0  501  502 -0.00000000000E+00 -0.00000000000E+00 -0.88249120737E+03  0.88249120737E+03  0.00000000000E+00 0.  1.
         25    1    1    2    0    0  0.10892631226E+03  0.23737044267E+03  0.52798153053E+03  0.60216207547E+03  0.12500000000E+03 0.  0.
         21    1    1    2  503  502 -0.30723579351E+02 -0.29675499947E+02 -0.82779353394E+03  0.82889487178E+03  0.00000000000E+00 0.  1.
         21    1    1    2  504  503 -0.78202732912E+02 -0.20769494272E+03  0.70484088230E+03  0.73895434638E+03  0.00000000000E+00 0. -1.
<mgrwt>
<rscale>  4 0.26543492E+03</rscale>
<asrwt>0</asrwt>
<pdfrwt beam="1">  1       21 0.19808001E+00 0.26543492E+03</pdfrwt>
<pdfrwt beam="2">  1       21 0.13576788E+00 0.26543492E+03</pdfrwt>
<totfact> 0.48564904E+01</totfact>
</mgrwt>
</event>
<event>
 5    0  0.1283376E+001  0.3337158E+03  0.7546771E-02  0.1069504E+00
         21   -1    0    0  503  501  0.00000000000E+00  0.00000000000E+00  0.93116151196E+03  0.93116151196E+03  0.00000000000E+00 0.  1.
         21   -1    0    0  504  502 -0.00000000000E+00 -0.00000000000E+00 -0.13031712313E+03  0.13031712313E+03  0.00000000000E+00 0.  1.
         25    1    1    2    0    0  0.25619895948E+03 -0.15807410630E+03  0.46978034541E+03  0.57179008635E+03  0.12500000000E+03 0.  0.
         21    1    1    2  503  502  0.29143410420E+02  0.11630768098E+02  0.40398684182E+01  0.31637535844E+02  0.00000000000E+00 0.  1.
         21    1    1    2  504  501 -0.28534236990E+03  0.14644333821E+03  0.32702417500E+03  0.45805101288E+03  0.00000000000E+00 0.  1.
<mgrwt>
<rscale>  4 0.33371575E+03</rscale>
<asrwt>0</asrwt>
<pdfrwt beam="1">  1       21 0.14325561E+00 0.33371575E+03</pdfrwt>
<pdfrwt beam="2">  1       21 0.20048789E-01 0.33371575E+03</pdfrwt>
<totfact> 0.71137916E+03</totfact>
</mgrwt>
</event>
<event>
 5    0  0.1283376E+001  0.4106674E+03  0.7546771E-02  0.1040147E+00
         21   -1    0    0  503  501  0.00000000000E+00  0.00000000000E+00  0.73633254208E+03  0.73633254208E+03  0.00000000000E+00 0.  1.
         21   -1    0    0  504  502 -0.00000000000E+00 -0.00000000000E+00 -0.11916551254E+04  0.11916551254E+04  0.00000000000E+00 0. -1.
         25    1    1    2    0    0  0.36805357172E+03 -0.12165212227E+03  0.60087260106E+03  0.72590326712E+03  0.12500000000E+03 0.  0.
         21    1    1    2  503  502 -0.39774380378E+03  0.15806577710E+03 -0.56581516779E+03  0.70945875668E+03  0.00000000000E+00 0. -1.
         21    1    1    2  504  501  0.29690232062E+02 -0.36413654839E+02 -0.49038001655E+03  0.49262564364E+03  0.00000000000E+00 0. -1.
<mgrwt>
<rscale>  4 0.41066743E+03</rscale>
<asrwt>0</asrwt>
<pdfrwt beam="1">  1       21 0.11328193E+00 0.41066743E+03</pdfrwt>
<pdfrwt beam="2">  1       21 0.18333155E+00 0.41066743E+03</pdfrwt>
<totfact> 0.85542162E+01</totfact>
</mgrwt>
</event>
<event>
 5    0  0.1283376E+001  0.2848967E+03  0.7546771E-02  0.1093044E+00
         21   -1    0    0  503  501  0.00000000000E+00  0.00000000000E+00  0.20063631928E+03  0.20063631928E+03  0.00000000000E+00 0. -1.
         21   -1    0    0  504  502 -0.00000000000E+00 -0.00000000000E+00 -0.10030747414E+04  0.10030747414E+04  0.00000000000E+00 0. -1.
         25    1    1    2    0    0  0.24129625441E+03  0.12728212707E+03 -0.45618142704E+03  0.54603215715E+03  0.12500000000E+03 0.  0.
         21    1    1    2  503  502 -0.23765434723E+03 -0.86673573113E+02  0.51234018776E+02  0.25810234736E+03  0.00000000000E+00 0. -1.
         21    1    1    2  504  501 -0.36419071751E+01 -0.40608553961E+02 -0.39749101388E+03  0.39957655619E+03  0.00000000000E+00 0. -1.
<mgrwt>
<rscale>  4 0.28489671E+03</rscale>
<asrwt>0</asrwt>
<pdfrwt beam="1">  1       21 0.30867127E-01 0.28489671E+03</pdfrwt>
<pdfrwt beam="2">  1       21 0.15431919E+00 0.28489671E+03</pdfrwt>
<totfact> 0.26025074E+03</totfact>
</mgrwt>
</event>
<event>
 5    0  0.1283376E+001  0.3785962E+03  0.7546771E-02  0.1051454E+00
         21   -1    0    0  503  501  0.00000000000E+00  0.00000000000E+00  0.29232118799E+04  0.29232118799E+04  0.00000000000E+00 0.  1.
         21   -1    0    0  504  502 -0.00000000000E+00 -0.00000000000E+00 -0.74085086713E+02  0.74085086713E+02  0.00000000000E+00 0.  1.
         25    1    1    2    0    0 -0.18555107467E+03  0.29607254495E+03  0.20158011310E+04  0.20496749384E+04  0.12500000000E+03 0.  0.
         21    1    1    2  503  502  0.25133021359E+03 -0.28836533406E+03  0.74216117688E+03  0.83493991078E+03  0.00000000000E+00 0.  1.
         21    1    1    2  504  501 -0.65779138919E+02 -0.77072108868E+01  0.91164485291E+02  0.11268211746E+03  0.00000000000E+00 0.  1.
<mgrwt>
<rscale>  4 0.37859620E+03</rscale>
<asrwt>0</asrwt>
<pdfrwt beam="1">  1       21 0.44972482E+00 0.37859620E+03</pdfrwt>
<pdfrwt beam="2">  1       21 0.11397708E-01 0.37859620E+03</pdfrwt>
<totfact> 0.21529072E+02</totfact>
</mgrwt>
</event>
<event>
 5    0  0.1283376E+001  0.2130442E+03  0.7546771E-02  0.1139178E+00
         21   -1    0    0  504  501  0.00000000000E+00  0.00000000000E+00  0.23776528001E+03  0.23776528001E+03  0.00000000000E+00 0. -1.
         21   -1    0    0  501  502 -0.00000000000E+00 -0.00000000000E+00 -0.37815320720E+03  0.37815320720E+03  0.00000000000E+00 0. -1.
         25    1    1    2    0    0 -0.21089790670E+03  0.10961175479E+03  0.22378619218E+02  0.26947813721E+03  0.12500000000E+03 0.  0.
         21    1    1    2  503  502  0.69328152318E+02 -0.10380729169E+03 -0.16229779714E+03  0.20475087660E+03  0.00000000000E+00 0. -1.
         21    1    1    2  504  503  0.14156975438E+03 -0.58044631030E+01 -0.46874926550E+00  0.14168947340E+03  0.00000000000E+00 0. -1.
<mgrwt>
<rscale>  4 0.21304421E+03</rscale>
<asrwt>0</asrwt>
<pdfrwt beam="1">  1       21 0.36579274E-01 0.21304421E+03</pdfrwt>
<pdfrwt beam="2">  1       21 0.58177417E-01 0.21304421E+03</pdfrwt>
<totfact> 0.19712009E+04</totfact>
</mgrwt>
</event>
<event>
 5    0  0.1283376E+001  0.3169854E+03  0.7546771E-02  0.1077045E+00
         21   -1    0    0  503  501  0.00000000000E+00  0.00000000000E+00  0.29457709426E+03  0.29457709426E+03  0.00000000000E+00 0. -1.
         21   -1    0    0  504  502 -0.00000000000E+00 -0.00000000000E+00 -0.51093203618E+03  0.51093203618E+03  0.00000000000E+00 0. -1.
         25    1    1    2    0    0 -0.74627235115E+02  0.25755652392E+03 -0.66469235973E+02  0.30322886829E+03  0.12500000000E+03 0.  0.
         21    1    1    2  503  502 -0.26913192293E+02  0.33898209956E+02 -0.18652117794E+03  0.19147730512E+03  0.00000000000E+00 0. -1.
         21    1    1    2  504  501  0.10154042741E+03 -0.29145473387E+03  0.36635471990E+02  0.31080295704E+03  0.00000000000E+00 0. -1.
<mgrwt>
<rscale>  4 0.31698543E+03</rscale>
<asrwt>0</asrwt>
<pdfrwt beam="1">  1       21 0.45319554E-01 0.31698543E+03</pdfrwt>
<pdfrwt beam="2">  1       21 0.78604927E-01 0.31698543E+03</pdfrwt>
<totfact> 0.62076966E+03</totfact>
</mgrwt>
</event>
<event>
 5    0  0.1283376E+001  0.4576068E+03  0.7546771E-02  0.1028233E+00
         21   -1    0    0  503  501  0.00000000000E+00  0.00000000000E+00  0.13738170293E+03  0.13738170293E+03  0.00000000000E+00 0.  1.
         21   -1    0    0  504  502 -0.00000000000E+00 -0.00000000000E+00 -0.14119419552E+04  0.14119419552E+04  0.00000000000E+00 0.  1.
         25    1    1    2    0    0 -0.39586205681E+03 -0.72782221755E+02 -0.56193943586E+03  0.70242789623E+03  0.12500000000E+03 0.  0.
         21    1    1    2  503  502  0.22221009813E+03  0.14725424082E+03 -0.37667113444E+03  0.46145669642E+03  0.00000000000E+00 0.  1.
         21    1    1    2  504  501  0.17365195868E+03 -0.74472019062E+02 -0.33594968194E+03  0.38543906545E+03  0.00000000000E+00 0.  1.
<mgrwt>
<rscale>  4 0.44828954E+03</rscale>
<asrwt>0</asrwt>
<pdfrwt beam="1">  1       21 0.21135648E-01 0.45760682E+03</pdfrwt>
<pdfrwt beam="2">  1       21 0.21722183E+00 0.45760682E+03</pdfrwt>
<totfact> 0.18228374E+03</totfact>
</mgrwt>
</event>
<event>
 5    0  0.1283376E+001  0.2249563E+03  0.7546771E-02  0.1130241E+00
         21   -1    0    0  504  501  0.00000000000E+00  0.00000000000E+00  0.77730371982E+03  0.77730371982E+03  0.00000000000E+00 0.  1.
         21   -1    0    0  501  502 -0.00000000000E+00 -0.00000000000E+00 -0.92414790795E+02  0.92414790795E+02  0.00000000000E+00 0.  1.
         25    1    1    2    0    0  0.11266835352E+03 -0.16990936866E+03  0.56854361018E+03  0.61679023024E+03  0.12500000000E+03 0.  0.
         21    1    1    2  503  502 -0.17716079066E+02  0.40560173462E+02 -0.13760086905E+02  0.46350049842E+02  0.00000000000E+00 0.  1.
         21    1    1    2  504  503 -0.94952274457E+02  0.12934919520E+03  0.13010540575E+03  0.20657823053E+03  0.00000000000E+00 0.  1.
<mgrwt>
<rscale>  4 0.22495629E+03</rscale>
<asrwt>0</asrwt>
<pdfrwt beam="1">  1       21 0.11958518E+00 0.22495629E+03</pdfrwt>
<pdfrwt beam="2">  1       21 0.14217661E-01 0.22495629E+03</pdfrwt>
<totfact> 0.22590089E+04</totfact>
</mgrwt>
</event>
<event>
 5    0  0.1283376E+001  0.2394529E+03  0.7546771E-02  0.1120158E+00
         21   -1    0    0  503  501  0.00000000000E+00  0.00000000000E+00  0.17167421986E+04  0.17167421986E+04  0.00000000000E+00 0. -1.
         21   -1    0    0  504  502 -0.00000000000E+00 -0.00000000000E+00 -0.59625732020E+02  0.59625732020E+02  0.00000000000E+00 0. -1.
         25    1    1    2    0    0 -0.16508927150E+03  0.12785975934E+03  0.14465368043E+04  0.14668661534E+04  0.12500000000E+03 0.  0.
         21    1    1    2  503  502  0.14371252306E+03 -0.12194842825E+03  0.21599822257E+03  0.28667043899E+03  0.00000000000E+00 0. -1.
         21    1    1    2  504  501  0.21376748442E+02 -0.59113310844E+01 -0.54185603480E+01  0.22831338230E+02  0.00000000000E+00 0. -1.
<mgrwt>
<rscale>  4 0.23945288E+03</rscale>
<asrwt>0</asrwt>
<pdfrwt beam="1">  1       21 0.26411415E+00 0.23945288E+03</pdfrwt>
<pdfrwt beam="2">  1       21 0.91731908E-02 0.23945288E+03</pdfrwt>
<totfact> 0.49631222E+03</totfact>
</mgrwt>
</event>
<event>
 5    0  0.1283376E+001  0.2384082E+03  0.7546771E-02  0.1120858E+00
         21   -1    0    0  504  501  0.00000000000E+00  0.00000000000E+00  0.57954219297E+03  0.57954219297E+03  0.00000000000E+00 0.  1.
         21   -1    0    0  501  502 -0.00000000000E+00 -0.00000000000E+00 -0.57422150308E+03  0.57422150308E+03  0.00000000000E+00 0. -1.
         25    1    1    2    0    0 -0.44585680738E+02  0.19890719634E+03  0.44547945333E+03  0.50559756627E+03  0.12500000000E+03 0.  0.
         21    1    1    2  503  502  0.44733377454E+02  0.51444442233E+01 -0.44181907167E+03  0.44410768115E+03  0.00000000000E+00 0. -1.
         21    1    1    2  504  503 -0.14769671591E+00 -0.20405164056E+03  0.16603082241E+01  0.20405844862E+03  0.00000000000E+00 0.  1.
<mgrwt>
<rscale>  4 0.23840819E+03</rscale>
<asrwt>0</asrwt>
<pdfrwt beam="1">  1       21 0.89160337E-01 0.23840819E+03</pdfrwt>
<pdfrwt beam="2">  1       21 0.88341770E-01 0.23840819E+03</pdfrwt>
<totfact> 0.11295517E+03</totfact>
</mgrwt>
</event>
<event>
 5    0  0.1283376E+001  0.3881647E+03  0.7546771E-02  0.1047957E+00
         21   -1    0    0  503  501  0.00000000000E+00  0.00000000000E+00  0.46926741243E+03  0.46926741243E+03  0.00000000000E+00 0. -1.
         21   -1    0    0  504  502 -0.00000000000E+00 -0.00000000000E+00 -0.14039623919E+04  0.14039623919E+04  0.00000000000E+00 0. -1.
         25    1    1    2    0    0 -0.18768134159E+02 -0.36670671685E+03  0.33573309875E+03  0.51299880374E+03  0.12500000000E+03 0.  0.
         21    1    1    2  503  502  0.22317766125E+02 -0.39833172001E+01 -0.54592382394E+03  0.54639433658E+03  0.00000000000E+00 0. -1.
         21    1    1    2  504  501 -0.35496319663E+01  0.37069003405E+03 -0.72450425430E+03  0.81383666404E+03  0.00000000000E+00 0. -1.
<mgrwt>
<rscale>  4 0.38816471E+03</rscale>
<asrwt>0</asrwt>
<pdfrwt beam="1">  1       21 0.72194988E-01 0.38816471E+03</pdfrwt>
<pdfrwt beam="2">  1       21 0.21599421E+00 0.38816471E+03</pdfrwt>
<totfact> 0.15303047E+02</totfact>
</mgrwt>
</event>
<event>
 5    0  0.1283376E+001  0.2494316E+03  0.7546771E-02  0.1113665E+00
         21   -1    0    0  503  501  0.00000000000E+00  0.00000000000E+00  0.16678958177E+03  0.16678958177E+03  0.00000000000E+00 0.  1.
         21   -1    0    0  504  502 -0.00000000000E+00 -0.00000000000E+00 -0.28742921730E+04  0.28742921730E+04  0.00000000000E+00 0.  1.
         25    1    1    2    0    0  0.15201719425E+03  0.19170211818E+03 -0.29876658295E+02  0.27636306586E+03  0.12500000000E+03 0.  0.
         21    1    1    2  503  502 -0.10997714926E+03 -0.81248496994E+01 -0.25105183083E+04  0.25129391482E+04  0.00000000000E+00 0.  1.
         21    1    1    2  504  501 -0.42040044995E+02 -0.18357726848E+03 -0.16710762468E+03  0.25177954070E+03  0.00000000000E+00 0. -1.
<mgrwt>
<rscale>  4 0.24943161E+03</rscale>
<asrwt>0</asrwt>
<pdfrwt beam="1">  1       21 0.25659939E-01 0.24943161E+03</pdfrwt>
<pdfrwt beam="2">  1       21 0.44219875E+00 0.24943161E+03</pdfrwt>
<totfact> 0.61368781E+01</totfact>
</mgrwt>
</event>
<event>
 5    0  0.1283376E+001  0.3277101E+03  0.7546771E-02  0.1072155E+00
         21   -1    0    0  504  501  0.00000000000E+00  0.00000000000E+00  0.83610023439E+03  0.83610023439E+03  0.00000000000E+00 0. -1.
         21   -1    0    0  501  502 -0.00000000000E+00 -0.00000000000E+00 -0.16405483771E+03  0.16405483771E+03  0.00000000000E+00 0. -1.
         25    1    1    2    0    0  0.30944435602E+03  0.14209111238E+02  0.56136404966E+03  0.65323219804E+03  0.12500000000E+03 0.  0.
         21    1    1    2  503  502 -0.10709981374E+02  0.21710141129E+02  0.23314009687E+02  0.33609179945E+02  0.00000000000E+00 0.  1.
         21    1    1    2  504  503 -0.29873437464E+03 -0.35919252367E+02  0.87367337334E+02  0.31331369411E+03  0.00000000000E+00 0. -1.
<mgrwt>
<rscale>  4 0.32771007E+03</rscale>
<asrwt>0</asrwt>
<pdfrwt beam="1">  1       21 0.12863080E+00 0.32771007E+03</pdfrwt>
<pdfrwt beam="2">  1       21 0.25239206E-01 0.32771007E+03</pdfrwt>
<totfact> 0.60794993E+03</totfact>
</mgrwt>
</event>
<event>
 5    0  0.1283376E+001  0.1780973E+03  0.7546771E-02  0.1169657E+00
         21   -1    0    0  503  501  0.00000000000E+00  0.00000000000E+00  0.16153682832E+03  0.16153682832E+03  0.00000000000E+00 0.  1.
         21   -1    0    0  504  502 -0.00000000000E+00 -0.00000000000E+00 -0.23118634479E+04  0.23118634479E+04  0.00000000000E+00 0.  1.
         25    1    1    2    0    0 -0.21109767885E+03 -0.71364333036E+02  0.18108707146E+02  0.25614063192E+03  0.12500000000E+03 0.  0.
         21    1    1    2  503  502  0.11565492612E+03  0.48845937328E+02 -0.20842199398E+04  0.20879977838E+04  0.00000000000E+00 0.  1.
         21    1    1    2  504  501  0.95442752731E+02  0.22518395708E+02 -0.84215386932E+02  0.12926186054E+03  0.00000000000E+00 0.  1.
<mgrwt>
<rscale>  4 0.17809727E+03</rscale>
<asrwt>0</asrwt>
<pdfrwt beam="1">  1       21 0.24851820E-01 0.17809727E+03</pdfrwt>
<pdfrwt beam="2">  1       21 0.35567129E+00 0.17809727E+03</pdfrwt>
<totfact> 0.25428136E+02</totfact>
</mgrwt>
</event>
<event>
 5    0  0.1283376E+001  0.3979149E+03  0.7546771E-02  0.1044504E+00
         21   -1    0    0  503  501  0.00000000000E+00  0.00000000000E+00  0.35278402813E+03  0.35278402813E+03  0.00000000000E+00 0.  1.
         21   -1    0    0  504  502 -0.00000000000E+00 -0.00000000000E+00 -0.58300625112E+03  0.58300625112E+03  0.00000000000E+00 0.  1.
         25    1    1    2    0    0  0.18503843084E+03  0.32935089139E+03  0.11746396835E+03  0.41489036432E+03  0.12500000000E+03 0.  0.
         21    1    1    2  503  502  0.59557582783E+01 -0.23525879164E+02 -0.40535327097E+02  0.47244584769E+02  0.00000000000E+00 0. -1.
         21    1    1    2  504  501 -0.19099418912E+03 -0.30582501222E+03 -0.30715086425E+03  0.47365533016E+03  0.00000000000E+00 0.  1.
<mgrwt>
<rscale>  4 0.39791485E+03</rscale>
<asrwt>0</asrwt>
<pdfrwt beam="1">  1       21 0.54274466E-01 0.39791485E+03</pdfrwt>
<pdfrwt beam="2">  1       21 0.89693269E-01 0.39791485E+03</pdfrwt>
<totfact> 0.30142848E+03</totfact>
</mgrwt>
</event>
<event>
 5    0  0.1283376E+001  0.2411400E+03  0.7546771E-02  0.1119036E+00
         21   -1    0    0  504  501  0.00000000000E+00  0.00000000000E+00  0.13274552515E+04  0.13274552515E+04  0.00000000000E+00 0. -1.
         21   -1    0    0  501  502 -0.00000000000E+00 -0.00000000000E+00 -0.12165125247E+03  0.12165125247E+03  0.00000000000E+00 0.  1.
         25    1    1    2    0    0 -0.20605024049E+03  0.81732259780E+01  0.12093154130E+04  0.12331229749E+04  0.12500000000E+03 0.  0.
         21    1    1    2  503  502  0.27197127548E+02  0.94948192320E+01 -0.20651197160E+02  0.35444425277E+02  0.00000000000E+00 0. -1.
         21    1    1    2  504  503  0.17885311294E+03 -0.17668045210E+02  0.17139783237E+02  0.18053910380E+03  0.00000000000E+00 0.  1.
<mgrwt>
<rscale>  4 0.24114001E+03</rscale>
<asrwt>0</asrwt>
<pdfrwt beam="1">  1       21 0.20422388E+00 0.24114001E+03</pdfrwt>
<pdfrwt beam="2">  1       21 0.18715578E-01 0.24114001E+03</pdfrwt>
<totfact> 0.31547665E+03</totfact>
</mgrwt>
</event>
<event>
 5    0  0.1283376E+001  0.2884465E+03  0.7546771E-02  0.1091163E+00
         21   -1    0    0  503  501  0.00000000000E+00  0.00000000000E+00  0.77690701091E+03  0.77690701091E+03  0.00000000000E+00 0.  1.
         21   -1    0    0  504  502 -0.00000000000E+00 -0.00000000000E+00 -0.12768588153E+04  0.12768588153E+04  0.00000000000E+00 0.  1.
         25    1    1    2    0    0 -0.18677762508E+03  0.15559722111E+03  0.31178919719E+03  0.41464910459E+03  0.12500000000E+03 0.  0.
         21    1    1    2  503  502  0.34931495154E+02  0.81603455441E+02 -0.11756254734E+04  0.11789718347E+04  0.00000000000E+00 0.  1.
         21    1    1    2  504  501  0.15184612993E+03 -0.23720067655E+03  0.36388447182E+03  0.46014488692E+03  0.00000000000E+00 0.  1.
<mgrwt>
<rscale>  4 0.28844650E+03</rscale>
<asrwt>0</asrwt>
<pdfrwt beam="1">  1       21 0.11952416E+00 0.28844650E+03</pdfrwt>
<pdfrwt beam="2">  1       21 0.19643982E+00 0.28844650E+03</pdfrwt>
<totfact> 0.67192472E+01</totfact>
</mgrwt>
</event>
<event>
 5    0  0.1283376E+001  0.2504457E+03  0.7546771E-02  0.1113023E+00
         21   -1    0    0  503  501  0.00000000000E+00  0.00000000000E+00  0.10785478262E+04  0.10785478262E+04  0.00000000000E+00 0. -1.
         21   -1    0    0  504  502 -0.00000000000E+00 -0.00000000000E+00 -0.63979917304E+03  0.63979917304E+03  0.00000000000E+00 0. -1.
         25    1    1    2    0    0 -0.14917571174E+03 -0.27137476132E+03  0.16617305340E+03  0.37300956788E+03  0.12500000000E+03 0.  0.
         21    1    1    2  503  502 -0.35847873446E+02  0.16600392773E+03  0.77830187624E+03  0.79661545592E+03  0.00000000000E+00 0. -1.
         21    1    1    2  504  501  0.18502358518E+03  0.10537083359E+03 -0.50572627646E+03  0.54872197546E+03  0.00000000000E+00 0. -1.
<mgrwt>
<rscale>  4 0.25044568E+03</rscale>
<asrwt>0</asrwt>
<pdfrwt beam="1">  1       21 0.16593043E+00 0.25044568E+03</pdfrwt>
<pdfrwt beam="2">  1       21 0.98430643E-01 0.25044568E+03</pdfrwt>
<totfact> 0.18180284E+02</totfact>
</mgrwt>
</event>
<event>
 5    0  0.1283376E+001  0.3174518E+03  0.7546771E-02  0.1076828E+00
         21   -1    0    0  504  501  0.00000000000E+00  0.00000000000E+00  0.62999974927E+03  0.62999974927E+03  0.00000000000E+00 0.  1.
         21   -1    0    0  503  502 -0.00000000000E+00 -0.00000000000E+00 -0.89185903338E+03  0.89185903338E+03  0.00000000000E+00 0. -1.
         25    1    1    2    0    0  0.14944601862E+03  0.26116787037E+03  0.14731475785E+03  0.35758832039E+03  0.12500000000E+03 0.  0.
         21    1    1    2  503  501 -0.17840128977E+03 -0.22628543527E+03  0.32176235941E+03  0.43192954789E+03  0.00000000000E+00 0.  1.
         21    1    1    2  504  502  0.28955271157E+02 -0.34882435103E+02 -0.73093640137E+03  0.73234091437E+03  0.00000000000E+00 0. -1.
<mgrwt>
<rscale>  4 0.31745176E+03</rscale>
<asrwt>0</asrwt>
<pdfrwt beam="1">  1       21 0.96923039E-01 0.31745176E+03</pdfrwt>
<pdfrwt beam="2">  1       21 0.13720908E+00 0.31745176E+03</pdfrwt>
<totfact> 0.29667944E+02</totfact>
</mgrwt>
</event>
<event>
 5    0  0.1283376E+001  0.2997627E+03  0.7546771E-02  0.1085359E+00
         21   -1    0    0  503  501  0.00000000000E+00  0.00000000000E+00  0.60142281208E+03  0.60142281208E+03  0.00000000000E+00 0.  1.
         21   -1    0    0  504  502 -0.00000000000E+00 -0.00000000000E+00 -0.52271935380E+03  0.52271935380E+03  0.00000000000E+00 0.  1.
         25    1    1    2    0    0  0.13045546226E+03  0.25579678984E+03  0.19835008140E+03  0.37069985179E+03  0.12500000000E+03 0.  0.
         21    1    1    2  503  502  0.16199523810E+02 -0.36495215866E+02 -0.38040995886E+03  0.38249975445E+03  0.00000000000E+00 0.  1.
         21    1    1    2  504  501 -0.14665498607E+03 -0.21930157398E+03  0.26076333575E+03  0.37094255965E+03  0.00000000000E+00 0.  1.
<mgrwt>
<rscale>  4 0.29976269E+03</rscale>
<asrwt>0</asrwt>
<pdfrwt beam="1">  1       21 0.92526587E-01 0.29976269E+03</pdfrwt>
<pdfrwt beam="2">  1       21 0.80418362E-01 0.29976269E+03</pdfrwt>
<totfact> 0.12312267E+03</totfact>
</mgrwt>
</event>
<event>
 5    0  0.1283376E+001  0.2883989E+03  0.7546771E-02  0.1091188E+00
         21   -1    0    0  503  501  0.00000000000E+00  0.00000000000E+00  0.38197497601E+04  0.38197497601E+04  0.00000000000E+00 0.  1.
         21   -1    0    0  504  502 -0.00000000000E+00 -0.00000000000E+00 -0.44853442658E+02  0.44853442658E+02  0.00000000000E+00 0.  1.
         25    1    1    2    0    0 -0.23670348130E+03 -0.14717526340E+03  0.30833296075E+04  0.30984246909E+04  0.12500000000E+03 0.  0.
         21    1    1    2  503  502  0.49049755489E+01  0.35459299465E+02  0.26944517344E+03  0.27181266011E+03  0.00000000000E+00 0. -1.
         21    1    1    2  504  501  0.23179850575E+03  0.11171596394E+03  0.42212153644E+03  0.49436585177E+03  0.00000000000E+00 0.  1.
<mgrwt>
<rscale>  4 0.28839887E+03</rscale>
<asrwt>0</asrwt>
<pdfrwt beam="1">  1       21 0.58765355E+00 0.28839887E+03</pdfrwt>
<pdfrwt beam="2">  1       21 0.69005327E-02 0.28839887E+03</pdfrwt>
<totfact> 0.57362901E+01</totfact>
</mgrwt>
</event>
<event>
 5    0  0.1283376E+001  0.2423595E+03  0.7546771E-02  0.1118231E+00
         21   -1    0    0  504  501  0.00000000000E+00  0.00000000000E+00  0.59426249623E+03  0.59426249623E+03  0.00000000000E+00 0.  1.
         21   -1    0    0  503  502 -0.00000000000E+00 -0.00000000000E+00 -0.13272602457E+03  0.13272602457E+03  0.00000000000E+00 0.  1.
         25    1    1    2    0    0 -0.13904566488E+03  0.15107149827E+03  0.40102856363E+03  0.46755235360E+03  0.12500000000E+03 0.  0.
         21    1    1    2  503  501  0.12632985592E+03 -0.17237578304E+03  0.79678840994E+02  0.22808191681E+03  0.00000000000E+00 0.  1.
         21    1    1    2  504  502  0.12715808952E+02  0.21304284768E+02 -0.19170932963E+02  0.31354250389E+02  0.00000000000E+00 0.  1.
<mgrwt>
<rscale>  4 0.24235947E+03</rscale>
<asrwt>0</asrwt>
<pdfrwt beam="1">  1       21 0.91424998E-01 0.24235947E+03</pdfrwt>
<pdfrwt beam="2">  1       21 0.20419389E-01 0.24235947E+03</pdfrwt>
<totfact> 0.21877856E+04</totfact>
</mgrwt>
</event>
<event>
 5    0  0.1283376E+001  0.3624861E+03  0.7546771E-02  0.1057604E+00
         21   -1    0    0  503  501  0.00000000000E+00  0.00000000000E+00  0.27906756934E+03  0.27906756934E+03  0.00000000000E+00 0.  1.
         21   -1    0    0  504  502 -0.00000000000E+00 -0.00000000000E+00 -0.48753026123E+03  0.48753026123E+03  0.00000000000E+00 0.  1.
         25    1    1    2    0    0 -0.12717002501E+03 -0.31559299701E+03 -0.47763177710E+01  0.36251754197E+03  0.12500000000E+03 0.  0.
         21    1    1    2  503  502  0.12869993300E+03  0.26014097161E+03 -0.19015345826E+03  0.34698031004E+03  0.00000000000E+00 0.  1.
         21    1    1    2  504  501 -0.15299079820E+01  0.55452025400E+02 -0.13532915858E+02  0.57099978555E+02  0.00000000000E+00 0. -1.
<mgrwt>
<rscale>  4 0.36248608E+03</rscale>
<asrwt>0</asrwt>
<pdfrwt beam="1">  1       21 0.42933472E-01 0.36248608E+03</pdfrwt>
<pdfrwt beam="2">  1       21 0.75004655E-01 0.36248608E+03</pdfrwt>
<totfact> 0.75796657E+03</totfact>
</mgrwt>
</event>
<event>
 5    0  0.1283376E+001  0.3004493E+03  0.7546771E-02  0.1085016E+00
         21   -1    0    0  504  501  0.00000000000E+00  0.00000000000E+00  0.23148773270E+03  0.23148773270E+03  0.00000000000E+00 0.  1.
         21   -1    0    0  501  502 -0.00000000000E+00 -0.00000000000E+00 -0.57315122226E+03  0.57315122226E+03  0.00000000000E+00 0.  1.
         25    1    1    2    0    0  0.25444273636E+03  0.14333242840E+02 -0.73201634177E+01  0.28394565101E+03  0.12500000000E+03 0.  0.
         21    1    1    2  503  502  0.59176135401E+02 -0.52117403676E+02 -0.10011840757E+03  0.12744306298E+03  0.00000000000E+00 0.  1.
         21    1    1    2  504  503 -0.31361887176E+03  0.37784160835E+02 -0.23422491858E+03  0.39325024096E+03  0.00000000000E+00 0.  1.
<mgrwt>
<rscale>  4 0.30044928E+03</rscale>
<asrwt>0</asrwt>
<pdfrwt beam="1">  1       21 0.35613498E-01 0.30044928E+03</pdfrwt>
<pdfrwt beam="2">  1       21 0.88177110E-01 0.30044928E+03</pdfrwt>
<totfact> 0.78549747E+03</totfact>
</mgrwt>
</event>
<event>
 5    0  0.1283376E+001  0.2833791E+03  0.7546771E-02  0.1093858E+00
         21   -1    0    0  503  501  0.00000000000E+00  0.00000000000E+00  0.18633799130E+03  0.18633799130E+03  0.00000000000E+00 0. -1.
         21   -1    0    0  504  502 -0.00000000000E+00 -0.00000000000E+00 -0.57155306036E+03  0.57155306036E+03  0.00000000000E+00 0. -1.
         25    1    1    2    0    0 -0.94633644873E+02  0.23605761824E+03  0.87864260095E+01  0.28351530321E+03  0.12500000000E+03 0.  0.
         21    1    1    2  503  502  0.30358287426E+02 -0.40370436280E+02 -0.13042925789E+03  0.13986847055E+03  0.00000000000E+00 0. -1.
         21    1    1    2  504  501  0.64275357447E+02 -0.19568718196E+03 -0.26357223718E+03  0.33450727790E+03  0.00000000000E+00 0. -1.
<mgrwt>
<rscale>  4 0.28337912E+03</rscale>
<asrwt>0</asrwt>
<pdfrwt beam="1">  1       21 0.28667384E-01 0.28337912E+03</pdfrwt>
<pdfrwt beam="2">  1       21 0.87931239E-01 0.28337912E+03</pdfrwt>
<totfact> 0.12254695E+04</totfact>
</mgrwt>
</event>
<event>
 5    0  0.1283376E+001  0.2400579E+03  0.7546771E-02  0.1119754E+00
         21   -1    0    0  504  501  0.00000000000E+00  0.00000000000E+00  0.12693018518E+03  0.12693018518E+03  0.00000000000E+00 0.  1.
         21   -1    0    0  501  502 -0.00000000000E+00 -0.00000000000E+00 -0.94101703404E+03  0.94101703404E+03  0.00000000000E+00 0.  1.
         25    1    1    2    0    0 -0.15044512252E+03  0.14585487630E+03 -0.35310033794E+02  0.24653433496E+03  0.12500000000E+03 0.  0.
         21    1    1    2  503  502 -0.12229395627E+02 -0.42372334048E+02 -0.33055727853E+03  0.33348626238E+03  0.00000000000E+00 0.  1.
         21    1    1    2  504  503  0.16267451815E+03 -0.10348254225E+03 -0.44821953654E+03  0.48792662188E+03  0.00000000000E+00 0.  1.
<mgrwt>
<rscale>  4 0.24005791E+03</rscale>
<asrwt>0</asrwt>
<pdfrwt beam="1">  1       21 0.19527721E-01 0.24005791E+03</pdfrwt>
<pdfrwt beam="2">  1       21 0.14477185E+00 0.24005791E+03</pdfrwt>
<totfact> 0.76503011E+03</totfact>
</mgrwt>
</event>
<event>
 5    0  0.1283376E+001  0.4020329E+03  0.7546771E-02  0.1043078E+00
         21   -1    0    0  503  501  0.00000000000E+00  0.00000000000E+00  0.17349647858E+03  0.17349647858E+03  0.00000000000E+00 0.  1.
         21   -1    0    0  504  502 -0.00000000000E+00 -0.00000000000E+00 -0.14552672221E+04  0.14552672221E+04  0.00000000000E+00 0.  1.
         25    1    1    2    0    0 -0.30543227307E+03  0.25907735353E+03 -0.49487515298E+03  0.64879608937E+03  0.12500000000E+03 0.  0.
         21    1    1    2  503  502  0.20631521348E+02 -0.21922960702E+02 -0.52570131628E+03  0.52656257920E+03  0.00000000000E+00 0.  1.
         21    1    1    2  504  501  0.28480075172E+03 -0.23715439283E+03 -0.26119427423E+03  0.45340503207E+03  0.00000000000E+00 0.  1.
<mgrwt>
<rscale>  4 0.40203295E+03</rscale>
<asrwt>0</asrwt>
<pdfrwt beam="1">  1       21 0.26691766E-01 0.40203295E+03</pdfrwt>
<pdfrwt beam="2">  1       21 0.22388726E+00 0.40203295E+03</pdfrwt>
<totfact> 0.10810408E+03</totfact>
</mgrwt>
</event>
<event>
 5    0  0.1283376E+001  0.2989389E+03  0.7546771E-02  0.1085772E+00
         21   -1    0    0  503  501  0.00000000000E+00  0.00000000000E+00  0.92824457735E+03  0.92824457735E+03  0.00000000000E+00 0.  1.
         21   -1    0    0  504  502 -0.00000000000E+00 -0.00000000000E+00 -0.16532901914E+03  0.16532901914E+03  0.00000000000E+00 0.  1.
         25    1    1    2    0    0  0.22363195372E+03  0.88418339185E+02  0.35401106320E+03  0.44584513713E+03  0.12500000000E+03 0.  0.
         21    1    1    2  503  502 -0.26470005010E+03 -0.14777002973E+03  0.46584278022E+03  0.55579815949E+03  0.00000000000E+00 0.  1.
         21    1    1    2  504  501  0.41068096383E+02  0.59351690541E+02 -0.56938285222E+02  0.91930299873E+02  0.00000000000E+00 0.  1.
<mgrwt>
<rscale>  4 0.29893892E+03</rscale>
<asrwt>0</asrwt>
<pdfrwt beam="1">  1       21 0.14280685E+00 0.29893892E+03</pdfrwt>
<pdfrwt beam="2">  1       21 0.25435234E-01 0.29893892E+03</pdfrwt>
<totfact> 0.46318797E+03</totfact>
</mgrwt>
</event>
<event>
 5    0  0.1283376E+001  0.3466034E+03  0.7546771E-02  0.1064018E+00
         21   -1    0    0  504  501  0.00000000000E+00  0.00000000000E+00  0.21999538117E+03  0.21999538117E+03  0.00000000000E+00 0. -1.
         21   -1    0    0  503  502 -0.00000000000E+00 -0.00000000000E+00 -0.10102405587E+04  0.10102405587E+04  0.00000000000E+00 0. -1.
         25    1    1    2    0    0  0.26404486827E+03  0.80791030939E+02 -0.41828118854E+03  0.51655690473E+03  0.12500000000E+03 0.  0.
         21    1    1    2  503  501 -0.34794310065E+03  0.31508576502E+02 -0.37925030089E+02  0.35141926468E+03  0.00000000000E+00 0. -1.
         21    1    1    2  504  502  0.83898232378E+02 -0.11229960744E+03 -0.33403895888E+03  0.36225977044E+03  0.00000000000E+00 0. -1.
<mgrwt>
<rscale>  4 0.34660337E+03</rscale>
<asrwt>0</asrwt>
<pdfrwt beam="1">  1       21 0.33845443E-01 0.34660337E+03</pdfrwt>
<pdfrwt beam="2">  1       21 0.15542163E+00 0.34660337E+03</pdfrwt>
<totfact> 0.20509994E+03</totfact>
</mgrwt>
</event>
<event>
 5    0  0.1283376E+001  0.2349667E+03  0.7546771E-02  0.1123192E+00
         21   -1    0    0  503  501  0.00000000000E+00  0.00000000000E+00  0.29216994039E+03  0.29216994039E+03  0.00000000000E+00 0. -1.
         21   -1    0    0  504  502 -0.00000000000E+00 -0.00000000000E+00 -0.31705889582E+03  0.31705889582E+03  0.00000000000E+00 0. -1.
         25    1    1    2    0    0 -0.40931513857E+02 -0.22100449605E+03  0.13938670665E+03  0.29252697328E+03  0.12500000000E+03 0.  0.
         21    1    1    2  503  502  0.33606349631E+02  0.54994407284E+02 -0.13274737337E+03  0.14756570301E+03  0.00000000000E+00 0.  1.
         21    1    1    2  504  501  0.73251642263E+01  0.16601008877E+03 -0.31528288718E+02  0.16913615992E+03  0.00000000000E+00 0. -1.
<mgrwt>
<rscale>  4 0.23496669E+03</rscale>
<asrwt>0</asrwt>
<pdfrwt beam="1">  1       21 0.44949221E-01 0.23496669E+03</pdfrwt>
<pdfrwt beam="2">  1       21 0.48778292E-01 0.23496669E+03</pdfrwt>
<totfact> 0.18598570E+04</totfact>
</mgrwt>
</event>
<event>
 5    0  0.1283376E+001  0.2599885E+03  0.7546771E-02  0.1107150E+00
         21   -1    0    0  504  501  0.00000000000E+00  0.00000000000E+00  0.82798945544E+02  0.82798945544E+02  0.00000000000E+00 0.  1.
         21   -1    0    0  503  502 -0.00000000000E+00 -0.00000000000E+00 -0.11590044853E+04  0.11590044853E+04  0.00000000000E+00 0.  1.
         25    1    1    2    0    0 -0.63034778911E+00  0.22116705504E+03 -0.21231936358E+03  0.33108877318E+03  0.12500000000E+03 0.  0.
         21    1    1    2  503  501 -0.46359033252E+01 -0.24434642239E+03 -0.63189070078E+03  0.67750462985E+03  0.00000000000E+00 0.  1.
         21    1    1    2  504  502  0.52662511143E+01  0.23179367350E+02 -0.23199547542E+03  0.23321002784E+03  0.00000000000E+00 0. -1.
<mgrwt>
<rscale>  4 0.25998851E+03</rscale>
<asrwt>0</asrwt>
<pdfrwt beam="1">  1       21 0.12738299E-01 0.25998851E+03</pdfrwt>
<pdfrwt beam="2">  1       21 0.17830839E+00 0.25998851E+03</pdfrwt>
<totfact> 0.93905581E+03</totfact>
</mgrwt>
</event>
<event>
 5    0  0.1283376E+001  0.2819782E+03  0.7546771E-02  0.1094613E+00
         21   -1    0    0  503  501  0.00000000000E+00  0.00000000000E+00  0.26481957193E+03  0.26481957193E+03  0.00000000000E+00 0.  1.
         21   -1    0    0  504  502 -0.00000000000E+00 -0.00000000000E+00 -0.59952075953E+03  0.59952075953E+03  0.00000000000E+00 0.  1.
         25    1    1    2    0    0  0.53340786775E+02  0.26219631183E+03 -0.68832906239E+02  0.30324101710E+03  0.12500000000E+03 0.  0.
         21    1    1    2  503  502 -0.13119230582E+03 -0.21273211667E+03  0.29496901559E+02  0.25166732360E+03  0.00000000000E+00 0.  1.
         21    1    1    2  504  501  0.77851519040E+02 -0.49464195168E+02 -0.29536518292E+03  0.30943199075E+03  0.00000000000E+00 0.  1.
<mgrwt>
<rscale>  4 0.28197816E+03</rscale>
<asrwt>0</asrwt>
<pdfrwt beam="1">  1       21 0.40741473E-01 0.28197816E+03</pdfrwt>
<pdfrwt beam="2">  1       21 0.92233962E-01 0.28197816E+03</pdfrwt>
<totfact> 0.54328133E+03</totfact>
</mgrwt>
</event>
<event>
 5    0  0.1283376E+001  0.3271623E+03  0.7546771E-02  0.1072399E+00
         21   -1    0    0  503  501  0.00000000000E+00  0.00000000000E+00  0.12445450595E+04  0.12445450595E+04  0.00000000000E+00 0.  1.
         21   -1    0    0  504  502 -0.00000000000E+00 -0.00000000000E+00 -0.32116640086E+03  0.32116640086E+03  0.00000000000E+00 0.  1.
         25    1    1    2    0    0 -0.24560594648E+03 -0.26687870957E+03  0.65874540075E+03  0.76231032367E+03  0.12500000000E+03 0.  0.
         21    1    1    2  503  502  0.10387719351E+03  0.24807519840E+03  0.47688085820E+03  0.54749166963E+03  0.00000000000E+00 0.  1.
         21    1    1    2  504  501  0.14172875296E+03  0.18803511170E+02 -0.21224760035E+03  0.25590946701E+03  0.00000000000E+00 0.  1.
<mgrwt>
<rscale>  4 0.32716234E+03</rscale>
<asrwt>0</asrwt>
<pdfrwt beam="1">  1       21 0.19146847E+00 0.32716234E+03</pdfrwt>
<pdfrwt beam="2">  1       21 0.49410216E-01 0.32716234E+03</pdfrwt>
<totfact> 0.52758546E+02</totfact>
</mgrwt>
</event>
<event>
 5    0  0.1283376E+001  0.4008509E+03  0.7546771E-02  0.1043485E+00
         21   -1    0    0  504  501  0.00000000000E+00  0.00000000000E+00  0.20698602659E+04  0.20698602659E+04  0.00000000000E+00 0.  1.
         21   -1    0    0  501  502 -0.00000000000E+00 -0.00000000000E+00 -0.10197376728E+03  0.10197376728E+03  0.00000000000E+00 0.  1.
         25    1    1    2    0    0 -0.10968657042E+03  0.38438816278E+03  0.12896834513E+04  0.13559844424E+04  0.12500000000E+03 0.  0.
         21    1    1    2  503  502  0.65551135387E+02 -0.30002394297E+02  0.34962407844E+02  0.80121563742E+02  0.00000000000E+00 0.  1.
         21    1    1    2  504  503  0.44135435037E+02 -0.35438576848E+03  0.64324063953E+03  0.73572802711E+03  0.00000000000E+00 0.  1.
<mgrwt>
<rscale>  4 0.40085091E+03</rscale>
<asrwt>0</asrwt>
<pdfrwt beam="1">  1       21 0.31844001E+00 0.40085091E+03</pdfrwt>
<pdfrwt beam="2">  1       21 0.15688273E-01 0.40085091E+03</pdfrwt>
<totfact> 0.79457796E+02</totfact>
</mgrwt>
</event>
<event>
 5    0  0.1283376E+001  0.2545704E+03  0.7546771E-02  0.1110450E+00
         21   -1    0    0  503  501  0.00000000000E+00  0.00000000000E+00  0.12450313864E+04  0.12450313864E+04  0.00000000000E+00 0. -1.
         21   -1    0    0  504  502 -0.00000000000E+00 -0.00000000000E+00 -0.12894314339E+03  0.12894314339E+03  0.00000000000E+00 0. -1.
         25    1    1    2    0    0  0.12764083619E+03  0.17505978381E+03  0.94748951526E+03  0.97994871932E+03  0.12500000000E+03 0.  0.
         21    1    1    2  503  502 -0.10952337682E+03 -0.21432657453E+03  0.22053265551E+03  0.32644433334E+03  0.00000000000E+00 0. -1.
         21    1    1    2  504  501 -0.18117459371E+02  0.39266790723E+02 -0.51933927807E+02  0.67581477087E+02  0.00000000000E+00 0. -1.
<mgrwt>
<rscale>  4 0.25457044E+03</rscale>
<asrwt>0</asrwt>
<pdfrwt beam="1">  1       21 0.19154328E+00 0.25457044E+03</pdfrwt>
<pdfrwt beam="2">  1       21 0.19837407E-01 0.25457044E+03</pdfrwt>
<totfact> 0.33887136E+03</totfact>
</mgrwt>
</event>
<event>
 5    0  0.1283376E+001  0.2324558E+03  0.7546771E-02  0.1124923E+00
         21   -1    0    0  503  501  0.00000000000E+00  0.00000000000E+00  0.57178035214E+03  0.57178035214E+03  0.00000000000E+00 0.  1.
         21   -1    0    0  504  502 -0.00000000000E+00 -0.00000000000E+00 -0.49474941891E+03  0.49474941891E+03  0.00000000000E+00 0.  1.
         25    1    1    2    0    0 -0.23751330801E+03  0.37620129549E+02 -0.23894346978E+02  0.27207312518E+03  0.12500000000E+03 0.  0.
         21    1    1    2  503  502  0.18904911752E+03  0.27870935990E+02  0.42197684231E+03  0.46322868365E+03  0.00000000000E+00 0.  1.
         21    1    1    2  504  501  0.48464190491E+02 -0.65491065539E+02 -0.32105156210E+03  0.33122796222E+03  0.00000000000E+00 0.  1.
<mgrwt>
<rscale>  4 0.23245582E+03</rscale>
<asrwt>0</asrwt>
<pdfrwt beam="1">  1       21 0.87966208E-01 0.23245582E+03</pdfrwt>
<pdfrwt beam="2">  1       21 0.76115295E-01 0.23245582E+03</pdfrwt>
<totfact> 0.16455734E+03</totfact>
</mgrwt>
</event>
<event>
 5    0  0.1283376E+001  0.2613179E+03  0.7546771E-02  0.1106354E+00
         21   -1    0    0  504  501  0.00000000000E+00  0.00000000000E+00  0.16469175733E+03  0.16469175733E+03  0.00000000000E+00 0. -1.
         21   -1    0    0  501  502 -0.00000000000E+00 -0.00000000000E+00 -0.71934985312E+03  0.71934985312E+03  0.00000000000E+00 0.  1.
         25    1    1    2    0    0  0.12394330196E+03  0.19818945626E+03  0.10065480819E+02  0.26526838594E+03  0.12500000000E+03 0.  0.
         21    1    1    2  503  502 -0.37534761774E+02 -0.14340299418E+01 -0.98086179190E+02  0.10503243942E+03  0.00000000000E+00 0. -1.
         21    1    1    2  504  503 -0.86408540185E+02 -0.19675542632E+03 -0.46663739741E+03  0.51374078509E+03  0.00000000000E+00 0.  1.
<mgrwt>
<rscale>  4 0.26131785E+03</rscale>
<asrwt>0</asrwt>
<pdfrwt beam="1">  1       21 0.25337194E-01 0.26131785E+03</pdfrwt>
<pdfrwt beam="2">  1       21 0.11066921E+00 0.26131785E+03</pdfrwt>
<totfact> 0.90935277E+03</totfact>
</mgrwt>
</event>
<event>
 5    0  0.1283376E+001  0.2854096E+03  0.7546771E-02  0.1092770E+00
         21   -1    0    0  503  501  0.00000000000E+00  0.00000000000E+00  0.73416734693E+02  0.73416734693E+02  0.00000000000E+00 0.  1.
         21   -1    0    0  504  502 -0.00000000000E+00 -0.00000000000E+00 -0.24456031079E+04  0.24456031079E+04  0.00000000000E+00 0. -1.
         25    1    1    2    0    0 -0.97291622929E+02  0.23741945874E+03 -0.24779827168E+03  0.37797174859E+03  0.12500000000E+03 0.  0.
         21    1    1    2  503  502  0.70225412902E+00 -0.86969211588E+02 -0.77603483099E+03  0.78089320386E+03  0.00000000000E+00 0. -1.
         21    1    1    2  504  501  0.96589368800E+02 -0.15045024715E+03 -0.13483532705E+04  0.13601548902E+04  0.00000000000E+00 0. -1.
<mgrwt>
<rscale>  4 0.28540963E+03</rscale>
<asrwt>0</asrwt>
<pdfrwt beam="1">  1       21 0.11294883E-01 0.28540963E+03</pdfrwt>
<pdfrwt beam="2">  1       21 0.37624659E+00 0.28540963E+03</pdfrwt>
<totfact> 0.70913856E+02</totfact>
</mgrwt>
</event>
<event>
 5    0  0.1283376E+001  0.3126379E+03  0.7546771E-02  0.1079088E+00
         21   -1    0    0  504  501  0.00000000000E+00  0.00000000000E+00  0.30365643498E+03  0.30365643498E+03  0.00000000000E+00 0.  1.
         21   -1    0    0  501  502 -0.00000000000E+00 -0.00000000000E+00 -0.70299330322E+03  0.70299330322E+03  0.00000000000E+00 0. -1.
         25    1    1    2    0    0  0.46844984220E+02 -0.28270653551E+03  0.17662708365E+03  0.35908155682E+03  0.12500000000E+03 0.  0.
         21    1    1    2  503  502 -0.10567321745E+02  0.28288087293E+02 -0.12424156958E+03  0.12785871805E+03  0.00000000000E+00 0. -1.
         21    1    1    2  504  503 -0.36277662475E+02  0.25441844822E+03 -0.45172238231E+03  0.51970946332E+03  0.00000000000E+00 0. -1.
<mgrwt>
<rscale>  4 0.31263787E+03</rscale>
<asrwt>0</asrwt>
<pdfrwt beam="1">  1       21 0.46716375E-01 0.31263787E+03</pdfrwt>
<pdfrwt beam="2">  1       21 0.10815282E+00 0.31263787E+03</pdfrwt>
<totfact> 0.27477952E+03</totfact>
</mgrwt>
</event>
<event>
 5    0  0.1283376E+001  0.3421854E+03  0.7546771E-02  0.1065869E+00
         21   -1    0    0  503  501  0.00000000000E+00  0.00000000000E+00  0.39179142305E+03  0.39179142305E+03  0.00000000000E+00 0.  1.
         21   -1    0    0  504  502 -0.00000000000E+00 -0.00000000000E+00 -0.35874159641E+03  0.35874159641E+03  0.00000000000E+00 0.  1.
         25    1    1    2    0    0 -0.99586360024E+02 -0.29098548570E+03  0.61916343297E+02  0.33771086680E+03  0.12500000000E+03 0.  0.
         21    1    1    2  503  502  0.12798989943E+03  0.30463920340E+03  0.44078248488E+02  0.33336069144E+03  0.00000000000E+00 0.  1.
         21    1    1    2  504  501 -0.28403539407E+02 -0.13653717705E+02 -0.72944765143E+02  0.79461461223E+02  0.00000000000E+00 0.  1.
<mgrwt>
<rscale>  4 0.34218543E+03</rscale>
<asrwt>0</asrwt>
<pdfrwt beam="1">  1       21 0.60275603E-01 0.34218543E+03</pdfrwt>
<pdfrwt beam="2">  1       21 0.55191015E-01 0.34218543E+03</pdfrwt>
<totfact> 0.73174559E+03</totfact>
</mgrwt>
</event>
<event>
 5    0  0.1283376E+001  0.3054937E+03  0.7546771E-02  0.1082526E+00
         21   -1    0    0  504  501  0.00000000000E+00  0.00000000000E+00  0.24320049768E+03  0.24320049768E+03  0.00000000000E+00 0.  1.
         21   -1    0    0  503  502 -0.00000000000E+00 -0.00000000000E+00 -0.12532181739E+04  0.12532181739E+04  0.00000000000E+00 0.  1.
         25    1    1    2    0    0  0.19160611563E+03 -0.18208028304E+03 -0.13141180771E+03  0.32056231254E+03  0.12500000000E+03 0.  0.
         21    1    1    2  503  501 -0.22359132336E+03  0.18150974341E+03  0.85557573460E+01  0.28811814906E+03  0.00000000000E+00 0.  1.
         21    1    1    2  504  502  0.31985207731E+02  0.57053962799E+00 -0.88716162585E+03  0.88773820995E+03  0.00000000000E+00 0.  1.
<mgrwt>
<rscale>  4 0.30549368E+03</rscale>
<asrwt>0</asrwt>
<pdfrwt beam="1">  1       21 0.37415461E-01 0.30549368E+03</pdfrwt>
<pdfrwt beam="2">  1       21 0.19280280E+00 0.30549368E+03</pdfrwt>
<totfact> 0.93180671E+02</totfact>
</mgrwt>
</event>
<event>
 5    0  0.1283376E+001  0.2842646E+03  0.7546771E-02  0.1093382E+00
         21   -1    0    0  503  501  0.00000000000E+00  0.00000000000E+00  0.19401121128E+04  0.19401121128E+04  0.00000000000E+00 0.  1.
         21   -1    0    0  504  502 -0.00000000000E+00 -0.00000000000E+00 -0.24740444763E+03  0.24740444763E+03  0.00000000000E+00 0.  1.
         25    1    1    2    0    0  0.15261170872E+03 -0.13389999908E+03 -0.50167416726E+02  0.24364177206E+03  0.12500000000E+03 0.  0.
         21    1    1    2  503  502  0.62823519545E+00 -0.74717570103E+02 -0.76055127740E+02  0.10661844314E+03  0.00000000000E+00 0.  1.
         21    1    1    2  504  501 -0.15323994392E+03  0.20861756919E+03  0.18189302096E+04  0.18372563452E+04  0.00000000000E+00 0.  1.
<mgrwt>
<rscale>  4 0.28426462E+03</rscale>
<asrwt>0</asrwt>
<pdfrwt beam="1">  1       21 0.29847878E+00 0.28426462E+03</pdfrwt>
<pdfrwt beam="2">  1       21 0.38062224E-01 0.28426462E+03</pdfrwt>
<totfact> 0.20660128E+02</totfact>
</mgrwt>
</event>
<event>
 5    0  0.1283376E+001  0.2391438E+03  0.7546771E-02  0.1120365E+00
         21   -1    0    0  504  501  0.00000000000E+00  0.00000000000E+00  0.23888514226E+04  0.23888514226E+04  0.00000000000E+00 0. -1.
         21   -1    0    0  501  502 -0.00000000000E+00 -0.00000000000E+00 -0.42139819683E+02  0.42139819683E+02  0.00000000000E+00 0. -1.
         25    1    1    2    0    0 -0.12307218938E+03 -0.18261081767E+03  0.15707856578E+04  0.15910644415E+04  0.12500000000E+03 0.  0.
         21    1    1    2  503  502 -0.45232511332E+01  0.45699841853E+02  0.45220745782E+01  0.46145254411E+02  0.00000000000E+00 0.  1.
         21    1    1    2  504  503  0.12759544052E+03  0.13691097582E+03  0.77140387057E+03  0.79378154632E+03  0.00000000000E+00 0. -1.
<mgrwt>
<rscale>  4 0.23914376E+03</rscale>
<asrwt>0</asrwt>
<pdfrwt beam="1">  1       21 0.36751550E+00 0.23914376E+03</pdfrwt>
<pdfrwt beam="2">  1       21 0.64830510E-02 0.23914376E+03</pdfrwt>
<totfact> 0.22397196E+03</totfact>
</mgrwt>
</event>
<event>
 5    0  0.1283376E+001  0.2574436E+03  0.7546771E-02  0.1108689E+00
         21   -1    0    0  504  501  0.00000000000E+00  0.00000000000E+00  0.38551832595E+02  0.38551832595E+02  0.00000000000E+00 0.  1.
         21   -1    0    0  501  502 -0.00000000000E+00 -0.00000000000E+00 -0.18302849905E+04  0.18302849905E+04  0.00000000000E+00 0.  1.
         25    1    1    2    0    0  0.82046601416E+02  0.20236005807E+03 -0.62433359022E+03  0.67312604301E+03  0.12500000000E+03 0.  0.
         21    1    1    2  503  502 -0.50379802503E+01  0.21314926713E+02 -0.86778559288E+02  0.89499864233E+02  0.00000000000E+00 0.  1.
         21    1    1    2  504  503 -0.77008621166E+02 -0.22367498479E+03 -0.10806210084E+04  0.11062109159E+04  0.00000000000E+00 0.  1.
<mgrwt>
<rscale>  4 0.25744364E+03</rscale>
<asrwt>0</asrwt>
<pdfrwt beam="1">  1       21 0.59310502E-02 0.25744364E+03</pdfrwt>
<pdfrwt beam="2">  1       21 0.28158235E+00 0.25744364E+03</pdfrwt>
<totfact> 0.82573824E+03</totfact>
</mgrwt>
</event>
<event>
 5    0  0.1283376E+001  0.4356328E+03  0.7546771E-02  0.1032095E+00
         21   -1    0    0  503  501  0.00000000000E+00  0.00000000000E+00  0.93407992814E+03  0.93407992814E+03  0.00000000000E+00 0. -1.
         21   -1    0    0  504  502 -0.00000000000E+00 -0.00000000000E+00 -0.36304825873E+03  0.36304825873E+03  0.00000000000E+00 0. -1.
         25    1    1    2    0    0  0.84851055241E+02  0.41835501992E+03  0.62359270118E+03  0.76597224573E+03  0.12500000000E+03 0.  0.
         21    1    1    2  503  502 -0.11345988966E+03 -0.17562761923E+02 -0.59439280508E+02  0.12928505419E+03  0.00000000000E+00 0. -1.
         21    1    1    2  504  501  0.28608834422E+02 -0.40079225799E+03  0.68782487370E+01  0.40187088695E+03  0.00000000000E+00 0. -1.
<mgrwt>
<rscale>  4 0.43563280E+03</rscale>
<asrwt>0</asrwt>
<pdfrwt beam="1">  1       21 0.14370460E+00 0.43563280E+03</pdfrwt>
<pdfrwt beam="2">  1       21 0.55853578E-01 0.43563280E+03</pdfrwt>
<totfact> 0.85642528E+02</totfact>
</mgrwt>
</event>
<event>
 5    0  0.1283376E+001  0.3347931E+03  0.7546771E-02  0.1069036E+00
         21   -1    0    0  503  501  0.00000000000E+00  0.00000000000E+00  0.13434228463E+04  0.13434228463E+04  0.00000000000E+00 0. -1.
         21   -1    0    0  504  502 -0.00000000000E+00 -0.00000000000E+00 -0.15400339934E+04  0.15400339934E+04  0.00000000000E+00 0. -1.
         25    1    1    2    0    0  0.72710894347E+02 -0.29957647830E+03  0.12716712586E+04  0.13144602430E+04  0.12500000000E+03 0.  0.
         21    1    1    2  503  502 -0.12444659826E+03  0.39338308535E+03 -0.89148584625E+03  0.98233610425E+03  0.00000000000E+00 0. -1.
         21    1    1    2  504  501  0.51735703910E+02 -0.93806607050E+02 -0.57679655933E+03  0.58666049249E+03  0.00000000000E+00 0. -1.
<mgrwt>
<rscale>  4 0.33479308E+03</rscale>
<asrwt>0</asrwt>
<pdfrwt beam="1">  1       21 0.20668044E+00 0.33479308E+03</pdfrwt>
<pdfrwt beam="2">  1       21 0.23692831E+00 0.33479308E+03</pdfrwt>
<totfact> 0.78644821E+00</totfact>
</mgrwt>
</event>
<event>
 5    0  0.1283376E+001  0.2753978E+03  0.7546771E-02  0.1098229E+00
         21   -1    0    0  503  501  0.00000000000E+00  0.00000000000E+00  0.63623087681E+03  0.63623087681E+03  0.00000000000E+00 0.  1.
         21   -1    0    0  504  502 -0.00000000000E+00 -0.00000000000E+00 -0.42492385200E+03  0.42492385200E+03  0.00000000000E+00 0. -1.
         25    1    1    2    0    0  0.12288118013E+03 -0.21564542081E+03  0.36648592648E+03  0.45993441517E+03  0.12500000000E+03 0.  0.
         21    1    1    2  503  502 -0.22592151774E+03 -0.86973190407E+02  0.81740269768E+01  0.24222238283E+03  0.00000000000E+00 0. -1.
         21    1    1    2  504  501  0.10304033761E+03  0.30261861122E+03 -0.16335292865E+03  0.35899793081E+03  0.00000000000E+00 0. -1.
<mgrwt>
<rscale>  4 0.27539776E+03</rscale>
<asrwt>0</asrwt>
<pdfrwt beam="1">  1       21 0.97881674E-01 0.27539776E+03</pdfrwt>
<pdfrwt beam="2">  1       21 0.65372900E-01 0.27539776E+03</pdfrwt>
<totfact> 0.17415863E+03</totfact>
</mgrwt>
</event>
<event>
 5    0  0.1283376E+001  0.2383161E+03  0.7546771E-02  0.1120920E+00
         21   -1    0    0  503  501  0.00000000000E+00  0.00000000000E+00  0.36296315717E+03  0.36296315717E+03  0.00000000000E+00 0. -1.
         21   -1    0    0  504  502 -0.00000000000E+00 -0.00000000000E+00 -0.10614244179E+04  0.10614244179E+04  0.00000000000E+00 0. -1.
         25    1    1    2    0    0 -0.20861782121E+03  0.17974156163E+03  0.13715129099E+03  0.33206008632E+03  0.12500000000E+03 0.  0.
         21    1    1    2  503  502  0.11459318590E+03 -0.44403886099E+02 -0.90515614589E+03  0.91346097443E+03  0.00000000000E+00 0. -1.
         21    1    1    2  504  501  0.94024635307E+02 -0.13533767554E+03  0.69543594152E+02  0.17886651434E+03  0.00000000000E+00 0. -1.
<mgrwt>
<rscale>  4 0.23831613E+03</rscale>
<asrwt>0</asrwt>
<pdfrwt beam="1">  1       21 0.55840486E-01 0.23831613E+03</pdfrwt>
<pdfrwt beam="2">  1       21 0.16329606E+00 0.23831613E+03</pdfrwt>
<totfact> 0.68671099E+02</totfact>
</mgrwt>
</event>
<event>
 5    0  0.1283376E+001  0.3010411E+03  0.7546771E-02  0.1084721E+00
         21   -1    0    0  504  501  0.00000000000E+00  0.00000000000E+00  0.61245462314E+03  0.61245462314E+03  0.00000000000E+00 0. -1.
         21   -1    0    0  501  502 -0.00000000000E+00 -0.00000000000E+00 -0.16524747584E+03  0.16524747584E+03  0.00000000000E+00 0. -1.
         25    1    1    2    0    0  0.23174966375E+03  0.14592069354E+03  0.37980404766E+03  0.48464097028E+03  0.12500000000E+03 0.  0.
         21    1    1    2  503  502 -0.19982790861E+03 -0.15199495853E+03  0.69475740214E+02  0.26050055461E+03  0.00000000000E+00 0. -1.
         21    1    1    2  504  503 -0.31921755142E+02  0.60742649906E+01 -0.20726405708E+01  0.32560574096E+02  0.00000000000E+00 0.  1.
<mgrwt>
<rscale>  4 0.30104112E+03</rscale>
<asrwt>0</asrwt>
<pdfrwt beam="1">  1       21 0.94223787E-01 0.30104112E+03</pdfrwt>
<pdfrwt beam="2">  1       21 0.25422689E-01 0.30104112E+03</pdfrwt>
<totfact> 0.13055867E+04</totfact>
</mgrwt>
</event>
<event>
 5    0  0.1283376E+001  0.3207023E+03  0.7546771E-02  0.1075327E+00
         21   -1    0    0  504  501  0.00000000000E+00  0.00000000000E+00  0.78029067199E+03  0.78029067199E+03  0.00000000000E+00 0. -1.
         21   -1    0    0  503  502 -0.00000000000E+00 -0.00000000000E+00 -0.31029473976E+03  0.31029473976E+03  0.00000000000E+00 0. -1.
         25    1    1    2    0    0  0.13806662932E+03  0.25773128354E+03  0.57992430229E+03  0.66138113447E+03  0.12500000000E+03 0.  0.
         21    1    1    2  503  501 -0.15992421582E+03 -0.26143523590E+03  0.10600322184E+02  0.30665372035E+03  0.00000000000E+00 0. -1.
         21    1    1    2  504  502  0.21857586496E+02  0.37039523586E+01 -0.12052869224E+03  0.12255055693E+03  0.00000000000E+00 0. -1.
<mgrwt>
<rscale>  4 0.32070233E+03</rscale>
<asrwt>0</asrwt>
<pdfrwt beam="1">  1       21 0.12004472E+00 0.32070233E+03</pdfrwt>
<pdfrwt beam="2">  1       21 0.47737652E-01 0.32070233E+03</pdfrwt>
<totfact> 0.20195675E+03</totfact>
</mgrwt>
</event>
<event>
 5    0  0.1283376E+001  0.2853350E+03  0.7546771E-02  0.1092810E+00
         21   -1    0    0  503  501  0.00000000000E+00  0.00000000000E+00  0.16647837780E+04  0.16647837780E+04  0.00000000000E+00 0.  1.
         21   -1    0    0  504  502 -0.00000000000E+00 -0.00000000000E+00 -0.29346368873E+03  0.29346368873E+03  0.00000000000E+00 0.  1.
         25    1    1    2    0    0  0.19837461812E+03  0.16351237420E+03  0.14550260721E+04  0.14828400642E+04  0.12500000000E+03 0.  0.
         21    1    1    2  503  502  0.12218610412E+02 -0.21416054805E+02 -0.19607321977E+03  0.19761743181E+03  0.00000000000E+00 0.  1.
         21    1    1    2  504  501 -0.21059322853E+03 -0.14209631939E+03  0.11236723700E+03  0.27778997073E+03  0.00000000000E+00 0.  1.
<mgrwt>
<rscale>  4 0.28533502E+03</rscale>
<asrwt>0</asrwt>
<pdfrwt beam="1">  1       21 0.25612057E+00 0.28533502E+03</pdfrwt>
<pdfrwt beam="2">  1       21 0.45148261E-01 0.28533502E+03</pdfrwt>
<totfact> 0.25880123E+02</totfact>
</mgrwt>
</event>
<event>
 5    0  0.1283376E+001  0.2446498E+03  0.7546771E-02  0.1116733E+00
         21   -1    0    0  503  501  0.00000000000E+00  0.00000000000E+00  0.10350775609E+04  0.10350775609E+04  0.00000000000E+00 0. -1.
         21   -1    0    0  504  502 -0.00000000000E+00 -0.00000000000E+00 -0.13354701905E+03  0.13354701905E+03  0.00000000000E+00 0. -1.
         25    1    1    2    0    0  0.55534474300E+02 -0.20744573777E+03  0.79472805780E+03  0.83266769951E+03  0.12500000000E+03 0.  0.
         21    1    1    2  503  502  0.19403258569E+02  0.21392449572E+02 -0.65467404972E+02  0.71554905181E+02  0.00000000000E+00 0. -1.
         21    1    1    2  504  501 -0.74937732869E+02  0.18605328820E+03  0.17226988903E+03  0.26440197526E+03  0.00000000000E+00 0. -1.
<mgrwt>
<rscale>  4 0.24464984E+03</rscale>
<asrwt>0</asrwt>
<pdfrwt beam="1">  1       21 0.15924270E+00 0.24464984E+03</pdfrwt>
<pdfrwt beam="2">  1       21 0.20545696E-01 0.24464984E+03</pdfrwt>
<totfact> 0.53760828E+03</totfact>
</mgrwt>
</event>
<event>
 5    0  0.1283376E+001  0.2696121E+03  0.7546771E-02  0.1101502E+00
         21   -1    0    0  504  501  0.00000000000E+00  0.00000000000E+00  0.31726376428E+03  0.31726376428E+03  0.00000000000E+00 0. -1.
         21   -1    0    0  501  502 -0.00000000000E+00 -0.00000000000E+00 -0.37052704159E+03  0.37052704159E+03  0.00000000000E+00 0. -1.
         25    1    1    2    0    0 -0.14457914978E+03  0.18469745536E+03  0.16621723845E+03  0.31347958614E+03  0.12500000000E+03 0.  0.
         21    1    1    2  503  502  0.16679463540E+03 -0.18817047639E+03 -0.13201347266E+03  0.28400023864E+03  0.00000000000E+00 0. -1.
         21    1    1    2  504  503 -0.22215485628E+02  0.34730210308E+01 -0.87467043102E+02  0.90310981092E+02  0.00000000000E+00 0.  1.
<mgrwt>
<rscale>  4 0.26961208E+03</rscale>
<asrwt>0</asrwt>
<pdfrwt beam="1">  1       21 0.48809810E-01 0.26961208E+03</pdfrwt>
<pdfrwt beam="2">  1       21 0.57004160E-01 0.26961208E+03</pdfrwt>
<totfact> 0.11071806E+04</totfact>
</mgrwt>
</event>
<event>
 5    0  0.1283376E+001  0.2817193E+03  0.7546771E-02  0.1094754E+00
         21   -1    0    0  504  501  0.00000000000E+00  0.00000000000E+00  0.73375339490E+03  0.73375339490E+03  0.00000000000E+00 0. -1.
         21   -1    0    0  503  502 -0.00000000000E+00 -0.00000000000E+00 -0.14309082579E+03  0.14309082579E+03  0.00000000000E+00 0. -1.
         25    1    1    2    0    0 -0.20007005130E+03 -0.12144017709E+03  0.39913721316E+03  0.47928202237E+03  0.12500000000E+03 0.  0.
         21    1    1    2  503  501  0.24561186074E+03  0.15323897200E+03  0.17982141503E+03  0.34079775524E+03  0.00000000000E+00 0. -1.
         21    1    1    2  504  502 -0.45541809435E+02 -0.31798794912E+02  0.11703940909E+02  0.56764443072E+02  0.00000000000E+00 0. -1.
<mgrwt>
<rscale>  4 0.28171930E+03</rscale>
<asrwt>0</asrwt>
<pdfrwt beam="1">  1       21 0.11288514E+00 0.28171930E+03</pdfrwt>
<pdfrwt beam="2">  1       21 0.22013974E-01 0.28171930E+03</pdfrwt>
<totfact> 0.11215349E+04</totfact>
</mgrwt>
</event>
<event>
 5    0  0.1283376E+001  0.2681992E+03  0.7546771E-02  0.1102315E+00
         21   -1    0    0  504  501  0.00000000000E+00  0.00000000000E+00  0.57103536673E+03  0.57103536673E+03  0.00000000000E+00 0.  1.
         21   -1    0    0  503  502 -0.00000000000E+00 -0.00000000000E+00 -0.34479041558E+03  0.34479041558E+03  0.00000000000E+00 0.  1.
         25    1    1    2    0    0 -0.23057258177E+03 -0.88034680197E+02  0.46136326314E+03  0.53795434840E+03  0.12500000000E+03 0.  0.
         21    1    1    2  503  501  0.15410514730E+03  0.71681352105E+02 -0.24591529446E+03  0.29893301041E+03  0.00000000000E+00 0.  1.
         21    1    1    2  504  502  0.76467434471E+02  0.16353328092E+02  0.10796982462E+02  0.78938423499E+02  0.00000000000E+00 0.  1.
<mgrwt>
<rscale>  4 0.26819917E+03</rscale>
<asrwt>0</asrwt>
<pdfrwt beam="1">  1       21 0.87851595E-01 0.26819917E+03</pdfrwt>
<pdfrwt beam="2">  1       21 0.53044680E-01 0.26819917E+03</pdfrwt>
<totfact> 0.35426955E+03</totfact>
</mgrwt>
</event>
<event>
 5    0  0.1283376E+001  0.4388511E+03  0.7546771E-02  0.1031100E+00
         21   -1    0    0  502  501  0.00000000000E+00  0.00000000000E+00  0.79503741169E+03  0.79503741169E+03  0.00000000000E+00 0. -1.
         21   -1    0    0  503  502 -0.00000000000E+00 -0.00000000000E+00 -0.39807450005E+03  0.39807450005E+03  0.00000000000E+00 0.  1.
         25    1    1    2    0    0 -0.26567519531E+02 -0.40970932425E+03  0.46620941871E+03  0.63367482636E+03  0.12500000000E+03 0.  0.
         21    1    1    2  503  504 -0.46572675526E+02  0.45702110115E+03 -0.93943549926E+02  0.46889518186E+03  0.00000000000E+00 0.  1.
         21    1    1    2  504  501  0.73140195057E+02 -0.47311776901E+02  0.24697042856E+02  0.90541903516E+02  0.00000000000E+00 0.  1.
<mgrwt>
<rscale>  4 0.43885109E+03</rscale>
<asrwt>0</asrwt>
<pdfrwt beam="1">  1       21 0.12231345E+00 0.43885109E+03</pdfrwt>
<pdfrwt beam="2">  1       21 0.61242231E-01 0.43885109E+03</pdfrwt>
<totfact> 0.10657342E+03</totfact>
</mgrwt>
</event>
<event>
 5    0  0.1283376E+001  0.2613369E+03  0.7546771E-02  0.1106343E+00
         21   -1    0    0  504  501  0.00000000000E+00  0.00000000000E+00  0.23226424131E+03  0.23226424131E+03  0.00000000000E+00 0.  1.
         21   -1    0    0  503  502 -0.00000000000E+00 -0.00000000000E+00 -0.63055429521E+03  0.63055429521E+03  0.00000000000E+00 0.  1.
         25    1    1    2    0    0 -0.10055082450E+03  0.23145144414E+03  0.51932728012E+02  0.28636034561E+03  0.12500000000E+03 0.  0.
         21    1    1    2  503  501  0.15132119619E+03 -0.13719042030E+03 -0.13829409024E+03  0.24666692367E+03  0.00000000000E+00 0.  1.
         21    1    1    2  504  502 -0.50770371686E+02 -0.94261023843E+02 -0.31192869167E+03  0.32979126723E+03  0.00000000000E+00 0.  1.
<mgrwt>
<rscale>  4 0.26133693E+03</rscale>
<asrwt>0</asrwt>
<pdfrwt beam="1">  1       21 0.35732960E-01 0.26133693E+03</pdfrwt>
<pdfrwt beam="2">  1       21 0.97008352E-01 0.26133693E+03</pdfrwt>
<totfact> 0.63615828E+03</totfact>
</mgrwt>
</event>
<event>
 5    0  0.1283376E+001  0.2930336E+03  0.7546771E-02  0.1088776E+00
         21   -1    0    0  503  501  0.00000000000E+00  0.00000000000E+00  0.10897245895E+04  0.10897245895E+04  0.00000000000E+00 0. -1.
         21   -1    0    0  504  502 -0.00000000000E+00 -0.00000000000E+00 -0.11296661411E+03  0.11296661411E+03  0.00000000000E+00 0. -1.
         25    1    1    2    0    0  0.97052103205E+02 -0.23116645871E+03  0.67218769732E+03  0.72822959484E+03  0.12500000000E+03 0.  0.
         21    1    1    2  503  502 -0.14436348557E+03  0.26693833757E+03  0.24109020003E+03  0.38758402519E+03  0.00000000000E+00 0. -1.
         21    1    1    2  504  501  0.47311382363E+02 -0.35771878860E+02  0.63480078012E+02  0.86877583545E+02  0.00000000000E+00 0.  1.
<mgrwt>
<rscale>  4 0.29303355E+03</rscale>
<asrwt>0</asrwt>
<pdfrwt beam="1">  1       21 0.16764993E+00 0.29303355E+03</pdfrwt>
<pdfrwt beam="2">  1       21 0.17379480E-01 0.29303355E+03</pdfrwt>
<totfact> 0.61947662E+03</totfact>
</mgrwt>
</event>
<event>
 5    0  0.1283376E+001  0.2802499E+03  0.7546771E-02  0.1095553E+00
         21   -1    0    0  503  501  0.00000000000E+00  0.00000000000E+00  0.57072109834E+03  0.57072109834E+03  0.00000000000E+00 0.  1.
         21   -1    0    0  504  502 -0.00000000000E+00 -0.00000000000E+00 -0.62801002225E+03  0.62801002225E+03  0.00000000000E+00 0. -1.
         25    1    1    2    0    0 -0.78379357946E+02 -0.24037872936E+03  0.49867660412E+03  0.57291239537E+03  0.12500000000E+03 0.  0.
         21    1    1    2  503  502  0.69713099549E+01  0.32294112673E+02 -0.61261786365E+01  0.33601174690E+02  0.00000000000E+00 0.  1.
         21    1    1    2  504  501  0.71408047992E+02  0.20808461668E+03 -0.54983934939E+03  0.59221755053E+03  0.00000000000E+00 0. -1.
<mgrwt>
<rscale>  4 0.28024993E+03</rscale>
<asrwt>0</asrwt>
<pdfrwt beam="1">  1       21 0.87803246E-01 0.28024993E+03</pdfrwt>
<pdfrwt beam="2">  1       21 0.96616927E-01 0.28024993E+03</pdfrwt>
<totfact> 0.91914316E+02</totfact>
</mgrwt>
</event>
<event>
 5    0  0.1283376E+001  0.3762488E+03  0.7546771E-02  0.1052329E+00
         21   -1    0    0  504  501  0.00000000000E+00  0.00000000000E+00  0.33183193772E+03  0.33183193772E+03  0.00000000000E+00 0. -1.
         21   -1    0    0  501  502 -0.00000000000E+00 -0.00000000000E+00 -0.15568666450E+04  0.15568666450E+04  0.00000000000E+00 0.  1.
         25    1    1    2    0    0 -0.35629419078E+03  0.32336225195E+03 -0.17083322737E+03  0.52565928884E+03  0.12500000000E+03 0.  0.
         21    1    1    2  503  502  0.10330125235E+03 -0.16127723218E+03 -0.10450326933E+04  0.10624381509E+04  0.00000000000E+00 0.  1.
         21    1    1    2  504  503  0.25299293843E+03 -0.16208501977E+03 -0.91687866033E+01  0.30060114301E+03  0.00000000000E+00 0.  1.
<mgrwt>
<rscale>  4 0.37624875E+03</rscale>
<asrwt>0</asrwt>
<pdfrwt beam="1">  1       21 0.51051067E-01 0.37624875E+03</pdfrwt>
<pdfrwt beam="2">  1       21 0.23951795E+00 0.37624875E+03</pdfrwt>
<totfact> 0.23450866E+02</totfact>
</mgrwt>
</event>
<event>
 5    0  0.1283376E+001  0.5193832E+03  0.7546771E-02  0.1008840E+00
         21   -1    0    0  503  501  0.00000000000E+00  0.00000000000E+00  0.79770044326E+03  0.79770044326E+03  0.00000000000E+00 0. -1.
         21   -1    0    0  504  502 -0.00000000000E+00 -0.00000000000E+00 -0.64610256337E+03  0.64610256337E+03  0.00000000000E+00 0.  1.
         25    1    1    2    0    0 -0.50324549796E+03 -0.16179887347E+02  0.56584472304E+03  0.76767380479E+03  0.12500000000E+03 0.  0.
         21    1    1    2  503  502 -0.28609302778E+01 -0.22466506988E+02 -0.38265048902E+02  0.44465074224E+02  0.00000000000E+00 0.  1.
         21    1    1    2  504  501  0.50610642824E+03  0.38646394335E+02 -0.37598179426E+03  0.63166412761E+03  0.00000000000E+00 0.  1.
<mgrwt>
<rscale>  4 0.51938322E+03</rscale>
<asrwt>0</asrwt>
<pdfrwt beam="1">  1       21 0.12272315E+00 0.51938322E+03</pdfrwt>
<pdfrwt beam="2">  1       21 0.99400394E-01 0.51938322E+03</pdfrwt>
<totfact> 0.33436550E+02</totfact>
</mgrwt>
</event>
<event>
 5    0  0.1283376E+001  0.2318872E+03  0.7546771E-02  0.1125318E+00
         21   -1    0    0  503  501  0.00000000000E+00  0.00000000000E+00  0.18071291239E+03  0.18071291239E+03  0.00000000000E+00 0. -1.
         21   -1    0    0  504  502 -0.00000000000E+00 -0.00000000000E+00 -0.63032454208E+03  0.63032454208E+03  0.00000000000E+00 0. -1.
         25    1    1    2    0    0  0.96222015483E+02  0.17967302766E+03  0.51663680444E+02  0.24461236479E+03  0.12500000000E+03 0.  0.
         21    1    1    2  503  502 -0.33349142763E+02 -0.17421840146E+03 -0.24486441311E+03  0.30236203058E+03  0.00000000000E+00 0. -1.
         21    1    1    2  504  501 -0.62872872719E+02 -0.54546261952E+01 -0.25641089702E+03  0.26406305910E+03  0.00000000000E+00 0. -1.
<mgrwt>
<rscale>  4 0.23188717E+03</rscale>
<asrwt>0</asrwt>
<pdfrwt beam="1">  1       21 0.27801987E-01 0.23188717E+03</pdfrwt>
<pdfrwt beam="2">  1       21 0.96973006E-01 0.23188717E+03</pdfrwt>
<totfact> 0.10625895E+04</totfact>
</mgrwt>
</event>
<event>
 5    0  0.1283376E+001  0.2957794E+03  0.7546771E-02  0.1087370E+00
         21   -1    0    0  504  501  0.00000000000E+00  0.00000000000E+00  0.32653835045E+03  0.32653835045E+03  0.00000000000E+00 0.  1.
         21   -1    0    0  501  502 -0.00000000000E+00 -0.00000000000E+00 -0.57431229789E+03  0.57431229789E+03  0.00000000000E+00 0.  1.
         25    1    1    2    0    0 -0.18938007749E+03 -0.22020513749E+03  0.17460954763E+03  0.36120438875E+03  0.12500000000E+03 0.  0.
         21    1    1    2  503  502  0.42166302803E+01  0.11046649774E+03 -0.20969622123E+03  0.23705090654E+03  0.00000000000E+00 0.  1.
         21    1    1    2  504  503  0.18516344721E+03  0.10973863975E+03 -0.21268727383E+03  0.30259535305E+03  0.00000000000E+00 0.  1.
<mgrwt>
<rscale>  4 0.29577937E+03</rscale>
<asrwt>0</asrwt>
<pdfrwt beam="1">  1       21 0.50236669E-01 0.29577937E+03</pdfrwt>
<pdfrwt beam="2">  1       21 0.88355738E-01 0.29577937E+03</pdfrwt>
<totfact> 0.38605599E+03</totfact>
</mgrwt>
</event>
<event>
 5    0  0.1283376E+001  0.5406359E+03  0.7546771E-02  0.1003685E+00
         21   -1    0    0  504  501  0.00000000000E+00  0.00000000000E+00  0.16834978295E+03  0.16834978295E+03  0.00000000000E+00 0.  1.
         21   -1    0    0  503  502 -0.00000000000E+00 -0.00000000000E+00 -0.20795518945E+04  0.20795518945E+04  0.00000000000E+00 0.  1.
         25    1    1    2    0    0  0.51204052970E+03 -0.11196841907E+03 -0.12730437567E+04  0.13823848369E+04  0.12500000000E+03 0.  0.
         21    1    1    2  503  501 -0.50495173528E+03  0.16497521534E+03 -0.58046515577E+03  0.78684996899E+03  0.00000000000E+00 0.  1.
         21    1    1    2  504  502 -0.70887944158E+01 -0.53006796271E+02 -0.57693199129E+02  0.78666871572E+02  0.00000000000E+00 0. -1.
<mgrwt>
<rscale>  4 0.54063592E+03</rscale>
<asrwt>0</asrwt>
<pdfrwt beam="1">  1       21 0.25899967E-01 0.54063592E+03</pdfrwt>
<pdfrwt beam="2">  1       21 0.31993105E+00 0.54063592E+03</pdfrwt>
<totfact> 0.27659972E+02</totfact>
</mgrwt>
</event>
<event>
 5    0  0.1283376E+001  0.2443526E+03  0.7546771E-02  0.1116927E+00
         21   -1    0    0  503  501  0.00000000000E+00  0.00000000000E+00  0.17217679940E+04  0.17217679940E+04  0.00000000000E+00 0.  1.
         21   -1    0    0  504  502 -0.00000000000E+00 -0.00000000000E+00 -0.25727723206E+03  0.25727723206E+03  0.00000000000E+00 0.  1.
         25    1    1    2    0    0 -0.12608932506E+03  0.18314614219E+03  0.12675422584E+04  0.12929537517E+04  0.12500000000E+03 0.  0.
         21    1    1    2  503  502  0.94271572399E+01 -0.33003399049E+02 -0.22272503988E+03  0.22535425230E+03  0.00000000000E+00 0.  1.
         21    1    1    2  504  501  0.11666216782E+03 -0.15014274314E+03  0.41967354344E+03  0.46073722204E+03  0.00000000000E+00 0.  1.
<mgrwt>
<rscale>  4 0.24435256E+03</rscale>
<asrwt>0</asrwt>
<pdfrwt beam="1">  1       21 0.26488738E+00 0.24435256E+03</pdfrwt>
<pdfrwt beam="2">  1       21 0.39581114E-01 0.24435256E+03</pdfrwt>
<totfact> 0.31372984E+02</totfact>
</mgrwt>
</event>
<event>
 5    0  0.1283376E+001  0.2676176E+03  0.7546771E-02  0.1102651E+00
         21   -1    0    0  504  501  0.00000000000E+00  0.00000000000E+00  0.53019786769E+03  0.53019786769E+03  0.00000000000E+00 0.  1.
         21   -1    0    0  501  502 -0.00000000000E+00 -0.00000000000E+00 -0.68464598739E+03  0.68464598739E+03  0.00000000000E+00 0.  1.
         25    1    1    2    0    0  0.23306169375E+03 -0.46461254236E+02  0.40760598876E+03  0.48810249263E+03  0.12500000000E+03 0.  0.
         21    1    1    2  503  502 -0.99827079157E+01 -0.22230093593E+02 -0.47804887246E+03  0.47866956867E+03  0.00000000000E+00 0.  1.
         21    1    1    2  504  503 -0.22307898583E+03  0.68691347829E+02 -0.84005236008E+02  0.24807179377E+03  0.00000000000E+00 0.  1.
<mgrwt>
<rscale>  4 0.26761757E+03</rscale>
<asrwt>0</asrwt>
<pdfrwt beam="1">  1       21 0.81568904E-01 0.26761757E+03</pdfrwt>
<pdfrwt beam="2">  1       21 0.10533015E+00 0.26761757E+03</pdfrwt>
<totfact> 0.89352111E+02</totfact>
</mgrwt>
</event>
<event>
 5    0  0.1283376E+001  0.2155363E+03  0.7546771E-02  0.1137255E+00
         21   -1    0    0  504  501  0.00000000000E+00  0.00000000000E+00  0.74134373713E+03  0.74134373713E+03  0.00000000000E+00 0.  1.
         21   -1    0    0  503  502 -0.00000000000E+00 -0.00000000000E+00 -0.43194766172E+03  0.43194766172E+03  0.00000000000E+00 0. -1.
         25    1    1    2    0    0  0.17621817059E+03 -0.96475480352E+02  0.61911250695E+03  0.66278628397E+03  0.12500000000E+03 0.  0.
         21    1    1    2  503  501 -0.84966537900E+02  0.98524210770E+02  0.50008201857E+02  0.13938132200E+03  0.00000000000E+00 0.  1.
         21    1    1    2  504  502 -0.91251632692E+02 -0.20487304178E+01 -0.35972463340E+03  0.37112379288E+03  0.00000000000E+00 0. -1.
<mgrwt>
<rscale>  4 0.21553632E+03</rscale>
<asrwt>0</asrwt>
<pdfrwt beam="1">  1       21 0.11405288E+00 0.21553632E+03</pdfrwt>
<pdfrwt beam="2">  1       21 0.66453487E-01 0.21553632E+03</pdfrwt>
<totfact> 0.12155548E+03</totfact>
</mgrwt>
</event>
<event>
 5    0  0.1283376E+001  0.2685361E+03  0.7546771E-02  0.1102120E+00
         21   -1    0    0  503  501  0.00000000000E+00  0.00000000000E+00  0.15690535677E+03  0.15690535677E+03  0.00000000000E+00 0. -1.
         21   -1    0    0  504  502 -0.00000000000E+00 -0.00000000000E+00 -0.54823794421E+03  0.54823794421E+03  0.00000000000E+00 0. -1.
         25    1    1    2    0    0 -0.52183327094E+02 -0.22019291343E+03 -0.12672542632E+03  0.28791032011E+03  0.12500000000E+03 0.  0.
         21    1    1    2  503  502 -0.65268177799E+02 -0.81297032421E+01 -0.50746988454E+02  0.83073966712E+02  0.00000000000E+00 0. -1.
         21    1    1    2  504  501  0.11745150489E+03  0.22832261668E+03 -0.21386017267E+03  0.33415901415E+03  0.00000000000E+00 0. -1.
<mgrwt>
<rscale>  4 0.26853613E+03</rscale>
<asrwt>0</asrwt>
<pdfrwt beam="1">  1       21 0.24139285E-01 0.26853613E+03</pdfrwt>
<pdfrwt beam="2">  1       21 0.84344300E-01 0.26853613E+03</pdfrwt>
<totfact> 0.18957802E+04</totfact>
</mgrwt>
</event>
<event>
 5    0  0.1283376E+001  0.2488199E+03  0.7546771E-02  0.1114053E+00
         21   -1    0    0  503  501  0.00000000000E+00  0.00000000000E+00  0.39973812689E+03  0.39973812689E+03  0.00000000000E+00 0. -1.
         21   -1    0    0  504  502 -0.00000000000E+00 -0.00000000000E+00 -0.22255217968E+03  0.22255217968E+03  0.00000000000E+00 0. -1.
         25    1    1    2    0    0  0.97008858786E+02 -0.19765215101E+03  0.25365285696E+03  0.35838786715E+03  0.12500000000E+03 0.  0.
         21    1    1    2  503  502 -0.76154007962E+02  0.18985301993E+03 -0.22829245454E+02  0.20582705496E+03  0.00000000000E+00 0. -1.
         21    1    1    2  504  501 -0.20854850825E+02  0.77991310798E+01 -0.53637664291E+02  0.58075384451E+02  0.00000000000E+00 0. -1.
<mgrwt>
<rscale>  4 0.24881994E+03</rscale>
<asrwt>0</asrwt>
<pdfrwt beam="1">  1       21 0.61498173E-01 0.24881994E+03</pdfrwt>
<pdfrwt beam="2">  1       21 0.34238797E-01 0.24881994E+03</pdfrwt>
<totfact> 0.19584024E+04</totfact>
</mgrwt>
</event>
<event>
 5    0  0.1283376E+001  0.3418078E+03  0.7546771E-02  0.1066029E+00
         21   -1    0    0  503  501  0.00000000000E+00  0.00000000000E+00  0.17541992268E+03  0.17541992268E+03  0.00000000000E+00 0.  1.
         21   -1    0    0  504  502 -0.00000000000E+00 -0.00000000000E+00 -0.83813454237E+03  0.83813454237E+03  0.00000000000E+00 0. -1.
         25    1    1    2    0    0  0.30588660546E+02 -0.31761857912E+03 -0.10726232058E+03  0.35909251367E+03  0.12500000000E+03 0.  0.
         21    1    1    2  503  502 -0.42246090098E+01  0.31667345951E+03 -0.48512839516E+03  0.57935264483E+03  0.00000000000E+00 0. -1.
         21    1    1    2  504  501 -0.26364051536E+02  0.94511961382E+00 -0.70323903951E+02  0.75109306557E+02  0.00000000000E+00 0.  1.
<mgrwt>
<rscale>  4 0.34180780E+03</rscale>
<asrwt>0</asrwt>
<pdfrwt beam="1">  1       21 0.26987680E-01 0.34180780E+03</pdfrwt>
<pdfrwt beam="2">  1       21 0.12894378E+00 0.34180780E+03</pdfrwt>
<totfact> 0.52698177E+03</totfact>
</mgrwt>
</event>
<event>
 5    0  0.1283376E+001  0.5781073E+03  0.7546771E-02  0.9951897E-01
         21   -1    0    0  503  501  0.00000000000E+00  0.00000000000E+00  0.44299283538E+03  0.44299283538E+03  0.00000000000E+00 0. -1.
         21   -1    0    0  504  502 -0.00000000000E+00 -0.00000000000E+00 -0.33711786383E+04  0.33711786383E+04  0.00000000000E+00 0. -1.
         25    1    1    2    0    0  0.24660063981E+03 -0.48145758561E+03 -0.15306203502E+04  0.16282005217E+04  0.12500000000E+03 0.  0.
         21    1    1    2  503  502 -0.34961025454E+02 -0.45356909132E+02 -0.15865677268E+04  0.15876009178E+04  0.00000000000E+00 0. -1.
         21    1    1    2  504  501 -0.21163961436E+03  0.52681449474E+03  0.18900227409E+03  0.59837003421E+03  0.00000000000E+00 0. -1.
<mgrwt>
<rscale>  4 0.57810729E+03</rscale>
<asrwt>0</asrwt>
<pdfrwt beam="1">  1       21 0.68152741E-01 0.57810729E+03</pdfrwt>
<pdfrwt beam="2">  1       21 0.51864289E+00 0.57810729E+03</pdfrwt>
<totfact> 0.17319876E+00</totfact>
</mgrwt>
</event>
<event>
 5    0  0.1283376E+001  0.2633693E+03  0.7546771E-02  0.1105136E+00
         21   -1    0    0  503  501  0.00000000000E+00  0.00000000000E+00  0.32937502701E+02  0.32937502701E+02  0.00000000000E+00 0. -1.
         21   -1    0    0  504  502 -0.00000000000E+00 -0.00000000000E+00 -0.20472960994E+04  0.20472960994E+04  0.00000000000E+00 0. -1.
         25    1    1    2    0    0 -0.18776545270E+03 -0.13077770565E+03 -0.10679584835E+04  0.10993266102E+04  0.12500000000E+03 0.  0.
         21    1    1    2  503  502 -0.15793070316E+02  0.13138741916E+02 -0.47155819566E+02  0.51436552451E+02  0.00000000000E+00 0. -1.
         21    1    1    2  504  501  0.20355852302E+03  0.11763896374E+03 -0.89924429363E+03  0.92947043939E+03  0.00000000000E+00 0. -1.
<mgrwt>
<rscale>  4 0.26336931E+03</rscale>
<asrwt>0</asrwt>
<pdfrwt beam="1">  1       21 0.50673086E-02 0.26336931E+03</pdfrwt>
<pdfrwt beam="2">  1       21 0.31496860E+00 0.26336931E+03</pdfrwt>
<totfact> 0.68611353E+03</totfact>
</mgrwt>
</event>
<event>
 5    0  0.1283376E+001  0.2941417E+03  0.7546771E-02  0.1088206E+00
         21   -1    0    0  504  501  0.00000000000E+00  0.00000000000E+00  0.29411170400E+03  0.29411170400E+03  0.00000000000E+00 0. -1.
         21   -1    0    0  501  502 -0.00000000000E+00 -0.00000000000E+00 -0.76517070988E+03  0.76517070988E+03  0.00000000000E+00 0. -1.
         25    1    1    2    0    0 -0.22951503533E+03  0.12627578388E+03  0.16922774231E+03  0.33598475234E+03  0.12500000000E+03 0.  0.
         21    1    1    2  503  502 -0.34975850785E+02  0.52175269898E+01 -0.11900265771E+03  0.12414574204E+03  0.00000000000E+00 0.  1.
         21    1    1    2  504  503  0.26449088611E+03 -0.13149331087E+03 -0.52128409049E+03  0.59915191949E+03  0.00000000000E+00 0. -1.
<mgrwt>
<rscale>  4 0.29414173E+03</rscale>
<asrwt>0</asrwt>
<pdfrwt beam="1">  1       21 0.45247954E-01 0.29414173E+03</pdfrwt>
<pdfrwt beam="2">  1       21 0.11771857E+00 0.29414173E+03</pdfrwt>
<totfact> 0.24081897E+03</totfact>
</mgrwt>
</event>
<event>
 5    0  0.1283376E+001  0.3193849E+03  0.7546771E-02  0.1075933E+00
         21   -1    0    0  503  501  0.00000000000E+00  0.00000000000E+00  0.19770862806E+03  0.19770862806E+03  0.00000000000E+00 0. -1.
         21   -1    0    0  504  502 -0.00000000000E+00 -0.00000000000E+00 -0.12940112927E+04  0.12940112927E+04  0.00000000000E+00 0. -1.
         25    1    1    2    0    0  0.19837707425E+03 -0.21365773829E+03  0.27842248472E+02  0.31843882226E+03  0.12500000000E+03 0.  0.
         21    1    1    2  503  502  0.40282162897E+01 -0.23377542657E+02 -0.63551326665E+02  0.67834409764E+02  0.00000000000E+00 0.  1.
         21    1    1    2  504  501 -0.20240529054E+03  0.23703528095E+03 -0.10605935865E+04  0.11054466888E+04  0.00000000000E+00 0. -1.
<mgrwt>
<rscale>  4 0.31938487E+03</rscale>
<asrwt>0</asrwt>
<pdfrwt beam="1">  1       21 0.30416713E-01 0.31938487E+03</pdfrwt>
<pdfrwt beam="2">  1       21 0.19907865E+00 0.31938487E+03</pdfrwt>
<totfact> 0.12686911E+03</totfact>
</mgrwt>
</event>
<event>
 5    0  0.1283376E+001  0.2342371E+03  0.7546771E-02  0.1123693E+00
         21   -1    0    0  504  501  0.00000000000E+00  0.00000000000E+00  0.51209060465E+03  0.51209060465E+03  0.00000000000E+00 0. -1.
         21   -1    0    0  501  502 -0.00000000000E+00 -0.00000000000E+00 -0.28376742442E+03  0.28376742442E+03  0.00000000000E+00 0. -1.
         25    1    1    2    0    0  0.20531614533E+03 -0.77469484776E+02  0.38249773121E+03  0.45835112631E+03  0.12500000000E+03 0.  0.
         21    1    1    2  503  502 -0.81557861518E+02 -0.23687732227E+02 -0.15604097400E+03  0.17765578797E+03  0.00000000000E+00 0. -1.
         21    1    1    2  504  503 -0.12375828382E+03  0.10115721700E+03  0.18664230282E+01  0.15985111479E+03  0.00000000000E+00 0. -1.
<mgrwt>
<rscale>  4 0.23423711E+03</rscale>
<asrwt>0</asrwt>
<pdfrwt beam="1">  1       21 0.78783170E-01 0.23423711E+03</pdfrwt>
<pdfrwt beam="2">  1       21 0.43656527E-01 0.23423711E+03</pdfrwt>
<totfact> 0.69752889E+03</totfact>
</mgrwt>
</event>
<event>
 5    0  0.1283376E+001  0.3424869E+03  0.7546771E-02  0.1067760E+00
         21   -1    0    0  503  501  0.00000000000E+00  0.00000000000E+00  0.92328224600E+03  0.92328224600E+03  0.00000000000E+00 0. -1.
         21   -1    0    0  504  502 -0.00000000000E+00 -0.00000000000E+00 -0.14573996160E+03  0.14573996160E+03  0.00000000000E+00 0. -1.
         25    1    1    2    0    0 -0.25401466093E+03 -0.15739507315E+03  0.60330568291E+03  0.68476229748E+03  0.12500000000E+03 0.  0.
         21    1    1    2  503  502  0.71416570918E+02  0.14070339175E+03  0.63725461020E+02  0.17017257544E+03  0.00000000000E+00 0. -1.
         21    1    1    2  504  501  0.18259809001E+03  0.16691681407E+02  0.11051114047E+03  0.21408733468E+03  0.00000000000E+00 0. -1.
<mgrwt>
<rscale>  4 0.33774671E+03</rscale>
<asrwt>0</asrwt>
<pdfrwt beam="1">  1       21 0.14204342E+00 0.34248691E+03</pdfrwt>
<pdfrwt beam="2">  1       21 0.22421533E-01 0.34248691E+03</pdfrwt>
<totfact> 0.58573547E+03</totfact>
</mgrwt>
</event>
<event>
 5    0  0.1283376E+001  0.2406952E+03  0.7546771E-02  0.1119331E+00
         21   -1    0    0  504  501  0.00000000000E+00  0.00000000000E+00  0.14861947485E+04  0.14861947485E+04  0.00000000000E+00 0.  1.
         21   -1    0    0  501  502 -0.00000000000E+00 -0.00000000000E+00 -0.10472380097E+03  0.10472380097E+03  0.00000000000E+00 0.  1.
         25    1    1    2    0    0  0.14334640481E+03 -0.17907456375E+03  0.88239652149E+03  0.92025241771E+03  0.12500000000E+03 0.  0.
         21    1    1    2  503  502 -0.19336580873E+02  0.39238176691E+02 -0.63921835008E+02  0.77456690226E+02  0.00000000000E+00 0.  1.
         21    1    1    2  504  503 -0.12400982393E+03  0.13983638706E+03  0.56299626109E+03  0.59320944158E+03  0.00000000000E+00 0.  1.
<mgrwt>
<rscale>  4 0.24069522E+03</rscale>
<asrwt>0</asrwt>
<pdfrwt beam="1">  1       21 0.22864533E+00 0.24069522E+03</pdfrwt>
<pdfrwt beam="2">  1       21 0.16111355E-01 0.24069522E+03</pdfrwt>
<totfact> 0.29302868E+03</totfact>
</mgrwt>
</event>
<event>
 5    0  0.1283376E+001  0.2386356E+03  0.7546771E-02  0.1120705E+00
         21   -1    0    0  502  501  0.00000000000E+00  0.00000000000E+00  0.46524540181E+03  0.46524540181E+03  0.00000000000E+00 0. -1.
         21   -1    0    0  503  502 -0.00000000000E+00 -0.00000000000E+00 -0.12907554203E+03  0.12907554203E+03  0.00000000000E+00 0. -1.
         25    1    1    2    0    0 -0.21085591451E+03  0.75216448348E+01  0.21251344237E+03  0.32450540059E+03  0.12500000000E+03 0.  0.
         21    1    1    2  503  504  0.19790093194E+03  0.28968710532E+02  0.93761129505E+02  0.22089616216E+03  0.00000000000E+00 0. -1.
         21    1    1    2  504  501  0.12954982568E+02 -0.36490355367E+02  0.29895287901E+02  0.48919381096E+02  0.00000000000E+00 0. -1.
<mgrwt>
<rscale>  4 0.23863563E+03</rscale>
<asrwt>0</asrwt>
<pdfrwt beam="1">  1       21 0.71576215E-01 0.23863563E+03</pdfrwt>
<pdfrwt beam="2">  1       21 0.19857776E-01 0.23863563E+03</pdfrwt>
<totfact> 0.40351815E+04</totfact>
</mgrwt>
</event>
<event>
 5    0  0.1283376E+001  0.3329004E+03  0.7546771E-02  0.1069861E+00
         21   -1    0    0  503  501  0.00000000000E+00  0.00000000000E+00  0.14737205567E+04  0.14737205567E+04  0.00000000000E+00 0.  1.
         21   -1    0    0  504  502 -0.00000000000E+00 -0.00000000000E+00 -0.22117613426E+03  0.22117613426E+03  0.00000000000E+00 0.  1.
         25    1    1    2    0    0  0.29542287334E+03 -0.95312597297E+02  0.12971806994E+04  0.13396499290E+04  0.12500000000E+03 0.  0.
         21    1    1    2  503  502 -0.58635309465E+00  0.54779782147E+02 -0.50317022248E+01  0.55013510789E+02  0.00000000000E+00 0. -1.
         21    1    1    2  504  501 -0.29483652024E+03  0.40532815150E+02 -0.39604574764E+02  0.30023325118E+03  0.00000000000E+00 0.  1.
<mgrwt>
<rscale>  4 0.33290044E+03</rscale>
<asrwt>0</asrwt>
<pdfrwt beam="1">  1       21 0.22672623E+00 0.33290044E+03</pdfrwt>
<pdfrwt beam="2">  1       21 0.34027098E-01 0.33290044E+03</pdfrwt>
<totfact> 0.66930121E+02</totfact>
</mgrwt>
</event>
<event>
 5    0  0.1283376E+001  0.2802974E+03  0.7546771E-02  0.1095527E+00
         21   -1    0    0  503  501  0.00000000000E+00  0.00000000000E+00  0.20850468216E+03  0.20850468216E+03  0.00000000000E+00 0.  1.
         21   -1    0    0  504  502 -0.00000000000E+00 -0.00000000000E+00 -0.93359092354E+03  0.93359092354E+03  0.00000000000E+00 0.  1.
         25    1    1    2    0    0  0.11946998191E+03 -0.21057600685E+03 -0.11511165788E+03  0.29578881828E+03  0.12500000000E+03 0.  0.
         21    1    1    2  503  502 -0.15259786137E+03  0.20754288831E+03 -0.23263048878E+02  0.25865290879E+03  0.00000000000E+00 0.  1.
         21    1    1    2  504  501  0.33127879456E+02  0.30331185373E+01 -0.58671153462E+03  0.58765387863E+03  0.00000000000E+00 0.  1.
<mgrwt>
<rscale>  4 0.28029737E+03</rscale>
<asrwt>0</asrwt>
<pdfrwt beam="1">  1       21 0.32077644E-01 0.28029737E+03</pdfrwt>
<pdfrwt beam="2">  1       21 0.14362937E+00 0.28029737E+03</pdfrwt>
<totfact> 0.29288798E+03</totfact>
</mgrwt>
</event>
