<event>
 5    0  0.8533808E-002  0.2544503E+03  0.7546771E-02  0.1110524E+00
         21   -1    0    0  503  502  0.00000000000E+00  0.00000000000E+00  0.13639641903E+03  0.13639641903E+03  0.00000000000E+00 0.  1.
         21   -1    0    0  501  503 -0.00000000000E+00 -0.00000000000E+00 -0.53990795714E+03  0.53990795714E+03  0.00000000000E+00 0.  1.
         25    1    1    2    0    0 -0.21852940188E+03  0.36943818064E+02 -0.37136919846E+03  0.45017777238E+03  0.12500000000E+03 0.  0.
          2    1    1    2  501    0  0.19832166340E+03 -0.29064073596E+02 -0.20435055760E+02  0.20147901641E+03  0.00000000000E+00 0.  1.
         -2    1    1    2    0  502  0.20207738476E+02 -0.78797444677E+01 -0.11707283893E+02  0.24647587374E+02  0.00000000000E+00 0. -1.
<mgrwt>
<rscale>  4 0.25445028E+03</rscale>
<asrwt>0</asrwt>
<pdfrwt beam="1">  1       21 0.20984065E-01 0.25445028E+03</pdfrwt>
<pdfrwt beam="2">  1       21 0.83062761E-01 0.25445028E+03</pdfrwt>
<totfact> 0.25801316E+04</totfact>
</mgrwt>
</event>
<event>
 5    0  0.8533808E-002  0.2370092E+03  0.7546771E-02  0.1121801E+00
         21   -1    0    0  503  502  0.00000000000E+00  0.00000000000E+00  0.38237765342E+03  0.38237765342E+03  0.00000000000E+00 0.  1.
         21   -1    0    0  501  503 -0.00000000000E+00 -0.00000000000E+00 -0.13980679678E+03  0.13980679678E+03  0.00000000000E+00 0.  1.
         25    1    1    2    0    0  0.14689939414E+03  0.13772768165E+03  0.20264614689E+03  0.31183137613E+03  0.12500000000E+03 0.  0.
          2    1    1    2  501    0 -0.54025164207E+02 -0.79839828893E+02  0.27285213099E+02  0.10018782111E+03  0.00000000000E+00 0. -1.
         -2    1    1    2    0  502 -0.92874229933E+02 -0.57887852758E+02  0.12639496647E+02  0.11016525295E+03  0.00000000000E+00 0.  1.
<mgrwt>
<rscale>  4 0.23700917E+03</rscale>
<asrwt>0</asrwt>
<pdfrwt beam="1">  1       21 0.58827331E-01 0.23700917E+03</pdfrwt>
<pdfrwt beam="2">  1       21 0.21508738E-01 0.23700917E+03</pdfrwt>
<totfact> 0.53364679E+04</totfact>
</mgrwt>
</event>
<event>
 5    0  0.8533808E-002  0.2633431E+03  0.7546771E-02  0.1105151E+00
         21   -1    0    0  501  502  0.00000000000E+00  0.00000000000E+00  0.47820055558E+02  0.47820055558E+02  0.00000000000E+00 0.  1.
         21   -1    0    0  502  503 -0.00000000000E+00 -0.00000000000E+00 -0.17065216450E+04  0.17065216450E+04  0.00000000000E+00 0.  1.
         25    1    1    2    0    0  0.61257394851E+02 -0.22354439805E+03 -0.12313112010E+04  0.12591571943E+04  0.12500000000E+03 0.  0.
          4    1    1    2  501    0 -0.45228761311E+02  0.17429317457E+03 -0.23564798747E+03  0.29656993366E+03  0.00000000000E+00 0.  1.
         -4    1    1    2    0  503 -0.16028633540E+02  0.49251223484E+02 -0.19174240105E+03  0.19861457265E+03  0.00000000000E+00 0. -1.
<mgrwt>
<rscale>  4 0.26334306E+03</rscale>
<asrwt>0</asrwt>
<pdfrwt beam="1">  1       21 0.73569322E-02 0.26334306E+03</pdfrwt>
<pdfrwt beam="2">  1       21 0.26254177E+00 0.26334306E+03</pdfrwt>
<totfact> 0.73242211E+03</totfact>
</mgrwt>
</event>
<event>
 5    0  0.8533808E-002  0.2527494E+03  0.7546771E-02  0.1111580E+00
         21   -1    0    0  501  502  0.00000000000E+00  0.00000000000E+00  0.13917162729E+03  0.13917162729E+03  0.00000000000E+00 0. -1.
         21   -1    0    0  502  503 -0.00000000000E+00 -0.00000000000E+00 -0.41453081488E+03  0.41453081488E+03  0.00000000000E+00 0. -1.
         25    1    1    2    0    0 -0.93414753841E+02  0.19882386696E+03 -0.17783680994E+03  0.30904397305E+03  0.12500000000E+03 0.  0.
          3    1    1    2  501    0  0.74927357423E+02 -0.17500614186E+03 -0.98796545998E+02  0.21448080586E+03  0.00000000000E+00 0. -1.
         -3    1    1    2    0  503  0.18487396417E+02 -0.23817725096E+02  0.12741683579E+01  0.30177663263E+02  0.00000000000E+00 0.  1.
<mgrwt>
<rscale>  4 0.25274937E+03</rscale>
<asrwt>0</asrwt>
<pdfrwt beam="1">  1       21 0.21411020E-01 0.25274937E+03</pdfrwt>
<pdfrwt beam="2">  1       21 0.63773971E-01 0.25274937E+03</pdfrwt>
<totfact> 0.44895118E+04</totfact>
</mgrwt>
</event>
<event>
 5    0  0.8533808E-002  0.2066339E+03  0.7546771E-02  0.1144260E+00
         21   -1    0    0  501  502  0.00000000000E+00  0.00000000000E+00  0.11365248541E+04  0.11365248541E+04  0.00000000000E+00 0.  1.
         21   -1    0    0  502  503 -0.00000000000E+00 -0.00000000000E+00 -0.11770648427E+03  0.11770648427E+03  0.00000000000E+00 0.  1.
         25    1    1    2    0    0 -0.60936958263E+02 -0.19866426677E+03  0.20986316779E+03  0.32069978636E+03  0.12500000000E+03 0.  0.
          2    1    1    2  501    0 -0.12018124247E+02  0.15979612909E+03  0.83233912795E+03  0.84762471773E+03  0.00000000000E+00 0.  1.
         -2    1    1    2    0  503  0.72955082511E+02  0.38868137679E+02 -0.23383925883E+02  0.85906834306E+02  0.00000000000E+00 0. -1.
<mgrwt>
<rscale>  4 0.20663393E+03</rscale>
<asrwt>0</asrwt>
<pdfrwt beam="1">  1       21 0.17484997E+00 0.20663393E+03</pdfrwt>
<pdfrwt beam="2">  1       21 0.18108691E-01 0.20663393E+03</pdfrwt>
<totfact> 0.54152462E+03</totfact>
</mgrwt>
</event>
<event>
 5    0  0.8533808E-002  0.3348176E+03  0.7546771E-02  0.1069025E+00
         21   -1    0    0  503  502  0.00000000000E+00  0.00000000000E+00  0.63911781774E+02  0.63911781774E+02  0.00000000000E+00 0.  1.
         21   -1    0    0  501  503 -0.00000000000E+00 -0.00000000000E+00 -0.18011279227E+04  0.18011279227E+04  0.00000000000E+00 0.  1.
         25    1    1    2    0    0 -0.22245387831E+03 -0.21677659245E+03 -0.10889267736E+04  0.11392384900E+04  0.12500000000E+03 0.  0.
          4    1    1    2  501    0  0.17049849714E+02  0.67617282974E+02 -0.18181092013E+03  0.19472546061E+03  0.00000000000E+00 0. -1.
         -4    1    1    2    0  502  0.20540402859E+03  0.14915930948E+03 -0.46647844726E+03  0.53107575385E+03  0.00000000000E+00 0.  1.
<mgrwt>
<rscale>  4 0.33481759E+03</rscale>
<asrwt>0</asrwt>
<pdfrwt beam="1">  1       21 0.98325803E-02 0.33481759E+03</pdfrwt>
<pdfrwt beam="2">  1       21 0.27709665E+00 0.33481759E+03</pdfrwt>
<totfact> 0.34233483E+03</totfact>
</mgrwt>
</event>
<event>
 5    0  0.8533808E-002  0.3241087E+03  0.7546771E-02  0.1073774E+00
         21   -1    0    0  501  502  0.00000000000E+00  0.00000000000E+00  0.29887196410E+04  0.29887196410E+04  0.00000000000E+00 0.  1.
         21   -1    0    0  502  503 -0.00000000000E+00 -0.00000000000E+00 -0.11148096045E+03  0.11148096045E+03  0.00000000000E+00 0. -1.
         25    1    1    2    0    0 -0.72758124749E+02 -0.29815296721E+03  0.18316451979E+03  0.37863330266E+03  0.12500000000E+03 0.  0.
          4    1    1    2  501    0  0.10269264218E+03  0.21169519410E+03  0.24436767611E+04  0.24549779524E+04  0.00000000000E+00 0.  1.
         -4    1    1    2    0  503 -0.29934517431E+02  0.86457773116E+02  0.25039739967E+03  0.26658934642E+03  0.00000000000E+00 0. -1.
<mgrwt>
<rscale>  4 0.32410870E+03</rscale>
<asrwt>0</asrwt>
<pdfrwt beam="1">  1       21 0.45980296E+00 0.32410870E+03</pdfrwt>
<pdfrwt beam="2">  1       21 0.17150919E-01 0.32410870E+03</pdfrwt>
<totfact> 0.91436112E+01</totfact>
</mgrwt>
</event>
<event>
 5    0  0.8533808E-002  0.2347959E+03  0.7546771E-02  0.1123309E+00
         21   -1    0    0  503  502  0.00000000000E+00  0.00000000000E+00  0.62199374342E+03  0.62199374342E+03  0.00000000000E+00 0. -1.
         21   -1    0    0  501  503 -0.00000000000E+00 -0.00000000000E+00 -0.29254703894E+03  0.29254703894E+03  0.00000000000E+00 0. -1.
         25    1    1    2    0    0 -0.20684706838E+03  0.18251782105E+01 -0.21278463342E+03  0.32201139917E+03  0.12500000000E+03 0.  0.
          1    1    1    2  501    0  0.15529116820E+03  0.33412733285E+02  0.27028883073E+03  0.31350886700E+03  0.00000000000E+00 0.  1.
         -1    1    1    2    0  502  0.51555900178E+02 -0.35237911495E+02  0.27194250717E+03  0.27902051619E+03  0.00000000000E+00 0. -1.
<mgrwt>
<rscale>  4 0.23479587E+03</rscale>
<asrwt>0</asrwt>
<pdfrwt beam="1">  1       21 0.95691345E-01 0.23479587E+03</pdfrwt>
<pdfrwt beam="2">  1       21 0.45007237E-01 0.23479587E+03</pdfrwt>
<totfact> 0.41785892E+03</totfact>
</mgrwt>
</event>
<event>
 5    0  0.8533808E-002  0.2375650E+03  0.7546771E-02  0.1121426E+00
         21   -1    0    0  503  502  0.00000000000E+00  0.00000000000E+00  0.39759643041E+03  0.39759643041E+03  0.00000000000E+00 0. -1.
         21   -1    0    0  501  503 -0.00000000000E+00 -0.00000000000E+00 -0.44142145906E+03  0.44142145906E+03  0.00000000000E+00 0. -1.
         25    1    1    2    0    0  0.12821099856E+03 -0.18180542944E+03 -0.35018720792E+03  0.43329822861E+03  0.12500000000E+03 0.  0.
          3    1    1    2  501    0 -0.60458286160E+02  0.13011023114E+03  0.80943630206E+02  0.16472931702E+03  0.00000000000E+00 0.  1.
         -3    1    1    2    0  502 -0.67752712404E+02  0.51695198296E+02  0.22541854906E+03  0.24099034385E+03  0.00000000000E+00 0. -1.
<mgrwt>
<rscale>  4 0.23756503E+03</rscale>
<asrwt>0</asrwt>
<pdfrwt beam="1">  1       21 0.61168682E-01 0.23756503E+03</pdfrwt>
<pdfrwt beam="2">  1       21 0.67910994E-01 0.23756503E+03</pdfrwt>
<totfact> 0.47649112E+03</totfact>
</mgrwt>
</event>
<event>
 5    0  0.8533808E-002  0.3850198E+03  0.7546771E-02  0.1049094E+00
         21   -1    0    0  501  502  0.00000000000E+00  0.00000000000E+00  0.40673771137E+03  0.40673771137E+03  0.00000000000E+00 0.  1.
         21   -1    0    0  502  503 -0.00000000000E+00 -0.00000000000E+00 -0.45845735455E+03  0.45845735455E+03  0.00000000000E+00 0.  1.
         25    1    1    2    0    0 -0.35103658494E+03 -0.96894413272E+02 -0.23639259999E+03  0.45179826540E+03  0.12500000000E+03 0.  0.
          3    1    1    2  501    0  0.46055454722E+02  0.35794492204E+02  0.21608337701E+02  0.62203463248E+02  0.00000000000E+00 0.  1.
         -3    1    1    2    0  503  0.30498113021E+03  0.61099921068E+02  0.16306461910E+03  0.35119333727E+03  0.00000000000E+00 0. -1.
<mgrwt>
<rscale>  4 0.38501975E+03</rscale>
<asrwt>0</asrwt>
<pdfrwt beam="1">  1       21 0.62575032E-01 0.38501975E+03</pdfrwt>
<pdfrwt beam="2">  1       21 0.70531901E-01 0.38501975E+03</pdfrwt>
<totfact> 0.38661103E+03</totfact>
</mgrwt>
</event>
<event>
 5    0  0.5462605E-001  0.2379208E+03  0.7546771E-02  0.1121186E+00
         21   -1    0    0  503  502  0.00000000000E+00  0.00000000000E+00  0.10534278277E+04  0.10534278277E+04  0.00000000000E+00 0. -1.
         21   -1    0    0  501  503 -0.00000000000E+00 -0.00000000000E+00 -0.30193640085E+03  0.30193640085E+03  0.00000000000E+00 0. -1.
         25    1    1    2    0    0  0.12242177897E+03 -0.16122724757E+03  0.10017329605E+04  0.10295995540E+04  0.12500000000E+03 0.  0.
          3    1    1    2  501    0 -0.23780958116E+02  0.70322331881E+02 -0.95973605288E+02  0.12133300145E+03  0.00000000000E+00 0.  1.
         -3    1    1    2    0  502 -0.98640820851E+02  0.90904915687E+02 -0.15426792840E+03  0.20443167310E+03  0.00000000000E+00 0. -1.
<mgrwt>
<rscale>  4 0.23792082E+03</rscale>
<asrwt>0</asrwt>
<pdfrwt beam="1">  1       21 0.16206582E+00 0.23792082E+03</pdfrwt>
<pdfrwt beam="2">  1       21 0.46451754E-01 0.23792082E+03</pdfrwt>
<totfact> 0.10327117E+03</totfact>
</mgrwt>
</event>
<event>
 5    0  0.8533808E-002  0.2472906E+03  0.7546771E-02  0.1115029E+00
         21   -1    0    0  503  502  0.00000000000E+00  0.00000000000E+00  0.18207601470E+03  0.18207601470E+03  0.00000000000E+00 0. -1.
         21   -1    0    0  501  503 -0.00000000000E+00 -0.00000000000E+00 -0.44458877073E+03  0.44458877073E+03  0.00000000000E+00 0. -1.
         25    1    1    2    0    0 -0.69775508069E+02 -0.22077357042E+03 -0.11529956469E+02  0.26337716458E+03  0.12500000000E+03 0.  0.
          2    1    1    2  501    0  0.47303016618E+02  0.30939920156E+02 -0.11672969522E+03  0.12969454802E+03  0.00000000000E+00 0. -1.
         -2    1    1    2    0  502  0.22472491451E+02  0.18983365027E+03 -0.13425310434E+03  0.23359307282E+03  0.00000000000E+00 0.  1.
<mgrwt>
<rscale>  4 0.24729063E+03</rscale>
<asrwt>0</asrwt>
<pdfrwt beam="1">  1       21 0.28011695E-01 0.24729063E+03</pdfrwt>
<pdfrwt beam="2">  1       21 0.68398272E-01 0.24729063E+03</pdfrwt>
<totfact> 0.23050124E+04</totfact>
</mgrwt>
</event>
<event>
 5    0  0.8533808E-002  0.2385303E+03  0.7546771E-02  0.1120776E+00
         21   -1    0    0  501  502  0.00000000000E+00  0.00000000000E+00  0.19743086485E+02  0.19743086485E+02  0.00000000000E+00 0.  1.
         21   -1    0    0  502  503 -0.00000000000E+00 -0.00000000000E+00 -0.25591867131E+04  0.25591867131E+04  0.00000000000E+00 0.  1.
         25    1    1    2    0    0 -0.18316177413E+03 -0.87883139080E+02 -0.13680726871E+04  0.13887114743E+04  0.12500000000E+03 0.  0.
          3    1    1    2  501    0  0.22142767098E+02  0.34447559359E+02 -0.25689202807E+03  0.26013544658E+03  0.00000000000E+00 0. -1.
         -3    1    1    2    0  503  0.16101900703E+03  0.53435579720E+02 -0.91447891141E+03  0.93008287868E+03  0.00000000000E+00 0.  1.
<mgrwt>
<rscale>  4 0.23853025E+03</rscale>
<asrwt>0</asrwt>
<pdfrwt beam="1">  1       21 0.30373994E-02 0.23853025E+03</pdfrwt>
<pdfrwt beam="2">  1       21 0.39372084E+00 0.23853025E+03</pdfrwt>
<totfact> 0.55879994E+03</totfact>
</mgrwt>
</event>
<event>
 5    0  0.8533808E-002  0.2412688E+03  0.7546771E-02  0.1118950E+00
         21   -1    0    0  501  502  0.00000000000E+00  0.00000000000E+00  0.47876961298E+02  0.47876961298E+02  0.00000000000E+00 0. -1.
         21   -1    0    0  502  503 -0.00000000000E+00 -0.00000000000E+00 -0.26966309315E+04  0.26966309315E+04  0.00000000000E+00 0. -1.
         25    1    1    2    0    0  0.13606739582E+03 -0.15514921162E+03 -0.23808687499E+04  0.23930621844E+04  0.12500000000E+03 0.  0.
          4    1    1    2  501    0 -0.16933551703E+02  0.62207382560E+02 -0.33705057364E+02  0.72749807630E+02  0.00000000000E+00 0. -1.
         -4    1    1    2    0  503 -0.11913384411E+03  0.92941829060E+02 -0.23418016295E+03  0.27869590080E+03  0.00000000000E+00 0.  1.
<mgrwt>
<rscale>  4 0.24126876E+03</rscale>
<asrwt>0</asrwt>
<pdfrwt beam="1">  1       21 0.73656830E-02 0.24126876E+03</pdfrwt>
<pdfrwt beam="2">  1       21 0.41486649E+00 0.24126876E+03</pdfrwt>
<totfact> 0.90903481E+02</totfact>
</mgrwt>
</event>
<event>
 5    0  0.8533808E-002  0.2363688E+03  0.7546771E-02  0.1122236E+00
         21   -1    0    0  501  502  0.00000000000E+00  0.00000000000E+00  0.38273416025E+02  0.38273416025E+02  0.00000000000E+00 0. -1.
         21   -1    0    0  502  503 -0.00000000000E+00 -0.00000000000E+00 -0.15181562896E+04  0.15181562896E+04  0.00000000000E+00 0.  1.
         25    1    1    2    0    0 -0.17792882333E+03  0.92663532788E+02 -0.10917596494E+04  0.11170538611E+04  0.12500000000E+03 0.  0.
          1    1    1    2  501    0  0.51045702781E+02 -0.18760970383E+02 -0.15072635402E+03  0.16023754734E+03  0.00000000000E+00 0.  1.
         -1    1    1    2    0  503  0.12688312055E+03 -0.73902562405E+02 -0.23739687017E+03  0.27913829722E+03  0.00000000000E+00 0. -1.
<mgrwt>
<rscale>  4 0.23636877E+03</rscale>
<asrwt>0</asrwt>
<pdfrwt beam="1">  1       21 0.58882183E-02 0.23636877E+03</pdfrwt>
<pdfrwt beam="2">  1       21 0.23356249E+00 0.23636877E+03</pdfrwt>
<totfact> 0.16370802E+04</totfact>
</mgrwt>
</event>
<event>
 5    0  0.8533808E-002  0.4321045E+03  0.7546771E-02  0.1033197E+00
         21   -1    0    0  501  502  0.00000000000E+00  0.00000000000E+00  0.60776433644E+03  0.60776433644E+03  0.00000000000E+00 0. -1.
         21   -1    0    0  502  503 -0.00000000000E+00 -0.00000000000E+00 -0.12084729750E+04  0.12084729750E+04  0.00000000000E+00 0. -1.
         25    1    1    2    0    0 -0.66625623586E+02 -0.41287405664E+03  0.47483553228E+03  0.64497887025E+03  0.12500000000E+03 0.  0.
          2    1    1    2  501    0  0.11262824071E+03  0.34512083950E+03 -0.98186475495E+03  0.10468294567E+04  0.00000000000E+00 0. -1.
         -2    1    1    2    0  503 -0.46002617120E+02  0.67753217142E+02 -0.93679415884E+02  0.12442898447E+03  0.00000000000E+00 0.  1.
<mgrwt>
<rscale>  4 0.43210453E+03</rscale>
<asrwt>0</asrwt>
<pdfrwt beam="1">  1       21 0.93502205E-01 0.43210453E+03</pdfrwt>
<pdfrwt beam="2">  1       21 0.18591892E+00 0.43210453E+03</pdfrwt>
<totfact> 0.12945475E+02</totfact>
</mgrwt>
</event>
<event>
 5    0  0.8533808E-002  0.2346860E+03  0.7546771E-02  0.1123384E+00
         21   -1    0    0  503  502  0.00000000000E+00  0.00000000000E+00  0.12350879870E+04  0.12350879870E+04  0.00000000000E+00 0. -1.
         21   -1    0    0  501  503 -0.00000000000E+00 -0.00000000000E+00 -0.86509300387E+02  0.86509300387E+02  0.00000000000E+00 0. -1.
         25    1    1    2    0    0 -0.11363207140E+03 -0.24995378601E+03  0.77338086962E+03  0.83013981490E+03  0.12500000000E+03 0.  0.
          4    1    1    2  501    0  0.10706462831E+03  0.97603313979E+02  0.97450245219E+02  0.17460180935E+03  0.00000000000E+00 0. -1.
         -4    1    1    2    0  502  0.65674430860E+01  0.15235047203E+03  0.27774757180E+03  0.31685566316E+03  0.00000000000E+00 0.  1.
<mgrwt>
<rscale>  4 0.23468598E+03</rscale>
<asrwt>0</asrwt>
<pdfrwt beam="1">  1       21 0.19001352E+00 0.23468598E+03</pdfrwt>
<pdfrwt beam="2">  1       21 0.13309124E-01 0.23468598E+03</pdfrwt>
<totfact> 0.73459753E+03</totfact>
</mgrwt>
</event>
<event>
 5    0  0.8533808E-002  0.4781971E+03  0.7546771E-02  0.1019632E+00
         21   -1    0    0  501  502  0.00000000000E+00  0.00000000000E+00  0.20303902113E+04  0.20303902113E+04  0.00000000000E+00 0. -1.
         21   -1    0    0  502  503 -0.00000000000E+00 -0.00000000000E+00 -0.11575943731E+03  0.11575943731E+03  0.00000000000E+00 0. -1.
         25    1    1    2    0    0  0.44448803492E+03 -0.12440991827E+03  0.11756269880E+04  0.12691616350E+04  0.12500000000E+03 0.  0.
          2    1    1    2  501    0 -0.25164905218E+02  0.33041185840E+01  0.99295602766E+01  0.27254097335E+02  0.00000000000E+00 0.  1.
         -2    1    1    2    0  503 -0.41932312970E+03  0.12110579969E+03  0.72907422576E+03  0.84973391628E+03  0.00000000000E+00 0. -1.
<mgrwt>
<rscale>  4 0.47819707E+03</rscale>
<asrwt>0</asrwt>
<pdfrwt beam="1">  1       21 0.31236770E+00 0.47819707E+03</pdfrwt>
<pdfrwt beam="2">  1       21 0.17809146E-01 0.47819707E+03</pdfrwt>
<totfact> 0.65182997E+02</totfact>
</mgrwt>
</event>
<event>
 5    0  0.8533808E-002  0.2759769E+03  0.7546771E-02  0.1097907E+00
         21   -1    0    0  501  502  0.00000000000E+00  0.00000000000E+00  0.67132349042E+02  0.67132349042E+02  0.00000000000E+00 0.  1.
         21   -1    0    0  502  503 -0.00000000000E+00 -0.00000000000E+00 -0.10330146832E+04  0.10330146832E+04  0.00000000000E+00 0.  1.
         25    1    1    2    0    0  0.16481094329E+03 -0.18268988019E+03 -0.53726485795E+03  0.60400063488E+03  0.12500000000E+03 0.  0.
          3    1    1    2  501    0 -0.48507872168E+02  0.28217293610E+02 -0.10879911574E+03  0.12241926689E+03  0.00000000000E+00 0. -1.
         -3    1    1    2    0  503 -0.11630307112E+03  0.15447258658E+03 -0.31981836052E+03  0.37372713051E+03  0.00000000000E+00 0.  1.
<mgrwt>
<rscale>  4 0.27597688E+03</rscale>
<asrwt>0</asrwt>
<pdfrwt beam="1">  1       21 0.10328054E-01 0.27597688E+03</pdfrwt>
<pdfrwt beam="2">  1       21 0.15892534E+00 0.27597688E+03</pdfrwt>
<totfact> 0.18690177E+04</totfact>
</mgrwt>
</event>
<event>
 5    0  0.8533808E-002  0.2338027E+03  0.7546771E-02  0.1123991E+00
         21   -1    0    0  501  502  0.00000000000E+00  0.00000000000E+00  0.30815475912E+03  0.30815475912E+03  0.00000000000E+00 0.  1.
         21   -1    0    0  502  503 -0.00000000000E+00 -0.00000000000E+00 -0.23615591697E+03  0.23615591697E+03  0.00000000000E+00 0.  1.
         25    1    1    2    0    0 -0.19409197575E+03  0.10349853645E+03  0.52473999330E+02  0.25838375085E+03  0.12500000000E+03 0.  0.
          4    1    1    2  501    0  0.18786219076E+03 -0.64778706716E+01  0.99700024602E+01  0.18823805799E+03  0.00000000000E+00 0.  1.
         -4    1    1    2    0  503  0.62297849904E+01 -0.97020665781E+02  0.95548403569E+01  0.97688867246E+02  0.00000000000E+00 0. -1.
<mgrwt>
<rscale>  4 0.23380275E+03</rscale>
<asrwt>0</asrwt>
<pdfrwt beam="1">  1       21 0.47408425E-01 0.23380275E+03</pdfrwt>
<pdfrwt beam="2">  1       21 0.36331679E-01 0.23380275E+03</pdfrwt>
<totfact> 0.30438393E+04</totfact>
</mgrwt>
</event>
<event>
 5    0  0.8533808E-002  0.2929083E+03  0.7546771E-02  0.1088840E+00
         21   -1    0    0  503  502  0.00000000000E+00  0.00000000000E+00  0.10798040697E+04  0.10798040697E+04  0.00000000000E+00 0. -1.
         21   -1    0    0  501  503 -0.00000000000E+00 -0.00000000000E+00 -0.75749852597E+02  0.75749852597E+02  0.00000000000E+00 0. -1.
         25    1    1    2    0    0 -0.20020134785E+03 -0.17346376337E+03  0.43811517554E+03  0.52701059185E+03  0.12500000000E+03 0.  0.
          2    1    1    2  501    0  0.72547859004E+02  0.49185315000E+02  0.12227394746E+03  0.15044369474E+03  0.00000000000E+00 0.  1.
         -2    1    1    2    0  502  0.12765348885E+03  0.12427844837E+03  0.44366509414E+03  0.47809963574E+03  0.00000000000E+00 0. -1.
<mgrwt>
<rscale>  4 0.29290827E+03</rscale>
<asrwt>0</asrwt>
<pdfrwt beam="1">  1       21 0.16612369E+00 0.29290827E+03</pdfrwt>
<pdfrwt beam="2">  1       21 0.11653824E-01 0.29290827E+03</pdfrwt>
<totfact> 0.13209579E+04</totfact>
</mgrwt>
</event>
<event>
 5    0  0.8533808E-002  0.2473564E+03  0.7546771E-02  0.1114987E+00
         21   -1    0    0  503  502  0.00000000000E+00  0.00000000000E+00  0.97456129285E+02  0.97456129285E+02  0.00000000000E+00 0. -1.
         21   -1    0    0  501  503 -0.00000000000E+00 -0.00000000000E+00 -0.61756206075E+03  0.61756206075E+03  0.00000000000E+00 0. -1.
         25    1    1    2    0    0 -0.18865516338E+03  0.67530897690E+02 -0.24780803517E+03  0.34232296901E+03  0.12500000000E+03 0.  0.
          4    1    1    2  501    0  0.20981337944E+03 -0.82634853735E+02 -0.22400339509E+03  0.31784853981E+03  0.00000000000E+00 0. -1.
         -4    1    1    2    0  502 -0.21158216058E+02  0.15103956045E+02 -0.48294501198E+02  0.54846681220E+02  0.00000000000E+00 0.  1.
<mgrwt>
<rscale>  4 0.24735642E+03</rscale>
<asrwt>0</asrwt>
<pdfrwt beam="1">  1       21 0.14993251E-01 0.24735642E+03</pdfrwt>
<pdfrwt beam="2">  1       21 0.95009548E-01 0.24735642E+03</pdfrwt>
<totfact> 0.35372958E+04</totfact>
</mgrwt>
</event>
<event>
 5    0  0.8533808E-002  0.3075916E+03  0.7546771E-02  0.1081506E+00
         21   -1    0    0  501  502  0.00000000000E+00  0.00000000000E+00  0.52100872251E+03  0.52100872251E+03  0.00000000000E+00 0.  1.
         21   -1    0    0  502  503 -0.00000000000E+00 -0.00000000000E+00 -0.18971484366E+03  0.18971484366E+03  0.00000000000E+00 0.  1.
         25    1    1    2    0    0  0.23287033667E+03  0.15734994408E+03  0.70593116593E+02  0.31558831840E+03  0.12500000000E+03 0.  0.
          2    1    1    2  501    0 -0.17383433202E+03 -0.86604013907E+02  0.22263288191E+03  0.29543870823E+03  0.00000000000E+00 0. -1.
         -2    1    1    2    0  503 -0.59036004645E+02 -0.70745930173E+02  0.38067880349E+02  0.99696539533E+02  0.00000000000E+00 0.  1.
<mgrwt>
<rscale>  4 0.30759161E+03</rscale>
<asrwt>0</asrwt>
<pdfrwt beam="1">  1       21 0.80155187E-01 0.30759161E+03</pdfrwt>
<pdfrwt beam="2">  1       21 0.29186899E-01 0.30759161E+03</pdfrwt>
<totfact> 0.14495128E+04</totfact>
</mgrwt>
</event>
<event>
 5    0  0.8533808E-002  0.2335932E+03  0.7546771E-02  0.1124136E+00
         21   -1    0    0  501  502  0.00000000000E+00  0.00000000000E+00  0.34421754267E+03  0.34421754267E+03  0.00000000000E+00 0. -1.
         21   -1    0    0  502  503 -0.00000000000E+00 -0.00000000000E+00 -0.18104265863E+03  0.18104265863E+03  0.00000000000E+00 0. -1.
         25    1    1    2    0    0  0.40623149953E+02 -0.19641163890E+03 -0.25166118002E+01  0.23634530997E+03  0.12500000000E+03 0.  0.
          1    1    1    2  501    0  0.24470653928E+02  0.13673789413E+02  0.64046873325E+02  0.69912712745E+02  0.00000000000E+00 0.  1.
         -1    1    1    2    0  503 -0.65093803881E+02  0.18273784949E+03  0.10164462252E+03  0.21900217859E+03  0.00000000000E+00 0. -1.
<mgrwt>
<rscale>  4 0.23359317E+03</rscale>
<asrwt>0</asrwt>
<pdfrwt beam="1">  1       21 0.52956545E-01 0.23359317E+03</pdfrwt>
<pdfrwt beam="2">  1       21 0.27852717E-01 0.23359317E+03</pdfrwt>
<totfact> 0.40766928E+04</totfact>
</mgrwt>
</event>
<event>
 5    0  0.8533808E-002  0.2731200E+03  0.7546771E-02  0.1099507E+00
         21   -1    0    0  501  502  0.00000000000E+00  0.00000000000E+00  0.35741705623E+03  0.35741705623E+03  0.00000000000E+00 0.  1.
         21   -1    0    0  502  503 -0.00000000000E+00 -0.00000000000E+00 -0.19917742892E+03  0.19917742892E+03  0.00000000000E+00 0.  1.
         25    1    1    2    0    0  0.18700750748E+03  0.15491192290E+03  0.13525290817E+03  0.30477509885E+03  0.12500000000E+03 0.  0.
          2    1    1    2  501    0 -0.24354660134E+02 -0.46224258806E+02 -0.10655170705E+02  0.53323205410E+02  0.00000000000E+00 0. -1.
         -2    1    1    2    0  503 -0.16265284734E+03 -0.10868766410E+03  0.33641889846E+02  0.19849618089E+03  0.00000000000E+00 0.  1.
<mgrwt>
<rscale>  4 0.27311996E+03</rscale>
<asrwt>0</asrwt>
<pdfrwt beam="1">  1       21 0.54987239E-01 0.27311996E+03</pdfrwt>
<pdfrwt beam="2">  1       21 0.30642682E-01 0.27311996E+03</pdfrwt>
<totfact> 0.30709637E+04</totfact>
</mgrwt>
</event>
<event>
 5    0  0.8533808E-002  0.2660522E+03  0.7546771E-02  0.1103560E+00
         21   -1    0    0  503  502  0.00000000000E+00  0.00000000000E+00  0.30941239646E+03  0.30941239646E+03  0.00000000000E+00 0. -1.
         21   -1    0    0  501  503 -0.00000000000E+00 -0.00000000000E+00 -0.65914462282E+03  0.65914462282E+03  0.00000000000E+00 0. -1.
         25    1    1    2    0    0 -0.23523861510E+03  0.44625301622E+02 -0.37169092048E+03  0.45946464928E+03  0.12500000000E+03 0.  0.
          2    1    1    2  501    0  0.19673946200E+02  0.48793114305E+02 -0.18725460936E+03  0.19450480943E+03  0.00000000000E+00 0.  1.
         -2    1    1    2    0  502  0.21556466890E+03 -0.93418415927E+02  0.20921330348E+03  0.31458756057E+03  0.00000000000E+00 0. -1.
<mgrwt>
<rscale>  4 0.26605224E+03</rscale>
<asrwt>0</asrwt>
<pdfrwt beam="1">  1       21 0.47601907E-01 0.26605224E+03</pdfrwt>
<pdfrwt beam="2">  1       21 0.10140686E+00 0.26605224E+03</pdfrwt>
<totfact> 0.31744032E+03</totfact>
</mgrwt>
</event>
<event>
 5    0  0.8533808E-002  0.2773663E+03  0.7546771E-02  0.1097136E+00
         21   -1    0    0  501  502  0.00000000000E+00  0.00000000000E+00  0.98211549848E+03  0.98211549848E+03  0.00000000000E+00 0.  1.
         21   -1    0    0  502  503 -0.00000000000E+00 -0.00000000000E+00 -0.19685403230E+03  0.19685403230E+03  0.00000000000E+00 0. -1.
         25    1    1    2    0    0  0.63398233650E+02  0.28905281033E+03  0.27608819019E+01  0.32125299323E+03  0.12500000000E+03 0.  0.
          1    1    1    2  501    0 -0.50289804164E+02 -0.47288240393E+02  0.47318531077E+02  0.83691609290E+02  0.00000000000E+00 0. -1.
         -1    1    1    2    0  503 -0.13108429486E+02 -0.24176456994E+03  0.73518205320E+03  0.77402492825E+03  0.00000000000E+00 0.  1.
<mgrwt>
<rscale>  4 0.27736627E+03</rscale>
<asrwt>0</asrwt>
<pdfrwt beam="1">  1       21 0.15109469E+00 0.27736627E+03</pdfrwt>
<pdfrwt beam="2">  1       21 0.30285236E-01 0.27736627E+03</pdfrwt>
<totfact> 0.28733232E+03</totfact>
</mgrwt>
</event>
<event>
 5    0  0.8533808E-002  0.2479317E+03  0.7546771E-02  0.1114619E+00
         21   -1    0    0  503  502  0.00000000000E+00  0.00000000000E+00  0.33874913105E+03  0.33874913105E+03  0.00000000000E+00 0. -1.
         21   -1    0    0  501  503 -0.00000000000E+00 -0.00000000000E+00 -0.20867204554E+03  0.20867204554E+03  0.00000000000E+00 0. -1.
         25    1    1    2    0    0 -0.11393104843E+03  0.18128660379E+03  0.19122813418E+03  0.31311070855E+03  0.12500000000E+03 0.  0.
          2    1    1    2  501    0  0.33530576807E+02 -0.31107083874E+02 -0.43381819783E+02  0.63039134955E+02  0.00000000000E+00 0.  1.
         -2    1    1    2    0  502  0.80400471624E+02 -0.15017951992E+03 -0.17769228876E+02  0.17127133308E+03  0.00000000000E+00 0. -1.
<mgrwt>
<rscale>  4 0.24793168E+03</rscale>
<asrwt>0</asrwt>
<pdfrwt beam="1">  1       21 0.52115251E-01 0.24793168E+03</pdfrwt>
<pdfrwt beam="2">  1       21 0.32103392E-01 0.24793168E+03</pdfrwt>
<totfact> 0.31726940E+04</totfact>
</mgrwt>
</event>
<event>
 5    0  0.8533808E-002  0.2987878E+03  0.7546771E-02  0.1085848E+00
         21   -1    0    0  501  502  0.00000000000E+00  0.00000000000E+00  0.48399807586E+02  0.48399807586E+02  0.00000000000E+00 0. -1.
         21   -1    0    0  502  503 -0.00000000000E+00 -0.00000000000E+00 -0.18037292401E+04  0.18037292401E+04  0.00000000000E+00 0. -1.
         25    1    1    2    0    0  0.16703174558E+03  0.21389138982E+03 -0.10474523081E+04  0.10892338906E+04  0.12500000000E+03 0.  0.
          1    1    1    2  501    0 -0.10017274185E+03 -0.10503299151E+03 -0.26722384569E+03  0.30409717398E+03  0.00000000000E+00 0. -1.
         -1    1    1    2    0  503 -0.66859003732E+02 -0.10885839831E+03 -0.44065327872E+03  0.45879798312E+03  0.00000000000E+00 0.  1.
<mgrwt>
<rscale>  4 0.29878777E+03</rscale>
<asrwt>0</asrwt>
<pdfrwt beam="1">  1       21 0.74461248E-02 0.29878777E+03</pdfrwt>
<pdfrwt beam="2">  1       21 0.27749678E+00 0.29878777E+03</pdfrwt>
<totfact> 0.57021688E+03</totfact>
</mgrwt>
</event>
<event>
 5    0  0.8533808E-002  0.2169671E+03  0.7546771E-02  0.1136165E+00
         21   -1    0    0  501  502  0.00000000000E+00  0.00000000000E+00  0.15787481599E+03  0.15787481599E+03  0.00000000000E+00 0. -1.
         21   -1    0    0  502  503 -0.00000000000E+00 -0.00000000000E+00 -0.68923752641E+03  0.68923752641E+03  0.00000000000E+00 0. -1.
         25    1    1    2    0    0  0.18480347583E+03 -0.13775885080E+03 -0.50250633326E+03  0.56680458768E+03  0.12500000000E+03 0.  0.
          4    1    1    2  501    0 -0.12241873961E+03  0.11963178479E+03  0.49826124904E+02  0.17827157503E+03  0.00000000000E+00 0. -1.
         -4    1    1    2    0  503 -0.62384736219E+02  0.18127066003E+02 -0.78682502058E+02  0.10203617969E+03  0.00000000000E+00 0.  1.
<mgrwt>
<rscale>  4 0.21696711E+03</rscale>
<asrwt>0</asrwt>
<pdfrwt beam="1">  1       21 0.24288434E-01 0.21696711E+03</pdfrwt>
<pdfrwt beam="2">  1       21 0.10603654E+00 0.21696711E+03</pdfrwt>
<totfact> 0.11233250E+04</totfact>
</mgrwt>
</event>
<event>
 5    0  0.8533808E-002  0.2532930E+03  0.7546771E-02  0.1111241E+00
         21   -1    0    0  501  502  0.00000000000E+00  0.00000000000E+00  0.44008729383E+03  0.44008729383E+03  0.00000000000E+00 0.  1.
         21   -1    0    0  502  503 -0.00000000000E+00 -0.00000000000E+00 -0.23485168633E+03  0.23485168633E+03  0.00000000000E+00 0.  1.
         25    1    1    2    0    0  0.18169933883E+03  0.20936082487E+03  0.16744157715E+02  0.30455208346E+03  0.12500000000E+03 0.  0.
          2    1    1    2  501    0 -0.25613972395E+02 -0.11496794639E+03  0.13736405276E+03  0.18094912896E+03  0.00000000000E+00 0. -1.
         -2    1    1    2    0  503 -0.15608536643E+03 -0.94392878486E+02  0.51127397022E+02  0.18943776775E+03  0.00000000000E+00 0.  1.
<mgrwt>
<rscale>  4 0.25329301E+03</rscale>
<asrwt>0</asrwt>
<pdfrwt beam="1">  1       21 0.67705737E-01 0.25329301E+03</pdfrwt>
<pdfrwt beam="2">  1       21 0.36131029E-01 0.25329301E+03</pdfrwt>
<totfact> 0.14217952E+04</totfact>
</mgrwt>
</event>
<event>
 5    0  0.8533808E-002  0.3106665E+03  0.7546771E-02  0.1080027E+00
         21   -1    0    0  501  502  0.00000000000E+00  0.00000000000E+00  0.20802075295E+03  0.20802075295E+03  0.00000000000E+00 0. -1.
         21   -1    0    0  502  503 -0.00000000000E+00 -0.00000000000E+00 -0.44149488930E+03  0.44149488930E+03  0.00000000000E+00 0.  1.
         25    1    1    2    0    0 -0.23045970898E+03  0.16666439158E+03 -0.10689653129E+03  0.32854309502E+03  0.12500000000E+03 0.  0.
          1    1    1    2  501    0  0.21185449019E+03 -0.15240955920E+03 -0.13764294209E+03  0.29505351762E+03  0.00000000000E+00 0. -1.
         -1    1    1    2    0  503  0.18605218788E+02 -0.14254832381E+02  0.11065337025E+02  0.25919029609E+02  0.00000000000E+00 0.  1.
<mgrwt>
<rscale>  4 0.31066654E+03</rscale>
<asrwt>0</asrwt>
<pdfrwt beam="1">  1       21 0.32003193E-01 0.31066654E+03</pdfrwt>
<pdfrwt beam="2">  1       21 0.67922290E-01 0.31066654E+03</pdfrwt>
<totfact> 0.17529363E+04</totfact>
</mgrwt>
</event>
<event>
 5    0  0.8533808E-002  0.1970881E+03  0.7546771E-02  0.1152219E+00
         21   -1    0    0  501  502  0.00000000000E+00  0.00000000000E+00  0.48266072819E+03  0.48266072819E+03  0.00000000000E+00 0.  1.
         21   -1    0    0  502  503 -0.00000000000E+00 -0.00000000000E+00 -0.24167141873E+03  0.24167141873E+03  0.00000000000E+00 0. -1.
         25    1    1    2    0    0 -0.20771973130E+03 -0.64999836753E+02 -0.87019757510E+02  0.26564996470E+03  0.12500000000E+03 0.  0.
          1    1    1    2  501    0  0.11694883095E+03  0.90128739104E+02  0.33310303718E+03  0.36435950935E+03  0.00000000000E+00 0.  1.
         -1    1    1    2    0  503  0.90770900352E+02 -0.25128902351E+02 -0.50939702046E+01  0.94322672866E+02  0.00000000000E+00 0. -1.
<mgrwt>
<rscale>  4 0.19708811E+03</rscale>
<asrwt>0</asrwt>
<pdfrwt beam="1">  1       21 0.74255497E-01 0.19708811E+03</pdfrwt>
<pdfrwt beam="2">  1       21 0.37180218E-01 0.19708811E+03</pdfrwt>
<totfact> 0.11308198E+04</totfact>
</mgrwt>
</event>
<event>
 5    0  0.8533808E-002  0.4668287E+03  0.7546771E-02  0.1022819E+00
         21   -1    0    0  501  502  0.00000000000E+00  0.00000000000E+00  0.17859314831E+04  0.17859314831E+04  0.00000000000E+00 0.  1.
         21   -1    0    0  502  503 -0.00000000000E+00 -0.00000000000E+00 -0.11979423063E+03  0.11979423063E+03  0.00000000000E+00 0.  1.
         25    1    1    2    0    0 -0.13863498473E+03 -0.42788355503E+03  0.75792030375E+03  0.89015289837E+03  0.12500000000E+03 0.  0.
          3    1    1    2  501    0  0.18639997081E+02  0.62229241063E+02  0.86255265269E+02  0.10798101093E+03  0.00000000000E+00 0. -1.
         -3    1    1    2    0  503  0.11999498765E+03  0.36565431396E+03  0.82196168345E+03  0.90759180441E+03  0.00000000000E+00 0.  1.
<mgrwt>
<rscale>  4 0.46682866E+03</rscale>
<asrwt>0</asrwt>
<pdfrwt beam="1">  1       21 0.27475867E+00 0.46682866E+03</pdfrwt>
<pdfrwt beam="2">  1       21 0.18429883E-01 0.46682866E+03</pdfrwt>
<totfact> 0.10363649E+03</totfact>
</mgrwt>
</event>
<event>
 5    0  0.8533808E-002  0.2588502E+03  0.7546771E-02  0.1107836E+00
         21   -1    0    0  503  502  0.00000000000E+00  0.00000000000E+00  0.34644634740E+03  0.34644634740E+03  0.00000000000E+00 0. -1.
         21   -1    0    0  501  503 -0.00000000000E+00 -0.00000000000E+00 -0.49471497763E+03  0.49471497763E+03  0.00000000000E+00 0. -1.
         25    1    1    2    0    0  0.24113778778E+03 -0.32644691240E+02 -0.34027613285E+03  0.43660732374E+03  0.12500000000E+03 0.  0.
          3    1    1    2  501    0 -0.87389976880E+02  0.10787561402E+03 -0.10703253258E+02  0.13924336893E+03  0.00000000000E+00 0.  1.
         -3    1    1    2    0  502 -0.15374781090E+03 -0.75230922781E+02  0.20271075587E+03  0.26531063236E+03  0.00000000000E+00 0. -1.
<mgrwt>
<rscale>  4 0.25885019E+03</rscale>
<asrwt>0</asrwt>
<pdfrwt beam="1">  1       21 0.53299438E-01 0.25885019E+03</pdfrwt>
<pdfrwt beam="2">  1       21 0.76109996E-01 0.25885019E+03</pdfrwt>
<totfact> 0.48982581E+03</totfact>
</mgrwt>
</event>
<event>
 5    0  0.8533808E-002  0.2669366E+03  0.7546771E-02  0.1103046E+00
         21   -1    0    0  501  502  0.00000000000E+00  0.00000000000E+00  0.14289200290E+04  0.14289200290E+04  0.00000000000E+00 0.  1.
         21   -1    0    0  502  503 -0.00000000000E+00 -0.00000000000E+00 -0.64502766488E+03  0.64502766488E+03  0.00000000000E+00 0. -1.
         25    1    1    2    0    0  0.55827145385E+02  0.22915816024E+03 -0.60593151772E+03  0.66212395874E+03  0.12500000000E+03 0.  0.
          4    1    1    2  501    0 -0.19144440811E+02 -0.18951717292E+03  0.11735346615E+04  0.11888931282E+04  0.00000000000E+00 0.  1.
         -4    1    1    2    0  503 -0.36682704574E+02 -0.39640987324E+02  0.21628922034E+03  0.22293060697E+03  0.00000000000E+00 0. -1.
<mgrwt>
<rscale>  4 0.26693657E+03</rscale>
<asrwt>0</asrwt>
<pdfrwt beam="1">  1       21 0.21983385E+00 0.26693657E+03</pdfrwt>
<pdfrwt beam="2">  1       21 0.99235026E-01 0.26693657E+03</pdfrwt>
<totfact> 0.76635091E+01</totfact>
</mgrwt>
</event>
<event>
 5    0  0.8533808E-002  0.2105630E+03  0.7546771E-02  0.1141121E+00
         21   -1    0    0  503  502  0.00000000000E+00  0.00000000000E+00  0.35518289028E+04  0.35518289028E+04  0.00000000000E+00 0.  1.
         21   -1    0    0  501  503 -0.00000000000E+00 -0.00000000000E+00 -0.23295958221E+02  0.23295958221E+02  0.00000000000E+00 0.  1.
         25    1    1    2    0    0 -0.17079968367E+03  0.13138832089E+03  0.13562439754E+04  0.13789336981E+04  0.12500000000E+03 0.  0.
          1    1    1    2  501    0  0.30313255500E+02 -0.59378832016E+02  0.11555886578E+03  0.13341135863E+03  0.00000000000E+00 0. -1.
         -1    1    1    2    0  502  0.14048642816E+03 -0.72009488870E+02  0.20567301034E+04  0.20627798044E+04  0.00000000000E+00 0.  1.
<mgrwt>
<rscale>  4 0.21056302E+03</rscale>
<asrwt>0</asrwt>
<pdfrwt beam="1">  1       21 0.54643479E+00 0.21056302E+03</pdfrwt>
<pdfrwt beam="2">  1       21 0.35839964E-02 0.21056302E+03</pdfrwt>
<totfact> 0.39958216E+02</totfact>
</mgrwt>
</event>
<event>
 5    0  0.8533808E-002  0.2372269E+03  0.7546771E-02  0.1121654E+00
         21   -1    0    0  503  502  0.00000000000E+00  0.00000000000E+00  0.64758316641E+03  0.64758316641E+03  0.00000000000E+00 0.  1.
         21   -1    0    0  501  503 -0.00000000000E+00 -0.00000000000E+00 -0.11629185767E+03  0.11629185767E+03  0.00000000000E+00 0. -1.
         25    1    1    2    0    0  0.90658314144E+02  0.18522325712E+03  0.92968152459E+02  0.25844663332E+03  0.12500000000E+03 0.  0.
          1    1    1    2  501    0 -0.60594667790E+02 -0.18547103972E+03  0.26261355809E+03  0.32716525065E+03  0.00000000000E+00 0.  1.
         -1    1    1    2    0  502 -0.30063646354E+02  0.24778260220E+00  0.17570959819E+03  0.17826314012E+03  0.00000000000E+00 0. -1.
<mgrwt>
<rscale>  4 0.23722690E+03</rscale>
<asrwt>0</asrwt>
<pdfrwt beam="1">  1       21 0.99628177E-01 0.23722690E+03</pdfrwt>
<pdfrwt beam="2">  1       21 0.17891055E-01 0.23722690E+03</pdfrwt>
<totfact> 0.22930876E+04</totfact>
</mgrwt>
</event>
<event>
 5    0  0.8533808E-002  0.2391484E+03  0.7546771E-02  0.1120361E+00
         21   -1    0    0  503  502  0.00000000000E+00  0.00000000000E+00  0.50753665455E+02  0.50753665455E+02  0.00000000000E+00 0. -1.
         21   -1    0    0  501  503 -0.00000000000E+00 -0.00000000000E+00 -0.14140212176E+04  0.14140212176E+04  0.00000000000E+00 0.  1.
         25    1    1    2    0    0  0.14010592619E+03  0.14811234283E+03 -0.11061255794E+04  0.11316827003E+04  0.12500000000E+03 0.  0.
          3    1    1    2  501    0 -0.60360314444E+01 -0.36587936635E+02 -0.51487055236E+02  0.63450986121E+02  0.00000000000E+00 0.  1.
         -3    1    1    2    0  502 -0.13406989475E+03 -0.11152440619E+03 -0.20565491753E+03  0.26964119670E+03  0.00000000000E+00 0. -1.
<mgrwt>
<rscale>  4 0.23914836E+03</rscale>
<asrwt>0</asrwt>
<pdfrwt beam="1">  1       21 0.78082568E-02 0.23914836E+03</pdfrwt>
<pdfrwt beam="2">  1       21 0.21754171E+00 0.23914836E+03</pdfrwt>
<totfact> 0.12571295E+04</totfact>
</mgrwt>
</event>
<event>
 5    0  0.8533808E-002  0.2284354E+03  0.7546771E-02  0.1127746E+00
         21   -1    0    0  501  502  0.00000000000E+00  0.00000000000E+00  0.12067214666E+04  0.12067214666E+04  0.00000000000E+00 0.  1.
         21   -1    0    0  502  503 -0.00000000000E+00 -0.00000000000E+00 -0.61998271907E+02  0.61998271907E+02  0.00000000000E+00 0.  1.
         25    1    1    2    0    0 -0.12979648337E+03  0.16035335385E+03  0.38408898359E+03  0.45355228199E+03  0.12500000000E+03 0.  0.
          2    1    1    2  501    0  0.61680046345E+02 -0.17857635828E+03  0.68986077906E+03  0.71526347477E+03  0.00000000000E+00 0.  1.
         -2    1    1    2    0  503  0.68116437021E+02  0.18223004430E+02  0.70773431997E+02  0.99903981700E+02  0.00000000000E+00 0. -1.
<mgrwt>
<rscale>  4 0.22843540E+03</rscale>
<asrwt>0</asrwt>
<pdfrwt beam="1">  1       21 0.18564944E+00 0.22843540E+03</pdfrwt>
<pdfrwt beam="2">  1       21 0.95381966E-02 0.22843540E+03</pdfrwt>
<totfact> 0.14321668E+04</totfact>
</mgrwt>
</event>
<event>
 5    0  0.8533808E-002  0.2531978E+03  0.7546771E-02  0.1111300E+00
         21   -1    0    0  501  502  0.00000000000E+00  0.00000000000E+00  0.49310961097E+03  0.49310961097E+03  0.00000000000E+00 0. -1.
         21   -1    0    0  502  503 -0.00000000000E+00 -0.00000000000E+00 -0.13261168104E+03  0.13261168104E+03  0.00000000000E+00 0. -1.
         25    1    1    2    0    0 -0.12616003151E+03  0.18046548437E+03  0.87226291152E+02  0.26780136383E+03  0.12500000000E+03 0.  0.
          4    1    1    2  501    0  0.49198685407E+02 -0.13013470656E+03  0.16033111632E+03  0.21227722289E+03  0.00000000000E+00 0. -1.
         -4    1    1    2    0  503  0.76961346106E+02 -0.50330777808E+02  0.11294052246E+03  0.14564270529E+03  0.00000000000E+00 0.  1.
<mgrwt>
<rscale>  4 0.25319784E+03</rscale>
<asrwt>0</asrwt>
<pdfrwt beam="1">  1       21 0.75863016E-01 0.25319784E+03</pdfrwt>
<pdfrwt beam="2">  1       21 0.20401797E-01 0.25319784E+03</pdfrwt>
<totfact> 0.33455201E+04</totfact>
</mgrwt>
</event>
<event>
 5    0  0.8533808E-002  0.2603594E+03  0.7546771E-02  0.1106928E+00
         21   -1    0    0  503  502  0.00000000000E+00  0.00000000000E+00  0.41155698930E+03  0.41155698930E+03  0.00000000000E+00 0.  1.
         21   -1    0    0  501  503 -0.00000000000E+00 -0.00000000000E+00 -0.28949830947E+03  0.28949830947E+03  0.00000000000E+00 0. -1.
         25    1    1    2    0    0 -0.76781349149E+02 -0.22608144376E+03 -0.11334572154E+03  0.29237039416E+03  0.12500000000E+03 0.  0.
          2    1    1    2  501    0 -0.60940557155E+02  0.44025198904E+02 -0.72505997840E+01  0.75528410828E+02  0.00000000000E+00 0. -1.
         -2    1    1    2    0  502  0.13772190630E+03  0.18205624485E+03  0.24265500116E+03  0.33315649379E+03  0.00000000000E+00 0.  1.
<mgrwt>
<rscale>  4 0.26035937E+03</rscale>
<asrwt>0</asrwt>
<pdfrwt beam="1">  1       21 0.63316460E-01 0.26035937E+03</pdfrwt>
<pdfrwt beam="2">  1       21 0.44538202E-01 0.26035937E+03</pdfrwt>
<totfact> 0.10721478E+04</totfact>
</mgrwt>
</event>
<event>
 5    0  0.8533808E-002  0.3008647E+03  0.7546771E-02  0.1084809E+00
         21   -1    0    0  503  502  0.00000000000E+00  0.00000000000E+00  0.18381483251E+04  0.18381483251E+04  0.00000000000E+00 0. -1.
         21   -1    0    0  501  503 -0.00000000000E+00 -0.00000000000E+00 -0.50833295630E+02  0.50833295630E+02  0.00000000000E+00 0. -1.
         25    1    1    2    0    0  0.17065570583E+03  0.21394199505E+03  0.12381957526E+04  0.12742245756E+04  0.12500000000E+03 0.  0.
          1    1    1    2  501    0 -0.13828570757E+03 -0.19417724796E+03  0.47879258525E+03  0.53485519558E+03  0.00000000000E+00 0. -1.
         -1    1    1    2    0  502 -0.32369998263E+02 -0.19764747095E+02  0.70326691561E+02  0.79901849548E+02  0.00000000000E+00 0.  1.
<mgrwt>
<rscale>  4 0.30086467E+03</rscale>
<asrwt>0</asrwt>
<pdfrwt beam="1">  1       21 0.28279200E+00 0.30086467E+03</pdfrwt>
<pdfrwt beam="2">  1       21 0.78205084E-02 0.30086467E+03</pdfrwt>
<totfact> 0.48617777E+03</totfact>
</mgrwt>
</event>
<event>
 5    0  0.8533808E-002  0.2379259E+03  0.7546771E-02  0.1121182E+00
         21   -1    0    0  503  502  0.00000000000E+00  0.00000000000E+00  0.72103108843E+02  0.72103108843E+02  0.00000000000E+00 0. -1.
         21   -1    0    0  501  503 -0.00000000000E+00 -0.00000000000E+00 -0.83965363163E+03  0.83965363163E+03  0.00000000000E+00 0. -1.
         25    1    1    2    0    0 -0.30668827503E+02  0.20798210022E+03 -0.48753504064E+03  0.54544710728E+03  0.12500000000E+03 0.  0.
          4    1    1    2  501    0  0.47649586295E+02 -0.19336826217E+03 -0.19624789833E+03  0.27959793542E+03  0.00000000000E+00 0. -1.
         -4    1    1    2    0  502 -0.16980758792E+02 -0.14613838047E+02 -0.83767583816E+02  0.86711697769E+02  0.00000000000E+00 0.  1.
<mgrwt>
<rscale>  4 0.23792591E+03</rscale>
<asrwt>0</asrwt>
<pdfrwt beam="1">  1       21 0.11092786E-01 0.23792591E+03</pdfrwt>
<pdfrwt beam="2">  1       21 0.12917748E+00 0.23792591E+03</pdfrwt>
<totfact> 0.28906447E+04</totfact>
</mgrwt>
</event>
<event>
 5    0  0.8533808E-002  0.3245766E+03  0.7546771E-02  0.1073562E+00
         21   -1    0    0  503  502  0.00000000000E+00  0.00000000000E+00  0.10287740995E+03  0.10287740995E+03  0.00000000000E+00 0.  1.
         21   -1    0    0  501  503 -0.00000000000E+00 -0.00000000000E+00 -0.11515999208E+04  0.11515999208E+04  0.00000000000E+00 0.  1.
         25    1    1    2    0    0 -0.23188872940E+03 -0.18961160550E+03 -0.77946623589E+03  0.84434445379E+03  0.12500000000E+03 0.  0.
          4    1    1    2  501    0  0.13784590036E+03  0.13575088825E+03 -0.12752836336E+03  0.23171810323E+03  0.00000000000E+00 0.  1.
         -4    1    1    2    0  502  0.94042829042E+02  0.53860717253E+02 -0.14172791165E+03  0.17841477376E+03  0.00000000000E+00 0. -1.
<mgrwt>
<rscale>  4 0.32457656E+03</rscale>
<asrwt>0</asrwt>
<pdfrwt beam="1">  1       21 0.15827294E-01 0.32457656E+03</pdfrwt>
<pdfrwt beam="2">  1       21 0.17716921E+00 0.32457656E+03</pdfrwt>
<totfact> 0.61994227E+03</totfact>
</mgrwt>
</event>
<event>
 5    0  0.8533808E-002  0.2994028E+03  0.7546771E-02  0.1085540E+00
         21   -1    0    0  503  502  0.00000000000E+00  0.00000000000E+00  0.13809057946E+04  0.13809057946E+04  0.00000000000E+00 0. -1.
         21   -1    0    0  501  503 -0.00000000000E+00 -0.00000000000E+00 -0.10176052567E+03  0.10176052567E+03  0.00000000000E+00 0. -1.
         25    1    1    2    0    0  0.28055417979E+03 -0.27660721153E+02  0.10700153418E+04  0.11135679571E+04  0.12500000000E+03 0.  0.
          2    1    1    2  501    0 -0.38531490287E+02 -0.22861085858E+02 -0.71844472366E+00  0.44808717379E+02  0.00000000000E+00 0.  1.
         -2    1    1    2    0  502 -0.24202268951E+03  0.50521807011E+02  0.20984837183E+03  0.32428964581E+03  0.00000000000E+00 0. -1.
<mgrwt>
<rscale>  4 0.29940284E+03</rscale>
<asrwt>0</asrwt>
<pdfrwt beam="1">  1       21 0.21244703E+00 0.29940284E+03</pdfrwt>
<pdfrwt beam="2">  1       21 0.15655466E-01 0.29940284E+03</pdfrwt>
<totfact> 0.37342389E+03</totfact>
</mgrwt>
</event>
<event>
 5    0  0.8533808E-002  0.2408432E+03  0.7546771E-02  0.1119232E+00
         21   -1    0    0  501  502  0.00000000000E+00  0.00000000000E+00  0.84605545300E+02  0.84605545300E+02  0.00000000000E+00 0.  1.
         21   -1    0    0  502  503 -0.00000000000E+00 -0.00000000000E+00 -0.78952414029E+03  0.78952414029E+03  0.00000000000E+00 0. -1.
         25    1    1    2    0    0 -0.62815227313E+01 -0.20576931689E+03 -0.57362708358E+03  0.62213623936E+03  0.12500000000E+03 0.  0.
          4    1    1    2  501    0 -0.19504645190E+02  0.15775362568E+03 -0.11082718317E+03  0.19377642305E+03  0.00000000000E+00 0.  1.
         -4    1    1    2    0  503  0.25786167921E+02  0.48015691205E+02 -0.20464328232E+02  0.58217023180E+02  0.00000000000E+00 0. -1.
<mgrwt>
<rscale>  4 0.24084325E+03</rscale>
<asrwt>0</asrwt>
<pdfrwt beam="1">  1       21 0.13016237E-01 0.24084325E+03</pdfrwt>
<pdfrwt beam="2">  1       21 0.12146525E+00 0.24084325E+03</pdfrwt>
<totfact> 0.25287154E+04</totfact>
</mgrwt>
</event>
<event>
 5    0  0.8533808E-002  0.3379849E+03  0.7546771E-02  0.1067657E+00
         21   -1    0    0  503  502  0.00000000000E+00  0.00000000000E+00  0.98471050169E+02  0.98471050169E+02  0.00000000000E+00 0.  1.
         21   -1    0    0  501  503 -0.00000000000E+00 -0.00000000000E+00 -0.11546386053E+04  0.11546386053E+04  0.00000000000E+00 0.  1.
         25    1    1    2    0    0 -0.31295134831E+03  0.25889444841E+02 -0.41437064657E+03  0.53473062611E+03  0.12500000000E+03 0.  0.
          3    1    1    2  501    0  0.27841489716E+03 -0.31723469171E+02 -0.50894281913E+03  0.58098539276E+03  0.00000000000E+00 0.  1.
         -3    1    1    2    0  502  0.34536451147E+02  0.58340243303E+01 -0.13285408943E+03  0.13739363659E+03  0.00000000000E+00 0. -1.
<mgrwt>
<rscale>  4 0.33798493E+03</rscale>
<asrwt>0</asrwt>
<pdfrwt beam="1">  1       21 0.15149391E-01 0.33798493E+03</pdfrwt>
<pdfrwt beam="2">  1       21 0.17763673E+00 0.33798493E+03</pdfrwt>
<totfact> 0.66260816E+03</totfact>
</mgrwt>
</event>
<event>
 5    0  0.8533808E-002  0.2559005E+03  0.7546771E-02  0.1109632E+00
         21   -1    0    0  501  502  0.00000000000E+00  0.00000000000E+00  0.19730658215E+03  0.19730658215E+03  0.00000000000E+00 0. -1.
         21   -1    0    0  502  503 -0.00000000000E+00 -0.00000000000E+00 -0.19508039998E+04  0.19508039998E+04  0.00000000000E+00 0. -1.
         25    1    1    2    0    0 -0.22023747909E+03 -0.42128266703E+02  0.10051775334E+03  0.27569576853E+03  0.12500000000E+03 0.  0.
          2    1    1    2  501    0  0.21174950914E+03 -0.70052647143E+01 -0.15227670341E+04  0.15374349965E+04  0.00000000000E+00 0. -1.
         -2    1    1    2    0  503  0.84879699440E+01  0.49133531417E+02 -0.33124813685E+03  0.33497981687E+03  0.00000000000E+00 0.  1.
<mgrwt>
<rscale>  4 0.25590046E+03</rscale>
<asrwt>0</asrwt>
<pdfrwt beam="1">  1       21 0.30354860E-01 0.25590046E+03</pdfrwt>
<pdfrwt beam="2">  1       21 0.30012368E+00 0.25590046E+03</pdfrwt>
<totfact> 0.32712566E+02</totfact>
</mgrwt>
</event>
<event>
 5    0  0.8533808E-002  0.2646714E+03  0.7546771E-02  0.1104369E+00
         21   -1    0    0  501  502  0.00000000000E+00  0.00000000000E+00  0.87369125217E+02  0.87369125217E+02  0.00000000000E+00 0.  1.
         21   -1    0    0  502  503 -0.00000000000E+00 -0.00000000000E+00 -0.73742019533E+03  0.73742019533E+03  0.00000000000E+00 0. -1.
         25    1    1    2    0    0  0.15352756109E+03  0.17565656731E+03 -0.39955439511E+03  0.47926470379E+03  0.12500000000E+03 0.  0.
          4    1    1    2  501    0 -0.10125357936E+03 -0.90570123636E+02 -0.12043767352E+03  0.18155017993E+03  0.00000000000E+00 0. -1.
         -4    1    1    2    0  503 -0.52273981731E+02 -0.85086443677E+02 -0.13005900149E+03  0.16397443683E+03  0.00000000000E+00 0.  1.
<mgrwt>
<rscale>  4 0.26467138E+03</rscale>
<asrwt>0</asrwt>
<pdfrwt beam="1">  1       21 0.13441404E-01 0.26467138E+03</pdfrwt>
<pdfrwt beam="2">  1       21 0.11344926E+00 0.26467138E+03</pdfrwt>
<totfact> 0.27931064E+04</totfact>
</mgrwt>
</event>
<event>
 5    0  0.8533808E-002  0.2574165E+03  0.7546771E-02  0.1108705E+00
         21   -1    0    0  503  502  0.00000000000E+00  0.00000000000E+00  0.18279199891E+04  0.18279199891E+04  0.00000000000E+00 0.  1.
         21   -1    0    0  501  503 -0.00000000000E+00 -0.00000000000E+00 -0.36761744446E+02  0.36761744446E+02  0.00000000000E+00 0. -1.
         25    1    1    2    0    0  0.20417034608E+03  0.94618794950E+02  0.64250534839E+03  0.69215342901E+03  0.12500000000E+03 0.  0.
          4    1    1    2  501    0 -0.16936930633E+03 -0.53014195503E+02  0.78203504546E+03  0.80191974610E+03  0.00000000000E+00 0.  1.
         -4    1    1    2    0  502 -0.34801039758E+02 -0.41604599446E+02  0.36661785083E+03  0.37060855846E+03  0.00000000000E+00 0. -1.
<mgrwt>
<rscale>  4 0.25741648E+03</rscale>
<asrwt>0</asrwt>
<pdfrwt beam="1">  1       21 0.28121839E+00 0.25741648E+03</pdfrwt>
<pdfrwt beam="2">  1       21 0.56556544E-02 0.25741648E+03</pdfrwt>
<totfact> 0.90049742E+03</totfact>
</mgrwt>
</event>
<event>
 5    0  0.8533808E-002  0.3929773E+03  0.7546771E-02  0.1046239E+00
         21   -1    0    0  501  502  0.00000000000E+00  0.00000000000E+00  0.67100567208E+03  0.67100567208E+03  0.00000000000E+00 0. -1.
         21   -1    0    0  502  503 -0.00000000000E+00 -0.00000000000E+00 -0.36630427495E+03  0.36630427495E+03  0.00000000000E+00 0. -1.
         25    1    1    2    0    0  0.24769817110E+03 -0.33278178340E+03 -0.87962987472E+02  0.44210924724E+03  0.12500000000E+03 0.  0.
          2    1    1    2  501    0 -0.47894860005E+02  0.31460019357E+02 -0.52764209315E+01  0.57545556307E+02  0.00000000000E+00 0.  1.
         -2    1    1    2    0  503 -0.19980331110E+03  0.30132176404E+03  0.39794080553E+03  0.53765514349E+03  0.00000000000E+00 0. -1.
<mgrwt>
<rscale>  4 0.39297731E+03</rscale>
<asrwt>0</asrwt>
<pdfrwt beam="1">  1       21 0.10323164E+00 0.39297731E+03</pdfrwt>
<pdfrwt beam="2">  1       21 0.56354504E-01 0.39297731E+03</pdfrwt>
<totfact> 0.19882623E+03</totfact>
</mgrwt>
</event>
<event>
 5    0  0.8533808E-002  0.2401286E+03  0.7546771E-02  0.1119707E+00
         21   -1    0    0  503  502  0.00000000000E+00  0.00000000000E+00  0.93993392817E+03  0.93993392817E+03  0.00000000000E+00 0. -1.
         21   -1    0    0  501  503 -0.00000000000E+00 -0.00000000000E+00 -0.58774103688E+02  0.58774103688E+02  0.00000000000E+00 0. -1.
         25    1    1    2    0    0  0.78548126967E+02 -0.18938565938E+03  0.60315514766E+03  0.64919786535E+03  0.12500000000E+03 0.  0.
          4    1    1    2  501    0 -0.13500847348E+02  0.32346341390E+02  0.19447692953E+02  0.40084553654E+02  0.00000000000E+00 0.  1.
         -4    1    1    2    0  502 -0.65047279620E+02  0.15703931799E+03  0.25855698387E+03  0.30942561285E+03  0.00000000000E+00 0. -1.
<mgrwt>
<rscale>  4 0.24012858E+03</rscale>
<asrwt>0</asrwt>
<pdfrwt beam="1">  1       21 0.14460521E+00 0.24012858E+03</pdfrwt>
<pdfrwt beam="2">  1       21 0.90421705E-02 0.24012858E+03</pdfrwt>
<totfact> 0.31020663E+04</totfact>
</mgrwt>
</event>
<event>
 5    0  0.8533808E-002  0.2248207E+03  0.7546771E-02  0.1130339E+00
         21   -1    0    0  503  502  0.00000000000E+00  0.00000000000E+00  0.57295683070E+02  0.57295683070E+02  0.00000000000E+00 0.  1.
         21   -1    0    0  501  503 -0.00000000000E+00 -0.00000000000E+00 -0.10118506688E+04  0.10118506688E+04  0.00000000000E+00 0.  1.
         25    1    1    2    0    0 -0.28326496374E+02 -0.20208688879E+03 -0.48147954143E+03  0.53767001947E+03  0.12500000000E+03 0.  0.
          4    1    1    2  501    0 -0.21040235973E+01  0.27181189891E+02 -0.22373724096E+03  0.22539209612E+03  0.00000000000E+00 0. -1.
         -4    1    1    2    0  502  0.30430519971E+02  0.17490569890E+03 -0.24933820329E+03  0.30608423624E+03  0.00000000000E+00 0.  1.
<mgrwt>
<rscale>  4 0.22482067E+03</rscale>
<asrwt>0</asrwt>
<pdfrwt beam="1">  1       21 0.88147202E-02 0.22482067E+03</pdfrwt>
<pdfrwt beam="2">  1       21 0.15566934E+00 0.22482067E+03</pdfrwt>
<totfact> 0.26905338E+04</totfact>
</mgrwt>
</event>
<event>
 5    0  0.8533808E-002  0.2418251E+03  0.7546771E-02  0.1118583E+00
         21   -1    0    0  503  502  0.00000000000E+00  0.00000000000E+00  0.38126797669E+03  0.38126797669E+03  0.00000000000E+00 0. -1.
         21   -1    0    0  501  503 -0.00000000000E+00 -0.00000000000E+00 -0.27971241607E+03  0.27971241607E+03  0.00000000000E+00 0. -1.
         25    1    1    2    0    0 -0.13018151169E+03  0.16095699709E+03 -0.18423481179E+03  0.30400961625E+03  0.12500000000E+03 0.  0.
          3    1    1    2  501    0  0.72954426266E+02 -0.49731994857E+02  0.13063670319E+03  0.15767551441E+03  0.00000000000E+00 0.  1.
         -3    1    1    2    0  502  0.57227085427E+02 -0.11122500223E+03  0.15515366921E+03  0.19929526211E+03  0.00000000000E+00 0. -1.
<mgrwt>
<rscale>  4 0.24182510E+03</rscale>
<asrwt>0</asrwt>
<pdfrwt beam="1">  1       21 0.58656612E-01 0.24182510E+03</pdfrwt>
<pdfrwt beam="2">  1       21 0.43032679E-01 0.24182510E+03</pdfrwt>
<totfact> 0.13715104E+04</totfact>
</mgrwt>
</event>
<event>
 5    0  0.8533808E-002  0.2752493E+03  0.7546771E-02  0.1098312E+00
         21   -1    0    0  503  502  0.00000000000E+00  0.00000000000E+00  0.10340239184E+03  0.10340239184E+03  0.00000000000E+00 0.  1.
         21   -1    0    0  501  503 -0.00000000000E+00 -0.00000000000E+00 -0.83456446035E+03  0.83456446035E+03  0.00000000000E+00 0.  1.
         25    1    1    2    0    0 -0.11528134363E+03 -0.21644262416E+03 -0.58154831779E+03  0.64339773365E+03  0.12500000000E+03 0.  0.
          4    1    1    2  501    0  0.12195854324E+03  0.18504020847E+03 -0.13203551710E+03  0.25796732893E+03  0.00000000000E+00 0.  1.
         -4    1    1    2    0  502 -0.66771996056E+01  0.31402415689E+02 -0.17578233617E+02  0.36601789612E+02  0.00000000000E+00 0. -1.
<mgrwt>
<rscale>  4 0.27524934E+03</rscale>
<asrwt>0</asrwt>
<pdfrwt beam="1">  1       21 0.15908060E-01 0.27524934E+03</pdfrwt>
<pdfrwt beam="2">  1       21 0.12839453E+00 0.27524934E+03</pdfrwt>
<totfact> 0.14973334E+04</totfact>
</mgrwt>
</event>
<event>
 5    0  0.8533808E-002  0.3703355E+03  0.7546771E-02  0.1054565E+00
         21   -1    0    0  503  502  0.00000000000E+00  0.00000000000E+00  0.35316187999E+03  0.35316187999E+03  0.00000000000E+00 0. -1.
         21   -1    0    0  501  503 -0.00000000000E+00 -0.00000000000E+00 -0.37523630083E+03  0.37523630083E+03  0.00000000000E+00 0. -1.
         25    1    1    2    0    0 -0.16725138814E+03  0.30586005723E+03 -0.33563776613E+02  0.37185336968E+03  0.12500000000E+03 0.  0.
          1    1    1    2  501    0  0.16058962336E+03 -0.24017507517E+03  0.21731112345E+02  0.28973321368E+03  0.00000000000E+00 0. -1.
         -1    1    1    2    0  502  0.66617647759E+01 -0.65684982060E+02 -0.10241756580E+02  0.66811597467E+02  0.00000000000E+00 0.  1.
<mgrwt>
<rscale>  4 0.37033553E+03</rscale>
<asrwt>0</asrwt>
<pdfrwt beam="1">  1       21 0.54332597E-01 0.37033553E+03</pdfrwt>
<pdfrwt beam="2">  1       21 0.57728662E-01 0.37033553E+03</pdfrwt>
<totfact> 0.82215711E+03</totfact>
</mgrwt>
</event>
<event>
 5    0  0.8533808E-002  0.2371075E+03  0.7546771E-02  0.1121735E+00
         21   -1    0    0  501  502  0.00000000000E+00  0.00000000000E+00  0.83920948475E+03  0.83920948475E+03  0.00000000000E+00 0. -1.
         21   -1    0    0  502  503 -0.00000000000E+00 -0.00000000000E+00 -0.20180022633E+03  0.20180022633E+03  0.00000000000E+00 0.  1.
         25    1    1    2    0    0 -0.19003118381E+03 -0.66956152165E+02 -0.11289271833E+03  0.26261139158E+03  0.12500000000E+03 0.  0.
          1    1    1    2  501    0  0.15712774758E+03  0.36698329549E+02  0.61951000732E+03  0.64017852637E+03  0.00000000000E+00 0. -1.
         -1    1    1    2    0  503  0.32903436226E+02  0.30257822616E+02  0.13079196943E+03  0.13821979313E+03  0.00000000000E+00 0.  1.
<mgrwt>
<rscale>  4 0.23710752E+03</rscale>
<asrwt>0</asrwt>
<pdfrwt beam="1">  1       21 0.12910915E+00 0.23710752E+03</pdfrwt>
<pdfrwt beam="2">  1       21 0.31046189E-01 0.23710752E+03</pdfrwt>
<totfact> 0.42345158E+03</totfact>
</mgrwt>
</event>
<event>
 5    0  0.8533808E-002  0.2458839E+03  0.7546771E-02  0.1115934E+00
         21   -1    0    0  501  502  0.00000000000E+00  0.00000000000E+00  0.56243312824E+03  0.56243312824E+03  0.00000000000E+00 0.  1.
         21   -1    0    0  502  503 -0.00000000000E+00 -0.00000000000E+00 -0.10542532607E+03  0.10542532607E+03  0.00000000000E+00 0.  1.
         25    1    1    2    0    0  0.11039489710E+03 -0.18068437945E+03  0.13567241795E+03  0.28083070216E+03  0.12500000000E+03 0.  0.
          2    1    1    2  501    0 -0.70603345635E+02  0.13248317134E+03  0.25482223887E+03  0.29575496027E+03  0.00000000000E+00 0.  1.
         -2    1    1    2    0  503 -0.39791551466E+02  0.48201208109E+02  0.66513145366E+02  0.91272791881E+02  0.00000000000E+00 0. -1.
<mgrwt>
<rscale>  4 0.24588387E+03</rscale>
<asrwt>0</asrwt>
<pdfrwt beam="1">  1       21 0.86528172E-01 0.24588387E+03</pdfrwt>
<pdfrwt beam="2">  1       21 0.16219281E-01 0.24588387E+03</pdfrwt>
<totfact> 0.38110944E+04</totfact>
</mgrwt>
</event>
<event>
 5    0  0.8533808E-002  0.5204278E+03  0.7546771E-02  0.1008580E+00
         21   -1    0    0  501  502  0.00000000000E+00  0.00000000000E+00  0.28319352658E+03  0.28319352658E+03  0.00000000000E+00 0. -1.
         21   -1    0    0  502  503 -0.00000000000E+00 -0.00000000000E+00 -0.10198907596E+04  0.10198907596E+04  0.00000000000E+00 0. -1.
         25    1    1    2    0    0 -0.36476136741E+03 -0.34952713689E+03 -0.53319551539E+03  0.74507887650E+03  0.12500000000E+03 0.  0.
          1    1    1    2  501    0  0.71752473807E+02  0.19456311770E+02 -0.54462480518E+02  0.92158164854E+02  0.00000000000E+00 0.  1.
         -1    1    1    2    0  503  0.29300889360E+03  0.33007082512E+03 -0.14903923712E+03  0.46584724484E+03  0.00000000000E+00 0. -1.
<mgrwt>
<rscale>  4 0.52042778E+03</rscale>
<asrwt>0</asrwt>
<pdfrwt beam="1">  1       21 0.43568236E-01 0.52042778E+03</pdfrwt>
<pdfrwt beam="2">  1       21 0.15690627E+00 0.52042778E+03</pdfrwt>
<totfact> 0.11045277E+03</totfact>
</mgrwt>
</event>
<event>
 5    0  0.8533808E-002  0.2867434E+03  0.7546771E-02  0.1092062E+00
         21   -1    0    0  503  502  0.00000000000E+00  0.00000000000E+00  0.46886156598E+03  0.46886156598E+03  0.00000000000E+00 0. -1.
         21   -1    0    0  501  503 -0.00000000000E+00 -0.00000000000E+00 -0.26608571079E+03  0.26608571079E+03  0.00000000000E+00 0. -1.
         25    1    1    2    0    0 -0.28015106789E+03 -0.15448334980E+01 -0.59512467425E+02  0.31249598578E+03  0.12500000000E+03 0.  0.
          3    1    1    2  501    0  0.68705689947E+02  0.79211049733E+02  0.67957870072E+02  0.12495252833E+03  0.00000000000E+00 0.  1.
         -3    1    1    2    0  502  0.21144537794E+03 -0.77666216235E+02  0.19433045254E+03  0.29749876266E+03  0.00000000000E+00 0. -1.
<mgrwt>
<rscale>  4 0.28674343E+03</rscale>
<asrwt>0</asrwt>
<pdfrwt beam="1">  1       21 0.72132549E-01 0.28674343E+03</pdfrwt>
<pdfrwt beam="2">  1       21 0.40936263E-01 0.28674343E+03</pdfrwt>
<totfact> 0.94327350E+03</totfact>
</mgrwt>
</event>
<event>
 5    0  0.8533808E-002  0.2964491E+03  0.7546771E-02  0.1087029E+00
         21   -1    0    0  501  502  0.00000000000E+00  0.00000000000E+00  0.68440788055E+03  0.68440788055E+03  0.00000000000E+00 0. -1.
         21   -1    0    0  502  503 -0.00000000000E+00 -0.00000000000E+00 -0.20148850688E+03  0.20148850688E+03  0.00000000000E+00 0. -1.
         25    1    1    2    0    0  0.11267673638E+03  0.24405120846E+03  0.52984362845E+03  0.60713780140E+03  0.12500000000E+03 0.  0.
          4    1    1    2  501    0 -0.86301643142E+02 -0.13390015284E+03 -0.44768281269E+02  0.16547333183E+03  0.00000000000E+00 0.  1.
         -4    1    1    2    0  503 -0.26375093237E+02 -0.11015105563E+03 -0.21559735162E+01  0.11328525421E+03  0.00000000000E+00 0. -1.
<mgrwt>
<rscale>  4 0.29644905E+03</rscale>
<asrwt>0</asrwt>
<pdfrwt beam="1">  1       21 0.10529352E+00 0.29644905E+03</pdfrwt>
<pdfrwt beam="2">  1       21 0.30998232E-01 0.29644905E+03</pdfrwt>
<totfact> 0.68020427E+03</totfact>
</mgrwt>
</event>
<event>
 5    0  0.8533808E-002  0.2897059E+03  0.7546771E-02  0.1090503E+00
         21   -1    0    0  501  502  0.00000000000E+00  0.00000000000E+00  0.11841813189E+04  0.11841813189E+04  0.00000000000E+00 0. -1.
         21   -1    0    0  502  503 -0.00000000000E+00 -0.00000000000E+00 -0.17075441597E+03  0.17075441597E+03  0.00000000000E+00 0. -1.
         25    1    1    2    0    0  0.58071172769E+01 -0.26128675877E+03 -0.17074709591E+02  0.29020861226E+03  0.12500000000E+03 0.  0.
          3    1    1    2  501    0  0.13003499361E+02  0.10038965810E+03  0.49566815159E+03  0.50589928934E+03  0.00000000000E+00 0.  1.
         -3    1    1    2    0  503 -0.18810616638E+02  0.16089710067E+03  0.53483346094E+03  0.55882783327E+03  0.00000000000E+00 0. -1.
<mgrwt>
<rscale>  4 0.28970587E+03</rscale>
<asrwt>0</asrwt>
<pdfrwt beam="1">  1       21 0.18218174E+00 0.28970587E+03</pdfrwt>
<pdfrwt beam="2">  1       21 0.26269911E-01 0.28970587E+03</pdfrwt>
<totfact> 0.22385215E+03</totfact>
</mgrwt>
</event>
<event>
 5    0  0.8533808E-002  0.2860174E+03  0.7546771E-02  0.1092447E+00
         21   -1    0    0  501  502  0.00000000000E+00  0.00000000000E+00  0.23404622428E+03  0.23404622428E+03  0.00000000000E+00 0.  1.
         21   -1    0    0  502  503 -0.00000000000E+00 -0.00000000000E+00 -0.51116581320E+03  0.51116581320E+03  0.00000000000E+00 0. -1.
         25    1    1    2    0    0 -0.17080423891E+03 -0.20550597127E+03 -0.34342204145E+03  0.45273666829E+03  0.12500000000E+03 0.  0.
          4    1    1    2  501    0  0.37551981488E+02  0.12995093058E+02  0.40813013859E+02  0.56962495183E+02  0.00000000000E+00 0. -1.
         -4    1    1    2    0  503  0.13325225743E+03  0.19251087821E+03  0.25489438665E+02  0.23551287401E+03  0.00000000000E+00 0.  1.
<mgrwt>
<rscale>  4 0.28601744E+03</rscale>
<asrwt>0</asrwt>
<pdfrwt beam="1">  1       21 0.36007111E-01 0.28601744E+03</pdfrwt>
<pdfrwt beam="2">  1       21 0.78640895E-01 0.28601744E+03</pdfrwt>
<totfact> 0.10070973E+04</totfact>
</mgrwt>
</event>
