<event>
 5    0  0.1257040E+001  0.2211891E+03  0.7546771E-02  0.1133000E+00
         21   -1    0    0  504  501  0.00000000000E+00  0.00000000000E+00  0.41316211847E+02  0.41316211847E+02  0.00000000000E+00 0.  1.
         21   -1    0    0  503  502 -0.00000000000E+00 -0.00000000000E+00 -0.16780293578E+04  0.16780293578E+04  0.00000000000E+00 0.  1.
         25    1    1    2    0    0  0.48937471674E+02 -0.20364351989E+03 -0.10057867753E+04  0.10349384507E+04  0.12500000000E+03 0.  0.
         21    1    1    2  503  501 -0.19092012406E+02  0.31453635740E+02 -0.36085575221E+03  0.36272677051E+03  0.00000000000E+00 0.  1.
         21    1    1    2  504  502 -0.29845459267E+02  0.17218988415E+03 -0.27007061849E+03  0.32168034851E+03  0.00000000000E+00 0.  1.
<mgrwt>
<rscale>  4 0.22118906E+03</rscale>
<asrwt>0</asrwt>
<pdfrwt beam="1">  1       21 0.63563410E-02 0.22118906E+03</pdfrwt>
<pdfrwt beam="2">  1       21 0.25815833E+00 0.22118906E+03</pdfrwt>
<totfact> 0.10361856E+04</totfact>
</mgrwt>
</event>
<event>
 5    0  0.1257040E+001  0.3304464E+03  0.7546771E-02  0.1070940E+00
         21   -1    0    0  503  501  0.00000000000E+00  0.00000000000E+00  0.22982188714E+04  0.22982188714E+04  0.00000000000E+00 0.  1.
         21   -1    0    0  504  502 -0.00000000000E+00 -0.00000000000E+00 -0.31732690014E+03  0.31732690014E+03  0.00000000000E+00 0.  1.
         25    1    1    2    0    0 -0.21805842530E+03 -0.26045035348E+03  0.89824832020E+03  0.96843115822E+03  0.12500000000E+03 0.  0.
         21    1    1    2  503  502  0.18058895646E+03  0.24329188481E+03 -0.20049122413E+03  0.36331810217E+03  0.00000000000E+00 0.  1.
         21    1    1    2  504  501  0.37469468837E+02  0.17158468672E+02  0.12831348751E+04  0.12837965111E+04  0.00000000000E+00 0.  1.
<mgrwt>
<rscale>  4 0.33044644E+03</rscale>
<asrwt>0</asrwt>
<pdfrwt beam="1">  1       21 0.35357212E+00 0.33044644E+03</pdfrwt>
<pdfrwt beam="2">  1       21 0.48819525E-01 0.33044644E+03</pdfrwt>
<totfact> 0.55390922E+01</totfact>
</mgrwt>
</event>
<event>
 5    0  0.1257040E+001  0.2095551E+03  0.7546771E-02  0.1141919E+00
         21   -1    0    0  502  501  0.00000000000E+00  0.00000000000E+00  0.96896162636E+03  0.96896162636E+03  0.00000000000E+00 0. -1.
         21   -1    0    0  504  502 -0.00000000000E+00 -0.00000000000E+00 -0.11060369631E+04  0.11060369631E+04  0.00000000000E+00 0. -1.
         25    1    1    2    0    0 -0.94842409796E+02 -0.28382446203E+03 -0.46052233005E+02  0.32756253770E+03  0.12500000000E+03 0.  0.
         21    1    1    2  503  501  0.39373527212E+02  0.15775414202E+03  0.81497109372E+03  0.83103220609E+03  0.00000000000E+00 0. -1.
         21    1    1    2  504  503  0.55468882583E+02  0.12607032001E+03 -0.90599419742E+03  0.91640384563E+03  0.00000000000E+00 0. -1.
<mgrwt>
<rscale>  4 0.20955512E+03</rscale>
<asrwt>0</asrwt>
<pdfrwt beam="1">  1       21 0.14907102E+00 0.20955512E+03</pdfrwt>
<pdfrwt beam="2">  1       21 0.17015953E+00 0.20955512E+03</pdfrwt>
<totfact> 0.63100418E+01</totfact>
</mgrwt>
</event>
<event>
 5    0  0.1257040E+001  0.3263013E+03  0.7546771E-02  0.1072785E+00
         21   -1    0    0  504  501  0.00000000000E+00  0.00000000000E+00  0.22059291553E+04  0.22059291553E+04  0.00000000000E+00 0.  1.
         21   -1    0    0  503  502 -0.00000000000E+00 -0.00000000000E+00 -0.63595787303E+02  0.63595787303E+02  0.00000000000E+00 0.  1.
         25    1    1    2    0    0  0.28571710522E+03  0.11169208207E+03  0.66917491602E+03  0.74667894951E+03  0.12500000000E+03 0.  0.
         21    1    1    2  503  501 -0.29052796844E+03 -0.60488377047E+02  0.90605765499E+03  0.95341796625E+03  0.00000000000E+00 0.  1.
         21    1    1    2  504  502  0.48108632194E+01 -0.51203705022E+02  0.56710079699E+03  0.56942802685E+03  0.00000000000E+00 0. -1.
<mgrwt>
<rscale>  4 0.32630134E+03</rscale>
<asrwt>0</asrwt>
<pdfrwt beam="1">  1       21 0.33937366E+00 0.32630134E+03</pdfrwt>
<pdfrwt beam="2">  1       21 0.97839690E-02 0.32630134E+03</pdfrwt>
<totfact> 0.14813926E+03</totfact>
</mgrwt>
</event>
<event>
 5    0  0.1257040E+001  0.2612768E+03  0.7546771E-02  0.1106379E+00
         21   -1    0    0  503  501  0.00000000000E+00  0.00000000000E+00  0.10934247459E+04  0.10934247459E+04  0.00000000000E+00 0.  1.
         21   -1    0    0  504  502 -0.00000000000E+00 -0.00000000000E+00 -0.20179976435E+03  0.20179976435E+03  0.00000000000E+00 0.  1.
         25    1    1    2    0    0 -0.17990247180E+03 -0.19385618489E+03  0.22203530476E+00  0.29252379233E+03  0.12500000000E+03 0.  0.
         21    1    1    2  503  502 -0.94917629547E+01  0.69201011710E+02 -0.12356493280E+02  0.70933465387E+02  0.00000000000E+00 0.  1.
         21    1    1    2  504  501  0.18939423475E+03  0.12465517318E+03  0.90375943953E+03  0.93176725253E+03  0.00000000000E+00 0.  1.
<mgrwt>
<rscale>  4 0.26127681E+03</rscale>
<asrwt>0</asrwt>
<pdfrwt beam="1">  1       21 0.16821919E+00 0.26127681E+03</pdfrwt>
<pdfrwt beam="2">  1       21 0.31046118E-01 0.26127681E+03</pdfrwt>
<totfact> 0.20644627E+03</totfact>
</mgrwt>
</event>
<event>
 5    0  0.1257040E+001  0.2339107E+03  0.7546771E-02  0.1123917E+00
         21   -1    0    0  502  501  0.00000000000E+00  0.00000000000E+00  0.12916322029E+04  0.12916322029E+04  0.00000000000E+00 0. -1.
         21   -1    0    0  504  502 -0.00000000000E+00 -0.00000000000E+00 -0.20678292355E+03  0.20678292355E+03  0.00000000000E+00 0. -1.
         25    1    1    2    0    0 -0.19397030020E+03  0.67404152051E+02 -0.45936504860E+01  0.24044520935E+03  0.12500000000E+03 0.  0.
         21    1    1    2  503  501  0.19760115596E+03  0.17207031613E+02  0.11414709853E+04  0.11585759833E+04  0.00000000000E+00 0. -1.
         21    1    1    2  504  503 -0.36308557620E+01 -0.84611183664E+02 -0.52028055500E+02  0.99393933788E+02  0.00000000000E+00 0. -1.
<mgrwt>
<rscale>  4 0.23391069E+03</rscale>
<asrwt>0</asrwt>
<pdfrwt beam="1">  1       21 0.19871264E+00 0.23391069E+03</pdfrwt>
<pdfrwt beam="2">  1       21 0.31812758E-01 0.23391069E+03</pdfrwt>
<totfact> 0.12468957E+03</totfact>
</mgrwt>
</event>
<event>
 5    0  0.1257040E+001  0.2458517E+03  0.7546771E-02  0.1115955E+00
         21   -1    0    0  503  501  0.00000000000E+00  0.00000000000E+00  0.50249097147E+03  0.50249097147E+03  0.00000000000E+00 0.  1.
         21   -1    0    0  504  502 -0.00000000000E+00 -0.00000000000E+00 -0.22624787561E+03  0.22624787561E+03  0.00000000000E+00 0.  1.
         25    1    1    2    0    0 -0.29212196058E+03  0.50317946899E+02  0.17899009265E+03  0.36814343523E+03  0.12500000000E+03 0.  0.
         21    1    1    2  503  502  0.12573704995E+03 -0.10293010812E+03  0.35699189117E+01  0.16253355718E+03  0.00000000000E+00 0.  1.
         21    1    1    2  504  501  0.16638491063E+03  0.52612161217E+02  0.93683084300E+02  0.19806185468E+03  0.00000000000E+00 0.  1.
<mgrwt>
<rscale>  4 0.24585171E+03</rscale>
<asrwt>0</asrwt>
<pdfrwt beam="1">  1       21 0.77306303E-01 0.24585171E+03</pdfrwt>
<pdfrwt beam="2">  1       21 0.34807366E-01 0.24585171E+03</pdfrwt>
<totfact> 0.11437966E+04</totfact>
</mgrwt>
</event>
<event>
 5    0  0.1257040E+001  0.2555190E+03  0.7546771E-02  0.1109866E+00
         21   -1    0    0  502  501  0.00000000000E+00  0.00000000000E+00  0.14639546822E+03  0.14639546822E+03  0.00000000000E+00 0.  1.
         21   -1    0    0  504  502 -0.00000000000E+00 -0.00000000000E+00 -0.60679960854E+03  0.60679960854E+03  0.00000000000E+00 0. -1.
         25    1    1    2    0    0 -0.31335167885E+01 -0.20284186741E+03 -0.86000538509E+02  0.25332930096E+03  0.12500000000E+03 0.  0.
         21    1    1    2  503  501  0.48169919233E+02 -0.24692351957E+02  0.58577325416E+01  0.54445995211E+02  0.00000000000E+00 0.  1.
         21    1    1    2  504  503 -0.45036402444E+02  0.22753421937E+03 -0.38026133436E+03  0.44541978058E+03  0.00000000000E+00 0. -1.
<mgrwt>
<rscale>  4 0.25551899E+03</rscale>
<asrwt>0</asrwt>
<pdfrwt beam="1">  1       21 0.22522380E-01 0.25551899E+03</pdfrwt>
<pdfrwt beam="2">  1       21 0.93353785E-01 0.25551899E+03</pdfrwt>
<totfact> 0.17194000E+04</totfact>
</mgrwt>
</event>
<event>
 5    0  0.1257040E+001  0.1944780E+03  0.7546771E-02  0.1154483E+00
         21   -1    0    0  502  501  0.00000000000E+00  0.00000000000E+00  0.10999179214E+03  0.10999179214E+03  0.00000000000E+00 0.  1.
         21   -1    0    0  504  502 -0.00000000000E+00 -0.00000000000E+00 -0.88770030887E+03  0.88770030887E+03  0.00000000000E+00 0.  1.
         25    1    1    2    0    0 -0.74284259326E+02 -0.21216737201E+03 -0.26600818210E+03  0.37002499628E+03  0.12500000000E+03 0.  0.
         21    1    1    2  503  501 -0.19118893731E+02  0.13147221920E+03 -0.38048592424E+02  0.13819613563E+03  0.00000000000E+00 0.  1.
         21    1    1    2  504  503  0.93403153057E+02  0.80695152818E+02 -0.47365174221E+03  0.48947096910E+03  0.00000000000E+00 0.  1.
<mgrwt>
<rscale>  4 0.19447800E+03</rscale>
<asrwt>0</asrwt>
<pdfrwt beam="1">  1       21 0.16921814E-01 0.19447800E+03</pdfrwt>
<pdfrwt beam="2">  1       21 0.13656928E+00 0.19447800E+03</pdfrwt>
<totfact> 0.11985724E+04</totfact>
</mgrwt>
</event>
<event>
 5    0  0.1257040E+001  0.2416327E+03  0.7546771E-02  0.1118710E+00
         21   -1    0    0  502  501  0.00000000000E+00  0.00000000000E+00  0.58079029659E+03  0.58079029659E+03  0.00000000000E+00 0.  1.
         21   -1    0    0  504  502 -0.00000000000E+00 -0.00000000000E+00 -0.12831632758E+03  0.12831632758E+03  0.00000000000E+00 0.  1.
         25    1    1    2    0    0 -0.21152301086E+03 -0.18716941761E+02  0.68772775388E+02  0.25582611803E+03  0.12500000000E+03 0.  0.
         21    1    1    2  503  501  0.20122718806E+03  0.41845601881E+02  0.37282750250E+03  0.42572735669E+03  0.00000000000E+00 0.  1.
         21    1    1    2  504  503  0.10295822798E+02 -0.23128660121E+02  0.10873691121E+02  0.27553149451E+02  0.00000000000E+00 0. -1.
<mgrwt>
<rscale>  4 0.24163267E+03</rscale>
<asrwt>0</asrwt>
<pdfrwt beam="1">  1       21 0.89352352E-01 0.24163267E+03</pdfrwt>
<pdfrwt beam="2">  1       21 0.19740974E-01 0.24163267E+03</pdfrwt>
<totfact> 0.24600790E+04</totfact>
</mgrwt>
</event>
<event>
 5    0  0.1257040E+001  0.1932287E+03  0.7546771E-02  0.1155581E+00
         21   -1    0    0  503  501  0.00000000000E+00  0.00000000000E+00  0.84768837798E+03  0.84768837798E+03  0.00000000000E+00 0. -1.
         21   -1    0    0  504  502 -0.00000000000E+00 -0.00000000000E+00 -0.13106829465E+03  0.13106829465E+03  0.00000000000E+00 0. -1.
         25    1    1    2    0    0  0.95214140888E+02  0.18213273261E+03  0.61590443271E+02  0.24830716384E+03  0.12500000000E+03 0.  0.
         21    1    1    2  503  502 -0.79698234671E+02 -0.80977077451E+02  0.63553155438E+02  0.13018486567E+03  0.00000000000E+00 0. -1.
         21    1    1    2  504  501 -0.15515906217E+02 -0.10115565516E+03  0.59147648462E+03  0.60026464312E+03  0.00000000000E+00 0. -1.
<mgrwt>
<rscale>  4 0.19322865E+03</rscale>
<asrwt>0</asrwt>
<pdfrwt beam="1">  1       21 0.13041359E+00 0.19322865E+03</pdfrwt>
<pdfrwt beam="2">  1       21 0.20164354E-01 0.19322865E+03</pdfrwt>
<totfact> 0.97442642E+03</totfact>
</mgrwt>
</event>
<event>
 5    0  0.1257040E+001  0.4333314E+03  0.7546771E-02  0.1032813E+00
         21   -1    0    0  504  501  0.00000000000E+00  0.00000000000E+00  0.66202727041E+03  0.66202727041E+03  0.00000000000E+00 0.  1.
         21   -1    0    0  501  502 -0.00000000000E+00 -0.00000000000E+00 -0.72015402403E+03  0.72015402403E+03  0.00000000000E+00 0.  1.
         25    1    1    2    0    0 -0.11895034577E+03  0.32922951192E+03  0.15799900638E+03  0.40389347890E+03  0.12500000000E+03 0.  0.
         21    1    1    2  503  502 -0.19648324879E+03  0.23404440651E+03 -0.33771617196E+02  0.30744588695E+03  0.00000000000E+00 0.  1.
         21    1    1    2  504  503  0.31543359457E+03 -0.56327391842E+03 -0.18235414280E+03  0.67084192859E+03  0.00000000000E+00 0.  1.
<mgrwt>
<rscale>  4 0.43333135E+03</rscale>
<asrwt>0</asrwt>
<pdfrwt beam="1">  1       21 0.10185035E+00 0.43333135E+03</pdfrwt>
<pdfrwt beam="2">  1       21 0.11079293E+00 0.43333135E+03</pdfrwt>
<totfact> 0.42358934E+02</totfact>
</mgrwt>
</event>
<event>
 5    0  0.1257040E+001  0.2949080E+03  0.7546771E-02  0.1087814E+00
         21   -1    0    0  503  501  0.00000000000E+00  0.00000000000E+00  0.55067064422E+03  0.55067064422E+03  0.00000000000E+00 0. -1.
         21   -1    0    0  504  502 -0.00000000000E+00 -0.00000000000E+00 -0.19263958080E+03  0.19263958080E+03  0.00000000000E+00 0. -1.
         25    1    1    2    0    0  0.18361075775E+03 -0.18364431827E+03  0.14214928285E+03  0.32135582243E+03  0.12500000000E+03 0.  0.
         21    1    1    2  503  502 -0.23826699516E+03  0.14249671429E+03  0.11599321213E+03  0.30088353199E+03  0.00000000000E+00 0. -1.
         21    1    1    2  504  501  0.54656237410E+02  0.41147603982E+02  0.99888568441E+02  0.12107087059E+03  0.00000000000E+00 0. -1.
<mgrwt>
<rscale>  4 0.29490800E+03</rscale>
<asrwt>0</asrwt>
<pdfrwt beam="1">  1       21 0.84718560E-01 0.29490800E+03</pdfrwt>
<pdfrwt beam="2">  1       21 0.29636859E-01 0.29490800E+03</pdfrwt>
<totfact> 0.12451017E+04</totfact>
</mgrwt>
</event>
<event>
 5    0  0.1257040E+001  0.2862485E+03  0.7546771E-02  0.1092324E+00
         21   -1    0    0  502  501  0.00000000000E+00  0.00000000000E+00  0.17984551864E+03  0.17984551864E+03  0.00000000000E+00 0. -1.
         21   -1    0    0  504  502 -0.00000000000E+00 -0.00000000000E+00 -0.57605682565E+03  0.57605682565E+03  0.00000000000E+00 0.  1.
         25    1    1    2    0    0 -0.41633454885E+01  0.27092159274E+03 -0.31149085506E+03  0.43135530093E+03  0.12500000000E+03 0.  0.
         21    1    1    2  503  501  0.36267978618E+02 -0.25043314215E+03 -0.25756965781E+02  0.25435319194E+03  0.00000000000E+00 0. -1.
         21    1    1    2  504  503 -0.32104633129E+02 -0.20488450588E+02 -0.58963486173E+02  0.70193851422E+02  0.00000000000E+00 0. -1.
<mgrwt>
<rscale>  4 0.28624848E+03</rscale>
<asrwt>0</asrwt>
<pdfrwt beam="1">  1       21 0.27668541E-01 0.28624848E+03</pdfrwt>
<pdfrwt beam="2">  1       21 0.88624128E-01 0.28624848E+03</pdfrwt>
<totfact> 0.12878480E+04</totfact>
</mgrwt>
</event>
<event>
 5    0  0.1257040E+001  0.2158139E+03  0.7546771E-02  0.1137043E+00
         21   -1    0    0  504  501  0.00000000000E+00  0.00000000000E+00  0.20567074799E+03  0.20567074799E+03  0.00000000000E+00 0.  1.
         21   -1    0    0  503  502 -0.00000000000E+00 -0.00000000000E+00 -0.76402226283E+03  0.76402226283E+03  0.00000000000E+00 0.  1.
         25    1    1    2    0    0 -0.10039464819E+03  0.25834038922E+03  0.55846930523E+01  0.30409707477E+03  0.12500000000E+03 0.  0.
         21    1    1    2  503  501  0.77155999478E+02 -0.14858544429E+03 -0.51797010074E+03  0.54435623241E+03  0.00000000000E+00 0.  1.
         21    1    1    2  504  502  0.23238648717E+02 -0.10975494493E+03 -0.45966107147E+02  0.12123970363E+03  0.00000000000E+00 0. -1.
<mgrwt>
<rscale>  4 0.21581391E+03</rscale>
<asrwt>0</asrwt>
<pdfrwt beam="1">  1       21 0.31641654E-01 0.21581391E+03</pdfrwt>
<pdfrwt beam="2">  1       21 0.11754189E+00 0.21581391E+03</pdfrwt>
<totfact> 0.52413310E+03</totfact>
</mgrwt>
</event>
<event>
 5    0  0.1257040E+001  0.2747200E+03  0.7546771E-02  0.1098608E+00
         21   -1    0    0  502  501  0.00000000000E+00  0.00000000000E+00  0.19089945090E+03  0.19089945090E+03  0.00000000000E+00 0.  1.
         21   -1    0    0  504  502 -0.00000000000E+00 -0.00000000000E+00 -0.40248492361E+03  0.40248492361E+03  0.00000000000E+00 0.  1.
         25    1    1    2    0    0 -0.11015333390E+03  0.20351159265E+03 -0.15092215948E+03  0.30323789924E+03  0.12500000000E+03 0.  0.
         21    1    1    2  503  501  0.13449025993E+03 -0.21486930740E+03 -0.40819896989E+02  0.25675418842E+03  0.00000000000E+00 0.  1.
         21    1    1    2  504  503 -0.24336926029E+02  0.11357714755E+02 -0.19843416249E+02  0.33392286856E+02  0.00000000000E+00 0. -1.
<mgrwt>
<rscale>  4 0.27472002E+03</rscale>
<asrwt>0</asrwt>
<pdfrwt beam="1">  1       21 0.29369146E-01 0.27472002E+03</pdfrwt>
<pdfrwt beam="2">  1       21 0.61920757E-01 0.27472002E+03</pdfrwt>
<totfact> 0.25824275E+04</totfact>
</mgrwt>
</event>
<event>
 5    0  0.1257040E+001  0.2358181E+03  0.7546771E-02  0.1122610E+00
         21   -1    0    0  504  501  0.00000000000E+00  0.00000000000E+00  0.55566602219E+03  0.55566602219E+03  0.00000000000E+00 0.  1.
         21   -1    0    0  503  502 -0.00000000000E+00 -0.00000000000E+00 -0.58692913101E+03  0.58692913101E+03  0.00000000000E+00 0.  1.
         25    1    1    2    0    0 -0.27267593422E+03 -0.65956469437E+02  0.43316496378E+03  0.53099840566E+03  0.12500000000E+03 0.  0.
         21    1    1    2  503  501  0.19594559214E+03  0.18703380820E+02 -0.48123078047E+03  0.51993033726E+03  0.00000000000E+00 0.  1.
         21    1    1    2  504  502  0.76730342087E+02  0.47253088617E+02  0.16802707874E+02  0.91666410275E+02  0.00000000000E+00 0.  1.
<mgrwt>
<rscale>  4 0.23581808E+03</rscale>
<asrwt>0</asrwt>
<pdfrwt beam="1">  1       21 0.85487080E-01 0.23581808E+03</pdfrwt>
<pdfrwt beam="2">  1       21 0.90296790E-01 0.23581808E+03</pdfrwt>
<totfact> 0.11857352E+03</totfact>
</mgrwt>
</event>
<event>
 5    0  0.1257040E+001  0.3084848E+03  0.7546771E-02  0.1081074E+00
         21   -1    0    0  502  501  0.00000000000E+00  0.00000000000E+00  0.63414256503E+02  0.63414256503E+02  0.00000000000E+00 0. -1.
         21   -1    0    0  504  502 -0.00000000000E+00 -0.00000000000E+00 -0.19005425707E+04  0.19005425707E+04  0.00000000000E+00 0. -1.
         25    1    1    2    0    0 -0.23227942737E+03  0.19418035961E+03 -0.73127441789E+03  0.80127836530E+03  0.12500000000E+03 0.  0.
         21    1    1    2  503  501  0.80977175521E+01 -0.39387818442E+02 -0.23520242715E+02  0.46585138065E+02  0.00000000000E+00 0. -1.
         21    1    1    2  504  503  0.22418170981E+03 -0.15479254117E+03 -0.10823336536E+04  0.11160933238E+04  0.00000000000E+00 0. -1.
<mgrwt>
<rscale>  4 0.30848484E+03</rscale>
<asrwt>0</asrwt>
<pdfrwt beam="1">  1       21 0.97560398E-02 0.30848484E+03</pdfrwt>
<pdfrwt beam="2">  1       21 0.29239115E+00 0.30848484E+03</pdfrwt>
<totfact> 0.28699994E+03</totfact>
</mgrwt>
</event>
<event>
 5    0  0.1257040E+001  0.2175085E+03  0.7546771E-02  0.1135754E+00
         21   -1    0    0  503  501  0.00000000000E+00  0.00000000000E+00  0.54974738850E+03  0.54974738850E+03  0.00000000000E+00 0.  1.
         21   -1    0    0  504  502 -0.00000000000E+00 -0.00000000000E+00 -0.70022512888E+03  0.70022512888E+03  0.00000000000E+00 0.  1.
         25    1    1    2    0    0  0.45374769413E+02 -0.20935749536E+03  0.45610430858E+03  0.51917778349E+03  0.12500000000E+03 0.  0.
         21    1    1    2  503  502 -0.61955303594E+02  0.16598351564E+03 -0.64601897793E+03  0.66987275430E+03  0.00000000000E+00 0.  1.
         21    1    1    2  504  501  0.16580534182E+02  0.43373979723E+02  0.39436928970E+02  0.60921979592E+02  0.00000000000E+00 0.  1.
<mgrwt>
<rscale>  4 0.21750845E+03</rscale>
<asrwt>0</asrwt>
<pdfrwt beam="1">  1       21 0.84576521E-01 0.21750845E+03</pdfrwt>
<pdfrwt beam="2">  1       21 0.10772694E+00 0.21750845E+03</pdfrwt>
<totfact> 0.81210223E+02</totfact>
</mgrwt>
</event>
<event>
 5    0  0.1257040E+001  0.2160015E+03  0.7546771E-02  0.1136900E+00
         21   -1    0    0  503  501  0.00000000000E+00  0.00000000000E+00  0.12295772494E+04  0.12295772494E+04  0.00000000000E+00 0.  1.
         21   -1    0    0  504  502 -0.00000000000E+00 -0.00000000000E+00 -0.13876343466E+03  0.13876343466E+03  0.00000000000E+00 0.  1.
         25    1    1    2    0    0 -0.16627227304E+03  0.18078421047E+03  0.62596893637E+02  0.28261771110E+03  0.12500000000E+03 0.  0.
         21    1    1    2  503  502  0.31900000493E+02 -0.74053377336E+02  0.55263793528E+02  0.97752747283E+02  0.00000000000E+00 0.  1.
         21    1    1    2  504  501  0.13437227255E+03 -0.10673083313E+03  0.97295312753E+03  0.98797022563E+03  0.00000000000E+00 0.  1.
<mgrwt>
<rscale>  4 0.21600149E+03</rscale>
<asrwt>0</asrwt>
<pdfrwt beam="1">  1       21 0.18916572E+00 0.21600149E+03</pdfrwt>
<pdfrwt beam="2">  1       21 0.21348222E-01 0.21600149E+03</pdfrwt>
<totfact> 0.31574589E+03</totfact>
</mgrwt>
</event>
<event>
 5    0  0.1257040E+001  0.2641605E+03  0.7546771E-02  0.1104669E+00
         21   -1    0    0  504  501  0.00000000000E+00  0.00000000000E+00  0.35448202473E+03  0.35448202473E+03  0.00000000000E+00 0. -1.
         21   -1    0    0  503  502 -0.00000000000E+00 -0.00000000000E+00 -0.65997346259E+03  0.65997346259E+03  0.00000000000E+00 0.  1.
         25    1    1    2    0    0 -0.87866271988E+01  0.26243251738E+03  0.21271257146E+03  0.36030496673E+03  0.12500000000E+03 0.  0.
         21    1    1    2  503  501 -0.17233081279E+01 -0.23033896649E+03 -0.55697909319E+03  0.60273105074E+03  0.00000000000E+00 0.  1.
         21    1    1    2  504  502  0.10509935327E+02 -0.32093550894E+02  0.38775083875E+02  0.51419469844E+02  0.00000000000E+00 0. -1.
<mgrwt>
<rscale>  4 0.26416048E+03</rscale>
<asrwt>0</asrwt>
<pdfrwt beam="1">  1       21 0.54535697E-01 0.26416048E+03</pdfrwt>
<pdfrwt beam="2">  1       21 0.10153438E+00 0.26416048E+03</pdfrwt>
<totfact> 0.23790571E+03</totfact>
</mgrwt>
</event>
<event>
 5    0  0.1257040E+001  0.5523203E+03  0.7546771E-02  0.1000958E+00
         21   -1    0    0  502  501  0.00000000000E+00  0.00000000000E+00  0.68659676860E+03  0.68659676860E+03  0.00000000000E+00 0. -1.
         21   -1    0    0  504  502 -0.00000000000E+00 -0.00000000000E+00 -0.66154528078E+03  0.66154528078E+03  0.00000000000E+00 0. -1.
         25    1    1    2    0    0 -0.16344744664E+03 -0.51398333712E+03 -0.36569600683E+03  0.66351526588E+03  0.12500000000E+03 0.  0.
         21    1    1    2  503  501  0.18479784845E+03  0.50064297136E+03  0.38690929172E+03  0.65916039747E+03  0.00000000000E+00 0. -1.
         21    1    1    2  504  503 -0.21350401810E+02  0.13340365756E+02  0.38382029284E+01  0.25466386035E+02  0.00000000000E+00 0.  1.
<mgrwt>
<rscale>  4 0.55232030E+03</rscale>
<asrwt>0</asrwt>
<pdfrwt beam="1">  1       21 0.10563027E+00 0.55232030E+03</pdfrwt>
<pdfrwt beam="2">  1       21 0.10177620E+00 0.55232030E+03</pdfrwt>
<totfact> 0.45442817E+02</totfact>
</mgrwt>
</event>
<event>
 5    0  0.1257040E+001  0.4170841E+03  0.7546771E-02  0.1038020E+00
         21   -1    0    0  502  501  0.00000000000E+00  0.00000000000E+00  0.15349621895E+03  0.15349621895E+03  0.00000000000E+00 0. -1.
         21   -1    0    0  504  502 -0.00000000000E+00 -0.00000000000E+00 -0.12132116221E+04  0.12132116221E+04  0.00000000000E+00 0.  1.
         25    1    1    2    0    0  0.39093222701E+03  0.23997780208E+02 -0.41833452735E+03  0.58654298763E+03  0.12500000000E+03 0.  0.
         21    1    1    2  503  501  0.88235323505E+01  0.22602783766E+02 -0.15909995341E+01  0.24316081852E+02  0.00000000000E+00 0. -1.
         21    1    1    2  504  503 -0.39975575936E+03 -0.46600563974E+02 -0.63978987626E+03  0.75584877156E+03  0.00000000000E+00 0.  1.
<mgrwt>
<rscale>  4 0.41708413E+03</rscale>
<asrwt>0</asrwt>
<pdfrwt beam="1">  1       21 0.23614803E-01 0.41708413E+03</pdfrwt>
<pdfrwt beam="2">  1       21 0.18664794E+00 0.41708413E+03</pdfrwt>
<totfact> 0.23925524E+03</totfact>
</mgrwt>
</event>
<event>
 5    0  0.1257040E+001  0.2066353E+03  0.7546771E-02  0.1144259E+00
         21   -1    0    0  504  501  0.00000000000E+00  0.00000000000E+00  0.12969507836E+03  0.12969507836E+03  0.00000000000E+00 0.  1.
         21   -1    0    0  503  502 -0.00000000000E+00 -0.00000000000E+00 -0.65797664312E+03  0.65797664312E+03  0.00000000000E+00 0.  1.
         25    1    1    2    0    0  0.15326055040E+03 -0.13814017398E+03 -0.49258821312E+02  0.24621725255E+03  0.12500000000E+03 0.  0.
         21    1    1    2  503  501 -0.10038434445E+03  0.12341329850E+03 -0.45412408345E+03  0.48118244152E+03  0.00000000000E+00 0.  1.
         21    1    1    2  504  502 -0.52876205957E+02  0.14726875474E+02 -0.24898659997E+02  0.60272027403E+02  0.00000000000E+00 0.  1.
<mgrwt>
<rscale>  4 0.20663527E+03</rscale>
<asrwt>0</asrwt>
<pdfrwt beam="1">  1       21 0.19953089E-01 0.20663527E+03</pdfrwt>
<pdfrwt beam="2">  1       21 0.10122718E+00 0.20663527E+03</pdfrwt>
<totfact> 0.18326953E+04</totfact>
</mgrwt>
</event>
<event>
 5    0  0.1257040E+001  0.2046859E+03  0.7546771E-02  0.1145845E+00
         21   -1    0    0  504  501  0.00000000000E+00  0.00000000000E+00  0.48599380449E+03  0.48599380449E+03  0.00000000000E+00 0.  1.
         21   -1    0    0  503  502 -0.00000000000E+00 -0.00000000000E+00 -0.11373766544E+04  0.11373766544E+04  0.00000000000E+00 0.  1.
         25    1    1    2    0    0 -0.22591740463E+03 -0.11616818039E+03 -0.21140590651E+03  0.35334286063E+03  0.12500000000E+03 0.  0.
         21    1    1    2  503  501  0.10074610187E+03  0.20768109316E+02 -0.83681874398E+03  0.84311725263E+03  0.00000000000E+00 0.  1.
         21    1    1    2  504  502  0.12517130276E+03  0.95400071075E+02  0.39684180053E+03  0.42691034568E+03  0.00000000000E+00 0.  1.
<mgrwt>
<rscale>  4 0.20468592E+03</rscale>
<asrwt>0</asrwt>
<pdfrwt beam="1">  1       21 0.74768277E-01 0.20468592E+03</pdfrwt>
<pdfrwt beam="2">  1       21 0.17498102E+00 0.20468592E+03</pdfrwt>
<totfact> 0.31077829E+02</totfact>
</mgrwt>
</event>
<event>
 5    0  0.1257040E+001  0.2445723E+03  0.7546771E-02  0.1116784E+00
         21   -1    0    0  502  501  0.00000000000E+00  0.00000000000E+00  0.27959274957E+03  0.27959274957E+03  0.00000000000E+00 0. -1.
         21   -1    0    0  504  502 -0.00000000000E+00 -0.00000000000E+00 -0.40158026982E+03  0.40158026982E+03  0.00000000000E+00 0. -1.
         25    1    1    2    0    0  0.20214963845E+03 -0.52183037549E+02 -0.13555177002E+03  0.27854412234E+03  0.12500000000E+03 0.  0.
         21    1    1    2  503  501  0.16408453328E+02  0.10849301369E+03  0.11164822394E+03  0.15654167901E+03  0.00000000000E+00 0. -1.
         21    1    1    2  504  503 -0.21855809178E+03 -0.56309976137E+02 -0.98083974173E+02  0.24608721804E+03  0.00000000000E+00 0. -1.
<mgrwt>
<rscale>  4 0.24457230E+03</rscale>
<asrwt>0</asrwt>
<pdfrwt beam="1">  1       21 0.43014269E-01 0.24457230E+03</pdfrwt>
<pdfrwt beam="2">  1       21 0.61781580E-01 0.24457230E+03</pdfrwt>
<totfact> 0.12252425E+04</totfact>
</mgrwt>
</event>
<event>
 5    0  0.1257040E+001  0.2206619E+03  0.7546771E-02  0.1133391E+00
         21   -1    0    0  504  501  0.00000000000E+00  0.00000000000E+00  0.40159259279E+03  0.40159259279E+03  0.00000000000E+00 0.  1.
         21   -1    0    0  503  502 -0.00000000000E+00 -0.00000000000E+00 -0.18858297236E+03  0.18858297236E+03  0.00000000000E+00 0.  1.
         25    1    1    2    0    0 -0.19535824436E+03  0.43573023392E+02  0.27567457350E+03  0.36288417227E+03  0.12500000000E+03 0.  0.
         21    1    1    2  503  501  0.17304494181E+03 -0.44159232404E+02 -0.83146682130E+02  0.19699736151E+03  0.00000000000E+00 0.  1.
         21    1    1    2  504  502  0.22313302555E+02  0.58620901241E+00  0.20481729054E+02  0.30294031375E+02  0.00000000000E+00 0. -1.
<mgrwt>
<rscale>  4 0.22066191E+03</rscale>
<asrwt>0</asrwt>
<pdfrwt beam="1">  1       21 0.61783476E-01 0.22066191E+03</pdfrwt>
<pdfrwt beam="2">  1       21 0.29012765E-01 0.22066191E+03</pdfrwt>
<totfact> 0.27248027E+04</totfact>
</mgrwt>
</event>
<event>
 5    0  0.1257040E+001  0.2749694E+03  0.7546771E-02  0.1098469E+00
         21   -1    0    0  503  501  0.00000000000E+00  0.00000000000E+00  0.10296756865E+04  0.10296756865E+04  0.00000000000E+00 0. -1.
         21   -1    0    0  504  502 -0.00000000000E+00 -0.00000000000E+00 -0.10605752233E+03  0.10605752233E+03  0.00000000000E+00 0. -1.
         25    1    1    2    0    0  0.22891179479E+03 -0.91148702092E+01  0.36633914154E+03  0.44979223790E+03  0.12500000000E+03 0.  0.
         21    1    1    2  503  502  0.10207190326E+02 -0.11635217387E+03  0.94937214423E+02  0.15051607815E+03  0.00000000000E+00 0. -1.
         21    1    1    2  504  501 -0.23911898511E+03  0.12546704408E+03  0.46234180816E+03  0.53542489274E+03  0.00000000000E+00 0. -1.
<mgrwt>
<rscale>  4 0.27496938E+03</rscale>
<asrwt>0</asrwt>
<pdfrwt beam="1">  1       21 0.15841164E+00 0.27496938E+03</pdfrwt>
<pdfrwt beam="2">  1       21 0.16316543E-01 0.27496938E+03</pdfrwt>
<totfact> 0.82249088E+03</totfact>
</mgrwt>
</event>
<event>
 5    0  0.1257040E+001  0.3759094E+03  0.7546771E-02  0.1052456E+00
         21   -1    0    0  504  501  0.00000000000E+00  0.00000000000E+00  0.18767162911E+04  0.18767162911E+04  0.00000000000E+00 0. -1.
         21   -1    0    0  503  502 -0.00000000000E+00 -0.00000000000E+00 -0.40807056811E+03  0.40807056811E+03  0.00000000000E+00 0. -1.
         25    1    1    2    0    0  0.26929540904E+03  0.26307579655E+03  0.14643215963E+04  0.15170997428E+04  0.12500000000E+03 0.  0.
         21    1    1    2  503  501 -0.26584950059E+03 -0.23275189309E+03 -0.29897538420E+03  0.46285600467E+03  0.00000000000E+00 0. -1.
         21    1    1    2  504  502 -0.34459084475E+01 -0.30323903467E+02  0.30329951084E+03  0.30483111174E+03  0.00000000000E+00 0.  1.
<mgrwt>
<rscale>  4 0.37590940E+03</rscale>
<asrwt>0</asrwt>
<pdfrwt beam="1">  1       21 0.28872558E+00 0.37590940E+03</pdfrwt>
<pdfrwt beam="2">  1       21 0.62780088E-01 0.37590940E+03</pdfrwt>
<totfact> 0.75713618E+01</totfact>
</mgrwt>
</event>
<event>
 5    0  0.1257040E+001  0.2973972E+03  0.7546771E-02  0.1086549E+00
         21   -1    0    0  504  501  0.00000000000E+00  0.00000000000E+00  0.58113421183E+03  0.58113421183E+03  0.00000000000E+00 0. -1.
         21   -1    0    0  503  502 -0.00000000000E+00 -0.00000000000E+00 -0.17067081712E+04  0.17067081712E+04  0.00000000000E+00 0. -1.
         25    1    1    2    0    0 -0.28267951499E+03 -0.17724324395E+03 -0.15811595831E+04  0.16208064360E+04  0.12500000000E+03 0.  0.
         21    1    1    2  503  501  0.48776389547E+02  0.45315291707E+02 -0.57468552921E+02  0.87950249656E+02  0.00000000000E+00 0. -1.
         21    1    1    2  504  502  0.23390312544E+03  0.13192795224E+03  0.51305417668E+03  0.57908569735E+03  0.00000000000E+00 0. -1.
<mgrwt>
<rscale>  4 0.29739722E+03</rscale>
<asrwt>0</asrwt>
<pdfrwt beam="1">  1       21 0.89405262E-01 0.29739722E+03</pdfrwt>
<pdfrwt beam="2">  1       21 0.26257049E+00 0.29739722E+03</pdfrwt>
<totfact> 0.52226926E+01</totfact>
</mgrwt>
</event>
<event>
 5    0  0.1257040E+001  0.2724247E+03  0.7546771E-02  0.1099900E+00
         21   -1    0    0  503  501  0.00000000000E+00  0.00000000000E+00  0.18473570822E+03  0.18473570822E+03  0.00000000000E+00 0. -1.
         21   -1    0    0  504  502 -0.00000000000E+00 -0.00000000000E+00 -0.17455399842E+04  0.17455399842E+04  0.00000000000E+00 0.  1.
         25    1    1    2    0    0 -0.54075394184E+02 -0.23732583686E+03 -0.15848347943E+04  0.16082829435E+04  0.12500000000E+03 0.  0.
         21    1    1    2  503  502 -0.37437744474E+02  0.29724909358E+02 -0.62925005877E+02  0.79023485827E+02  0.00000000000E+00 0. -1.
         21    1    1    2  504  501  0.91513138658E+02  0.20760092750E+03  0.86955524167E+02  0.24296926314E+03  0.00000000000E+00 0. -1.
<mgrwt>
<rscale>  4 0.27242471E+03</rscale>
<asrwt>0</asrwt>
<pdfrwt beam="1">  1       21 0.28420879E-01 0.27242471E+03</pdfrwt>
<pdfrwt beam="2">  1       21 0.26854460E+00 0.27242471E+03</pdfrwt>
<totfact> 0.56052381E+02</totfact>
</mgrwt>
</event>
<event>
 5    0  0.1257040E+001  0.3304501E+03  0.7546771E-02  0.1070938E+00
         21   -1    0    0  503  501  0.00000000000E+00  0.00000000000E+00  0.38758368779E+03  0.38758368779E+03  0.00000000000E+00 0. -1.
         21   -1    0    0  504  502 -0.00000000000E+00 -0.00000000000E+00 -0.49604153345E+03  0.49604153345E+03  0.00000000000E+00 0. -1.
         25    1    1    2    0    0 -0.26853597891E+03  0.20108648437E+03 -0.13365172652E+03  0.38214543065E+03  0.12500000000E+03 0.  0.
         21    1    1    2  503  502  0.91751961100E+02  0.40265383539E+02 -0.13025351498E+03  0.16433411588E+03  0.00000000000E+00 0. -1.
         21    1    1    2  504  501  0.17678401781E+03 -0.24135186791E+03  0.15544739584E+03  0.33714567470E+03  0.00000000000E+00 0. -1.
<mgrwt>
<rscale>  4 0.33045008E+03</rscale>
<asrwt>0</asrwt>
<pdfrwt beam="1">  1       21 0.59628260E-01 0.33045008E+03</pdfrwt>
<pdfrwt beam="2">  1       21 0.76314082E-01 0.33045008E+03</pdfrwt>
<totfact> 0.36827692E+03</totfact>
</mgrwt>
</event>
<event>
 5    0  0.1257040E+001  0.2401741E+03  0.7546771E-02  0.1119677E+00
         21   -1    0    0  502  501  0.00000000000E+00  0.00000000000E+00  0.99185924155E+03  0.99185924155E+03  0.00000000000E+00 0.  1.
         21   -1    0    0  504  502 -0.00000000000E+00 -0.00000000000E+00 -0.14697837822E+03  0.14697837822E+03  0.00000000000E+00 0.  1.
         25    1    1    2    0    0  0.19670758082E+03  0.13046412047E+03  0.60436535652E+03  0.66075505540E+03  0.12500000000E+03 0.  0.
         21    1    1    2  503  501 -0.47638336243E+02  0.45967186592E+01  0.27050392776E+03  0.27470514345E+03  0.00000000000E+00 0.  1.
         21    1    1    2  504  503 -0.14906924458E+03 -0.13506083913E+03 -0.29988420958E+02  0.20337742091E+03  0.00000000000E+00 0.  1.
<mgrwt>
<rscale>  4 0.24017411E+03</rscale>
<asrwt>0</asrwt>
<pdfrwt beam="1">  1       21 0.15259373E+00 0.24017411E+03</pdfrwt>
<pdfrwt beam="2">  1       21 0.22612059E-01 0.24017411E+03</pdfrwt>
<totfact> 0.50464239E+03</totfact>
</mgrwt>
</event>
<event>
 5    0  0.1257040E+001  0.2766305E+03  0.7546771E-02  0.1097544E+00
         21   -1    0    0  503  501  0.00000000000E+00  0.00000000000E+00  0.36537176922E+04  0.36537176922E+04  0.00000000000E+00 0. -1.
         21   -1    0    0  504  502 -0.00000000000E+00 -0.00000000000E+00 -0.39927582176E+02  0.39927582176E+02  0.00000000000E+00 0. -1.
         25    1    1    2    0    0  0.24095281636E+03  0.50826173064E+02  0.65299393986E+03  0.70899058180E+03  0.12500000000E+03 0.  0.
         21    1    1    2  503  502 -0.30725956877E+02  0.83886386747E+02  0.32487719375E+03  0.33693649450E+03  0.00000000000E+00 0. -1.
         21    1    1    2  504  501 -0.21022685949E+03 -0.13471255981E+03  0.26359189764E+04  0.26477181981E+04  0.00000000000E+00 0. -1.
<mgrwt>
<rscale>  4 0.27663053E+03</rscale>
<asrwt>0</asrwt>
<pdfrwt beam="1">  1       21 0.56211015E+00 0.27663053E+03</pdfrwt>
<pdfrwt beam="2">  1       21 0.61427078E-02 0.27663053E+03</pdfrwt>
<totfact> 0.11159809E+02</totfact>
</mgrwt>
</event>
<event>
 5    0  0.1257040E+001  0.2071886E+03  0.7546771E-02  0.1143812E+00
         21   -1    0    0  502  501  0.00000000000E+00  0.00000000000E+00  0.11226002808E+03  0.11226002808E+03  0.00000000000E+00 0. -1.
         21   -1    0    0  504  502 -0.00000000000E+00 -0.00000000000E+00 -0.13219842015E+04  0.13219842015E+04  0.00000000000E+00 0. -1.
         25    1    1    2    0    0  0.12395410680E+03 -0.25179868318E+03 -0.67507368821E+03  0.74169851150E+03  0.12500000000E+03 0.  0.
         21    1    1    2  503  501 -0.95170406513E+01  0.15304555650E+03 -0.18185784635E+02  0.15441579968E+03  0.00000000000E+00 0. -1.
         21    1    1    2  504  503 -0.11443706614E+03  0.98753126682E+02 -0.51646470056E+03  0.53812991839E+03  0.00000000000E+00 0. -1.
<mgrwt>
<rscale>  4 0.20718865E+03</rscale>
<asrwt>0</asrwt>
<pdfrwt beam="1">  1       21 0.17270771E-01 0.20718865E+03</pdfrwt>
<pdfrwt beam="2">  1       21 0.20338221E+00 0.20718865E+03</pdfrwt>
<totfact> 0.38181781E+03</totfact>
</mgrwt>
</event>
<event>
 5    0  0.1257040E+001  0.2455882E+03  0.7546771E-02  0.1116125E+00
         21   -1    0    0  502  501  0.00000000000E+00  0.00000000000E+00  0.34742140421E+03  0.34742140421E+03  0.00000000000E+00 0.  1.
         21   -1    0    0  504  502 -0.00000000000E+00 -0.00000000000E+00 -0.23154755689E+03  0.23154755689E+03  0.00000000000E+00 0.  1.
         25    1    1    2    0    0  0.44485466317E+02  0.21836569068E+03 -0.71610740939E+02  0.26535943511E+03  0.12500000000E+03 0.  0.
         21    1    1    2  503  501 -0.78953290688E+02 -0.17291986923E+03  0.16692228207E+03  0.25297816415E+03  0.00000000000E+00 0.  1.
         21    1    1    2  504  503  0.34467824371E+02 -0.45445821454E+02  0.20562306189E+02  0.60631361854E+02  0.00000000000E+00 0. -1.
<mgrwt>
<rscale>  4 0.24558818E+03</rscale>
<asrwt>0</asrwt>
<pdfrwt beam="1">  1       21 0.53449447E-01 0.24558818E+03</pdfrwt>
<pdfrwt beam="2">  1       21 0.35622701E-01 0.24558818E+03</pdfrwt>
<totfact> 0.24481551E+04</totfact>
</mgrwt>
</event>
<event>
 5    0  0.1257040E+001  0.2788864E+03  0.7546771E-02  0.1096299E+00
         21   -1    0    0  502  501  0.00000000000E+00  0.00000000000E+00  0.64160949308E+02  0.64160949308E+02  0.00000000000E+00 0.  1.
         21   -1    0    0  504  502 -0.00000000000E+00 -0.00000000000E+00 -0.20207508177E+04  0.20207508177E+04  0.00000000000E+00 0.  1.
         25    1    1    2    0    0 -0.12767439325E+03 -0.24957779010E+03 -0.46143421754E+03  0.55419884619E+03  0.12500000000E+03 0.  0.
         21    1    1    2  503  501  0.11344886741E+03  0.17504928377E+03 -0.66146726602E+03  0.69357900868E+03  0.00000000000E+00 0.  1.
         21    1    1    2  504  503  0.14225525834E+02  0.74528506331E+02 -0.83368838481E+03  0.83713391212E+03  0.00000000000E+00 0.  1.
<mgrwt>
<rscale>  4 0.27888645E+03</rscale>
<asrwt>0</asrwt>
<pdfrwt beam="1">  1       21 0.98709144E-02 0.27888645E+03</pdfrwt>
<pdfrwt beam="2">  1       21 0.31088477E+00 0.27888645E+03</pdfrwt>
<totfact> 0.22389869E+03</totfact>
</mgrwt>
</event>
<event>
 5    0  0.1257040E+001  0.3914478E+03  0.7546771E-02  0.1046782E+00
         21   -1    0    0  503  501  0.00000000000E+00  0.00000000000E+00  0.32075401742E+03  0.32075401742E+03  0.00000000000E+00 0.  1.
         21   -1    0    0  504  502 -0.00000000000E+00 -0.00000000000E+00 -0.15879646042E+04  0.15879646042E+04  0.00000000000E+00 0.  1.
         25    1    1    2    0    0 -0.35004758792E+03  0.25851540384E+02  0.14035363001E+03  0.39815293218E+03  0.12500000000E+03 0.  0.
         21    1    1    2  503  502  0.37026930914E+03 -0.42934823814E+02 -0.14288043137E+04  0.14766260621E+04  0.00000000000E+00 0.  1.
         21    1    1    2  504  501 -0.20221721215E+02  0.17083283430E+02  0.21240096972E+02  0.33939627297E+02  0.00000000000E+00 0.  1.
<mgrwt>
<rscale>  4 0.39144782E+03</rscale>
<asrwt>0</asrwt>
<pdfrwt beam="1">  1       21 0.49346773E-01 0.39144782E+03</pdfrwt>
<pdfrwt beam="2">  1       21 0.24430224E+00 0.39144782E+03</pdfrwt>
<totfact> 0.23312269E+02</totfact>
</mgrwt>
</event>
<event>
 5    0  0.1257040E+001  0.2608872E+03  0.7546771E-02  0.1106611E+00
         21   -1    0    0  502  501  0.00000000000E+00  0.00000000000E+00  0.15705388976E+04  0.15705388976E+04  0.00000000000E+00 0. -1.
         21   -1    0    0  504  502 -0.00000000000E+00 -0.00000000000E+00 -0.45447291738E+02  0.45447291738E+02  0.00000000000E+00 0. -1.
         25    1    1    2    0    0  0.13270197373E+03  0.20575587596E+03  0.74079090789E+03  0.79015281025E+03  0.12500000000E+03 0.  0.
         21    1    1    2  503  501 -0.61600525121E+01 -0.29780035452E+02  0.20628642717E+03  0.20851591496E+03  0.00000000000E+00 0.  1.
         21    1    1    2  504  503 -0.12654192122E+03 -0.17597584051E+03  0.57801427084E+03  0.61731746417E+03  0.00000000000E+00 0. -1.
<mgrwt>
<rscale>  4 0.26088718E+03</rscale>
<asrwt>0</asrwt>
<pdfrwt beam="1">  1       21 0.24162133E+00 0.26088718E+03</pdfrwt>
<pdfrwt beam="2">  1       21 0.69918923E-02 0.26088718E+03</pdfrwt>
<totfact> 0.10688649E+04</totfact>
</mgrwt>
</event>
<event>
 5    0  0.1257040E+001  0.2562800E+03  0.7546771E-02  0.1109399E+00
         21   -1    0    0  502  501  0.00000000000E+00  0.00000000000E+00  0.20917274365E+03  0.20917274365E+03  0.00000000000E+00 0. -1.
         21   -1    0    0  504  502 -0.00000000000E+00 -0.00000000000E+00 -0.50656621565E+03  0.50656621565E+03  0.00000000000E+00 0. -1.
         25    1    1    2    0    0  0.19814363496E+03  0.14459727317E+03  0.11827251607E+02  0.27556152737E+03  0.12500000000E+03 0.  0.
         21    1    1    2  503  501 -0.24037683778E+02 -0.11965152035E+02  0.27589864637E+02  0.38499035512E+02  0.00000000000E+00 0.  1.
         21    1    1    2  504  503 -0.17410595118E+03 -0.13263212113E+03 -0.33681058825E+03  0.40167839642E+03  0.00000000000E+00 0. -1.
<mgrwt>
<rscale>  4 0.25628003E+03</rscale>
<asrwt>0</asrwt>
<pdfrwt beam="1">  1       21 0.32180423E-01 0.25628003E+03</pdfrwt>
<pdfrwt beam="2">  1       21 0.77933263E-01 0.25628003E+03</pdfrwt>
<totfact> 0.13053277E+04</totfact>
</mgrwt>
</event>
