<event>
 5    0  0.3275920E+000  0.2573956E+03  0.7546771E-02  0.1108718E+00
          2   -1    0    0  503    0 -0.00000000000E+00  0.00000000000E+00  0.15306608460E+04  0.15306608460E+04  0.00000000000E+00 0. -1.
         21   -1    0    0  501  502  0.00000000000E+00 -0.00000000000E+00 -0.47316782852E+02  0.47316782852E+02  0.00000000000E+00 0. -1.
         25    1    1    2    0    0 -0.51759774453E+02  0.22817449771E+03  0.54586920318E+03  0.60691091821E+03  0.12500000000E+03 0.  0.
         21    1    1    2  503  502  0.15334737636E+02 -0.17090908738E+02  0.24857645117E+03  0.24963474401E+03  0.00000000000E+00 0. -1.
          2    1    1    2  501    0  0.36425036817E+02 -0.21108358897E+03  0.68889840876E+03  0.72143196660E+03  0.00000000000E+00 0. -1.
<mgrwt>
<rscale>  4 0.25739563E+03</rscale>
<asrwt>0</asrwt>
<pdfrwt beam="1">  1       21 0.72795062E-02 0.25739563E+03</pdfrwt>
<pdfrwt beam="2">  1        2 0.23548625E+00 0.25739563E+03</pdfrwt>
<totfact> 0.23517986E+04</totfact>
</mgrwt>
</event>
<event>
 5    0  0.3275920E+000  0.3084435E+03  0.7546771E-02  0.1081094E+00
         21   -1    0    0  501  502  0.00000000000E+00  0.00000000000E+00  0.22612853940E+03  0.22612853940E+03  0.00000000000E+00 0.  1.
          2   -1    0    0  503    0 -0.00000000000E+00 -0.00000000000E+00 -0.17337207381E+04  0.17337207381E+04  0.00000000000E+00 0. -1.
         25    1    1    2    0    0 -0.20097199910E+03 -0.19517565694E+03  0.88432211339E+02  0.31926248995E+03  0.12500000000E+03 0.  0.
         21    1    1    2  503  502 -0.34558581488E+01 -0.21950255643E+02 -0.61111350634E+03  0.61151735405E+03  0.00000000000E+00 0. -1.
          2    1    1    2  501    0  0.20442785725E+03  0.21712591258E+03 -0.98491090370E+03  0.10290694335E+04  0.00000000000E+00 0. -1.
<mgrwt>
<rscale>  4 0.30844352E+03</rscale>
<asrwt>0</asrwt>
<pdfrwt beam="1">  1       21 0.34789005E-01 0.30844352E+03</pdfrwt>
<pdfrwt beam="2">  1        2 0.26672628E+00 0.30844352E+03</pdfrwt>
<totfact> 0.99101153E+02</totfact>
</mgrwt>
</event>
<event>
 5    0  0.3275920E+000  0.3126913E+03  0.7546771E-02  0.1079063E+00
          1   -1    0    0  503    0 -0.00000000000E+00  0.00000000000E+00  0.17013590202E+04  0.17013590202E+04  0.00000000000E+00 0. -1.
         21   -1    0    0  501  502  0.00000000000E+00 -0.00000000000E+00 -0.26454157931E+03  0.26454157931E+03  0.00000000000E+00 0.  1.
         25    1    1    2    0    0  0.23147084050E+03  0.16903282710E+03 -0.15219118680E+03  0.34776141818E+03  0.12500000000E+03 0.  0.
         21    1    1    2  503  502 -0.55642446575E+02  0.79133331745E+01  0.29531395163E+03  0.30061442536E+03  0.00000000000E+00 0.  1.
          1    1    1    2  501    0 -0.17582839392E+03 -0.17694616027E+03  0.12936946761E+04  0.13175247560E+04  0.00000000000E+00 0. -1.
<mgrwt>
<rscale>  4 0.31269130E+03</rscale>
<asrwt>0</asrwt>
<pdfrwt beam="1">  1       21 0.40698706E-01 0.31269130E+03</pdfrwt>
<pdfrwt beam="2">  1        1 0.26174754E+00 0.31269130E+03</pdfrwt>
<totfact> 0.32506493E+02</totfact>
</mgrwt>
</event>
<event>
 5    0  0.3275920E+000  0.4094928E+03  0.7546771E-02  0.1040541E+00
          2   -1    0    0  503    0 -0.00000000000E+00  0.00000000000E+00  0.19679972091E+04  0.19679972091E+04  0.00000000000E+00 0.  1.
         21   -1    0    0  501  502  0.00000000000E+00 -0.00000000000E+00 -0.10984290450E+03  0.10984290450E+03  0.00000000000E+00 0.  1.
         25    1    1    2    0    0 -0.29152556159E+03 -0.26299467954E+03  0.46711797370E+03  0.62287844390E+03  0.12500000000E+03 0.  0.
         21    1    1    2  503  502  0.33365265508E+02 -0.22471519824E+02  0.10042978335E+03  0.10818665134E+03  0.00000000000E+00 0. -1.
          2    1    1    2  501    0  0.25816029608E+03  0.28546619937E+03  0.12906065475E+04  0.13467750183E+04  0.00000000000E+00 0.  1.
<mgrwt>
<rscale>  4 0.40949281E+03</rscale>
<asrwt>0</asrwt>
<pdfrwt beam="1">  1       21 0.16898910E-01 0.40949281E+03</pdfrwt>
<pdfrwt beam="2">  1        2 0.30276878E+00 0.40949281E+03</pdfrwt>
<totfact> 0.29038190E+03</totfact>
</mgrwt>
</event>
<event>
 5    0  0.3275920E+000  0.3604704E+03  0.7546771E-02  0.1058398E+00
         -2   -1    0    0    0  501 -0.00000000000E+00  0.00000000000E+00  0.70862160862E+03  0.70862160862E+03  0.00000000000E+00 0. -1.
         21   -1    0    0  503  502  0.00000000000E+00 -0.00000000000E+00 -0.42570978900E+03  0.42570978900E+03  0.00000000000E+00 0. -1.
         25    1    1    2    0    0  0.25219756556E+03  0.22518952576E+03 -0.29057797605E+03  0.46300593382E+03  0.12500000000E+03 0.  0.
         21    1    1    2  503  501 -0.12793632671E+02 -0.33401956225E+02  0.10871740958E+03  0.11445017633E+03  0.00000000000E+00 0. -1.
         -2    1    1    2    0  502 -0.23940393289E+03 -0.19178756954E+03  0.46477238610E+03  0.55687528747E+03  0.00000000000E+00 0. -1.
<mgrwt>
<rscale>  4 0.36047044E+03</rscale>
<asrwt>0</asrwt>
<pdfrwt beam="1">  1       21 0.65493814E-01 0.36047044E+03</pdfrwt>
<pdfrwt beam="2">  1       -2 0.10901871E+00 0.36047044E+03</pdfrwt>
<totfact> 0.11496039E+02</totfact>
</mgrwt>
</event>
<event>
 5    0  0.3275920E+000  0.2851469E+03  0.7546771E-02  0.1092911E+00
         21   -1    0    0  501  502  0.00000000000E+00  0.00000000000E+00  0.71322102890E+02  0.71322102890E+02  0.00000000000E+00 0.  1.
          1   -1    0    0  503    0 -0.00000000000E+00 -0.00000000000E+00 -0.20696446291E+04  0.20696446291E+04  0.00000000000E+00 0.  1.
         25    1    1    2    0    0  0.25149058297E+03 -0.73605154979E+02 -0.29910456517E+03  0.41683782586E+03  0.12500000000E+03 0.  0.
         21    1    1    2  503  502 -0.31886362875E+02 -0.18522327172E+02 -0.50815998345E+03  0.50949620756E+03  0.00000000000E+00 0.  1.
          1    1    1    2  501    0 -0.21960422009E+03  0.92127482151E+02 -0.11910579776E+04  0.12146326986E+04  0.00000000000E+00 0.  1.
<mgrwt>
<rscale>  4 0.28514693E+03</rscale>
<asrwt>0</asrwt>
<pdfrwt beam="1">  1       21 0.10972632E-01 0.28514693E+03</pdfrwt>
<pdfrwt beam="2">  1        1 0.31840683E+00 0.28514693E+03</pdfrwt>
<totfact> 0.22962470E+03</totfact>
</mgrwt>
</event>
<event>
 5    0  0.3275920E+000  0.3423263E+03  0.7546771E-02  0.1065809E+00
          1   -1    0    0  503    0 -0.00000000000E+00  0.00000000000E+00  0.85667137398E+03  0.85667137398E+03  0.00000000000E+00 0.  1.
         21   -1    0    0  501  502  0.00000000000E+00 -0.00000000000E+00 -0.43444374961E+03  0.43444374961E+03  0.00000000000E+00 0. -1.
         25    1    1    2    0    0 -0.24566551166E+03  0.19098314985E+03 -0.28824473636E+03  0.44219468019E+03  0.12500000000E+03 0.  0.
         21    1    1    2  503  502 -0.22483803619E+02  0.76931889672E+02  0.17897221094E+03  0.19609969241E+03  0.00000000000E+00 0. -1.
          1    1    1    2  501    0  0.26814931528E+03 -0.26791503952E+03  0.53150014979E+03  0.65282075099E+03  0.00000000000E+00 0.  1.
<mgrwt>
<rscale>  4 0.34232633E+03</rscale>
<asrwt>0</asrwt>
<pdfrwt beam="1">  1       21 0.66837500E-01 0.34232633E+03</pdfrwt>
<pdfrwt beam="2">  1        1 0.13179560E+00 0.34232633E+03</pdfrwt>
<totfact> 0.44080533E+02</totfact>
</mgrwt>
</event>
<event>
 5    0  0.3275920E+000  0.3021867E+03  0.7546771E-02  0.1084153E+00
         21   -1    0    0  501  502  0.00000000000E+00  0.00000000000E+00  0.11374388304E+04  0.11374388304E+04  0.00000000000E+00 0. -1.
          1   -1    0    0  503    0 -0.00000000000E+00 -0.00000000000E+00 -0.18002991232E+03  0.18002991232E+03  0.00000000000E+00 0.  1.
         25    1    1    2    0    0  0.25414084708E+03  0.10784860881E+03  0.97563682923E+03  0.10216218063E+04  0.12500000000E+03 0.  0.
         21    1    1    2  503  502 -0.15108787811E+02  0.16942530340E+02  0.98440549501E+01  0.24743286389E+02  0.00000000000E+00 0. -1.
          1    1    1    2  501    0 -0.23903205927E+03 -0.12479113915E+03 -0.28071966112E+02  0.27110365002E+03  0.00000000000E+00 0.  1.
<mgrwt>
<rscale>  4 0.30218668E+03</rscale>
<asrwt>0</asrwt>
<pdfrwt beam="1">  1       21 0.17499059E+00 0.30218668E+03</pdfrwt>
<pdfrwt beam="2">  1        1 0.27696910E-01 0.30218668E+03</pdfrwt>
<totfact> 0.33556083E+02</totfact>
</mgrwt>
</event>
<event>
 5    0  0.3275920E+000  0.2891669E+03  0.7546771E-02  0.1090785E+00
          2   -1    0    0  503    0 -0.00000000000E+00  0.00000000000E+00  0.14225789395E+04  0.14225789395E+04  0.00000000000E+00 0.  1.
         21   -1    0    0  501  502  0.00000000000E+00 -0.00000000000E+00 -0.10238619676E+03  0.10238619676E+03  0.00000000000E+00 0.  1.
         25    1    1    2    0    0 -0.17858211751E+03  0.20110848021E+03  0.24925196084E+03  0.38741158151E+03  0.12500000000E+03 0.  0.
         21    1    1    2  503  502  0.36364937002E+02  0.40332880597E+01  0.62842729387E+03  0.62949149298E+03  0.00000000000E+00 0.  1.
          2    1    1    2  501    0  0.14221718050E+03 -0.20514176827E+03  0.44251348800E+03  0.50806206174E+03  0.00000000000E+00 0.  1.
<mgrwt>
<rscale>  4 0.28916694E+03</rscale>
<asrwt>0</asrwt>
<pdfrwt beam="1">  1       21 0.15751724E-01 0.28916694E+03</pdfrwt>
<pdfrwt beam="2">  1        2 0.21885828E+00 0.28916694E+03</pdfrwt>
<totfact> 0.66968472E+03</totfact>
</mgrwt>
</event>
<event>
 5    0  0.3275920E+000  0.2575801E+03  0.7546771E-02  0.1108606E+00
          2   -1    0    0  503    0 -0.00000000000E+00  0.00000000000E+00  0.55138157498E+03  0.55138157498E+03  0.00000000000E+00 0. -1.
         21   -1    0    0  501  502  0.00000000000E+00 -0.00000000000E+00 -0.55619748763E+03  0.55619748763E+03  0.00000000000E+00 0. -1.
         25    1    1    2    0    0 -0.44423783980E+02 -0.22045478499E+03 -0.46113056843E+03  0.52805320371E+03  0.12500000000E+03 0.  0.
         21    1    1    2  503  502 -0.65356197442E+02  0.85880743923E+01  0.15226305327E+01  0.65935619885E+02  0.00000000000E+00 0. -1.
          2    1    1    2  501    0  0.10977998142E+03  0.21186671060E+03  0.45479202525E+03  0.51359023902E+03  0.00000000000E+00 0. -1.
<mgrwt>
<rscale>  4 0.25758013E+03</rscale>
<asrwt>0</asrwt>
<pdfrwt beam="1">  1       21 0.85568845E-01 0.25758013E+03</pdfrwt>
<pdfrwt beam="2">  1        2 0.84827934E-01 0.25758013E+03</pdfrwt>
<totfact> 0.79740452E+02</totfact>
</mgrwt>
</event>
<event>
 5    0  0.3275920E+000  0.3049848E+03  0.7546771E-02  0.1082775E+00
         21   -1    0    0  501  502  0.00000000000E+00  0.00000000000E+00  0.75069998757E+03  0.75069998757E+03  0.00000000000E+00 0. -1.
          1   -1    0    0  503    0 -0.00000000000E+00 -0.00000000000E+00 -0.29663657977E+03  0.29663657977E+03  0.00000000000E+00 0. -1.
         25    1    1    2    0    0 -0.13656097058E+03  0.24208963686E+03  0.57009766094E+03  0.64644615706E+03  0.12500000000E+03 0.  0.
         21    1    1    2  503  502 -0.79454708278E+02 -0.45878830401E+02 -0.22886858138E+02  0.94560700198E+02  0.00000000000E+00 0. -1.
          1    1    1    2  501    0  0.21601567886E+03 -0.19621080646E+03 -0.93147395005E+02  0.30632971009E+03  0.00000000000E+00 0. -1.
<mgrwt>
<rscale>  4 0.30498482E+03</rscale>
<asrwt>0</asrwt>
<pdfrwt beam="1">  1       21 0.11549231E+00 0.30498482E+03</pdfrwt>
<pdfrwt beam="2">  1        1 0.45636397E-01 0.30498482E+03</pdfrwt>
<totfact> 0.53367779E+02</totfact>
</mgrwt>
</event>
