<event>
 5    0  0.1911311E+001  0.3467555E+03  0.7546771E-02  0.1063955E+00
         21   -1    0    0  504  501  0.00000000000E+00  0.00000000000E+00  0.29675274122E+03  0.29675274122E+03  0.00000000000E+00 0.  1.
         21   -1    0    0  503  502 -0.00000000000E+00 -0.00000000000E+00 -0.11840135024E+04  0.11840135024E+04  0.00000000000E+00 0. -1.
         25    1    1    2    0    0 -0.19970827886E+03  0.28445642495E+03  0.10426532906E+03  0.38379045478E+03  0.12500000000E+03 0.  0.
         21    1    1    2  503  501  0.19587649210E+03 -0.25432806789E+03 -0.10111048771E+04  0.10608409112E+04  0.00000000000E+00 0. -1.
         21    1    1    2  504  502  0.38317867580E+01 -0.30128357062E+02  0.19578786878E+02  0.36134877675E+02  0.00000000000E+00 0.  1.
<mgrwt>
<rscale>  4 0.34675548E+03</rscale>
<asrwt>0</asrwt>
<pdfrwt beam="1">  1       21 0.45654268E-01 0.34675548E+03</pdfrwt>
<pdfrwt beam="2">  1       21 0.18215592E+00 0.34675548E+03</pdfrwt>
<totfact> 0.71164336E+02</totfact>
</mgrwt>
</event>
<event>
 5    0  0.1911311E+001  0.2985464E+03  0.7546771E-02  0.1085970E+00
         21   -1    0    0  504  501  0.00000000000E+00  0.00000000000E+00  0.60843616541E+03  0.60843616541E+03  0.00000000000E+00 0. -1.
         21   -1    0    0  503  502 -0.00000000000E+00 -0.00000000000E+00 -0.24524790209E+03  0.24524790209E+03  0.00000000000E+00 0. -1.
         25    1    1    2    0    0  0.15647492275E+03  0.23770971566E+03  0.40741223862E+03  0.51244516053E+03  0.12500000000E+03 0.  0.
         21    1    1    2  503  501 -0.13687564900E+03 -0.23088226199E+03 -0.96316735506E+02  0.28516394536E+03  0.00000000000E+00 0. -1.
         21    1    1    2  504  502 -0.19599273741E+02 -0.68274536714E+01  0.52092760207E+02  0.56074961621E+02  0.00000000000E+00 0. -1.
<mgrwt>
<rscale>  4 0.29854638E+03</rscale>
<asrwt>0</asrwt>
<pdfrwt beam="1">  1       21 0.93605563E-01 0.29854638E+03</pdfrwt>
<pdfrwt beam="2">  1       21 0.37730447E-01 0.29854638E+03</pdfrwt>
<totfact> 0.60818200E+03</totfact>
</mgrwt>
</event>
<event>
 5    0  0.1911311E+001  0.1966992E+03  0.7546771E-02  0.1152554E+00
         21   -1    0    0  502  501  0.00000000000E+00  0.00000000000E+00  0.48701813291E+03  0.48701813291E+03  0.00000000000E+00 0.  1.
         21   -1    0    0  504  502 -0.00000000000E+00 -0.00000000000E+00 -0.21199395925E+03  0.21199395925E+03  0.00000000000E+00 0.  1.
         25    1    1    2    0    0 -0.20938165808E+03  0.75421244511E+02  0.21507246879E+03  0.33378167968E+03  0.12500000000E+03 0.  0.
         21    1    1    2  503  501  0.12509285256E+03 -0.24692515514E+02  0.17329439444E+03  0.21514852830E+03  0.00000000000E+00 0.  1.
         21    1    1    2  504  503  0.84288805515E+02 -0.50728728997E+02 -0.11334268956E+03  0.15008188418E+03  0.00000000000E+00 0.  1.
<mgrwt>
<rscale>  4 0.19669921E+03</rscale>
<asrwt>0</asrwt>
<pdfrwt beam="1">  1       21 0.74925866E-01 0.19669921E+03</pdfrwt>
<pdfrwt beam="2">  1       21 0.32614455E-01 0.19669921E+03</pdfrwt>
<totfact> 0.14379200E+04</totfact>
</mgrwt>
</event>
<event>
 5    0  0.1911311E+001  0.2717462E+03  0.7546771E-02  0.1100284E+00
         21   -1    0    0  502  501  0.00000000000E+00  0.00000000000E+00  0.67302702156E+03  0.67302702156E+03  0.00000000000E+00 0.  1.
         21   -1    0    0  504  502 -0.00000000000E+00 -0.00000000000E+00 -0.25884261976E+03  0.25884261976E+03  0.00000000000E+00 0.  1.
         25    1    1    2    0    0  0.35340715409E+03 -0.13179036063E+03  0.17357669267E+03  0.43361178945E+03  0.12500000000E+03 0.  0.
         21    1    1    2  503  501 -0.15649865771E+03  0.11824626647E+03  0.22759518501E+03  0.30045561676E+03  0.00000000000E+00 0.  1.
         21    1    1    2  504  503 -0.19690849637E+03  0.13544094162E+02  0.13012524103E+02  0.19780223511E+03  0.00000000000E+00 0.  1.
<mgrwt>
<rscale>  4 0.27174615E+03</rscale>
<asrwt>0</asrwt>
<pdfrwt beam="1">  1       21 0.10354262E+00 0.27174615E+03</pdfrwt>
<pdfrwt beam="2">  1       21 0.39821942E-01 0.27174615E+03</pdfrwt>
<totfact> 0.43454705E+03</totfact>
</mgrwt>
</event>
