<event>
 5    0  0.1467858E+000  0.3133573E+03  0.7546771E-02  0.1078748E+00
         21   -1    0    0  504  501  0.00000000000E+00  0.00000000000E+00  0.32325821225E+03  0.32325821225E+03  0.00000000000E+00 0.  1.
         21   -1    0    0  501  502 -0.00000000000E+00 -0.00000000000E+00 -0.28434960218E+03  0.28434960218E+03  0.00000000000E+00 0.  1.
         25    1    1    2    0    0 -0.31167586927E+02  0.28565078180E+03  0.14810845983E+02  0.31370710667E+03  0.12500000000E+03 0.  0.
         21    1    1    2  503  502  0.39777475212E+02 -0.26395861111E+03  0.32897542970E+02  0.26895844334E+03  0.00000000000E+00 0.  1.
         21    1    1    2  504  503 -0.86098882852E+01 -0.21692170695E+02 -0.87997788844E+01  0.24942264415E+02  0.00000000000E+00 0.  1.
<mgrwt>
<rscale>  4 0.31335728E+03</rscale>
<asrwt>0</asrwt>
<pdfrwt beam="1">  1       21 0.49732033E-01 0.31335728E+03</pdfrwt>
<pdfrwt beam="2">  1       21 0.43746093E-01 0.31335728E+03</pdfrwt>
<totfact> 0.18238607E+04</totfact>
</mgrwt>
</event>
<event>
 5    0  0.1467858E+000  0.2801723E+03  0.7546771E-02  0.1095595E+00
         21   -1    0    0  504  501  0.00000000000E+00  0.00000000000E+00  0.11911920340E+03  0.11911920340E+03  0.00000000000E+00 0.  1.
         21   -1    0    0  501  502 -0.00000000000E+00 -0.00000000000E+00 -0.63551653044E+03  0.63551653044E+03  0.00000000000E+00 0.  1.
         25    1    1    2    0    0  0.20671922042E+03  0.14191073971E+03 -0.36172113998E+03  0.45753543824E+03  0.12500000000E+03 0.  0.
         21    1    1    2  503  502 -0.18054803243E+03 -0.12323739030E+03 -0.11831034010E+03  0.24856062230E+03  0.00000000000E+00 0.  1.
         21    1    1    2  504  503 -0.26171187985E+02 -0.18673349405E+02 -0.36365846962E+02  0.48539673297E+02  0.00000000000E+00 0. -1.
<mgrwt>
<rscale>  4 0.28017226E+03</rscale>
<asrwt>0</asrwt>
<pdfrwt beam="1">  1       21 0.18326032E-01 0.28017226E+03</pdfrwt>
<pdfrwt beam="2">  1       21 0.97771769E-01 0.28017226E+03</pdfrwt>
<totfact> 0.22474041E+04</totfact>
</mgrwt>
</event>
<event>
 5    0  0.1467858E+000  0.2584267E+03  0.7546771E-02  0.1108092E+00
         21   -1    0    0  504  501  0.00000000000E+00  0.00000000000E+00  0.15419234630E+04  0.15419234630E+04  0.00000000000E+00 0.  1.
         21   -1    0    0  501  502 -0.00000000000E+00 -0.00000000000E+00 -0.52771546947E+02  0.52771546947E+02  0.00000000000E+00 0.  1.
         25    1    1    2    0    0 -0.22049953867E+03  0.50391380122E+02  0.11173075117E+04  0.11468044355E+04  0.12500000000E+03 0.  0.
         21    1    1    2  503  502  0.13895526744E+03 -0.77630424016E+02  0.28004729149E+03  0.32212037277E+03  0.00000000000E+00 0.  1.
         21    1    1    2  504  503  0.81544271228E+02  0.27239043893E+02  0.91797112870E+02  0.12577020161E+03  0.00000000000E+00 0.  1.
<mgrwt>
<rscale>  4 0.25842666E+03</rscale>
<asrwt>0</asrwt>
<pdfrwt beam="1">  1       21 0.23721896E+00 0.25842666E+03</pdfrwt>
<pdfrwt beam="2">  1       21 0.81187007E-02 0.25842666E+03</pdfrwt>
<totfact> 0.87697257E+03</totfact>
</mgrwt>
</event>
<event>
 5    0  0.1467858E+000  0.2681901E+03  0.7546771E-02  0.1102320E+00
         21   -1    0    0  504  501  0.00000000000E+00  0.00000000000E+00  0.60583593203E+02  0.60583593203E+02  0.00000000000E+00 0.  1.
         21   -1    0    0  501  502 -0.00000000000E+00 -0.00000000000E+00 -0.13420287564E+04  0.13420287564E+04  0.00000000000E+00 0.  1.
         25    1    1    2    0    0 -0.21358425560E+03 -0.96136859870E+02 -0.90786819352E+03  0.94589121302E+03  0.12500000000E+03 0.  0.
         21    1    1    2  503  502  0.20874436246E+03  0.11574391952E+03 -0.31816360979E+03  0.39774231150E+03  0.00000000000E+00 0.  1.
         21    1    1    2  504  503  0.48398931420E+01 -0.19607059655E+02 -0.55413359902E+02  0.58978825095E+02  0.00000000000E+00 0.  1.
<mgrwt>
<rscale>  4 0.26819015E+03</rscale>
<asrwt>0</asrwt>
<pdfrwt beam="1">  1       21 0.93205530E-02 0.26819015E+03</pdfrwt>
<pdfrwt beam="2">  1       21 0.20646596E+00 0.26819015E+03</pdfrwt>
<totfact> 0.10614532E+04</totfact>
</mgrwt>
</event>
<event>
 5    0  0.1467858E+000  0.2958905E+03  0.7546771E-02  0.1087313E+00
         21   -1    0    0  504  501  0.00000000000E+00  0.00000000000E+00  0.99695260336E+02  0.99695260336E+02  0.00000000000E+00 0.  1.
         21   -1    0    0  501  502 -0.00000000000E+00 -0.00000000000E+00 -0.12631790589E+04  0.12631790589E+04  0.00000000000E+00 0.  1.
         25    1    1    2    0    0 -0.11948999763E+03 -0.24010071783E+03 -0.99015574220E+03  0.10334213120E+04  0.12500000000E+03 0.  0.
         21    1    1    2  503  502  0.66194360123E+02  0.12821070523E+03 -0.14015744494E+03  0.20115612747E+03  0.00000000000E+00 0.  1.
         21    1    1    2  504  503  0.53295637511E+02  0.11189001260E+03 -0.33170611404E+02  0.12829687977E+03  0.00000000000E+00 0.  1.
<mgrwt>
<rscale>  4 0.29589054E+03</rscale>
<asrwt>0</asrwt>
<pdfrwt beam="1">  1       21 0.15337732E-01 0.29589054E+03</pdfrwt>
<pdfrwt beam="2">  1       21 0.19433524E+00 0.29589054E+03</pdfrwt>
<totfact> 0.50967168E+03</totfact>
</mgrwt>
</event>
<event>
 5    0  0.1467858E+000  0.2430671E+03  0.7546771E-02  0.1117766E+00
         21   -1    0    0  504  501  0.00000000000E+00  0.00000000000E+00  0.11989934472E+04  0.11989934472E+04  0.00000000000E+00 0.  1.
         21   -1    0    0  501  502 -0.00000000000E+00 -0.00000000000E+00 -0.18929344028E+03  0.18929344028E+03  0.00000000000E+00 0.  1.
         25    1    1    2    0    0  0.12472973604E+03 -0.16984980252E+03 -0.92930269164E+02  0.26204483852E+03  0.12500000000E+03 0.  0.
         21    1    1    2  503  502 -0.12999242162E+03  0.13002685247E+03  0.98302525739E+03  0.10000718318E+04  0.00000000000E+00 0.  1.
         21    1    1    2  504  503  0.52626855877E+01  0.39822950047E+02  0.11960501867E+03  0.12617021717E+03  0.00000000000E+00 0.  1.
<mgrwt>
<rscale>  4 0.24306708E+03</rscale>
<asrwt>0</asrwt>
<pdfrwt beam="1">  1       21 0.18446053E+00 0.24306708E+03</pdfrwt>
<pdfrwt beam="2">  1       21 0.29122069E-01 0.24306708E+03</pdfrwt>
<totfact> 0.18292205E+03</totfact>
</mgrwt>
</event>
<event>
 5    0  0.1467858E+000  0.2784858E+03  0.7546771E-02  0.1096519E+00
         21   -1    0    0  504  501  0.00000000000E+00  0.00000000000E+00  0.39705776783E+03  0.39705776783E+03  0.00000000000E+00 0. -1.
         21   -1    0    0  501  502 -0.00000000000E+00 -0.00000000000E+00 -0.17936660345E+03  0.17936660345E+03  0.00000000000E+00 0. -1.
         25    1    1    2    0    0 -0.63458313052E+02 -0.24062912322E+03  0.10045127650E+03  0.29604863010E+03  0.12500000000E+03 0.  0.
         21    1    1    2  503  502  0.63918187797E+02  0.21051457678E+03  0.11914993178E+03  0.25019717826E+03  0.00000000000E+00 0. -1.
         21    1    1    2  504  503 -0.45987474564E+00  0.30114546439E+02 -0.19100438974E+01  0.30178562916E+02  0.00000000000E+00 0. -1.
<mgrwt>
<rscale>  4 0.27848578E+03</rscale>
<asrwt>0</asrwt>
<pdfrwt beam="1">  1       21 0.61085810E-01 0.27848578E+03</pdfrwt>
<pdfrwt beam="2">  1       21 0.27594862E-01 0.27848578E+03</pdfrwt>
<totfact> 0.29996870E+04</totfact>
</mgrwt>
</event>
<event>
 5    0  0.1467858E+000  0.2322797E+03  0.7546771E-02  0.1125045E+00
         21   -1    0    0  504  501  0.00000000000E+00  0.00000000000E+00  0.13520826743E+03  0.13520826743E+03  0.00000000000E+00 0. -1.
         21   -1    0    0  501  502 -0.00000000000E+00 -0.00000000000E+00 -0.46719493758E+03  0.46719493758E+03  0.00000000000E+00 0. -1.
         25    1    1    2    0    0 -0.76393642129E+01  0.21845450305E+03 -0.19165266381E+03  0.31644347573E+03  0.12500000000E+03 0.  0.
         21    1    1    2  503  502 -0.10799562902E+02 -0.18457442651E+03 -0.55938088640E+02  0.19316681714E+03  0.00000000000E+00 0. -1.
         21    1    1    2  504  503  0.18438927115E+02 -0.33880076531E+02 -0.84395917698E+02  0.92792912137E+02  0.00000000000E+00 0.  1.
<mgrwt>
<rscale>  4 0.23227969E+03</rscale>
<asrwt>0</asrwt>
<pdfrwt beam="1">  1       21 0.20801272E-01 0.23227969E+03</pdfrwt>
<pdfrwt beam="2">  1       21 0.71876144E-01 0.23227969E+03</pdfrwt>
<totfact> 0.36742360E+04</totfact>
</mgrwt>
</event>
<event>
 5    0  0.1467858E+000  0.3220662E+03  0.7546771E-02  0.1074702E+00
         21   -1    0    0  504  501  0.00000000000E+00  0.00000000000E+00  0.38683207605E+03  0.38683207605E+03  0.00000000000E+00 0. -1.
         21   -1    0    0  501  502 -0.00000000000E+00 -0.00000000000E+00 -0.28168683826E+03  0.28168683826E+03  0.00000000000E+00 0. -1.
         25    1    1    2    0    0 -0.47397003673E+02  0.29301048899E+03  0.16121185841E+03  0.36016091668E+03  0.12500000000E+03 0.  0.
         21    1    1    2  503  502  0.23260997267E+02 -0.54299645563E+02 -0.32114663213E+02  0.67237467943E+02  0.00000000000E+00 0. -1.
         21    1    1    2  504  503  0.24136006406E+02 -0.23871084342E+03 -0.23951957410E+02  0.24112052969E+03  0.00000000000E+00 0. -1.
<mgrwt>
<rscale>  4 0.32206618E+03</rscale>
<asrwt>0</asrwt>
<pdfrwt beam="1">  1       21 0.59512627E-01 0.32206618E+03</pdfrwt>
<pdfrwt beam="2">  1       21 0.43336437E-01 0.32206618E+03</pdfrwt>
<totfact> 0.12623582E+04</totfact>
</mgrwt>
</event>
<event>
 5    0  0.1467858E+000  0.2455519E+03  0.7546771E-02  0.1116149E+00
         21   -1    0    0  504  501  0.00000000000E+00  0.00000000000E+00  0.14621326725E+03  0.14621326725E+03  0.00000000000E+00 0.  1.
         21   -1    0    0  501  502 -0.00000000000E+00 -0.00000000000E+00 -0.49763263925E+03  0.49763263925E+03  0.00000000000E+00 0.  1.
         25    1    1    2    0    0 -0.20509980151E+03  0.51037217913E+02 -0.35260261792E+03  0.42967933666E+03  0.12500000000E+03 0.  0.
         21    1    1    2  503  502  0.24493764996E+02  0.11122236305E+01  0.87407066546E+01  0.26030396038E+02  0.00000000000E+00 0.  1.
         21    1    1    2  504  503  0.18060603651E+03 -0.52149441544E+02 -0.75574607352E+01  0.18813617380E+03  0.00000000000E+00 0.  1.
<mgrwt>
<rscale>  4 0.24555188E+03</rscale>
<asrwt>0</asrwt>
<pdfrwt beam="1">  1       21 0.22494348E-01 0.24555188E+03</pdfrwt>
<pdfrwt beam="2">  1       21 0.76558869E-01 0.24555188E+03</pdfrwt>
<totfact> 0.27340009E+04</totfact>
</mgrwt>
</event>
<event>
 5    0  0.1467858E+000  0.1869636E+03  0.7546771E-02  0.1161229E+00
         21   -1    0    0  504  501  0.00000000000E+00  0.00000000000E+00  0.91724395362E+02  0.91724395362E+02  0.00000000000E+00 0. -1.
         21   -1    0    0  501  502 -0.00000000000E+00 -0.00000000000E+00 -0.80748011233E+03  0.80748011233E+03  0.00000000000E+00 0. -1.
         25    1    1    2    0    0 -0.21677985968E+03  0.43990969404E+02 -0.38104336237E+03  0.45798226708E+03  0.12500000000E+03 0.  0.
         21    1    1    2  503  502  0.10308561312E+03 -0.18006617849E+02 -0.21270445357E+02  0.10678629952E+03  0.00000000000E+00 0. -1.
         21    1    1    2  504  503  0.11369424657E+03 -0.25984351555E+02 -0.31344190924E+03  0.33443594109E+03  0.00000000000E+00 0. -1.
<mgrwt>
<rscale>  4 0.18696362E+03</rscale>
<asrwt>0</asrwt>
<pdfrwt beam="1">  1       21 0.14111446E-01 0.18696362E+03</pdfrwt>
<pdfrwt beam="2">  1       21 0.12422771E+00 0.18696362E+03</pdfrwt>
<totfact> 0.21310729E+04</totfact>
</mgrwt>
</event>
<event>
 5    0  0.1467858E+000  0.3885757E+03  0.7546771E-02  0.1047809E+00
         21   -1    0    0  504  501  0.00000000000E+00  0.00000000000E+00  0.88987162512E+03  0.88987162512E+03  0.00000000000E+00 0.  1.
         21   -1    0    0  501  502 -0.00000000000E+00 -0.00000000000E+00 -0.60319399152E+03  0.60319399152E+03  0.00000000000E+00 0. -1.
         25    1    1    2    0    0  0.90348200061E+01  0.36781030641E+03 -0.49368385732E+03  0.62826332095E+03  0.12500000000E+03 0.  0.
         21    1    1    2  503  502  0.10733899757E+00 -0.34943853357E+03  0.75666011471E+03  0.83345175593E+03  0.00000000000E+00 0.  1.
         21    1    1    2  504  503 -0.91421590036E+01 -0.18371772841E+02  0.23701376214E+02  0.31350539756E+02  0.00000000000E+00 0.  1.
<mgrwt>
<rscale>  4 0.38857567E+03</rscale>
<asrwt>0</asrwt>
<pdfrwt beam="1">  1       21 0.13690333E+00 0.38857567E+03</pdfrwt>
<pdfrwt beam="2">  1       21 0.92799075E-01 0.38857567E+03</pdfrwt>
<totfact> 0.31627526E+02</totfact>
</mgrwt>
</event>
<event>
 5    0  0.1467858E+000  0.3182843E+03  0.7546771E-02  0.1076442E+00
         21   -1    0    0  504  501  0.00000000000E+00  0.00000000000E+00  0.10230033843E+03  0.10230033843E+03  0.00000000000E+00 0. -1.
         21   -1    0    0  501  502 -0.00000000000E+00 -0.00000000000E+00 -0.10133888373E+04  0.10133888373E+04  0.00000000000E+00 0. -1.
         25    1    1    2    0    0 -0.29135525765E+03 -0.28143015893E+02 -0.63878562666E+03  0.71368900253E+03  0.12500000000E+03 0.  0.
         21    1    1    2  503  502  0.36796893136E+02  0.16465184369E+02 -0.46320418006E+02  0.61405983137E+02  0.00000000000E+00 0. -1.
         21    1    1    2  504  503  0.25455836452E+03  0.11677831524E+02 -0.22598245421E+03  0.34059419007E+03  0.00000000000E+00 0. -1.
<mgrwt>
<rscale>  4 0.31828433E+03</rscale>
<asrwt>0</asrwt>
<pdfrwt beam="1">  1       21 0.15738514E-01 0.31828433E+03</pdfrwt>
<pdfrwt beam="2">  1       21 0.15590597E+00 0.31828433E+03</pdfrwt>
<totfact> 0.89785251E+03</totfact>
</mgrwt>
</event>
<event>
 5    0  0.1467858E+000  0.3616409E+03  0.7546771E-02  0.1057936E+00
         21   -1    0    0  504  501  0.00000000000E+00  0.00000000000E+00  0.14057641613E+03  0.14057641613E+03  0.00000000000E+00 0. -1.
         21   -1    0    0  501  502 -0.00000000000E+00 -0.00000000000E+00 -0.14762333221E+04  0.14762333221E+04  0.00000000000E+00 0.  1.
         25    1    1    2    0    0  0.77385904171E+02  0.33040973639E+03 -0.11878845989E+04  0.12417141347E+04  0.12500000000E+03 0.  0.
         21    1    1    2  503  502  0.63946380007E+01 -0.82100829171E+02 -0.42614508344E+02  0.92722348261E+02  0.00000000000E+00 0. -1.
         21    1    1    2  504  503 -0.83780542172E+02 -0.24830890721E+03 -0.10515779873E+03  0.28237325525E+03  0.00000000000E+00 0. -1.
<mgrwt>
<rscale>  4 0.36164094E+03</rscale>
<asrwt>0</asrwt>
<pdfrwt beam="1">  1       21 0.21627141E-01 0.36164094E+03</pdfrwt>
<pdfrwt beam="2">  1       21 0.22711282E+00 0.36164094E+03</pdfrwt>
<totfact> 0.15845948E+03</totfact>
</mgrwt>
</event>
<event>
 5    0  0.1467858E+000  0.2350888E+03  0.7546771E-02  0.1123108E+00
         21   -1    0    0  504  501  0.00000000000E+00  0.00000000000E+00  0.40693275447E+02  0.40693275447E+02  0.00000000000E+00 0. -1.
         21   -1    0    0  501  502 -0.00000000000E+00 -0.00000000000E+00 -0.17906227828E+04  0.17906227828E+04  0.00000000000E+00 0. -1.
         25    1    1    2    0    0 -0.20478060199E+03 -0.32451522517E+02 -0.13600217814E+04  0.13814023462E+04  0.12500000000E+03 0.  0.
         21    1    1    2  503  502  0.21583911256E+02  0.28582060585E+02 -0.32927157942E+02  0.48651794854E+02  0.00000000000E+00 0. -1.
         21    1    1    2  504  503  0.18319669074E+03  0.38694619318E+01 -0.35698056800E+03  0.40126191716E+03  0.00000000000E+00 0. -1.
<mgrwt>
<rscale>  4 0.23508880E+03</rscale>
<asrwt>0</asrwt>
<pdfrwt beam="1">  1       21 0.62605037E-02 0.23508880E+03</pdfrwt>
<pdfrwt beam="2">  1       21 0.27548044E+00 0.23508880E+03</pdfrwt>
<totfact> 0.83180181E+03</totfact>
</mgrwt>
</event>
<event>
 5    0  0.1467858E+000  0.2695264E+03  0.7546771E-02  0.1101551E+00
         21   -1    0    0  504  501  0.00000000000E+00  0.00000000000E+00  0.31314037620E+03  0.31314037620E+03  0.00000000000E+00 0.  1.
         21   -1    0    0  501  502 -0.00000000000E+00 -0.00000000000E+00 -0.22770037400E+03  0.22770037400E+03  0.00000000000E+00 0.  1.
         25    1    1    2    0    0 -0.61331949556E+02 -0.23077667889E+03  0.11119386400E+02  0.26975567521E+03  0.12500000000E+03 0.  0.
         21    1    1    2  503  502  0.70012067887E+02  0.10865012765E+03  0.73412625146E+02  0.14864707672E+03  0.00000000000E+00 0.  1.
         21    1    1    2  504  503 -0.86801183311E+01  0.12212655124E+03  0.90799065236E+00  0.12243799827E+03  0.00000000000E+00 0.  1.
<mgrwt>
<rscale>  4 0.26952641E+03</rscale>
<asrwt>0</asrwt>
<pdfrwt beam="1">  1       21 0.48175442E-01 0.26952641E+03</pdfrwt>
<pdfrwt beam="2">  1       21 0.35030827E-01 0.26952641E+03</pdfrwt>
<totfact> 0.31176117E+04</totfact>
</mgrwt>
</event>
<event>
 5    0  0.1467858E+000  0.4508749E+03  0.7546771E-02  0.1028371E+00
         21   -1    0    0  504  501  0.00000000000E+00  0.00000000000E+00  0.84265049801E+03  0.84265049801E+03  0.00000000000E+00 0.  1.
         21   -1    0    0  501  502 -0.00000000000E+00 -0.00000000000E+00 -0.49556660773E+03  0.49556660773E+03  0.00000000000E+00 0. -1.
         25    1    1    2    0    0  0.20795756589E+02 -0.42012724847E+03 -0.31288024339E+03  0.53894194038E+03  0.12500000000E+03 0.  0.
         21    1    1    2  503  502 -0.90375473448E+02  0.21158506598E+03  0.31149149308E+03  0.38725045721E+03  0.00000000000E+00 0.  1.
         21    1    1    2  504  503  0.69579716859E+02  0.20854218249E+03  0.34847264060E+03  0.41202470815E+03  0.00000000000E+00 0.  1.
<mgrwt>
<rscale>  4 0.44783084E+03</rscale>
<asrwt>0</asrwt>
<pdfrwt beam="1">  1       21 0.12963854E+00 0.45087485E+03</pdfrwt>
<pdfrwt beam="2">  1       21 0.76241017E-01 0.45087485E+03</pdfrwt>
<totfact> 0.55848146E+02</totfact>
</mgrwt>
</event>
<event>
 5    0  0.1467858E+000  0.2892455E+03  0.7546771E-02  0.1090744E+00
         21   -1    0    0  504  501  0.00000000000E+00  0.00000000000E+00  0.13775466561E+04  0.13775466561E+04  0.00000000000E+00 0.  1.
         21   -1    0    0  501  502 -0.00000000000E+00 -0.00000000000E+00 -0.10435522881E+04  0.10435522881E+04  0.00000000000E+00 0. -1.
         25    1    1    2    0    0  0.25411170588E+03 -0.58865963180E+02 -0.10097088538E+04  0.10503213461E+04  0.12500000000E+03 0.  0.
         21    1    1    2  503  502 -0.13238898297E+03  0.88858851697E+01  0.82733272081E+03  0.83790526475E+03  0.00000000000E+00 0.  1.
         21    1    1    2  504  503 -0.12172272290E+03  0.49980078010E+02  0.51637050096E+03  0.53287233342E+03  0.00000000000E+00 0.  1.
<mgrwt>
<rscale>  4 0.28924550E+03</rscale>
<asrwt>0</asrwt>
<pdfrwt beam="1">  1       21 0.21193026E+00 0.28924550E+03</pdfrwt>
<pdfrwt beam="2">  1       21 0.16054651E+00 0.28924550E+03</pdfrwt>
<totfact> 0.24641057E+01</totfact>
</mgrwt>
</event>
<event>
 5    0  0.1467858E+000  0.2762570E+03  0.7546771E-02  0.1097751E+00
         21   -1    0    0  504  501  0.00000000000E+00  0.00000000000E+00  0.23426831957E+03  0.23426831957E+03  0.00000000000E+00 0. -1.
         21   -1    0    0  501  502 -0.00000000000E+00 -0.00000000000E+00 -0.61593064544E+03  0.61593064544E+03  0.00000000000E+00 0. -1.
         25    1    1    2    0    0  0.32512865262E+02  0.24420447218E+03 -0.50302633727E+03  0.57389320141E+03  0.12500000000E+03 0.  0.
         21    1    1    2  503  502 -0.17699180147E+01 -0.23428626758E+02  0.23372847532E+01  0.23611354505E+02  0.00000000000E+00 0. -1.
         21    1    1    2  504  503 -0.30742947248E+02 -0.22077584542E+03  0.11902672664E+03  0.25269440909E+03  0.00000000000E+00 0. -1.
<mgrwt>
<rscale>  4 0.27625696E+03</rscale>
<asrwt>0</asrwt>
<pdfrwt beam="1">  1       21 0.36041280E-01 0.27625696E+03</pdfrwt>
<pdfrwt beam="2">  1       21 0.94758559E-01 0.27625696E+03</pdfrwt>
<totfact> 0.65552514E+03</totfact>
</mgrwt>
</event>
<event>
 5    0  0.1467858E+000  0.3323685E+03  0.7546771E-02  0.1070094E+00
         21   -1    0    0  504  501  0.00000000000E+00  0.00000000000E+00  0.71434040005E+02  0.71434040005E+02  0.00000000000E+00 0.  1.
         21   -1    0    0  501  502 -0.00000000000E+00 -0.00000000000E+00 -0.16238809425E+04  0.16238809425E+04  0.00000000000E+00 0.  1.
         25    1    1    2    0    0 -0.16163464462E+03  0.26214132870E+03 -0.10594621351E+04  0.11103732932E+04  0.12500000000E+03 0.  0.
         21    1    1    2  503  502  0.91587350671E+02 -0.10637920081E+03 -0.26731439050E+03  0.30193005902E+03  0.00000000000E+00 0.  1.
         21    1    1    2  504  503  0.70047293951E+02 -0.15576212788E+03 -0.22567037694E+03  0.28301163033E+03  0.00000000000E+00 0.  1.
<mgrwt>
<rscale>  4 0.33236852E+03</rscale>
<asrwt>0</asrwt>
<pdfrwt beam="1">  1       21 0.10989852E-01 0.33236852E+03</pdfrwt>
<pdfrwt beam="2">  1       21 0.24982784E+00 0.33236852E+03</pdfrwt>
<totfact> 0.40918633E+03</totfact>
</mgrwt>
</event>
<event>
 5    0  0.1467858E+000  0.2663199E+03  0.7546771E-02  0.1103404E+00
         21   -1    0    0  504  501  0.00000000000E+00  0.00000000000E+00  0.30536971861E+03  0.30536971861E+03  0.00000000000E+00 0. -1.
         21   -1    0    0  501  502 -0.00000000000E+00 -0.00000000000E+00 -0.61762037771E+03  0.61762037771E+03  0.00000000000E+00 0. -1.
         25    1    1    2    0    0 -0.15566988848E+03  0.17282682245E+03 -0.50884852169E+03  0.57328356227E+03  0.12500000000E+03 0.  0.
         21    1    1    2  503  502 -0.14789567790E+02  0.18339616652E+02 -0.45999487756E+01  0.24004840827E+02  0.00000000000E+00 0. -1.
         21    1    1    2  504  503  0.17045945627E+03 -0.19116643910E+03  0.20119781137E+03  0.32570169323E+03  0.00000000000E+00 0. -1.
<mgrwt>
<rscale>  4 0.26631993E+03</rscale>
<asrwt>0</asrwt>
<pdfrwt beam="1">  1       21 0.46979957E-01 0.26631993E+03</pdfrwt>
<pdfrwt beam="2">  1       21 0.95018520E-01 0.26631993E+03</pdfrwt>
<totfact> 0.38091701E+03</totfact>
</mgrwt>
</event>
<event>
 5    0  0.1467858E+000  0.3707640E+03  0.7546771E-02  0.1054401E+00
         21   -1    0    0  504  501  0.00000000000E+00  0.00000000000E+00  0.12375339167E+04  0.12375339167E+04  0.00000000000E+00 0.  1.
         21   -1    0    0  501  502 -0.00000000000E+00 -0.00000000000E+00 -0.20457696636E+03  0.20457696636E+03  0.00000000000E+00 0.  1.
         25    1    1    2    0    0  0.26592647417E+03 -0.22610624273E+03  0.23451650739E+02  0.37150491597E+03  0.12500000000E+03 0.  0.
         21    1    1    2  503  502 -0.27291813537E+02  0.23038563843E+02  0.51606926843E+02  0.62760603951E+02  0.00000000000E+00 0.  1.
         21    1    1    2  504  503 -0.23863466064E+03  0.20306767889E+03  0.95789837277E+03  0.10078453632E+04  0.00000000000E+00 0.  1.
<mgrwt>
<rscale>  4 0.37076397E+03</rscale>
<asrwt>0</asrwt>
<pdfrwt beam="1">  1       21 0.19038983E+00 0.37076397E+03</pdfrwt>
<pdfrwt beam="2">  1       21 0.31473380E-01 0.37076397E+03</pdfrwt>
<totfact> 0.13145410E+03</totfact>
</mgrwt>
</event>
<event>
 5    0  0.1467858E+000  0.2814455E+03  0.7546771E-02  0.1094902E+00
         21   -1    0    0  504  501  0.00000000000E+00  0.00000000000E+00  0.76078002971E+02  0.76078002971E+02  0.00000000000E+00 0.  1.
         21   -1    0    0  501  502 -0.00000000000E+00 -0.00000000000E+00 -0.97050998639E+03  0.97050998639E+03  0.00000000000E+00 0.  1.
         25    1    1    2    0    0  0.24293291116E+03 -0.67602915111E+02 -0.50953709660E+03  0.58209930962E+03  0.12500000000E+03 0.  0.
         21    1    1    2  503  502 -0.21444030335E+03  0.76614489817E+02 -0.31703706785E+03  0.39034206299E+03  0.00000000000E+00 0.  1.
         21    1    1    2  504  503 -0.28492607812E+02 -0.90115747065E+01 -0.67857818976E+02  0.74146616746E+02  0.00000000000E+00 0. -1.
<mgrwt>
<rscale>  4 0.28144547E+03</rscale>
<asrwt>0</asrwt>
<pdfrwt beam="1">  1       21 0.11704309E-01 0.28144547E+03</pdfrwt>
<pdfrwt beam="2">  1       21 0.14930922E+00 0.28144547E+03</pdfrwt>
<totfact> 0.17624042E+04</totfact>
</mgrwt>
</event>
<event>
 5    0  0.1467858E+000  0.2460939E+03  0.7546771E-02  0.1115799E+00
         21   -1    0    0  504  501  0.00000000000E+00  0.00000000000E+00  0.13895447410E+04  0.13895447410E+04  0.00000000000E+00 0.  1.
         21   -1    0    0  501  502 -0.00000000000E+00 -0.00000000000E+00 -0.45198768723E+02  0.45198768723E+02  0.00000000000E+00 0.  1.
         25    1    1    2    0    0 -0.13121714003E+03 -0.16649097832E+03  0.44742252773E+03  0.51063597799E+03  0.12500000000E+03 0.  0.
         21    1    1    2  503  502  0.32411129307E+02  0.53790906705E+01  0.10966081160E+03  0.11447667675E+03  0.00000000000E+00 0.  1.
         21    1    1    2  504  503  0.98806010726E+02  0.16111188765E+03  0.78726263297E+03  0.80963085500E+03  0.00000000000E+00 0.  1.
<mgrwt>
<rscale>  4 0.24609385E+03</rscale>
<asrwt>0</asrwt>
<pdfrwt beam="1">  1       21 0.21377608E+00 0.24609385E+03</pdfrwt>
<pdfrwt beam="2">  1       21 0.69536578E-02 0.24609385E+03</pdfrwt>
<totfact> 0.16166344E+04</totfact>
</mgrwt>
</event>
<event>
 5    0  0.1467858E+000  0.3940282E+03  0.7546771E-02  0.1046034E+00
         21   -1    0    0  504  501  0.00000000000E+00  0.00000000000E+00  0.53989078204E+03  0.53989078204E+03  0.00000000000E+00 0.  1.
         21   -1    0    0  501  502 -0.00000000000E+00 -0.00000000000E+00 -0.32160963619E+03  0.32160963619E+03  0.00000000000E+00 0.  1.
         25    1    1    2    0    0 -0.13068113728E+03 -0.34796093441E+03 -0.34016457471E+02  0.39361972880E+03  0.12500000000E+03 0.  0.
         21    1    1    2  503  502  0.86885095211E+02  0.25971385268E+03  0.24768825868E+03  0.36925570887E+03  0.00000000000E+00 0.  1.
         21    1    1    2  504  503  0.43796042071E+02  0.88247081733E+02  0.46093446420E+01  0.98624980576E+02  0.00000000000E+00 0. -1.
<mgrwt>
<rscale>  4 0.39355712E+03</rscale>
<asrwt>0</asrwt>
<pdfrwt beam="1">  1       21 0.83060120E-01 0.39402825E+03</pdfrwt>
<pdfrwt beam="2">  1       21 0.49478406E-01 0.39402825E+03</pdfrwt>
<totfact> 0.44018639E+03</totfact>
</mgrwt>
</event>
<event>
 5    0  0.1467858E+000  0.2374684E+03  0.7546771E-02  0.1121491E+00
         21   -1    0    0  504  501  0.00000000000E+00  0.00000000000E+00  0.11573994177E+03  0.11573994177E+03  0.00000000000E+00 0. -1.
         21   -1    0    0  501  502 -0.00000000000E+00 -0.00000000000E+00 -0.56428509349E+03  0.56428509349E+03  0.00000000000E+00 0. -1.
         25    1    1    2    0    0  0.21908465807E+02  0.20071438444E+03 -0.39064894874E+03  0.45716282236E+03  0.12500000000E+03 0.  0.
         21    1    1    2  503  502 -0.45481322143E+02 -0.13335201179E+03 -0.55567312836E+02  0.15145638305E+03  0.00000000000E+00 0. -1.
         21    1    1    2  504  503  0.23572856336E+02 -0.67362372658E+02 -0.23288901443E+01  0.71405829840E+02  0.00000000000E+00 0. -1.
<mgrwt>
<rscale>  4 0.23746841E+03</rscale>
<asrwt>0</asrwt>
<pdfrwt beam="1">  1       21 0.17806145E-01 0.23746841E+03</pdfrwt>
<pdfrwt beam="2">  1       21 0.86813090E-01 0.23746841E+03</pdfrwt>
<totfact> 0.31946850E+04</totfact>
</mgrwt>
</event>
<event>
 5    0  0.1467858E+000  0.4291628E+03  0.7546771E-02  0.1034125E+00
         21   -1    0    0  504  501  0.00000000000E+00  0.00000000000E+00  0.35830106170E+03  0.35830106170E+03  0.00000000000E+00 0. -1.
         21   -1    0    0  501  502 -0.00000000000E+00 -0.00000000000E+00 -0.55983051253E+03  0.55983051253E+03  0.00000000000E+00 0. -1.
         25    1    1    2    0    0 -0.41046374783E+03 -0.86705077158E+01 -0.24094836661E+03  0.49217555949E+03  0.12500000000E+03 0.  0.
         21    1    1    2  503  502  0.36863805879E+03 -0.16061970217E+02  0.99390645536E+01  0.36912164699E+03  0.00000000000E+00 0. -1.
         21    1    1    2  504  503  0.41825689046E+02  0.24732477933E+02  0.29479851226E+02  0.56834367747E+02  0.00000000000E+00 0. -1.
<mgrwt>
<rscale>  4 0.42916275E+03</rscale>
<asrwt>0</asrwt>
<pdfrwt beam="1">  1       21 0.55123240E-01 0.42916275E+03</pdfrwt>
<pdfrwt beam="2">  1       21 0.86127771E-01 0.42916275E+03</pdfrwt>
<totfact> 0.31684476E+03</totfact>
</mgrwt>
</event>
<event>
 5    0  0.1467858E+000  0.2935174E+03  0.7546771E-02  0.1088527E+00
         21   -1    0    0  504  501  0.00000000000E+00  0.00000000000E+00  0.18614424959E+03  0.18614424959E+03  0.00000000000E+00 0. -1.
         21   -1    0    0  501  502 -0.00000000000E+00 -0.00000000000E+00 -0.72065397172E+03  0.72065397172E+03  0.00000000000E+00 0.  1.
         25    1    1    2    0    0  0.25846411218E+03  0.61022669034E+02 -0.56367152240E+03  0.63551400346E+03  0.12500000000E+03 0.  0.
         21    1    1    2  503  502 -0.60981934442E+02  0.11010883979E+01  0.19509690264E+02  0.64036214270E+02  0.00000000000E+00 0. -1.
         21    1    1    2  504  503 -0.19748217774E+03 -0.62123757432E+02  0.96521100048E+01  0.20724800358E+03  0.00000000000E+00 0. -1.
<mgrwt>
<rscale>  4 0.29351740E+03</rscale>
<asrwt>0</asrwt>
<pdfrwt beam="1">  1       21 0.28637576E-01 0.29351740E+03</pdfrwt>
<pdfrwt beam="2">  1       21 0.11086984E+00 0.29351740E+03</pdfrwt>
<totfact> 0.70172852E+03</totfact>
</mgrwt>
</event>
<event>
 5    0  0.1467858E+000  0.5090636E+03  0.7546771E-02  0.1011440E+00
         21   -1    0    0  504  501  0.00000000000E+00  0.00000000000E+00  0.29440720377E+03  0.29440720377E+03  0.00000000000E+00 0.  1.
         21   -1    0    0  501  502 -0.00000000000E+00 -0.00000000000E+00 -0.92672750293E+03  0.92672750293E+03  0.00000000000E+00 0.  1.
         25    1    1    2    0    0  0.47330614390E+03 -0.13964955130E+03 -0.17436865784E+03  0.53809862653E+03  0.12500000000E+03 0.  0.
         21    1    1    2  503  502 -0.41913459411E+03  0.15803369227E+03 -0.42237534797E+03  0.61566987132E+03  0.00000000000E+00 0.  1.
         21    1    1    2  504  503 -0.54171549795E+02 -0.18384140969E+02 -0.35576293349E+02  0.67366208850E+02  0.00000000000E+00 0.  1.
<mgrwt>
<rscale>  4 0.50906356E+03</rscale>
<asrwt>0</asrwt>
<pdfrwt beam="1">  1       21 0.45293415E-01 0.50906356E+03</pdfrwt>
<pdfrwt beam="2">  1       21 0.14257346E+00 0.50906356E+03</pdfrwt>
<totfact> 0.13275482E+03</totfact>
</mgrwt>
</event>
<event>
 5    0  0.1467858E+000  0.2555954E+03  0.7546771E-02  0.1109819E+00
         21   -1    0    0  504  501  0.00000000000E+00  0.00000000000E+00  0.12866182354E+04  0.12866182354E+04  0.00000000000E+00 0. -1.
         21   -1    0    0  501  502 -0.00000000000E+00 -0.00000000000E+00 -0.65840366659E+02  0.65840366659E+02  0.00000000000E+00 0. -1.
         25    1    1    2    0    0 -0.15255361551E+03  0.16257743975E+03  0.27334542303E+03  0.37422820553E+03  0.12500000000E+03 0.  0.
         21    1    1    2  503  502  0.60862116634E+02 -0.20215936682E+02  0.15203478154E+03  0.16500744267E+03  0.00000000000E+00 0. -1.
         21    1    1    2  504  503  0.91691498874E+02 -0.14236150307E+03  0.79539766413E+03  0.81322295383E+03  0.00000000000E+00 0. -1.
<mgrwt>
<rscale>  4 0.25559544E+03</rscale>
<asrwt>0</asrwt>
<pdfrwt beam="1">  1       21 0.19794125E+00 0.25559544E+03</pdfrwt>
<pdfrwt beam="2">  1       21 0.10129288E-01 0.25559544E+03</pdfrwt>
<totfact> 0.10481619E+04</totfact>
</mgrwt>
</event>
<event>
 5    0  0.1467858E+000  0.2786385E+03  0.7546771E-02  0.1096435E+00
         21   -1    0    0  504  501  0.00000000000E+00  0.00000000000E+00  0.53370130909E+02  0.53370130909E+02  0.00000000000E+00 0.  1.
         21   -1    0    0  501  502 -0.00000000000E+00 -0.00000000000E+00 -0.13722569586E+04  0.13722569586E+04  0.00000000000E+00 0.  1.
         25    1    1    2    0    0 -0.23321453653E+03 -0.87323612846E+02 -0.56031027963E+03  0.62576916101E+03  0.12500000000E+03 0.  0.
         21    1    1    2  503  502  0.19480943110E+02 -0.60309652606E+01 -0.63561838616E+02  0.66753179809E+02  0.00000000000E+00 0.  1.
         21    1    1    2  504  503  0.21373359342E+03  0.93354578107E+02 -0.69501470949E+03  0.73310474873E+03  0.00000000000E+00 0.  1.
<mgrwt>
<rscale>  4 0.27863854E+03</rscale>
<asrwt>0</asrwt>
<pdfrwt beam="1">  1       21 0.82107897E-02 0.27863854E+03</pdfrwt>
<pdfrwt beam="2">  1       21 0.21111645E+00 0.27863854E+03</pdfrwt>
<totfact> 0.12318155E+04</totfact>
</mgrwt>
</event>
<event>
 5    0  0.1467858E+000  0.3006774E+03  0.7546771E-02  0.1084902E+00
         21   -1    0    0  504  501  0.00000000000E+00  0.00000000000E+00  0.57843024402E+02  0.57843024402E+02  0.00000000000E+00 0.  1.
         21   -1    0    0  501  502 -0.00000000000E+00 -0.00000000000E+00 -0.16114299157E+04  0.16114299157E+04  0.00000000000E+00 0.  1.
         25    1    1    2    0    0 -0.87158540005E+02  0.25920128938E+03 -0.10661744142E+04  0.11077611661E+04  0.12500000000E+03 0.  0.
         21    1    1    2  503  502  0.67557763349E+02 -0.22907328940E+03 -0.45108646535E+03  0.51040926963E+03  0.00000000000E+00 0.  1.
         21    1    1    2  504  503  0.19600776656E+02 -0.30127999974E+02 -0.36326011726E+02  0.51102504399E+02  0.00000000000E+00 0.  1.
<mgrwt>
<rscale>  4 0.30067743E+03</rscale>
<asrwt>0</asrwt>
<pdfrwt beam="1">  1       21 0.88989289E-02 0.30067743E+03</pdfrwt>
<pdfrwt beam="2">  1       21 0.24791224E+00 0.30067743E+03</pdfrwt>
<totfact> 0.62478916E+03</totfact>
</mgrwt>
</event>
<event>
 5    0  0.1467858E+000  0.2397229E+03  0.7546771E-02  0.1119978E+00
         21   -1    0    0  504  501  0.00000000000E+00  0.00000000000E+00  0.25121017228E+03  0.25121017228E+03  0.00000000000E+00 0. -1.
         21   -1    0    0  501  502 -0.00000000000E+00 -0.00000000000E+00 -0.94564601552E+03  0.94564601552E+03  0.00000000000E+00 0. -1.
         25    1    1    2    0    0 -0.19802279158E+03  0.55793364289E+02 -0.86510409794E+03  0.89797328789E+03  0.12500000000E+03 0.  0.
         21    1    1    2  503  502  0.17409621105E+03 -0.76612458317E+02  0.18384962221E+03  0.26453665730E+03  0.00000000000E+00 0. -1.
         21    1    1    2  504  503  0.23926580530E+02  0.20819094028E+02 -0.13181367512E+02  0.34346242611E+02  0.00000000000E+00 0.  1.
<mgrwt>
<rscale>  4 0.23972293E+03</rscale>
<asrwt>0</asrwt>
<pdfrwt beam="1">  1       21 0.38647718E-01 0.23972293E+03</pdfrwt>
<pdfrwt beam="2">  1       21 0.14548400E+00 0.23972293E+03</pdfrwt>
<totfact> 0.20065513E+03</totfact>
</mgrwt>
</event>
<event>
 5    0  0.1467858E+000  0.2304448E+03  0.7546771E-02  0.1126327E+00
         21   -1    0    0  504  501  0.00000000000E+00  0.00000000000E+00  0.87800708367E+03  0.87800708367E+03  0.00000000000E+00 0.  1.
         21   -1    0    0  501  502 -0.00000000000E+00 -0.00000000000E+00 -0.11969691629E+03  0.11969691629E+03  0.00000000000E+00 0.  1.
         25    1    1    2    0    0 -0.19481522992E+03  0.68365245883E+02  0.67598666463E+02  0.25064189666E+03  0.12500000000E+03 0.  0.
         21    1    1    2  503  502  0.34912288909E+02 -0.90288512955E+02  0.12115449944E+03  0.15507835511E+03  0.00000000000E+00 0.  1.
         21    1    1    2  504  503  0.15990294102E+03  0.21923267071E+02  0.56955700147E+03  0.59198374818E+03  0.00000000000E+00 0.  1.
<mgrwt>
<rscale>  4 0.23044482E+03</rscale>
<asrwt>0</asrwt>
<pdfrwt beam="1">  1       21 0.13507801E+00 0.23044482E+03</pdfrwt>
<pdfrwt beam="2">  1       21 0.18414911E-01 0.23044482E+03</pdfrwt>
<totfact> 0.10284497E+04</totfact>
</mgrwt>
</event>
<event>
 5    0  0.1467858E+000  0.2520891E+03  0.7546771E-02  0.1111992E+00
         21   -1    0    0  504  501  0.00000000000E+00  0.00000000000E+00  0.88271018777E+02  0.88271018777E+02  0.00000000000E+00 0.  1.
         21   -1    0    0  501  502 -0.00000000000E+00 -0.00000000000E+00 -0.64837788960E+03  0.64837788960E+03  0.00000000000E+00 0.  1.
         25    1    1    2    0    0 -0.14995911583E+03 -0.15948723239E+03 -0.24513857972E+03  0.35162741216E+03  0.12500000000E+03 0.  0.
         21    1    1    2  503  502  0.21643427006E+02  0.10177081919E+02 -0.44075374829E+02  0.50146281968E+02  0.00000000000E+00 0. -1.
         21    1    1    2  504  503  0.12831568882E+03  0.14931015047E+03 -0.27089291627E+03  0.33487521425E+03  0.00000000000E+00 0.  1.
<mgrwt>
<rscale>  4 0.25208910E+03</rscale>
<asrwt>0</asrwt>
<pdfrwt beam="1">  1       21 0.13580156E-01 0.25208910E+03</pdfrwt>
<pdfrwt beam="2">  1       21 0.99750446E-01 0.25208910E+03</pdfrwt>
<totfact> 0.37675053E+04</totfact>
</mgrwt>
</event>
<event>
 5    0  0.1467858E+000  0.2532149E+03  0.7546771E-02  0.1111290E+00
         21   -1    0    0  504  501  0.00000000000E+00  0.00000000000E+00  0.45960940088E+03  0.45960940088E+03  0.00000000000E+00 0. -1.
         21   -1    0    0  501  502 -0.00000000000E+00 -0.00000000000E+00 -0.12599974847E+03  0.12599974847E+03  0.00000000000E+00 0. -1.
         25    1    1    2    0    0  0.20814844131E+03  0.71881979105E+02  0.17585639761E+03  0.30829087745E+03  0.12500000000E+03 0.  0.
         21    1    1    2  503  502 -0.97056468993E+02 -0.64664675326E+02  0.76102405347E+02  0.13925894768E+03  0.00000000000E+00 0. -1.
         21    1    1    2  504  503 -0.11109197232E+03 -0.72173037791E+01  0.81650849455E+02  0.13805932422E+03  0.00000000000E+00 0. -1.
<mgrwt>
<rscale>  4 0.25321491E+03</rscale>
<asrwt>0</asrwt>
<pdfrwt beam="1">  1       21 0.70709138E-01 0.25321491E+03</pdfrwt>
<pdfrwt beam="2">  1       21 0.19384577E-01 0.25321491E+03</pdfrwt>
<totfact> 0.43113164E+04</totfact>
</mgrwt>
</event>
<event>
 5    0  0.1467858E+000  0.2748703E+03  0.7546771E-02  0.1098524E+00
         21   -1    0    0  504  501  0.00000000000E+00  0.00000000000E+00  0.68784591403E+03  0.68784591403E+03  0.00000000000E+00 0. -1.
         21   -1    0    0  501  502 -0.00000000000E+00 -0.00000000000E+00 -0.20814988130E+03  0.20814988130E+03  0.00000000000E+00 0.  1.
         25    1    1    2    0    0 -0.48232108642E+02 -0.23384080954E+03 -0.66956763616E+02  0.27769780104E+03  0.12500000000E+03 0.  0.
         21    1    1    2  503  502  0.23343639957E+02  0.24482651436E+03  0.53476818409E+03  0.58861019221E+03  0.00000000000E+00 0. -1.
         21    1    1    2  504  503  0.24888468685E+02 -0.10985704820E+02  0.11884612248E+02  0.29687802077E+02  0.00000000000E+00 0.  1.
<mgrwt>
<rscale>  4 0.27487026E+03</rscale>
<asrwt>0</asrwt>
<pdfrwt beam="1">  1       21 0.10582245E+00 0.27487026E+03</pdfrwt>
<pdfrwt beam="2">  1       21 0.32023059E-01 0.27487026E+03</pdfrwt>
<totfact> 0.63723107E+03</totfact>
</mgrwt>
</event>
<event>
 5    0  0.1467858E+000  0.2518935E+03  0.7546771E-02  0.1112114E+00
         21   -1    0    0  504  501  0.00000000000E+00  0.00000000000E+00  0.53147479302E+03  0.53147479302E+03  0.00000000000E+00 0. -1.
         21   -1    0    0  501  502 -0.00000000000E+00 -0.00000000000E+00 -0.71834370168E+03  0.71834370168E+03  0.00000000000E+00 0. -1.
         25    1    1    2    0    0  0.35458224267E+02 -0.21579628084E+03 -0.67077487018E+03  0.71651186100E+03  0.12500000000E+03 0.  0.
         21    1    1    2  503  502 -0.27550377352E+02  0.61900926710E+02  0.18498651256E+03  0.19700446150E+03  0.00000000000E+00 0. -1.
         21    1    1    2  504  503 -0.79078469150E+01  0.15389535413E+03  0.29891944895E+03  0.33630217220E+03  0.00000000000E+00 0. -1.
<mgrwt>
<rscale>  4 0.25189347E+03</rscale>
<asrwt>0</asrwt>
<pdfrwt beam="1">  1       21 0.81765353E-01 0.25189347E+03</pdfrwt>
<pdfrwt beam="2">  1       21 0.11051442E+00 0.25189347E+03</pdfrwt>
<totfact> 0.80023561E+02</totfact>
</mgrwt>
</event>
<event>
 5    0  0.1467858E+000  0.2564803E+03  0.7546771E-02  0.1109277E+00
         21   -1    0    0  504  501  0.00000000000E+00  0.00000000000E+00  0.25780045157E+03  0.25780045157E+03  0.00000000000E+00 0. -1.
         21   -1    0    0  501  502 -0.00000000000E+00 -0.00000000000E+00 -0.28096100895E+03  0.28096100895E+03  0.00000000000E+00 0. -1.
         25    1    1    2    0    0  0.19002036378E+03 -0.11853013000E+03 -0.12709774881E+03  0.28624459492E+03  0.12500000000E+03 0.  0.
         21    1    1    2  503  502 -0.70321788596E+02  0.21207197457E+02  0.16833180403E+02  0.75354197877E+02  0.00000000000E+00 0. -1.
         21    1    1    2  504  503 -0.11969857518E+03  0.97322932546E+02  0.87104011027E+02  0.17716266773E+03  0.00000000000E+00 0. -1.
<mgrwt>
<rscale>  4 0.25648027E+03</rscale>
<asrwt>0</asrwt>
<pdfrwt beam="1">  1       21 0.39661608E-01 0.25648027E+03</pdfrwt>
<pdfrwt beam="2">  1       21 0.43224770E-01 0.25648027E+03</pdfrwt>
<totfact> 0.30559504E+04</totfact>
</mgrwt>
</event>
<event>
 5    0  0.1467858E+000  0.2289536E+03  0.7546771E-02  0.1127378E+00
         21   -1    0    0  504  501  0.00000000000E+00  0.00000000000E+00  0.49577791243E+03  0.49577791243E+03  0.00000000000E+00 0.  1.
         21   -1    0    0  501  502 -0.00000000000E+00 -0.00000000000E+00 -0.16755452796E+03  0.16755452796E+03  0.00000000000E+00 0.  1.
         25    1    1    2    0    0 -0.13323884781E+03 -0.16914500853E+03  0.24130581930E+03  0.34672196773E+03  0.12500000000E+03 0.  0.
         21    1    1    2  503  502  0.40955330066E+02  0.75553254761E+01  0.12052321463E+03  0.12751575302E+03  0.00000000000E+00 0.  1.
         21    1    1    2  504  503  0.92283517749E+02  0.16158968306E+03 -0.33605649459E+02  0.18909471964E+03  0.00000000000E+00 0.  1.
<mgrwt>
<rscale>  4 0.22895358E+03</rscale>
<asrwt>0</asrwt>
<pdfrwt beam="1">  1       21 0.76273524E-01 0.22895358E+03</pdfrwt>
<pdfrwt beam="2">  1       21 0.25777620E-01 0.22895358E+03</pdfrwt>
<totfact> 0.21424897E+04</totfact>
</mgrwt>
</event>
<event>
 5    0  0.1467858E+000  0.2740695E+03  0.7546771E-02  0.1098973E+00
         21   -1    0    0  504  501  0.00000000000E+00  0.00000000000E+00  0.44455910741E+02  0.44455910741E+02  0.00000000000E+00 0. -1.
         21   -1    0    0  501  502 -0.00000000000E+00 -0.00000000000E+00 -0.15824111971E+04  0.15824111971E+04  0.00000000000E+00 0. -1.
         25    1    1    2    0    0 -0.81960887129E+01 -0.24376606228E+03 -0.69448455443E+03  0.74660757118E+03  0.12500000000E+03 0.  0.
         21    1    1    2  503  502  0.35536728400E+01  0.21510117819E+03 -0.65137624690E+03  0.68598262404E+03  0.00000000000E+00 0. -1.
         21    1    1    2  504  503  0.46424158729E+01  0.28664884087E+02 -0.19209448499E+03  0.19427691260E+03  0.00000000000E+00 0. -1.
<mgrwt>
<rscale>  4 0.27406946E+03</rscale>
<asrwt>0</asrwt>
<pdfrwt beam="1">  1       21 0.68393706E-02 0.27406946E+03</pdfrwt>
<pdfrwt beam="2">  1       21 0.24344789E+00 0.27406946E+03</pdfrwt>
<totfact> 0.10730824E+04</totfact>
</mgrwt>
</event>
<event>
 5    0  0.1467858E+000  0.2543701E+03  0.7546771E-02  0.1110574E+00
         21   -1    0    0  504  501  0.00000000000E+00  0.00000000000E+00  0.51161999972E+03  0.51161999972E+03  0.00000000000E+00 0. -1.
         21   -1    0    0  501  502 -0.00000000000E+00 -0.00000000000E+00 -0.14067840632E+03  0.14067840632E+03  0.00000000000E+00 0. -1.
         25    1    1    2    0    0  0.10412653913E+03  0.19554240988E+03  0.51272282220E+02  0.25948606347E+03  0.12500000000E+03 0.  0.
         21    1    1    2  503  502 -0.10959115950E+03 -0.17089534208E+03  0.28597831565E+03  0.35071218571E+03  0.00000000000E+00 0. -1.
         21    1    1    2  504  503  0.54646203693E+01 -0.24647067799E+02  0.33690995537E+02  0.42100156854E+02  0.00000000000E+00 0.  1.
<mgrwt>
<rscale>  4 0.25437014E+03</rscale>
<asrwt>0</asrwt>
<pdfrwt beam="1">  1       21 0.78710768E-01 0.25437014E+03</pdfrwt>
<pdfrwt beam="2">  1       21 0.21642832E-01 0.25437014E+03</pdfrwt>
<totfact> 0.27516983E+04</totfact>
</mgrwt>
</event>
<event>
 5    0  0.1467858E+000  0.2355650E+03  0.7546771E-02  0.1122783E+00
         21   -1    0    0  504  501  0.00000000000E+00  0.00000000000E+00  0.47865364474E+03  0.47865364474E+03  0.00000000000E+00 0. -1.
         21   -1    0    0  501  502 -0.00000000000E+00 -0.00000000000E+00 -0.51859913927E+03  0.51859913927E+03  0.00000000000E+00 0. -1.
         25    1    1    2    0    0 -0.43733329879E+02 -0.20019794311E+03 -0.45632252819E+03  0.51560359803E+03  0.12500000000E+03 0.  0.
         21    1    1    2  503  502  0.15129842654E+02  0.13141309097E+03  0.37227481513E+03  0.39507828414E+03  0.00000000000E+00 0. -1.
         21    1    1    2  504  503  0.28603487226E+02  0.68784852139E+02  0.44102218528E+02  0.86570901834E+02  0.00000000000E+00 0. -1.
<mgrwt>
<rscale>  4 0.23556498E+03</rscale>
<asrwt>0</asrwt>
<pdfrwt beam="1">  1       21 0.73639022E-01 0.23556498E+03</pdfrwt>
<pdfrwt beam="2">  1       21 0.79784483E-01 0.23556498E+03</pdfrwt>
<totfact> 0.22118232E+03</totfact>
</mgrwt>
</event>
<event>
 5    0  0.1467858E+000  0.2684640E+03  0.7546771E-02  0.1102162E+00
         21   -1    0    0  504  501  0.00000000000E+00  0.00000000000E+00  0.43930927140E+03  0.43930927140E+03  0.00000000000E+00 0. -1.
         21   -1    0    0  501  502 -0.00000000000E+00 -0.00000000000E+00 -0.82264886169E+03  0.82264886169E+03  0.00000000000E+00 0. -1.
         25    1    1    2    0    0 -0.19953691763E+02  0.23803453138E+03 -0.73813370244E+03  0.78582755781E+03  0.12500000000E+03 0.  0.
         21    1    1    2  503  502 -0.46826377391E+02 -0.22185010717E+03  0.33518934612E+03  0.40467527404E+03  0.00000000000E+00 0. -1.
         21    1    1    2  504  503  0.66780069155E+02 -0.16184424208E+02  0.19604766034E+02  0.71455301235E+02  0.00000000000E+00 0.  1.
<mgrwt>
<rscale>  4 0.26846398E+03</rscale>
<asrwt>0</asrwt>
<pdfrwt beam="1">  1       21 0.67586042E-01 0.26846398E+03</pdfrwt>
<pdfrwt beam="2">  1       21 0.12656136E+00 0.26846398E+03</pdfrwt>
<totfact> 0.86501156E+02</totfact>
</mgrwt>
</event>
<event>
 5    0  0.1467858E+000  0.2404782E+03  0.7546771E-02  0.1119475E+00
         21   -1    0    0  504  501  0.00000000000E+00  0.00000000000E+00  0.72462339751E+03  0.72462339751E+03  0.00000000000E+00 0.  1.
         21   -1    0    0  501  502 -0.00000000000E+00 -0.00000000000E+00 -0.73863207646E+02  0.73863207646E+02  0.00000000000E+00 0.  1.
         25    1    1    2    0    0  0.13821968171E+03 -0.15198717399E+03  0.42333948504E+03  0.48687380404E+03  0.12500000000E+03 0.  0.
         21    1    1    2  503  502 -0.13216885220E+03  0.11564794755E+03  0.19623116274E+03  0.26334335476E+03  0.00000000000E+00 0.  1.
         21    1    1    2  504  503 -0.60508295148E+01  0.36339226444E+02  0.31189542084E+02  0.48269446358E+02  0.00000000000E+00 0. -1.
<mgrwt>
<rscale>  4 0.24047823E+03</rscale>
<asrwt>0</asrwt>
<pdfrwt beam="1">  1       21 0.11148052E+00 0.24047823E+03</pdfrwt>
<pdfrwt beam="2">  1       21 0.11363571E-01 0.24047823E+03</pdfrwt>
<totfact> 0.39908916E+04</totfact>
</mgrwt>
</event>
<event>
 5    0  0.1467858E+000  0.2992130E+03  0.7546771E-02  0.1085635E+00
         21   -1    0    0  504  501  0.00000000000E+00  0.00000000000E+00  0.91587822725E+03  0.91587822725E+03  0.00000000000E+00 0. -1.
         21   -1    0    0  501  502 -0.00000000000E+00 -0.00000000000E+00 -0.32418596895E+03  0.32418596895E+03  0.00000000000E+00 0. -1.
         25    1    1    2    0    0  0.14831321860E+03  0.22783017437E+03 -0.22581168776E+03  0.37485906350E+03  0.12500000000E+03 0.  0.
         21    1    1    2  503  502 -0.94214752469E+02 -0.14147609496E+03  0.38488770110E+03  0.42074986332E+03  0.00000000000E+00 0. -1.
         21    1    1    2  504  503 -0.54098466128E+02 -0.86354079407E+02  0.43261624496E+03  0.44445526937E+03  0.00000000000E+00 0. -1.
<mgrwt>
<rscale>  4 0.29921297E+03</rscale>
<asrwt>0</asrwt>
<pdfrwt beam="1">  1       21 0.14090434E+00 0.29921297E+03</pdfrwt>
<pdfrwt beam="2">  1       21 0.49874765E-01 0.29921297E+03</pdfrwt>
<totfact> 0.12363630E+03</totfact>
</mgrwt>
</event>
<event>
 5    0  0.1467858E+000  0.2574436E+03  0.7546771E-02  0.1108689E+00
         21   -1    0    0  504  501  0.00000000000E+00  0.00000000000E+00  0.11362600334E+04  0.11362600334E+04  0.00000000000E+00 0. -1.
         21   -1    0    0  501  502 -0.00000000000E+00 -0.00000000000E+00 -0.64943497853E+02  0.64943497853E+02  0.00000000000E+00 0. -1.
         25    1    1    2    0    0 -0.22495211116E+02  0.22393345576E+03  0.30985820724E+03  0.40285150580E+03  0.12500000000E+03 0.  0.
         21    1    1    2  503  502 -0.23268702278E+02 -0.15755312520E+03  0.50661080940E+03  0.53105454707E+03  0.00000000000E+00 0. -1.
         21    1    1    2  504  503  0.45763913394E+02 -0.66380330560E+02  0.25484751886E+03  0.26729747833E+03  0.00000000000E+00 0. -1.
<mgrwt>
<rscale>  4 0.25744364E+03</rscale>
<asrwt>0</asrwt>
<pdfrwt beam="1">  1       21 0.17480922E+00 0.25744364E+03</pdfrwt>
<pdfrwt beam="2">  1       21 0.99913082E-02 0.25744364E+03</pdfrwt>
<totfact> 0.15379319E+04</totfact>
</mgrwt>
</event>
<event>
 5    0  0.1467858E+000  0.6024100E+03  0.7546771E-02  0.9900419E-01
         21   -1    0    0  504  501  0.00000000000E+00  0.00000000000E+00  0.57031833975E+03  0.57031833975E+03  0.00000000000E+00 0. -1.
         21   -1    0    0  501  502 -0.00000000000E+00 -0.00000000000E+00 -0.11506653488E+04  0.11506653488E+04  0.00000000000E+00 0. -1.
         25    1    1    2    0    0  0.21045414635E+03 -0.55043787253E+03 -0.86567919713E+03  0.10546555227E+04  0.12500000000E+03 0.  0.
         21    1    1    2  503  502 -0.19021940411E+03  0.47016217530E+03  0.19390031641E+03  0.54298547447E+03  0.00000000000E+00 0. -1.
         21    1    1    2  504  503 -0.20234742247E+02  0.80275697236E+02  0.91431871666E+02  0.12334269138E+03  0.00000000000E+00 0.  1.
<mgrwt>
<rscale>  4 0.60240999E+03</rscale>
<asrwt>0</asrwt>
<pdfrwt beam="1">  1       21 0.87741284E-01 0.60240999E+03</pdfrwt>
<pdfrwt beam="2">  1       21 0.17702544E+00 0.60240999E+03</pdfrwt>
<totfact> 0.16052464E+02</totfact>
</mgrwt>
</event>
<event>
 5    0  0.1467858E+000  0.4468603E+03  0.7546771E-02  0.1028662E+00
         21   -1    0    0  504  501  0.00000000000E+00  0.00000000000E+00  0.25305169560E+03  0.25305169560E+03  0.00000000000E+00 0.  1.
         21   -1    0    0  501  502 -0.00000000000E+00 -0.00000000000E+00 -0.10633510262E+04  0.10633510262E+04  0.00000000000E+00 0.  1.
         25    1    1    2    0    0 -0.18419387261E+03 -0.39427221496E+03 -0.60156816240E+03  0.75291912993E+03  0.12500000000E+03 0.  0.
         21    1    1    2  503  502 -0.76226781297E+02  0.59768844741E+02 -0.61409160028E+02  0.11469054854E+03  0.00000000000E+00 0. -1.
         21    1    1    2  504  503  0.26042065390E+03  0.33450337022E+03 -0.14732200822E+03  0.44879304337E+03  0.00000000000E+00 0.  1.
<mgrwt>
<rscale>  4 0.44686029E+03</rscale>
<asrwt>0</asrwt>
<pdfrwt beam="1">  1       21 0.38931030E-01 0.44686029E+03</pdfrwt>
<pdfrwt beam="2">  1       21 0.16359247E+00 0.44686029E+03</pdfrwt>
<totfact> 0.12777192E+03</totfact>
</mgrwt>
</event>
<event>
 5    0  0.1467858E+000  0.2632926E+03  0.7546771E-02  0.1105181E+00
         21   -1    0    0  504  501  0.00000000000E+00  0.00000000000E+00  0.52722678631E+03  0.52722678631E+03  0.00000000000E+00 0. -1.
         21   -1    0    0  501  502 -0.00000000000E+00 -0.00000000000E+00 -0.19016155110E+03  0.19016155110E+03  0.00000000000E+00 0. -1.
         25    1    1    2    0    0  0.20370442394E+03 -0.12759144516E+03 -0.24151274913E+02  0.27199881119E+03  0.12500000000E+03 0.  0.
         21    1    1    2  503  502 -0.43750296338E+02 -0.12031928821E+02  0.91475990534E+02  0.10211127550E+03  0.00000000000E+00 0. -1.
         21    1    1    2  504  503 -0.15995412760E+03  0.13962337398E+03  0.26974051959E+03  0.34327825071E+03  0.00000000000E+00 0. -1.
<mgrwt>
<rscale>  4 0.26329262E+03</rscale>
<asrwt>0</asrwt>
<pdfrwt beam="1">  1       21 0.81111812E-01 0.26329262E+03</pdfrwt>
<pdfrwt beam="2">  1       21 0.29255624E-01 0.26329262E+03</pdfrwt>
<totfact> 0.14325942E+04</totfact>
</mgrwt>
</event>
<event>
 5    0  0.1467858E+000  0.2451792E+03  0.7546771E-02  0.1116390E+00
         21   -1    0    0  504  501  0.00000000000E+00  0.00000000000E+00  0.18213415236E+04  0.18213415236E+04  0.00000000000E+00 0.  1.
         21   -1    0    0  501  502 -0.00000000000E+00 -0.00000000000E+00 -0.12006586248E+03  0.12006586248E+03  0.00000000000E+00 0. -1.
         25    1    1    2    0    0  0.21474122138E+03  0.45365197471E+02  0.45698632311E+02  0.25668104390E+03  0.12500000000E+03 0.  0.
         21    1    1    2  503  502 -0.32901081717E+02 -0.65511666051E+02  0.10388866553E+04  0.10414699910E+04  0.00000000000E+00 0.  1.
         21    1    1    2  504  503 -0.18184013966E+03  0.20146468580E+02  0.61669037354E+03  0.64325635124E+03  0.00000000000E+00 0.  1.
<mgrwt>
<rscale>  4 0.24517919E+03</rscale>
<asrwt>0</asrwt>
<pdfrwt beam="1">  1       21 0.28020637E+00 0.24517919E+03</pdfrwt>
<pdfrwt beam="2">  1       21 0.18471673E-01 0.24517919E+03</pdfrwt>
<totfact> 0.11180455E+03</totfact>
</mgrwt>
</event>
<event>
 5    0  0.1467858E+000  0.3100368E+03  0.7546771E-02  0.1080328E+00
         21   -1    0    0  504  501  0.00000000000E+00  0.00000000000E+00  0.12525164636E+04  0.12525164636E+04  0.00000000000E+00 0.  1.
         21   -1    0    0  501  502 -0.00000000000E+00 -0.00000000000E+00 -0.19095655676E+03  0.19095655676E+03  0.00000000000E+00 0. -1.
         25    1    1    2    0    0  0.45618411147E+02  0.28002992860E+03 -0.31383389016E+02  0.31162111201E+03  0.12500000000E+03 0.  0.
         21    1    1    2  503  502 -0.37458831252E+02 -0.95748773301E+02  0.51579436882E+03  0.52594184330E+03  0.00000000000E+00 0.  1.
         21    1    1    2  504  503 -0.81595798948E+01 -0.18428115530E+03  0.57714892707E+03  0.60591006508E+03  0.00000000000E+00 0.  1.
<mgrwt>
<rscale>  4 0.31003677E+03</rscale>
<asrwt>0</asrwt>
<pdfrwt beam="1">  1       21 0.19269484E+00 0.31003677E+03</pdfrwt>
<pdfrwt beam="2">  1       21 0.29377933E-01 0.31003677E+03</pdfrwt>
<totfact> 0.15071584E+03</totfact>
</mgrwt>
</event>
<event>
 5    0  0.1467858E+000  0.3834275E+03  0.7546771E-02  0.1049674E+00
         21   -1    0    0  504  501  0.00000000000E+00  0.00000000000E+00  0.24251441329E+04  0.24251441329E+04  0.00000000000E+00 0. -1.
         21   -1    0    0  501  502 -0.00000000000E+00 -0.00000000000E+00 -0.22265315897E+03  0.22265315897E+03  0.00000000000E+00 0. -1.
         25    1    1    2    0    0 -0.14716149063E+03 -0.35299392116E+03  0.17888432730E+01  0.40235483428E+03  0.12500000000E+03 0.  0.
         21    1    1    2  503  502  0.44985396699E+02  0.19391725892E+03  0.16747783031E+04  0.16865675064E+04  0.00000000000E+00 0. -1.
         21    1    1    2  504  503  0.10217609393E+03  0.15907666224E+03  0.52592382765E+03  0.55887495125E+03  0.00000000000E+00 0. -1.
<mgrwt>
<rscale>  4 0.38342754E+03</rscale>
<asrwt>0</asrwt>
<pdfrwt beam="1">  1       21 0.37309908E+00 0.38342754E+03</pdfrwt>
<pdfrwt beam="2">  1       21 0.34254334E-01 0.38342754E+03</pdfrwt>
<totfact> 0.82952370E+01</totfact>
</mgrwt>
</event>
<event>
 5    0  0.1467858E+000  0.2470746E+03  0.7546771E-02  0.1115168E+00
         21   -1    0    0  504  501  0.00000000000E+00  0.00000000000E+00  0.71925326100E+02  0.71925326100E+02  0.00000000000E+00 0.  1.
         21   -1    0    0  501  502 -0.00000000000E+00 -0.00000000000E+00 -0.77538250696E+03  0.77538250696E+03  0.00000000000E+00 0.  1.
         25    1    1    2    0    0 -0.18440073478E+03 -0.10685133399E+03 -0.42365768299E+03  0.49044028273E+03  0.12500000000E+03 0.  0.
         21    1    1    2  503  502  0.15898995912E+03  0.77790291585E+02 -0.25693340284E+03  0.31199985586E+03  0.00000000000E+00 0.  1.
         21    1    1    2  504  503  0.25410775658E+02  0.29061042406E+02 -0.22866095032E+02  0.44867694473E+02  0.00000000000E+00 0. -1.
<mgrwt>
<rscale>  4 0.24707456E+03</rscale>
<asrwt>0</asrwt>
<pdfrwt beam="1">  1       21 0.11065435E-01 0.24707456E+03</pdfrwt>
<pdfrwt beam="2">  1       21 0.11928961E+00 0.24707456E+03</pdfrwt>
<totfact> 0.35324617E+04</totfact>
</mgrwt>
</event>
<event>
 5    0  0.1467858E+000  0.2716857E+03  0.7546771E-02  0.1100319E+00
         21   -1    0    0  504  501  0.00000000000E+00  0.00000000000E+00  0.13062608263E+03  0.13062608263E+03  0.00000000000E+00 0. -1.
         21   -1    0    0  501  502 -0.00000000000E+00 -0.00000000000E+00 -0.96889356111E+03  0.96889356111E+03  0.00000000000E+00 0. -1.
         25    1    1    2    0    0  0.24588332195E+03 -0.78140947985E+02 -0.74539627215E+03  0.79862708338E+03  0.12500000000E+03 0.  0.
         21    1    1    2  503  502 -0.19658101005E+03  0.57504438875E+02 -0.12361795974E+03  0.23923263567E+03  0.00000000000E+00 0. -1.
         21    1    1    2  504  503 -0.49302311905E+02  0.20636509110E+02  0.30746753414E+02  0.61659924691E+02  0.00000000000E+00 0. -1.
<mgrwt>
<rscale>  4 0.27168574E+03</rscale>
<asrwt>0</asrwt>
<pdfrwt beam="1">  1       21 0.20096320E-01 0.27168574E+03</pdfrwt>
<pdfrwt beam="2">  1       21 0.14906055E+00 0.27168574E+03</pdfrwt>
<totfact> 0.65807257E+03</totfact>
</mgrwt>
</event>
<event>
 5    0  0.1467858E+000  0.3248941E+03  0.7546771E-02  0.1073419E+00
         21   -1    0    0  504  501  0.00000000000E+00  0.00000000000E+00  0.31889633056E+03  0.31889633056E+03  0.00000000000E+00 0. -1.
         21   -1    0    0  501  502 -0.00000000000E+00 -0.00000000000E+00 -0.55083482584E+03  0.55083482584E+03  0.00000000000E+00 0.  1.
         25    1    1    2    0    0 -0.15198433093E+03  0.28008282587E+03 -0.37341090291E+03  0.50656325233E+03  0.12500000000E+03 0.  0.
         21    1    1    2  503  502  0.15332227582E+03 -0.25332060104E+03  0.15380661281E+03  0.33366977885E+03  0.00000000000E+00 0. -1.
         21    1    1    2  504  503 -0.13379448877E+01 -0.26762224830E+02 -0.12334205173E+02  0.29498125222E+02  0.00000000000E+00 0. -1.
<mgrwt>
<rscale>  4 0.32489406E+03</rscale>
<asrwt>0</asrwt>
<pdfrwt beam="1">  1       21 0.49060974E-01 0.32489406E+03</pdfrwt>
<pdfrwt beam="2">  1       21 0.84743819E-01 0.32489406E+03</pdfrwt>
<totfact> 0.44063063E+03</totfact>
</mgrwt>
</event>
<event>
 5    0  0.1467858E+000  0.2400530E+03  0.7546771E-02  0.1119758E+00
         21   -1    0    0  504  501  0.00000000000E+00  0.00000000000E+00  0.91650217889E+03  0.91650217889E+03  0.00000000000E+00 0.  1.
         21   -1    0    0  501  502 -0.00000000000E+00 -0.00000000000E+00 -0.10034894113E+03  0.10034894113E+03  0.00000000000E+00 0.  1.
         25    1    1    2    0    0  0.42947000890E+02  0.20038955623E+03  0.89518538253E+02  0.25620106913E+03  0.12500000000E+03 0.  0.
         21    1    1    2  503  502 -0.59036998577E+02 -0.97174601165E+02  0.28533707472E+03  0.30715715281E+03  0.00000000000E+00 0.  1.
         21    1    1    2  504  503  0.16089997688E+02 -0.10321495506E+03  0.44129762478E+03  0.45349289808E+03  0.00000000000E+00 0.  1.
<mgrwt>
<rscale>  4 0.24005295E+03</rscale>
<asrwt>0</asrwt>
<pdfrwt beam="1">  1       21 0.14100033E+00 0.24005295E+03</pdfrwt>
<pdfrwt beam="2">  1       21 0.15438299E-01 0.24005295E+03</pdfrwt>
<totfact> 0.12671369E+04</totfact>
</mgrwt>
</event>
<event>
 5    0  0.1467858E+000  0.3071146E+03  0.7546771E-02  0.1081737E+00
         21   -1    0    0  504  501  0.00000000000E+00  0.00000000000E+00  0.21774520216E+03  0.21774520216E+03  0.00000000000E+00 0.  1.
         21   -1    0    0  501  502 -0.00000000000E+00 -0.00000000000E+00 -0.63841937035E+03  0.63841937035E+03  0.00000000000E+00 0.  1.
         25    1    1    2    0    0  0.16146036562E+03  0.22940118176E+03 -0.47699657563E+03  0.56731392105E+03  0.12500000000E+03 0.  0.
         21    1    1    2  503  502 -0.17799428813E+02 -0.28838360810E+02 -0.59480033501E+01  0.34407113569E+02  0.00000000000E+00 0.  1.
         21    1    1    2  504  503 -0.14366093681E+03 -0.20056282095E+03  0.62270410792E+02  0.25444353788E+03  0.00000000000E+00 0.  1.
<mgrwt>
<rscale>  4 0.30711456E+03</rscale>
<asrwt>0</asrwt>
<pdfrwt beam="1">  1       21 0.33499262E-01 0.30711456E+03</pdfrwt>
<pdfrwt beam="2">  1       21 0.98218364E-01 0.30711456E+03</pdfrwt>
<totfact> 0.68613738E+03</totfact>
</mgrwt>
</event>
<event>
 5    0  0.1467858E+000  0.2378306E+03  0.7546771E-02  0.1121246E+00
         21   -1    0    0  504  501  0.00000000000E+00  0.00000000000E+00  0.30138487483E+03  0.30138487483E+03  0.00000000000E+00 0. -1.
         21   -1    0    0  501  502 -0.00000000000E+00 -0.00000000000E+00 -0.24222199946E+03  0.24222199946E+03  0.00000000000E+00 0. -1.
         25    1    1    2    0    0 -0.43651331615E+02 -0.19756761103E+03 -0.11587568478E+03  0.26455731704E+03  0.12500000000E+03 0.  0.
         21    1    1    2  503  502  0.50623003605E+02  0.14887947705E+03  0.91020019705E+02  0.18169323369E+03  0.00000000000E+00 0. -1.
         21    1    1    2  504  503 -0.69716719900E+01  0.48688133976E+02  0.84018540434E+02  0.97356323560E+02  0.00000000000E+00 0. -1.
<mgrwt>
<rscale>  4 0.23783061E+03</rscale>
<asrwt>0</asrwt>
<pdfrwt beam="1">  1       21 0.46366904E-01 0.23783061E+03</pdfrwt>
<pdfrwt beam="2">  1       21 0.37264923E-01 0.23783061E+03</pdfrwt>
<totfact> 0.30236244E+04</totfact>
</mgrwt>
</event>
<event>
 5    0  0.1467858E+000  0.2389769E+03  0.7546771E-02  0.1120476E+00
         21   -1    0    0  504  501  0.00000000000E+00  0.00000000000E+00  0.15370900399E+04  0.15370900399E+04  0.00000000000E+00 0. -1.
         21   -1    0    0  501  502 -0.00000000000E+00 -0.00000000000E+00 -0.69672796319E+02  0.69672796319E+02  0.00000000000E+00 0.  1.
         25    1    1    2    0    0  0.20279607738E+03  0.36487492905E+02  0.18697825773E+03  0.30503025260E+03  0.12500000000E+03 0.  0.
         21    1    1    2  503  502 -0.18424224775E+03 -0.58106425572E+02  0.12163605497E+04  0.12316064913E+04  0.00000000000E+00 0. -1.
         21    1    1    2  504  503 -0.18553829630E+02  0.21618932668E+02  0.64078436141E+02  0.70126092304E+02  0.00000000000E+00 0. -1.
<mgrwt>
<rscale>  4 0.23897693E+03</rscale>
<asrwt>0</asrwt>
<pdfrwt beam="1">  1       21 0.23647537E+00 0.23897693E+03</pdfrwt>
<pdfrwt beam="2">  1       21 0.10718893E-01 0.23897693E+03</pdfrwt>
<totfact> 0.55013478E+03</totfact>
</mgrwt>
</event>
<event>
 5    0  0.1467858E+000  0.2583587E+03  0.7546771E-02  0.1108133E+00
         21   -1    0    0  504  501  0.00000000000E+00  0.00000000000E+00  0.38162625207E+02  0.38162625207E+02  0.00000000000E+00 0.  1.
         21   -1    0    0  501  502 -0.00000000000E+00 -0.00000000000E+00 -0.18141224361E+04  0.18141224361E+04  0.00000000000E+00 0.  1.
         25    1    1    2    0    0  0.22610487612E+03  0.89656094433E+00 -0.58392984373E+03  0.63853213014E+03  0.12500000000E+03 0.  0.
         21    1    1    2  503  502 -0.20060554880E+03 -0.74556573069E+01 -0.10023426660E+04  0.10222470313E+04  0.00000000000E+00 0.  1.
         21    1    1    2  504  503 -0.25499327318E+02  0.65590963626E+01 -0.18968730112E+03  0.19150589977E+03  0.00000000000E+00 0. -1.
<mgrwt>
<rscale>  4 0.25835870E+03</rscale>
<asrwt>0</asrwt>
<pdfrwt beam="1">  1       21 0.58711732E-02 0.25835870E+03</pdfrwt>
<pdfrwt beam="2">  1       21 0.27909576E+00 0.25835870E+03</pdfrwt>
<totfact> 0.86832317E+03</totfact>
</mgrwt>
</event>
<event>
 5    0  0.1467858E+000  0.4284122E+03  0.7546771E-02  0.1034363E+00
         21   -1    0    0  504  501  0.00000000000E+00  0.00000000000E+00  0.24278974790E+03  0.24278974790E+03  0.00000000000E+00 0.  1.
         21   -1    0    0  501  502 -0.00000000000E+00 -0.00000000000E+00 -0.10032878125E+04  0.10032878125E+04  0.00000000000E+00 0.  1.
         25    1    1    2    0    0 -0.33617370842E+03 -0.31015174790E+03 -0.29649344082E+03  0.55923182081E+03  0.12500000000E+03 0.  0.
         21    1    1    2  503  502  0.28564050998E+02  0.99403129562E+02 -0.21466881441E+03  0.23828467650E+03  0.00000000000E+00 0.  1.
         21    1    1    2  504  503  0.30760965742E+03  0.21074861834E+03 -0.24933580938E+03  0.44856106308E+03  0.00000000000E+00 0.  1.
<mgrwt>
<rscale>  4 0.42841224E+03</rscale>
<asrwt>0</asrwt>
<pdfrwt beam="1">  1       21 0.37352269E-01 0.42841224E+03</pdfrwt>
<pdfrwt beam="2">  1       21 0.15435197E+00 0.42841224E+03</pdfrwt>
<totfact> 0.16471094E+03</totfact>
</mgrwt>
</event>
<event>
 5    0  0.1467858E+000  0.2591389E+03  0.7546771E-02  0.1107662E+00
         21   -1    0    0  504  501  0.00000000000E+00  0.00000000000E+00  0.13420107123E+03  0.13420107123E+03  0.00000000000E+00 0.  1.
         21   -1    0    0  501  502 -0.00000000000E+00 -0.00000000000E+00 -0.46550036332E+03  0.46550036332E+03  0.00000000000E+00 0.  1.
         25    1    1    2    0    0  0.26191619867E+02  0.22548161028E+03 -0.19640134542E+03  0.32515603332E+03  0.12500000000E+03 0.  0.
         21    1    1    2  503  502 -0.52040414844E+02 -0.17229662186E+03 -0.10180501315E+03  0.20678150639E+03  0.00000000000E+00 0.  1.
         21    1    1    2  504  503  0.25848794977E+02 -0.53184988412E+02 -0.33092933510E+02  0.67763894830E+02  0.00000000000E+00 0.  1.
<mgrwt>
<rscale>  4 0.25913888E+03</rscale>
<asrwt>0</asrwt>
<pdfrwt beam="1">  1       21 0.20646318E-01 0.25913888E+03</pdfrwt>
<pdfrwt beam="2">  1       21 0.71615441E-01 0.25913888E+03</pdfrwt>
<totfact> 0.37130659E+04</totfact>
</mgrwt>
</event>
<event>
 5    0  0.1467858E+000  0.2438960E+03  0.7546771E-02  0.1117224E+00
         21   -1    0    0  504  501  0.00000000000E+00  0.00000000000E+00  0.39659346090E+03  0.39659346090E+03  0.00000000000E+00 0. -1.
         21   -1    0    0  501  502 -0.00000000000E+00 -0.00000000000E+00 -0.26356430083E+03  0.26356430083E+03  0.00000000000E+00 0. -1.
         25    1    1    2    0    0  0.21369700127E+02  0.20833530171E+03 -0.16169006142E+03  0.29262422658E+03  0.12500000000E+03 0.  0.
         21    1    1    2  503  502 -0.13314861701E+02 -0.14766295339E+03  0.15244263134E+03  0.21265086220E+03  0.00000000000E+00 0. -1.
         21    1    1    2  504  503 -0.80548384254E+01 -0.60672348321E+02  0.14227659015E+03  0.15488267294E+03  0.00000000000E+00 0. -1.
<mgrwt>
<rscale>  4 0.24389601E+03</rscale>
<asrwt>0</asrwt>
<pdfrwt beam="1">  1       21 0.61014379E-01 0.24389601E+03</pdfrwt>
<pdfrwt beam="2">  1       21 0.40548354E-01 0.24389601E+03</pdfrwt>
<totfact> 0.14208997E+04</totfact>
</mgrwt>
</event>
<event>
 5    0  0.1467858E+000  0.2487506E+03  0.7546771E-02  0.1114097E+00
         21   -1    0    0  504  501  0.00000000000E+00  0.00000000000E+00  0.79292867176E+03  0.79292867176E+03  0.00000000000E+00 0.  1.
         21   -1    0    0  501  502 -0.00000000000E+00 -0.00000000000E+00 -0.18754454448E+03  0.18754454448E+03  0.00000000000E+00 0. -1.
         25    1    1    2    0    0 -0.17600964016E+03 -0.12358179274E+03 -0.78263174897E+02  0.26077188781E+03  0.12500000000E+03 0.  0.
         21    1    1    2  503  502  0.14682159174E+03  0.87085470569E+02  0.44705931688E+03  0.47854204810E+03  0.00000000000E+00 0.  1.
         21    1    1    2  504  503  0.29188048426E+02  0.36496322173E+02  0.23658798530E+03  0.24115928033E+03  0.00000000000E+00 0. -1.
<mgrwt>
<rscale>  4 0.24875058E+03</rscale>
<asrwt>0</asrwt>
<pdfrwt beam="1">  1       21 0.12198902E+00 0.24875058E+03</pdfrwt>
<pdfrwt beam="2">  1       21 0.28853007E-01 0.24875058E+03</pdfrwt>
<totfact> 0.55975262E+03</totfact>
</mgrwt>
</event>
<event>
 5    0  0.1467858E+000  0.4213014E+03  0.7546771E-02  0.1036644E+00
         21   -1    0    0  504  501  0.00000000000E+00  0.00000000000E+00  0.55874979901E+03  0.55874979901E+03  0.00000000000E+00 0. -1.
         21   -1    0    0  501  502 -0.00000000000E+00 -0.00000000000E+00 -0.32667693709E+03  0.32667693709E+03  0.00000000000E+00 0. -1.
         25    1    1    2    0    0  0.16713292254E+02 -0.40198328305E+03  0.14154811631E+02  0.42153914727E+03  0.12500000000E+03 0.  0.
         21    1    1    2  503  502 -0.22563610147E+02  0.31868174752E+03  0.20445992131E+03  0.37930335106E+03  0.00000000000E+00 0. -1.
         21    1    1    2  504  503  0.58503178928E+01  0.83301535537E+02  0.13458128980E+02  0.84584237763E+02  0.00000000000E+00 0.  1.
<mgrwt>
<rscale>  4 0.42130143E+03</rscale>
<asrwt>0</asrwt>
<pdfrwt beam="1">  1       21 0.85961508E-01 0.42130143E+03</pdfrwt>
<pdfrwt beam="2">  1       21 0.50257990E-01 0.42130143E+03</pdfrwt>
<totfact> 0.38903952E+03</totfact>
</mgrwt>
</event>
<event>
 5    0  0.1467858E+000  0.2699878E+03  0.7546771E-02  0.1101287E+00
         21   -1    0    0  504  501  0.00000000000E+00  0.00000000000E+00  0.11202050720E+03  0.11202050720E+03  0.00000000000E+00 0. -1.
         21   -1    0    0  501  502 -0.00000000000E+00 -0.00000000000E+00 -0.78538213681E+03  0.78538213681E+03  0.00000000000E+00 0. -1.
         25    1    1    2    0    0  0.17609493723E+03 -0.16204627915E+03 -0.12865035048E+03  0.29907245975E+03  0.12500000000E+03 0.  0.
         21    1    1    2  503  502 -0.68409647464E+02  0.73123919186E+02 -0.15680582068E+03  0.18605121022E+03  0.00000000000E+00 0. -1.
         21    1    1    2  504  503 -0.10768528977E+03  0.88922359964E+02 -0.38790545846E+03  0.41227897404E+03  0.00000000000E+00 0. -1.
<mgrwt>
<rscale>  4 0.26998782E+03</rscale>
<asrwt>0</asrwt>
<pdfrwt beam="1">  1       21 0.17233924E-01 0.26998782E+03</pdfrwt>
<pdfrwt beam="2">  1       21 0.12082803E+00 0.26998782E+03</pdfrwt>
<totfact> 0.15095767E+04</totfact>
</mgrwt>
</event>
<event>
 5    0  0.1467858E+000  0.3180202E+03  0.7546771E-02  0.1076564E+00
         21   -1    0    0  504  501  0.00000000000E+00  0.00000000000E+00  0.27114934814E+04  0.27114934814E+04  0.00000000000E+00 0.  1.
         21   -1    0    0  501  502 -0.00000000000E+00 -0.00000000000E+00 -0.41608086923E+02  0.41608086923E+02  0.00000000000E+00 0.  1.
         25    1    1    2    0    0 -0.17751877560E+03 -0.23237676109E+03  0.81569303579E+03  0.87549529035E+03  0.12500000000E+03 0.  0.
         21    1    1    2  503  502  0.12512158197E+02  0.35537498726E+02  0.18869171739E+03  0.19241629902E+03  0.00000000000E+00 0. -1.
         21    1    1    2  504  503  0.16500661740E+03  0.19683926236E+03  0.16655006413E+04  0.16851899789E+04  0.00000000000E+00 0.  1.
<mgrwt>
<rscale>  4 0.31802024E+03</rscale>
<asrwt>0</asrwt>
<pdfrwt beam="1">  1       21 0.41715270E+00 0.31802024E+03</pdfrwt>
<pdfrwt beam="2">  1       21 0.64012463E-02 0.31802024E+03</pdfrwt>
<totfact> 0.10344906E+03</totfact>
</mgrwt>
</event>
<event>
 5    0  0.1467858E+000  0.2456786E+03  0.7546771E-02  0.1116067E+00
         21   -1    0    0  504  501  0.00000000000E+00  0.00000000000E+00  0.60426120131E+02  0.60426120131E+02  0.00000000000E+00 0.  1.
         21   -1    0    0  501  502 -0.00000000000E+00 -0.00000000000E+00 -0.11857505285E+04  0.11857505285E+04  0.00000000000E+00 0.  1.
         25    1    1    2    0    0  0.19273900515E+03  0.87089842146E+02 -0.88262506057E+03  0.91617954695E+03  0.12500000000E+03 0.  0.
         21    1    1    2  503  502 -0.12434690501E+03 -0.58959101797E+02 -0.10286606309E+03  0.17181314096E+03  0.00000000000E+00 0.  1.
         21    1    1    2  504  503 -0.68392100144E+02 -0.28130740350E+02 -0.13983328467E+03  0.15818396068E+03  0.00000000000E+00 0.  1.
<mgrwt>
<rscale>  4 0.24567858E+03</rscale>
<asrwt>0</asrwt>
<pdfrwt beam="1">  1       21 0.92963271E-02 0.24567858E+03</pdfrwt>
<pdfrwt beam="2">  1       21 0.18242314E+00 0.24567858E+03</pdfrwt>
<totfact> 0.15588022E+04</totfact>
</mgrwt>
</event>
<event>
 5    0  0.1467858E+000  0.2718738E+03  0.7546771E-02  0.1100212E+00
         21   -1    0    0  504  501  0.00000000000E+00  0.00000000000E+00  0.16889095247E+03  0.16889095247E+03  0.00000000000E+00 0. -1.
         21   -1    0    0  501  502 -0.00000000000E+00 -0.00000000000E+00 -0.45286453334E+03  0.45286453334E+03  0.00000000000E+00 0.  1.
         25    1    1    2    0    0  0.24134082830E+03  0.67074060062E+01 -0.24289348437E+03  0.36457184402E+03  0.12500000000E+03 0.  0.
         21    1    1    2  503  502 -0.13503193500E+03 -0.19281775641E+02  0.13417569349E+02  0.13705999237E+03  0.00000000000E+00 0. -1.
         21    1    1    2  504  503 -0.10630889330E+03  0.12574369634E+02 -0.54497665838E+02  0.12012364942E+03  0.00000000000E+00 0.  1.
<mgrwt>
<rscale>  4 0.27187384E+03</rscale>
<asrwt>0</asrwt>
<pdfrwt beam="1">  1       21 0.25983224E-01 0.27187384E+03</pdfrwt>
<pdfrwt beam="2">  1       21 0.69671465E-01 0.27187384E+03</pdfrwt>
<totfact> 0.25317283E+04</totfact>
</mgrwt>
</event>
<event>
 5    0  0.1467858E+000  0.2389466E+03  0.7546771E-02  0.1120497E+00
         21   -1    0    0  504  501  0.00000000000E+00  0.00000000000E+00  0.17357372998E+04  0.17357372998E+04  0.00000000000E+00 0. -1.
         21   -1    0    0  501  502 -0.00000000000E+00 -0.00000000000E+00 -0.30579897186E+02  0.30579897186E+02  0.00000000000E+00 0. -1.
         25    1    1    2    0    0  0.10714738080E+03  0.17317599958E+03  0.69487691182E+03  0.73481250032E+03  0.12500000000E+03 0.  0.
         21    1    1    2  503  502 -0.24305301108E+02 -0.12988082734E+02  0.15279063667E+03  0.15525597125E+03  0.00000000000E+00 0.  1.
         21    1    1    2  504  503 -0.82842079689E+02 -0.16018791685E+03  0.85748985415E+03  0.87624872544E+03  0.00000000000E+00 0. -1.
<mgrwt>
<rscale>  4 0.23894662E+03</rscale>
<asrwt>0</asrwt>
<pdfrwt beam="1">  1       21 0.26703643E+00 0.23894662E+03</pdfrwt>
<pdfrwt beam="2">  1       21 0.47046009E-02 0.23894662E+03</pdfrwt>
<totfact> 0.15149135E+04</totfact>
</mgrwt>
</event>
<event>
 5    0  0.1467858E+000  0.3355636E+03  0.7546771E-02  0.1068701E+00
         21   -1    0    0  504  501  0.00000000000E+00  0.00000000000E+00  0.86109929365E+03  0.86109929365E+03  0.00000000000E+00 0. -1.
         21   -1    0    0  501  502 -0.00000000000E+00 -0.00000000000E+00 -0.13056743378E+03  0.13056743378E+03  0.00000000000E+00 0. -1.
         25    1    1    2    0    0  0.16383716753E+02  0.31098155524E+03  0.36011212171E+03  0.49222321570E+03  0.12500000000E+03 0.  0.
         21    1    1    2  503  502 -0.39622790484E+02 -0.92990042349E+02  0.54286491512E+02  0.11473507163E+03  0.00000000000E+00 0. -1.
         21    1    1    2  504  503  0.23239073731E+02 -0.21799151289E+03  0.31613324665E+03  0.38470844010E+03  0.00000000000E+00 0. -1.
<mgrwt>
<rscale>  4 0.33556364E+03</rscale>
<asrwt>0</asrwt>
<pdfrwt beam="1">  1       21 0.13247681E+00 0.33556364E+03</pdfrwt>
<pdfrwt beam="2">  1       21 0.20087298E-01 0.33556364E+03</pdfrwt>
<totfact> 0.86914507E+03</totfact>
</mgrwt>
</event>
<event>
 5    0  0.1467858E+000  0.4432593E+03  0.7546771E-02  0.1029751E+00
         21   -1    0    0  504  501  0.00000000000E+00  0.00000000000E+00  0.11954621377E+04  0.11954621377E+04  0.00000000000E+00 0. -1.
         21   -1    0    0  501  502 -0.00000000000E+00 -0.00000000000E+00 -0.16817665345E+03  0.16817665345E+03  0.00000000000E+00 0. -1.
         25    1    1    2    0    0 -0.15433571297E+03 -0.39627547974E+03  0.36012692168E+03  0.57111309551E+03  0.12500000000E+03 0.  0.
         21    1    1    2  503  502  0.15153467675E+03  0.36447009744E+03  0.60043657588E+03  0.71855778601E+03  0.00000000000E+00 0. -1.
         21    1    1    2  504  503  0.28010362209E+01  0.31805382303E+02  0.66721986724E+02  0.73967909662E+02  0.00000000000E+00 0. -1.
<mgrwt>
<rscale>  4 0.44325926E+03</rscale>
<asrwt>0</asrwt>
<pdfrwt beam="1">  1       21 0.18391725E+00 0.44325926E+03</pdfrwt>
<pdfrwt beam="2">  1       21 0.25873332E-01 0.44325926E+03</pdfrwt>
<totfact> 0.20694355E+03</totfact>
</mgrwt>
</event>
<event>
 5    0  0.1467858E+000  0.2366526E+03  0.7546771E-02  0.1122043E+00
         21   -1    0    0  504  501  0.00000000000E+00  0.00000000000E+00  0.26507813377E+03  0.26507813377E+03  0.00000000000E+00 0.  1.
         21   -1    0    0  501  502 -0.00000000000E+00 -0.00000000000E+00 -0.50375049945E+03  0.50375049945E+03  0.00000000000E+00 0.  1.
         25    1    1    2    0    0  0.20055720863E+03  0.76678005740E+02 -0.37256775429E+03  0.44781072122E+03  0.12500000000E+03 0.  0.
         21    1    1    2  503  502 -0.36779707662E+02 -0.26191332792E+02  0.14243732459E+03  0.14942263632E+03  0.00000000000E+00 0.  1.
         21    1    1    2  504  503 -0.16377750097E+03 -0.50486672949E+02 -0.85419359704E+01  0.17159527569E+03  0.00000000000E+00 0.  1.
<mgrwt>
<rscale>  4 0.23665258E+03</rscale>
<asrwt>0</asrwt>
<pdfrwt beam="1">  1       21 0.40781252E-01 0.23665258E+03</pdfrwt>
<pdfrwt beam="2">  1       21 0.77500075E-01 0.23665258E+03</pdfrwt>
<totfact> 0.83095636E+03</totfact>
</mgrwt>
</event>
<event>
 5    0  0.1467858E+000  0.2419786E+03  0.7546771E-02  0.1118482E+00
         21   -1    0    0  504  501  0.00000000000E+00  0.00000000000E+00  0.15714361583E+03  0.15714361583E+03  0.00000000000E+00 0. -1.
         21   -1    0    0  501  502 -0.00000000000E+00 -0.00000000000E+00 -0.34014299934E+03  0.34014299934E+03  0.00000000000E+00 0. -1.
         25    1    1    2    0    0  0.32079650889E+01 -0.20716739280E+03 -0.14648144993E+03  0.28286115827E+03  0.12500000000E+03 0.  0.
         21    1    1    2  503  502 -0.15737362253E+01  0.18441249372E+03 -0.18480742077E+02  0.18534287770E+03  0.00000000000E+00 0. -1.
         21    1    1    2  504  503 -0.16342288635E+01  0.22754899078E+02 -0.18037191496E+02  0.29082579203E+02  0.00000000000E+00 0.  1.
<mgrwt>
<rscale>  4 0.24197855E+03</rscale>
<asrwt>0</asrwt>
<pdfrwt beam="1">  1       21 0.24175941E-01 0.24197855E+03</pdfrwt>
<pdfrwt beam="2">  1       21 0.52329691E-01 0.24197855E+03</pdfrwt>
<totfact> 0.54721632E+04</totfact>
</mgrwt>
</event>
<event>
 5    0  0.1467858E+000  0.2392692E+03  0.7546771E-02  0.1120281E+00
         21   -1    0    0  504  501  0.00000000000E+00  0.00000000000E+00  0.72256380097E+02  0.72256380097E+02  0.00000000000E+00 0. -1.
         21   -1    0    0  501  502 -0.00000000000E+00 -0.00000000000E+00 -0.13654324849E+04  0.13654324849E+04  0.00000000000E+00 0. -1.
         25    1    1    2    0    0 -0.78364923941E+01 -0.20387083960E+03 -0.11664330318E+04  0.11907206841E+04  0.12500000000E+03 0.  0.
         21    1    1    2  503  502  0.29801659358E+02  0.14163495245E+03 -0.74436356238E+02  0.16275555224E+03  0.00000000000E+00 0. -1.
         21    1    1    2  504  503 -0.21965166964E+02  0.62235887153E+02 -0.52306716798E+02  0.84212628695E+02  0.00000000000E+00 0. -1.
<mgrwt>
<rscale>  4 0.23926916E+03</rscale>
<asrwt>0</asrwt>
<pdfrwt beam="1">  1       21 0.11116367E-01 0.23926916E+03</pdfrwt>
<pdfrwt beam="2">  1       21 0.21006653E+00 0.23926916E+03</pdfrwt>
<totfact> 0.75035975E+03</totfact>
</mgrwt>
</event>
<event>
 5    0  0.1467858E+000  0.2967668E+03  0.7546771E-02  0.1086868E+00
         21   -1    0    0  504  501  0.00000000000E+00  0.00000000000E+00  0.69095861784E+03  0.69095861784E+03  0.00000000000E+00 0. -1.
         21   -1    0    0  501  502 -0.00000000000E+00 -0.00000000000E+00 -0.32618263414E+03  0.32618263414E+03  0.00000000000E+00 0.  1.
         25    1    1    2    0    0  0.26541077942E+03  0.21595806284E+02 -0.18337457640E+03  0.34664174006E+03  0.12500000000E+03 0.  0.
         21    1    1    2  503  502 -0.29168241654E+03  0.51663620702E+02  0.49286688065E+03  0.57503523706E+03  0.00000000000E+00 0. -1.
         21    1    1    2  504  503  0.26271637113E+02 -0.73259426987E+02  0.55283679449E+02  0.95464274849E+02  0.00000000000E+00 0. -1.
<mgrwt>
<rscale>  4 0.29676676E+03</rscale>
<asrwt>0</asrwt>
<pdfrwt beam="1">  1       21 0.10630133E+00 0.29676676E+03</pdfrwt>
<pdfrwt beam="2">  1       21 0.50181944E-01 0.29676676E+03</pdfrwt>
<totfact> 0.24884842E+03</totfact>
</mgrwt>
</event>
<event>
 5    0  0.1467858E+000  0.2757467E+03  0.7546771E-02  0.1098035E+00
         21   -1    0    0  504  501  0.00000000000E+00  0.00000000000E+00  0.19969805624E+03  0.19969805624E+03  0.00000000000E+00 0.  1.
         21   -1    0    0  501  502 -0.00000000000E+00 -0.00000000000E+00 -0.60620566605E+03  0.60620566605E+03  0.00000000000E+00 0.  1.
         25    1    1    2    0    0  0.54437524509E+02  0.23968266102E+03 -0.46982874266E+03  0.54477084127E+03  0.12500000000E+03 0.  0.
         21    1    1    2  503  502  0.13033071016E+02 -0.60105959947E+02  0.15930014200E+02  0.63532296618E+02  0.00000000000E+00 0.  1.
         21    1    1    2  504  503 -0.67470595525E+02 -0.17957670108E+03  0.47391118652E+02  0.19760058441E+03  0.00000000000E+00 0.  1.
<mgrwt>
<rscale>  4 0.27574666E+03</rscale>
<asrwt>0</asrwt>
<pdfrwt beam="1">  1       21 0.30722778E-01 0.27574666E+03</pdfrwt>
<pdfrwt beam="2">  1       21 0.93262409E-01 0.27574666E+03</pdfrwt>
<totfact> 0.93540281E+03</totfact>
</mgrwt>
</event>
<event>
 5    0  0.1467858E+000  0.2566684E+03  0.7546771E-02  0.1109162E+00
         21   -1    0    0  504  501  0.00000000000E+00  0.00000000000E+00  0.75133125259E+02  0.75133125259E+02  0.00000000000E+00 0. -1.
         21   -1    0    0  501  502 -0.00000000000E+00 -0.00000000000E+00 -0.87025085272E+03  0.87025085272E+03  0.00000000000E+00 0. -1.
         25    1    1    2    0    0 -0.18035784415E+03  0.13313422440E+03 -0.56495965763E+03  0.62053048950E+03  0.12500000000E+03 0.  0.
         21    1    1    2  503  502  0.15056864142E+03 -0.86990961647E+02 -0.18326173880E+03  0.25263255549E+03  0.00000000000E+00 0. -1.
         21    1    1    2  504  503  0.29789202730E+02 -0.46143262755E+02 -0.46896331033E+02  0.72220932985E+02  0.00000000000E+00 0. -1.
<mgrwt>
<rscale>  4 0.25666841E+03</rscale>
<asrwt>0</asrwt>
<pdfrwt beam="1">  1       21 0.11558943E-01 0.25666841E+03</pdfrwt>
<pdfrwt beam="2">  1       21 0.13388474E+00 0.25666841E+03</pdfrwt>
<totfact> 0.24279504E+04</totfact>
</mgrwt>
</event>
<event>
 5    0  0.1467858E+000  0.2442369E+03  0.7546771E-02  0.1117002E+00
         21   -1    0    0  504  501  0.00000000000E+00  0.00000000000E+00  0.13525767863E+04  0.13525767863E+04  0.00000000000E+00 0. -1.
         21   -1    0    0  501  502 -0.00000000000E+00 -0.00000000000E+00 -0.19420529234E+03  0.19420529234E+03  0.00000000000E+00 0. -1.
         25    1    1    2    0    0 -0.17303967385E+03  0.11566849597E+03 -0.96149340183E+02  0.26113526247E+03  0.12500000000E+03 0.  0.
         21    1    1    2  503  502 -0.31879879801E+02 -0.30181025938E+00  0.57518478924E+02  0.65763160229E+02  0.00000000000E+00 0. -1.
         21    1    1    2  504  503  0.20491955365E+03 -0.11536668571E+03  0.11970023553E+04  0.12198836560E+04  0.00000000000E+00 0. -1.
<mgrwt>
<rscale>  4 0.24423686E+03</rscale>
<asrwt>0</asrwt>
<pdfrwt beam="1">  1       21 0.20808873E+00 0.24423686E+03</pdfrwt>
<pdfrwt beam="2">  1       21 0.29877738E-01 0.24423686E+03</pdfrwt>
<totfact> 0.12164911E+03</totfact>
</mgrwt>
</event>
<event>
 5    0  0.1467858E+000  0.2939995E+03  0.7546771E-02  0.1088279E+00
         21   -1    0    0  504  501  0.00000000000E+00  0.00000000000E+00  0.69988959116E+03  0.69988959116E+03  0.00000000000E+00 0.  1.
         21   -1    0    0  501  502 -0.00000000000E+00 -0.00000000000E+00 -0.59136877103E+03  0.59136877103E+03  0.00000000000E+00 0.  1.
         25    1    1    2    0    0 -0.21815645770E+03 -0.14559942473E+03 -0.46071972131E+03  0.54468256271E+03  0.12500000000E+03 0.  0.
         21    1    1    2  503  502  0.31895319126E+03  0.94324456718E+02  0.53217883913E+03  0.62756876768E+03  0.00000000000E+00 0.  1.
         21    1    1    2  504  503 -0.10079673356E+03  0.51274968016E+02  0.37061702317E+02  0.11900703181E+03  0.00000000000E+00 0.  1.
<mgrwt>
<rscale>  4 0.29399954E+03</rscale>
<asrwt>0</asrwt>
<pdfrwt beam="1">  1       21 0.10767532E+00 0.29399954E+03</pdfrwt>
<pdfrwt beam="2">  1       21 0.90979812E-01 0.29399954E+03</pdfrwt>
<totfact> 0.64511385E+02</totfact>
</mgrwt>
</event>
<event>
 5    0  0.1467858E+000  0.2635024E+03  0.7546771E-02  0.1105057E+00
         21   -1    0    0  504  501  0.00000000000E+00  0.00000000000E+00  0.72682808383E+02  0.72682808383E+02  0.00000000000E+00 0.  1.
         21   -1    0    0  501  502 -0.00000000000E+00 -0.00000000000E+00 -0.12898092745E+04  0.12898092745E+04  0.00000000000E+00 0.  1.
         25    1    1    2    0    0 -0.18420610176E+02 -0.23123406747E+03 -0.98728951994E+03  0.10218483787E+04  0.12500000000E+03 0.  0.
         21    1    1    2  503  502 -0.26683066987E+02  0.16713781486E+03 -0.12835101106E+03  0.21241708326E+03  0.00000000000E+00 0.  1.
         21    1    1    2  504  503  0.45103677163E+02  0.64096252607E+02 -0.10148593513E+03  0.12822662095E+03  0.00000000000E+00 0.  1.
<mgrwt>
<rscale>  4 0.26350240E+03</rscale>
<asrwt>0</asrwt>
<pdfrwt beam="1">  1       21 0.11181971E-01 0.26350240E+03</pdfrwt>
<pdfrwt beam="2">  1       21 0.19843219E+00 0.26350240E+03</pdfrwt>
<totfact> 0.86759103E+03</totfact>
</mgrwt>
</event>
<event>
 5    0  0.1467858E+000  0.3063426E+03  0.7546771E-02  0.1082112E+00
         21   -1    0    0  504  501  0.00000000000E+00  0.00000000000E+00  0.33620461860E+03  0.33620461860E+03  0.00000000000E+00 0. -1.
         21   -1    0    0  501  502 -0.00000000000E+00 -0.00000000000E+00 -0.96610994084E+03  0.96610994084E+03  0.00000000000E+00 0.  1.
         25    1    1    2    0    0  0.11981638364E+03  0.25271489204E+03 -0.87571907739E+03  0.92775518590E+03  0.12500000000E+03 0.  0.
         21    1    1    2  503  502 -0.27314259836E+01 -0.35176227315E+02  0.25338288428E+02  0.43437961698E+02  0.00000000000E+00 0. -1.
         21    1    1    2  504  503 -0.11708495766E+03 -0.21753866473E+03  0.22047546672E+03  0.33112141185E+03  0.00000000000E+00 0. -1.
<mgrwt>
<rscale>  4 0.30634259E+03</rscale>
<asrwt>0</asrwt>
<pdfrwt beam="1">  1       21 0.51723788E-01 0.30634259E+03</pdfrwt>
<pdfrwt beam="2">  1       21 0.14863230E+00 0.30634259E+03</pdfrwt>
<totfact> 0.98913347E+02</totfact>
</mgrwt>
</event>
<event>
 5    0  0.1467858E+000  0.4162894E+03  0.7546771E-02  0.1038630E+00
         21   -1    0    0  504  501  0.00000000000E+00  0.00000000000E+00  0.15714061444E+04  0.15714061444E+04  0.00000000000E+00 0. -1.
         21   -1    0    0  501  502 -0.00000000000E+00 -0.00000000000E+00 -0.12885773281E+03  0.12885773281E+03  0.00000000000E+00 0. -1.
         25    1    1    2    0    0 -0.11695880795E+02 -0.39248026485E+03  0.38583946652E+03  0.56451275083E+03  0.12500000000E+03 0.  0.
         21    1    1    2  503  502  0.39100757739E+02  0.22395099325E+03  0.43247629179E+03  0.48858843579E+03  0.00000000000E+00 0. -1.
         21    1    1    2  504  503 -0.27404876943E+02  0.16852927160E+03  0.62423265324E+03  0.64716269055E+03  0.00000000000E+00 0. -1.
<mgrwt>
<rscale>  4 0.41523075E+03</rscale>
<asrwt>0</asrwt>
<pdfrwt beam="1">  1       21 0.24175478E+00 0.41628935E+03</pdfrwt>
<pdfrwt beam="2">  1       21 0.19824268E-01 0.41628935E+03</pdfrwt>
<totfact> 0.14718182E+03</totfact>
</mgrwt>
</event>
<event>
 5    0  0.1467858E+000  0.5125172E+03  0.7546771E-02  0.1010562E+00
         21   -1    0    0  504  501  0.00000000000E+00  0.00000000000E+00  0.28079886952E+03  0.28079886952E+03  0.00000000000E+00 0.  1.
         21   -1    0    0  501  502 -0.00000000000E+00 -0.00000000000E+00 -0.28378770156E+04  0.28378770156E+04  0.00000000000E+00 0. -1.
         25    1    1    2    0    0 -0.46008095407E+03 -0.18808083452E+03 -0.25663206265E+04  0.26169974098E+04  0.12500000000E+03 0.  0.
         21    1    1    2  503  502  0.43870503004E+03  0.19096326775E+03  0.16971184223E+02  0.47876622072E+03  0.00000000000E+00 0.  1.
         21    1    1    2  504  503  0.21375924028E+02 -0.28824332360E+01 -0.77287037612E+01  0.22912254609E+02  0.00000000000E+00 0.  1.
<mgrwt>
<rscale>  4 0.51251720E+03</rscale>
<asrwt>0</asrwt>
<pdfrwt beam="1">  1       21 0.43199827E-01 0.51251720E+03</pdfrwt>
<pdfrwt beam="2">  1       21 0.43659646E+00 0.51251720E+03</pdfrwt>
<totfact> 0.18212885E+01</totfact>
</mgrwt>
</event>
<event>
 5    0  0.1467858E+000  0.3240306E+03  0.7546771E-02  0.1073809E+00
         21   -1    0    0  504  501  0.00000000000E+00  0.00000000000E+00  0.12212431372E+04  0.12212431372E+04  0.00000000000E+00 0. -1.
         21   -1    0    0  501  502 -0.00000000000E+00 -0.00000000000E+00 -0.12927719427E+03  0.12927719427E+03  0.00000000000E+00 0. -1.
         25    1    1    2    0    0  0.23880118945E+02  0.34524494188E+03  0.36820441825E+03  0.52054185575E+03  0.12500000000E+03 0.  0.
         21    1    1    2  503  502 -0.80762668153E+02 -0.24999747701E+03  0.33518907212E+03  0.42587916262E+03  0.00000000000E+00 0. -1.
         21    1    1    2  504  503  0.56882549208E+02 -0.95247464863E+02  0.38857245251E+03  0.40409931306E+03  0.00000000000E+00 0. -1.
<mgrwt>
<rscale>  4 0.32403064E+03</rscale>
<asrwt>0</asrwt>
<pdfrwt beam="1">  1       21 0.18788355E+00 0.32403064E+03</pdfrwt>
<pdfrwt beam="2">  1       21 0.19888800E-01 0.32403064E+03</pdfrwt>
<totfact> 0.34126221E+03</totfact>
</mgrwt>
</event>
<event>
 5    0  0.1467858E+000  0.2799581E+03  0.7546771E-02  0.1095712E+00
         21   -1    0    0  504  501  0.00000000000E+00  0.00000000000E+00  0.10023675491E+04  0.10023675491E+04  0.00000000000E+00 0.  1.
         21   -1    0    0  501  502 -0.00000000000E+00 -0.00000000000E+00 -0.86306605710E+02  0.86306605710E+02  0.00000000000E+00 0.  1.
         25    1    1    2    0    0  0.25050248336E+03  0.13146263934E+00  0.24965119928E+03  0.37510296287E+03  0.12500000000E+03 0.  0.
         21    1    1    2  503  502 -0.80278101038E+02  0.18656659138E+02  0.25325780670E+03  0.26633092402E+03  0.00000000000E+00 0. -1.
         21    1    1    2  504  503 -0.17022438232E+03 -0.18788121777E+02  0.41315193737E+03  0.44724026788E+03  0.00000000000E+00 0.  1.
<mgrwt>
<rscale>  4 0.27995805E+03</rscale>
<asrwt>0</asrwt>
<pdfrwt beam="1">  1       21 0.15421038E+00 0.27995805E+03</pdfrwt>
<pdfrwt beam="2">  1       21 0.13277940E-01 0.27995805E+03</pdfrwt>
<totfact> 0.12873837E+04</totfact>
</mgrwt>
</event>
<event>
 5    0  0.1467858E+000  0.3927503E+03  0.7546771E-02  0.1046319E+00
         21   -1    0    0  504  501  0.00000000000E+00  0.00000000000E+00  0.23079382009E+03  0.23079382009E+03  0.00000000000E+00 0. -1.
         21   -1    0    0  501  502 -0.00000000000E+00 -0.00000000000E+00 -0.12690526622E+04  0.12690526622E+04  0.00000000000E+00 0. -1.
         25    1    1    2    0    0  0.33305934870E+03  0.16643095509E+03 -0.10543154740E+04  0.11250928456E+04  0.12500000000E+03 0.  0.
         21    1    1    2  503  502 -0.20393382192E+02 -0.95978924349E+01 -0.85213529738E+01  0.24096120703E+02  0.00000000000E+00 0. -1.
         21    1    1    2  504  503 -0.31266596651E+03 -0.15683306266E+03  0.24577984864E+02  0.35065751595E+03  0.00000000000E+00 0. -1.
<mgrwt>
<rscale>  4 0.39275029E+03</rscale>
<asrwt>0</asrwt>
<pdfrwt beam="1">  1       21 0.35506742E-01 0.39275029E+03</pdfrwt>
<pdfrwt beam="2">  1       21 0.19523887E+00 0.39275029E+03</pdfrwt>
<totfact> 0.94594297E+02</totfact>
</mgrwt>
</event>
<event>
 5    0  0.1467858E+000  0.2277980E+03  0.7546771E-02  0.1128199E+00
         21   -1    0    0  504  501  0.00000000000E+00  0.00000000000E+00  0.54500306148E+03  0.54500306148E+03  0.00000000000E+00 0.  1.
         21   -1    0    0  501  502 -0.00000000000E+00 -0.00000000000E+00 -0.14827223329E+03  0.14827223329E+03  0.00000000000E+00 0. -1.
         25    1    1    2    0    0  0.20140455143E+03  0.40319985278E+02  0.94171392417E+01  0.24063078993E+03  0.12500000000E+03 0.  0.
         21    1    1    2  503  502 -0.44485055482E+02 -0.57496641680E+02  0.87037074821E+02  0.11340298214E+03  0.00000000000E+00 0.  1.
         21    1    1    2  504  503 -0.15691949595E+03  0.17176656402E+02  0.30027661413E+03  0.33924152270E+03  0.00000000000E+00 0.  1.
<mgrwt>
<rscale>  4 0.22779800E+03</rscale>
<asrwt>0</asrwt>
<pdfrwt beam="1">  1       21 0.83846624E-01 0.22779800E+03</pdfrwt>
<pdfrwt beam="2">  1       21 0.22811113E-01 0.22779800E+03</pdfrwt>
<totfact> 0.21842359E+04</totfact>
</mgrwt>
</event>
<event>
 5    0  0.1467858E+000  0.2706143E+03  0.7546771E-02  0.1100929E+00
         21   -1    0    0  504  501  0.00000000000E+00  0.00000000000E+00  0.60951357435E+03  0.60951357435E+03  0.00000000000E+00 0. -1.
         21   -1    0    0  501  502 -0.00000000000E+00 -0.00000000000E+00 -0.23350068788E+03  0.23350068788E+03  0.00000000000E+00 0.  1.
         25    1    1    2    0    0  0.25278462675E+03 -0.51010107770E+02  0.42772488164E+02  0.28975262615E+03  0.12500000000E+03 0.  0.
         21    1    1    2  503  502 -0.10196729132E+03 -0.15467147494E+03  0.16159252486E+03  0.24583070953E+03  0.00000000000E+00 0. -1.
         21    1    1    2  504  503 -0.15081733543E+03  0.20568158271E+03  0.17164787345E+03  0.30743092654E+03  0.00000000000E+00 0. -1.
<mgrwt>
<rscale>  4 0.27061429E+03</rscale>
<asrwt>0</asrwt>
<pdfrwt beam="1">  1       21 0.93771319E-01 0.27061429E+03</pdfrwt>
<pdfrwt beam="2">  1       21 0.35923183E-01 0.27061429E+03</pdfrwt>
<totfact> 0.67846957E+03</totfact>
</mgrwt>
</event>
<event>
 5    0  0.1467858E+000  0.2616857E+03  0.7546771E-02  0.1106135E+00
         21   -1    0    0  504  501  0.00000000000E+00  0.00000000000E+00  0.90045937903E+03  0.90045937903E+03  0.00000000000E+00 0. -1.
         21   -1    0    0  501  502 -0.00000000000E+00 -0.00000000000E+00 -0.23448264228E+03  0.23448264228E+03  0.00000000000E+00 0.  1.
         25    1    1    2    0    0 -0.14344026873E+02  0.23418243510E+03 -0.13269059224E+03  0.29711774987E+03  0.12500000000E+03 0.  0.
         21    1    1    2  503  502  0.34674092349E+02 -0.19602981071E+03  0.53909989969E+03  0.57468137365E+03  0.00000000000E+00 0. -1.
         21    1    1    2  504  503 -0.20330065476E+02 -0.38152624393E+02  0.25956742929E+03  0.26314289780E+03  0.00000000000E+00 0. -1.
<mgrwt>
<rscale>  4 0.26168574E+03</rscale>
<asrwt>0</asrwt>
<pdfrwt beam="1">  1       21 0.13853221E+00 0.26168574E+03</pdfrwt>
<pdfrwt beam="2">  1       21 0.36074253E-01 0.26168574E+03</pdfrwt>
<totfact> 0.25791855E+03</totfact>
</mgrwt>
</event>
<event>
 5    0  0.1467858E+000  0.3327198E+03  0.7546771E-02  0.1069940E+00
         21   -1    0    0  504  501  0.00000000000E+00  0.00000000000E+00  0.33348333277E+04  0.33348333277E+04  0.00000000000E+00 0. -1.
         21   -1    0    0  501  502 -0.00000000000E+00 -0.00000000000E+00 -0.54306767484E+02  0.54306767484E+02  0.00000000000E+00 0. -1.
         25    1    1    2    0    0  0.19536617680E+03  0.23855718378E+03  0.56385384609E+03  0.65470117819E+03  0.12500000000E+03 0.  0.
         21    1    1    2  503  502 -0.18694054556E+03 -0.21201157781E+03  0.24157702811E+04  0.24322503423E+04  0.00000000000E+00 0. -1.
         21    1    1    2  504  503 -0.84256312441E+01 -0.26545605973E+02  0.30090243303E+03  0.30218857467E+03  0.00000000000E+00 0. -1.
<mgrwt>
<rscale>  4 0.33271981E+03</rscale>
<asrwt>0</asrwt>
<pdfrwt beam="1">  1       21 0.51305112E+00 0.33271981E+03</pdfrwt>
<pdfrwt beam="2">  1       21 0.83548899E-02 0.33271981E+03</pdfrwt>
<totfact> 0.14133983E+02</totfact>
</mgrwt>
</event>
<event>
 5    0  0.1467858E+000  0.3418479E+03  0.7546771E-02  0.1066012E+00
         21   -1    0    0  504  501  0.00000000000E+00  0.00000000000E+00  0.33940627477E+03  0.33940627477E+03  0.00000000000E+00 0. -1.
         21   -1    0    0  501  502 -0.00000000000E+00 -0.00000000000E+00 -0.39024815706E+03  0.39024815706E+03  0.00000000000E+00 0. -1.
         25    1    1    2    0    0 -0.29848294785E+03 -0.11019494046E+03 -0.17269660213E+03  0.38299361803E+03  0.12500000000E+03 0.  0.
         21    1    1    2  503  502  0.44595117793E+02  0.10039023524E+02 -0.44422066221E+01  0.45926459954E+02  0.00000000000E+00 0. -1.
         21    1    1    2  504  503  0.25388783006E+03  0.10015591694E+03  0.12629692646E+03  0.30073435385E+03  0.00000000000E+00 0. -1.
<mgrwt>
<rscale>  4 0.34184791E+03</rscale>
<asrwt>0</asrwt>
<pdfrwt beam="1">  1       21 0.52216350E-01 0.34184791E+03</pdfrwt>
<pdfrwt beam="2">  1       21 0.60038178E-01 0.34184791E+03</pdfrwt>
<totfact> 0.83096334E+03</totfact>
</mgrwt>
</event>
<event>
 5    0  0.1467858E+000  0.2859289E+03  0.7546771E-02  0.1092494E+00
         21   -1    0    0  504  501  0.00000000000E+00  0.00000000000E+00  0.26915645752E+03  0.26915645752E+03  0.00000000000E+00 0. -1.
         21   -1    0    0  501  502 -0.00000000000E+00 -0.00000000000E+00 -0.44684754000E+03  0.44684754000E+03  0.00000000000E+00 0.  1.
         25    1    1    2    0    0  0.98049904014E+02 -0.23773207565E+03 -0.31052426170E+03  0.42211448752E+03  0.12500000000E+03 0.  0.
         21    1    1    2  503  502 -0.46768152510E+02  0.59163409150E+02  0.49921905919E+02  0.90442057485E+02  0.00000000000E+00 0. -1.
         21    1    1    2  504  503 -0.51281751504E+02  0.17856866650E+03  0.82911273302E+02  0.20344745251E+03  0.00000000000E+00 0. -1.
<mgrwt>
<rscale>  4 0.28592888E+03</rscale>
<asrwt>0</asrwt>
<pdfrwt beam="1">  1       21 0.41408686E-01 0.28592888E+03</pdfrwt>
<pdfrwt beam="2">  1       21 0.68745775E-01 0.28592888E+03</pdfrwt>
<totfact> 0.10260613E+04</totfact>
</mgrwt>
</event>
<event>
 5    0  0.1467858E+000  0.2074829E+03  0.7546771E-02  0.1143575E+00
         21   -1    0    0  504  501  0.00000000000E+00  0.00000000000E+00  0.57187257439E+02  0.57187257439E+02  0.00000000000E+00 0. -1.
         21   -1    0    0  501  502 -0.00000000000E+00 -0.00000000000E+00 -0.11946230922E+04  0.11946230922E+04  0.00000000000E+00 0. -1.
         25    1    1    2    0    0  0.61232176794E+02  0.20935240530E+03 -0.65502312206E+03  0.70161107425E+03  0.12500000000E+03 0.  0.
         21    1    1    2  503  502  0.33736722421E+02 -0.13677773451E+03 -0.30884704273E+03  0.33945958655E+03  0.00000000000E+00 0. -1.
         21    1    1    2  504  503 -0.94968899215E+02 -0.72574670795E+02 -0.17356566996E+03  0.21073968883E+03  0.00000000000E+00 0. -1.
<mgrwt>
<rscale>  4 0.20748292E+03</rscale>
<asrwt>0</asrwt>
<pdfrwt beam="1">  1       21 0.87980395E-02 0.20748292E+03</pdfrwt>
<pdfrwt beam="2">  1       21 0.18378817E+00 0.20748292E+03</pdfrwt>
<totfact> 0.17246478E+04</totfact>
</mgrwt>
</event>
<event>
 5    0  0.1467858E+000  0.2682946E+03  0.7546771E-02  0.1102260E+00
         21   -1    0    0  504  501  0.00000000000E+00  0.00000000000E+00  0.33136640565E+03  0.33136640565E+03  0.00000000000E+00 0.  1.
         21   -1    0    0  501  502 -0.00000000000E+00 -0.00000000000E+00 -0.20174649138E+03  0.20174649138E+03  0.00000000000E+00 0.  1.
         25    1    1    2    0    0  0.20381584305E+03 -0.12172132287E+03  0.92139692513E+02  0.28367534482E+03  0.12500000000E+03 0.  0.
         21    1    1    2  503  502 -0.10805771869E+02  0.29433288676E+02  0.13575881736E+02  0.34167056544E+02  0.00000000000E+00 0.  1.
         21    1    1    2  504  503 -0.19301007118E+03  0.92288034198E+02  0.23904340023E+02  0.21527049567E+03  0.00000000000E+00 0.  1.
<mgrwt>
<rscale>  4 0.26829457E+03</rscale>
<asrwt>0</asrwt>
<pdfrwt beam="1">  1       21 0.50979447E-01 0.26829457E+03</pdfrwt>
<pdfrwt beam="2">  1       21 0.31037922E-01 0.26829457E+03</pdfrwt>
<totfact> 0.35225356E+04</totfact>
</mgrwt>
</event>
<event>
 5    0  0.1467858E+000  0.4504517E+03  0.7546771E-02  0.1027587E+00
         21   -1    0    0  504  501  0.00000000000E+00  0.00000000000E+00  0.13499378091E+03  0.13499378091E+03  0.00000000000E+00 0.  1.
         21   -1    0    0  501  502 -0.00000000000E+00 -0.00000000000E+00 -0.15277123696E+04  0.15277123696E+04  0.00000000000E+00 0. -1.
         25    1    1    2    0    0  0.40488941385E+03  0.15279485279E+03 -0.85125814986E+03  0.96309248891E+03  0.12500000000E+03 0.  0.
         21    1    1    2  503  502 -0.32187902918E+03 -0.13175693899E+03 -0.48584374193E+03  0.59750325687E+03  0.00000000000E+00 0.  1.
         21    1    1    2  504  503 -0.83010384670E+02 -0.21037913804E+02 -0.55616696903E+02  0.10211040473E+03  0.00000000000E+00 0. -1.
<mgrwt>
<rscale>  4 0.45045167E+03</rscale>
<asrwt>0</asrwt>
<pdfrwt beam="1">  1       21 0.20768274E-01 0.45045167E+03</pdfrwt>
<pdfrwt beam="2">  1       21 0.23503268E+00 0.45045167E+03</pdfrwt>
<totfact> 0.14584586E+03</totfact>
</mgrwt>
</event>
<event>
 5    0  0.1467858E+000  0.2582447E+03  0.7546771E-02  0.1108202E+00
         21   -1    0    0  504  501  0.00000000000E+00  0.00000000000E+00  0.15681439946E+03  0.15681439946E+03  0.00000000000E+00 0. -1.
         21   -1    0    0  501  502 -0.00000000000E+00 -0.00000000000E+00 -0.70411465976E+03  0.70411465976E+03  0.00000000000E+00 0.  1.
         25    1    1    2    0    0 -0.20491728758E+03  0.79039527433E+02 -0.49687403988E+03  0.55744699582E+03  0.12500000000E+03 0.  0.
         21    1    1    2  503  502 -0.10551392472E+02  0.44520708635E+02  0.12147035426E+02  0.47338946440E+02  0.00000000000E+00 0. -1.
         21    1    1    2  504  503  0.21546868005E+03 -0.12356023607E+03 -0.62573255855E+02  0.25614311696E+03  0.00000000000E+00 0. -1.
<mgrwt>
<rscale>  4 0.25824472E+03</rscale>
<asrwt>0</asrwt>
<pdfrwt beam="1">  1       21 0.24125293E-01 0.25824472E+03</pdfrwt>
<pdfrwt beam="2">  1       21 0.10832533E+00 0.25824472E+03</pdfrwt>
<totfact> 0.10544616E+04</totfact>
</mgrwt>
</event>
<event>
 5    0  0.1467858E+000  0.2437579E+03  0.7546771E-02  0.1117314E+00
         21   -1    0    0  504  501  0.00000000000E+00  0.00000000000E+00  0.80411479313E+03  0.80411479313E+03  0.00000000000E+00 0.  1.
         21   -1    0    0  501  502 -0.00000000000E+00 -0.00000000000E+00 -0.70350026447E+02  0.70350026447E+02  0.00000000000E+00 0.  1.
         25    1    1    2    0    0  0.19629985049E+03 -0.72520871293E+02  0.32039291942E+03  0.40257860213E+03  0.12500000000E+03 0.  0.
         21    1    1    2  503  502 -0.12627982927E+03  0.22499143426E+00  0.24789099245E+03  0.27820242637E+03  0.00000000000E+00 0.  1.
         21    1    1    2  504  503 -0.70020021219E+02  0.72295879859E+02  0.16548085481E+03  0.19368379107E+03  0.00000000000E+00 0.  1.
<mgrwt>
<rscale>  4 0.24375789E+03</rscale>
<asrwt>0</asrwt>
<pdfrwt beam="1">  1       21 0.12370996E+00 0.24375789E+03</pdfrwt>
<pdfrwt beam="2">  1       21 0.10823082E-01 0.24375789E+03</pdfrwt>
<totfact> 0.33598787E+04</totfact>
</mgrwt>
</event>
