<event>
 5    0  0.1911311E+001  0.4066922E+03  0.7546771E-02  0.1041487E+00
         21   -1    0    0  502  501  0.00000000000E+00  0.00000000000E+00  0.13362536565E+04  0.13362536565E+04  0.00000000000E+00 0.  1.
         21   -1    0    0  504  502 -0.00000000000E+00 -0.00000000000E+00 -0.46905793247E+03  0.46905793247E+03  0.00000000000E+00 0.  1.
         25    1    1    2    0    0 -0.16102383259E+03 -0.30215313479E+03 -0.28419684381E+03  0.46218831396E+03  0.12500000000E+03 0.  0.
         21    1    1    2  503  501  0.12447605726E+03  0.37077130892E+03  0.11926278111E+04  0.12551202126E+04  0.00000000000E+00 0.  1.
         21    1    1    2  504  503  0.36547775336E+02 -0.68618174130E+02 -0.41235243250E+02  0.88003062383E+02  0.00000000000E+00 0.  1.
<mgrwt>
<rscale>  4 0.40669217E+03</rscale>
<asrwt>0</asrwt>
<pdfrwt beam="1">  1       21 0.20557748E+00 0.40669217E+03</pdfrwt>
<pdfrwt beam="2">  1       21 0.72162759E-01 0.40669217E+03</pdfrwt>
<totfact> 0.17679265E+02</totfact>
</mgrwt>
</event>
<event>
 5    0  0.1911311E+001  0.2320452E+03  0.7546771E-02  0.1125208E+00
         21   -1    0    0  504  501  0.00000000000E+00  0.00000000000E+00  0.51337611961E+03  0.51337611961E+03  0.00000000000E+00 0. -1.
         21   -1    0    0  503  502 -0.00000000000E+00 -0.00000000000E+00 -0.65652725138E+03  0.65652725138E+03  0.00000000000E+00 0.  1.
         25    1    1    2    0    0  0.15668841806E+03  0.14932629001E+03  0.29967400183E+03  0.39022955886E+03  0.12500000000E+03 0.  0.
         21    1    1    2  503  501 -0.10916068284E+03 -0.16129888289E+03 -0.59170427366E+03  0.62293445223E+03  0.00000000000E+00 0.  1.
         21    1    1    2  504  502 -0.47527735213E+02  0.11972592885E+02  0.14887914007E+03  0.15673935990E+03  0.00000000000E+00 0. -1.
<mgrwt>
<rscale>  4 0.23204524E+03</rscale>
<asrwt>0</asrwt>
<pdfrwt beam="1">  1       21 0.78980942E-01 0.23204524E+03</pdfrwt>
<pdfrwt beam="2">  1       21 0.10100419E+00 0.23204524E+03</pdfrwt>
<totfact> 0.10942041E+03</totfact>
</mgrwt>
</event>
<event>
 5    0  0.1911311E+001  0.2564805E+03  0.7546771E-02  0.1109276E+00
         21   -1    0    0  502  501  0.00000000000E+00  0.00000000000E+00  0.92717300714E+03  0.92717300714E+03  0.00000000000E+00 0.  1.
         21   -1    0    0  504  502 -0.00000000000E+00 -0.00000000000E+00 -0.23259909940E+03  0.23259909940E+03  0.00000000000E+00 0.  1.
         25    1    1    2    0    0 -0.18697897298E+03  0.77045846393E+02 -0.69131702674E+02  0.24759117735E+03  0.12500000000E+03 0.  0.
         21    1    1    2  503  501  0.19350231355E+03 -0.11731390797E+03  0.81546457981E+03  0.84627901975E+03  0.00000000000E+00 0.  1.
         21    1    1    2  504  503 -0.65233405655E+01  0.40268061580E+02 -0.51758969391E+02  0.65901909441E+02  0.00000000000E+00 0. -1.
<mgrwt>
<rscale>  4 0.25648047E+03</rscale>
<asrwt>0</asrwt>
<pdfrwt beam="1">  1       21 0.14264200E+00 0.25648047E+03</pdfrwt>
<pdfrwt beam="2">  1       21 0.35784477E-01 0.25648047E+03</pdfrwt>
<totfact> 0.24370775E+03</totfact>
</mgrwt>
</event>
