<event>
 5    0  0.1911311E+001  0.2801070E+03  0.7546771E-02  0.1095630E+00
         21   -1    0    0  502  501  0.00000000000E+00  0.00000000000E+00  0.24226361319E+03  0.24226361319E+03  0.00000000000E+00 0. -1.
         21   -1    0    0  504  502 -0.00000000000E+00 -0.00000000000E+00 -0.12938857980E+04  0.12938857980E+04  0.00000000000E+00 0. -1.
         25    1    1    2    0    0  0.10960127994E+03  0.17628235033E+03 -0.99085076519E+03  0.10200481099E+04  0.12500000000E+03 0.  0.
         21    1    1    2  503  501 -0.83792891207E+02 -0.23991351869E+03  0.14954336263E+03  0.29486092039E+03  0.00000000000E+00 0. -1.
         21    1    1    2  504  503 -0.25808388735E+02  0.63631168365E+02 -0.21031478227E+03  0.22124038094E+03  0.00000000000E+00 0. -1.
<mgrwt>
<rscale>  4 0.28010705E+03</rscale>
<asrwt>0</asrwt>
<pdfrwt beam="1">  1       21 0.37271325E-01 0.28010705E+03</pdfrwt>
<pdfrwt beam="2">  1       21 0.19905935E+00 0.28010705E+03</pdfrwt>
<totfact> 0.86973049E+02</totfact>
</mgrwt>
</event>
<event>
 5    0  0.1911311E+001  0.2644456E+03  0.7546771E-02  0.1104501E+00
         21   -1    0    0  504  501  0.00000000000E+00  0.00000000000E+00  0.39676777766E+02  0.39676777766E+02  0.00000000000E+00 0.  1.
         21   -1    0    0  503  502 -0.00000000000E+00 -0.00000000000E+00 -0.28370568034E+04  0.28370568034E+04  0.00000000000E+00 0.  1.
         25    1    1    2    0    0  0.25152151785E+03 -0.19161821122E+02 -0.14924508693E+04  0.15187708341E+04  0.12500000000E+03 0.  0.
         21    1    1    2  503  501 -0.25556015271E+02  0.48576205762E+02 -0.82350965184E+03  0.82533684296E+03  0.00000000000E+00 0.  1.
         21    1    1    2  504  502 -0.22596550258E+03 -0.29414384639E+02 -0.48141950448E+03  0.53262590405E+03  0.00000000000E+00 0.  1.
<mgrwt>
<rscale>  4 0.26444560E+03</rscale>
<asrwt>0</asrwt>
<pdfrwt beam="1">  1       21 0.61041211E-02 0.26444560E+03</pdfrwt>
<pdfrwt beam="2">  1       21 0.43647018E+00 0.26444560E+03</pdfrwt>
<totfact> 0.88729736E+02</totfact>
</mgrwt>
</event>
<event>
 5    0  0.2922486E+001  0.3207291E+03  0.7546771E-02  0.1075314E+00
         21   -1    0    0  504  501  0.00000000000E+00  0.00000000000E+00  0.11188902030E+04  0.11188902030E+04  0.00000000000E+00 0. -1.
         21   -1    0    0  503  502 -0.00000000000E+00 -0.00000000000E+00 -0.11066750150E+03  0.11066750150E+03  0.00000000000E+00 0.  1.
         25    1    1    2    0    0 -0.26729793905E+03  0.12247963461E+03  0.70161812326E+03  0.77093608036E+03  0.12500000000E+03 0.  0.
         21    1    1    2  503  501  0.27939197489E+03 -0.98532658538E+02  0.22296715808E+03  0.37078688490E+03  0.00000000000E+00 0.  1.
         21    1    1    2  504  502 -0.12094035841E+02 -0.23946976074E+02  0.83637420135E+02  0.87834739214E+02  0.00000000000E+00 0.  1.
<mgrwt>
<rscale>  4 0.32072906E+03</rscale>
<asrwt>0</asrwt>
<pdfrwt beam="1">  1       21 0.17213695E+00 0.32072906E+03</pdfrwt>
<pdfrwt beam="2">  1       21 0.17025770E-01 0.32072906E+03</pdfrwt>
<totfact> 0.58885655E+03</totfact>
</mgrwt>
</event>
<event>
 5    0  0.2026665E+001  0.2365896E+03  0.7546771E-02  0.1122086E+00
         21   -1    0    0  502  501  0.00000000000E+00  0.00000000000E+00  0.17492617046E+04  0.17492617046E+04  0.00000000000E+00 0.  1.
         21   -1    0    0  504  502 -0.00000000000E+00 -0.00000000000E+00 -0.45305018054E+02  0.45305018054E+02  0.00000000000E+00 0.  1.
         25    1    1    2    0    0  0.16716105282E+03 -0.12689995295E+03  0.49792812988E+03  0.55462044514E+03  0.12500000000E+03 0.  0.
         21    1    1    2  503  501 -0.14700322588E+03  0.13333594621E+03  0.12021637072E+04  0.12184358834E+04  0.00000000000E+00 0.  1.
         21    1    1    2  504  503 -0.20157826942E+02 -0.64359932533E+01  0.38648494955E+01  0.21510394180E+02  0.00000000000E+00 0. -1.
<mgrwt>
<rscale>  4 0.23658960E+03</rscale>
<asrwt>0</asrwt>
<pdfrwt beam="1">  1       21 0.26911713E+00 0.23658960E+03</pdfrwt>
<pdfrwt beam="2">  1       21 0.69700042E-02 0.23658960E+03</pdfrwt>
<totfact> 0.75177895E+03</totfact>
</mgrwt>
</event>
