<event>
 5    0  0.2193454E+000  0.2394519E+03  0.7546771E-02  0.1120158E+00
         21   -1    0    0  503  501  0.00000000000E+00  0.00000000000E+00  0.55327666428E+03  0.55327666428E+03  0.00000000000E+00 0. -1.
         21   -1    0    0  504  502 -0.00000000000E+00 -0.00000000000E+00 -0.22572149480E+03  0.22572149480E+03  0.00000000000E+00 0. -1.
         25    1    1    2    0    0 -0.15245536394E+03  0.14415777270E+03 -0.92474992810E+02  0.26115268660E+03  0.12500000000E+03 0.  0.
         21    1    1    2  503  502  0.17190096638E+03 -0.92844001728E+02  0.16127873422E+03  0.25333926070E+03  0.00000000000E+00 0. -1.
         21    1    1    2  504  501 -0.19445602441E+02 -0.51313770975E+02  0.25875142806E+03  0.26450621177E+03  0.00000000000E+00 0. -1.
<mgrwt>
<rscale>  4 0.23945192E+03</rscale>
<asrwt>0</asrwt>
<pdfrwt beam="1">  1       21 0.85119486E-01 0.23945192E+03</pdfrwt>
<pdfrwt beam="2">  1       21 0.34726384E-01 0.23945192E+03</pdfrwt>
<totfact> 0.92590206E+03</totfact>
</mgrwt>
</event>
<event>
 5    0  0.2193454E+000  0.3925383E+03  0.7546771E-02  0.1046394E+00
         21   -1    0    0  503  501  0.00000000000E+00  0.00000000000E+00  0.49992185479E+03  0.49992185479E+03  0.00000000000E+00 0. -1.
         21   -1    0    0  501  502 -0.00000000000E+00 -0.00000000000E+00 -0.59967457160E+03  0.59967457160E+03  0.00000000000E+00 0. -1.
         25    1    1    2    0    0  0.29642852565E+03 -0.55818387364E+02  0.74557367681E+02  0.33491695129E+03  0.12500000000E+03 0.  0.
         21    1    1    2  503  504  0.14841991711E+02 -0.27220013804E+03  0.18189568178E+02  0.27321065180E+03  0.00000000000E+00 0. -1.
         21    1    1    2  504  502 -0.31127051737E+03  0.32801852541E+03 -0.19249965267E+03  0.49146882329E+03  0.00000000000E+00 0. -1.
<mgrwt>
<rscale>  4 0.39253825E+03</rscale>
<asrwt>0</asrwt>
<pdfrwt beam="1">  1       21 0.76911054E-01 0.39253825E+03</pdfrwt>
<pdfrwt beam="2">  1       21 0.92257627E-01 0.39253825E+03</pdfrwt>
<totfact> 0.13061778E+03</totfact>
</mgrwt>
</event>
<event>
 5    0  0.2193454E+000  0.3218675E+03  0.7546771E-02  0.1074793E+00
         21   -1    0    0  503  501  0.00000000000E+00  0.00000000000E+00  0.26235692534E+03  0.26235692534E+03  0.00000000000E+00 0. -1.
         21   -1    0    0  501  502 -0.00000000000E+00 -0.00000000000E+00 -0.64589720311E+03  0.64589720311E+03  0.00000000000E+00 0. -1.
         25    1    1    2    0    0 -0.22664218129E+03 -0.19972428997E+03 -0.41201155454E+03  0.52596101701E+03  0.12500000000E+03 0.  0.
         21    1    1    2  503  504  0.23492724181E+02 -0.11965893095E+01  0.87437805137E+02  0.90546726515E+02  0.00000000000E+00 0.  1.
         21    1    1    2  504  502  0.20314945711E+03  0.20092087928E+03 -0.58966528365E+02  0.29174638493E+03  0.00000000000E+00 0. -1.
<mgrwt>
<rscale>  4 0.32186745E+03</rscale>
<asrwt>0</asrwt>
<pdfrwt beam="1">  1       21 0.40362604E-01 0.32186745E+03</pdfrwt>
<pdfrwt beam="2">  1       21 0.99368800E-01 0.32186745E+03</pdfrwt>
<totfact> 0.45459979E+03</totfact>
</mgrwt>
</event>
<event>
 5    0  0.2193454E+000  0.4479586E+03  0.7546771E-02  0.1028333E+00
         21   -1    0    0  503  501  0.00000000000E+00  0.00000000000E+00  0.13153790856E+03  0.13153790856E+03  0.00000000000E+00 0. -1.
         21   -1    0    0  501  502 -0.00000000000E+00 -0.00000000000E+00 -0.22822332955E+04  0.22822332955E+04  0.00000000000E+00 0.  1.
         25    1    1    2    0    0 -0.10209374112E+03  0.41787415698E+03 -0.17723728742E+04  0.18281062738E+04  0.12500000000E+03 0.  0.
         21    1    1    2  503  504 -0.18337485749E+02 -0.41567602209E+02 -0.12291979082E+02  0.47066141618E+02  0.00000000000E+00 0. -1.
         21    1    1    2  504  502  0.12043122687E+03 -0.37630655477E+03 -0.36603053366E+03  0.53859878865E+03  0.00000000000E+00 0. -1.
<mgrwt>
<rscale>  4 0.44795864E+03</rscale>
<asrwt>0</asrwt>
<pdfrwt beam="1">  1       21 0.20236601E-01 0.44795864E+03</pdfrwt>
<pdfrwt beam="2">  1       21 0.35111283E+00 0.44795864E+03</pdfrwt>
<totfact> 0.30276371E+02</totfact>
</mgrwt>
</event>
<event>
 5    0  0.2193454E+000  0.1987394E+03  0.7546771E-02  0.1150807E+00
         21   -1    0    0  503  501  0.00000000000E+00  0.00000000000E+00  0.31074612461E+03  0.31074612461E+03  0.00000000000E+00 0. -1.
         21   -1    0    0  504  502 -0.00000000000E+00 -0.00000000000E+00 -0.18580133748E+03  0.18580133748E+03  0.00000000000E+00 0.  1.
         25    1    1    2    0    0 -0.12799873438E+03  0.15440871938E+03  0.87862036528E+00  0.23632922078E+03  0.12500000000E+03 0.  0.
         21    1    1    2  503  502  0.11969160354E+03 -0.78094686217E+02  0.11396452350E+03  0.18279160973E+03  0.00000000000E+00 0. -1.
         21    1    1    2  504  501  0.83071308368E+01 -0.76314033162E+02  0.10101643268E+02  0.77426631574E+02  0.00000000000E+00 0. -1.
<mgrwt>
<rscale>  4 0.19873938E+03</rscale>
<asrwt>0</asrwt>
<pdfrwt beam="1">  1       21 0.47807096E-01 0.19873938E+03</pdfrwt>
<pdfrwt beam="2">  1       21 0.28584821E-01 0.19873938E+03</pdfrwt>
<totfact> 0.48814333E+04</totfact>
</mgrwt>
</event>
<event>
 5    0  0.3175031E+000  0.3644528E+03  0.7546771E-02  0.1056835E+00
         21   -1    0    0  502  501  0.00000000000E+00  0.00000000000E+00  0.30075423341E+04  0.30075423341E+04  0.00000000000E+00 0. -1.
         21   -1    0    0  504  502 -0.00000000000E+00 -0.00000000000E+00 -0.74403213768E+03  0.74403213768E+03  0.00000000000E+00 0. -1.
         25    1    1    2    0    0  0.25397372935E+03 -0.22971917239E+03 -0.68629485408E+03  0.77710950329E+03  0.12500000000E+03 0.  0.
         21    1    1    2  503  501 -0.26359666324E+03  0.20875509023E+03  0.29016807370E+04  0.29210979080E+04  0.00000000000E+00 0. -1.
         21    1    1    2  504  503  0.96229338853E+01  0.20964082153E+02  0.48124313456E+02  0.53367060465E+02  0.00000000000E+00 0.  1.
<mgrwt>
<rscale>  4 0.36445278E+03</rscale>
<asrwt>0</asrwt>
<pdfrwt beam="1">  1       21 0.46269881E+00 0.36445278E+03</pdfrwt>
<pdfrwt beam="2">  1       21 0.11446648E+00 0.36445278E+03</pdfrwt>
<totfact> 0.15237266E+00</totfact>
</mgrwt>
</event>
<event>
 5    0  0.2193454E+000  0.3454255E+03  0.7546771E-02  0.1064508E+00
         21   -1    0    0  503  501  0.00000000000E+00  0.00000000000E+00  0.64701984702E+03  0.64701984702E+03  0.00000000000E+00 0. -1.
         21   -1    0    0  501  502 -0.00000000000E+00 -0.00000000000E+00 -0.24693335418E+03  0.24693335418E+03  0.00000000000E+00 0. -1.
         25    1    1    2    0    0  0.30367783411E+03  0.76446052599E+02  0.11186711408E+03  0.35525128727E+03  0.12500000000E+03 0.  0.
         21    1    1    2  503  504  0.12028776872E+02  0.21585554825E+02  0.19315316277E+03  0.19472742985E+03  0.00000000000E+00 0. -1.
         21    1    1    2  504  502 -0.31570661099E+03 -0.98031607424E+02  0.95066215994E+02  0.34397448408E+03  0.00000000000E+00 0. -1.
<mgrwt>
<rscale>  4 0.34542555E+03</rscale>
<asrwt>0</asrwt>
<pdfrwt beam="1">  1       21 0.99541514E-01 0.34542555E+03</pdfrwt>
<pdfrwt beam="2">  1       21 0.37989747E-01 0.34542555E+03</pdfrwt>
<totfact> 0.50670098E+03</totfact>
</mgrwt>
</event>
<event>
 5    0  0.2193454E+000  0.3067812E+03  0.7546771E-02  0.1081899E+00
         21   -1    0    0  503  501  0.00000000000E+00  0.00000000000E+00  0.22264483683E+03  0.22264483683E+03  0.00000000000E+00 0. -1.
         21   -1    0    0  504  502 -0.00000000000E+00 -0.00000000000E+00 -0.63496009202E+03  0.63496009202E+03  0.00000000000E+00 0. -1.
         25    1    1    2    0    0  0.18278683138E+03  0.11779556466E+03 -0.34738043588E+03  0.42846818786E+03  0.12500000000E+03 0.  0.
         21    1    1    2  503  502 -0.21973332967E+03 -0.21263145189E+03  0.47189756734E+01  0.30580572138E+03  0.00000000000E+00 0. -1.
         21    1    1    2  504  501  0.36946498290E+02  0.94835887227E+02 -0.69653794984E+02  0.12333101961E+03  0.00000000000E+00 0. -1.
<mgrwt>
<rscale>  4 0.30678123E+03</rscale>
<asrwt>0</asrwt>
<pdfrwt beam="1">  1       21 0.34253052E-01 0.30678123E+03</pdfrwt>
<pdfrwt beam="2">  1       21 0.97686168E-01 0.30678123E+03</pdfrwt>
<totfact> 0.66496693E+03</totfact>
</mgrwt>
</event>
<event>
 5    0  0.2193454E+000  0.3034413E+03  0.7546771E-02  0.1083533E+00
         21   -1    0    0  503  501  0.00000000000E+00  0.00000000000E+00  0.45325234440E+03  0.45325234440E+03  0.00000000000E+00 0. -1.
         21   -1    0    0  504  502 -0.00000000000E+00 -0.00000000000E+00 -0.46666398539E+03  0.46666398539E+03  0.00000000000E+00 0. -1.
         25    1    1    2    0    0  0.80376143466E+02  0.28657050107E+03 -0.79869488802E+02  0.33254640543E+03  0.12500000000E+03 0.  0.
         21    1    1    2  503  502 -0.25827709685E+03 -0.15022780251E+03 -0.92278352640E+02  0.31271511920E+03  0.00000000000E+00 0. -1.
         21    1    1    2  504  501  0.17790095339E+03 -0.13634269856E+03  0.15873620045E+03  0.27465480517E+03  0.00000000000E+00 0. -1.
<mgrwt>
<rscale>  4 0.30344128E+03</rscale>
<asrwt>0</asrwt>
<pdfrwt beam="1">  1       21 0.69731130E-01 0.30344128E+03</pdfrwt>
<pdfrwt beam="2">  1       21 0.71794459E-01 0.30344128E+03</pdfrwt>
<totfact> 0.30364649E+03</totfact>
</mgrwt>
</event>
<event>
 5    0  0.2193454E+000  0.2431444E+03  0.7546771E-02  0.1117716E+00
         21   -1    0    0  502  501  0.00000000000E+00  0.00000000000E+00  0.77427543336E+03  0.77427543336E+03  0.00000000000E+00 0.  1.
         21   -1    0    0  503  502 -0.00000000000E+00 -0.00000000000E+00 -0.62321646217E+03  0.62321646217E+03  0.00000000000E+00 0. -1.
         25    1    1    2    0    0  0.20535092315E+03  0.30919350219E+02 -0.56890948221E+03  0.61839146728E+03  0.12500000000E+03 0.  0.
         21    1    1    2  503  504  0.26473029471E+02  0.64453679930E+01  0.65374214006E+01  0.28019670528E+02  0.00000000000E+00 0.  1.
         21    1    1    2  504  501 -0.23182395262E+03 -0.37364718212E+02  0.71343103200E+03  0.75108075771E+03  0.00000000000E+00 0.  1.
<mgrwt>
<rscale>  4 0.24314435E+03</rscale>
<asrwt>0</asrwt>
<pdfrwt beam="1">  1       21 0.11911930E+00 0.24314435E+03</pdfrwt>
<pdfrwt beam="2">  1       21 0.95879455E-01 0.24314435E+03</pdfrwt>
<totfact> 0.46313073E+02</totfact>
</mgrwt>
</event>
<event>
 5    0  0.2193454E+000  0.2964629E+03  0.7546771E-02  0.1087022E+00
         21   -1    0    0  503  501  0.00000000000E+00  0.00000000000E+00  0.15171207676E+04  0.15171207676E+04  0.00000000000E+00 0.  1.
         21   -1    0    0  504  502 -0.00000000000E+00 -0.00000000000E+00 -0.26035759158E+03  0.26035759158E+03  0.00000000000E+00 0. -1.
         25    1    1    2    0    0 -0.14026709261E+03  0.23674066287E+03  0.43195507077E+01  0.30226587178E+03  0.12500000000E+03 0.  0.
         21    1    1    2  503  502  0.11825425644E+03 -0.23458875435E+03  0.43762425586E+02  0.26632893708E+03  0.00000000000E+00 0. -1.
         21    1    1    2  504  501  0.22012836175E+02 -0.21519085180E+01  0.12086811997E+04  0.12088835503E+04  0.00000000000E+00 0.  1.
<mgrwt>
<rscale>  4 0.29646288E+03</rscale>
<asrwt>0</asrwt>
<pdfrwt beam="1">  1       21 0.23340319E+00 0.29646288E+03</pdfrwt>
<pdfrwt beam="2">  1       21 0.40055015E-01 0.29646288E+03</pdfrwt>
<totfact> 0.44994705E+02</totfact>
</mgrwt>
</event>
<event>
 5    0  0.2193454E+000  0.3386277E+03  0.7546771E-02  0.1067382E+00
         21   -1    0    0  503  501  0.00000000000E+00  0.00000000000E+00  0.96678385603E+02  0.96678385603E+02  0.00000000000E+00 0.  1.
         21   -1    0    0  504  502 -0.00000000000E+00 -0.00000000000E+00 -0.12252453619E+04  0.12252453619E+04  0.00000000000E+00 0.  1.
         25    1    1    2    0    0  0.27565700982E+03  0.15184517701E+03 -0.74001414236E+03  0.81381181838E+03  0.12500000000E+03 0.  0.
         21    1    1    2  503  502 -0.11553104502E+03 -0.11356207694E+03 -0.17515696103E+03  0.23858694155E+03  0.00000000000E+00 0.  1.
         21    1    1    2  504  501 -0.16012596480E+03 -0.38283100075E+02 -0.21339587294E+03  0.26952498760E+03  0.00000000000E+00 0.  1.
<mgrwt>
<rscale>  4 0.33862774E+03</rscale>
<asrwt>0</asrwt>
<pdfrwt beam="1">  1       21 0.14873598E-01 0.33862774E+03</pdfrwt>
<pdfrwt beam="2">  1       21 0.18849929E+00 0.33862774E+03</pdfrwt>
<totfact> 0.57654951E+03</totfact>
</mgrwt>
</event>
<event>
 5    0  0.2193454E+000  0.2592112E+03  0.7546771E-02  0.1107618E+00
         21   -1    0    0  502  501  0.00000000000E+00  0.00000000000E+00  0.68136815951E+03  0.68136815951E+03  0.00000000000E+00 0. -1.
         21   -1    0    0  504  502 -0.00000000000E+00 -0.00000000000E+00 -0.38793661246E+03  0.38793661246E+03  0.00000000000E+00 0. -1.
         25    1    1    2    0    0  0.54152499041E+01 -0.22538591835E+03 -0.30897839456E+03  0.40239381883E+03  0.12500000000E+03 0.  0.
         21    1    1    2  503  501  0.15784857255E+02  0.24824811265E+03  0.57012724339E+03  0.62203003208E+03  0.00000000000E+00 0. -1.
         21    1    1    2  504  503 -0.21200107159E+02 -0.22862194301E+02  0.32282698217E+02  0.44880921069E+02  0.00000000000E+00 0.  1.
<mgrwt>
<rscale>  4 0.25921119E+03</rscale>
<asrwt>0</asrwt>
<pdfrwt beam="1">  1       21 0.10482587E+00 0.25921119E+03</pdfrwt>
<pdfrwt beam="2">  1       21 0.59682556E-01 0.25921119E+03</pdfrwt>
<totfact> 0.18213007E+03</totfact>
</mgrwt>
</event>
<event>
 5    0  0.2193454E+000  0.2537947E+03  0.7546771E-02  0.1110930E+00
         21   -1    0    0  503  501  0.00000000000E+00  0.00000000000E+00  0.10729337073E+03  0.10729337073E+03  0.00000000000E+00 0.  1.
         21   -1    0    0  501  502 -0.00000000000E+00 -0.00000000000E+00 -0.93079473943E+03  0.93079473943E+03  0.00000000000E+00 0.  1.
         25    1    1    2    0    0 -0.11582099542E+03  0.18807510693E+03 -0.75377495765E+03  0.79535428307E+03  0.12500000000E+03 0.  0.
         21    1    1    2  503  504  0.21865787358E+02 -0.97301237702E+02 -0.46527439969E+02  0.11004747242E+03  0.00000000000E+00 0.  1.
         21    1    1    2  504  502  0.93955208064E+02 -0.90773869228E+02 -0.23198971078E+02  0.13268635467E+03  0.00000000000E+00 0.  1.
<mgrwt>
<rscale>  4 0.25379470E+03</rscale>
<asrwt>0</asrwt>
<pdfrwt beam="1">  1       21 0.16506672E-01 0.25379470E+03</pdfrwt>
<pdfrwt beam="2">  1       21 0.14319919E+00 0.25379470E+03</pdfrwt>
<totfact> 0.10672038E+04</totfact>
</mgrwt>
</event>
<event>
 5    0  0.2193454E+000  0.4807563E+03  0.7546771E-02  0.1018928E+00
         21   -1    0    0  503  501  0.00000000000E+00  0.00000000000E+00  0.15258051645E+03  0.15258051645E+03  0.00000000000E+00 0. -1.
         21   -1    0    0  504  502 -0.00000000000E+00 -0.00000000000E+00 -0.19759061291E+04  0.19759061291E+04  0.00000000000E+00 0.  1.
         25    1    1    2    0    0  0.44490999507E+03 -0.96654470850E+02 -0.11743858855E+04  0.12657385980E+04  0.12500000000E+03 0.  0.
         21    1    1    2  503  502 -0.46292870168E+03  0.12569684349E+03 -0.66893522213E+03  0.82315066100E+03  0.00000000000E+00 0. -1.
         21    1    1    2  504  501  0.18018706603E+02 -0.29042372639E+02  0.19995495019E+02  0.39597386494E+02  0.00000000000E+00 0.  1.
<mgrwt>
<rscale>  4 0.48075634E+03</rscale>
<asrwt>0</asrwt>
<pdfrwt beam="1">  1       21 0.23473926E-01 0.48075634E+03</pdfrwt>
<pdfrwt beam="2">  1       21 0.30398555E+00 0.48075634E+03</pdfrwt>
<totfact> 0.43155124E+02</totfact>
</mgrwt>
</event>
<event>
 5    0  0.2193454E+000  0.4395732E+03  0.7546771E-02  0.1030878E+00
         21   -1    0    0  502  501  0.00000000000E+00  0.00000000000E+00  0.28199504604E+03  0.28199504604E+03  0.00000000000E+00 0.  1.
         21   -1    0    0  504  502 -0.00000000000E+00 -0.00000000000E+00 -0.81083365730E+03  0.81083365730E+03  0.00000000000E+00 0. -1.
         25    1    1    2    0    0  0.41154131476E+03 -0.18615553418E+03 -0.31928136264E+03  0.56708528917E+03  0.12500000000E+03 0.  0.
         21    1    1    2  503  501 -0.36477052787E+03  0.14980347199E+03 -0.23741057878E+03  0.46028513026E+03  0.00000000000E+00 0. -1.
         21    1    1    2  504  503 -0.46770786894E+02  0.36352062183E+02  0.27853330154E+02  0.65458283909E+02  0.00000000000E+00 0.  1.
<mgrwt>
<rscale>  4 0.43957323E+03</rscale>
<asrwt>0</asrwt>
<pdfrwt beam="1">  1       21 0.43383854E-01 0.43957323E+03</pdfrwt>
<pdfrwt beam="2">  1       21 0.12474364E+00 0.43957323E+03</pdfrwt>
<totfact> 0.21166912E+03</totfact>
</mgrwt>
</event>
<event>
 5    0  0.2193454E+000  0.2090954E+03  0.7546771E-02  0.1142284E+00
         21   -1    0    0  502  501  0.00000000000E+00  0.00000000000E+00  0.33842252634E+03  0.33842252634E+03  0.00000000000E+00 0.  1.
         21   -1    0    0  504  502 -0.00000000000E+00 -0.00000000000E+00 -0.47062271822E+03  0.47062271822E+03  0.00000000000E+00 0. -1.
         25    1    1    2    0    0  0.12937029229E+03 -0.16993983313E+03 -0.36030113065E+03  0.43710196083E+03  0.12500000000E+03 0.  0.
         21    1    1    2  503  501 -0.69864894078E+02  0.14956826224E+03  0.25480984551E+03  0.30361130721E+03  0.00000000000E+00 0.  1.
         21    1    1    2  504  503 -0.59505398210E+02  0.20371570888E+02 -0.26708906746E+02  0.68331976527E+02  0.00000000000E+00 0. -1.
<mgrwt>
<rscale>  4 0.20909539E+03</rscale>
<asrwt>0</asrwt>
<pdfrwt beam="1">  1       21 0.52065004E-01 0.20909539E+03</pdfrwt>
<pdfrwt beam="2">  1       21 0.72403495E-01 0.20909539E+03</pdfrwt>
<totfact> 0.59470455E+03</totfact>
</mgrwt>
</event>
<event>
 5    0  0.2193454E+000  0.2705752E+03  0.7546771E-02  0.1100951E+00
         21   -1    0    0  502  501  0.00000000000E+00  0.00000000000E+00  0.67397388128E+03  0.67397388128E+03  0.00000000000E+00 0.  1.
         21   -1    0    0  504  502 -0.00000000000E+00 -0.00000000000E+00 -0.14022479499E+03  0.14022479499E+03  0.00000000000E+00 0. -1.
         25    1    1    2    0    0  0.21753061442E+03  0.25998084703E+02  0.57964978912E+02  0.25880573293E+03  0.12500000000E+03 0.  0.
         21    1    1    2  503  501 -0.24451220748E+03 -0.29979211987E+02  0.46469145465E+03  0.52594973218E+03  0.00000000000E+00 0.  1.
         21    1    1    2  504  503  0.26981593065E+02  0.39811272840E+01  0.11092652728E+02  0.29443211158E+02  0.00000000000E+00 0.  1.
<mgrwt>
<rscale>  4 0.27057520E+03</rscale>
<asrwt>0</asrwt>
<pdfrwt beam="1">  1       21 0.10368829E+00 0.27057520E+03</pdfrwt>
<pdfrwt beam="2">  1       21 0.21573046E-01 0.27057520E+03</pdfrwt>
<totfact> 0.14419334E+04</totfact>
</mgrwt>
</event>
<event>
 5    0  0.2193454E+000  0.4265269E+03  0.7546771E-02  0.1034963E+00
         21   -1    0    0  503  501  0.00000000000E+00  0.00000000000E+00  0.14667033980E+03  0.14667033980E+03  0.00000000000E+00 0.  1.
         21   -1    0    0  504  502 -0.00000000000E+00 -0.00000000000E+00 -0.21538083334E+04  0.21538083334E+04  0.00000000000E+00 0. -1.
         25    1    1    2    0    0  0.15523851875E+03 -0.36448434654E+03 -0.15620691070E+04  0.16163640467E+04  0.12500000000E+03 0.  0.
         21    1    1    2  503  502 -0.15850899220E+03  0.42628844358E+03 -0.36649894372E+03  0.58409623649E+03  0.00000000000E+00 0.  1.
         21    1    1    2  504  501  0.32704734442E+01 -0.61804097037E+02 -0.78569942879E+02  0.10001838996E+03  0.00000000000E+00 0.  1.
<mgrwt>
<rscale>  4 0.42652687E+03</rscale>
<asrwt>0</asrwt>
<pdfrwt beam="1">  1       21 0.22564670E-01 0.42652687E+03</pdfrwt>
<pdfrwt beam="2">  1       21 0.33135509E+00 0.42652687E+03</pdfrwt>
<totfact> 0.32876291E+02</totfact>
</mgrwt>
</event>
<event>
 5    0  0.2193454E+000  0.2558452E+03  0.7546771E-02  0.1109666E+00
         21   -1    0    0  503  501  0.00000000000E+00  0.00000000000E+00  0.47740286238E+03  0.47740286238E+03  0.00000000000E+00 0.  1.
         21   -1    0    0  501  502 -0.00000000000E+00 -0.00000000000E+00 -0.16371477150E+03  0.16371477150E+03  0.00000000000E+00 0.  1.
         25    1    1    2    0    0  0.20047789980E+03  0.10499839751E+03  0.30850849289E+03  0.40251526924E+03  0.12500000000E+03 0.  0.
         21    1    1    2  503  504 -0.17272336034E+02  0.10355493107E+02  0.90320943045E+01  0.22071442116E+02  0.00000000000E+00 0.  1.
         21    1    1    2  504  502 -0.18320556377E+03 -0.11535389062E+03 -0.38524963180E+01  0.21653092251E+03  0.00000000000E+00 0.  1.
<mgrwt>
<rscale>  4 0.25584518E+03</rscale>
<asrwt>0</asrwt>
<pdfrwt beam="1">  1       21 0.73446593E-01 0.25584518E+03</pdfrwt>
<pdfrwt beam="2">  1       21 0.25186888E-01 0.25584518E+03</pdfrwt>
<totfact> 0.24066101E+04</totfact>
</mgrwt>
</event>
<event>
 5    0  0.2193454E+000  0.2509210E+03  0.7546771E-02  0.1112724E+00
         21   -1    0    0  502  501  0.00000000000E+00  0.00000000000E+00  0.75515893111E+02  0.75515893111E+02  0.00000000000E+00 0. -1.
         21   -1    0    0  503  502 -0.00000000000E+00 -0.00000000000E+00 -0.14052688520E+04  0.14052688520E+04  0.00000000000E+00 0. -1.
         25    1    1    2    0    0  0.13659910046E+03 -0.18078451385E+03 -0.10978885361E+04  0.11279745531E+04  0.12500000000E+03 0.  0.
         21    1    1    2  503  504 -0.40771932279E+02  0.78566678016E+01  0.76697627928E+01  0.42224435485E+02  0.00000000000E+00 0. -1.
         21    1    1    2  504  501 -0.95827168180E+02  0.17292784605E+03 -0.23953418553E+03  0.31058575649E+03  0.00000000000E+00 0. -1.
<mgrwt>
<rscale>  4 0.25092098E+03</rscale>
<asrwt>0</asrwt>
<pdfrwt beam="1">  1       21 0.11617830E-01 0.25092098E+03</pdfrwt>
<pdfrwt beam="2">  1       21 0.21619520E+00 0.25092098E+03</pdfrwt>
<totfact> 0.62895678E+03</totfact>
</mgrwt>
</event>
<event>
 5    0  0.2193454E+000  0.4090399E+03  0.7546771E-02  0.1040694E+00
         21   -1    0    0  503  501  0.00000000000E+00  0.00000000000E+00  0.35880445233E+03  0.35880445233E+03  0.00000000000E+00 0. -1.
         21   -1    0    0  504  502 -0.00000000000E+00 -0.00000000000E+00 -0.12621119151E+04  0.12621119151E+04  0.00000000000E+00 0. -1.
         25    1    1    2    0    0 -0.28991612005E+03  0.23948476095E+03 -0.96094372741E+03  0.10394431945E+04  0.12500000000E+03 0.  0.
         21    1    1    2  503  502  0.35555571780E+03 -0.31498265719E+03  0.22861706305E+02  0.47555925015E+03  0.00000000000E+00 0. -1.
         21    1    1    2  504  501 -0.65639597754E+02  0.75497896240E+02  0.34774558318E+02  0.10591392277E+03  0.00000000000E+00 0. -1.
<mgrwt>
<rscale>  4 0.40903986E+03</rscale>
<asrwt>0</asrwt>
<pdfrwt beam="1">  1       21 0.55200686E-01 0.40903986E+03</pdfrwt>
<pdfrwt beam="2">  1       21 0.19417106E+00 0.40903986E+03</pdfrwt>
<totfact> 0.37969878E+02</totfact>
</mgrwt>
</event>
<event>
 5    0  0.2193454E+000  0.4883767E+03  0.7546771E-02  0.1016858E+00
         21   -1    0    0  502  501  0.00000000000E+00  0.00000000000E+00  0.11060427329E+03  0.11060427329E+03  0.00000000000E+00 0. -1.
         21   -1    0    0  504  502 -0.00000000000E+00 -0.00000000000E+00 -0.21210861146E+04  0.21210861146E+04  0.00000000000E+00 0. -1.
         25    1    1    2    0    0 -0.38031877654E+02  0.47057454252E+03 -0.92961293633E+03  0.10500914413E+04  0.12500000000E+03 0.  0.
         21    1    1    2  503  501  0.17465485066E+02 -0.44088410015E+03 -0.10030254351E+04  0.10957845849E+04  0.00000000000E+00 0. -1.
         21    1    1    2  504  503  0.20566392588E+02 -0.29690442367E+02 -0.77843469830E+02  0.85814361660E+02  0.00000000000E+00 0.  1.
<mgrwt>
<rscale>  4 0.48837672E+03</rscale>
<asrwt>0</asrwt>
<pdfrwt beam="1">  1       21 0.17016043E-01 0.48837672E+03</pdfrwt>
<pdfrwt beam="2">  1       21 0.32632091E+00 0.48837672E+03</pdfrwt>
<totfact> 0.58137911E+02</totfact>
</mgrwt>
</event>
<event>
 5    0  0.2193454E+000  0.2756079E+03  0.7546771E-02  0.1098112E+00
         21   -1    0    0  503  501  0.00000000000E+00  0.00000000000E+00  0.60141854973E+03  0.60141854973E+03  0.00000000000E+00 0.  1.
         21   -1    0    0  501  502 -0.00000000000E+00 -0.00000000000E+00 -0.52279757347E+03  0.52279757347E+03  0.00000000000E+00 0.  1.
         25    1    1    2    0    0 -0.21757475599E+03  0.15546072925E+03 -0.23022041612E+03  0.37434376285E+03  0.12500000000E+03 0.  0.
         21    1    1    2  503  504  0.13940502030E+03  0.80829830275E+02  0.43997352928E+03  0.46855514895E+03  0.00000000000E+00 0.  1.
         21    1    1    2  504  502  0.78169735690E+02 -0.23629055953E+03 -0.13113213689E+03  0.28131721139E+03  0.00000000000E+00 0.  1.
<mgrwt>
<rscale>  4 0.27560788E+03</rscale>
<asrwt>0</asrwt>
<pdfrwt beam="1">  1       21 0.92525931E-01 0.27560788E+03</pdfrwt>
<pdfrwt beam="2">  1       21 0.80430396E-01 0.27560788E+03</pdfrwt>
<totfact> 0.12503488E+03</totfact>
</mgrwt>
</event>
<event>
 5    0  0.2193454E+000  0.2825543E+03  0.7546771E-02  0.1094302E+00
         21   -1    0    0  503  501  0.00000000000E+00  0.00000000000E+00  0.36971036496E+03  0.36971036496E+03  0.00000000000E+00 0. -1.
         21   -1    0    0  504  502 -0.00000000000E+00 -0.00000000000E+00 -0.93778021572E+03  0.93778021572E+03  0.00000000000E+00 0.  1.
         25    1    1    2    0    0 -0.66567459684E+02 -0.24186607703E+03 -0.83150927590E+03  0.87747541379E+03  0.12500000000E+03 0.  0.
         21    1    1    2  503  502  0.96917642291E+02  0.26468243250E+03  0.17002367682E+03  0.32917756628E+03  0.00000000000E+00 0. -1.
         21    1    1    2  504  501 -0.30350182607E+02 -0.22816355473E+02  0.93415748317E+02  0.10083760060E+03  0.00000000000E+00 0.  1.
<mgrwt>
<rscale>  4 0.28255435E+03</rscale>
<asrwt>0</asrwt>
<pdfrwt beam="1">  1       21 0.56878519E-01 0.28255435E+03</pdfrwt>
<pdfrwt beam="2">  1       21 0.14427388E+00 0.28255435E+03</pdfrwt>
<totfact> 0.88840401E+02</totfact>
</mgrwt>
</event>
<event>
 5    0  0.2193454E+000  0.2252985E+03  0.7546771E-02  0.1129993E+00
         21   -1    0    0  502  501  0.00000000000E+00  0.00000000000E+00  0.82037149935E+03  0.82037149935E+03  0.00000000000E+00 0.  1.
         21   -1    0    0  503  502 -0.00000000000E+00 -0.00000000000E+00 -0.80196756886E+02  0.80196756886E+02  0.00000000000E+00 0.  1.
         25    1    1    2    0    0  0.14183048471E+03 -0.14117998723E+03  0.32643367684E+03  0.40277986613E+03  0.12500000000E+03 0.  0.
         21    1    1    2  503  504  0.34335877409E+02  0.79369250846E+02  0.95573454346E+02  0.12889032405E+03  0.00000000000E+00 0. -1.
         21    1    1    2  504  501 -0.17616636212E+03  0.61810736380E+02  0.31816761127E+03  0.36889806605E+03  0.00000000000E+00 0.  1.
<mgrwt>
<rscale>  4 0.22529853E+03</rscale>
<asrwt>0</asrwt>
<pdfrwt beam="1">  1       21 0.12621099E+00 0.22529853E+03</pdfrwt>
<pdfrwt beam="2">  1       21 0.12337963E-01 0.22529853E+03</pdfrwt>
<totfact> 0.25501906E+04</totfact>
</mgrwt>
</event>
<event>
 5    0  0.2193454E+000  0.2444324E+03  0.7546771E-02  0.1116875E+00
         21   -1    0    0  503  501  0.00000000000E+00  0.00000000000E+00  0.81941574529E+03  0.81941574529E+03  0.00000000000E+00 0.  1.
         21   -1    0    0  501  502 -0.00000000000E+00 -0.00000000000E+00 -0.11564879791E+03  0.11564879791E+03  0.00000000000E+00 0.  1.
         25    1    1    2    0    0 -0.60021303338E+02 -0.20594275554E+03  0.63173632339E+02  0.25618525180E+03  0.12500000000E+03 0.  0.
         21    1    1    2  503  504 -0.56267703790E+01  0.21639284320E+02  0.13337557031E+03  0.13523668854E+03  0.00000000000E+00 0.  1.
         21    1    1    2  504  502  0.65648073717E+02  0.18430347122E+03  0.50721774473E+03  0.54364260287E+03  0.00000000000E+00 0.  1.
<mgrwt>
<rscale>  4 0.24443244E+03</rscale>
<asrwt>0</asrwt>
<pdfrwt beam="1">  1       21 0.12606396E+00 0.24443244E+03</pdfrwt>
<pdfrwt beam="2">  1       21 0.17792123E-01 0.24443244E+03</pdfrwt>
<totfact> 0.12960415E+04</totfact>
</mgrwt>
</event>
<event>
 5    0  0.2193454E+000  0.2364302E+03  0.7546771E-02  0.1122194E+00
         21   -1    0    0  503  501  0.00000000000E+00  0.00000000000E+00  0.61560470867E+03  0.61560470867E+03  0.00000000000E+00 0.  1.
         21   -1    0    0  504  502 -0.00000000000E+00 -0.00000000000E+00 -0.18882960241E+03  0.18882960241E+03  0.00000000000E+00 0. -1.
         25    1    1    2    0    0 -0.16757490016E+02 -0.20606535614E+03 -0.65255038933E+02  0.25025380033E+03  0.12500000000E+03 0.  0.
         21    1    1    2  503  502  0.31382570106E+02  0.18037073721E+03  0.24742320816E+03  0.30779329506E+03  0.00000000000E+00 0.  1.
         21    1    1    2  504  501 -0.14625080091E+02  0.25694618933E+02  0.24460693703E+03  0.24638721569E+03  0.00000000000E+00 0. -1.
<mgrwt>
<rscale>  4 0.23643022E+03</rscale>
<asrwt>0</asrwt>
<pdfrwt beam="1">  1       21 0.94708416E-01 0.23643022E+03</pdfrwt>
<pdfrwt beam="2">  1       21 0.29050708E-01 0.23643022E+03</pdfrwt>
<totfact> 0.10286574E+04</totfact>
</mgrwt>
</event>
<event>
 5    0  0.2193454E+000  0.2732000E+03  0.7546771E-02  0.1099462E+00
         21   -1    0    0  502  501  0.00000000000E+00  0.00000000000E+00  0.28837849115E+03  0.28837849115E+03  0.00000000000E+00 0. -1.
         21   -1    0    0  503  502 -0.00000000000E+00 -0.00000000000E+00 -0.30961999918E+03  0.30961999918E+03  0.00000000000E+00 0.  1.
         25    1    1    2    0    0  0.55093069758E+01  0.23810472814E+03 -0.12586421126E+03  0.29696971850E+03  0.12500000000E+03 0.  0.
         21    1    1    2  503  504  0.24750811121E+02  0.13941244046E+02  0.10543424846E+02  0.30300573331E+02  0.00000000000E+00 0. -1.
         21    1    1    2  504  501 -0.30260118097E+02 -0.25204597219E+03  0.94079278380E+02  0.27072819850E+03  0.00000000000E+00 0. -1.
<mgrwt>
<rscale>  4 0.27319997E+03</rscale>
<asrwt>0</asrwt>
<pdfrwt beam="1">  1       21 0.44365922E-01 0.27319997E+03</pdfrwt>
<pdfrwt beam="2">  1       21 0.47633846E-01 0.27319997E+03</pdfrwt>
<totfact> 0.19715249E+04</totfact>
</mgrwt>
</event>
<event>
 5    0  0.2193454E+000  0.2358959E+03  0.7546771E-02  0.1122557E+00
         21   -1    0    0  502  501  0.00000000000E+00  0.00000000000E+00  0.69880032027E+03  0.69880032027E+03  0.00000000000E+00 0. -1.
         21   -1    0    0  504  502 -0.00000000000E+00 -0.00000000000E+00 -0.13973686197E+03  0.13973686197E+03  0.00000000000E+00 0. -1.
         25    1    1    2    0    0 -0.19235018910E+03  0.67021927507E+02  0.18634305130E+02  0.23971393647E+03  0.12500000000E+03 0.  0.
         21    1    1    2  503  501  0.15571934798E+03 -0.11783988427E+03  0.40954503369E+03  0.45372005497E+03  0.00000000000E+00 0. -1.
         21    1    1    2  504  503  0.36630841114E+02  0.50817956760E+02  0.13088411947E+03  0.14510319080E+03  0.00000000000E+00 0. -1.
<mgrwt>
<rscale>  4 0.23589590E+03</rscale>
<asrwt>0</asrwt>
<pdfrwt beam="1">  1       21 0.10750774E+00 0.23589590E+03</pdfrwt>
<pdfrwt beam="2">  1       21 0.21497979E-01 0.23589590E+03</pdfrwt>
<totfact> 0.13541798E+04</totfact>
</mgrwt>
</event>
<event>
 5    0  0.2193454E+000  0.2874778E+03  0.7546771E-02  0.1091673E+00
         21   -1    0    0  502  501  0.00000000000E+00  0.00000000000E+00  0.18775079156E+04  0.18775079156E+04  0.00000000000E+00 0. -1.
         21   -1    0    0  503  502 -0.00000000000E+00 -0.00000000000E+00 -0.57005112148E+02  0.57005112148E+02  0.00000000000E+00 0. -1.
         25    1    1    2    0    0 -0.22577390044E+03 -0.12666750802E+03  0.42167689908E+03  0.51034784111E+03  0.12500000000E+03 0.  0.
         21    1    1    2  503  504  0.15909687253E+02  0.23705060373E+02  0.83947482641E+02  0.88669204787E+02  0.00000000000E+00 0. -1.
         21    1    1    2  504  501  0.20986421319E+03  0.10296244765E+03  0.13148784218E+04  0.13354959819E+04  0.00000000000E+00 0. -1.
<mgrwt>
<rscale>  4 0.28747785E+03</rscale>
<asrwt>0</asrwt>
<pdfrwt beam="1">  1       21 0.28884732E+00 0.28747785E+03</pdfrwt>
<pdfrwt beam="2">  1       21 0.87700187E-02 0.28747785E+03</pdfrwt>
<totfact> 0.36956859E+03</totfact>
</mgrwt>
</event>
<event>
 5    0  0.2193454E+000  0.4015192E+03  0.7546771E-02  0.1043255E+00
         21   -1    0    0  502  501  0.00000000000E+00  0.00000000000E+00  0.52469131910E+03  0.52469131910E+03  0.00000000000E+00 0.  1.
         21   -1    0    0  503  502 -0.00000000000E+00 -0.00000000000E+00 -0.32461642238E+03  0.32461642238E+03  0.00000000000E+00 0.  1.
         25    1    1    2    0    0 -0.38628006071E+03  0.26860909713E+02  0.18567919074E+03  0.44725334615E+03  0.12500000000E+03 0.  0.
         21    1    1    2  503  504  0.10772363479E+02  0.19347871983E+02  0.83480961558E+01  0.23665896869E+02  0.00000000000E+00 0. -1.
         21    1    1    2  504  501  0.37550769723E+03 -0.46208781695E+02  0.60476098226E+01  0.37838849846E+03  0.00000000000E+00 0.  1.
<mgrwt>
<rscale>  4 0.40151925E+03</rscale>
<asrwt>0</asrwt>
<pdfrwt beam="1">  1       21 0.80721742E-01 0.40151925E+03</pdfrwt>
<pdfrwt beam="2">  1       21 0.49940988E-01 0.40151925E+03</pdfrwt>
<totfact> 0.45974438E+03</totfact>
</mgrwt>
</event>
<event>
 5    0  0.2193454E+000  0.2943847E+03  0.7546771E-02  0.1088082E+00
         21   -1    0    0  503  501  0.00000000000E+00  0.00000000000E+00  0.10031232681E+03  0.10031232681E+03  0.00000000000E+00 0.  1.
         21   -1    0    0  504  502 -0.00000000000E+00 -0.00000000000E+00 -0.98323355138E+03  0.98323355138E+03  0.00000000000E+00 0.  1.
         25    1    1    2    0    0  0.79049771695E+02 -0.25032689078E+03 -0.58980338845E+03  0.65757543725E+03  0.12500000000E+03 0.  0.
         21    1    1    2  503  502 -0.10962220575E+03  0.24555375755E+03 -0.22306309479E+03  0.34938634790E+03  0.00000000000E+00 0.  1.
         21    1    1    2  504  501  0.30572434052E+02  0.47731332249E+01 -0.70054741329E+02  0.76584093044E+02  0.00000000000E+00 0.  1.
<mgrwt>
<rscale>  4 0.29438466E+03</rscale>
<asrwt>0</asrwt>
<pdfrwt beam="1">  1       21 0.15432666E-01 0.29438466E+03</pdfrwt>
<pdfrwt beam="2">  1       21 0.15126670E+00 0.29438466E+03</pdfrwt>
<totfact> 0.10219926E+04</totfact>
</mgrwt>
</event>
<event>
 5    0  0.2193454E+000  0.2642520E+03  0.7546771E-02  0.1104615E+00
         21   -1    0    0  502  501  0.00000000000E+00  0.00000000000E+00  0.26901515688E+03  0.26901515688E+03  0.00000000000E+00 0.  1.
         21   -1    0    0  504  502 -0.00000000000E+00 -0.00000000000E+00 -0.69396486718E+03  0.69396486718E+03  0.00000000000E+00 0. -1.
         25    1    1    2    0    0  0.22771663090E+03 -0.51380630181E+02 -0.58914368593E+03  0.64591804110E+03  0.12500000000E+03 0.  0.
         21    1    1    2  503  501 -0.23103425836E+03  0.11860647929E+02  0.13536652726E+03  0.26803283420E+03  0.00000000000E+00 0.  1.
         21    1    1    2  504  503  0.33176274596E+01  0.39519982252E+02  0.28827448364E+02  0.49029148763E+02  0.00000000000E+00 0.  1.
<mgrwt>
<rscale>  4 0.26425205E+03</rscale>
<asrwt>0</asrwt>
<pdfrwt beam="1">  1       21 0.41386947E-01 0.26425205E+03</pdfrwt>
<pdfrwt beam="2">  1       21 0.10676383E+00 0.26425205E+03</pdfrwt>
<totfact> 0.37460211E+03</totfact>
</mgrwt>
</event>
<event>
 5    0  0.2193454E+000  0.2756231E+03  0.7546771E-02  0.1098104E+00
         21   -1    0    0  503  501  0.00000000000E+00  0.00000000000E+00  0.57955565581E+02  0.57955565581E+02  0.00000000000E+00 0.  1.
         21   -1    0    0  504  502 -0.00000000000E+00 -0.00000000000E+00 -0.12968659657E+04  0.12968659657E+04  0.00000000000E+00 0.  1.
         25    1    1    2    0    0  0.18621333661E+03 -0.14615942191E+03 -0.55023972298E+03  0.61190418865E+03  0.12500000000E+03 0.  0.
         21    1    1    2  503  502 -0.19306802721E+03  0.16787397309E+03 -0.62814665143E+03  0.67825153865E+03  0.00000000000E+00 0.  1.
         21    1    1    2  504  501  0.68546905982E+01 -0.21714551186E+02 -0.60524025668E+02  0.64665803942E+02  0.00000000000E+00 0. -1.
<mgrwt>
<rscale>  4 0.27562305E+03</rscale>
<asrwt>0</asrwt>
<pdfrwt beam="1">  1       21 0.89162415E-02 0.27562305E+03</pdfrwt>
<pdfrwt beam="2">  1       21 0.19951783E+00 0.27562305E+03</pdfrwt>
<totfact> 0.12676711E+04</totfact>
</mgrwt>
</event>
<event>
 5    0  0.2193454E+000  0.5349100E+03  0.7546771E-02  0.1005048E+00
         21   -1    0    0  503  501  0.00000000000E+00  0.00000000000E+00  0.13321883588E+04  0.13321883588E+04  0.00000000000E+00 0.  1.
         21   -1    0    0  501  502 -0.00000000000E+00 -0.00000000000E+00 -0.42168375540E+03  0.42168375540E+03  0.00000000000E+00 0.  1.
         25    1    1    2    0    0 -0.27736986313E+03 -0.21153146788E+03 -0.68772343638E+02  0.37687430017E+03  0.12500000000E+03 0.  0.
         21    1    1    2  503  504 -0.16083411161E+02 -0.32341986778E+03  0.17692232294E+03  0.36899945168E+03  0.00000000000E+00 0.  1.
         21    1    1    2  504  502  0.29345327429E+03  0.53495133566E+03  0.80235462415E+03  0.10079983624E+04  0.00000000000E+00 0.  1.
<mgrwt>
<rscale>  4 0.53491004E+03</rscale>
<asrwt>0</asrwt>
<pdfrwt beam="1">  1       21 0.20495205E+00 0.53491004E+03</pdfrwt>
<pdfrwt beam="2">  1       21 0.64874425E-01 0.53491004E+03</pdfrwt>
<totfact> 0.21206898E+02</totfact>
</mgrwt>
</event>
<event>
 5    0  0.2193454E+000  0.3078748E+03  0.7546771E-02  0.1081369E+00
         21   -1    0    0  503  501  0.00000000000E+00  0.00000000000E+00  0.78848979991E+03  0.78848979991E+03  0.00000000000E+00 0.  1.
         21   -1    0    0  501  502 -0.00000000000E+00 -0.00000000000E+00 -0.20678198114E+03  0.20678198114E+03  0.00000000000E+00 0.  1.
         25    1    1    2    0    0  0.19800016028E+03  0.19028061560E+03  0.11918096953E+02  0.30195664785E+03  0.12500000000E+03 0.  0.
         21    1    1    2  503  504  0.21836529793E+02  0.92859341209E+01  0.27118651244E+03  0.27222267931E+03  0.00000000000E+00 0.  1.
         21    1    1    2  504  502 -0.21983669008E+03 -0.19956654972E+03  0.29860320938E+03  0.42109245389E+03  0.00000000000E+00 0.  1.
<mgrwt>
<rscale>  4 0.30787477E+03</rscale>
<asrwt>0</asrwt>
<pdfrwt beam="1">  1       21 0.12130612E+00 0.30787477E+03</pdfrwt>
<pdfrwt beam="2">  1       21 0.31812613E-01 0.30787477E+03</pdfrwt>
<totfact> 0.45287823E+03</totfact>
</mgrwt>
</event>
<event>
 5    0  0.2193454E+000  0.4271331E+03  0.7546771E-02  0.1034769E+00
         21   -1    0    0  503  501  0.00000000000E+00  0.00000000000E+00  0.79836295755E+03  0.79836295755E+03  0.00000000000E+00 0. -1.
         21   -1    0    0  504  502 -0.00000000000E+00 -0.00000000000E+00 -0.33200961285E+03  0.33200961285E+03  0.00000000000E+00 0.  1.
         25    1    1    2    0    0 -0.34287980817E+03 -0.22192594715E+03 -0.87777434704E+02  0.43605913236E+03  0.12500000000E+03 0.  0.
         21    1    1    2  503  502  0.31149217257E+03  0.17873297631E+03  0.43734158140E+03  0.56589796714E+03  0.00000000000E+00 0. -1.
         21    1    1    2  504  501  0.31387635598E+02  0.43192970844E+02  0.11678919800E+03  0.12841547091E+03  0.00000000000E+00 0. -1.
<mgrwt>
<rscale>  4 0.42713310E+03</rscale>
<asrwt>0</asrwt>
<pdfrwt beam="1">  1       21 0.12282507E+00 0.42713310E+03</pdfrwt>
<pdfrwt beam="2">  1       21 0.51078402E-01 0.42713310E+03</pdfrwt>
<totfact> 0.15692538E+03</totfact>
</mgrwt>
</event>
<event>
 5    0  0.2193454E+000  0.3232779E+03  0.7546771E-02  0.1074283E+00
         21   -1    0    0  502  501  0.00000000000E+00  0.00000000000E+00  0.45792998467E+03  0.45792998467E+03  0.00000000000E+00 0.  1.
         21   -1    0    0  503  502 -0.00000000000E+00 -0.00000000000E+00 -0.29841579683E+03  0.29841579683E+03  0.00000000000E+00 0.  1.
         25    1    1    2    0    0  0.18135505507E+03 -0.23504099201E+03 -0.10483487261E+03  0.33874662278E+03  0.12500000000E+03 0.  0.
         21    1    1    2  503  504 -0.16083975438E+03  0.14227697484E+03  0.12354482622E+03  0.24774076823E+03  0.00000000000E+00 0.  1.
         21    1    1    2  504  501 -0.20515300689E+02  0.92764017179E+02  0.14080423422E+03  0.16985839049E+03  0.00000000000E+00 0.  1.
<mgrwt>
<rscale>  4 0.32298715E+03</rscale>
<asrwt>0</asrwt>
<pdfrwt beam="1">  1       21 0.70450767E-01 0.32327795E+03</pdfrwt>
<pdfrwt beam="2">  1       21 0.45910123E-01 0.32327795E+03</pdfrwt>
<totfact> 0.77168938E+03</totfact>
</mgrwt>
</event>
<event>
 5    0  0.2193454E+000  0.6235797E+03  0.7546771E-02  0.9857658E-01
         21   -1    0    0  503  501  0.00000000000E+00  0.00000000000E+00  0.97799218715E+03  0.97799218715E+03  0.00000000000E+00 0. -1.
         21   -1    0    0  501  502 -0.00000000000E+00 -0.00000000000E+00 -0.18540863287E+04  0.18540863287E+04  0.00000000000E+00 0. -1.
         25    1    1    2    0    0  0.11753275927E+03  0.70211319274E+03 -0.92358357380E+02  0.72865077445E+03  0.12500000000E+03 0.  0.
         21    1    1    2  503  504 -0.15541650276E+03 -0.10906038014E+03  0.58297338481E+03  0.61311208049E+03  0.00000000000E+00 0. -1.
         21    1    1    2  504  502  0.37883743483E+02 -0.59305281260E+03 -0.13667091689E+04  0.14903156609E+04  0.00000000000E+00 0. -1.
<mgrwt>
<rscale>  4 0.62357971E+03</rscale>
<asrwt>0</asrwt>
<pdfrwt beam="1">  1       21 0.15046034E+00 0.62357971E+03</pdfrwt>
<pdfrwt beam="2">  1       21 0.28524405E+00 0.62357971E+03</pdfrwt>
<totfact> 0.80675377E+00</totfact>
</mgrwt>
</event>
<event>
 5    0  0.2193454E+000  0.2522532E+03  0.7546771E-02  0.1111889E+00
         21   -1    0    0  503  501  0.00000000000E+00  0.00000000000E+00  0.71820059279E+02  0.71820059279E+02  0.00000000000E+00 0.  1.
         21   -1    0    0  504  502 -0.00000000000E+00 -0.00000000000E+00 -0.11979228860E+04  0.11979228860E+04  0.00000000000E+00 0.  1.
         25    1    1    2    0    0 -0.87941727126E+02 -0.21229121679E+03 -0.84952764413E+03  0.88888892796E+03  0.12500000000E+03 0.  0.
         21    1    1    2  503  502  0.79473013626E+02  0.18548263293E+03 -0.28702486851E+03  0.35086043116E+03  0.00000000000E+00 0.  1.
         21    1    1    2  504  501  0.84687134999E+01  0.26808583856E+02  0.10449685899E+02  0.29993586183E+02  0.00000000000E+00 0. -1.
<mgrwt>
<rscale>  4 0.25225321E+03</rscale>
<asrwt>0</asrwt>
<pdfrwt beam="1">  1       21 0.11049239E-01 0.25225321E+03</pdfrwt>
<pdfrwt beam="2">  1       21 0.18429584E+00 0.25225321E+03</pdfrwt>
<totfact> 0.11087999E+04</totfact>
</mgrwt>
</event>
<event>
 5    0  0.2193454E+000  0.4464041E+03  0.7546771E-02  0.1028800E+00
         21   -1    0    0  502  501  0.00000000000E+00  0.00000000000E+00  0.34367084205E+03  0.34367084205E+03  0.00000000000E+00 0. -1.
         21   -1    0    0  503  502 -0.00000000000E+00 -0.00000000000E+00 -0.63224776770E+03  0.63224776770E+03  0.00000000000E+00 0. -1.
         25    1    1    2    0    0 -0.34711971582E+03  0.25131562402E+03 -0.30608685936E+03  0.54126315731E+03  0.12500000000E+03 0.  0.
         21    1    1    2  503  504  0.36918100884E+02 -0.31591353253E+01  0.17123982798E+01  0.37092568215E+02  0.00000000000E+00 0. -1.
         21    1    1    2  504  501  0.31020161493E+03 -0.24815648869E+03  0.15797535428E+02  0.39756288423E+03  0.00000000000E+00 0. -1.
<mgrwt>
<rscale>  4 0.44640412E+03</rscale>
<asrwt>0</asrwt>
<pdfrwt beam="1">  1       21 0.52872437E-01 0.44640412E+03</pdfrwt>
<pdfrwt beam="2">  1       21 0.97268888E-01 0.44640412E+03</pdfrwt>
<totfact> 0.25794205E+03</totfact>
</mgrwt>
</event>
<event>
 5    0  0.2193454E+000  0.2516088E+03  0.7546771E-02  0.1112292E+00
         21   -1    0    0  502  501  0.00000000000E+00  0.00000000000E+00  0.96545746294E+02  0.96545746294E+02  0.00000000000E+00 0. -1.
         21   -1    0    0  503  502 -0.00000000000E+00 -0.00000000000E+00 -0.12613343442E+04  0.12613343442E+04  0.00000000000E+00 0. -1.
         25    1    1    2    0    0 -0.20165874456E+03  0.83759874369E+02 -0.10973116510E+04  0.11257885349E+04  0.12500000000E+03 0.  0.
         21    1    1    2  503  504  0.31183786004E+02 -0.52666269400E+00 -0.14537651132E+01  0.31222096600E+02  0.00000000000E+00 0.  1.
         21    1    1    2  504  501  0.17047495855E+03 -0.83233211675E+02 -0.66023181729E+02  0.20086945897E+03  0.00000000000E+00 0. -1.
<mgrwt>
<rscale>  4 0.25160876E+03</rscale>
<asrwt>0</asrwt>
<pdfrwt beam="1">  1       21 0.14853193E-01 0.25160876E+03</pdfrwt>
<pdfrwt beam="2">  1       21 0.19405143E+00 0.25160876E+03</pdfrwt>
<totfact> 0.55880561E+03</totfact>
</mgrwt>
</event>
<event>
 5    0  0.2193454E+000  0.2820318E+03  0.7546771E-02  0.1094584E+00
         21   -1    0    0  502  501  0.00000000000E+00  0.00000000000E+00  0.55567069971E+03  0.55567069971E+03  0.00000000000E+00 0. -1.
         21   -1    0    0  504  502 -0.00000000000E+00 -0.00000000000E+00 -0.23154012766E+04  0.23154012766E+04  0.00000000000E+00 0. -1.
         25    1    1    2    0    0 -0.12869902687E+03  0.21760863913E+03 -0.22740820984E+04  0.22915041675E+04  0.12500000000E+03 0.  0.
         21    1    1    2  503  501  0.12673285633E+03 -0.13765788740E+03  0.36274620259E+03  0.40816138760E+03  0.00000000000E+00 0. -1.
         21    1    1    2  504  503  0.19661705358E+01 -0.79950751727E+02  0.15160531889E+03  0.17140642124E+03  0.00000000000E+00 0. -1.
<mgrwt>
<rscale>  4 0.28203184E+03</rscale>
<asrwt>0</asrwt>
<pdfrwt beam="1">  1       21 0.85487802E-01 0.28203184E+03</pdfrwt>
<pdfrwt beam="2">  1       21 0.35621557E+00 0.28203184E+03</pdfrwt>
<totfact> 0.16430306E+01</totfact>
</mgrwt>
</event>
<event>
 5    0  0.2193454E+000  0.3121762E+03  0.7546771E-02  0.1079307E+00
         21   -1    0    0  502  501  0.00000000000E+00  0.00000000000E+00  0.50291841470E+03  0.50291841470E+03  0.00000000000E+00 0. -1.
         21   -1    0    0  503  502 -0.00000000000E+00 -0.00000000000E+00 -0.18551306938E+03  0.18551306938E+03  0.00000000000E+00 0. -1.
         25    1    1    2    0    0  0.22466086179E+03 -0.17707766172E+03  0.13049271521E+03  0.33835240478E+03  0.12500000000E+03 0.  0.
         21    1    1    2  503  504 -0.45341702695E+02  0.52653737368E+02  0.12295016334E+02  0.70565242781E+02  0.00000000000E+00 0. -1.
         21    1    1    2  504  501 -0.17931915909E+03  0.12442392435E+03  0.17461761377E+03  0.27951383652E+03  0.00000000000E+00 0. -1.
<mgrwt>
<rscale>  4 0.31217623E+03</rscale>
<asrwt>0</asrwt>
<pdfrwt beam="1">  1       21 0.77372063E-01 0.31217623E+03</pdfrwt>
<pdfrwt beam="2">  1       21 0.28540472E-01 0.31217623E+03</pdfrwt>
<totfact> 0.16387623E+04</totfact>
</mgrwt>
</event>
<event>
 5    0  0.2193454E+000  0.2643159E+03  0.7546771E-02  0.1104578E+00
         21   -1    0    0  503  501  0.00000000000E+00  0.00000000000E+00  0.43150277643E+03  0.43150277643E+03  0.00000000000E+00 0. -1.
         21   -1    0    0  504  502 -0.00000000000E+00 -0.00000000000E+00 -0.16686325310E+03  0.16686325310E+03  0.00000000000E+00 0. -1.
         25    1    1    2    0    0  0.15927856548E+03 -0.17641865256E+03  0.64920505648E+02  0.27628404667E+03  0.12500000000E+03 0.  0.
         21    1    1    2  503  502 -0.16644536917E+03  0.15451685826E+03  0.16629841304E+03  0.28148655844E+03  0.00000000000E+00 0. -1.
         21    1    1    2  504  501  0.71668036882E+01  0.21901794301E+02  0.33420604636E+02  0.40595424409E+02  0.00000000000E+00 0. -1.
<mgrwt>
<rscale>  4 0.26431591E+03</rscale>
<asrwt>0</asrwt>
<pdfrwt beam="1">  1       21 0.66385042E-01 0.26431591E+03</pdfrwt>
<pdfrwt beam="2">  1       21 0.25671270E-01 0.26431591E+03</pdfrwt>
<totfact> 0.28931256E+04</totfact>
</mgrwt>
</event>
<event>
 5    0  0.2193454E+000  0.1987997E+03  0.7546771E-02  0.1150756E+00
         21   -1    0    0  503  501  0.00000000000E+00  0.00000000000E+00  0.14126879944E+04  0.14126879944E+04  0.00000000000E+00 0. -1.
         21   -1    0    0  504  502 -0.00000000000E+00 -0.00000000000E+00 -0.12313001556E+03  0.12313001556E+03  0.00000000000E+00 0.  1.
         25    1    1    2    0    0  0.19918220014E+03  0.98828638542E+02  0.89036728695E+02  0.27017251471E+03  0.12500000000E+03 0.  0.
         21    1    1    2  503  502 -0.10202796833E+03 -0.50388301941E+02  0.78167777377E+02  0.13805393408E+03  0.00000000000E+00 0.  1.
         21    1    1    2  504  501 -0.97154231806E+02 -0.48440336602E+02  0.11223534728E+04  0.11275915612E+04  0.00000000000E+00 0. -1.
<mgrwt>
<rscale>  4 0.19879975E+03</rscale>
<asrwt>0</asrwt>
<pdfrwt beam="1">  1       21 0.21733660E+00 0.19879975E+03</pdfrwt>
<pdfrwt beam="2">  1       21 0.18943080E-01 0.19879975E+03</pdfrwt>
<totfact> 0.26512191E+03</totfact>
</mgrwt>
</event>
<event>
 5    0  0.2193454E+000  0.2858087E+03  0.7546771E-02  0.1092558E+00
         21   -1    0    0  503  501  0.00000000000E+00  0.00000000000E+00  0.81926274948E+03  0.81926274948E+03  0.00000000000E+00 0.  1.
         21   -1    0    0  501  502 -0.00000000000E+00 -0.00000000000E+00 -0.71178159625E+03  0.71178159625E+03  0.00000000000E+00 0. -1.
         25    1    1    2    0    0  0.29064023118E+03 -0.27029890121E+02 -0.49429027312E+03  0.58749487916E+03  0.12500000000E+03 0.  0.
         21    1    1    2  503  504 -0.14941467804E+03  0.21271748851E+03  0.65462295017E+03  0.70434699036E+03  0.00000000000E+00 0.  1.
         21    1    1    2  504  502 -0.14122555314E+03 -0.18568759839E+03 -0.52851523823E+02  0.23920247621E+03  0.00000000000E+00 0.  1.
<mgrwt>
<rscale>  4 0.28580867E+03</rscale>
<asrwt>0</asrwt>
<pdfrwt beam="1">  1       21 0.12604042E+00 0.28580867E+03</pdfrwt>
<pdfrwt beam="2">  1       21 0.10950486E+00 0.28580867E+03</pdfrwt>
<totfact> 0.28126094E+02</totfact>
</mgrwt>
</event>
<event>
 5    0  0.2193454E+000  0.2729355E+03  0.7546771E-02  0.1099611E+00
         21   -1    0    0  502  501  0.00000000000E+00  0.00000000000E+00  0.23985654905E+04  0.23985654905E+04  0.00000000000E+00 0.  1.
         21   -1    0    0  504  502 -0.00000000000E+00 -0.00000000000E+00 -0.70787225377E+02  0.70787225377E+02  0.00000000000E+00 0. -1.
         25    1    1    2    0    0  0.25675887779E+03  0.91210192324E+02  0.39340498875E+03  0.49460783019E+03  0.12500000000E+03 0.  0.
         21    1    1    2  503  501 -0.93273514530E+02 -0.16808667790E+03  0.13340074027E+04  0.13477866412E+04  0.00000000000E+00 0.  1.
         21    1    1    2  504  503 -0.16348536326E+03  0.76876485577E+02  0.60036587368E+03  0.62695824447E+03  0.00000000000E+00 0. -1.
<mgrwt>
<rscale>  4 0.27293548E+03</rscale>
<asrwt>0</asrwt>
<pdfrwt beam="1">  1       21 0.36901001E+00 0.27293548E+03</pdfrwt>
<pdfrwt beam="2">  1       21 0.10890344E-01 0.27293548E+03</pdfrwt>
<totfact> 0.84951663E+02</totfact>
</mgrwt>
</event>
<event>
 5    0  0.2193454E+000  0.3044404E+03  0.7546771E-02  0.1083042E+00
         21   -1    0    0  503  501  0.00000000000E+00  0.00000000000E+00  0.42290485959E+03  0.42290485959E+03  0.00000000000E+00 0.  1.
         21   -1    0    0  504  502 -0.00000000000E+00 -0.00000000000E+00 -0.11103699776E+04  0.11103699776E+04  0.00000000000E+00 0.  1.
         25    1    1    2    0    0 -0.28676472288E+03 -0.23442316271E+02 -0.46250963651E+03  0.55885929566E+03  0.12500000000E+03 0.  0.
         21    1    1    2  503  502  0.26804965464E+03 -0.71625150946E+02 -0.56036487120E+03  0.62529158676E+03  0.00000000000E+00 0.  1.
         21    1    1    2  504  501  0.18715068239E+02  0.95067467218E+02  0.33540938969E+03  0.34912395477E+03  0.00000000000E+00 0.  1.
<mgrwt>
<rscale>  4 0.30444037E+03</rscale>
<asrwt>0</asrwt>
<pdfrwt beam="1">  1       21 0.65062288E-01 0.30444037E+03</pdfrwt>
<pdfrwt beam="2">  1       21 0.17082615E+00 0.30444037E+03</pdfrwt>
<totfact> 0.41210679E+02</totfact>
</mgrwt>
</event>
<event>
 5    0  0.2193454E+000  0.4773654E+03  0.7546771E-02  0.1019862E+00
         21   -1    0    0  503  501  0.00000000000E+00  0.00000000000E+00  0.12474650544E+04  0.12474650544E+04  0.00000000000E+00 0.  1.
         21   -1    0    0  501  502 -0.00000000000E+00 -0.00000000000E+00 -0.23160149298E+03  0.23160149298E+03  0.00000000000E+00 0.  1.
         25    1    1    2    0    0  0.38814724577E+03  0.25364863161E+03  0.27492390690E+03  0.55335708842E+03  0.12500000000E+03 0.  0.
         21    1    1    2  503  504  0.72649911351E+01 -0.24496226539E+02  0.26370992865E+03  0.26494484648E+03  0.00000000000E+00 0.  1.
         21    1    1    2  504  502 -0.39541223691E+03 -0.22915240507E+03  0.47722972589E+03  0.66076461249E+03  0.00000000000E+00 0.  1.
<mgrwt>
<rscale>  4 0.47736541E+03</rscale>
<asrwt>0</asrwt>
<pdfrwt beam="1">  1       21 0.19191770E+00 0.47736541E+03</pdfrwt>
<pdfrwt beam="2">  1       21 0.35631000E-01 0.47736541E+03</pdfrwt>
<totfact> 0.95007882E+02</totfact>
</mgrwt>
</event>
<event>
 5    0  0.2193454E+000  0.2492863E+03  0.7546771E-02  0.1113757E+00
         21   -1    0    0  503  501  0.00000000000E+00  0.00000000000E+00  0.21893954603E+03  0.21893954603E+03  0.00000000000E+00 0. -1.
         21   -1    0    0  504  502 -0.00000000000E+00 -0.00000000000E+00 -0.33676696283E+03  0.33676696283E+03  0.00000000000E+00 0. -1.
         25    1    1    2    0    0  0.49846074351E+02  0.19802146883E+03 -0.12067109806E+03  0.26811125891E+03  0.12500000000E+03 0.  0.
         21    1    1    2  503  502 -0.53380523517E+02 -0.22434899012E+03 -0.43023624330E+02  0.23459109511E+03  0.00000000000E+00 0. -1.
         21    1    1    2  504  501  0.35344491660E+01  0.26327521284E+02  0.45867305586E+02  0.53004154833E+02  0.00000000000E+00 0.  1.
<mgrwt>
<rscale>  4 0.24928629E+03</rscale>
<asrwt>0</asrwt>
<pdfrwt beam="1">  1       21 0.33683007E-01 0.24928629E+03</pdfrwt>
<pdfrwt beam="2">  1       21 0.51810302E-01 0.24928629E+03</pdfrwt>
<totfact> 0.29187758E+04</totfact>
</mgrwt>
</event>
<event>
 5    0  0.2193454E+000  0.3343257E+03  0.7546771E-02  0.1069239E+00
         21   -1    0    0  502  501  0.00000000000E+00  0.00000000000E+00  0.55782531375E+02  0.55782531375E+02  0.00000000000E+00 0.  1.
         21   -1    0    0  503  502 -0.00000000000E+00 -0.00000000000E+00 -0.23510461731E+04  0.23510461731E+04  0.00000000000E+00 0.  1.
         25    1    1    2    0    0 -0.20397599908E+03  0.22255565888E+03 -0.14035793817E+04  0.14411097495E+04  0.12500000000E+03 0.  0.
         21    1    1    2  503  504  0.21934094339E+02  0.34441871558E+02 -0.22138394001E+03  0.22511818208E+03  0.00000000000E+00 0. -1.
         21    1    1    2  504  501  0.18204190474E+03 -0.25699753044E+03 -0.67030032008E+03  0.74060077291E+03  0.00000000000E+00 0.  1.
<mgrwt>
<rscale>  4 0.33432566E+03</rscale>
<asrwt>0</asrwt>
<pdfrwt beam="1">  1       21 0.85819252E-02 0.33432566E+03</pdfrwt>
<pdfrwt beam="2">  1       21 0.36169952E+00 0.33432566E+03</pdfrwt>
<totfact> 0.13605006E+03</totfact>
</mgrwt>
</event>
<event>
 5    0  0.2193454E+000  0.1788299E+03  0.7546771E-02  0.1168940E+00
         21   -1    0    0  503  501  0.00000000000E+00  0.00000000000E+00  0.13324835892E+04  0.13324835892E+04  0.00000000000E+00 0.  1.
         21   -1    0    0  504  502 -0.00000000000E+00 -0.00000000000E+00 -0.11338735167E+04  0.11338735167E+04  0.00000000000E+00 0.  1.
         25    1    1    2    0    0  0.19403819559E+03 -0.90082800707E+02 -0.10295993114E+02  0.24798536208E+03  0.12500000000E+03 0.  0.
         21    1    1    2  503  502 -0.12568101471E+03 -0.11739562316E+01 -0.99810490441E+03  0.10059873239E+04  0.00000000000E+00 0.  1.
         21    1    1    2  504  501 -0.68357180874E+02  0.91256756939E+02  0.12070109701E+04  0.12123844200E+04  0.00000000000E+00 0.  1.
<mgrwt>
<rscale>  4 0.17882991E+03</rscale>
<asrwt>0</asrwt>
<pdfrwt beam="1">  1       21 0.20499748E+00 0.17882991E+03</pdfrwt>
<pdfrwt beam="2">  1       21 0.17444208E+00 0.17882991E+03</pdfrwt>
<totfact> 0.25412703E+01</totfact>
</mgrwt>
</event>
<event>
 5    0  0.2193454E+000  0.2841379E+03  0.7546771E-02  0.1093450E+00
         21   -1    0    0  503  501  0.00000000000E+00  0.00000000000E+00  0.61133597590E+03  0.61133597590E+03  0.00000000000E+00 0. -1.
         21   -1    0    0  504  502 -0.00000000000E+00 -0.00000000000E+00 -0.19825969986E+03  0.19825969986E+03  0.00000000000E+00 0. -1.
         25    1    1    2    0    0 -0.24678085084E+03 -0.51911304497E+02  0.25732349962E+03  0.38136066306E+03  0.12500000000E+03 0.  0.
         21    1    1    2  503  502  0.24560847475E+03  0.74148839163E+02 -0.14085085852E+02  0.25694350130E+03  0.00000000000E+00 0. -1.
         21    1    1    2  504  501  0.11723760941E+01 -0.22237534666E+02  0.16983786227E+03  0.17129151139E+03  0.00000000000E+00 0. -1.
<mgrwt>
<rscale>  4 0.28413791E+03</rscale>
<asrwt>0</asrwt>
<pdfrwt beam="1">  1       21 0.94051688E-01 0.28413791E+03</pdfrwt>
<pdfrwt beam="2">  1       21 0.30501493E-01 0.28413791E+03</pdfrwt>
<totfact> 0.92623363E+03</totfact>
</mgrwt>
</event>
<event>
 5    0  0.2193454E+000  0.2457512E+03  0.7546771E-02  0.1116020E+00
         21   -1    0    0  503  501  0.00000000000E+00  0.00000000000E+00  0.25567326623E+03  0.25567326623E+03  0.00000000000E+00 0.  1.
         21   -1    0    0  504  502 -0.00000000000E+00 -0.00000000000E+00 -0.71626249522E+03  0.71626249522E+03  0.00000000000E+00 0.  1.
         25    1    1    2    0    0 -0.37212620904E+02 -0.20828793670E+03 -0.64156844562E+03  0.68702526456E+03  0.12500000000E+03 0.  0.
         21    1    1    2  503  502  0.44191629239E+02  0.18725857399E+03  0.13872357835E+03  0.23719802870E+03  0.00000000000E+00 0.  1.
         21    1    1    2  504  501 -0.69790083351E+01  0.21029362707E+02  0.42255638287E+02  0.47712468184E+02  0.00000000000E+00 0. -1.
<mgrwt>
<rscale>  4 0.24575118E+03</rscale>
<asrwt>0</asrwt>
<pdfrwt beam="1">  1       21 0.39334349E-01 0.24575118E+03</pdfrwt>
<pdfrwt beam="2">  1       21 0.11019423E+00 0.24575118E+03</pdfrwt>
<totfact> 0.38930041E+03</totfact>
</mgrwt>
</event>
<event>
 5    0  0.2193454E+000  0.4365111E+03  0.7546771E-02  0.1031823E+00
         21   -1    0    0  502  501  0.00000000000E+00  0.00000000000E+00  0.54759841294E+03  0.54759841294E+03  0.00000000000E+00 0.  1.
         21   -1    0    0  503  502 -0.00000000000E+00 -0.00000000000E+00 -0.39276585513E+03  0.39276585513E+03  0.00000000000E+00 0.  1.
         25    1    1    2    0    0 -0.36321415105E+03  0.21916619516E+03 -0.62297053786E+02  0.44661422227E+03  0.12500000000E+03 0.  0.
         21    1    1    2  503  504  0.27646681601E+02  0.14524569409E+02  0.32522774018E+02  0.45089166658E+02  0.00000000000E+00 0. -1.
         21    1    1    2  504  501  0.33556746945E+03 -0.23369076457E+03  0.18460683758E+03  0.44866087915E+03  0.00000000000E+00 0.  1.
<mgrwt>
<rscale>  4 0.43651114E+03</rscale>
<asrwt>0</asrwt>
<pdfrwt beam="1">  1       21 0.84245909E-01 0.43651114E+03</pdfrwt>
<pdfrwt beam="2">  1       21 0.60425516E-01 0.43651114E+03</pdfrwt>
<totfact> 0.27249240E+03</totfact>
</mgrwt>
</event>
<event>
 5    0  0.2193454E+000  0.2589286E+03  0.7546771E-02  0.1107789E+00
         21   -1    0    0  503  501  0.00000000000E+00  0.00000000000E+00  0.72670264953E+03  0.72670264953E+03  0.00000000000E+00 0. -1.
         21   -1    0    0  501  502 -0.00000000000E+00 -0.00000000000E+00 -0.73918053083E+03  0.73918053083E+03  0.00000000000E+00 0.  1.
         25    1    1    2    0    0  0.22805272979E+03 -0.15648389248E+02 -0.68381535142E+03  0.73176591510E+03  0.12500000000E+03 0.  0.
         21    1    1    2  503  504 -0.26107644047E+02  0.16850455814E+02  0.37039048404E+03  0.37169161627E+03  0.00000000000E+00 0. -1.
         21    1    1    2  504  502 -0.20194508575E+03 -0.12020665666E+01  0.30094698607E+03  0.36242564899E+03  0.00000000000E+00 0. -1.
<mgrwt>
<rscale>  4 0.25892865E+03</rscale>
<asrwt>0</asrwt>
<pdfrwt beam="1">  1       21 0.11180041E+00 0.25892865E+03</pdfrwt>
<pdfrwt beam="2">  1       21 0.11372008E+00 0.25892865E+03</pdfrwt>
<totfact> 0.35363709E+02</totfact>
</mgrwt>
</event>
<event>
 5    0  0.2193454E+000  0.2749759E+03  0.7546771E-02  0.1098465E+00
         21   -1    0    0  502  501  0.00000000000E+00  0.00000000000E+00  0.68622034712E+03  0.68622034712E+03  0.00000000000E+00 0.  1.
         21   -1    0    0  503  502 -0.00000000000E+00 -0.00000000000E+00 -0.22270414217E+03  0.22270414217E+03  0.00000000000E+00 0.  1.
         25    1    1    2    0    0  0.17445652557E+02  0.24532159322E+03 -0.69746954699E+02  0.28456400437E+03  0.12500000000E+03 0.  0.
         21    1    1    2  503  504 -0.83628609393E+02 -0.23319101348E+03  0.47338684581E+03  0.53429102450E+03  0.00000000000E+00 0.  1.
         21    1    1    2  504  501  0.66182956836E+02 -0.12130579749E+02  0.59876313844E+02  0.90069460419E+02  0.00000000000E+00 0. -1.
<mgrwt>
<rscale>  4 0.27497591E+03</rscale>
<asrwt>0</asrwt>
<pdfrwt beam="1">  1       21 0.10557236E+00 0.27497591E+03</pdfrwt>
<pdfrwt beam="2">  1       21 0.34262176E-01 0.27497591E+03</pdfrwt>
<totfact> 0.56027522E+03</totfact>
</mgrwt>
</event>
<event>
 5    0  0.2193454E+000  0.2761556E+03  0.7546771E-02  0.1097807E+00
         21   -1    0    0  503  501  0.00000000000E+00  0.00000000000E+00  0.30305486224E+03  0.30305486224E+03  0.00000000000E+00 0.  1.
         21   -1    0    0  504  502 -0.00000000000E+00 -0.00000000000E+00 -0.97463522793E+03  0.97463522793E+03  0.00000000000E+00 0.  1.
         25    1    1    2    0    0 -0.20373219144E+03  0.14088889230E+03 -0.74773065699E+03  0.79754788020E+03  0.12500000000E+03 0.  0.
         21    1    1    2  503  502  0.24984090949E+03 -0.55299574980E+02 -0.10337767032E+03  0.27598091559E+03  0.00000000000E+00 0.  1.
         21    1    1    2  504  501 -0.46108718049E+02 -0.85589317324E+02  0.17952796163E+03  0.20416129439E+03  0.00000000000E+00 0.  1.
<mgrwt>
<rscale>  4 0.27615565E+03</rscale>
<asrwt>0</asrwt>
<pdfrwt beam="1">  1       21 0.46623824E-01 0.27615565E+03</pdfrwt>
<pdfrwt beam="2">  1       21 0.14994388E+00 0.27615565E+03</pdfrwt>
<totfact> 0.12265779E+03</totfact>
</mgrwt>
</event>
<event>
 5    0  0.2193454E+000  0.2652636E+03  0.7546771E-02  0.1104021E+00
         21   -1    0    0  503  501  0.00000000000E+00  0.00000000000E+00  0.41931351774E+03  0.41931351774E+03  0.00000000000E+00 0.  1.
         21   -1    0    0  501  502 -0.00000000000E+00 -0.00000000000E+00 -0.43511300891E+03  0.43511300891E+03  0.00000000000E+00 0.  1.
         25    1    1    2    0    0 -0.79012017023E+02  0.18583707234E+03  0.20742084238E+03  0.31532003131E+03  0.12500000000E+03 0.  0.
         21    1    1    2  503  504 -0.23823200845E+02  0.29466686605E+02  0.11732469261E+03  0.12329198682E+03  0.00000000000E+00 0.  1.
         21    1    1    2  504  502  0.10283521787E+03 -0.21530375895E+03 -0.34054502617E+03  0.41581450852E+03  0.00000000000E+00 0.  1.
<mgrwt>
<rscale>  4 0.26526356E+03</rscale>
<asrwt>0</asrwt>
<pdfrwt beam="1">  1       21 0.64509772E-01 0.26526356E+03</pdfrwt>
<pdfrwt beam="2">  1       21 0.66940463E-01 0.26526356E+03</pdfrwt>
<totfact> 0.43057057E+03</totfact>
</mgrwt>
</event>
<event>
 5    0  0.2193454E+000  0.2707359E+03  0.7546771E-02  0.1100859E+00
         21   -1    0    0  503  501  0.00000000000E+00  0.00000000000E+00  0.37749747554E+03  0.37749747554E+03  0.00000000000E+00 0.  1.
         21   -1    0    0  501  502 -0.00000000000E+00 -0.00000000000E+00 -0.48427678976E+03  0.48427678976E+03  0.00000000000E+00 0.  1.
         25    1    1    2    0    0  0.19480637484E+03 -0.12888652098E+03 -0.31321943215E+03  0.41023489813E+03  0.12500000000E+03 0.  0.
         21    1    1    2  503  504 -0.23298400795E+03  0.66442863332E+02  0.26408012391E+03  0.35837761354E+03  0.00000000000E+00 0.  1.
         21    1    1    2  504  502  0.38177633104E+02  0.62443657649E+02 -0.57640005974E+02  0.93161753626E+02  0.00000000000E+00 0.  1.
<mgrwt>
<rscale>  4 0.27073588E+03</rscale>
<asrwt>0</asrwt>
<pdfrwt beam="1">  1       21 0.58076535E-01 0.27073588E+03</pdfrwt>
<pdfrwt beam="2">  1       21 0.74504121E-01 0.27073588E+03</pdfrwt>
<totfact> 0.42481908E+03</totfact>
</mgrwt>
</event>
<event>
 5    0  0.2193454E+000  0.2127103E+03  0.7546771E-02  0.1139438E+00
         21   -1    0    0  503  501  0.00000000000E+00  0.00000000000E+00  0.13076688518E+04  0.13076688518E+04  0.00000000000E+00 0.  1.
         21   -1    0    0  501  502 -0.00000000000E+00 -0.00000000000E+00 -0.43452267918E+03  0.43452267918E+03  0.00000000000E+00 0. -1.
         25    1    1    2    0    0  0.11417180662E+03 -0.17214522349E+03 -0.33650880176E+03  0.41416464487E+03  0.12500000000E+03 0.  0.
         21    1    1    2  503  504  0.27271946405E+01  0.12508173167E+03  0.11945770270E+04  0.12011107987E+04  0.00000000000E+00 0.  1.
         21    1    1    2  504  502 -0.11689900126E+03  0.47063491817E+02  0.15077947357E+02  0.12691608745E+03  0.00000000000E+00 0. -1.
<mgrwt>
<rscale>  4 0.21271032E+03</rscale>
<asrwt>0</asrwt>
<pdfrwt beam="1">  1       21 0.20117982E+00 0.21271032E+03</pdfrwt>
<pdfrwt beam="2">  1       21 0.66849644E-01 0.21271032E+03</pdfrwt>
<totfact> 0.26378119E+02</totfact>
</mgrwt>
</event>
<event>
 5    0  0.2193454E+000  0.3489547E+03  0.7546771E-02  0.1063045E+00
         21   -1    0    0  503  501  0.00000000000E+00  0.00000000000E+00  0.90877966701E+03  0.90877966701E+03  0.00000000000E+00 0.  1.
         21   -1    0    0  501  502 -0.00000000000E+00 -0.00000000000E+00 -0.28444935008E+03  0.28444935008E+03  0.00000000000E+00 0.  1.
         25    1    1    2    0    0 -0.17941364048E+03 -0.24254032169E+03  0.24506129193E+03  0.40828311113E+03  0.12500000000E+03 0.  0.
         21    1    1    2  503  504 -0.50923829152E+02 -0.32175310009E+01  0.43977717016E+03  0.44272739725E+03  0.00000000000E+00 0.  1.
         21    1    1    2  504  502  0.23033746963E+03  0.24575785269E+03 -0.60508145151E+02  0.34221850871E+03  0.00000000000E+00 0.  1.
<mgrwt>
<rscale>  4 0.34895470E+03</rscale>
<asrwt>0</asrwt>
<pdfrwt beam="1">  1       21 0.13981226E+00 0.34895470E+03</pdfrwt>
<pdfrwt beam="2">  1       21 0.43761439E-01 0.34895470E+03</pdfrwt>
<totfact> 0.16110253E+03</totfact>
</mgrwt>
</event>
<event>
 5    0  0.2193454E+000  0.3969035E+03  0.7546771E-02  0.1044857E+00
         21   -1    0    0  503  501  0.00000000000E+00  0.00000000000E+00  0.40803796591E+03  0.40803796591E+03  0.00000000000E+00 0. -1.
         21   -1    0    0  504  502 -0.00000000000E+00 -0.00000000000E+00 -0.10781366431E+04  0.10781366431E+04  0.00000000000E+00 0. -1.
         25    1    1    2    0    0 -0.25774347659E+03 -0.22482593830E+03 -0.73797391408E+03  0.82292703208E+03  0.12500000000E+03 0.  0.
         21    1    1    2  503  502  0.49357431081E+02 -0.96440743303E+02 -0.17785464970E+03  0.20825284966E+03  0.00000000000E+00 0. -1.
         21    1    1    2  504  501  0.20838604551E+03  0.32126668161E+03  0.24572988659E+03  0.45499472727E+03  0.00000000000E+00 0. -1.
<mgrwt>
<rscale>  4 0.39690347E+03</rscale>
<asrwt>0</asrwt>
<pdfrwt beam="1">  1       21 0.62775072E-01 0.39690347E+03</pdfrwt>
<pdfrwt beam="2">  1       21 0.16586717E+00 0.39690347E+03</pdfrwt>
<totfact> 0.45664021E+02</totfact>
</mgrwt>
</event>
<event>
 5    0  0.2193454E+000  0.3248182E+03  0.7546771E-02  0.1073453E+00
         21   -1    0    0  503  501  0.00000000000E+00  0.00000000000E+00  0.45699084743E+03  0.45699084743E+03  0.00000000000E+00 0.  1.
         21   -1    0    0  504  502 -0.00000000000E+00 -0.00000000000E+00 -0.20586076623E+04  0.20586076623E+04  0.00000000000E+00 0.  1.
         25    1    1    2    0    0  0.20802202436E+03  0.22067600500E+03 -0.18264520084E+04  0.18556731934E+04  0.12500000000E+03 0.  0.
         21    1    1    2  503  502 -0.21451492653E+03 -0.17993510998E+03 -0.12574328730E+03  0.30692779576E+03  0.00000000000E+00 0.  1.
         21    1    1    2  504  501  0.64929021668E+01 -0.40740895021E+02  0.35057848083E+03  0.35299752056E+03  0.00000000000E+00 0.  1.
<mgrwt>
<rscale>  4 0.32481816E+03</rscale>
<asrwt>0</asrwt>
<pdfrwt beam="1">  1       21 0.70306283E-01 0.32481816E+03</pdfrwt>
<pdfrwt beam="2">  1       21 0.31670888E+00 0.32481816E+03</pdfrwt>
<totfact> 0.42040364E+01</totfact>
</mgrwt>
</event>
<event>
 5    0  0.2193454E+000  0.2669053E+03  0.7546771E-02  0.1103064E+00
         21   -1    0    0  503  501  0.00000000000E+00  0.00000000000E+00  0.55677245952E+02  0.55677245952E+02  0.00000000000E+00 0. -1.
         21   -1    0    0  504  502 -0.00000000000E+00 -0.00000000000E+00 -0.13928324931E+04  0.13928324931E+04  0.00000000000E+00 0. -1.
         25    1    1    2    0    0  0.14358014137E+03  0.16361795046E+03 -0.56506930302E+03  0.61831578334E+03  0.12500000000E+03 0.  0.
         21    1    1    2  503  502 -0.16668040244E+03 -0.18574733115E+03 -0.75221518467E+03  0.79253524315E+03  0.00000000000E+00 0. -1.
         21    1    1    2  504  501  0.23100261071E+02  0.22129380691E+02 -0.19870759480E+02  0.37658712586E+02  0.00000000000E+00 0. -1.
<mgrwt>
<rscale>  4 0.26690528E+03</rscale>
<asrwt>0</asrwt>
<pdfrwt beam="1">  1       21 0.85657307E-02 0.26690528E+03</pdfrwt>
<pdfrwt beam="2">  1       21 0.21428191E+00 0.26690528E+03</pdfrwt>
<totfact> 0.10997593E+04</totfact>
</mgrwt>
</event>
<event>
 5    0  0.2193454E+000  0.2564715E+03  0.7546771E-02  0.1109282E+00
         21   -1    0    0  502  501  0.00000000000E+00  0.00000000000E+00  0.58708788317E+02  0.58708788317E+02  0.00000000000E+00 0. -1.
         21   -1    0    0  504  502 -0.00000000000E+00 -0.00000000000E+00 -0.12370191458E+04  0.12370191458E+04  0.00000000000E+00 0. -1.
         25    1    1    2    0    0  0.54583555723E+02 -0.21116306064E+03 -0.80277331771E+03  0.84121293521E+03  0.12500000000E+03 0.  0.
         21    1    1    2  503  501 -0.47335812186E+02  0.23046902943E+03 -0.34105189825E+03  0.41433446628E+03  0.00000000000E+00 0. -1.
         21    1    1    2  504  503 -0.72477435376E+01 -0.19305968795E+02 -0.34485141548E+02  0.40180532663E+02  0.00000000000E+00 0. -1.
<mgrwt>
<rscale>  4 0.25647147E+03</rscale>
<asrwt>0</asrwt>
<pdfrwt beam="1">  1       21 0.90321218E-02 0.25647147E+03</pdfrwt>
<pdfrwt beam="2">  1       21 0.19031063E+00 0.25647147E+03</pdfrwt>
<totfact> 0.14417504E+04</totfact>
</mgrwt>
</event>
<event>
 5    0  0.2193454E+000  0.3354837E+03  0.7546771E-02  0.1068736E+00
         21   -1    0    0  503  501  0.00000000000E+00  0.00000000000E+00  0.11855604805E+03  0.11855604805E+03  0.00000000000E+00 0. -1.
         21   -1    0    0  501  502 -0.00000000000E+00 -0.00000000000E+00 -0.11823887346E+04  0.11823887346E+04  0.00000000000E+00 0. -1.
         25    1    1    2    0    0  0.65522547468E+02  0.30700304739E+03 -0.76960867913E+03  0.84051567167E+03  0.12500000000E+03 0.  0.
         21    1    1    2  503  504  0.39544638687E+02 -0.17237834745E+02 -0.18731596581E+02  0.47029715139E+02  0.00000000000E+00 0. -1.
         21    1    1    2  504  502 -0.10506718615E+03 -0.28976521264E+03 -0.27549241088E+03  0.41339939588E+03  0.00000000000E+00 0. -1.
<mgrwt>
<rscale>  4 0.33548367E+03</rscale>
<asrwt>0</asrwt>
<pdfrwt beam="1">  1       21 0.18239392E-01 0.33548367E+03</pdfrwt>
<pdfrwt beam="2">  1       21 0.18190596E+00 0.33548367E+03</pdfrwt>
<totfact> 0.43863265E+03</totfact>
</mgrwt>
</event>
<event>
 5    0  0.2193454E+000  0.3412321E+03  0.7546771E-02  0.1066272E+00
         21   -1    0    0  503  501  0.00000000000E+00  0.00000000000E+00  0.89022528575E+03  0.89022528575E+03  0.00000000000E+00 0. -1.
         21   -1    0    0  504  502 -0.00000000000E+00 -0.00000000000E+00 -0.36872327431E+03  0.36872327431E+03  0.00000000000E+00 0. -1.
         25    1    1    2    0    0 -0.69200569721E+02  0.31616788397E+03 -0.23926456206E+03  0.42145388878E+03  0.12500000000E+03 0.  0.
         21    1    1    2  503  502  0.77830737533E+02 -0.27024066615E+03  0.50988037451E+03  0.58229342918E+03  0.00000000000E+00 0. -1.
         21    1    1    2  504  501 -0.86301678122E+01 -0.45927217820E+02  0.25088619899E+03  0.25520124211E+03  0.00000000000E+00 0. -1.
<mgrwt>
<rscale>  4 0.34123209E+03</rscale>
<asrwt>0</asrwt>
<pdfrwt beam="1">  1       21 0.13695774E+00 0.34123209E+03</pdfrwt>
<pdfrwt beam="2">  1       21 0.56726658E-01 0.34123209E+03</pdfrwt>
<totfact> 0.98681421E+02</totfact>
</mgrwt>
</event>
<event>
 5    0  0.2193454E+000  0.3383580E+03  0.7546771E-02  0.1067497E+00
         21   -1    0    0  503  501  0.00000000000E+00  0.00000000000E+00  0.42329098511E+03  0.42329098511E+03  0.00000000000E+00 0.  1.
         21   -1    0    0  504  502 -0.00000000000E+00 -0.00000000000E+00 -0.49606050894E+03  0.49606050894E+03  0.00000000000E+00 0. -1.
         25    1    1    2    0    0 -0.22324017512E+03 -0.19450967277E+03 -0.32180960183E+02  0.32300279068E+03  0.12500000000E+03 0.  0.
         21    1    1    2  503  502  0.27107447579E+03  0.18102470186E+03 -0.23102791934E+03  0.39953124236E+03  0.00000000000E+00 0. -1.
         21    1    1    2  504  501 -0.47834300673E+02  0.13484970913E+02  0.19043935569E+03  0.19681746101E+03  0.00000000000E+00 0.  1.
<mgrwt>
<rscale>  4 0.33835799E+03</rscale>
<asrwt>0</asrwt>
<pdfrwt beam="1">  1       21 0.65121690E-01 0.33835799E+03</pdfrwt>
<pdfrwt beam="2">  1       21 0.76317001E-01 0.33835799E+03</pdfrwt>
<totfact> 0.30242173E+03</totfact>
</mgrwt>
</event>
<event>
 5    0  0.2193454E+000  0.3171630E+03  0.7546771E-02  0.1076962E+00
         21   -1    0    0  503  501  0.00000000000E+00  0.00000000000E+00  0.17813151287E+04  0.17813151287E+04  0.00000000000E+00 0.  1.
         21   -1    0    0  504  502 -0.00000000000E+00 -0.00000000000E+00 -0.11791635535E+03  0.11791635535E+03  0.00000000000E+00 0.  1.
         25    1    1    2    0    0 -0.19228740685E+03  0.22066170906E+03  0.26690961923E+03  0.41536945183E+03  0.12500000000E+03 0.  0.
         21    1    1    2  503  502  0.22408350631E+03 -0.18710025799E+03  0.45094512973E+03  0.53718845331E+03  0.00000000000E+00 0.  1.
         21    1    1    2  504  501 -0.31796099466E+02 -0.33561451071E+02  0.94554402444E+03  0.94667357895E+03  0.00000000000E+00 0.  1.
<mgrwt>
<rscale>  4 0.31716304E+03</rscale>
<asrwt>0</asrwt>
<pdfrwt beam="1">  1       21 0.27404846E+00 0.31716304E+03</pdfrwt>
<pdfrwt beam="2">  1       21 0.18140979E-01 0.31716304E+03</pdfrwt>
<totfact> 0.11807187E+03</totfact>
</mgrwt>
</event>
<event>
 5    0  0.2193454E+000  0.3010496E+03  0.7546771E-02  0.1084717E+00
         21   -1    0    0  503  501  0.00000000000E+00  0.00000000000E+00  0.10430090630E+03  0.10430090630E+03  0.00000000000E+00 0.  1.
         21   -1    0    0  504  502 -0.00000000000E+00 -0.00000000000E+00 -0.12814445625E+04  0.12814445625E+04  0.00000000000E+00 0.  1.
         25    1    1    2    0    0  0.21582530829E+03  0.11426758825E+03 -0.38911128340E+03  0.47609897741E+03  0.12500000000E+03 0.  0.
         21    1    1    2  503  502 -0.24760212896E+03 -0.15393987468E+03 -0.80491105766E+03  0.85608767660E+03  0.00000000000E+00 0.  1.
         21    1    1    2  504  501  0.31776820668E+02  0.39672286432E+02  0.16878684834E+02  0.53558814814E+02  0.00000000000E+00 0. -1.
<mgrwt>
<rscale>  4 0.30104961E+03</rscale>
<asrwt>0</asrwt>
<pdfrwt beam="1">  1       21 0.16046294E-01 0.30104961E+03</pdfrwt>
<pdfrwt beam="2">  1       21 0.19714531E+00 0.30104961E+03</pdfrwt>
<totfact> 0.44784326E+03</totfact>
</mgrwt>
</event>
<event>
 5    0  0.2193454E+000  0.2566657E+03  0.7546771E-02  0.1109163E+00
         21   -1    0    0  503  501  0.00000000000E+00  0.00000000000E+00  0.69763327244E+03  0.69763327244E+03  0.00000000000E+00 0. -1.
         21   -1    0    0  501  502 -0.00000000000E+00 -0.00000000000E+00 -0.10970206934E+03  0.10970206934E+03  0.00000000000E+00 0. -1.
         25    1    1    2    0    0  0.14885794308E+03 -0.17324905272E+03  0.18349157833E+03  0.31854054814E+03  0.12500000000E+03 0.  0.
         21    1    1    2  503  504  0.97777544734E+01  0.21130305533E+02  0.15332370459E+03  0.15508143887E+03  0.00000000000E+00 0.  1.
         21    1    1    2  504  502 -0.15863569756E+03  0.15211874719E+03  0.25111592017E+03  0.33371335477E+03  0.00000000000E+00 0. -1.
<mgrwt>
<rscale>  4 0.25666569E+03</rscale>
<asrwt>0</asrwt>
<pdfrwt beam="1">  1       21 0.10732819E+00 0.25666569E+03</pdfrwt>
<pdfrwt beam="2">  1       21 0.16877242E-01 0.25666569E+03</pdfrwt>
<totfact> 0.21146545E+04</totfact>
</mgrwt>
</event>
<event>
 5    0  0.2193454E+000  0.2503968E+03  0.7546771E-02  0.1113054E+00
         21   -1    0    0  503  501  0.00000000000E+00  0.00000000000E+00  0.11832921140E+03  0.11832921140E+03  0.00000000000E+00 0. -1.
         21   -1    0    0  501  502 -0.00000000000E+00 -0.00000000000E+00 -0.96684777550E+03  0.96684777550E+03  0.00000000000E+00 0. -1.
         25    1    1    2    0    0  0.19895596793E+03  0.19130878930E+03 -0.30043108487E+03  0.42669235615E+03  0.12500000000E+03 0.  0.
         21    1    1    2  503  504 -0.10556440821E+03 -0.12290660353E+02 -0.43205125949E+02  0.11472396228E+03  0.00000000000E+00 0. -1.
         21    1    1    2  504  502 -0.93391559713E+02 -0.17901812894E+03 -0.50488235328E+03  0.54376066847E+03  0.00000000000E+00 0. -1.
<mgrwt>
<rscale>  4 0.25039682E+03</rscale>
<asrwt>0</asrwt>
<pdfrwt beam="1">  1       21 0.18204494E-01 0.25039682E+03</pdfrwt>
<pdfrwt beam="2">  1       21 0.14874581E+00 0.25039682E+03</pdfrwt>
<totfact> 0.80670962E+03</totfact>
</mgrwt>
</event>
<event>
 5    0  0.2193454E+000  0.1859045E+03  0.7546771E-02  0.1162208E+00
         21   -1    0    0  503  501  0.00000000000E+00  0.00000000000E+00  0.39180541653E+03  0.39180541653E+03  0.00000000000E+00 0. -1.
         21   -1    0    0  501  502 -0.00000000000E+00 -0.00000000000E+00 -0.77052672042E+03  0.77052672042E+03  0.00000000000E+00 0.  1.
         25    1    1    2    0    0  0.16026287160E+03  0.12671519205E+03 -0.61543707952E+03  0.66040042910E+03  0.12500000000E+03 0.  0.
         21    1    1    2  503  504 -0.85581650179E+02 -0.10613985689E+03  0.34375250405E+03  0.36980491088E+03  0.00000000000E+00 0. -1.
         21    1    1    2  504  502 -0.74681221416E+02 -0.20575335153E+02 -0.10703672842E+03  0.13212679698E+03  0.00000000000E+00 0.  1.
<mgrwt>
<rscale>  4 0.18590452E+03</rscale>
<asrwt>0</asrwt>
<pdfrwt beam="1">  1       21 0.60277757E-01 0.18590452E+03</pdfrwt>
<pdfrwt beam="2">  1       21 0.11854257E+00 0.18590452E+03</pdfrwt>
<totfact> 0.14058702E+03</totfact>
</mgrwt>
</event>
<event>
 5    0  0.2193454E+000  0.2218032E+03  0.7546771E-02  0.1132546E+00
         21   -1    0    0  503  501  0.00000000000E+00  0.00000000000E+00  0.16639165214E+04  0.16639165214E+04  0.00000000000E+00 0. -1.
         21   -1    0    0  501  502 -0.00000000000E+00 -0.00000000000E+00 -0.63085376209E+03  0.63085376209E+03  0.00000000000E+00 0. -1.
         25    1    1    2    0    0  0.23329814433E+03 -0.78178756299E+02 -0.31337498663E+03  0.41757493259E+03  0.12500000000E+03 0.  0.
         21    1    1    2  503  504 -0.76166280265E+02  0.70175309737E+02  0.15866590885E+04  0.15900355152E+04  0.00000000000E+00 0. -1.
         21    1    1    2  504  502 -0.15713186407E+03  0.80034465629E+01 -0.24022134254E+03  0.28715983576E+03  0.00000000000E+00 0. -1.
<mgrwt>
<rscale>  4 0.22180321E+03</rscale>
<asrwt>0</asrwt>
<pdfrwt beam="1">  1       21 0.25598715E+00 0.22180321E+03</pdfrwt>
<pdfrwt beam="2">  1       21 0.97054426E-01 0.22180321E+03</pdfrwt>
<totfact> 0.51653621E+01</totfact>
</mgrwt>
</event>
<event>
 5    0  0.2193454E+000  0.2696037E+03  0.7546771E-02  0.1101507E+00
         21   -1    0    0  503  501  0.00000000000E+00  0.00000000000E+00  0.28599551146E+03  0.28599551146E+03  0.00000000000E+00 0. -1.
         21   -1    0    0  504  502 -0.00000000000E+00 -0.00000000000E+00 -0.31916882638E+03  0.31916882638E+03  0.00000000000E+00 0. -1.
         25    1    1    2    0    0  0.22009755278E+03 -0.47822943095E+02 -0.37369365853E+02  0.26029106041E+03  0.12500000000E+03 0.  0.
         21    1    1    2  503  502 -0.25172173673E+03  0.14366464149E+02 -0.66275847309E+02  0.26069659754E+03  0.00000000000E+00 0. -1.
         21    1    1    2  504  501  0.31624183946E+02  0.33456478946E+02  0.70471898248E+02  0.84176679885E+02  0.00000000000E+00 0. -1.
<mgrwt>
<rscale>  4 0.26960370E+03</rscale>
<asrwt>0</asrwt>
<pdfrwt beam="1">  1       21 0.43999309E-01 0.26960370E+03</pdfrwt>
<pdfrwt beam="2">  1       21 0.49102896E-01 0.26960370E+03</pdfrwt>
<totfact> 0.18851238E+04</totfact>
</mgrwt>
</event>
<event>
 5    0  0.2193454E+000  0.2659688E+03  0.7546771E-02  0.1103609E+00
         21   -1    0    0  502  501  0.00000000000E+00  0.00000000000E+00  0.10620852676E+03  0.10620852676E+03  0.00000000000E+00 0. -1.
         21   -1    0    0  504  502 -0.00000000000E+00 -0.00000000000E+00 -0.85589303952E+03  0.85589303952E+03  0.00000000000E+00 0. -1.
         25    1    1    2    0    0  0.21773314698E+03  0.11695641161E+03 -0.58204226700E+03  0.64458104695E+03  0.12500000000E+03 0.  0.
         21    1    1    2  503  501 -0.19539404680E+03 -0.12356853146E+03 -0.11136743631E+03  0.25661395395E+03  0.00000000000E+00 0. -1.
         21    1    1    2  504  503 -0.22339100182E+02  0.66121198495E+01 -0.56274809452E+02  0.60906565366E+02  0.00000000000E+00 0.  1.
<mgrwt>
<rscale>  4 0.26596876E+03</rscale>
<asrwt>0</asrwt>
<pdfrwt beam="1">  1       21 0.16339774E-01 0.26596876E+03</pdfrwt>
<pdfrwt beam="2">  1       21 0.13167585E+00 0.26596876E+03</pdfrwt>
<totfact> 0.13425558E+04</totfact>
</mgrwt>
</event>
<event>
 5    0  0.2193454E+000  0.2671668E+03  0.7546771E-02  0.1102912E+00
         21   -1    0    0  503  501  0.00000000000E+00  0.00000000000E+00  0.21786149858E+03  0.21786149858E+03  0.00000000000E+00 0.  1.
         21   -1    0    0  501  502 -0.00000000000E+00 -0.00000000000E+00 -0.12777002629E+04  0.12777002629E+04  0.00000000000E+00 0. -1.
         25    1    1    2    0    0 -0.18092137192E+03  0.13550264323E+03 -0.68435356329E+03  0.73147679985E+03  0.12500000000E+03 0.  0.
         21    1    1    2  503  504  0.32313778114E+02  0.71295790492E+02  0.15611342537E+03  0.17463868867E+03  0.00000000000E+00 0.  1.
         21    1    1    2  504  502  0.14860759380E+03 -0.20679843372E+03 -0.53159862644E+03  0.58944627300E+03  0.00000000000E+00 0. -1.
<mgrwt>
<rscale>  4 0.26716684E+03</rscale>
<asrwt>0</asrwt>
<pdfrwt beam="1">  1       21 0.33517154E-01 0.26716684E+03</pdfrwt>
<pdfrwt beam="2">  1       21 0.19656927E+00 0.26716684E+03</pdfrwt>
<totfact> 0.11288918E+03</totfact>
</mgrwt>
</event>
<event>
 5    0  0.2193454E+000  0.2332155E+03  0.7546771E-02  0.1124397E+00
         21   -1    0    0  503  501  0.00000000000E+00  0.00000000000E+00  0.25998871785E+03  0.25998871785E+03  0.00000000000E+00 0.  1.
         21   -1    0    0  501  502 -0.00000000000E+00 -0.00000000000E+00 -0.57877276803E+03  0.57877276803E+03  0.00000000000E+00 0.  1.
         25    1    1    2    0    0 -0.20748505253E+03  0.53395421520E+02 -0.33696167199E+03  0.41841281822E+03  0.12500000000E+03 0.  0.
         21    1    1    2  503  504  0.23624235808E+02 -0.10299618440E+03  0.15376721135E+03  0.18657618767E+03  0.00000000000E+00 0.  1.
         21    1    1    2  504  502  0.18386081672E+03  0.49600762881E+02 -0.13558958954E+03  0.23377247998E+03  0.00000000000E+00 0.  1.
<mgrwt>
<rscale>  4 0.23321553E+03</rscale>
<asrwt>0</asrwt>
<pdfrwt beam="1">  1       21 0.39998264E-01 0.23321553E+03</pdfrwt>
<pdfrwt beam="2">  1       21 0.89041964E-01 0.23321553E+03</pdfrwt>
<totfact> 0.63030973E+03</totfact>
</mgrwt>
</event>
<event>
 5    0  0.2193454E+000  0.2422456E+03  0.7546771E-02  0.1118306E+00
         21   -1    0    0  503  501  0.00000000000E+00  0.00000000000E+00  0.11910766040E+03  0.11910766040E+03  0.00000000000E+00 0. -1.
         21   -1    0    0  501  502 -0.00000000000E+00 -0.00000000000E+00 -0.12570260675E+04  0.12570260675E+04  0.00000000000E+00 0. -1.
         25    1    1    2    0    0  0.94256110720E+01  0.21076295385E+03 -0.10572586922E+04  0.10853252080E+04  0.12500000000E+03 0.  0.
         21    1    1    2  503  504  0.59902327664E+02 -0.23100356915E+02  0.19471946466E+02  0.67090029426E+02  0.00000000000E+00 0. -1.
         21    1    1    2  504  502 -0.69327938736E+02 -0.18766259693E+03 -0.10013166136E+03  0.22371849048E+03  0.00000000000E+00 0. -1.
<mgrwt>
<rscale>  4 0.24224560E+03</rscale>
<asrwt>0</asrwt>
<pdfrwt beam="1">  1       21 0.18324256E-01 0.24224560E+03</pdfrwt>
<pdfrwt beam="2">  1       21 0.19338862E+00 0.24224560E+03</pdfrwt>
<totfact> 0.38569913E+03</totfact>
</mgrwt>
</event>
<event>
 5    0  0.2193454E+000  0.3402312E+03  0.7546771E-02  0.1066697E+00
         21   -1    0    0  502  501  0.00000000000E+00  0.00000000000E+00  0.31437149963E+03  0.31437149963E+03  0.00000000000E+00 0.  1.
         21   -1    0    0  503  502 -0.00000000000E+00 -0.00000000000E+00 -0.81268356395E+03  0.81268356395E+03  0.00000000000E+00 0. -1.
         25    1    1    2    0    0  0.13785343640E+03  0.30052928029E+03 -0.63124035413E+03  0.72347135598E+03  0.12500000000E+03 0.  0.
         21    1    1    2  503  504 -0.34691954668E+02 -0.32892931552E+01 -0.32900638124E+02  0.47924974253E+02  0.00000000000E+00 0.  1.
         21    1    1    2  504  501 -0.10316148173E+03 -0.29723998714E+03  0.16582892793E+03  0.35565873335E+03  0.00000000000E+00 0.  1.
<mgrwt>
<rscale>  4 0.34023122E+03</rscale>
<asrwt>0</asrwt>
<pdfrwt beam="1">  1       21 0.48364847E-01 0.34023122E+03</pdfrwt>
<pdfrwt beam="2">  1       21 0.12502824E+00 0.34023122E+03</pdfrwt>
<totfact> 0.17535313E+03</totfact>
</mgrwt>
</event>
<event>
 5    0  0.2193454E+000  0.2670395E+03  0.7546771E-02  0.1102986E+00
         21   -1    0    0  503  501  0.00000000000E+00  0.00000000000E+00  0.50117238833E+03  0.50117238833E+03  0.00000000000E+00 0. -1.
         21   -1    0    0  504  502 -0.00000000000E+00 -0.00000000000E+00 -0.14714819948E+03  0.14714819948E+03  0.00000000000E+00 0. -1.
         25    1    1    2    0    0  0.17397106308E+03  0.15551852510E+03  0.12528822259E+03  0.29287212424E+03  0.12500000000E+03 0.  0.
         21    1    1    2  503  502 -0.16033642673E+03 -0.17591827365E+03  0.22984957088E+03  0.33088643667E+03  0.00000000000E+00 0. -1.
         21    1    1    2  504  501 -0.13634636355E+02  0.20399748554E+02 -0.11136046299E+01  0.24562026889E+02  0.00000000000E+00 0.  1.
<mgrwt>
<rscale>  4 0.26703949E+03</rscale>
<asrwt>0</asrwt>
<pdfrwt beam="1">  1       21 0.77103444E-01 0.26703949E+03</pdfrwt>
<pdfrwt beam="2">  1       21 0.22638185E-01 0.26703949E+03</pdfrwt>
<totfact> 0.26326772E+04</totfact>
</mgrwt>
</event>
<event>
 5    0  0.2193454E+000  0.2231759E+03  0.7546771E-02  0.1131537E+00
         21   -1    0    0  503  501  0.00000000000E+00  0.00000000000E+00  0.26585241071E+04  0.26585241071E+04  0.00000000000E+00 0.  1.
         21   -1    0    0  501  502 -0.00000000000E+00 -0.00000000000E+00 -0.23947055769E+03  0.23947055769E+03  0.00000000000E+00 0.  1.
         25    1    1    2    0    0 -0.21349686111E+03 -0.84125581204E+02 -0.13140408339E+03  0.29248941220E+03  0.12500000000E+03 0.  0.
         21    1    1    2  503  504  0.17806328575E+03  0.47185926736E+02  0.25475869805E+04  0.25542381386E+04  0.00000000000E+00 0.  1.
         21    1    1    2  504  502  0.35433575351E+02  0.36939654469E+02  0.28706523204E+01  0.51267114013E+02  0.00000000000E+00 0. -1.
<mgrwt>
<rscale>  4 0.22317586E+03</rscale>
<asrwt>0</asrwt>
<pdfrwt beam="1">  1       21 0.40900369E+00 0.22317586E+03</pdfrwt>
<pdfrwt beam="2">  1       21 0.36841626E-01 0.22317586E+03</pdfrwt>
<totfact> 0.51488588E+01</totfact>
</mgrwt>
</event>
<event>
 5    0  0.2193454E+000  0.2320937E+03  0.7546771E-02  0.1125175E+00
         21   -1    0    0  503  501  0.00000000000E+00  0.00000000000E+00  0.88552419450E+02  0.88552419450E+02  0.00000000000E+00 0. -1.
         21   -1    0    0  504  502 -0.00000000000E+00 -0.00000000000E+00 -0.11962461496E+04  0.11962461496E+04  0.00000000000E+00 0. -1.
         25    1    1    2    0    0 -0.18843084862E+03  0.13530139572E+03 -0.68608209142E+03  0.73494645285E+03  0.12500000000E+03 0.  0.
         21    1    1    2  503  502  0.80275233121E+02 -0.15845226442E+03 -0.39928962396E+03  0.43701651795E+03  0.00000000000E+00 0. -1.
         21    1    1    2  504  501  0.10815561550E+03  0.23150868697E+02 -0.22322014743E+02  0.11283559823E+03  0.00000000000E+00 0. -1.
<mgrwt>
<rscale>  4 0.23209372E+03</rscale>
<asrwt>0</asrwt>
<pdfrwt beam="1">  1       21 0.13623448E-01 0.23209372E+03</pdfrwt>
<pdfrwt beam="2">  1       21 0.18403788E+00 0.23209372E+03</pdfrwt>
<totfact> 0.77367590E+03</totfact>
</mgrwt>
</event>
