<LesHouchesEvents version="3.0">
  <!--
  <scalesfunctionalform>
    muR  H_T/2 := sum_i mT(i)/2, i=final state
    muF1 H_T/2 := sum_i mT(i)/2, i=final state
    muF2 H_T/2 := sum_i mT(i)/2, i=final state
    QES  H_T/2 := sum_i mT(i)/2, i=final state
  </scalesfunctionalform>
HERWIG6   
  -->
  <header>
       42
  </header>
  <init>
   2212   2212 0.65000000D+04 0.65000000D+04 -1 -1   247000   247000 -3   1
 0.54426747D-02 0.12497793D-03 0.32447353D-03     66
  </init>
  <event>
  5     66 0.32447353E-03 0.23632595E+02 0.75467711E-02 0.12190019E+00
       21 -1    0    0  501  502 0.00000000E+00 0.00000000E+00 0.14034908E+03 0.14035108E+03 0.75000000E+00 0.0000E+00 0.9000E+01
       -2 -1    0    0    0  501 0.00000000E+00 0.00000000E+00 -.13364485E+03 0.13364523E+03 0.32000000E+00 0.0000E+00 0.9000E+01
       25  1    1    2    0    0 0.18155069E+02 0.48896122E+02 -.26130845E+02 0.13794295E+03 0.12500000E+03 0.0000E+00 0.9000E+01
       23  1    1    2    0    0 0.42869219E+01 -.56296349E+02 0.33649965E+02 0.11240653E+03 0.91188000E+02 0.0000E+00 0.9000E+01
       -2  1    1    2    0  502 -.22441991E+02 0.74002266E+01 -.81489107E+00 0.23646834E+02 0.32000000E+00 0.0000E+00 0.9000E+01
#aMCatNLO 1  0  0  1  2 0.53261089D+01 0.00000000D+00  -5  6  0 0.00000000D+00 0.00000000D+00 0.00000000D+00 0.00000000D+00 0.00000000D+00
  <mgrwgt>
 0.7782725453D-02   13    4    0
 0.136957142420006D+03 0.000000000000000D+00 0.000000000000000D+00 0.136957142420006D+03
 0.136957142420006D+03 0.000000000000000D+00 0.000000000000000D+00 -.136957142420006D+03
 0.138623835738052D+03 0.181561068067153D+02 0.488957800467798D+02 -.295148490419748D+02
 0.111616775155900D+03 0.428775741363074D+01 -.562966243743966D+02 0.309088720695630D+02
 0.236736739460607D+02 -.224438642203461D+02 0.740084432761680D+01 -.139402302758810D+01
 0.000000000000000D+00 -.000000000000000D+00 0.000000000000000D+00 -.000000000000000D+00
 0.138207799898783D+03 0.000000000000000D+00 0.000000000000000D+00 0.138207799898783D+03
 0.142773394611657D+03 0.000000000000000D+00 0.000000000000000D+00 -.142773394611657D+03
 0.137819880423576D+03 0.188375473246598D+02 0.462962194654101D+02 -.295148490419748D+02
 0.112717894071423D+03 0.484074785708788D+01 -.584061733677874D+02 0.309088720695630D+02
 0.234282870435547D+02 -.223277567351096D+02 0.695791727254049D+01 -.139402302758810D+01
 0.701513297188681D+01 -.135053844663807D+01 0.515203662983688D+01 -.456559471287422D+01
 0.136957142420006D+03 0.000000000000000D+00 0.000000000000000D+00 0.136957142420006D+03
 0.136957142420006D+03 0.000000000000000D+00 0.000000000000000D+00 -.136957142420006D+03
 0.138623835738052D+03 0.181561068067153D+02 0.488957800467798D+02 -.295148490419748D+02
 0.111616775155900D+03 0.428775741363074D+01 -.562966243743966D+02 0.309088720695630D+02
 0.000000000000000D+00 -.000000000000000D+00 0.000000000000000D+00 -.000000000000000D+00
 0.236736739460607D+02 -.224438642203461D+02 0.740084432761680D+01 -.139402302758810D+01
 0.138207799898783D+03 0.000000000000000D+00 0.000000000000000D+00 0.138207799898783D+03
 0.142773394611657D+03 0.000000000000000D+00 0.000000000000000D+00 -.142773394611657D+03
 0.137819880423576D+03 0.188375473246598D+02 0.462962194654101D+02 -.295148490419748D+02
 0.112717894071423D+03 0.484074785708788D+01 -.584061733677874D+02 0.309088720695630D+02
 0.701513297188681D+01 -.135053844663807D+01 0.515203662983688D+01 -.456559471287422D+01
 0.234282870435547D+02 -.223277567351096D+02 0.695791727254049D+01 -.139402302758810D+01
0.136845866331D-05 0.000000000000D+00 0.000000000000D+00 0.361071700803D-06 0.000000000000D+00  6 21 -2 25 23 -2 21 2 0.21592350D-01 0.20560930D-01 0.17732881D+05 0.17732881D+05 0.17732881D+05 0.12396202D+01  1  2  2  1  6  1       21 0.666269213534D-02 0.100000000000D+01
0.477221283849D-07 0.722155476729D-07 -.276252377080D-08 0.361071700803D-06 0.000000000000D+00  6 21 -2 25 23 -2 21 4 0.21592350D-01 0.20560930D-01 0.17732881D+05 0.17732881D+05 0.17732881D+05 0.12396202D+01  1  2  3  1  6  1       21 0.357038588285D-03 0.100000000000D+01
0.158046008521D-06 0.000000000000D+00 0.000000000000D+00 0.361071700803D-06 0.000000000000D+00  6 21 -2 25 23 -2 21 4 0.21592350D-01 0.20560930D-01 0.17732881D+05 0.17732881D+05 0.17732881D+05 0.12396202D+01  1  2 15  1  6  1       21 0.118243937721D-02 0.100000000000D+01
-.160578026814D-06 0.000000000000D+00 0.000000000000D+00 0.361071700803D-06 0.000000000000D+00  6 21 -2 25 23 -2 21 4 0.21592350D-01 0.20560930D-01 0.17732881D+05 0.17732881D+05 0.17732881D+05 0.12396202D+01  1  2  4  1  6  1       21 -.120138296308D-02 0.100000000000D+01
0.962315985140D-07 0.000000000000D+00 0.000000000000D+00 0.361071700803D-06 0.129921795903D-06  6 21 -2 25 23 -2 21 4 0.21789526D-01 0.21434105D-01 0.18459645D+05 0.18459645D+05 0.18459645D+05 0.12376765D+01  1  2 11  1  6  1       21 0.655627009322D-03 0.100000000000D+01
0.148294339662D-07 0.000000000000D+00 0.000000000000D+00 0.359940256082D-06 0.326047226137D-09  6 -1 -2 25 23 -2 -1 4 0.21789526D-01 0.21434105D-01 0.18459645D+05 0.18459645D+05 0.18459645D+05 0.12376765D+01  1  2 11  4  6  1       21 0.805702615523D-05 0.100000000000D+01
0.148294339662D-07 0.000000000000D+00 0.000000000000D+00 0.359940256082D-06 0.326047226137D-09  6 -3 -2 25 23 -2 -3 4 0.21789526D-01 0.21434105D-01 0.18459645D+05 0.18459645D+05 0.18459645D+05 0.12376765D+01  1  2 11  4  6  1       21 0.473463194224D-05 0.100000000000D+01
0.155201225442D-07 0.000000000000D+00 0.000000000000D+00 0.359940256082D-06 0.341233044792D-09  6 1 -2 25 23 1 -2 4 0.21789526D-01 0.21434105D-01 0.18459645D+05 0.18459645D+05 0.18459645D+05 0.12376765D+01  3  4 11  5  5  1       21 0.130637004612D-04 0.100000000000D+01
0.155201225442D-07 0.000000000000D+00 0.000000000000D+00 0.359940256082D-06 0.341233044792D-09  6 3 -2 25 23 3 -2 4 0.21789526D-01 0.21434105D-01 0.18459645D+05 0.18459645D+05 0.18459645D+05 0.12376765D+01  3  4 11  5  5  1       21 0.495475541789D-05 0.100000000000D+01
0.111728853852D-07 0.000000000000D+00 0.000000000000D+00 0.359940256082D-06 0.103388012712D-08  6 -2 -2 25 23 -2 -2 4 0.21789526D-01 0.21434105D-01 0.18459645D+05 0.18459645D+05 0.18459645D+05 0.12376765D+01  1  2 11  6  6  1       21 0.550853567033D-05 0.100000000000D+01
0.806586531085D-07 0.000000000000D+00 0.000000000000D+00 0.359940256082D-06 0.962149872051D-07  6 2 -2 25 23 2 -2 4 0.21789526D-01 0.21434105D-01 0.18459645D+05 0.18459645D+05 0.18459645D+05 0.12376765D+01  3  4 11  7  5  1       21 0.848916833650D-04 0.100000000000D+01
0.961056543359D-08 0.000000000000D+00 0.000000000000D+00 0.359940256082D-06 0.211302616699D-09  6 -4 -2 25 23 -2 -4 4 0.21789526D-01 0.21434105D-01 0.18459645D+05 0.18459645D+05 0.18459645D+05 0.12376765D+01  1  2 11  8  6  1       21 0.260466712163D-05 0.100000000000D+01
0.921073822385D-08 0.000000000000D+00 0.000000000000D+00 0.359940256082D-06 0.202511819089D-09  6 4 -2 25 23 4 -2 4 0.21789526D-01 0.21434105D-01 0.18459645D+05 0.18459645D+05 0.18459645D+05 0.12376765D+01  3  4 11  9  5  1       21 0.249630546542D-05 0.100000000000D+01
  </mgrwgt>
  </event>
  <event>
  5     66 -.32447353E-03 0.26967209E+03 0.75467711E-02 0.10803519E+00
       21 -1    0    0  501  502 0.00000000E+00 0.00000000E+00 0.82587858E+03 0.82587892E+03 0.75000000E+00 0.0000E+00 0.9000E+01
       -2 -1    0    0    0  501 0.00000000E+00 0.00000000E+00 -.12610335E+03 0.12610376E+03 0.32000000E+00 0.0000E+00 0.9000E+01
       25  1    1    2    0    0 -.25070556E+02 0.23708502E+03 0.25960774E+03 0.37397730E+03 0.12500000E+03 0.0000E+00 0.9000E+01
       23  1    1    2    0    0 -.12845722E+02 0.29908106E+02 0.17386232E+03 0.19900469E+03 0.91188000E+02 0.0000E+00 0.9000E+01
       -2  1    1    2    0  502 0.37916278E+02 -.26699313E+03 0.26630516E+03 0.37900068E+03 0.32000000E+00 0.0000E+00 0.9000E+01
#aMCatNLO 1  0  0  5  1 0.32441676D+02 0.00000000D+00  -5  6  0 0.00000000D+00 0.00000000D+00 0.00000000D+00 0.00000000D+00 0.00000000D+00
  <mgrwgt>
 -.2212224788D-02    7    2    0
 0.322717229052867D+03 0.000000000000000D+00 0.000000000000000D+00 0.322717229052867D+03
 0.322717229052867D+03 -.000000000000000D+00 -.000000000000000D+00 -.322717229052867D+03
 0.270132599932588D+03 -.250705669457101D+02 0.237085103127760D+03 -.225553118856628D+02
 0.105021469332130D+03 -.128457260954516D+02 0.299081360911664D+02 0.406785987137268D+02
 0.270280388841015D+03 0.379162930411617D+02 -.266993239218927D+03 -.181232868280640D+02
 0.000000000000000D+00 0.000000000000000D+00 -.000000000000000D+00 0.000000000000000D+00
 0.322717229052867D+03 0.000000000000000D+00 0.000000000000000D+00 0.322717229052867D+03
 0.322717229052867D+03 -.000000000000000D+00 -.000000000000000D+00 -.322717229052867D+03
 0.264336717367680D+03 -.241375491600890D+02 0.230515119069419D+03 -.230012771314251D+02
 0.104205840075047D+03 -.124804800568191D+02 0.273362015705500D+02 0.405040178623297D+02
 0.231351672732273D+03 0.351582299101464D+02 -.223665148240594D+03 -.475541460665519D+02
 0.455402279307337D+02 0.145979930676174D+01 -.341861723993749D+02 0.300514053356473D+02
0.456659098282D-05 0.000000000000D+00 0.000000000000D+00 0.649900010212D-07 0.000000000000D+00  6 21 -2 25 23 -2 21 2 0.12705830D+00 0.19400573D-01 0.10102377D+06 0.10102377D+06 0.10102377D+06 0.11631655D+01  1  2  2  3  6  5       -2 0.475141109636D-03 0.100000000000D+01
-.492764446253D-06 0.240985626870D-06 -.921863150114D-08 0.649900010212D-07 0.000000000000D+00  6 21 -2 25 23 -2 21 4 0.12705830D+00 0.19400573D-01 0.10102377D+06 0.10102377D+06 0.10102377D+06 0.11631655D+01  1  2  3  3  6  5       -2 -.693669969447D-04 0.100000000000D+01
0.583130540161D-06 0.000000000000D+00 0.000000000000D+00 0.649900010212D-07 0.000000000000D+00  6 21 -2 25 23 -2 21 4 0.12705830D+00 0.19400573D-01 0.10102377D+06 0.10102377D+06 0.10102377D+06 0.11631655D+01  1  2 15  3  6  5       -2 0.820879320846D-04 0.100000000000D+01
0.116477212713D-04 0.000000000000D+00 0.000000000000D+00 0.652136643721D-07 0.000000000000D+00  6 21 -2 25 23 -2 21 4 0.12705830D+00 0.19400573D-01 0.96092209D+05 0.96092209D+05 0.96092209D+05 0.11651653D+01  1  2 12  3  6  5       -2 0.165490811321D-02 0.100000000000D+01
-.329178755370D-04 0.000000000000D+00 0.000000000000D+00 0.649900010212D-07 0.000000000000D+00  6 21 -2 25 23 -2 21 4 0.12705830D+00 0.19400573D-01 0.10102377D+06 0.10102377D+06 0.10102377D+06 0.11631655D+01  1  2  4  3  6  5       -2 -.463388580317D-02 0.100000000000D+01
-.108587269972D-04 0.000000000000D+00 0.000000000000D+00 0.649900010212D-07 0.000000000000D+00  6 21 -2 25 23 -2 21 4 0.12705830D+00 0.19400573D-01 0.10102377D+06 0.10102377D+06 0.10102377D+06 0.11631655D+01  1  2  5  3  6  5       -2 -.152859502784D-02 0.100000000000D+01
0.128398924613D-04 0.000000000000D+00 -.000000000000D+00 0.649900010212D-07 0.000000000000D+00  6 21 -2 25 23 -2 21 4 0.12705830D+00 0.19400573D-01 0.10102377D+06 0.10102377D+06 0.10102377D+06 0.11631655D+01  1  2  6  3  6  5       -2 0.180748588480D-02 0.100000000000D+01
  </mgrwgt>
  </event>
  <event>
  5     66 0.32447353E-03 0.28859346E+02 0.75467711E-02 0.11998821E+00
       21 -1    0    0  501  502 0.00000000E+00 0.00000000E+00 0.14672247E+03 0.14672438E+03 0.75000000E+00 0.0000E+00 0.9000E+01
       -4 -1    0    0    0  501 0.00000000E+00 0.00000000E+00 -.24358182E+03 0.24358675E+03 0.15500000E+01 0.0000E+00 0.9000E+01
       25  1    1    2    0    0 -.62860695E+02 -.44425557E+02 -.35916782E+02 0.15112946E+03 0.12500000E+03 0.0000E+00 0.9000E+01
       23  1    1    2    0    0 0.82625796E+02 0.23402337E+02 -.11998051E+03 0.17345105E+03 0.91188000E+02 0.0000E+00 0.9000E+01
       -4  1    1    2    0  502 -.19765101E+02 0.21023220E+02 0.59037938E+02 0.65730629E+02 0.15500000E+01 0.0000E+00 0.9000E+01
#aMCatNLO 1  0  0  1  2 0.46785621D-01 0.00000000D+00  -5  6  0 0.00000000D+00 0.00000000D+00 0.00000000D+00 0.00000000D+00 0.00000000D+00
  <mgrwgt>
 0.6396872163D-02   23    4    0
 0.189050948741285D+03 0.000000000000000D+00 0.000000000000000D+00 0.189050948741285D+03
 0.189050948741285D+03 0.000000000000000D+00 0.000000000000000D+00 -.189050948741285D+03
 0.146808457661961D+03 -.628593558806995D+02 -.444269810969841D+02 0.163339216222514D+01
 0.148319586057470D+03 0.826271491177882D+02 0.234008974651563D+02 -.794266988534170D+02
 0.829738537631388D+02 -.197677932370887D+02 0.210260836318278D+02 0.777933066911918D+02
 0.000000000000000D+00 0.000000000000000D+00 0.000000000000000D+00 0.000000000000000D+00
 0.189086846878059D+03 0.000000000000000D+00 0.000000000000000D+00 0.189086846878059D+03
 0.189066194591215D+03 0.000000000000000D+00 0.000000000000000D+00 -.189066194591215D+03
 0.146817879731101D+03 -.628724863490581D+02 -.444395353156176D+02 0.163339216222514D+01
 0.148310196256367D+03 0.826138843405021D+02 0.233882148319381D+02 -.794266988534170D+02
 0.829738243896844D+02 -.197752141338533D+02 0.210189884119243D+02 0.777933066911918D+02
 0.511410921209741D-01 0.338161424093011D-01 0.323320717552178D-01 0.206522868442038D-01
 0.189050948741285D+03 0.000000000000000D+00 0.000000000000000D+00 0.189050948741285D+03
 0.189050948741285D+03 0.000000000000000D+00 0.000000000000000D+00 -.189050948741285D+03
 0.146808457661961D+03 -.628593558806995D+02 -.444269810969841D+02 0.163339216222514D+01
 0.148319586057470D+03 0.826271491177882D+02 0.234008974651563D+02 -.794266988534170D+02
 0.000000000000000D+00 0.000000000000000D+00 0.000000000000000D+00 0.000000000000000D+00
 0.829738537631388D+02 -.197677932370887D+02 0.210260836318278D+02 0.777933066911918D+02
 0.189086846878059D+03 0.000000000000000D+00 0.000000000000000D+00 0.189086846878059D+03
 0.189066194591215D+03 0.000000000000000D+00 0.000000000000000D+00 -.189066194591215D+03
 0.146817879731101D+03 -.628724863490581D+02 -.444395353156176D+02 0.163339216222514D+01
 0.148310196256367D+03 0.826138843405021D+02 0.233882148319381D+02 -.794266988534170D+02
 0.511410921209741D-01 0.338161424093011D-01 0.323320717552178D-01 0.206522868442038D-01
 0.829738243896844D+02 -.197752141338533D+02 0.210189884119243D+02 0.777933066911918D+02
0.503879349544D-06 0.000000000000D+00 0.000000000000D+00 0.938555103505D-06 0.000000000000D+00  6 21 -4 25 23 -4 21 2 0.22573214D-01 0.37474653D-01 0.22638037D+05 0.22638037D+05 0.22638037D+05 0.12279458D+01  1  2  2  1  6  1       21 0.400970069742D-03 0.100000000000D+01
0.642525253060D-07 0.265904438066D-07 -.101718723265D-08 0.938555103505D-06 0.000000000000D+00  6 21 -4 25 23 -4 21 4 0.22573214D-01 0.37474653D-01 0.22638037D+05 0.22638037D+05 0.22638037D+05 0.12279458D+01  1  2  3  1  6  1       21 0.770963796804D-04 0.100000000000D+01
0.461256433906D-07 0.000000000000D+00 0.000000000000D+00 0.938555103505D-06 0.000000000000D+00  6 21 -4 25 23 -4 21 4 0.22573214D-01 0.37474653D-01 0.22638037D+05 0.22638037D+05 0.22638037D+05 0.12279458D+01  1  2 15  1  6  1       21 0.553459976694D-04 0.100000000000D+01
-.156160316425D-03 0.000000000000D+00 0.000000000000D+00 0.938555103505D-06 0.000000000000D+00  6 21 -4 25 23 -4 21 4 0.22573214D-01 0.37474653D-01 0.22638037D+05 0.22638037D+05 0.22638037D+05 0.12279458D+01  1  2  4  1  6  1       21 -.187376215779D+00 0.100000000000D+01
-.104078179228D-01 0.000000000000D+00 -.612183669171D-03 0.938555103505D-06 0.000000000000D+00  6 21 -4 25 23 -4 21 4 0.22579190D-01 0.37474653D-01 0.22638037D+05 0.22638037D+05 0.22638037D+05 0.12279458D+01  1  2  5  1  6  1       21 -.124820973635D+02 0.100000000000D+01
0.104079784550D-01 0.000000000000D+00 0.612183583372D-03 0.938555103505D-06 0.000000000000D+00  6 21 -4 25 23 -4 21 4 0.22573214D-01 0.37474653D-01 0.22638037D+05 0.22638037D+05 0.22638037D+05 0.12279458D+01  1  2  6  1  6  1       21 0.124884968311D+02 0.100000000000D+01
0.156110645662D-03 0.000000000000D+00 0.000000000000D+00 0.938555103505D-06 0.375061665130D-02  6 21 -4 25 23 -4 21 4 0.22577500D-01 0.37477675D-01 0.22644809D+05 0.22644809D+05 0.22644809D+05 0.12279317D+01  1  2 11  1  6  1       21 0.187213561911D+00 0.100000000000D+01
-.576518820533D-06 0.000000000000D+00 -.360268532426D-07 0.938555103505D-06 0.000000000000D+00  6 -1 -4 25 23 -4 -1 4 0.22579190D-01 0.37474653D-01 0.22638037D+05 0.22638037D+05 0.22638037D+05 0.12279458D+01  1  2  5  4  6  1       21 -.558377602015D-04 0.100000000000D+01
-.576518820533D-06 0.000000000000D+00 -.360268532426D-07 0.938555103505D-06 0.000000000000D+00  6 -3 -4 25 23 -4 -3 4 0.22579190D-01 0.37474653D-01 0.22638037D+05 0.22638037D+05 0.22638037D+05 0.12279458D+01  1  2  5  4  6  1       21 -.327861530009D-04 0.100000000000D+01
0.613621342227D-07 0.000000000000D+00 0.000000000000D+00 0.938555103505D-06 0.325423228915D-06  6 -1 -4 25 23 -4 -1 4 0.22577500D-01 0.37477675D-01 0.22644809D+05 0.22644809D+05 0.22644809D+05 0.12279317D+01  1  2 11  4  6  1       21 0.594273243437D-05 0.100000000000D+01
0.613621342227D-07 0.000000000000D+00 0.000000000000D+00 0.938555103505D-06 0.325423228915D-06  6 -3 -4 25 23 -4 -3 4 0.22577500D-01 0.37477675D-01 0.22644809D+05 0.22644809D+05 0.22644809D+05 0.12279317D+01  1  2 11  4  6  1       21 0.348944963334D-05 0.100000000000D+01
-.576518820533D-06 0.000000000000D+00 -.360268532426D-07 0.938555103505D-06 0.000000000000D+00  6 1 -4 25 23 1 -4 4 0.22579190D-01 0.37474653D-01 0.22638037D+05 0.22638037D+05 0.22638037D+05 0.12279458D+01  3  4  5  5  5  1       21 -.876089301730D-04 0.100000000000D+01
-.576518820533D-06 0.000000000000D+00 -.360268532426D-07 0.938555103505D-06 0.000000000000D+00  6 3 -4 25 23 3 -4 4 0.22579190D-01 0.37474653D-01 0.22638037D+05 0.22638037D+05 0.22638037D+05 0.12279458D+01  3  4  5  5  5  1       21 -.327839070319D-04 0.100000000000D+01
0.613616420502D-07 0.000000000000D+00 0.000000000000D+00 0.938555103505D-06 0.325420618765D-06  6 1 -4 25 23 1 -4 4 0.22577500D-01 0.37477675D-01 0.22644809D+05 0.22644809D+05 0.22644809D+05 0.12279317D+01  3  4 11  5  5  1       21 0.932376265487D-05 0.100000000000D+01
0.613616420502D-07 0.000000000000D+00 0.000000000000D+00 0.938555103505D-06 0.325420618765D-06  6 3 -4 25 23 3 -4 4 0.22577500D-01 0.37477675D-01 0.22644809D+05 0.22644809D+05 0.22644809D+05 0.12279317D+01  3  4 11  5  5  1       21 0.348918256824D-05 0.100000000000D+01
-.576518820533D-06 0.000000000000D+00 -.360268532426D-07 0.938555103505D-06 0.000000000000D+00  6 -4 -4 25 23 -4 -4 4 0.22579190D-01 0.37474653D-01 0.22638037D+05 0.22638037D+05 0.22638037D+05 0.12279458D+01  1  2  5  6  6  1       21 -.278550559792D-04 0.100000000000D+01
0.494316594326D-07 0.000000000000D+00 0.000000000000D+00 0.938555103505D-06 0.167416051938D-06  6 -4 -4 25 23 -4 -4 4 0.22577500D-01 0.37477675D-01 0.22644809D+05 0.22644809D+05 0.22644809D+05 0.12279317D+01  1  2 11  6  6  1       21 0.238823972267D-05 0.100000000000D+01
-.576518820533D-06 0.000000000000D+00 -.360268532426D-07 0.938555103505D-06 0.000000000000D+00  6 4 -4 25 23 4 -4 4 0.22579190D-01 0.37474653D-01 0.22638037D+05 0.22638037D+05 0.22638037D+05 0.12279458D+01  3  4  5  7  5  1       21 -.278550559792D-04 0.100000000000D+01
0.213245801747D-06 0.000000000000D+00 0.000000000000D+00 0.938555103505D-06 0.480977490922D-05  6 4 -4 25 23 4 -4 4 0.22577500D-01 0.37477675D-01 0.22644809D+05 0.22644809D+05 0.22644809D+05 0.12279317D+01  3  4 11  7  5  1       21 0.103027513191D-04 0.100000000000D+01
-.576518820533D-06 0.000000000000D+00 -.360268532426D-07 0.938555103505D-06 0.000000000000D+00  6 -2 -4 25 23 -4 -2 4 0.22579190D-01 0.37474653D-01 0.22638037D+05 0.22638037D+05 0.22638037D+05 0.12279458D+01  1  2  5  8  6  1       21 -.505119818061D-04 0.100000000000D+01
0.613604670446D-07 0.000000000000D+00 0.000000000000D+00 0.938555103505D-06 0.325414387331D-06  6 -2 -4 25 23 -4 -2 4 0.22577500D-01 0.37477675D-01 0.22644809D+05 0.22644809D+05 0.22644809D+05 0.12279317D+01  1  2 11  8  6  1       21 0.537581172358D-05 0.100000000000D+01
-.576518820533D-06 0.000000000000D+00 -.360268532426D-07 0.938555103505D-06 0.000000000000D+00  6 2 -4 25 23 2 -4 4 0.22579190D-01 0.37474653D-01 0.22638037D+05 0.22638037D+05 0.22638037D+05 0.12279458D+01  3  4  5  9  5  1       21 -.110149353515D-03 0.100000000000D+01
0.613607519544D-07 0.000000000000D+00 0.000000000000D+00 0.938555103505D-06 0.325415898300D-06  6 2 -4 25 23 2 -4 4 0.22577500D-01 0.37477675D-01 0.22644809D+05 0.22644809D+05 0.22644809D+05 0.12279317D+01  3  4 11  9  5  1       21 0.117223285733D-04 0.100000000000D+01
  </mgrwgt>
  </event>
  <event>
  5     66 0.32447353E-03 0.31401853E+02 0.75467711E-02 0.11178326E+00
       21 -1    0    0  501  502 0.00000000E+00 0.00000000E+00 0.11988231E+04 0.11988233E+04 0.75000000E+00 0.0000E+00 0.9000E+01
       -2 -1    0    0    0  501 0.00000000E+00 0.00000000E+00 -.18049277E+02 0.18052114E+02 0.32000000E+00 0.0000E+00 0.9000E+01
       25  1    1    2    0    0 0.39375392E+02 -.11659832E+02 0.33691474E+03 0.36169450E+03 0.12500000E+03 0.0000E+00 0.9000E+01
       23  1    1    2    0    0 -.13926250E+02 0.30055122E+02 0.46446542E+03 0.47448986E+03 0.91188000E+02 0.0000E+00 0.9000E+01
       -2  1    1    2    0  502 -.25449143E+02 -.18395290E+02 0.37939365E+03 0.38069106E+03 0.32000000E+00 0.0000E+00 0.9000E+01
#aMCatNLO 1  0  0  1  5 0.13500081D+02 0.00000000D+00  -5  6  0 0.00000000D+00 0.00000000D+00 0.00000000D+00 0.00000000D+00 0.00000000D+00
  <mgrwgt>
 0.9703406817D-02   12    4    0
 0.147104583710926D+03 0.000000000000000D+00 0.000000000000000D+00 0.147104583710926D+03
 0.147104583710926D+03 0.000000000000000D+00 0.000000000000000D+00 -.147104583710926D+03
 0.143833444702556D+03 0.393756286395797D+02 -.116596614696980D+02 -.581091385123993D+02
 0.984552717015557D+02 -.139260878627809D+02 0.300552389230888D+02 0.167611417254704D+02
 0.519204510177399D+02 -.254495407767988D+02 -.183955774533908D+02 0.413479967869290D+02
 0.000000000000000D+00 0.000000000000000D+00 0.000000000000000D+00 0.000000000000000D+00
 0.410746722728884D+03 0.000000000000000D+00 0.000000000000000D+00 0.410746722728884D+03
 0.200218620105593D+03 0.000000000000000D+00 0.000000000000000D+00 -.200218620105593D+03
 0.152444722872850D+03 -.233293199162815D+02 -.607738791370985D+02 -.581091385123993D+02
 0.109408184690965D+03 -.579187568008970D+02 -.440241661699465D+01 0.167611417254704D+02
 0.781955151650644D+02 -.529875636846541D+02 -.399649827774597D+02 0.413479967869290D+02
 0.270916920105598D+03 0.134235640401833D+03 0.105141278531553D+03 0.210528102623291D+03
 0.147104583710926D+03 0.000000000000000D+00 0.000000000000000D+00 0.147104583710926D+03
 0.147104583710926D+03 0.000000000000000D+00 0.000000000000000D+00 -.147104583710926D+03
 0.143833444702556D+03 0.393756286395797D+02 -.116596614696980D+02 -.581091385123993D+02
 0.984552717015557D+02 -.139260878627809D+02 0.300552389230888D+02 0.167611417254704D+02
 0.000000000000000D+00 0.000000000000000D+00 0.000000000000000D+00 0.000000000000000D+00
 0.519204510177399D+02 -.254495407767988D+02 -.183955774533908D+02 0.413479967869290D+02
 0.410746722728884D+03 0.000000000000000D+00 0.000000000000000D+00 0.410746722728884D+03
 0.200218620105593D+03 0.000000000000000D+00 0.000000000000000D+00 -.200218620105593D+03
 0.152444722872850D+03 -.233293199162815D+02 -.607738791370985D+02 -.581091385123993D+02
 0.109408184690965D+03 -.579187568008970D+02 -.440241661699465D+01 0.167611417254704D+02
 0.270916920105598D+03 0.134235640401833D+03 0.105141278531553D+03 0.210528102623291D+03
 0.781955151650644D+02 -.529875636846541D+02 -.399649827774597D+02 0.413479967869290D+02
0.801818886280D-05 0.000000000000D+00 0.000000000000D+00 0.727585789561D-06 0.000000000000D+00  6 21 -2 25 23 -2 21 2 0.18443456D+00 0.27770481D-02 0.16899046D+05 0.16899046D+05 0.16899046D+05 0.12419634D+01  1  2  2  1  6  1       21 0.786194054778D-02 0.100000000000D+01
0.381814672110D-06 0.423131451170D-06 -.161864131714D-07 0.727585789561D-06 0.000000000000D+00  6 21 -2 25 23 -2 21 4 0.18443456D+00 0.27770481D-02 0.16899046D+05 0.16899046D+05 0.16899046D+05 0.12419634D+01  1  2  3  1  6  1       21 0.577462395584D-03 0.100000000000D+01
0.602435259976D-06 0.000000000000D+00 0.000000000000D+00 0.727585789561D-06 0.000000000000D+00  6 21 -2 25 23 -2 21 4 0.18443456D+00 0.27770481D-02 0.16899046D+05 0.16899046D+05 0.16899046D+05 0.12419634D+01  1  2 15  1  6  1       21 0.911132373431D-03 0.100000000000D+01
0.305765346247D-06 0.000000000000D+00 -.175399240178D-04 0.727585789561D-06 0.000000000000D+00  6 21 -2 25 23 -2 21 4 0.55276848D+00 0.27770481D-02 0.16899046D+05 0.16899046D+05 0.16899046D+05 0.12419634D+01  1  2  5  1  6  1       21 0.233012022834D-05 0.100000000000D+01
0.255382704187D-05 0.000000000000D+00 -.620146196631D-05 0.727585789561D-06 0.000000000000D+00  6 -1 -2 25 23 -2 -1 4 0.55276848D+00 0.27770481D-02 0.16899046D+05 0.16899046D+05 0.16899046D+05 0.12419634D+01  1  2  5  4  6  1       21 0.192302409492D-05 0.100000000000D+01
0.255382704187D-05 0.000000000000D+00 -.620146196631D-05 0.727585789561D-06 0.000000000000D+00  6 -3 -2 25 23 -2 -3 4 0.55276848D+00 0.27770481D-02 0.16899046D+05 0.16899046D+05 0.16899046D+05 0.12419634D+01  1  2  5  4  6  1       21 0.242667092288D-05 0.100000000000D+01
0.255382704187D-05 0.000000000000D+00 -.620146196631D-05 0.727585789561D-06 0.000000000000D+00  6 1 -2 25 23 1 -2 4 0.55276848D+00 0.27770481D-02 0.16899046D+05 0.16899046D+05 0.16899046D+05 0.12419634D+01  3  4  5  5  5  1       21 0.718142028056D-04 0.100000000000D+01
0.255382704187D-05 0.000000000000D+00 -.620146196631D-05 0.727585789561D-06 0.000000000000D+00  6 3 -2 25 23 3 -2 4 0.55276848D+00 0.27770481D-02 0.16899046D+05 0.16899046D+05 0.16899046D+05 0.12419634D+01  3  4  5  5  5  1       21 0.284003897718D-05 0.100000000000D+01
0.255382704187D-05 0.000000000000D+00 -.620146196631D-05 0.727585789561D-06 0.000000000000D+00  6 -2 -2 25 23 -2 -2 4 0.55276848D+00 0.27770481D-02 0.16899046D+05 0.16899046D+05 0.16899046D+05 0.12419634D+01  1  2  5  6  6  1       21 0.189374176173D-05 0.100000000000D+01
0.255382704187D-05 0.000000000000D+00 -.620146196631D-05 0.727585789561D-06 0.000000000000D+00  6 2 -2 25 23 2 -2 4 0.55276848D+00 0.27770481D-02 0.16899046D+05 0.16899046D+05 0.16899046D+05 0.12419634D+01  3  4  5  7  5  1       21 0.268420016680D-03 0.100000000000D+01
0.255382704187D-05 0.000000000000D+00 -.620146196631D-05 0.727585789561D-06 0.000000000000D+00  6 -4 -2 25 23 -2 -4 4 0.55276848D+00 0.27770481D-02 0.16899046D+05 0.16899046D+05 0.16899046D+05 0.12419634D+01  1  2  5  8  6  1       21 0.611842480731D-06 0.100000000000D+01
0.255382704187D-05 0.000000000000D+00 -.620146196631D-05 0.727585789561D-06 0.000000000000D+00  6 4 -2 25 23 4 -2 4 0.55276848D+00 0.27770481D-02 0.16899046D+05 0.16899046D+05 0.16899046D+05 0.12419634D+01  3  4  5  9  5  1       21 0.611842480731D-06 0.100000000000D+01
  </mgrwgt>
  </event>
  <event>
  5     66 0.32447353E-03 0.68609987E+02 0.75467711E-02 0.10703712E+00
       21 -1    0    0  501  502 0.00000000E+00 0.00000000E+00 0.88529087E+03 0.88529119E+03 0.75000000E+00 0.0000E+00 0.9000E+01
       -2 -1    0    0    0  501 0.00000000E+00 0.00000000E+00 -.15862397E+03 0.15862430E+03 0.32000000E+00 0.0000E+00 0.9000E+01
       25  1    1    2    0    0 -.14446728E+03 0.54980963E+02 0.13140435E+03 0.23829773E+03 0.12500000E+03 0.0000E+00 0.9000E+01
       23  1    1    2    0    0 0.12711002E+03 -.12135905E+03 -.83035343E+01 0.19816452E+03 0.91188000E+02 0.0000E+00 0.9000E+01
       -2  1    1    2    0  502 0.17357268E+02 0.66378091E+02 0.60356608E+03 0.60745324E+03 0.32000000E+00 0.0000E+00 0.9000E+01
#aMCatNLO 1  0  0  1  5 0.22121646D+03 0.00000000D+00  -5  6  0 0.00000000D+00 0.00000000D+00 0.00000000D+00 0.00000000D+00 0.00000000D+00
  <mgrwgt>
 0.2342655848D-01    4    2    0
 0.374738162168350D+03 0.000000000000000D+00 0.000000000000000D+00 0.374738162168350D+03
 0.374738162168350D+03 0.000000000000000D+00 0.000000000000000D+00 -.374738162168350D+03
 0.204510131394285D+03 -.144467287648790D+03 0.549809490580131D+02 -.480176205469376D+02
 0.284066285488590D+03 0.127110011395626D+03 -.121359072862434D+03 -.203699346204791D+03
 0.260899907453825D+03 0.173572762531634D+02 0.663781238044206D+02 0.251716966751729D+03
 0.000000000000000D+00 0.000000000000000D+00 -.000000000000000D+00 -.000000000000000D+00
 0.417258944215629D+03 0.000000000000000D+00 0.000000000000000D+00 0.417258944215629D+03
 0.623863592609668D+03 0.000000000000000D+00 0.000000000000000D+00 -.623863592609668D+03
 0.246047219856258D+03 -.195124865334818D+03 0.673411422836999D+02 -.480176205469376D+02
 0.256059342019275D+03 0.663819911785518D+02 -.106541742496804D+03 -.203699346204791D+03
 0.267718967776674D+03 -.420770036758285D+02 0.808797880708214D+02 0.251716966751729D+03
 0.271297007173089D+03 0.170819877832095D+03 -.416791878577178D+02 -.206604648394040D+03
0.304790945654D-03 0.000000000000D+00 0.000000000000D+00 0.389111357896D-06 0.000000000000D+00  6 21 -2 25 23 -2 21 2 0.13619864D+00 0.24403738D-01 0.54147797D+05 0.54147797D+05 0.54147797D+05 0.11888692D+01  1  2  2  1  6  1       21 0.192152036206D-01 0.100000000000D+01
0.363681215140D-04 0.160842600923D-04 -.615285105112D-06 0.389111357896D-06 0.000000000000D+00  6 21 -2 25 23 -2 21 4 0.13619864D+00 0.24403738D-01 0.54147797D+05 0.54147797D+05 0.54147797D+05 0.11888692D+01  1  2  3  1  6  1       21 0.324064859216D-02 0.100000000000D+01
0.360490836553D-04 0.000000000000D+00 0.000000000000D+00 0.389111357896D-06 0.000000000000D+00  6 21 -2 25 23 -2 21 4 0.13619864D+00 0.24403738D-01 0.54147797D+05 0.54147797D+05 0.54147797D+05 0.11888692D+01  1  2 15  1  6  1       21 0.321222013491D-02 0.100000000000D+01
-.251553496840D-04 0.000000000000D+00 0.000000000000D+00 0.389111357896D-06 0.000000000000D+00  6 21 -2 25 23 -2 21 4 0.13619864D+00 0.24403738D-01 0.54147797D+05 0.54147797D+05 0.54147797D+05 0.11888692D+01  1  2  4  1  6  1       21 -.224151386283D-02 0.100000000000D+01
  </mgrwgt>
  </event>
  <event>
  5     66 0.32447353E-03 0.20097344E+02 0.75467711E-02 0.10220377E+00
       21 -1    0    0  501  502 0.00000000E+00 0.00000000E+00 0.40840494E+03 0.40840563E+03 0.75000000E+00 0.0000E+00 0.9000E+01
       -4 -1    0    0    0  501 0.00000000E+00 0.00000000E+00 -.43046278E+03 0.43046557E+03 0.15500000E+01 0.0000E+00 0.9000E+01
       25  1    1    2    0    0 -.20751692E+02 0.43322518E+02 -.36415562E+03 0.38799715E+03 0.12500000E+03 0.0000E+00 0.9000E+01
       23  1    1    2    0    0 0.27059520E+02 -.24240843E+02 -.95747332E+01 0.98624353E+02 0.91188000E+02 0.0000E+00 0.9000E+01
       -4  1    1    2    0  502 -.63078279E+01 -.19081675E+02 0.35167251E+03 0.35224970E+03 0.15500000E+01 0.0000E+00 0.9000E+01
#aMCatNLO 1  0  0  1  1 0.14304779D+00 0.00000000D+00  -5  6  0 0.00000000D+00 0.00000000D+00 0.00000000D+00 0.00000000D+00 0.00000000D+00
  <mgrwgt>
 0.2364396678D+00    3    2    0
 0.419290574913374D+03 0.000000000000000D+00 0.000000000000000D+00 0.419290574913374D+03
 0.419290574913374D+03 0.000000000000000D+00 0.000000000000000D+00 -.419290574913374D+03
 0.378554092526633D+03 -.207516656059002D+02 0.433225968611261D+02 -.354077282446151D+03
 0.984066379988782D+02 0.270595264378886D+02 -.242408220006947D+02 -.698424197247643D+01
 0.361620419301238D+03 -.630786083198840D+01 -.190817748604315D+02 0.361061524418628D+03
 0.000000000000000D+00 -.000000000000000D+00 -.000000000000000D+00 -.000000000000000D+00
 0.652730261790109D+03 0.000000000000000D+00 0.000000000000000D+00 0.652730261790109D+03
 0.705028515484374D+03 0.000000000000000D+00 0.000000000000000D+00 -.705028515484374D+03
 0.440037131046539D+03 0.409387525185147D+02 0.225745372704392D+03 -.354077282446151D+03
 0.102817012971842D+03 0.422240808668006D+02 0.206018001998767D+02 -.698424197247643D+01
 0.393980946776577D+03 0.506355351712707D+02 0.149303732657238D+03 0.361061524418628D+03
 0.420923686479526D+03 -.133798368556586D+03 -.395650905561507D+03 -.522982536942652D+02
0.383411696225D-02 0.000000000000D+00 0.000000000000D+00 0.149204234260D-04 0.000000000000D+00  6 21 -4 25 23 -4 21 2 0.62831797D-01 0.66225311D-01 0.15897179D+05 0.15897179D+05 0.15897179D+05 0.12449566D+01  1  2  2  1  6  1       21 0.126978498533D+00 0.100000000000D+01
0.169407513542D-02 0.202331910853D-03 -.773997748872D-05 0.149204234260D-04 0.000000000000D+00  6 21 -4 25 23 -4 21 4 0.62831797D-01 0.66225311D-01 0.15897179D+05 0.15897179D+05 0.15897179D+05 0.12449566D+01  1  2  3  1  6  1       21 0.869572811298D-01 0.100000000000D+01
0.438413861316D-03 0.000000000000D+00 0.000000000000D+00 0.149204234260D-04 0.000000000000D+00  6 21 -4 25 23 -4 21 4 0.62831797D-01 0.66225311D-01 0.15897179D+05 0.15897179D+05 0.15897179D+05 0.12449566D+01  1  2 15  1  6  1       21 0.225038881644D-01 0.100000000000D+01
  </mgrwgt>
  </event>
  <event>
  6     66 0.32447353E-03 0.32681583E+02 0.75467711E-02 0.11932889E+00
       21 -1    0    0  501  502 0.00000000E+00 0.00000000E+00 0.11674270E+03 0.11674511E+03 0.75000000E+00 0.0000E+00 0.9000E+01
       -2 -1    0    0    0  501 -.00000000E+00 -.00000000E+00 -.38768661E+03 0.38768674E+03 0.32000000E+00 0.0000E+00 0.9000E+01
       25  1    1    2    0    0 -.33540683E+02 -.85223690E+02 -.24264949E+03 0.28790941E+03 0.12500000E+03 0.0000E+00 0.9000E+01
       23  1    1    2    0    0 0.37874557E+02 0.48184572E+02 -.87618121E+02 0.14052908E+03 0.91188000E+02 0.0000E+00 0.9000E+01
       -2  1    1    2    0  503 0.95433248E+01 0.22031062E+01 0.15175403E+02 0.18064439E+02 0.32000000E+00 0.0000E+00 0.9000E+01
       21  1    1    2  503  502 -.13877199E+02 0.34836012E+02 0.44148299E+02 0.57928915E+02 0.75000000E+00 0.0000E+00 0.9000E+01
#aMCatNLO 2  0  0  5  2 0.12305492D+02 0.00000000D+00  -5  6  0 0.00000000D+00 0.00000000D+00 0.00000000D+00 0.00000000D+00 0.00000000D+00
  <mgrwgt>
 0.9919508473D-02    1    2    0
 0.212744496528813D+03 0.000000000000000D+00 0.000000000000000D+00 0.212744496528813D+03
 0.212744496528813D+03 -.000000000000000D+00 -.000000000000000D+00 -.212744496528813D+03
 0.187818756993583D+03 -.334879067388414D+02 -.856747383265892D+02 -.105779415736407D+03
 0.110817698104078D+03 0.379057788024027D+02 0.479177382966946D+02 -.152431348153678D+02
 0.126852537959965D+03 -.441787206356136D+01 0.377570000298945D+02 0.121022550551775D+03
 0.000000000000000D+00 -.000000000000000D+00 0.000000000000000D+00 0.000000000000000D+00
 0.212744496528813D+03 0.000000000000000D+00 0.000000000000000D+00 0.212744496528813D+03
 0.212744496528813D+03 -.000000000000000D+00 -.000000000000000D+00 -.212744496528813D+03
 0.186829782410622D+03 -.335397264230629D+02 -.852318654252122D+02 -.104359874775725D+03
 0.110808482950612D+03 0.378751244757217D+02 0.481797231158023D+02 -.144033946085410D+02
 0.305842595709276D+02 0.941223833491585D+01 0.215304477737488D+01 0.290201843759689D+02
 0.972664681254639D+02 -.137476363875746D+02 0.348990975320350D+02 0.897430850082971D+02
0.715696294094D-05 0.000000000000D+00 0.000000000000D+00 0.107758265965D-05 0.289158686684D-07  6 21 -2 25 23 -2 21 4 0.17960610D-01 0.59644289D-01 0.24335805D+05 0.24335805D+05 0.24335805D+05 0.12245534D+01  1  2  1  3  6  5       -2 0.991950847332D-02 0.100000000000D+01
  </mgrwgt>
  </event>
  <event>
  6     66 -.32447353E-03 0.79663063E+02 0.75467711E-02 0.11912015E+00
       21 -1    0    0  501  502 0.00000000E+00 0.00000000E+00 0.17026416E+03 0.17026581E+03 0.75000000E+00 0.0000E+00 0.9000E+01
       -4 -1    0    0    0  503 0.00000000E+00 0.00000000E+00 -.19573638E+03 0.19574251E+03 0.15500000E+01 0.0000E+00 0.9000E+01
       25  1    1    2    0    0 -.28940545E+01 -.48572970E+02 0.55281111E+02 0.14508174E+03 0.12500000E+03 0.0000E+00 0.9000E+01
       23  1    1    2    0    0 0.21818344E+02 -.30934175E+02 0.85405077E+01 0.99101740E+02 0.91188000E+02 0.0000E+00 0.9000E+01
       -4  1    1    2    0  502 -.20886744E+02 0.72738173E+02 -.79958369E+02 0.11010377E+03 0.15500000E+01 0.0000E+00 0.9000E+01
       21  1    1    2  501  503 0.19624542E+01 0.67689720E+01 -.93354639E+01 0.11721075E+02 0.75000000E+00 0.0000E+00 0.9000E+01
#aMCatNLO 2  0  0  2  1 0.70477095D+01 0.00000000D+00  -5  6  0 0.00000000D+00 0.00000000D+00 0.00000000D+00 0.00000000D+00 0.00000000D+00
  <mgrwgt>
 -.9795329182D-02    3    2    0
 0.176924695272224D+03 0.000000000000000D+00 0.000000000000000D+00 0.176924695272224D+03
 0.176924695272224D+03 0.000000000000000D+00 0.000000000000000D+00 -.176924695272224D+03
 0.146839386403687D+03 -.207636561798441D+01 -.457587699340077D+02 0.619566709835048D+02
 0.991441481521939D+02 0.223699761968387D+02 -.290356524786764D+02 0.130700351535323D+02
 0.107865855988568D+03 -.202936105788543D+02 0.747944224126841D+02 -.750267061370371D+02
 0.000000000000000D+00 0.000000000000000D+00 0.000000000000000D+00 -.000000000000000D+00
 0.178195831500806D+03 0.000000000000000D+00 0.000000000000000D+00 0.178195831500806D+03
 0.187005966234851D+03 0.000000000000000D+00 0.000000000000000D+00 -.187005966234851D+03
 0.147755368151987D+03 -.289319814768341D+01 -.485762199316613D+02 0.619566709835048D+02
 0.995951854131761D+02 0.218189251340601D+02 -.309363588769691D+02 0.130700351535323D+02
 0.106569015542646D+03 -.208881811740867D+02 0.727436067788358D+02 -.750267061370371D+02
 0.112822286278478D+02 0.196245418771001D+01 0.676897202979472D+01 -.881013473404494D+01
-.969649185675D-05 0.000000000000D+00 0.000000000000D+00 0.130112206978D-06 0.000000000000D+00  6 21 -4 25 23 -4 21 4 0.26006419D-01 0.30210644D-01 0.24901289D+05 0.24901289D+05 0.24901289D+05 0.12234819D+01  1  2 13  2  6  2       -4 -.133208364263D-01 0.100000000000D+01
-.125122791442D-05 0.000000000000D+00 0.000000000000D+00 0.130538638563D-06 0.000000000000D+00  6 21 -4 25 23 -4 21 4 0.26006419D-01 0.28488504D-01 0.23855716D+05 0.23855716D+05 0.23855716D+05 0.12254852D+01  1  2  8  2  6  2       -4 -.193038715687D-02 0.100000000000D+01
0.400112016535D-05 0.000000000000D+00 0.000000000000D+00 0.130538638563D-06 0.723363753648D-07  6 21 -4 25 23 -4 21 4 0.26193265D-01 0.30111795D-01 0.24901289D+05 0.24901289D+05 0.24901289D+05 0.12234819D+01  1  2  1  2  6  2       -4 0.545589440126D-02 0.100000000000D+01
  </mgrwgt>
  </event>
  <event>
  5     66 0.32447353E-03 0.97395615E+02 0.75467711E-02 0.11616757E+00
       21 -1    0    0  501  502 0.00000000E+00 0.00000000E+00 0.35611077E+03 0.35611156E+03 0.75000000E+00 0.0000E+00 0.9000E+01
       -2 -1    0    0    0  501 0.00000000E+00 0.00000000E+00 -.16617296E+03 0.16617326E+03 0.32000000E+00 0.0000E+00 0.9000E+01
       25  1    1    2    0    0 -.24742385E+02 0.47072912E+02 -.52965836E+02 0.14580269E+03 0.12500000E+03 0.0000E+00 0.9000E+01
       23  1    1    2    0    0 0.19658432E+02 0.66964830E+02 0.77562910E+01 0.11509194E+03 0.91188000E+02 0.0000E+00 0.9000E+01
       -2  1    1    2    0  502 0.50839523E+01 -.11403774E+03 0.23514736E+03 0.26139020E+03 0.32000000E+00 0.0000E+00 0.9000E+01
#aMCatNLO 1  0  0  2  1 0.87147894D+01 0.00000000D+00  -5  6  0 0.00000000D+00 0.00000000D+00 0.00000000D+00 0.00000000D+00 0.00000000D+00
  <mgrwgt>
 0.9461438777D-02    8    4    0
 0.243261724052888D+03 0.000000000000000D+00 0.000000000000000D+00 0.243261724052888D+03
 0.243261724052888D+03 0.000000000000000D+00 0.000000000000000D+00 -.243261724052888D+03
 0.177197585185617D+03 -.247423874322025D+02 0.470729716384795D+02 -.113780199511566D+03
 0.120523641494805D+03 0.196584306649755D+02 0.669648705529081D+02 -.366053142424842D+02
 0.188802221425354D+03 0.508395676722702D+01 -.114037842191388D+03 0.150385513754050D+03
 0.000000000000000D+00 0.000000000000000D+00 -.000000000000000D+00 0.000000000000000D+00
 0.248180384892480D+03 0.000000000000000D+00 0.000000000000000D+00 0.248180384892480D+03
 0.247191790757182D+03 0.000000000000000D+00 0.000000000000000D+00 -.247191790757182D+03
 0.178131180276178D+03 -.270267081386688D+02 0.492883417542102D+02 -.113780199511566D+03
 0.121125275922871D+03 0.181049295713194D+02 0.684714803244251D+02 -.366053142424842D+02
 0.187345036924779D+03 0.266579912155189D+01 -.111692674908970D+03 0.150385513754050D+03
 0.877068252583398D+01 0.625597944579756D+01 -.606714716966571D+01 0.988594135297897D+00
 0.243261724052888D+03 0.000000000000000D+00 0.000000000000000D+00 0.243261724052888D+03
 0.243261724052888D+03 0.000000000000000D+00 0.000000000000000D+00 -.243261724052888D+03
 0.177197585185617D+03 -.247423874322025D+02 0.470729716384795D+02 -.113780199511566D+03
 0.120523641494805D+03 0.196584306649755D+02 0.669648705529081D+02 -.366053142424842D+02
 0.000000000000000D+00 0.000000000000000D+00 -.000000000000000D+00 0.000000000000000D+00
 0.188802221425354D+03 0.508395676722702D+01 -.114037842191388D+03 0.150385513754050D+03
 0.248180384892480D+03 0.000000000000000D+00 0.000000000000000D+00 0.248180384892480D+03
 0.247191790757182D+03 0.000000000000000D+00 0.000000000000000D+00 -.247191790757182D+03
 0.178131180276178D+03 -.270267081386688D+02 0.492883417542102D+02 -.113780199511566D+03
 0.121125275922871D+03 0.181049295713194D+02 0.684714803244251D+02 -.366053142424842D+02
 0.877068252583398D+01 0.625597944579756D+01 -.606714716966571D+01 0.988594135297897D+00
 0.187345036924779D+03 0.266579912155189D+01 -.111692674908970D+03 0.150385513754050D+03
0.366240432517D-05 0.000000000000D+00 0.000000000000D+00 0.423191487352D-06 0.000000000000D+00  6 21 -2 25 23 -2 21 2 0.54786357D-01 0.25565155D-01 0.33274032D+05 0.33274032D+05 0.33274032D+05 0.12102053D+01  1  2  2  2  6  2       -2 0.184707589233D-02 0.100000000000D+01
-.871055814439D-07 0.193270386043D-06 -.739333914706D-08 0.423191487352D-06 0.000000000000D+00  6 21 -2 25 23 -2 21 4 0.54786357D-01 0.25565155D-01 0.33274032D+05 0.33274032D+05 0.33274032D+05 0.12102053D+01  1  2  3  2  6  2       -2 -.643402198267D-04 0.100000000000D+01
0.343341365517D-06 0.000000000000D+00 0.000000000000D+00 0.423191487352D-06 0.000000000000D+00  6 21 -2 25 23 -2 21 4 0.54786357D-01 0.25565155D-01 0.33274032D+05 0.33274032D+05 0.33274032D+05 0.12102053D+01  1  2 15  2  6  2       -2 0.253607846556D-03 0.100000000000D+01
0.106239062477D-04 0.000000000000D+00 0.000000000000D+00 0.421806803122D-06 0.000000000000D+00  6 21 -2 25 23 -2 21 4 0.54786357D-01 0.26232000D-01 0.34774506D+05 0.34774506D+05 0.34774506D+05 0.12082238D+01  1  2 12  2  6  2       -2 0.744221793579D-02 0.100000000000D+01
-.271744866432D-05 0.000000000000D+00 0.000000000000D+00 0.423191487352D-06 0.000000000000D+00  6 21 -2 25 23 -2 21 4 0.54786357D-01 0.25565155D-01 0.33274032D+05 0.33274032D+05 0.33274032D+05 0.12102053D+01  1  2  4  2  6  2       -2 -.200723353810D-02 0.100000000000D+01
0.683130359900D-08 0.000000000000D+00 0.000000000000D+00 0.423191487352D-06 0.505611662391D-07  6 21 -2 25 23 -2 21 4 0.55894116D-01 0.25978178D-01 0.34774506D+05 0.34774506D+05 0.34774506D+05 0.12082238D+01  1  2 11  2  6  2       -2 0.466659521215D-05 0.100000000000D+01
0.213731690228D-06 0.000000000000D+00 0.000000000000D+00 0.421806803122D-06 0.000000000000D+00  6 21 21 25 23 2 -2 4 0.54786357D-01 0.26232000D-01 0.34774506D+05 0.34774506D+05 0.34774506D+05 0.12082238D+01  3  4 12 10  5  2       -2 0.198480166688D-02 0.100000000000D+01
0.708588028681D-10 0.000000000000D+00 0.000000000000D+00 0.421806803122D-06 0.171246207411D-09  6 21 21 25 23 2 -2 4 0.55894116D-01 0.25978178D-01 0.34774506D+05 0.34774506D+05 0.34774506D+05 0.12082238D+01  3  4 11 10  5  2       -2 0.642597959174D-06 0.100000000000D+01
  </mgrwgt>
  </event>
  <event>
  5     66 -.32447353E-03 0.74023752E+02 0.75467711E-02 0.11768964E+00
       21 -1    0    0  501  502 0.00000000E+00 0.00000000E+00 0.56146470E+03 0.56146520E+03 0.75000000E+00 0.0000E+00 0.9000E+01
       -2 -1    0    0    0  501 0.00000000E+00 0.00000000E+00 -.53073620E+02 0.53074585E+02 0.32000000E+00 0.0000E+00 0.9000E+01
       25  1    1    2    0    0 -.10562570E+03 -.63262475E+01 0.26442525E+03 0.31103461E+03 0.12500000E+03 0.0000E+00 0.9000E+01
       23  1    1    2    0    0 0.39085085E+02 0.38757431E+02 0.14263312E+03 0.17801472E+03 0.91188000E+02 0.0000E+00 0.9000E+01
       -2  1    1    2    0  502 0.66540619E+02 -.32431184E+02 0.10133271E+03 0.12549046E+03 0.32000000E+00 0.0000E+00 0.9000E+01
#aMCatNLO 1  0  0  5  1 0.89653999D+01 0.00000000D+00  -5  6  0 0.00000000D+00 0.00000000D+00 0.00000000D+00 0.00000000D+00 0.00000000D+00
  <mgrwgt>
 -.1180083551D-01    8    2    0
 0.172625068853709D+03 0.000000000000000D+00 0.000000000000000D+00 0.172625068853709D+03
 0.172625068853709D+03 -.000000000000000D+00 -.000000000000000D+00 -.172625068853709D+03
 0.164262826103874D+03 -.105625999463637D+03 -.632610386823695D+01 0.126650971882396D+02
 0.106831845313212D+03 0.390848935445512D+02 0.387575248084133D+02 -.824725386794323D+01
 0.741554662903321D+02 0.665411059190857D+02 -.324314209401764D+02 -.441784332029636D+01
 0.000000000000000D+00 0.000000000000000D+00 -.000000000000000D+00 0.000000000000000D+00
 0.172625068853709D+03 0.000000000000000D+00 0.000000000000000D+00 0.172625068853709D+03
 0.172625068853709D+03 -.000000000000000D+00 -.000000000000000D+00 -.172625068853709D+03
 0.163540506084380D+03 -.104472865042852D+03 -.688812921008440D+01 0.125885374868655D+02
 0.106981065396935D+03 0.398370366826401D+02 0.383909383145205D+02 -.829719067756815D+01
 0.529611254820942D+02 0.474686261619866D+02 -.203612999023293D+02 -.117058877882494D+02
 0.217674407440089D+02 0.171672021982252D+02 -.111415092021069D+02 0.741454097895206D+01
0.120374380663D-05 0.000000000000D+00 0.000000000000D+00 0.114314319268D-06 0.000000000000D+00  6 21 -2 25 23 -2 21 2 0.86379297D-01 0.81652850D-02 0.29637452D+05 0.29637452D+05 0.29637452D+05 0.12154530D+01  1  2  2  3  6  5       -2 0.147575929089D-02 0.100000000000D+01
-.790814831821D-07 0.635233058801D-07 -.243001193162D-08 0.114314319268D-06 0.000000000000D+00  6 21 -2 25 23 -2 21 4 0.86379297D-01 0.81652850D-02 0.29637452D+05 0.29637452D+05 0.29637452D+05 0.12154530D+01  1  2  3  3  6  5       -2 -.143229539632D-03 0.100000000000D+01
0.134644553237D-06 0.000000000000D+00 0.000000000000D+00 0.114314319268D-06 0.000000000000D+00  6 21 -2 25 23 -2 21 4 0.86379297D-01 0.81652850D-02 0.29637452D+05 0.29637452D+05 0.29637452D+05 0.12154530D+01  1  2 15  3  6  5       -2 0.243863374816D-03 0.100000000000D+01
0.363113863768D-05 0.000000000000D+00 0.000000000000D+00 0.114438566068D-06 0.000000000000D+00  6 21 -2 25 23 -2 21 4 0.86379297D-01 0.81652850D-02 0.29212126D+05 0.29212126D+05 0.29212126D+05 0.12161133D+01  1  2 12  3  6  5       -2 0.659217741707D-02 0.100000000000D+01
-.123801294070D-04 0.000000000000D+00 0.000000000000D+00 0.114314319268D-06 0.000000000000D+00  6 21 -2 25 23 -2 21 4 0.86379297D-01 0.81652850D-02 0.29637452D+05 0.29637452D+05 0.29637452D+05 0.12154530D+01  1  2  4  3  6  5       -2 -.224224453590D-01 0.100000000000D+01
-.343639097534D-05 0.000000000000D+00 0.000000000000D+00 0.114314319268D-06 0.000000000000D+00  6 21 -2 25 23 -2 21 4 0.86379297D-01 0.81652850D-02 0.29637452D+05 0.29637452D+05 0.29637452D+05 0.12154530D+01  1  2  5  3  6  5       -2 -.622386780812D-02 0.100000000000D+01
0.478894210183D-05 0.000000000000D+00 -.000000000000D+00 0.114314319268D-06 0.000000000000D+00  6 21 -2 25 23 -2 21 4 0.86379297D-01 0.81652850D-02 0.29637452D+05 0.29637452D+05 0.29637452D+05 0.12154530D+01  1  2  6  3  6  5       -2 0.867355978886D-02 0.100000000000D+01
0.184379294630D-08 0.000000000000D+00 0.000000000000D+00 0.114314319268D-06 0.143125897397D-07  6 21 -2 25 23 -2 21 4 0.86379297D-01 0.81652850D-02 0.29212126D+05 0.29212126D+05 0.29212126D+05 0.12161133D+01  1  2 11  3  6  5       -2 0.334732750113D-05 0.100000000000D+01
  </mgrwgt>
  </event>
  <event>
  5     66 -.32447353E-03 0.25035244E+02 0.75467711E-02 0.11587069E+00
       21 -1    0    0  501  502 0.00000000E+00 0.00000000E+00 0.50489716E+03 0.50489771E+03 0.75000000E+00 0.0000E+00 0.9000E+01
       -2 -1    0    0    0  501 0.00000000E+00 0.00000000E+00 -.99069940E+02 0.99070456E+02 0.32000000E+00 0.0000E+00 0.9000E+01
       25  1    1    2    0    0 0.34795846E+02 0.26204796E+02 -.14801748E+02 0.13319735E+03 0.12500000E+03 0.0000E+00 0.9000E+01
       23  1    1    2    0    0 -.10220859E+02 -.21426533E+02 0.65491044E+02 0.11475143E+03 0.91188000E+02 0.0000E+00 0.9000E+01
       -2  1    1    2    0  502 -.24574987E+02 -.47782630E+01 0.35513792E+03 0.35601939E+03 0.32000000E+00 0.0000E+00 0.9000E+01
#aMCatNLO 1  0  0  1  2 0.30206813D+02 0.00000000D+00  -5  6  0 0.00000000D+00 0.00000000D+00 0.00000000D+00 0.00000000D+00 0.00000000D+00
  <mgrwgt>
 -.6145876322D-01   12    4    0
 0.223652532205633D+03 0.000000000000000D+00 0.000000000000000D+00 0.223652532205633D+03
 0.223652532205633D+03 0.000000000000000D+00 0.000000000000000D+00 -.223652532205633D+03
 0.193277397444807D+03 0.347958675345240D+02 0.262048006133987D+02 -.140832199408977D+03
 0.955235480929803D+02 -.102208483704301D+02 -.214265313519195D+02 -.156823119815225D+02
 0.158504118873478D+03 -.245750191640940D+02 -.477826926147920D+01 0.156514511390499D+03
 0.000000000000000D+00 -.000000000000000D+00 0.000000000000000D+00 0.000000000000000D+00
 0.842376079700677D+03 0.000000000000000D+00 0.000000000000000D+00 0.842376079700677D+03
 0.233389839362041D+03 0.000000000000000D+00 0.000000000000000D+00 -.233389839362041D+03
 0.193065827147873D+03 0.392775015457687D+02 -.165222000425063D+02 -.140832199408977D+03
 0.102474016882547D+03 -.792404965660902D+01 -.433237500685053D+02 -.156823119815225D+02
 0.162965986495673D+03 -.208459221692140D+02 -.403307327929486D+02 0.156514511390499D+03
 0.617260088536625D+03 -.105075297199456D+02 0.100176682903960D+03 0.608986240338636D+03
 0.223652532205633D+03 0.000000000000000D+00 0.000000000000000D+00 0.223652532205633D+03
 0.223652532205633D+03 0.000000000000000D+00 0.000000000000000D+00 -.223652532205633D+03
 0.193277397444807D+03 0.347958675345240D+02 0.262048006133987D+02 -.140832199408977D+03
 0.955235480929803D+02 -.102208483704301D+02 -.214265313519195D+02 -.156823119815225D+02
 0.000000000000000D+00 -.000000000000000D+00 0.000000000000000D+00 0.000000000000000D+00
 0.158504118873478D+03 -.245750191640940D+02 -.477826926147920D+01 0.156514511390499D+03
 0.842376079700677D+03 0.000000000000000D+00 0.000000000000000D+00 0.842376079700677D+03
 0.233389839362041D+03 0.000000000000000D+00 0.000000000000000D+00 -.233389839362041D+03
 0.193065827147873D+03 0.392775015457687D+02 -.165222000425063D+02 -.140832199408977D+03
 0.102474016882547D+03 -.792404965660902D+01 -.433237500685053D+02 -.156823119815225D+02
 0.617260088536625D+03 -.105075297199456D+02 0.100176682903960D+03 0.608986240338636D+03
 0.162965986495673D+03 -.208459221692140D+02 -.403307327929486D+02 0.156514511390499D+03
0.845263553316D-05 0.000000000000D+00 0.000000000000D+00 0.522249796337D-05 0.000000000000D+00  6 21 -2 25 23 -2 21 2 0.77676568D-01 0.15241612D-01 0.15830052D+05 0.15830052D+05 0.15830052D+05 0.12451647D+01  1  2  2  1  6  1       21 0.516372817443D-02 0.100000000000D+01
0.199685259560D-05 0.446057831832D-06 -.170634358292D-07 0.522249796337D-05 0.000000000000D+00  6 21 -2 25 23 -2 21 4 0.77676568D-01 0.15241612D-01 0.15830052D+05 0.15830052D+05 0.15830052D+05 0.12451647D+01  1  2  3  1  6  1       21 0.189134539185D-02 0.100000000000D+01
0.829487813772D-06 0.000000000000D+00 0.000000000000D+00 0.522249796337D-05 0.000000000000D+00  6 21 -2 25 23 -2 21 4 0.77676568D-01 0.15241612D-01 0.15830052D+05 0.15830052D+05 0.15830052D+05 0.12451647D+01  1  2 15  1  6  1       21 0.785660372544D-03 0.100000000000D+01
-.999032070521D-03 0.000000000000D+00 -.326168193081D-04 0.522249796337D-05 0.000000000000D+00  6 21 -2 25 23 -2 21 4 0.29496344D+00 0.15241612D-01 0.15830052D+05 0.15830052D+05 0.15830052D+05 0.12451647D+01  1  2  5  1  6  1       21 -.252156141252D-01 0.100000000000D+01
-.409889279282D-03 0.000000000000D+00 -.126791016639D-04 0.522249796337D-05 0.000000000000D+00  6 -1 -2 25 23 -2 -1 4 0.29496344D+00 0.15241612D-01 0.15830052D+05 0.15830052D+05 0.15830052D+05 0.12451647D+01  1  2  5  4  6  1       21 -.107469714438D-02 0.100000000000D+01
-.409889279282D-03 0.000000000000D+00 -.126791016639D-04 0.522249796337D-05 0.000000000000D+00  6 -3 -2 25 23 -2 -3 4 0.29496344D+00 0.15241612D-01 0.15830052D+05 0.15830052D+05 0.15830052D+05 0.12451647D+01  1  2  5  4  6  1       21 -.619855448225D-03 0.100000000000D+01
-.409889279282D-03 0.000000000000D+00 -.126791016639D-04 0.522249796337D-05 0.000000000000D+00  6 1 -2 25 23 1 -2 4 0.29496344D+00 0.15241612D-01 0.15830052D+05 0.15830052D+05 0.15830052D+05 0.12451647D+01  3  4  5  5  5  1       21 -.116859302828D-01 0.100000000000D+01
-.409889279282D-03 0.000000000000D+00 -.126791016639D-04 0.522249796337D-05 0.000000000000D+00  6 3 -2 25 23 3 -2 4 0.29496344D+00 0.15241612D-01 0.15830052D+05 0.15830052D+05 0.15830052D+05 0.12451647D+01  3  4  5  5  5  1       21 -.629211452280D-03 0.100000000000D+01
-.409889279282D-03 0.000000000000D+00 -.126791016639D-04 0.522249796337D-05 0.000000000000D+00  6 -2 -2 25 23 -2 -2 4 0.29496344D+00 0.15241612D-01 0.15830052D+05 0.15830052D+05 0.15830052D+05 0.12451647D+01  1  2  5  6  6  1       21 -.881239207326D-03 0.100000000000D+01
-.409889279282D-03 0.000000000000D+00 -.126791016639D-04 0.522249796337D-05 0.000000000000D+00  6 2 -2 25 23 2 -2 4 0.29496344D+00 0.15241612D-01 0.15830052D+05 0.15830052D+05 0.15830052D+05 0.12451647D+01  3  4  5  7  5  1       21 -.283133576778D-01 0.100000000000D+01
-.409889279282D-03 0.000000000000D+00 -.126791016639D-04 0.522249796337D-05 0.000000000000D+00  6 -4 -2 25 23 -2 -4 4 0.29496344D+00 0.15241612D-01 0.15830052D+05 0.15830052D+05 0.15830052D+05 0.12451647D+01  1  2  5  8  6  1       21 -.439795908338D-03 0.100000000000D+01
-.409889279282D-03 0.000000000000D+00 -.126791016639D-04 0.522249796337D-05 0.000000000000D+00  6 4 -2 25 23 4 -2 4 0.29496344D+00 0.15241612D-01 0.15830052D+05 0.15830052D+05 0.15830052D+05 0.12451647D+01  3  4  5  9  5  1       21 -.439795908338D-03 0.100000000000D+01
  </mgrwgt>
  </event>
  <event>
  5     66 -.32447353E-03 0.39778701E+02 0.75467711E-02 0.12255518E+00
       21 -1    0    0  501  502 0.00000000E+00 0.00000000E+00 0.82135897E+02 0.82139321E+02 0.75000000E+00 0.0000E+00 0.9000E+01
       -2 -1    0    0    0  501 0.00000000E+00 0.00000000E+00 -.70057352E+03 0.70057360E+03 0.32000000E+00 0.0000E+00 0.9000E+01
       25  1    1    2    0    0 -.18895778E+02 -.27000529E+02 -.15993647E+03 0.20564716E+03 0.12500000E+03 0.0000E+00 0.9000E+01
       23  1    1    2    0    0 -.68281923E+01 -.33411650E+01 -.50651487E+03 0.51471385E+03 0.91188000E+02 0.0000E+00 0.9000E+01
       -2  1    1    2    0  502 0.25723970E+02 0.30341694E+02 0.48013713E+02 0.62351906E+02 0.32000000E+00 0.0000E+00 0.9000E+01
#aMCatNLO 1  0  0  2  1 0.17061715D+01 0.00000000D+00  -5  6  0 0.00000000D+00 0.00000000D+00 0.00000000D+00 0.00000000D+00 0.00000000D+00
  <mgrwgt>
 -.5532430287D-02   11    4    0
 0.239882477992353D+03 0.000000000000000D+00 0.000000000000000D+00 0.239882477992353D+03
 0.239882477992353D+03 0.000000000000000D+00 0.000000000000000D+00 -.239882477992353D+03
 0.129338244075377D+03 -.188957911377030D+02 -.270005449979579D+02 0.415945039582091D+01
 0.186811014796994D+03 -.682821149934867D+01 -.334118763288114D+01 -.162865944563020D+03
 0.163615697112336D+03 0.257240026370517D+02 0.303417326308391D+02 0.158706494167199D+03
 0.000000000000000D+00 -.000000000000000D+00 -.000000000000000D+00 -.000000000000000D+00
 0.239922701433915D+03 0.000000000000000D+00 0.000000000000000D+00 0.239922701433915D+03
 0.258685860616907D+03 0.000000000000000D+00 0.000000000000000D+00 -.258685860616907D+03
 0.129254453179240D+03 -.184447810357275D+02 -.269110143178042D+02 0.415945039582091D+01
 0.186786064329498D+03 -.617662288705055D+01 -.321183981698085D+01 -.162865944563020D+03
 0.163727472265677D+03 0.262949200595834D+02 0.304550662899456D+02 0.158706494167199D+03
 0.188405722764064D+02 -.167351613680531D+01 -.332212155160581D+00 -.187631591829923D+02
 0.239882477992353D+03 0.000000000000000D+00 0.000000000000000D+00 0.239882477992353D+03
 0.239882477992353D+03 0.000000000000000D+00 0.000000000000000D+00 -.239882477992353D+03
 0.129338244075377D+03 -.188957911377030D+02 -.270005449979579D+02 0.415945039582091D+01
 0.186811014796994D+03 -.682821149934867D+01 -.334118763288114D+01 -.162865944563020D+03
 0.000000000000000D+00 -.000000000000000D+00 -.000000000000000D+00 -.000000000000000D+00
 0.163615697112336D+03 0.257240026370517D+02 0.303417326308391D+02 0.158706494167199D+03
 0.239922701433915D+03 0.000000000000000D+00 0.000000000000000D+00 0.239922701433915D+03
 0.258685860616907D+03 0.000000000000000D+00 0.000000000000000D+00 -.258685860616907D+03
 0.129254453179240D+03 -.184447810357275D+02 -.269110143178042D+02 0.415945039582091D+01
 0.186786064329498D+03 -.617662288705055D+01 -.321183981698085D+01 -.162865944563020D+03
 0.188405722764064D+02 -.167351613680531D+01 -.332212155160581D+00 -.187631591829923D+02
 0.163727472265677D+03 0.262949200595834D+02 0.304550662899456D+02 0.158706494167199D+03
0.395322483091D-06 0.000000000000D+00 0.000000000000D+00 0.131390458069D-05 0.000000000000D+00  6 21 -2 25 23 -2 21 2 0.12636561D-01 0.10778081D+00 0.16972143D+05 0.16972143D+05 0.16972143D+05 0.12417529D+01  1  2  2  2  6  2       -2 0.194215484731D-03 0.100000000000D+01
0.448850913870D-07 0.208617405767D-07 -.798042195904D-09 0.131390458069D-05 0.000000000000D+00  6 21 -2 25 23 -2 21 4 0.12636561D-01 0.10778081D+00 0.16972143D+05 0.16972143D+05 0.16972143D+05 0.12417529D+01  1  2  3  2  6  2       -2 0.340020271330D-04 0.100000000000D+01
0.394978124893D-07 0.000000000000D+00 0.000000000000D+00 0.131390458069D-05 0.000000000000D+00  6 21 -2 25 23 -2 21 4 0.12636561D-01 0.10778081D+00 0.16972143D+05 0.16972143D+05 0.16972143D+05 0.12417529D+01  1  2 15  2  6  2       -2 0.299209748817D-04 0.100000000000D+01
0.156615248787D-06 0.000000000000D+00 0.000000000000D+00 0.131230570611D-05 0.000000000000D+00  6 21 -2 25 23 -2 21 4 0.12636561D-01 0.11623794D+00 0.17237461D+05 0.17237461D+05 0.17237461D+05 0.12409971D+01  1  2 12  2  6  2       -2 0.990320645778D-04 0.100000000000D+01
-.398626068310D-03 0.000000000000D+00 0.000000000000D+00 0.131390458069D-05 0.000000000000D+00  6 21 -2 25 23 -2 21 4 0.12636561D-01 0.10778081D+00 0.16972143D+05 0.16972143D+05 0.16972143D+05 0.12417529D+01  1  2  4  2  6  2       -2 -.301973193587D+00 0.100000000000D+01
-.404264228311D-03 0.000000000000D+00 -.176536849677D-05 0.131390458069D-05 0.000000000000D+00  6 21 -2 25 23 -2 21 4 0.12636561D-01 0.11623763D+00 0.16972143D+05 0.16972143D+05 0.16972143D+05 0.12417529D+01  1  2  5  2  6  2       -2 -.256283100037D+00 0.100000000000D+01
0.403251612365D-03 0.000000000000D+00 0.176034399058D-05 0.131390458069D-05 0.000000000000D+00  6 21 -2 25 23 -2 21 4 0.12636561D-01 0.10778081D+00 0.16972143D+05 0.16972143D+05 0.16972143D+05 0.12417529D+01  1  2  6  2  6  2       -2 0.305477205044D+00 0.100000000000D+01
0.392918454792D-03 0.000000000000D+00 0.000000000000D+00 0.131390458069D-05 0.366331581828D-05  6 21 -2 25 23 -2 21 4 0.12638680D-01 0.11622930D+00 0.17237461D+05 0.17237461D+05 0.17237461D+05 0.12409971D+01  1  2 11  2  6  2       -2 0.248422738898D+00 0.100000000000D+01
0.226385752101D-08 0.000000000000D+00 0.000000000000D+00 0.131230570611D-05 0.000000000000D+00  6 21 21 25 23 2 -2 4 0.12636561D-01 0.11623794D+00 0.17237461D+05 0.17237461D+05 0.17237461D+05 0.12409971D+01  3  4 12 10  5  2       -2 0.170380543180D-04 0.100000000000D+01
-.512722213980D-05 0.000000000000D+00 -.224036772348D-07 0.131390458069D-05 0.000000000000D+00  6 21 21 25 23 2 -2 4 0.12636561D-01 0.11623763D+00 0.16972143D+05 0.16972143D+05 0.16972143D+05 0.12417529D+01  3  4  5 10  5  2       -2 -.387098293733D-01 0.100000000000D+01
0.493800007311D-05 0.000000000000D+00 0.000000000000D+00 0.131390458069D-05 0.460302646126D-07  6 21 21 25 23 2 -2 4 0.12638680D-01 0.11622930D+00 0.17237461D+05 0.17237461D+05 0.17237461D+05 0.12409971D+01  3  4 11 10  5  2       -2 0.371595401633D-01 0.100000000000D+01
  </mgrwgt>
  </event>
  <event>
  5     66 -.32447353E-03 0.22887061E+02 0.75467711E-02 0.12009634E+00
       21 -1    0    0  501  502 0.00000000E+00 0.00000000E+00 0.67396777E+03 0.67396818E+03 0.75000000E+00 0.0000E+00 0.9000E+01
       -2 -1    0    0    0  501 0.00000000E+00 0.00000000E+00 -.41216092E+02 0.41217334E+02 0.32000000E+00 0.0000E+00 0.9000E+01
       25  1    1    2    0    0 0.41923890E+02 0.61420745E+02 0.46714256E+03 0.48926199E+03 0.12500000E+03 0.0000E+00 0.9000E+01
       23  1    1    2    0    0 -.20715721E+02 -.52819952E+02 0.71381624E+02 0.12895610E+03 0.91188000E+02 0.0000E+00 0.9000E+01
       -2  1    1    2    0  502 -.21208169E+02 -.86007932E+01 0.94227488E+02 0.96967428E+02 0.32000000E+00 0.0000E+00 0.9000E+01
#aMCatNLO 1  0  0  1  1 0.23281938D+02 0.00000000D+00  -5  6  0 0.00000000D+00 0.00000000D+00 0.00000000D+00 0.00000000D+00 0.00000000D+00
  <mgrwgt>
 -.7113012190D-01   12    4    0
 0.166670065531071D+03 0.000000000000000D+00 0.000000000000000D+00 0.166670065531071D+03
 0.166670065531071D+03 0.000000000000000D+00 0.000000000000000D+00 -.166670065531071D+03
 0.162980242994678D+03 0.419245138769984D+02 0.614209978280341D+02 0.735347249168057D+02
 0.141179339900289D+03 -.207151811594473D+02 -.528197326607285D+02 -.916368472933331D+02
 0.291805481671757D+02 -.212093327175511D+02 -.860126516730561D+01 0.181021223765274D+02
 0.000000000000000D+00 0.000000000000000D+00 -.000000000000000D+00 0.000000000000000D+00
 0.444488324438327D+03 0.000000000000000D+00 0.000000000000000D+00 0.444488324438327D+03
 0.167564585740627D+03 0.000000000000000D+00 0.000000000000000D+00 -.167564585740627D+03
 0.167313348613926D+03 0.406379202636567D+02 0.728694743528421D+02 0.735347249168057D+02
 0.138018770486488D+03 -.218027423922621D+02 -.431423029626026D+02 -.916368472933331D+02
 0.288200791639031D+02 -.214352627343297D+02 -.659087551006135D+01 0.181021223765274D+02
 0.277900711914637D+03 0.260008486293507D+01 -.231362958801782D+02 0.276923738697700D+03
 0.166670065531071D+03 0.000000000000000D+00 0.000000000000000D+00 0.166670065531071D+03
 0.166670065531071D+03 0.000000000000000D+00 0.000000000000000D+00 -.166670065531071D+03
 0.162980242994678D+03 0.419245138769984D+02 0.614209978280341D+02 0.735347249168057D+02
 0.141179339900289D+03 -.207151811594473D+02 -.528197326607285D+02 -.916368472933331D+02
 0.000000000000000D+00 0.000000000000000D+00 -.000000000000000D+00 0.000000000000000D+00
 0.291805481671757D+02 -.212093327175511D+02 -.860126516730561D+01 0.181021223765274D+02
 0.444488324438327D+03 0.000000000000000D+00 0.000000000000000D+00 0.444488324438327D+03
 0.167564585740627D+03 0.000000000000000D+00 0.000000000000000D+00 -.167564585740627D+03
 0.167313348613926D+03 0.406379202636567D+02 0.728694743528421D+02 0.735347249168057D+02
 0.138018770486488D+03 -.218027423922621D+02 -.431423029626026D+02 -.916368472933331D+02
 0.277900711914637D+03 0.260008486293507D+01 -.231362958801782D+02 0.276923738697700D+03
 0.288200791639031D+02 -.214352627343297D+02 -.659087551006135D+01 0.181021223765274D+02
0.100596856410D-05 0.000000000000D+00 0.000000000000D+00 0.380019294422D-06 0.000000000000D+00  6 21 -2 25 23 -2 21 2 0.10368748D+00 0.63410649D-02 0.19007196D+05 0.19007196D+05 0.19007196D+05 0.12362678D+01  1  2  2  1  6  1       21 0.123730106074D-02 0.100000000000D+01
0.650867134034D-07 0.530864195944D-07 -.203076069852D-08 0.380019294422D-06 0.000000000000D+00  6 21 -2 25 23 -2 21 4 0.10368748D+00 0.63410649D-02 0.19007196D+05 0.19007196D+05 0.19007196D+05 0.12362678D+01  1  2  3  1  6  1       21 0.122351261855D-03 0.100000000000D+01
0.137370204803D-06 0.000000000000D+00 0.000000000000D+00 0.380019294422D-06 0.000000000000D+00  6 21 -2 25 23 -2 21 4 0.10368748D+00 0.63410649D-02 0.19007196D+05 0.19007196D+05 0.19007196D+05 0.12362678D+01  1  2 15  1  6  1       21 0.258231166088D-03 0.100000000000D+01
-.251540343074D-03 0.000000000000D+00 -.198227925501D-05 0.380019294422D-06 0.000000000000D+00  6 21 -2 25 23 -2 21 4 0.27682246D+00 0.63410649D-02 0.19007196D+05 0.19007196D+05 0.19007196D+05 0.12362678D+01  1  2  5  1  6  1       21 -.304465429716D-01 0.100000000000D+01
-.875342338298D-04 0.000000000000D+00 -.653672348400D-06 0.380019294422D-06 0.000000000000D+00  6 -1 -2 25 23 -2 -1 4 0.27682246D+00 0.63410649D-02 0.19007196D+05 0.19007196D+05 0.19007196D+05 0.12362678D+01  1  2  5  4  6  1       21 -.113667053806D-02 0.100000000000D+01
-.875342338298D-04 0.000000000000D+00 -.653672348400D-06 0.380019294422D-06 0.000000000000D+00  6 -3 -2 25 23 -2 -3 4 0.27682246D+00 0.63410649D-02 0.19007196D+05 0.19007196D+05 0.19007196D+05 0.12362678D+01  1  2  5  4  6  1       21 -.634477181345D-03 0.100000000000D+01
-.875342338298D-04 0.000000000000D+00 -.653672348400D-06 0.380019294422D-06 0.000000000000D+00  6 1 -2 25 23 1 -2 4 0.27682246D+00 0.63410649D-02 0.19007196D+05 0.19007196D+05 0.19007196D+05 0.12362678D+01  3  4  5  5  5  1       21 -.113754669703D-01 0.100000000000D+01
-.875342338298D-04 0.000000000000D+00 -.653672348400D-06 0.380019294422D-06 0.000000000000D+00  6 3 -2 25 23 3 -2 4 0.27682246D+00 0.63410649D-02 0.19007196D+05 0.19007196D+05 0.19007196D+05 0.12362678D+01  3  4  5  5  5  1       21 -.642555650525D-03 0.100000000000D+01
-.875342338298D-04 0.000000000000D+00 -.653672348400D-06 0.380019294422D-06 0.000000000000D+00  6 -2 -2 25 23 -2 -2 4 0.27682246D+00 0.63410649D-02 0.19007196D+05 0.19007196D+05 0.19007196D+05 0.12362678D+01  1  2  5  6  6  1       21 -.916793156914D-03 0.100000000000D+01
-.875342338298D-04 0.000000000000D+00 -.653672348400D-06 0.380019294422D-06 0.000000000000D+00  6 2 -2 25 23 2 -2 4 0.27682246D+00 0.63410649D-02 0.19007196D+05 0.19007196D+05 0.19007196D+05 0.12362678D+01  3  4  5  7  5  1       21 -.266759369238D-01 0.100000000000D+01
-.875342338298D-04 0.000000000000D+00 -.653672348400D-06 0.380019294422D-06 0.000000000000D+00  6 -4 -2 25 23 -2 -4 4 0.27682246D+00 0.63410649D-02 0.19007196D+05 0.19007196D+05 0.19007196D+05 0.12362678D+01  1  2  5  8  6  1       21 -.459780998083D-03 0.100000000000D+01
-.875342338298D-04 0.000000000000D+00 -.653672348400D-06 0.380019294422D-06 0.000000000000D+00  6 4 -2 25 23 4 -2 4 0.27682246D+00 0.63410649D-02 0.19007196D+05 0.19007196D+05 0.19007196D+05 0.12362678D+01  3  4  5  9  5  1       21 -.459780998083D-03 0.100000000000D+01
  </mgrwgt>
  </event>
  <event>
  6     66 -.32447353E-03 0.18904776E+02 0.75467711E-02 0.12277505E+00
       21 -1    0    0  501  502 0.00000000E+00 0.00000000E+00 0.53375647E+03 0.53375700E+03 0.75000000E+00 0.0000E+00 0.9000E+01
       -2 -1    0    0    0  503 0.00000000E+00 0.00000000E+00 -.49545304E+03 0.49545314E+03 0.32000000E+00 0.0000E+00 0.9000E+01
       25  1    1    2    0    0 -.74903214E+01 0.30781805E+02 -.10807254E+03 0.16825070E+03 0.12500000E+03 0.0000E+00 0.9000E+01
       23  1    1    2    0    0 -.17529803E+02 -.15867439E+02 -.34344287E+03 0.35612825E+03 0.91188000E+02 0.0000E+00 0.9000E+01
       -2  1    1    2    0  502 0.14513375E+02 -.20050943E+02 0.49224208E+03 0.49286412E+03 0.32000000E+00 0.0000E+00 0.9000E+01
       21  1    1    2  501  503 0.10506749E+02 0.51365769E+01 -.24232308E+01 0.11967070E+02 0.75000000E+00 0.0000E+00 0.9000E+01
#aMCatNLO 2  0  0  2  1 0.11695136D+02 0.00000000D+00  -5  6  0 0.00000000D+00 0.00000000D+00 0.00000000D+00 0.00000000D+00 0.00000000D+00
  <mgrwgt>
 -.1151049654D+01    3    2    0
 0.508180091748794D+03 0.000000000000000D+00 0.000000000000000D+00 0.508180091748794D+03
 0.508180091748794D+03 0.000000000000000D+00 0.000000000000000D+00 -.508180091748794D+03
 0.172805588571034D+03 -.570444518841750D+01 0.316548920053510D+02 -.114900820530593D+03
 0.369938365783620D+03 -.137044229414885D+02 -.139972718850089D+02 -.357988000226647D+03
 0.473616229142933D+03 0.194088681299060D+02 -.176576201203421D+02 0.472888820757240D+03
 0.000000000000000D+00 0.000000000000000D+00 0.000000000000000D+00 -.000000000000000D+00
 0.512786645938002D+03 0.000000000000000D+00 0.000000000000000D+00 0.512786645938002D+03
 0.515691257080971D+03 0.000000000000000D+00 0.000000000000000D+00 -.515691257080971D+03
 0.172716018571937D+03 -.749032229614628D+01 0.307818060652394D+02 -.114900820530593D+03
 0.370175268334600D+03 -.175298045354760D+02 -.158674380183996D+02 -.357988000226647D+03
 0.473536181634366D+03 0.145133774486608D+02 -.200509449830916D+02 0.472888820757240D+03
 0.120504344780699D+02 0.105067493829615D+02 0.513657693625181D+01 -.290461114296918D+01
-.339771159873D-02 0.000000000000D+00 0.000000000000D+00 0.311700291437D-04 0.000000000000D+00  6 21 -2 25 23 -2 21 4 0.81376900D-01 0.76558234D-01 0.16848445D+05 0.16848445D+05 0.16848445D+05 0.12421098D+01  1  2 13  2  6  2       -2 -.142982150661D+00 0.100000000000D+01
-.234758072361D-01 0.000000000000D+00 0.000000000000D+00 0.313841247149D-04 0.000000000000D+00  6 21 -2 25 23 -2 21 4 0.81376900D-01 0.75111674D-01 0.15447945D+05 0.15447945D+05 0.15447945D+05 0.12463683D+01  1  2  8  2  6  2       -2 -.104814364982D+01 0.100000000000D+01
0.962600316588D-03 0.000000000000D+00 0.000000000000D+00 0.313841247149D-04 0.192094040066D-05  6 21 -2 25 23 -2 21 4 0.82114566D-01 0.76221864D-01 0.16848445D+05 0.16848445D+05 0.16848445D+05 0.12421098D+01  1  2  1  2  6  2       -2 0.400761466339D-01 0.100000000000D+01
  </mgrwgt>
  </event>
  <event>
  5     66 0.32447353E-03 0.23084853E+02 0.75467711E-02 0.12163415E+00
       21 -1    0    0  501  502 0.00000000E+00 0.00000000E+00 0.89271843E+02 0.89274994E+02 0.75000000E+00 0.0000E+00 0.9000E+01
       -2 -1    0    0    0  501 0.00000000E+00 0.00000000E+00 -.24825187E+03 0.24825208E+03 0.32000000E+00 0.0000E+00 0.9000E+01
       25  1    1    2    0    0 0.51866986E+02 -.14188738E+02 -.70293835E+02 0.15315916E+03 0.12500000E+03 0.0000E+00 0.9000E+01
       23  1    1    2    0    0 -.37476839E+02 0.32239079E+02 -.11123731E+03 0.15209491E+03 0.91188000E+02 0.0000E+00 0.9000E+01
       -2  1    1    2    0  502 -.14390147E+02 -.18050340E+02 0.22551120E+02 0.32273000E+02 0.32000000E+00 0.0000E+00 0.9000E+01
#aMCatNLO 1  0  0  1  2 0.13083230D+02 0.00000000D+00  -5  6  0 0.00000000D+00 0.00000000D+00 0.00000000D+00 0.00000000D+00 0.00000000D+00
  <mgrwgt>
 0.2977909762D-01   23    4    0
 0.148870643922177D+03 0.000000000000000D+00 0.000000000000000D+00 0.148870643922177D+03
 0.148870643922177D+03 0.000000000000000D+00 0.000000000000000D+00 -.148870643922177D+03
 0.136091488085882D+03 0.518671282212763D+02 -.141885598082712D+02 0.209258454420864D+01
 0.113023230159506D+03 -.374767205470808D+02 0.322392270168272D+02 -.448901645138684D+02
 0.486265695989652D+02 -.143904076741955D+02 -.180506672085560D+02 0.427975799696598D+02
 0.000000000000000D+00 0.000000000000000D+00 -.000000000000000D+00 0.000000000000000D+00
 0.158255445611154D+03 0.000000000000000D+00 0.000000000000000D+00 0.158255445611154D+03
 0.153644971906700D+03 0.000000000000000D+00 0.000000000000000D+00 -.153644971906700D+03
 0.135484757613053D+03 0.515651942515344D+02 -.823233728625699D+01 0.209258454420864D+01
 0.114630492688882D+03 -.377298221837472D+02 0.372321387781642D+02 -.448901645138684D+02
 0.479133479711086D+02 -.144977391548096D+02 -.159333493635272D+02 0.427975799696598D+02
 0.138718192448099D+02 0.662367087022481D+00 -.130664521283800D+02 0.461047370445413D+01
 0.148870643922177D+03 0.000000000000000D+00 0.000000000000000D+00 0.148870643922177D+03
 0.148870643922177D+03 0.000000000000000D+00 0.000000000000000D+00 -.148870643922177D+03
 0.136091488085882D+03 0.518671282212763D+02 -.141885598082712D+02 0.209258454420864D+01
 0.113023230159506D+03 -.374767205470808D+02 0.322392270168272D+02 -.448901645138684D+02
 0.000000000000000D+00 0.000000000000000D+00 -.000000000000000D+00 0.000000000000000D+00
 0.486265695989652D+02 -.143904076741955D+02 -.180506672085560D+02 0.427975799696598D+02
 0.158255445611154D+03 0.000000000000000D+00 0.000000000000000D+00 0.158255445611154D+03
 0.153644971906700D+03 0.000000000000000D+00 0.000000000000000D+00 -.153644971906700D+03
 0.135484757613053D+03 0.515651942515344D+02 -.823233728625699D+01 0.209258454420864D+01
 0.114630492688882D+03 -.377298221837472D+02 0.372321387781642D+02 -.448901645138684D+02
 0.138718192448099D+02 0.662367087022481D+00 -.130664521283800D+02 0.461047370445413D+01
 0.479133479711086D+02 -.144977391548096D+02 -.159333493635272D+02 0.427975799696598D+02
0.839018575463D-06 0.000000000000D+00 0.000000000000D+00 0.122533700546D-05 0.000000000000D+00  6 21 -2 25 23 -2 21 2 0.13734388D-01 0.38192854D-01 0.17277321D+05 0.17277321D+05 0.17277321D+05 0.12408847D+01  1  2  2  1  6  1       21 0.310430927867D-02 0.100000000000D+01
0.884218845659D-07 0.442762266478D-07 -.169373677189D-08 0.122533700546D-05 0.000000000000D+00  6 21 -2 25 23 -2 21 4 0.13734388D-01 0.38192854D-01 0.17277321D+05 0.17277321D+05 0.17277321D+05 0.12408847D+01  1  2  3  1  6  1       21 0.503751134954D-03 0.100000000000D+01
0.862335811823D-07 0.000000000000D+00 0.000000000000D+00 0.122533700546D-05 0.000000000000D+00  6 21 -2 25 23 -2 21 4 0.13734388D-01 0.38192854D-01 0.17277321D+05 0.17277321D+05 0.17277321D+05 0.12408847D+01  1  2 15  1  6  1       21 0.491284082046D-03 0.100000000000D+01
0.269231513929D-05 0.000000000000D+00 0.000000000000D+00 0.121634865851D-05 0.000000000000D+00  6 21 -2 25 23 -2 21 4 0.14809771D-01 0.38192854D-01 0.18984570D+05 0.18984570D+05 0.18984570D+05 0.12363251D+01  1  2 12  1  6  1       21 0.132111331200D-01 0.100000000000D+01
-.246663411216D-06 0.000000000000D+00 0.000000000000D+00 0.122533700546D-05 0.000000000000D+00  6 21 -2 25 23 -2 21 4 0.13734388D-01 0.38192854D-01 0.17277321D+05 0.17277321D+05 0.17277321D+05 0.12408847D+01  1  2  4  1  6  1       21 -.140527397670D-02 0.100000000000D+01
-.168194279407D-04 0.000000000000D+00 -.316793217428D-05 0.122533700546D-05 0.000000000000D+00  6 21 -2 25 23 -2 21 4 0.15049447D-01 0.38192854D-01 0.17277321D+05 0.17277321D+05 0.17277321D+05 0.12408847D+01  1  2  5  1  6  1       21 -.812983845957D-01 0.100000000000D+01
0.168288493312D-04 0.000000000000D+00 0.311557904972D-05 0.122533700546D-05 0.000000000000D+00  6 21 -2 25 23 -2 21 4 0.13734388D-01 0.38192854D-01 0.17277321D+05 0.17277321D+05 0.17277321D+05 0.12408847D+01  1  2  6  1  6  1       21 0.958761735537D-01 0.100000000000D+01
0.510495332274D-07 0.000000000000D+00 0.000000000000D+00 0.121634865851D-05 0.000000000000D+00  6 -1 -2 25 23 -2 -1 4 0.14809771D-01 0.38192854D-01 0.18984570D+05 0.18984570D+05 0.18984570D+05 0.12363251D+01  1  2 12  4  6  1       21 0.181970676119D-04 0.100000000000D+01
0.510495332274D-07 0.000000000000D+00 0.000000000000D+00 0.121634865851D-05 0.000000000000D+00  6 -3 -2 25 23 -2 -3 4 0.14809771D-01 0.38192854D-01 0.18984570D+05 0.18984570D+05 0.18984570D+05 0.12363251D+01  1  2 12  4  6  1       21 0.113417900203D-04 0.100000000000D+01
-.327040419331D-06 0.000000000000D+00 -.731942667803D-07 0.122533700546D-05 0.000000000000D+00  6 -1 -2 25 23 -2 -1 4 0.15049447D-01 0.38192854D-01 0.17277321D+05 0.17277321D+05 0.17277321D+05 0.12408847D+01  1  2  5  4  6  1       21 -.115086309371D-03 0.100000000000D+01
-.327040419331D-06 0.000000000000D+00 -.731942667803D-07 0.122533700546D-05 0.000000000000D+00  6 -3 -2 25 23 -2 -3 4 0.15049447D-01 0.38192854D-01 0.17277321D+05 0.17277321D+05 0.17277321D+05 0.12408847D+01  1  2  5  4  6  1       21 -.714049987738D-04 0.100000000000D+01
0.510495332274D-07 0.000000000000D+00 0.000000000000D+00 0.121634865851D-05 0.000000000000D+00  6 1 -2 25 23 1 -2 4 0.14809771D-01 0.38192854D-01 0.18984570D+05 0.18984570D+05 0.18984570D+05 0.12363251D+01  3  4 12  5  5  1       21 0.250015455817D-04 0.100000000000D+01
0.510495332274D-07 0.000000000000D+00 0.000000000000D+00 0.121634865851D-05 0.000000000000D+00  6 3 -2 25 23 3 -2 4 0.14809771D-01 0.38192854D-01 0.18984570D+05 0.18984570D+05 0.18984570D+05 0.12363251D+01  3  4 12  5  5  1       21 0.113403899714D-04 0.100000000000D+01
-.327040419331D-06 0.000000000000D+00 -.731942667803D-07 0.122533700546D-05 0.000000000000D+00  6 1 -2 25 23 1 -2 4 0.15049447D-01 0.38192854D-01 0.17277321D+05 0.17277321D+05 0.17277321D+05 0.12408847D+01  3  4  5  5  5  1       21 -.158830346868D-03 0.100000000000D+01
-.327040419331D-06 0.000000000000D+00 -.731942667803D-07 0.122533700546D-05 0.000000000000D+00  6 3 -2 25 23 3 -2 4 0.15049447D-01 0.38192854D-01 0.17277321D+05 0.17277321D+05 0.17277321D+05 0.12408847D+01  3  4  5  5  5  1       21 -.713961401782D-04 0.100000000000D+01
0.510495332274D-07 0.000000000000D+00 0.000000000000D+00 0.121634865851D-05 0.000000000000D+00  6 -2 -2 25 23 -2 -2 4 0.14809771D-01 0.38192854D-01 0.18984570D+05 0.18984570D+05 0.18984570D+05 0.12363251D+01  1  2 12  6  6  1       21 0.170246572617D-04 0.100000000000D+01
-.327040419331D-06 0.000000000000D+00 -.731942667803D-07 0.122533700546D-05 0.000000000000D+00  6 -2 -2 25 23 -2 -2 4 0.15049447D-01 0.38192854D-01 0.17277321D+05 0.17277321D+05 0.17277321D+05 0.12408847D+01  1  2  5  6  6  1       21 -.107548644461D-03 0.100000000000D+01
0.510495332274D-07 0.000000000000D+00 0.000000000000D+00 0.121634865851D-05 0.000000000000D+00  6 2 -2 25 23 2 -2 4 0.14809771D-01 0.38192854D-01 0.18984570D+05 0.18984570D+05 0.18984570D+05 0.12363251D+01  3  4 12  7  5  1       21 0.296831232968D-04 0.100000000000D+01
-.327040419331D-06 0.000000000000D+00 -.731942667803D-07 0.122533700546D-05 0.000000000000D+00  6 2 -2 25 23 2 -2 4 0.15049447D-01 0.38192854D-01 0.17277321D+05 0.17277321D+05 0.17277321D+05 0.12408847D+01  3  4  5  7  5  1       21 -.188933111444D-03 0.100000000000D+01
0.510495332274D-07 0.000000000000D+00 0.000000000000D+00 0.121634865851D-05 0.000000000000D+00  6 -4 -2 25 23 -2 -4 4 0.14809771D-01 0.38192854D-01 0.18984570D+05 0.18984570D+05 0.18984570D+05 0.12363251D+01  1  2 12  8  6  1       21 0.977020791626D-05 0.100000000000D+01
-.327040419331D-06 0.000000000000D+00 -.731942667803D-07 0.122533700546D-05 0.000000000000D+00  6 -4 -2 25 23 -2 -4 4 0.15049447D-01 0.38192854D-01 0.17277321D+05 0.17277321D+05 0.17277321D+05 0.12408847D+01  1  2  5  8  6  1       21 -.614122071576D-04 0.100000000000D+01
0.510495332274D-07 0.000000000000D+00 0.000000000000D+00 0.121634865851D-05 0.000000000000D+00  6 4 -2 25 23 4 -2 4 0.14809771D-01 0.38192854D-01 0.18984570D+05 0.18984570D+05 0.18984570D+05 0.12363251D+01  3  4 12  9  5  1       21 0.977020791626D-05 0.100000000000D+01
-.327040419331D-06 0.000000000000D+00 -.731942667803D-07 0.122533700546D-05 0.000000000000D+00  6 4 -2 25 23 4 -2 4 0.15049447D-01 0.38192854D-01 0.17277321D+05 0.17277321D+05 0.17277321D+05 0.12408847D+01  3  4  5  9  5  1       21 -.614122071576D-04 0.100000000000D+01
  </mgrwgt>
  </event>
  <event>
  6     66 -.32447353E-03 0.14586734E+02 0.75467711E-02 0.12434586E+00
       21 -1    0    0  501  503 0.00000000E+00 0.00000000E+00 0.44091882E+03 0.44091946E+03 0.75000000E+00 0.0000E+00 0.9000E+01
       -2 -1    0    0    0  501 0.00000000E+00 0.00000000E+00 -.56395278E+02 0.56396186E+02 0.32000000E+00 0.0000E+00 0.9000E+01
       25  1    1    2    0    0 0.38919624E+01 -.24566765E+02 0.75997776E+02 0.14838913E+03 0.12500000E+03 0.0000E+00 0.9000E+01
       23  1    1    2    0    0 0.13542996E+02 0.54080860E+01 0.91710318E+02 0.13014874E+03 0.91188000E+02 0.0000E+00 0.9000E+01
       -2  1    1    2    0  502 -.95027309E+01 0.16236817E+02 0.18077785E+03 0.18175442E+03 0.32000000E+00 0.0000E+00 0.9000E+01
       21  1    1    2  502  503 -.79322277E+01 0.29218618E+01 0.36037599E+02 0.37023352E+02 0.75000000E+00 0.0000E+00 0.9000E+01
#aMCatNLO 2  0  0  1  2 0.84532546D+01 0.00000000D+00  -5  6  0 0.00000000D+00 0.00000000D+00 0.00000000D+00 0.00000000D+00 0.00000000D+00
  <mgrwgt>
 -.2152600140D-01    2    2    0
 0.150295612899557D+03 0.000000000000000D+00 0.000000000000000D+00 0.150295612899557D+03
 0.150295612899557D+03 0.000000000000000D+00 0.000000000000000D+00 -.150295612899557D+03
 0.138778533448202D+03 0.226773713145792D+00 -.232167433475852D+02 -.556364336388413D+02
 0.926676662713065D+02 0.110945970278407D+02 0.630991972954403D+01 -.104470023435803D+02
 0.691450260796048D+02 -.113213707409865D+02 0.169068236180411D+02 0.660834359824215D+02
 0.000000000000000D+00 -.000000000000000D+00 0.000000000000000D+00 0.000000000000000D+00
 0.163927218735661D+03 0.000000000000000D+00 0.000000000000000D+00 0.163927218735661D+03
 0.151671281029691D+03 0.000000000000000D+00 0.000000000000000D+00 -.151671281029691D+03
 0.139065059164959D+03 0.389202220390793D+01 -.245668495267203D+02 -.556364336388413D+02
 0.929357399888667D+02 0.135430342880894D+02 0.540802991699298D+01 -.104470023435803D+02
 0.687092647622327D+02 -.950282878109823D+01 0.162369577840466D+02 0.660834359824215D+02
 0.148884358492938D+02 -.793222771089905D+01 0.292186182568079D+01 0.122559377059698D+02
-.680902768997D-05 0.000000000000D+00 0.000000000000D+00 0.295181802974D-05 0.000000000000D+00  6 21 -2 25 23 -2 21 4 0.68098514D-01 0.85970896D-02 0.15260155D+05 0.15260155D+05 0.15260155D+05 0.12469721D+01  1  2 13  1  6  1       21 -.215006302302D-01 0.100000000000D+01
-.654635905277D-08 0.000000000000D+00 0.000000000000D+00 0.296631508493D-05 0.000000000000D+00  6 21 -2 25 23 -2 21 4 0.62189124D-01 0.85970896D-02 0.14347516D+05 0.14347516D+05 0.14347516D+05 0.12500304D+01  1  2  8  1  6  1       21 -.253711681933D-04 0.100000000000D+01
  </mgrwgt>
  </event>
  <event>
  5     66 -.32447353E-03 0.29517761E+02 0.75467711E-02 0.12164634E+00
       21 -1    0    0  501  502 0.00000000E+00 0.00000000E+00 0.50386541E+02 0.50392123E+02 0.75000000E+00 0.0000E+00 0.9000E+01
       -4 -1    0    0    0  501 -.00000000E+00 -.00000000E+00 -.38148502E+03 0.38148817E+03 0.15500000E+01 0.0000E+00 0.9000E+01
       25  1    1    2    0    0 -.14676924E+02 0.40551789E+02 -.15132265E+03 0.20095622E+03 0.12500000E+03 0.0000E+00 0.9000E+01
       23  1    1    2    0    0 0.36566505E+01 -.67900127E+02 -.12734084E+03 0.17074759E+03 0.91188000E+02 0.0000E+00 0.9000E+01
       -4  1    1    2    0  502 0.11020273E+02 0.27348337E+02 -.52434987E+02 0.60176476E+02 0.15500000E+01 0.0000E+00 0.9000E+01
#aMCatNLO 1  0  0  5  1 0.11039995D+01 0.00000000D+00  -5  6  0 0.00000000D+00 0.00000000D+00 0.00000000D+00 0.00000000D+00 0.00000000D+00
  <mgrwgt>
 -.2198312171D-02    8    2    0
 0.138649182636638D+03 0.000000000000000D+00 0.000000000000000D+00 0.138649182636638D+03
 0.138649182636638D+03 -.000000000000000D+00 -.000000000000000D+00 -.138649182636638D+03
 0.132295075592520D+03 -.146834603561106D+02 0.405355676899679D+02 0.427209199961826D+01
 0.113893518941938D+03 0.365102341134532D+01 -.679140910991837D+02 0.555234825989120D+01
 0.311097707388188D+02 0.110324369447652D+02 0.273785234092158D+02 -.982444025950945D+01
 0.000000000000000D+00 0.000000000000000D+00 0.000000000000000D+00 0.000000000000000D+00
 0.138649182636638D+03 0.000000000000000D+00 0.000000000000000D+00 0.138649182636638D+03
 0.138649182636638D+03 -.000000000000000D+00 -.000000000000000D+00 -.138649182636638D+03
 0.132338127540653D+03 -.146143129296373D+02 0.407071666253495D+02 0.421051587061912D+01
 0.113804890134935D+03 0.371051994773349D+01 -.677664421869419D+02 0.549936629676558D+01
 0.293892532837232D+02 0.111964895321018D+02 0.253235148831048D+02 -.985324437419140D+01
 0.176609431396570D+01 -.292696550198049D+00 0.173576067848757D+01 0.143362206806704D+00
0.137638259114D-05 0.000000000000D+00 0.000000000000D+00 0.254663504232D-06 0.000000000000D+00  6 21 -4 25 23 -4 21 2 0.77524471D-02 0.58690675D-01 0.18975330D+05 0.18975330D+05 0.18975330D+05 0.12363486D+01  1  2  2  3  6  5       -4 0.302848935044D-02 0.100000000000D+01
-.135797612699D-07 0.726337048328D-07 -.277851989811D-08 0.254663504232D-06 0.000000000000D+00  6 21 -4 25 23 -4 21 4 0.77524471D-02 0.58690675D-01 0.18975330D+05 0.18975330D+05 0.18975330D+05 0.12363486D+01  1  2  3  3  6  5       -4 -.456731395852D-04 0.100000000000D+01
0.164530443688D-06 0.000000000000D+00 0.000000000000D+00 0.254663504232D-06 0.000000000000D+00  6 21 -4 25 23 -4 21 4 0.77524471D-02 0.58690675D-01 0.18975330D+05 0.18975330D+05 0.18975330D+05 0.12363486D+01  1  2 15  3  6  5       -4 0.553369221391D-03 0.100000000000D+01
0.891258786013D-11 0.000000000000D+00 0.000000000000D+00 0.254679381030D-06 0.000000000000D+00  6 21 -4 25 23 -4 21 4 0.77524471D-02 0.58690675D-01 0.18960138D+05 0.18960138D+05 0.18960138D+05 0.12363871D+01  1  2 12  3  6  5       -4 0.299785278178D-07 0.100000000000D+01
-.414316144422D-04 0.000000000000D+00 0.000000000000D+00 0.254663504232D-06 0.000000000000D+00  6 21 -4 25 23 -4 21 4 0.77524471D-02 0.58690675D-01 0.18975330D+05 0.18975330D+05 0.18975330D+05 0.12363486D+01  1  2  4  3  6  5       -4 -.139347951121D+00 0.100000000000D+01
-.180520645236D-04 0.000000000000D+00 0.000000000000D+00 0.254663504232D-06 0.000000000000D+00  6 21 -4 25 23 -4 21 4 0.77524471D-02 0.58690675D-01 0.18975330D+05 0.18975330D+05 0.18975330D+05 0.12363486D+01  1  2  5  3  6  5       -4 -.607149453075D-01 0.100000000000D+01
0.199750120279D-04 0.000000000000D+00 -.000000000000D+00 0.254663504232D-06 0.000000000000D+00  6 21 -4 25 23 -4 21 4 0.77524471D-02 0.58690675D-01 0.18975330D+05 0.18975330D+05 0.18975330D+05 0.12363486D+01  1  2  6  3  6  5       -4 0.671824411664D-01 0.100000000000D+01
0.378003635933D-04 0.000000000000D+00 0.000000000000D+00 0.254663504232D-06 0.292660932885D-05  6 21 -4 25 23 -4 21 4 0.77524471D-02 0.58690675D-01 0.18960138D+05 0.18960138D+05 0.18960138D+05 0.12363871D+01  1  2 11  3  6  5       -4 0.127145927680D+00 0.100000000000D+01
  </mgrwgt>
  </event>
  <event>
  5     66 -.32447353E-03 0.25289967E+02 0.75467711E-02 0.12332955E+00
       21 -1    0    0  501  502 0.00000000E+00 0.00000000E+00 0.26881819E+02 0.26892279E+02 0.75000000E+00 0.0000E+00 0.9000E+01
       -2 -1    0    0    0  501 -.00000000E+00 -.00000000E+00 -.12742424E+04 0.12742425E+04 0.32000000E+00 0.0000E+00 0.9000E+01
       25  1    1    2    0    0 0.28029212E+02 -.34896328E+02 -.11118792E+04 0.11197784E+04 0.12500000E+03 0.0000E+00 0.9000E+01
       23  1    1    2    0    0 -.21248913E+02 0.10533422E+02 -.96345564E+02 0.13475974E+03 0.91188000E+02 0.0000E+00 0.9000E+01
       -2  1    1    2    0  502 -.67802989E+01 0.24362906E+02 -.39135860E+02 0.46596583E+02 0.32000000E+00 0.0000E+00 0.9000E+01
#aMCatNLO 1  0  0  5  1 0.67477556D+01 0.00000000D+00  -5  6  0 0.00000000D+00 0.00000000D+00 0.00000000D+00 0.00000000D+00 0.00000000D+00
  <mgrwgt>
 -.8608717835D-01    7    2    0
 0.185096693325331D+03 0.000000000000000D+00 0.000000000000000D+00 0.185096693325331D+03
 0.185096693325331D+03 -.000000000000000D+00 -.000000000000000D+00 -.185096693325331D+03
 0.189275398660876D+03 0.280293864772971D+02 -.348969543109529D+02 -.134895265342261D+03
 0.149010739208685D+03 -.212487759229908D+02 0.105329285332993D+02 0.115440443492762D+03
 0.319072487811012D+02 -.678061055430634D+01 0.243640257776536D+02 0.194548218494989D+02
 0.000000000000000D+00 0.000000000000000D+00 0.000000000000000D+00 0.000000000000000D+00
 0.185096693325331D+03 0.000000000000000D+00 0.000000000000000D+00 0.185096693325331D+03
 0.185096693325331D+03 -.000000000000000D+00 -.000000000000000D+00 -.185096693325331D+03
 0.188352047689620D+03 0.277046467303658D+02 -.337301025205579D+02 -.133963527134706D+03
 0.149686932055686D+03 -.215056402137430D+02 0.114558908758673D+02 0.116177434502061D+03
 0.170792737085365D+02 -.187960256964420D+01 0.163345017224768D+02 0.462090230038414D+01
 0.150751331968200D+02 -.431940394697866D+01 0.593970992221381D+01 0.131651903322605D+02
0.795970917008D-05 0.000000000000D+00 0.000000000000D+00 0.217657785058D-06 0.000000000000D+00  6 21 -2 25 23 -2 21 2 0.41364722D-02 0.19603811D+00 0.15911765D+05 0.15911765D+05 0.15911765D+05 0.12449116D+01  1  2  2  3  6  5       -2 0.582487294897D-02 0.100000000000D+01
0.266540888647D-06 0.420045393001D-06 -.160683595205D-07 0.217657785058D-06 0.000000000000D+00  6 21 -2 25 23 -2 21 4 0.41364722D-02 0.19603811D+00 0.15911765D+05 0.15911765D+05 0.15911765D+05 0.12449116D+01  1  2  3  3  6  5       -2 0.302294397832D-03 0.100000000000D+01
0.739185438165D-06 0.000000000000D+00 0.000000000000D+00 0.217657785058D-06 0.000000000000D+00  6 21 -2 25 23 -2 21 4 0.41364722D-02 0.19603811D+00 0.15911765D+05 0.15911765D+05 0.15911765D+05 0.12449116D+01  1  2 15  3  6  5       -2 0.838338980751D-03 0.100000000000D+01
0.557215317573D-05 0.000000000000D+00 0.000000000000D+00 0.217891543804D-06 0.000000000000D+00  6 21 -2 25 23 -2 21 4 0.41364722D-02 0.19603811D+00 0.15697060D+05 0.15697060D+05 0.15697060D+05 0.12455799D+01  1  2 12  3  6  5       -2 0.633313918108D-02 0.100000000000D+01
-.954905532444D-04 0.000000000000D+00 0.000000000000D+00 0.217657785058D-06 0.000000000000D+00  6 21 -2 25 23 -2 21 4 0.41364722D-02 0.19603811D+00 0.15911765D+05 0.15911765D+05 0.15911765D+05 0.12449116D+01  1  2  4  3  6  5       -2 -.108299553732D+00 0.100000000000D+01
-.581416112274D-05 0.000000000000D+00 0.000000000000D+00 0.217657785058D-06 0.000000000000D+00  6 21 -2 25 23 -2 21 4 0.41364722D-02 0.19603811D+00 0.15911765D+05 0.15911765D+05 0.15911765D+05 0.12449116D+01  1  2  5  3  6  5       -2 -.659406646546D-02 0.100000000000D+01
0.136736302290D-04 0.000000000000D+00 -.000000000000D+00 0.217657785058D-06 0.000000000000D+00  6 21 -2 25 23 -2 21 4 0.41364722D-02 0.19603811D+00 0.15911765D+05 0.15911765D+05 0.15911765D+05 0.12449116D+01  1  2  6  3  6  5       -2 0.155077963356D-01 0.100000000000D+01
  </mgrwgt>
  </event>
  <event>
  5     66 0.32447353E-03 0.53944811E+02 0.75467711E-02 0.10701688E+00
       21 -1    0    0  501  502 0.00000000E+00 0.00000000E+00 0.19804885E+02 0.19819081E+02 0.75000000E+00 0.0000E+00 0.9000E+01
       -2 -1    0    0    0  501 0.00000000E+00 0.00000000E+00 -.15567860E+04 0.15567860E+04 0.32000000E+00 0.0000E+00 0.9000E+01
       25  1    1    2    0    0 0.36308591E+02 0.17502102E+02 -.11970001E+04 0.12041839E+04 0.12500000E+03 0.0000E+00 0.9000E+01
       23  1    1    2    0    0 -.11846505E+02 0.30577039E+02 -.23978628E+03 0.25862715E+03 0.91188000E+02 0.0000E+00 0.9000E+01
       -2  1    1    2    0  502 -.24462085E+02 -.48079141E+02 -.10019469E+03 0.11379400E+03 0.32000000E+00 0.0000E+00 0.9000E+01
#aMCatNLO 1  0  0  1  2 0.27615357D+03 0.00000000D+00  -5  6  0 0.00000000D+00 0.00000000D+00 0.00000000D+00 0.00000000D+00 0.00000000D+00
  <mgrwgt>
 0.6904797051D-02   12    4    0
 0.175622274372735D+03 0.000000000000000D+00 0.000000000000000D+00 0.175622274372735D+03
 0.175622274372735D+03 0.000000000000000D+00 0.000000000000000D+00 -.175622274372735D+03
 0.167279520323472D+03 0.363087045482895D+02 0.175023255317823D+02 -.103599152963021D+03
 0.111619951968943D+03 -.118464293885949D+02 0.305771889366654D+02 0.553936815983714D+02
 0.723450764530548D+02 -.244622751596946D+02 -.480795144684476D+02 0.482054713646497D+02
 0.000000000000000D+00 -.000000000000000D+00 -.000000000000000D+00 0.000000000000000D+00
 0.554772772815145D+03 0.000000000000000D+00 0.000000000000000D+00 0.554772772815145D+03
 0.280936154088938D+03 0.000000000000000D+00 0.000000000000000D+00 -.280936154088938D+03
 0.244417937063563D+03 0.168238830956716D+03 0.712603622083825D+02 -.103599152963021D+03
 0.142433424955413D+03 0.695660096020313D+02 0.637506042917046D+02 0.553936815983714D+02
 0.599523191034191D+02 0.179329638831901D+02 -.308045760034826D+02 0.482054713646497D+02
 0.388905245781689D+03 -.255737804441937D+03 -.104206390496604D+03 0.273836618726208D+03
 0.175622274372735D+03 0.000000000000000D+00 0.000000000000000D+00 0.175622274372735D+03
 0.175622274372735D+03 0.000000000000000D+00 0.000000000000000D+00 -.175622274372735D+03
 0.167279520323472D+03 0.363087045482895D+02 0.175023255317823D+02 -.103599152963021D+03
 0.111619951968943D+03 -.118464293885949D+02 0.305771889366654D+02 0.553936815983714D+02
 0.000000000000000D+00 -.000000000000000D+00 -.000000000000000D+00 0.000000000000000D+00
 0.723450764530548D+02 -.244622751596946D+02 -.480795144684476D+02 0.482054713646497D+02
 0.554772772815145D+03 0.000000000000000D+00 0.000000000000000D+00 0.554772772815145D+03
 0.280936154088938D+03 0.000000000000000D+00 0.000000000000000D+00 -.280936154088938D+03
 0.244417937063563D+03 0.168238830956716D+03 0.712603622083825D+02 -.103599152963021D+03
 0.142433424955413D+03 0.695660096020313D+02 0.637506042917046D+02 0.553936815983714D+02
 0.388905245781689D+03 -.255737804441937D+03 -.104206390496604D+03 0.273836618726208D+03
 0.599523191034191D+02 0.179329638831901D+02 -.308045760034826D+02 0.482054713646497D+02
0.706421949200D-05 0.000000000000D+00 0.000000000000D+00 0.216186282723D-06 0.000000000000D+00  6 21 -2 25 23 -2 21 2 0.30479999D-02 0.23950663D+00 0.19907463D+05 0.19907463D+05 0.19907463D+05 0.12340478D+01  1  2  2  1  6  1       21 0.460882138066D-02 0.100000000000D+01
-.135520385110D-06 0.372789104395D-06 -.142606238625D-07 0.216186282723D-06 0.000000000000D+00  6 21 -2 25 23 -2 21 4 0.30479999D-02 0.23950663D+00 0.19907463D+05 0.19907463D+05 0.19907463D+05 0.12340478D+01  1  2  3  1  6  1       21 -.134646265327D-03 0.100000000000D+01
0.570251812080D-06 0.000000000000D+00 0.000000000000D+00 0.216186282723D-06 0.000000000000D+00  6 21 -2 25 23 -2 21 4 0.30479999D-02 0.23950663D+00 0.19907463D+05 0.19907463D+05 0.19907463D+05 0.12340478D+01  1  2 15  1  6  1       21 0.566573631932D-03 0.100000000000D+01
0.280637016426D-04 0.000000000000D+00 -.609619876658D-04 0.216186282723D-06 0.000000000000D+00  6 21 -2 25 23 -2 21 4 0.16616648D-01 0.23950663D+00 0.19907463D+05 0.19907463D+05 0.19907463D+05 0.12340478D+01  1  2  5  1  6  1       21 0.150397584400D-02 0.100000000000D+01
0.122523515076D-04 0.000000000000D+00 -.255070797653D-04 0.216186282723D-06 0.000000000000D+00  6 -1 -2 25 23 -2 -1 4 0.16616648D-01 0.23950663D+00 0.19907463D+05 0.19907463D+05 0.19907463D+05 0.12340478D+01  1  2  5  4  6  1       21 0.490725970871D-04 0.100000000000D+01
0.122523515076D-04 0.000000000000D+00 -.255070797653D-04 0.216186282723D-06 0.000000000000D+00  6 -3 -2 25 23 -2 -3 4 0.16616648D-01 0.23950663D+00 0.19907463D+05 0.19907463D+05 0.19907463D+05 0.12340478D+01  1  2  5  4  6  1       21 0.301131801575D-04 0.100000000000D+01
0.122523515076D-04 0.000000000000D+00 -.255070797653D-04 0.216186282723D-06 0.000000000000D+00  6 1 -2 25 23 1 -2 4 0.16616648D-01 0.23950663D+00 0.19907463D+05 0.19907463D+05 0.19907463D+05 0.12340478D+01  3  4  5  5  5  1       21 0.696414024991D-04 0.100000000000D+01
0.122523515076D-04 0.000000000000D+00 -.255070797653D-04 0.216186282723D-06 0.000000000000D+00  6 3 -2 25 23 3 -2 4 0.16616648D-01 0.23950663D+00 0.19907463D+05 0.19907463D+05 0.19907463D+05 0.12340478D+01  3  4  5  5  5  1       21 0.301097103981D-04 0.100000000000D+01
0.122523515076D-04 0.000000000000D+00 -.255070797653D-04 0.216186282723D-06 0.000000000000D+00  6 -2 -2 25 23 -2 -2 4 0.16616648D-01 0.23950663D+00 0.19907463D+05 0.19907463D+05 0.19907463D+05 0.12340478D+01  1  2  5  6  6  1       21 0.455461752297D-04 0.100000000000D+01
0.122523515076D-04 0.000000000000D+00 -.255070797653D-04 0.216186282723D-06 0.000000000000D+00  6 2 -2 25 23 2 -2 4 0.16616648D-01 0.23950663D+00 0.19907463D+05 0.19907463D+05 0.19907463D+05 0.12340478D+01  3  4  5  7  5  1       21 0.838974348987D-04 0.100000000000D+01
0.122523515076D-04 0.000000000000D+00 -.255070797653D-04 0.216186282723D-06 0.000000000000D+00  6 -4 -2 25 23 -2 -4 4 0.16616648D-01 0.23950663D+00 0.19907463D+05 0.19907463D+05 0.19907463D+05 0.12340478D+01  1  2  5  8  6  1       21 0.258459796387D-04 0.100000000000D+01
0.122523515076D-04 0.000000000000D+00 -.255070797653D-04 0.216186282723D-06 0.000000000000D+00  6 4 -2 25 23 4 -2 4 0.16616648D-01 0.23950663D+00 0.19907463D+05 0.19907463D+05 0.19907463D+05 0.12340478D+01  3  4  5  9  5  1       21 0.258459796387D-04 0.100000000000D+01
  </mgrwgt>
  </event>
  <event>
  6     66 0.32447353E-03 0.14754459E+02 0.75467711E-02 0.11912389E+00
       21 -1    0    0  501  502 0.00000000E+00 0.00000000E+00 0.23045601E+03 0.23045723E+03 0.75000000E+00 0.0000E+00 0.9000E+01
       21 -1    0    0  503  501 0.00000000E+00 0.00000000E+00 -.18265731E+03 0.18265885E+03 0.75000000E+00 0.0000E+00 0.9000E+01
       25  1    1    2    0    0 0.69526662E+02 -.94292224E+01 0.33848517E+02 0.14728744E+03 0.12500000E+03 0.0000E+00 0.9000E+01
       23  1    1    2    0    0 -.67608909E+02 0.54785571E+01 -.26137246E+02 0.11661641E+03 0.91188000E+02 0.0000E+00 0.9000E+01
        4  1    1    2  503    0 0.25729855E+02 0.13790137E+02 -.48083604E+02 0.56272807E+02 0.15500000E+01 0.0000E+00 0.9000E+01
       -4  1    1    2    0  502 -.27647608E+02 -.98394722E+01 0.88171034E+02 0.92939438E+02 0.15500000E+01 0.0000E+00 0.9000E+01
#aMCatNLO 2  0  0  2  1 0.19192206D+02 0.00000000D+00  -5  6  0 0.00000000D+00 0.00000000D+00 0.00000000D+00 0.00000000D+00 0.00000000D+00
  <mgrwgt>
 0.5018729726D-02    1    2    0
 0.171239245946151D+03 0.000000000000000D+00 0.000000000000000D+00 0.171239245946151D+03
 0.171239245946151D+03 0.000000000000000D+00 0.000000000000000D+00 -.171239245946151D+03
 0.148834089572498D+03 0.804892453415820D+02 -.355426691865827D+01 -.595271281751302D+01
 0.123968452723307D+03 -.581456287153216D+02 0.105500378885562D+02 -.596716724121326D+02
 0.000000000000000D+00 0.000000000000000D+00 0.000000000000000D+00 -.000000000000000D+00
 0.696759495964964D+02 -.223436166262604D+02 -.699577096989797D+01 0.656243852296457D+02
 0.174960691241139D+03 0.000000000000000D+00 0.000000000000000D+00 0.174960691241139D+03
 0.240574535193445D+03 0.000000000000000D+00 0.000000000000000D+00 -.240574535193445D+03
 0.143469883841190D+03 0.695289552916128D+02 -.942852881279261D+01 -.595271281751302D+01
 0.128361572606176D+03 -.676070473666964D+02 0.547910903586781D+01 -.596716724121326D+02
 0.718148302726499D+02 0.257298549766776D+02 0.137901374819478D+02 -.656138439523066D+02
 0.718889397145684D+02 -.276517629015939D+02 -.984071770502296D+01 0.656243852296457D+02
0.237957850599D-06 0.000000000000D+00 0.000000000000D+00 0.142302493307D-05 0.398130201245D-09  6 21 21 25 23 4 -4 4 0.35453316D-01 0.28100016D-01 0.24891032D+05 0.24891032D+05 0.24891032D+05 0.12235011D+01  1  2  1 10  5  2       -4 0.501872972638D-02 0.100000000000D+01
  </mgrwgt>
  </event>
  <event>
  5     66 0.32447353E-03 0.30734597E+02 0.75467711E-02 0.12047766E+00
       21 -1    0    0  501  502 0.00000000E+00 0.00000000E+00 0.15050879E+02 0.15069554E+02 0.75000000E+00 0.0000E+00 0.9000E+01
       -4 -1    0    0    0  501 0.00000000E+00 0.00000000E+00 -.14665623E+04 0.14665632E+04 0.15500000E+01 0.0000E+00 0.9000E+01
       25  1    1    2    0    0 -.27795777E+02 0.88762391E+01 -.38931445E+03 0.40992943E+03 0.12500000E+03 0.0000E+00 0.9000E+01
       23  1    1    2    0    0 0.54009545E+02 0.71396359E+01 -.67727174E+03 0.68555107E+03 0.91188000E+02 0.0000E+00 0.9000E+01
       -4  1    1    2    0  502 -.26213768E+02 -.16015875E+02 -.38492527E+03 0.38615222E+03 0.15500000E+01 0.0000E+00 0.9000E+01
#aMCatNLO 1  0  0  1  1 0.25910885D+02 0.00000000D+00  -5  6  0 0.00000000D+00 0.00000000D+00 0.00000000D+00 0.00000000D+00 0.00000000D+00
  <mgrwgt>
 0.4239405569D-02    4    2    0
 0.148618617194963D+03 0.000000000000000D+00 0.000000000000000D+00 0.148618617194963D+03
 0.148618617194963D+03 0.000000000000000D+00 0.000000000000000D+00 -.148618617194963D+03
 0.142214039061995D+03 -.277883706463035D+02 0.888076410670750D+01 0.612272112057322D+02
 0.109903959996137D+03 0.540152685973389D+02 0.714313285781354D+01 -.281949550481202D+02
 0.451192353317929D+02 -.262268979510354D+02 -.160238969645210D+02 -.330322561576120D+02
 0.000000000000000D+00 0.000000000000000D+00 -.000000000000000D+00 -.000000000000000D+00
 0.156954905976598D+03 0.000000000000000D+00 0.000000000000000D+00 0.156954905976598D+03
 0.170776260833479D+03 0.000000000000000D+00 0.000000000000000D+00 -.170776260833479D+03
 0.145171690530386D+03 -.379357725274239D+02 0.161841126468620D+02 0.612272112057322D+02
 0.106862776989414D+03 0.463613770914127D+02 0.126518372543851D+02 -.281949550481202D+02
 0.463299865843150D+02 -.294559100798377D+02 -.136998931167079D+02 -.330322561576120D+02
 0.293667127059632D+02 0.210303055158489D+02 -.151360567845392D+02 -.138213548568815D+02
0.823955593018D-05 0.000000000000D+00 0.000000000000D+00 0.144697291604D-06 0.000000000000D+00  6 21 -4 25 23 -4 21 2 0.23170193D-02 0.22562648D+00 0.17598613D+05 0.17598613D+05 0.17598613D+05 0.12399891D+01  1  2  2  1  6  1       21 0.513783555994D-02 0.100000000000D+01
-.589383302875D-06 0.434813312257D-06 -.166332895017D-07 0.144697291604D-06 0.000000000000D+00  6 21 -4 25 23 -4 21 4 0.23170193D-02 0.22562648D+00 0.17598613D+05 0.17598613D+05 0.17598613D+05 0.12399891D+01  1  2  3  1  6  1       21 -.565079999442D-03 0.100000000000D+01
0.118004009119D-05 0.000000000000D+00 0.000000000000D+00 0.144697291604D-06 0.000000000000D+00  6 21 -4 25 23 -4 21 4 0.23170193D-02 0.22562648D+00 0.17598613D+05 0.17598613D+05 0.17598613D+05 0.12399891D+01  1  2 15  1  6  1       21 0.113138097197D-02 0.100000000000D+01
-.152772700147D-05 0.000000000000D+00 0.000000000000D+00 0.144697291604D-06 0.000000000000D+00  6 21 -4 25 23 -4 21 4 0.23170193D-02 0.22562648D+00 0.17598613D+05 0.17598613D+05 0.17598613D+05 0.12399891D+01  1  2  4  1  6  1       21 -.146473096358D-02 0.100000000000D+01
  </mgrwgt>
  </event>
  <event>
  5     66 -.32447353E-03 0.26788150E+02 0.75467711E-02 0.11733597E+00
       21 -1    0    0  501  502 0.00000000E+00 0.00000000E+00 0.31681650E+02 0.31690526E+02 0.75000000E+00 0.0000E+00 0.9000E+01
       -2 -1    0    0    0  501 0.00000000E+00 0.00000000E+00 -.88076643E+03 0.88076649E+03 0.32000000E+00 0.0000E+00 0.9000E+01
       25  1    1    2    0    0 0.13965467E+02 -.73333984E+02 -.20706685E+03 0.25312959E+03 0.12500000E+03 0.0000E+00 0.9000E+01
       23  1    1    2    0    0 0.12733263E+02 0.71168254E+02 -.58319183E+03 0.59468901E+03 0.91188000E+02 0.0000E+00 0.9000E+01
       -2  1    1    2    0  502 -.26698730E+02 0.21657294E+01 -.58826096E+02 0.64638413E+02 0.32000000E+00 0.0000E+00 0.9000E+01
#aMCatNLO 1  0  0  1  2 0.11755955D+04 0.00000000D+00  -5  6  0 0.00000000D+00 0.00000000D+00 0.00000000D+00 0.00000000D+00 0.00000000D+00
  <mgrwgt>
 -.5291282718D-01   12    4    0
 0.167057504299998D+03 0.000000000000000D+00 0.000000000000000D+00 0.167057504299998D+03
 0.167057504299998D+03 0.000000000000000D+00 0.000000000000000D+00 -.167057504299998D+03
 0.165070626497502D+03 0.139663911122601D+02 -.733340588460346D+02 0.777841080474896D+02
 0.142013630184049D+03 0.127340581463280D+02 0.711681899676750D+02 -.813974957471214D+02
 0.270307519184453D+02 -.267004492585881D+02 0.216586887835965D+01 0.361338769963179D+01
 0.000000000000000D+00 0.000000000000000D+00 -.000000000000000D+00 0.000000000000000D+00
 0.983224436869447D+03 0.000000000000000D+00 0.000000000000000D+00 0.983224436869447D+03
 0.170238967925130D+03 0.000000000000000D+00 0.000000000000000D+00 -.170238967925130D+03
 0.159318535520482D+03 -.909441031371384D+01 -.602023255090142D+02 0.777841080474896D+02
 0.147905371732940D+03 -.787626215917468D+01 0.829045223371822D+02 -.813974957471214D+02
 0.313933775301310D+02 -.308538162802160D+02 0.453096049730754D+01 0.361338769963179D+01
 0.814846120011025D+03 0.478244887531045D+02 -.272331573254755D+02 0.812985468944317D+03
 0.167057504299998D+03 0.000000000000000D+00 0.000000000000000D+00 0.167057504299998D+03
 0.167057504299998D+03 0.000000000000000D+00 0.000000000000000D+00 -.167057504299998D+03
 0.165070626497502D+03 0.139663911122601D+02 -.733340588460346D+02 0.777841080474896D+02
 0.142013630184049D+03 0.127340581463280D+02 0.711681899676750D+02 -.813974957471214D+02
 0.000000000000000D+00 0.000000000000000D+00 -.000000000000000D+00 0.000000000000000D+00
 0.270307519184453D+02 -.267004492585881D+02 0.216586887835965D+01 0.361338769963179D+01
 0.983224436869447D+03 0.000000000000000D+00 0.000000000000000D+00 0.983224436869447D+03
 0.170238967925130D+03 0.000000000000000D+00 0.000000000000000D+00 -.170238967925130D+03
 0.159318535520482D+03 -.909441031371384D+01 -.602023255090142D+02 0.777841080474896D+02
 0.147905371732940D+03 -.787626215917468D+01 0.829045223371822D+02 -.813974957471214D+02
 0.814846120011025D+03 0.478244887531045D+02 -.272331573254755D+02 0.812985468944317D+03
 0.313933775301310D+02 -.308538162802160D+02 0.453096049730754D+01 0.361338769963179D+01
0.766325318579D-06 0.000000000000D+00 0.000000000000D+00 0.203987514450D-06 0.000000000000D+00  6 21 -2 25 23 -2 21 2 0.48747873D-02 0.13550321D+00 0.20844827D+05 0.20844827D+05 0.20844827D+05 0.12318528D+01  1  2  2  1  6  1       21 0.110601218828D-02 0.100000000000D+01
0.283340703324D-07 0.404400980904D-07 -.154699003010D-08 0.203987514450D-06 0.000000000000D+00  6 21 -2 25 23 -2 21 4 0.48747873D-02 0.13550321D+00 0.20844827D+05 0.20844827D+05 0.20844827D+05 0.12318528D+01  1  2  3  1  6  1       21 0.620545062322D-04 0.100000000000D+01
0.755428270646D-07 0.000000000000D+00 0.000000000000D+00 0.203987514450D-06 0.000000000000D+00  6 21 -2 25 23 -2 21 4 0.48747873D-02 0.13550321D+00 0.20844827D+05 0.20844827D+05 0.20844827D+05 0.12318528D+01  1  2 15  1  6  1       21 0.165446502316D-03 0.100000000000D+01
-.462402774949D-03 0.000000000000D+00 -.784422791081D-05 0.203987514450D-06 0.000000000000D+00  6 21 -2 25 23 -2 21 4 0.28905733D-01 0.13550321D+00 0.20844827D+05 0.20844827D+05 0.20844827D+05 0.12318528D+01  1  2  5  1  6  1       21 -.422473305623D-01 0.100000000000D+01
-.192823640597D-03 0.000000000000D+00 -.331524662206D-05 0.203987514450D-06 0.000000000000D+00  6 -1 -2 25 23 -2 -1 4 0.28905733D-01 0.13550321D+00 0.20844827D+05 0.20844827D+05 0.20844827D+05 0.12318528D+01  1  2  5  4  6  1       21 -.151120348308D-02 0.100000000000D+01
-.192823640597D-03 0.000000000000D+00 -.331524662206D-05 0.203987514450D-06 0.000000000000D+00  6 -3 -2 25 23 -2 -3 4 0.28905733D-01 0.13550321D+00 0.20844827D+05 0.20844827D+05 0.20844827D+05 0.12318528D+01  1  2  5  4  6  1       21 -.850346233339D-03 0.100000000000D+01
-.192823640597D-03 0.000000000000D+00 -.331524662206D-05 0.203987514450D-06 0.000000000000D+00  6 1 -2 25 23 1 -2 4 0.28905733D-01 0.13550321D+00 0.20844827D+05 0.20844827D+05 0.20844827D+05 0.12318528D+01  3  4  5  5  5  1       21 -.261343732731D-02 0.100000000000D+01
-.192823640597D-03 0.000000000000D+00 -.331524662206D-05 0.203987514450D-06 0.000000000000D+00  6 3 -2 25 23 3 -2 4 0.28905733D-01 0.13550321D+00 0.20844827D+05 0.20844827D+05 0.20844827D+05 0.12318528D+01  3  4  5  5  5  1       21 -.850350696827D-03 0.100000000000D+01
-.192823640597D-03 0.000000000000D+00 -.331524662206D-05 0.203987514450D-06 0.000000000000D+00  6 -2 -2 25 23 -2 -2 4 0.28905733D-01 0.13550321D+00 0.20844827D+05 0.20844827D+05 0.20844827D+05 0.12318528D+01  1  2  5  6  6  1       21 -.133188243616D-02 0.100000000000D+01
-.192823640597D-03 0.000000000000D+00 -.331524662206D-05 0.203987514450D-06 0.000000000000D+00  6 2 -2 25 23 2 -2 4 0.28905733D-01 0.13550321D+00 0.20844827D+05 0.20844827D+05 0.20844827D+05 0.12318528D+01  3  4  5  7  5  1       21 -.341225333919D-02 0.100000000000D+01
-.192823640597D-03 0.000000000000D+00 -.331524662206D-05 0.203987514450D-06 0.000000000000D+00  6 -4 -2 25 23 -2 -4 4 0.28905733D-01 0.13550321D+00 0.20844827D+05 0.20844827D+05 0.20844827D+05 0.12318528D+01  1  2  5  8  6  1       21 -.714768151521D-03 0.100000000000D+01
-.192823640597D-03 0.000000000000D+00 -.331524662206D-05 0.203987514450D-06 0.000000000000D+00  6 4 -2 25 23 4 -2 4 0.28905733D-01 0.13550321D+00 0.20844827D+05 0.20844827D+05 0.20844827D+05 0.12318528D+01  3  4  5  9  5  1       21 -.714768151521D-03 0.100000000000D+01
  </mgrwgt>
  </event>
  <event>
  6     66 0.32447353E-03 0.68699821E+02 0.75467711E-02 0.11782106E+00
       21 -1    0    0  503  502 0.00000000E+00 0.00000000E+00 0.41320124E+03 0.41320192E+03 0.75000000E+00 0.0000E+00 0.9000E+01
       -2 -1    0    0    0  501 0.00000000E+00 0.00000000E+00 -.22336298E+03 0.22336321E+03 0.32000000E+00 0.0000E+00 0.9000E+01
       25  1    1    2    0    0 -.83028601E+02 -.20149555E+02 -.25306367E+02 0.15350950E+03 0.12500000E+03 0.0000E+00 0.9000E+01
       23  1    1    2    0    0 0.29506265E+02 -.26597407E+02 -.69172554E+02 0.12115335E+03 0.91188000E+02 0.0000E+00 0.9000E+01
       -2  1    1    2    0  502 0.60540647E+01 -.11677017E+02 -.33132163E+02 0.35648942E+02 0.32000000E+00 0.0000E+00 0.9000E+01
       21  1    1    2  503  501 0.47468272E+02 0.58423979E+02 0.31744934E+03 0.32625334E+03 0.75000000E+00 0.0000E+00 0.9000E+01
#aMCatNLO 2  0  0  1  1 0.57041041D+02 0.00000000D+00  -5  6  0 0.00000000D+00 0.00000000D+00 0.00000000D+00 0.00000000D+00 0.00000000D+00
  <mgrwgt>
 0.7672133949D-02    1    2    0
 0.136328850195247D+03 0.000000000000000D+00 0.000000000000000D+00 0.136328850195247D+03
 0.136328850195247D+03 0.000000000000000D+00 0.000000000000000D+00 -.136328850195247D+03
 0.144093235101709D+03 -.573017292980808D+02 0.115160235242292D+02 0.414940167218741D+02
 0.104947443598075D+03 0.471641804789269D+02 -.486335745833874D+01 -.212273975737656D+02
 0.236170216907098D+02 0.101375488191538D+02 -.665266606589043D+01 -.202666191481085D+02
 0.000000000000000D+00 0.000000000000000D+00 0.000000000000000D+00 0.000000000000000D+00
 0.639720052455925D+03 0.000000000000000D+00 0.000000000000000D+00 0.639720052455925D+03
 0.144272168710212D+03 0.000000000000000D+00 0.000000000000000D+00 -.144272168710212D+03
 0.156992339061086D+03 -.830291823562617D+02 -.201493418603798D+02 0.414940167218741D+02
 0.101704776131797D+03 0.295059605617066D+02 -.265971056243958D+02 -.212273975737656D+02
 0.241611880843073D+02 0.605494986831186D+01 -.116775314190554D+02 -.202666191481085D+02
 0.501133917888946D+03 0.474682719262432D+02 0.584239789038310D+02 0.495447883745713D+03
0.237236836613D-04 0.000000000000D+00 0.000000000000D+00 0.230501338121D-06 0.520423547069D-08  6 21 -2 25 23 -2 21 4 0.63569370D-01 0.34363541D-01 0.28781999D+05 0.28781999D+05 0.28781999D+05 0.12167921D+01  1  2  1  1  6  1       21 0.767213394853D-02 0.100000000000D+01
  </mgrwgt>
  </event>
  <event>
  6     66 -.32447353E-03 0.18423008E+02 0.75467711E-02 0.12141563E+00
       21 -1    0    0  501  502 0.00000000E+00 0.00000000E+00 0.26179939E+03 0.26180046E+03 0.75000000E+00 0.0000E+00 0.9000E+01
       -2 -1    0    0    0  503 0.00000000E+00 0.00000000E+00 -.11371039E+03 0.11371084E+03 0.32000000E+00 0.0000E+00 0.9000E+01
       25  1    1    2    0    0 -.46495967E+02 0.18800727E+02 0.23245742E+02 0.13667738E+03 0.12500000E+03 0.0000E+00 0.9000E+01
       23  1    1    2    0    0 0.43401222E+02 -.40794807E+02 0.14894320E+03 0.18451886E+03 0.91188000E+02 0.0000E+00 0.9000E+01
       -2  1    1    2    0  502 0.13979825E+02 0.19512406E+02 0.37541603E+01 0.24297441E+02 0.32000000E+00 0.0000E+00 0.9000E+01
       21  1    1    2  501  503 -.10885080E+02 0.24816732E+01 -.27854108E+02 0.30017620E+02 0.75000000E+00 0.0000E+00 0.9000E+01
#aMCatNLO 2  0  0  2  1 0.11164393D+02 0.00000000D+00  -5  6  0 0.00000000D+00 0.00000000D+00 0.00000000D+00 0.00000000D+00 0.00000000D+00
  <mgrwgt>
 -.3535826511D-02    2    2    0
 0.148564184130362D+03 0.000000000000000D+00 0.000000000000000D+00 0.148564184130362D+03
 0.148564184130362D+03 0.000000000000000D+00 0.000000000000000D+00 -.148564184130362D+03
 0.147020609752618D+03 -.518446236912897D+02 0.200192875775461D+02 -.538648569220014D+02
 0.124427631095008D+03 0.388103787453358D+02 -.397488852634841D+02 0.638808630019154D+02
 0.256801274130984D+02 0.130342449459539D+02 0.197295976859379D+02 -.100160060799140D+02
 0.000000000000000D+00 -.000000000000000D+00 0.000000000000000D+00 -.000000000000000D+00
 0.149283141531563D+03 0.000000000000000D+00 0.000000000000000D+00 0.149283141531563D+03
 0.199409721679996D+03 0.000000000000000D+00 0.000000000000000D+00 -.199409721679996D+03
 0.145057862299373D+03 -.464964700847249D+02 0.187999700344568D+02 -.538648569220014D+02
 0.126269215537744D+03 0.434008069102528D+02 -.407954501162408D+02 0.638808630019154D+02
 0.260109636311560D+02 0.139807436490366D+02 0.195138068620238D+02 -.100160060799140D+02
 0.513548217432859D+02 -.108850804745646D+02 0.248167321976029D+01 -.501265801484327D+02
-.112273279393D-04 0.000000000000D+00 0.000000000000D+00 0.202422152833D-06 0.000000000000D+00  6 21 -2 25 23 -2 21 4 0.40082237D-01 0.17517451D-01 0.19428714D+05 0.19428714D+05 0.19428714D+05 0.12352141D+01  1  2 13  2  6  2       -2 -.328825939751D-01 0.100000000000D+01
0.100947084095D-04 0.000000000000D+00 0.000000000000D+00 0.203762200020D-06 0.140645764194D-07  6 21 -2 25 23 -2 21 4 0.40276210D-01 0.17493704D-01 0.19428714D+05 0.19428714D+05 0.19428714D+05 0.12352141D+01  1  2  1  2  6  2       -2 0.293467674644D-01 0.100000000000D+01
  </mgrwgt>
  </event>
  <event>
  6     66 -.32447353E-03 0.10302214E+02 0.75467711E-02 0.12298860E+00
       21 -1    0    0  501  502 0.00000000E+00 0.00000000E+00 0.72690171E+03 0.72690210E+03 0.75000000E+00 0.0000E+00 0.9000E+01
       -2 -1    0    0    0  501 0.00000000E+00 0.00000000E+00 -.58506295E+02 0.58507170E+02 0.32000000E+00 0.0000E+00 0.9000E+01
       25  1    1    2    0    0 -.17814830E+02 -.28876943E+02 0.40564628E+03 0.42582291E+03 0.12500000E+03 0.0000E+00 0.9000E+01
       23  1    1    2    0    0 0.15927340E+02 0.50436640E+02 0.29642111E+03 0.31460810E+03 0.91188000E+02 0.0000E+00 0.9000E+01
       -2  1    1    2    0  503 -.33120123E+01 -.14385137E+02 -.32889497E+02 0.36051672E+02 0.32000000E+00 0.0000E+00 0.9000E+01
       21  1    1    2  503  502 0.51995024E+01 -.71745600E+01 -.78247239E+00 0.89265839E+01 0.75000000E+00 0.0000E+00 0.9000E+01
#aMCatNLO 2  0  0  5  1 0.68127067D+01 0.00000000D+00  -5  6  0 0.00000000D+00 0.00000000D+00 0.00000000D+00 0.00000000D+00 0.00000000D+00
  <mgrwgt>
 -.1056414931D-01    4    2    0
 0.206225171448409D+03 0.000000000000000D+00 0.000000000000000D+00 0.206225171448409D+03
 0.206225171448409D+03 -.000000000000000D+00 -.000000000000000D+00 -.206225171448409D+03
 0.153788609729557D+03 -.178224931074484D+02 -.287894175216072D+02 0.829425383066590D+02
 0.118954977239209D+03 0.159214135193494D+02 0.505043389332172D+02 0.550532070495927D+02
 0.139706755928052D+03 0.190107958809908D+01 -.217149214116101D+02 -.137995745356252D+03
 0.000000000000000D+00 0.000000000000000D+00 0.000000000000000D+00 0.000000000000000D+00
 0.206225171448409D+03 0.000000000000000D+00 0.000000000000000D+00 0.206225171448409D+03
 0.206225171448409D+03 -.000000000000000D+00 -.000000000000000D+00 -.206225171448409D+03
 0.153504541302737D+03 -.178148209517474D+02 -.288770520736531D+02 0.823856311413367D+02
 0.118728220727756D+03 0.159273477306919D+02 0.504365559041692D+02 0.546224539541207D+02
 0.121981218348244D+03 -.333824656624357D+01 -.143653404296229D+02 -.121086377160794D+03
 0.182363625180808D+02 0.522571978729904D+01 -.719416340089332D+01 -.159217079346639D+02
-.109647246071D-04 0.000000000000D+00 0.000000000000D+00 0.104447619689D-06 0.000000000000D+00  6 21 -2 25 23 -2 21 4 0.11183113D+00 0.90010655D-02 0.16715936D+05 0.16715936D+05 0.16715936D+05 0.12424954D+01  1  2 13  3  6  5       -2 -.102676992032D-01 0.100000000000D+01
-.315856276147D-06 0.000000000000D+00 0.000000000000D+00 0.104564360941D-06 0.000000000000D+00  6 21 -2 25 23 -2 21 4 0.11183113D+00 0.90010655D-02 0.16480322D+05 0.16480322D+05 0.16480322D+05 0.12431896D+01  1  2  8  3  6  5       -2 -.296523543146D-03 0.100000000000D+01
-.562914461923D-09 0.000000000000D+00 0.000000000000D+00 0.104564360941D-06 0.000000000000D+00  6 21 -2 25 23 -2 21 4 0.11183113D+00 0.90010655D-02 0.16480322D+05 0.16480322D+05 0.16480322D+05 0.12431896D+01  1  2  9  3  6  5       -2 -.528459946319D-06 0.100000000000D+01
0.641142645674D-09 0.000000000000D+00 0.000000000000D+00 0.104564360941D-06 0.000000000000D+00  6 21 -2 25 23 -2 21 4 0.11183113D+00 0.90010655D-02 0.16480322D+05 0.16480322D+05 0.16480322D+05 0.12431896D+01  1  2 10  3  6  5       -2 0.601899988426D-06 0.100000000000D+01
  </mgrwgt>
  </event>
  <event>
  5     66 0.32447353E-03 0.11037205E+03 0.75467711E-02 0.10449205E+00
       21 -1    0    0  501  502 0.00000000E+00 0.00000000E+00 0.59622725E+03 0.59622772E+03 0.75000000E+00 0.0000E+00 0.9000E+01
       -4 -1    0    0    0  501 0.00000000E+00 0.00000000E+00 -.19133518E+03 0.19134146E+03 0.15500000E+01 0.0000E+00 0.9000E+01
       25  1    1    2    0    0 -.72357120E+02 -.15694514E+03 0.36844426E+02 0.21644824E+03 0.12500000E+03 0.0000E+00 0.9000E+01
       23  1    1    2    0    0 0.16124503E+03 0.22236678E+03 0.14827866E+03 0.32519034E+03 0.91188000E+02 0.0000E+00 0.9000E+01
       -4  1    1    2    0  502 -.88887908E+02 -.65421642E+02 0.21976899E+03 0.24593060E+03 0.15500000E+01 0.0000E+00 0.9000E+01
#aMCatNLO 1  0  0  2  1 0.32688988D+02 0.00000000D+00  -5  6  0 0.00000000D+00 0.00000000D+00 0.00000000D+00 0.00000000D+00 0.00000000D+00
  <mgrwgt>
 0.5063165720D-02    7    4    0
 0.337760134207623D+03 0.000000000000000D+00 0.000000000000000D+00 0.337760134207623D+03
 0.337760134207623D+03 0.000000000000000D+00 0.000000000000000D+00 -.337760134207623D+03
 0.230266351088255D+03 -.723556049604023D+02 -.156944025627707D+03 -.867803646805167D+02
 0.290257171360627D+03 0.161246938306475D+03 0.222368188577419D+03 -.220405938635451D+02
 0.154996745966364D+03 -.888913333460729D+02 -.654241629497124D+02 0.108820958544062D+03
 0.000000000000000D+00 0.000000000000000D+00 0.000000000000000D+00 -.000000000000000D+00
 0.411243639670512D+03 0.000000000000000D+00 0.000000000000000D+00 0.411243639670512D+03
 0.435882173621990D+03 0.000000000000000D+00 0.000000000000000D+00 -.435882173621990D+03
 0.262657740058926D+03 -.124597998883508D+03 -.174093639725879D+03 -.867803646805167D+02
 0.247293532543174D+03 0.104274807847954D+03 0.203665943554872D+03 -.220405938635451D+02
 0.182592090390589D+03 -.124670572563125D+03 -.771694161668938D+02 0.108820958544062D+03
 0.154582450299813D+03 0.144993763598678D+03 0.475971123379002D+02 -.246385339514773D+02
 0.337760134207623D+03 0.000000000000000D+00 0.000000000000000D+00 0.337760134207623D+03
 0.337760134207623D+03 0.000000000000000D+00 0.000000000000000D+00 -.337760134207623D+03
 0.230266351088255D+03 -.723556049604023D+02 -.156944025627707D+03 -.867803646805167D+02
 0.290257171360627D+03 0.161246938306475D+03 0.222368188577419D+03 -.220405938635451D+02
 0.000000000000000D+00 0.000000000000000D+00 0.000000000000000D+00 -.000000000000000D+00
 0.154996745966364D+03 -.888913333460729D+02 -.654241629497124D+02 0.108820958544062D+03
 0.411243639670512D+03 0.000000000000000D+00 0.000000000000000D+00 0.411243639670512D+03
 0.435882173621990D+03 0.000000000000000D+00 0.000000000000000D+00 -.435882173621990D+03
 0.262657740058926D+03 -.124597998883508D+03 -.174093639725879D+03 -.867803646805167D+02
 0.247293532543174D+03 0.104274807847954D+03 0.203665943554872D+03 -.220405938635451D+02
 0.154582450299813D+03 0.144993763598678D+03 0.475971123379002D+02 -.246385339514773D+02
 0.182592090390589D+03 -.124670572563125D+03 -.771694161668938D+02 0.108820958544062D+03
0.607690617338D-04 0.000000000000D+00 0.000000000000D+00 0.422281970012D-07 0.000000000000D+00  6 21 -4 25 23 -4 21 2 0.91727789D-01 0.29436701D-01 0.93966517D+05 0.93966517D+05 0.93966517D+05 0.11660626D+01  1  2  2  2  6  2       -4 0.379762834690D-02 0.100000000000D+01
-.939208104587D-08 0.320687149151D-05 -.122675227298D-06 0.422281970012D-07 0.000000000000D+00  6 21 -4 25 23 -4 21 4 0.91727789D-01 0.29436701D-01 0.93966517D+05 0.93966517D+05 0.93966517D+05 0.11660626D+01  1  2  3  2  6  2       -4 -.798059903961D-06 0.100000000000D+01
0.771027083730D-05 0.000000000000D+00 0.000000000000D+00 0.422281970012D-07 0.000000000000D+00  6 21 -4 25 23 -4 21 4 0.91727789D-01 0.29436701D-01 0.93966517D+05 0.93966517D+05 0.93966517D+05 0.11660626D+01  1  2 15  2  6  2       -4 0.655153844380D-03 0.100000000000D+01
-.501532195876D-04 0.000000000000D+00 0.000000000000D+00 0.422281970012D-07 0.000000000000D+00  6 21 -4 25 23 -4 21 4 0.91727789D-01 0.29436701D-01 0.93966517D+05 0.93966517D+05 0.93966517D+05 0.11660626D+01  1  2  4  2  6  2       -4 -.426159797940D-02 0.100000000000D+01
-.119543265860D-03 0.000000000000D+00 -.661954780329D-04 0.422281970012D-07 0.000000000000D+00  6 21 -4 25 23 -4 21 4 0.91727789D-01 0.45650701D-01 0.93966517D+05 0.93966517D+05 0.93966517D+05 0.11660626D+01  1  2  5  2  6  2       -4 -.426991020264D-02 0.100000000000D+01
0.140721468473D-03 0.000000000000D+00 0.602973776853D-04 0.422281970012D-07 0.000000000000D+00  6 21 -4 25 23 -4 21 4 0.91727789D-01 0.29436701D-01 0.93966517D+05 0.93966517D+05 0.93966517D+05 0.11660626D+01  1  2  6  2  6  2       -4 0.119573245872D-01 0.100000000000D+01
-.354301933753D-05 0.000000000000D+00 -.337488253865D-05 0.422281970012D-07 0.000000000000D+00  6 21 21 25 23 4 -4 4 0.91727789D-01 0.45650701D-01 0.93966517D+05 0.93966517D+05 0.93966517D+05 0.11660626D+01  3  4  5 10  5  2       -4 -.281463481616D-02 0.100000000000D+01
  </mgrwgt>
  </event>
  <event>
  5     66 -.32447353E-03 0.35126727E+02 0.75467711E-02 0.11705908E+00
       21 -1    0    0  501  502 0.00000000E+00 0.00000000E+00 0.11859558E+03 0.11859795E+03 0.75000000E+00 0.0000E+00 0.9000E+01
       -2 -1    0    0    0  501 0.00000000E+00 0.00000000E+00 -.42199258E+03 0.42199270E+03 0.32000000E+00 0.0000E+00 0.9000E+01
       25  1    1    2    0    0 0.30979366E+01 -.65727639E+02 0.30105470E+02 0.14443358E+03 0.12500000E+03 0.0000E+00 0.9000E+01
       23  1    1    2    0    0 0.22862074E+00 0.30759342E+02 -.34579804E+03 0.35893972E+03 0.91188000E+02 0.0000E+00 0.9000E+01
       -2  1    1    2    0  502 -.33265574E+01 0.34968297E+02 0.12295574E+02 0.37217352E+02 0.32000000E+00 0.0000E+00 0.9000E+01
#aMCatNLO 1  0  0  1  2 0.90794370D+02 0.00000000D+00  -5  6  0 0.00000000D+00 0.00000000D+00 0.00000000D+00 0.00000000D+00 0.00000000D+00
  <mgrwgt>
 -.7206306504D-01   12    4    0
 0.223712157554248D+03 0.000000000000000D+00 0.000000000000000D+00 0.223712157554248D+03
 0.223712157554248D+03 0.000000000000000D+00 0.000000000000000D+00 -.223712157554248D+03
 0.194923015280221D+03 0.309796275411122D+01 -.657279131834021D+02 0.134313908219747D+03
 0.199196772588804D+03 0.228647426329976D+00 0.307590612536487D+02 -.174407370076337D+03
 0.533045272394708D+02 -.332661018044119D+01 0.349688519297534D+02 0.400934618565902D+02
 0.000000000000000D+00 -.000000000000000D+00 -.000000000000000D+00 0.000000000000000D+00
 0.158904945703178D+04 0.000000000000000D+00 0.000000000000000D+00 0.158904945703178D+04
 0.227482474189995D+03 0.000000000000000D+00 0.000000000000000D+00 -.227482474189995D+03
 0.195704148142917D+03 0.334168665339119D+02 -.593144222776955D+02 0.134313908219747D+03
 0.202772211608046D+03 0.314278575568527D+02 0.373587672288577D+02 -.174407370076337D+03
 0.546156277448437D+02 0.504971666328694D+01 0.367407331437195D+02 0.400934618565902D+02
 0.136343994372597D+04 -.698944407540515D+02 -.147850780948818D+02 0.136156698284179D+04
 0.223712157554248D+03 0.000000000000000D+00 0.000000000000000D+00 0.223712157554248D+03
 0.223712157554248D+03 0.000000000000000D+00 0.000000000000000D+00 -.223712157554248D+03
 0.194923015280221D+03 0.309796275411122D+01 -.657279131834021D+02 0.134313908219747D+03
 0.199196772588804D+03 0.228647426329976D+00 0.307590612536487D+02 -.174407370076337D+03
 0.000000000000000D+00 -.000000000000000D+00 -.000000000000000D+00 0.000000000000000D+00
 0.533045272394708D+02 -.332661018044119D+01 0.349688519297534D+02 0.400934618565902D+02
 0.158904945703178D+04 0.000000000000000D+00 0.000000000000000D+00 0.158904945703178D+04
 0.227482474189995D+03 0.000000000000000D+00 0.000000000000000D+00 -.227482474189995D+03
 0.195704148142917D+03 0.334168665339119D+02 -.593144222776955D+02 0.134313908219747D+03
 0.202772211608046D+03 0.314278575568527D+02 0.373587672288577D+02 -.174407370076337D+03
 0.136343994372597D+04 -.698944407540515D+02 -.147850780948818D+02 0.136156698284179D+04
 0.546156277448437D+02 0.504971666328694D+01 0.367407331437195D+02 0.400934618565902D+02
0.919554919439D-06 0.000000000000D+00 0.000000000000D+00 0.119722129844D-06 0.000000000000D+00  6 21 -2 25 23 -2 21 2 0.18245666D-01 0.64922126D-01 0.18581005D+05 0.18581005D+05 0.18581005D+05 0.12373602D+01  1  2  2  1  6  1       21 0.708196376064D-03 0.100000000000D+01
0.761256853808D-08 0.485262462821D-07 -.185631644683D-08 0.119722129844D-06 0.000000000000D+00  6 21 -2 25 23 -2 21 4 0.18245666D-01 0.64922126D-01 0.18581005D+05 0.18581005D+05 0.18581005D+05 0.12373602D+01  1  2  3  1  6  1       21 0.897634547313D-05 0.100000000000D+01
0.104021992012D-06 0.000000000000D+00 0.000000000000D+00 0.119722129844D-06 0.000000000000D+00  6 21 -2 25 23 -2 21 4 0.18245666D-01 0.64922126D-01 0.18581005D+05 0.18581005D+05 0.18581005D+05 0.12373602D+01  1  2 15  1  6  1       21 0.122657330760D-03 0.100000000000D+01
-.207486498856D-02 0.000000000000D+00 -.135501945881D-04 0.119722129844D-06 0.000000000000D+00  6 21 -2 25 23 -2 21 4 0.12994206D+00 0.64922126D-01 0.18581005D+05 0.18581005D+05 0.18581005D+05 0.12373602D+01  1  2  5  1  6  1       21 -.402362540267D-01 0.100000000000D+01
-.901731895621D-03 0.000000000000D+00 -.582127081777D-05 0.119722129844D-06 0.000000000000D+00  6 -1 -2 25 23 -2 -1 4 0.12994206D+00 0.64922126D-01 0.18581005D+05 0.18581005D+05 0.18581005D+05 0.12373602D+01  1  2  5  4  6  1       21 -.203243190844D-02 0.100000000000D+01
-.901731895621D-03 0.000000000000D+00 -.582127081777D-05 0.119722129844D-06 0.000000000000D+00  6 -3 -2 25 23 -2 -3 4 0.12994206D+00 0.64922126D-01 0.18581005D+05 0.18581005D+05 0.18581005D+05 0.12373602D+01  1  2  5  4  6  1       21 -.938219612532D-03 0.100000000000D+01
-.901731895621D-03 0.000000000000D+00 -.582127081777D-05 0.119722129844D-06 0.000000000000D+00  6 1 -2 25 23 1 -2 4 0.12994206D+00 0.64922126D-01 0.18581005D+05 0.18581005D+05 0.18581005D+05 0.12373602D+01  3  4  5  5  5  1       21 -.934116598406D-02 0.100000000000D+01
-.901731895621D-03 0.000000000000D+00 -.582127081777D-05 0.119722129844D-06 0.000000000000D+00  6 3 -2 25 23 3 -2 4 0.12994206D+00 0.64922126D-01 0.18581005D+05 0.18581005D+05 0.18581005D+05 0.12373602D+01  3  4  5  5  5  1       21 -.941114025937D-03 0.100000000000D+01
-.901731895621D-03 0.000000000000D+00 -.582127081777D-05 0.119722129844D-06 0.000000000000D+00  6 -2 -2 25 23 -2 -2 4 0.12994206D+00 0.64922126D-01 0.18581005D+05 0.18581005D+05 0.18581005D+05 0.12373602D+01  1  2  5  6  6  1       21 -.147994517729D-02 0.100000000000D+01
-.901731895621D-03 0.000000000000D+00 -.582127081777D-05 0.119722129844D-06 0.000000000000D+00  6 2 -2 25 23 2 -2 4 0.12994206D+00 0.64922126D-01 0.18581005D+05 0.18581005D+05 0.18581005D+05 0.12373602D+01  3  4  5  7  5  1       21 -.164532976205D-01 0.100000000000D+01
-.901731895621D-03 0.000000000000D+00 -.582127081777D-05 0.119722129844D-06 0.000000000000D+00  6 -4 -2 25 23 -2 -4 4 0.12994206D+00 0.64922126D-01 0.18581005D+05 0.18581005D+05 0.18581005D+05 0.12373602D+01  1  2  5  8  6  1       21 -.740233369545D-03 0.100000000000D+01
-.901731895621D-03 0.000000000000D+00 -.582127081777D-05 0.119722129844D-06 0.000000000000D+00  6 4 -2 25 23 4 -2 4 0.12994206D+00 0.64922126D-01 0.18581005D+05 0.18581005D+05 0.18581005D+05 0.12373602D+01  3  4  5  9  5  1       21 -.740233369545D-03 0.100000000000D+01
  </mgrwgt>
  </event>
  <event>
  5     66 -.32447353E-03 0.40856207E+02 0.75467711E-02 0.11574198E+00
       21 -1    0    0  501  502 0.00000000E+00 0.00000000E+00 0.26565100E+03 0.26565206E+03 0.75000000E+00 0.0000E+00 0.9000E+01
       -2 -1    0    0    0  501 0.00000000E+00 0.00000000E+00 -.22955414E+03 0.22955436E+03 0.32000000E+00 0.0000E+00 0.9000E+01
       25  1    1    2    0    0 -.66752005E+02 0.13701941E+03 -.84556909E+02 0.21448781E+03 0.12500000E+03 0.0000E+00 0.9000E+01
       23  1    1    2    0    0 0.52993604E+02 -.98549573E+02 -.91513699E+01 0.14463519E+03 0.91188000E+02 0.0000E+00 0.9000E+01
       -2  1    1    2    0  502 0.13758401E+02 -.38469835E+02 0.12980514E+03 0.13608343E+03 0.32000000E+00 0.0000E+00 0.9000E+01
#aMCatNLO 1  0  0  5  2 0.28365654D+02 0.00000000D+00  -5  6  0 0.00000000D+00 0.00000000D+00 0.00000000D+00 0.00000000D+00 0.00000000D+00
  <mgrwgt>
 -.2400364083D-02    1    2    0
 0.246944538916045D+03 0.000000000000000D+00 0.000000000000000D+00 0.246944538916045D+03
 0.246944538916045D+03 -.000000000000000D+00 -.000000000000000D+00 -.246944538916045D+03
 0.221240035875536D+03 -.667520244421405D+02 0.137019462907106D+03 -.100458884583357D+03
 0.145689811183630D+03 0.529935911259132D+02 -.985495372133435D+02 -.197468416040927D+02
 0.126959230772925D+03 0.137584333162273D+02 -.384699256937627D+02 0.120205726187450D+03
 0.000000000000000D+00 -.000000000000000D+00 0.000000000000000D+00 0.000000000000000D+00
 0.246944538916045D+03 0.000000000000000D+00 0.000000000000000D+00 0.246944538916045D+03
 0.246944538916045D+03 -.000000000000000D+00 -.000000000000000D+00 -.246944538916045D+03
 0.211265787735077D+03 -.650324497165442D+02 0.132211363729089D+03 -.854351733894321D+02
 0.147324850132707D+03 0.541585710598766D+02 -.101806935091737D+03 -.956855634898889D+01
 0.914264411362756D+02 0.484343772432959D+02 -.274312950531305D+02 0.725288169737179D+02
 0.438719988280309D+02 -.375604985866282D+02 -.297313358422134D+01 0.224749127647031D+02
-.323402473939D-05 0.000000000000D+00 0.000000000000D+00 0.520857232386D-06 0.000000000000D+00  6 21 -2 25 23 -2 21 4 0.40869484D-01 0.35316120D-01 0.36541898D+05 0.36541898D+05 0.36541898D+05 0.12060085D+01  1  2 14  3  6  5       -2 -.240036408325D-02 0.100000000000D+01
  </mgrwgt>
  </event>
  <event>
  6     66 0.32447353E-03 0.21693768E+02 0.75467711E-02 0.12298125E+00
       21 -1    0    0  501  502 0.00000000E+00 0.00000000E+00 0.29286395E+03 0.29286491E+03 0.75000000E+00 0.0000E+00 0.9000E+01
       -2 -1    0    0    0  501 0.00000000E+00 0.00000000E+00 -.67310034E+02 0.67310794E+02 0.32000000E+00 0.0000E+00 0.9000E+01
       25  1    1    2    0    0 0.33581727E+02 0.17426603E+01 0.12250722E+03 0.17822399E+03 0.12500000E+03 0.0000E+00 0.9000E+01
       23  1    1    2    0    0 -.77401191E+01 -.33883202E+01 0.23229395E+02 0.94478814E+02 0.91188000E+02 0.0000E+00 0.9000E+01
       -2  1    1    2    0  503 -.24164587E+02 0.10766858E+02 0.60484342E+02 0.66017501E+02 0.32000000E+00 0.0000E+00 0.9000E+01
       21  1    1    2  503  502 -.16770212E+01 -.91211979E+01 0.19332958E+02 0.21455405E+02 0.75000000E+00 0.0000E+00 0.9000E+01
#aMCatNLO 2  0  0  5  2 0.10155805D+02 0.00000000D+00  -5  6  0 0.00000000D+00 0.00000000D+00 0.00000000D+00 0.00000000D+00 0.00000000D+00
  <mgrwgt>
 0.4688816643D-01    2    2    0
 0.140402964269195D+03 0.000000000000000D+00 0.000000000000000D+00 0.140402964269195D+03
 0.140402964269195D+03 -.000000000000000D+00 -.000000000000000D+00 -.140402964269195D+03
 0.130484383895880D+03 0.355920755858068D+02 0.161463614904350D+01 0.114791788159236D+02
 0.103323229112012D+03 -.615263952246046D+01 -.348941502277204D+01 -.480666967851834D+02
 0.469983155304969D+02 -.294394360633463D+02 0.187477887372854D+01 0.365875179692598D+02
 0.000000000000000D+00 0.000000000000000D+00 0.000000000000000D+00 0.000000000000000D+00
 0.140402964269195D+03 0.000000000000000D+00 0.000000000000000D+00 0.140402964269195D+03
 0.140402964269195D+03 -.000000000000000D+00 -.000000000000000D+00 -.140402964269195D+03
 0.130193621815500D+03 0.335579273240748D+02 0.174417593298912D+01 0.140072311847975D+02
 0.102515426263989D+03 -.775885997012617D+01 -.338712678072301D+01 -.460704758193636D+02
 0.359018211378696D+02 -.240497066275755D+02 0.109038307559861D+02 0.243240384596789D+02
 0.121950593210307D+02 -.174936072637315D+01 -.926087990825223D+01 0.773920617488716D+01
-.189091692390D-06 0.000000000000D+00 0.000000000000D+00 0.809337797961D-06 0.000000000000D+00  6 21 -2 25 23 -2 21 4 0.45056125D-01 0.10355522D-01 0.15742653D+05 0.15742653D+05 0.15742653D+05 0.12454371D+01  1  2  8  3  6  5       -2 -.105615428374D-02 0.100000000000D+01
0.864404910949D-05 0.000000000000D+00 0.000000000000D+00 0.809337797961D-06 0.103765407660D-06  6 21 -2 25 23 -2 21 4 0.45056125D-01 0.10355522D-01 0.16492830D+05 0.16492830D+05 0.16492830D+05 0.12431524D+01  1  2  1  3  6  5       -2 0.479443207093D-01 0.100000000000D+01
  </mgrwgt>
  </event>
  <event>
  6     66 -.32447353E-03 0.16009999E+02 0.75467711E-02 0.12286708E+00
       21 -1    0    0  501  502 0.00000000E+00 0.00000000E+00 0.61517676E+02 0.61522248E+02 0.75000000E+00 0.0000E+00 0.9000E+01
       -2 -1    0    0    0  503 0.00000000E+00 0.00000000E+00 -.30627124E+03 0.30627140E+03 0.32000000E+00 0.0000E+00 0.9000E+01
       25  1    1    2    0    0 -.14868662E+02 -.80491563E+01 -.17313408E+03 0.21421082E+03 0.12500000E+03 0.0000E+00 0.9000E+01
       23  1    1    2    0    0 0.79553454E+01 0.16062592E+02 -.56909090E+02 0.10897335E+03 0.91188000E+02 0.0000E+00 0.9000E+01
       -2  1    1    2    0  502 0.22437609E+02 -.78508525E+01 -.85771090E+00 0.23789078E+02 0.32000000E+00 0.0000E+00 0.9000E+01
       21  1    1    2  501  503 -.15524293E+02 -.16258309E+00 -.13852683E+02 0.20820408E+02 0.75000000E+00 0.0000E+00 0.9000E+01
#aMCatNLO 2  0  0  2  1 0.15525144D+02 0.00000000D+00  -5  6  0 0.00000000D+00 0.00000000D+00 0.00000000D+00 0.00000000D+00 0.00000000D+00
  <mgrwgt>
 -.2052045611D-01    2    2    0
 0.129261542595099D+03 0.000000000000000D+00 0.000000000000000D+00 0.129261542595099D+03
 0.129261542595099D+03 0.000000000000000D+00 0.000000000000000D+00 -.129261542595099D+03
 0.133762973779579D+03 -.228603836654195D+02 -.813261124871137D+01 -.409731210344490D+02
 0.949406290491784D+02 0.224937243348497D+01 0.160030052785426D+02 0.209120980765708D+02
 0.298194823614403D+02 0.206110112319345D+02 -.787039402983119D+01 0.200610229578781D+02
 0.000000000000000D+00 -.000000000000000D+00 -.000000000000000D+00 0.000000000000000D+00
 0.137258804086766D+03 0.000000000000000D+00 0.000000000000000D+00 0.137258804086766D+03
 0.137255173327198D+03 0.000000000000000D+00 0.000000000000000D+00 -.137255173327198D+03
 0.132626078465581D+03 -.148692602985463D+02 -.804892166871053D+01 -.409731210344490D+02
 0.952568102250418D+02 0.795490420550723D+01 0.160627582739301D+02 0.209120980765708D+02
 0.311059444067280D+02 0.224386486568981D+02 -.785125351585501D+01 0.200610229578781D+02
 0.155251443166126D+02 -.155242925638590D+02 -.162583089364548D+00 0.363075956708396D-02
-.328525853778D-05 0.000000000000D+00 0.000000000000D+00 0.962532730020D-06 0.000000000000D+00  6 21 -2 25 23 -2 21 4 0.89125868D-02 0.48406049D-01 0.16688643D+05 0.16688643D+05 0.16688643D+05 0.12425752D+01  1  2 13  2  6  2       -2 -.255855043926D-01 0.100000000000D+01
0.684782617206D-06 0.000000000000D+00 0.000000000000D+00 0.972545960019D-06 0.342904996547D-07  6 21 -2 25 23 -2 21 4 0.94639982D-02 0.47115909D-01 0.16688643D+05 0.16688643D+05 0.16688643D+05 0.12425752D+01  1  2  1  2  6  2       -2 0.506504828140D-02 0.100000000000D+01
  </mgrwgt>
  </event>
  <event>
  5     66 0.32447353E-03 0.59123656E+02 0.75467711E-02 0.11270260E+00
       21 -1    0    0  501  502 0.00000000E+00 0.00000000E+00 0.31217665E+04 0.31217666E+04 0.75000000E+00 0.0000E+00 0.9000E+01
       -2 -1    0    0    0  501 0.00000000E+00 0.00000000E+00 -.32320320E+02 0.32321904E+02 0.32000000E+00 0.0000E+00 0.9000E+01
       25  1    1    2    0    0 -.14465252E+03 0.68626290E+02 0.61390360E+03 0.64663479E+03 0.12500000E+03 0.0000E+00 0.9000E+01
       23  1    1    2    0    0 0.88146920E+02 -.51227457E+02 0.28510847E+03 0.31622180E+03 0.91188000E+02 0.0000E+00 0.9000E+01
       -2  1    1    2    0  502 0.56505600E+02 -.17398833E+02 0.21904341E+04 0.21912319E+04 0.32000000E+00 0.0000E+00 0.9000E+01
#aMCatNLO 1  0  0  1  2 0.64124447D+02 0.00000000D+00  -5  6  0 0.00000000D+00 0.00000000D+00 0.00000000D+00 0.00000000D+00 0.00000000D+00
  <mgrwgt>
 0.1859718580D-01   14    4    0
 0.317646240601706D+03 0.000000000000000D+00 0.000000000000000D+00 0.317646240601706D+03
 0.317646240601706D+03 0.000000000000000D+00 0.000000000000000D+00 -.317646240601706D+03
 0.224969207098768D+03 -.144652540022310D+03 0.686262964384403D+02 -.967068676200707D+02
 0.183481266679379D+03 0.881469038815973D+02 -.512274523893038D+02 -.122294706901237D+03
 0.226842007425266D+03 0.565056361407124D+02 -.173988440491365D+02 0.219001574521307D+03
 0.000000000000000D+00 0.000000000000000D+00 -.000000000000000D+00 0.000000000000000D+00
 0.500775848216109D+03 0.000000000000000D+00 0.000000000000000D+00 0.500775848216109D+03
 0.324923620044071D+03 0.000000000000000D+00 0.000000000000000D+00 -.324923620044071D+03
 0.236633137961054D+03 -.150759824050118D+03 0.910466868633158D+02 -.967068676200707D+02
 0.177086214722469D+03 0.833763734809620D+02 -.337144050790788D+02 -.122294706901237D+03
 0.224801188347880D+03 0.505301178069483D+02 0.453782263018913D+01 0.219001574521307D+03
 0.187178927228778D+03 0.168533327622074D+02 -.618701044144261D+02 0.175852228172038D+03
 0.317646240601706D+03 0.000000000000000D+00 0.000000000000000D+00 0.317646240601706D+03
 0.317646240601706D+03 0.000000000000000D+00 0.000000000000000D+00 -.317646240601706D+03
 0.224969207098768D+03 -.144652540022310D+03 0.686262964384403D+02 -.967068676200707D+02
 0.183481266679379D+03 0.881469038815973D+02 -.512274523893038D+02 -.122294706901237D+03
 0.000000000000000D+00 0.000000000000000D+00 -.000000000000000D+00 0.000000000000000D+00
 0.226842007425266D+03 0.565056361407124D+02 -.173988440491365D+02 0.219001574521307D+03
 0.500775848216109D+03 0.000000000000000D+00 0.000000000000000D+00 0.500775848216109D+03
 0.324923620044071D+03 0.000000000000000D+00 0.000000000000000D+00 -.324923620044071D+03
 0.236633137961054D+03 -.150759824050118D+03 0.910466868633158D+02 -.967068676200707D+02
 0.177086214722469D+03 0.833763734809620D+02 -.337144050790788D+02 -.122294706901237D+03
 0.187178927228778D+03 0.168533327622074D+02 -.618701044144261D+02 0.175852228172038D+03
 0.224801188347880D+03 0.505301178069483D+02 0.453782263018913D+01 0.219001574521307D+03
0.485143475180D-03 0.000000000000D+00 0.000000000000D+00 0.741437558728D-06 0.000000000000D+00  6 21 -2 25 23 -2 21 2 0.48027190D+00 0.49724857D-02 0.39806001D+05 0.39806001D+05 0.39806001D+05 0.12022147D+01  1  2  2  1  6  1       21 0.276773473772D-02 0.100000000000D+01
0.598272000587D-04 0.256017245529D-04 -.979364900358D-06 0.741437558728D-06 0.000000000000D+00  6 21 -2 25 23 -2 21 4 0.48027190D+00 0.49724857D-02 0.39806001D+05 0.39806001D+05 0.39806001D+05 0.12022147D+01  1  2  3  1  6  1       21 0.493306731548D-03 0.100000000000D+01
0.570446171668D-04 0.000000000000D+00 0.000000000000D+00 0.741437558728D-06 0.000000000000D+00  6 21 -2 25 23 -2 21 4 0.48027190D+00 0.49724857D-02 0.39806001D+05 0.39806001D+05 0.39806001D+05 0.12022147D+01  1  2 15  1  6  1       21 0.470362872060D-03 0.100000000000D+01
-.459565403154D-03 0.000000000000D+00 0.000000000000D+00 0.741437558728D-06 0.000000000000D+00  6 21 -2 25 23 -2 21 4 0.48027190D+00 0.49724857D-02 0.39806001D+05 0.39806001D+05 0.39806001D+05 0.12022147D+01  1  2  4  1  6  1       21 -.378935846471D-02 0.100000000000D+01
-.383218524277D-02 0.000000000000D+00 -.332454403671D-03 0.741437558728D-06 0.000000000000D+00  6 21 -2 25 23 -2 21 4 0.75882562D+00 0.49724857D-02 0.39806001D+05 0.39806001D+05 0.39806001D+05 0.12022147D+01  1  2  5  1  6  1       21 -.157556618894D-03 0.100000000000D+01
0.254888117930D-02 0.000000000000D+00 0.225983903341D-03 0.741437558728D-06 0.000000000000D+00  6 21 -2 25 23 -2 21 4 0.48027190D+00 0.49724857D-02 0.39806001D+05 0.39806001D+05 0.39806001D+05 0.12022147D+01  1  2  6  1  6  1       21 0.210168659477D-01 0.100000000000D+01
-.650895510564D-03 0.000000000000D+00 -.522206619508D-04 0.741437558728D-06 0.000000000000D+00  6 -1 -2 25 23 -2 -1 4 0.75882562D+00 0.49724857D-02 0.39806001D+05 0.39806001D+05 0.39806001D+05 0.12022147D+01  1  2  5  4  6  1       21 -.319969615535D-04 0.100000000000D+01
-.650895510564D-03 0.000000000000D+00 -.522206619508D-04 0.741437558728D-06 0.000000000000D+00  6 -3 -2 25 23 -2 -3 4 0.75882562D+00 0.49724857D-02 0.39806001D+05 0.39806001D+05 0.39806001D+05 0.12022147D+01  1  2  5  4  6  1       21 -.147046818574D-04 0.100000000000D+01
-.650895510564D-03 0.000000000000D+00 -.522206619508D-04 0.741437558728D-06 0.000000000000D+00  6 1 -2 25 23 1 -2 4 0.75882562D+00 0.49724857D-02 0.39806001D+05 0.39806001D+05 0.39806001D+05 0.12022147D+01  3  4  5  5  5  1       21 -.377649972260D-03 0.100000000000D+01
-.650895510564D-03 0.000000000000D+00 -.522206619508D-04 0.741437558728D-06 0.000000000000D+00  6 3 -2 25 23 3 -2 4 0.75882562D+00 0.49724857D-02 0.39806001D+05 0.39806001D+05 0.39806001D+05 0.12022147D+01  3  4  5  5  5  1       21 -.217720147398D-04 0.100000000000D+01
-.650895510564D-03 0.000000000000D+00 -.522206619508D-04 0.741437558728D-06 0.000000000000D+00  6 -2 -2 25 23 -2 -2 4 0.75882562D+00 0.49724857D-02 0.39806001D+05 0.39806001D+05 0.39806001D+05 0.12022147D+01  1  2  5  6  6  1       21 -.317579257583D-04 0.100000000000D+01
-.650895510564D-03 0.000000000000D+00 -.522206619508D-04 0.741437558728D-06 0.000000000000D+00  6 2 -2 25 23 2 -2 4 0.75882562D+00 0.49724857D-02 0.39806001D+05 0.39806001D+05 0.39806001D+05 0.12022147D+01  3  4  5  7  5  1       21 -.172520151402D-02 0.100000000000D+01
-.650895510564D-03 0.000000000000D+00 -.522206619508D-04 0.741437558728D-06 0.000000000000D+00  6 -4 -2 25 23 -2 -4 4 0.75882562D+00 0.49724857D-02 0.39806001D+05 0.39806001D+05 0.39806001D+05 0.12022147D+01  1  2  5  8  6  1       21 -.543167432825D-06 0.100000000000D+01
-.650895510564D-03 0.000000000000D+00 -.522206619508D-04 0.741437558728D-06 0.000000000000D+00  6 4 -2 25 23 4 -2 4 0.75882562D+00 0.49724857D-02 0.39806001D+05 0.39806001D+05 0.39806001D+05 0.12022147D+01  3  4  5  9  5  1       21 -.543167432825D-06 0.100000000000D+01
  </mgrwgt>
  </event>
  <event>
  5     66 0.32447353E-03 0.30086304E+02 0.75467711E-02 0.10511877E+00
       21 -1    0    0  501  502 0.00000000E+00 0.00000000E+00 0.29634975E+02 0.29644464E+02 0.75000000E+00 0.0000E+00 0.9000E+01
       -2 -1    0    0    0  501 0.00000000E+00 0.00000000E+00 -.81992050E+03 0.81992057E+03 0.32000000E+00 0.0000E+00 0.9000E+01
       25  1    1    2    0    0 0.87259032E+01 0.19134535E+02 -.55365166E+03 0.56797661E+03 0.12500000E+03 0.0000E+00 0.9000E+01
       23  1    1    2    0    0 0.15065555E+02 -.71878930E+00 -.23375338E+03 0.25136305E+03 0.91188000E+02 0.0000E+00 0.9000E+01
       -2  1    1    2    0  502 -.23791458E+02 -.18415746E+02 -.28804853E+01 0.30225366E+02 0.32000000E+00 0.0000E+00 0.9000E+01
#aMCatNLO 1  0  0  1  2 0.10052763D+02 0.00000000D+00  -5  6  0 0.00000000D+00 0.00000000D+00 0.00000000D+00 0.00000000D+00 0.00000000D+00
  <mgrwgt>
 0.1986328701D-01   12    4    0
 0.155892208327310D+03 0.000000000000000D+00 0.000000000000000D+00 0.155892208327310D+03
 0.155892208327310D+03 0.000000000000000D+00 0.000000000000000D+00 -.155892208327310D+03
 0.144299133010461D+03 0.872600324766201D+01 0.191346125229066D+02 -.689562416209774D+02
 0.924271476504037D+02 0.150656190063574D+02 -.718739681240204D+00 0.191874999457283D+00
 0.750581359937562D+02 -.237916222540194D+02 -.184158728416664D+02 0.687643666215201D+02
 0.000000000000000D+00 -.000000000000000D+00 0.000000000000000D+00 0.000000000000000D+00
 0.413778061571538D+03 0.000000000000000D+00 0.000000000000000D+00 0.413778061571538D+03
 0.382495630133037D+03 0.000000000000000D+00 0.000000000000000D+00 -.382495630133037D+03
 0.201688127711634D+03 0.101264114043733D+03 -.100218345667206D+03 -.689562416209774D+02
 0.146507394888907D+03 0.789712990142439D+02 -.831424231612339D+02 0.191874999457283D+00
 0.110367112119615D+03 0.258024064928556D+02 -.823808056524225D+02 0.687643666215201D+02
 0.337711056984419D+03 -.206037819550833D+03 0.265741574480862D+03 0.312824314385016D+02
 0.155892208327310D+03 0.000000000000000D+00 0.000000000000000D+00 0.155892208327310D+03
 0.155892208327310D+03 0.000000000000000D+00 0.000000000000000D+00 -.155892208327310D+03
 0.144299133010461D+03 0.872600324766201D+01 0.191346125229066D+02 -.689562416209774D+02
 0.924271476504037D+02 0.150656190063574D+02 -.718739681240204D+00 0.191874999457283D+00
 0.000000000000000D+00 -.000000000000000D+00 0.000000000000000D+00 0.000000000000000D+00
 0.750581359937562D+02 -.237916222540194D+02 -.184158728416664D+02 0.687643666215201D+02
 0.413778061571538D+03 0.000000000000000D+00 0.000000000000000D+00 0.413778061571538D+03
 0.382495630133037D+03 0.000000000000000D+00 0.000000000000000D+00 -.382495630133037D+03
 0.201688127711634D+03 0.101264114043733D+03 -.100218345667206D+03 -.689562416209774D+02
 0.146507394888907D+03 0.789712990142439D+02 -.831424231612339D+02 0.191874999457283D+00
 0.337711056984419D+03 -.206037819550833D+03 0.265741574480862D+03 0.312824314385016D+02
 0.110367112119615D+03 0.258024064928556D+02 -.823808056524225D+02 0.687643666215201D+02
0.507961356512D-05 0.000000000000D+00 0.000000000000D+00 0.139129610418D-05 0.000000000000D+00  6 21 -2 25 23 -2 21 2 0.45599616D-02 0.12614235D+00 0.15533885D+05 0.15533885D+05 0.15533885D+05 0.12460947D+01  1  2  2  1  6  1       21 0.997247782290D-02 0.100000000000D+01
0.452589966350D-06 0.268058572325D-06 -.102542762864D-07 0.139129610418D-05 0.000000000000D+00  6 21 -2 25 23 -2 21 4 0.45599616D-02 0.12614235D+00 0.15533885D+05 0.15533885D+05 0.15533885D+05 0.12460947D+01  1  2  3  1  6  1       21 0.137968335738D-02 0.100000000000D+01
0.481557237494D-06 0.000000000000D+00 0.000000000000D+00 0.139129610418D-05 0.000000000000D+00  6 21 -2 25 23 -2 21 4 0.45599616D-02 0.12614235D+00 0.15533885D+05 0.15533885D+05 0.15533885D+05 0.12460947D+01  1  2 15  1  6  1       21 0.146798770542D-02 0.100000000000D+01
0.555949365194D-04 0.000000000000D+00 -.708627933458D-04 0.139129610418D-05 0.000000000000D+00  6 21 -2 25 23 -2 21 4 0.31414496D-01 0.12614235D+00 0.15533885D+05 0.15533885D+05 0.15533885D+05 0.12460947D+01  1  2  5  1  6  1       21 0.544974509076D-02 0.100000000000D+01
0.231617054909D-04 0.000000000000D+00 -.303672973662D-04 0.139129610418D-05 0.000000000000D+00  6 -1 -2 25 23 -2 -1 4 0.31414496D-01 0.12614235D+00 0.15533885D+05 0.15533885D+05 0.15533885D+05 0.12460947D+01  1  2  5  4  6  1       21 0.197727703431D-03 0.100000000000D+01
0.231617054909D-04 0.000000000000D+00 -.303672973662D-04 0.139129610418D-05 0.000000000000D+00  6 -3 -2 25 23 -2 -3 4 0.31414496D-01 0.12614235D+00 0.15533885D+05 0.15533885D+05 0.15533885D+05 0.12460947D+01  1  2  5  4  6  1       21 0.108903629479D-03 0.100000000000D+01
0.231617054909D-04 0.000000000000D+00 -.303672973662D-04 0.139129610418D-05 0.000000000000D+00  6 1 -2 25 23 1 -2 4 0.31414496D-01 0.12614235D+00 0.15533885D+05 0.15533885D+05 0.15533885D+05 0.12460947D+01  3  4  5  5  5  1       21 0.354605109133D-03 0.100000000000D+01
0.231617054909D-04 0.000000000000D+00 -.303672973662D-04 0.139129610418D-05 0.000000000000D+00  6 3 -2 25 23 3 -2 4 0.31414496D-01 0.12614235D+00 0.15533885D+05 0.15533885D+05 0.15533885D+05 0.12460947D+01  3  4  5  5  5  1       21 0.108907582136D-03 0.100000000000D+01
0.231617054909D-04 0.000000000000D+00 -.303672973662D-04 0.139129610418D-05 0.000000000000D+00  6 -2 -2 25 23 -2 -2 4 0.31414496D-01 0.12614235D+00 0.15533885D+05 0.15533885D+05 0.15533885D+05 0.12460947D+01  1  2  5  6  6  1       21 0.172464226933D-03 0.100000000000D+01
0.231617054909D-04 0.000000000000D+00 -.303672973662D-04 0.139129610418D-05 0.000000000000D+00  6 2 -2 25 23 2 -2 4 0.31414496D-01 0.12614235D+00 0.15533885D+05 0.15533885D+05 0.15533885D+05 0.12460947D+01  3  4  5  7  5  1       21 0.468937878383D-03 0.100000000000D+01
0.231617054909D-04 0.000000000000D+00 -.303672973662D-04 0.139129610418D-05 0.000000000000D+00  6 -4 -2 25 23 -2 -4 4 0.31414496D-01 0.12614235D+00 0.15533885D+05 0.15533885D+05 0.15533885D+05 0.12460947D+01  1  2  5  8  6  1       21 0.909234516377D-04 0.100000000000D+01
0.231617054909D-04 0.000000000000D+00 -.303672973662D-04 0.139129610418D-05 0.000000000000D+00  6 4 -2 25 23 4 -2 4 0.31414496D-01 0.12614235D+00 0.15533885D+05 0.15533885D+05 0.15533885D+05 0.12460947D+01  3  4  5  9  5  1       21 0.909234516377D-04 0.100000000000D+01
  </mgrwgt>
  </event>
  <event>
  6     66 -.32447353E-03 0.16047351E+02 0.75467711E-02 0.12233581E+00
       21 -1    0    0  501  502 0.00000000E+00 0.00000000E+00 0.69700987E+02 0.69705022E+02 0.75000000E+00 0.0000E+00 0.9000E+01
       21 -1    0    0  503  501 0.00000000E+00 0.00000000E+00 -.33387224E+03 0.33387308E+03 0.75000000E+00 0.0000E+00 0.9000E+01
       25  1    1    2    0    0 -.38578152E+02 -.39378040E+02 -.12318484E+03 0.18395219E+03 0.12500000E+03 0.0000E+00 0.9000E+01
       23  1    1    2    0    0 0.41861316E+02 0.11836307E+02 -.14383837E+03 0.17577598E+03 0.91188000E+02 0.0000E+00 0.9000E+01
        4  1    1    2  503    0 0.59332395E+00 0.79138610E+01 -.14968181E+02 0.17012648E+02 0.15500000E+01 0.0000E+00 0.9000E+01
       -4  1    1    2    0  502 -.38764883E+01 0.19627871E+02 0.17820131E+02 0.26837289E+02 0.15500000E+01 0.0000E+00 0.9000E+01
#aMCatNLO 2  0  0  2  1 0.79360714D+01 0.00000000D+00  -5  6  0 0.00000000D+00 0.00000000D+00 0.00000000D+00 0.00000000D+00 0.00000000D+00
  <mgrwgt>
 -.4488492187D-02    2    2    0
 0.147705534738291D+03 0.000000000000000D+00 0.000000000000000D+00 0.147705534738291D+03
 0.147705534738291D+03 0.000000000000000D+00 0.000000000000000D+00 -.147705534738291D+03
 0.135666592768672D+03 -.383038223208561D+02 -.357343235030916D+02 -.602492430237090D+01
 0.109079377858930D+03 0.420805643624153D+02 0.147483463623205D+02 -.399345929315545D+02
 0.000000000000000D+00 0.000000000000000D+00 0.000000000000000D+00 -.000000000000000D+00
 0.506650988489802D+02 -.377674204155927D+01 0.209859771407711D+02 0.459595172339254D+02
 0.149895750482118D+03 0.000000000000000D+00 0.000000000000000D+00 0.149895750482118D+03
 0.155127030041710D+03 0.000000000000000D+00 0.000000000000000D+00 -.155127030041710D+03
 0.136749769510218D+03 -.385773428782283D+02 -.393825896139924D+02 -.602492430237090D+01
 0.108639116493070D+03 0.418619633818163D+02 0.118326073882880D+02 -.399345929315545D+02
 0.950513096933501D+01 0.593323951779213D+00 0.791386097943693D+01 -.523127955959171D+01
 0.501287635512040D+02 -.387794445536719D+01 0.196361212462675D+02 0.459595172339254D+02
-.148659032362D-06 0.000000000000D+00 0.000000000000D+00 0.157871409780D-05 0.000000000000D+00  6 21 21 25 23 4 -4 4 0.10562526D-01 0.51694245D-01 0.17636044D+05 0.17636044D+05 0.17636044D+05 0.12398859D+01  1  2 13 10  5  2       -4 -.932877130076D-02 0.100000000000D+01
0.780462754655D-07 0.000000000000D+00 0.000000000000D+00 0.158557660730D-05 0.203719982759D-08  6 21 21 25 23 4 -4 4 0.10719150D-01 0.51344003D-01 0.17636044D+05 0.17636044D+05 0.17636044D+05 0.12398859D+01  1  2  1 10  5  2       -4 0.484027911340D-02 0.100000000000D+01
  </mgrwgt>
  </event>
  <event>
  5     66 0.32447353E-03 0.20761794E+02 0.75467711E-02 0.11710233E+00
       21 -1    0    0  501  502 0.00000000E+00 0.00000000E+00 0.25487633E+03 0.25487744E+03 0.75000000E+00 0.0000E+00 0.9000E+01
       -4 -1    0    0    0  501 0.00000000E+00 0.00000000E+00 -.14968858E+03 0.14969661E+03 0.15500000E+01 0.0000E+00 0.9000E+01
       25  1    1    2    0    0 -.13219881E+03 -.93990983E+01 -.35928249E+02 0.18568981E+03 0.12500000E+03 0.0000E+00 0.9000E+01
       23  1    1    2    0    0 0.11172333E+03 0.12670147E+02 0.11165363E+03 0.18282347E+03 0.91188000E+02 0.0000E+00 0.9000E+01
       -4  1    1    2    0  502 0.20475475E+02 -.32710483E+01 0.29462370E+02 0.36060762E+02 0.15500000E+01 0.0000E+00 0.9000E+01
#aMCatNLO 1  0  0  1  2 0.55957959D+01 0.00000000D+00  -5  6  0 0.00000000D+00 0.00000000D+00 0.00000000D+00 0.00000000D+00 0.00000000D+00
  <mgrwgt>
 0.2027740604D-01   41    4    0
 0.195330293497996D+03 0.000000000000000D+00 0.000000000000000D+00 0.195330293497996D+03
 0.195330293497996D+03 0.000000000000000D+00 0.000000000000000D+00 -.195330293497996D+03
 0.201993091397513D+03 -.132213540586691D+03 -.939674476636054D+01 -.872209255032948D+02
 0.159258419837846D+03 0.111711717102742D+03 0.126720023079236D+02 0.663920595004600D+02
 0.294090757606324D+02 0.205018234839490D+02 -.327525754156308D+01 0.208288660028348D+02
 0.000000000000000D+00 -.000000000000000D+00 0.000000000000000D+00 0.000000000000000D+00
 0.216090114947722D+03 0.000000000000000D+00 0.000000000000000D+00 0.216090114947722D+03
 0.195727780991501D+03 0.000000000000000D+00 0.000000000000000D+00 -.195727780991501D+03
 0.200376089861495D+03 -.129630781898300D+03 -.106746394302519D+02 -.872209255032948D+02
 0.160628463446116D+03 0.113765031982671D+03 0.116560653022157D+02 0.663920595004600D+02
 0.296961085344475D+02 0.208812124515369D+02 -.346297122128045D+01 0.208288660028348D+02
 0.211172340971655D+02 -.501546253590767D+01 0.248154534931663D+01 0.203623339562212D+02
 0.195330293497996D+03 0.000000000000000D+00 0.000000000000000D+00 0.195330293497996D+03
 0.195330293497996D+03 0.000000000000000D+00 0.000000000000000D+00 -.195330293497996D+03
 0.201993091397513D+03 -.132213540586691D+03 -.939674476636054D+01 -.872209255032948D+02
 0.159258419837846D+03 0.111711717102742D+03 0.126720023079236D+02 0.663920595004600D+02
 0.000000000000000D+00 -.000000000000000D+00 0.000000000000000D+00 0.000000000000000D+00
 0.294090757606324D+02 0.205018234839490D+02 -.327525754156308D+01 0.208288660028348D+02
 0.216090114947722D+03 0.000000000000000D+00 0.000000000000000D+00 0.216090114947722D+03
 0.195727780991501D+03 0.000000000000000D+00 0.000000000000000D+00 -.195727780991501D+03
 0.200376089861495D+03 -.129630781898300D+03 -.106746394302519D+02 -.872209255032948D+02
 0.160628463446116D+03 0.113765031982671D+03 0.116560653022157D+02 0.663920595004600D+02
 0.211172340971655D+02 -.501546253590767D+01 0.248154534931663D+01 0.203623339562212D+02
 0.296961085344475D+02 0.208812124515369D+02 -.346297122128045D+01 0.208288660028348D+02
0.104428535367D-05 0.000000000000D+00 0.000000000000D+00 0.417907287745D-06 0.000000000000D+00  6 21 -4 25 23 -4 21 2 0.39212446D-01 0.23029715D-01 0.30226051D+05 0.30226051D+05 0.30226051D+05 0.12145564D+01  1  2  2  1  6  1       21 0.705285272798D-03 0.100000000000D+01
0.125678946743D-06 0.551084521325D-07 -.210811125712D-08 0.417907287745D-06 0.000000000000D+00  6 21 -4 25 23 -4 21 4 0.39212446D-01 0.23029715D-01 0.30226051D+05 0.30226051D+05 0.30226051D+05 0.12145564D+01  1  2  3  1  6  1       21 0.125211299204D-03 0.100000000000D+01
0.966218698407D-07 0.000000000000D+00 0.000000000000D+00 0.417907287745D-06 0.000000000000D+00  6 21 -4 25 23 -4 21 4 0.39212446D-01 0.23029715D-01 0.30226051D+05 0.30226051D+05 0.30226051D+05 0.12145564D+01  1  2 15  1  6  1       21 0.962623428015D-04 0.100000000000D+01
0.284975231067D-04 0.000000000000D+00 0.000000000000D+00 0.416888553136D-06 0.000000000000D+00  6 21 -4 25 23 -4 21 4 0.43417391D-01 0.23029715D-01 0.31227262D+05 0.31227262D+05 0.31227262D+05 0.12130751D+01  1  2 12  1  6  1       21 0.230037271805D-01 0.100000000000D+01
0.195827469402D-04 0.000000000000D+00 0.000000000000D+00 0.416888553136D-06 0.000000000000D+00  6 21 -4 25 23 -4 21 4 0.45206543D-01 0.23029715D-01 0.31227262D+05 0.31227262D+05 0.31227262D+05 0.12130751D+01  1  2 12  1  6  1       21 0.145548548096D-01 0.100000000000D+01
-.499112580764D-04 0.000000000000D+00 0.000000000000D+00 0.417907287745D-06 0.000000000000D+00  6 21 -4 25 23 -4 21 4 0.39212446D-01 0.23029715D-01 0.30226051D+05 0.30226051D+05 0.30226051D+05 0.12145564D+01  1  2  4  1  6  1       21 -.497255398030D-01 0.100000000000D+01
-.100620748144D-03 0.000000000000D+00 -.347367133519D-05 0.417907287745D-06 0.000000000000D+00  6 21 -4 25 23 -4 21 4 0.43425622D-01 0.23029715D-01 0.30226051D+05 0.30226051D+05 0.30226051D+05 0.12145564D+01  1  2  5  1  6  1       21 -.815397757117D-01 0.100000000000D+01
0.990736854293D-04 0.000000000000D+00 0.340236665836D-05 0.417907287745D-06 0.000000000000D+00  6 21 -4 25 23 -4 21 4 0.39212446D-01 0.23029715D-01 0.30226051D+05 0.30226051D+05 0.30226051D+05 0.12145564D+01  1  2  6  1  6  1       21 0.987050352588D-01 0.100000000000D+01
0.179611359517D-04 0.000000000000D+00 0.000000000000D+00 0.417907287745D-06 0.187095037298D-06  6 21 -4 25 23 -4 21 4 0.43379968D-01 0.23076579D-01 0.31227262D+05 0.31227262D+05 0.31227262D+05 0.12130751D+01  1  2 11  1  6  1       21 0.144698967485D-01 0.100000000000D+01
0.727208507387D-06 0.000000000000D+00 0.000000000000D+00 0.416888553136D-06 0.000000000000D+00  6 -1 -4 25 23 -4 -1 4 0.43417391D-01 0.23029715D-01 0.31227262D+05 0.31227262D+05 0.31227262D+05 0.12130751D+01  1  2 12  4  6  1       21 0.562817352885D-04 0.100000000000D+01
0.727208507387D-06 0.000000000000D+00 0.000000000000D+00 0.416888553136D-06 0.000000000000D+00  6 -3 -4 25 23 -4 -3 4 0.43417391D-01 0.23029715D-01 0.31227262D+05 0.31227262D+05 0.31227262D+05 0.12130751D+01  1  2 12  4  6  1       21 0.298120505817D-04 0.100000000000D+01
0.727952825283D-06 0.000000000000D+00 0.000000000000D+00 0.416888553136D-06 0.000000000000D+00  6 -1 -4 25 23 -4 -1 4 0.45206543D-01 0.23029715D-01 0.31227262D+05 0.31227262D+05 0.31227262D+05 0.12130751D+01  1  2 12  4  6  1       21 0.523981230457D-04 0.100000000000D+01
0.727952825283D-06 0.000000000000D+00 0.000000000000D+00 0.416888553136D-06 0.000000000000D+00  6 -3 -4 25 23 -4 -3 4 0.45206543D-01 0.23029715D-01 0.31227262D+05 0.31227262D+05 0.31227262D+05 0.12130751D+01  1  2 12  4  6  1       21 0.275625237217D-04 0.100000000000D+01
-.248453885706D-05 0.000000000000D+00 -.908124168135D-07 0.417907287745D-06 0.000000000000D+00  6 -1 -4 25 23 -4 -1 4 0.43425622D-01 0.23029715D-01 0.30226051D+05 0.30226051D+05 0.30226051D+05 0.12145564D+01  1  2  5  4  6  1       21 -.192895520389D-03 0.100000000000D+01
-.248453885706D-05 0.000000000000D+00 -.908124168135D-07 0.417907287745D-06 0.000000000000D+00  6 -3 -4 25 23 -4 -3 4 0.43425622D-01 0.23029715D-01 0.30226051D+05 0.30226051D+05 0.30226051D+05 0.12145564D+01  1  2  5  4  6  1       21 -.102095492204D-03 0.100000000000D+01
0.772714531655D-06 0.000000000000D+00 0.000000000000D+00 0.417907287745D-06 0.576952049252D-08  6 -1 -4 25 23 -4 -1 4 0.43379968D-01 0.23076579D-01 0.31227262D+05 0.31227262D+05 0.31227262D+05 0.12130751D+01  1  2 11  4  6  1       21 0.596725723406D-04 0.100000000000D+01
0.772714531655D-06 0.000000000000D+00 0.000000000000D+00 0.417907287745D-06 0.576952049252D-08  6 -3 -4 25 23 -4 -3 4 0.43379968D-01 0.23076579D-01 0.31227262D+05 0.31227262D+05 0.31227262D+05 0.12130751D+01  1  2 11  4  6  1       21 0.316128554488D-04 0.100000000000D+01
0.727208507387D-06 0.000000000000D+00 0.000000000000D+00 0.416888553136D-06 0.000000000000D+00  6 1 -4 25 23 1 -4 4 0.43417391D-01 0.23029715D-01 0.31227262D+05 0.31227262D+05 0.31227262D+05 0.12130751D+01  3  4 12  5  5  1       21 0.118498529516D-03 0.100000000000D+01
0.727208507387D-06 0.000000000000D+00 0.000000000000D+00 0.416888553136D-06 0.000000000000D+00  6 3 -4 25 23 3 -4 4 0.43417391D-01 0.23029715D-01 0.31227262D+05 0.31227262D+05 0.31227262D+05 0.12130751D+01  3  4 12  5  5  1       21 0.298201738303D-04 0.100000000000D+01
0.727952825283D-06 0.000000000000D+00 0.000000000000D+00 0.416888553136D-06 0.000000000000D+00  6 1 -4 25 23 1 -4 4 0.45206543D-01 0.23029715D-01 0.31227262D+05 0.31227262D+05 0.31227262D+05 0.12130751D+01  3  4 12  5  5  1       21 0.112795572593D-03 0.100000000000D+01
0.727952825283D-06 0.000000000000D+00 0.000000000000D+00 0.416888553136D-06 0.000000000000D+00  6 3 -4 25 23 3 -4 4 0.45206543D-01 0.23029715D-01 0.31227262D+05 0.31227262D+05 0.31227262D+05 0.12130751D+01  3  4 12  5  5  1       21 0.275711097496D-04 0.100000000000D+01
-.248453885706D-05 0.000000000000D+00 -.908124168135D-07 0.417907287745D-06 0.000000000000D+00  6 1 -4 25 23 1 -4 4 0.43425622D-01 0.23029715D-01 0.30226051D+05 0.30226051D+05 0.30226051D+05 0.12145564D+01  3  4  5  5  5  1       21 -.406158331808D-03 0.100000000000D+01
-.248453885706D-05 0.000000000000D+00 -.908124168135D-07 0.417907287745D-06 0.000000000000D+00  6 3 -4 25 23 3 -4 4 0.43425622D-01 0.23029715D-01 0.30226051D+05 0.30226051D+05 0.30226051D+05 0.12145564D+01  3  4  5  5  5  1       21 -.102123265699D-03 0.100000000000D+01
0.750748716966D-06 0.000000000000D+00 0.000000000000D+00 0.417907287745D-06 0.560551138851D-08  6 1 -4 25 23 1 -4 4 0.43379968D-01 0.23076579D-01 0.31227262D+05 0.31227262D+05 0.31227262D+05 0.12130751D+01  3  4 11  5  5  1       21 0.122009138735D-03 0.100000000000D+01
0.750748716966D-06 0.000000000000D+00 0.000000000000D+00 0.417907287745D-06 0.560551138851D-08  6 3 -4 25 23 3 -4 4 0.43379968D-01 0.23076579D-01 0.31227262D+05 0.31227262D+05 0.31227262D+05 0.12130751D+01  3  4 11  5  5  1       21 0.307225470145D-04 0.100000000000D+01
0.727208507387D-06 0.000000000000D+00 0.000000000000D+00 0.416888553136D-06 0.000000000000D+00  6 -4 -4 25 23 -4 -4 4 0.43417391D-01 0.23029715D-01 0.31227262D+05 0.31227262D+05 0.31227262D+05 0.12130751D+01  1  2 12  6  6  1       21 0.247524799267D-04 0.100000000000D+01
0.727952825283D-06 0.000000000000D+00 0.000000000000D+00 0.416888553136D-06 0.000000000000D+00  6 -4 -4 25 23 -4 -4 4 0.45206543D-01 0.23029715D-01 0.31227262D+05 0.31227262D+05 0.31227262D+05 0.12130751D+01  1  2 12  6  6  1       21 0.228466596583D-04 0.100000000000D+01
-.248453885706D-05 0.000000000000D+00 -.908124168135D-07 0.417907287745D-06 0.000000000000D+00  6 -4 -4 25 23 -4 -4 4 0.43425622D-01 0.23029715D-01 0.30226051D+05 0.30226051D+05 0.30226051D+05 0.12145564D+01  1  2  5  6  6  1       21 -.847388904424D-04 0.100000000000D+01
0.825531813596D-06 0.000000000000D+00 0.000000000000D+00 0.417907287745D-06 0.316709468833D-08  6 -4 -4 25 23 -4 -4 4 0.43379968D-01 0.23076579D-01 0.31227262D+05 0.31227262D+05 0.31227262D+05 0.12130751D+01  1  2 11  6  6  1       21 0.280427605687D-04 0.100000000000D+01
0.727208507387D-06 0.000000000000D+00 0.000000000000D+00 0.416888553136D-06 0.000000000000D+00  6 4 -4 25 23 4 -4 4 0.43417391D-01 0.23029715D-01 0.31227262D+05 0.31227262D+05 0.31227262D+05 0.12130751D+01  3  4 12  7  5  1       21 0.247524799267D-04 0.100000000000D+01
0.727952825283D-06 0.000000000000D+00 0.000000000000D+00 0.416888553136D-06 0.000000000000D+00  6 4 -4 25 23 4 -4 4 0.45206543D-01 0.23029715D-01 0.31227262D+05 0.31227262D+05 0.31227262D+05 0.12130751D+01  3  4 12  7  5  1       21 0.228466596583D-04 0.100000000000D+01
-.248453885706D-05 0.000000000000D+00 -.908124168135D-07 0.417907287745D-06 0.000000000000D+00  6 4 -4 25 23 4 -4 4 0.43425622D-01 0.23029715D-01 0.30226051D+05 0.30226051D+05 0.30226051D+05 0.12145564D+01  3  4  5  7  5  1       21 -.847388904424D-04 0.100000000000D+01
0.301919375519D-05 0.000000000000D+00 0.000000000000D+00 0.417907287745D-06 0.308747188233D-07  6 4 -4 25 23 4 -4 4 0.43379968D-01 0.23076579D-01 0.31227262D+05 0.31227262D+05 0.31227262D+05 0.12130751D+01  3  4 11  7  5  1       21 0.102559981569D-03 0.100000000000D+01
0.727208507387D-06 0.000000000000D+00 0.000000000000D+00 0.416888553136D-06 0.000000000000D+00  6 -2 -4 25 23 -4 -2 4 0.43417391D-01 0.23029715D-01 0.31227262D+05 0.31227262D+05 0.31227262D+05 0.12130751D+01  1  2 12  8  6  1       21 0.470871322222D-04 0.100000000000D+01
0.727952825283D-06 0.000000000000D+00 0.000000000000D+00 0.416888553136D-06 0.000000000000D+00  6 -2 -4 25 23 -4 -2 4 0.45206543D-01 0.23029715D-01 0.31227262D+05 0.31227262D+05 0.31227262D+05 0.12130751D+01  1  2 12  8  6  1       21 0.435837401607D-04 0.100000000000D+01
-.248453885706D-05 0.000000000000D+00 -.908124168135D-07 0.417907287745D-06 0.000000000000D+00  6 -2 -4 25 23 -4 -2 4 0.43425622D-01 0.23029715D-01 0.30226051D+05 0.30226051D+05 0.30226051D+05 0.12145564D+01  1  2  5  8  6  1       21 -.161365123516D-03 0.100000000000D+01
0.828692858262D-06 0.000000000000D+00 0.000000000000D+00 0.417907287745D-06 0.618748610500D-08  6 -2 -4 25 23 -4 -2 4 0.43379968D-01 0.23076579D-01 0.31227262D+05 0.31227262D+05 0.31227262D+05 0.12130751D+01  1  2 11  8  6  1       21 0.535472936315D-04 0.100000000000D+01
0.727208507387D-06 0.000000000000D+00 0.000000000000D+00 0.416888553136D-06 0.000000000000D+00  6 2 -4 25 23 2 -4 4 0.43417391D-01 0.23029715D-01 0.31227262D+05 0.31227262D+05 0.31227262D+05 0.12130751D+01  3  4 12  9  5  1       21 0.165858874306D-03 0.100000000000D+01
0.727952825283D-06 0.000000000000D+00 0.000000000000D+00 0.416888553136D-06 0.000000000000D+00  6 2 -4 25 23 2 -4 4 0.45206543D-01 0.23029715D-01 0.31227262D+05 0.31227262D+05 0.31227262D+05 0.12130751D+01  3  4 12  9  5  1       21 0.159016317584D-03 0.100000000000D+01
-.248453885706D-05 0.000000000000D+00 -.908124168135D-07 0.417907287745D-06 0.000000000000D+00  6 2 -4 25 23 2 -4 4 0.43425622D-01 0.23029715D-01 0.30226051D+05 0.30226051D+05 0.30226051D+05 0.12145564D+01  3  4  5  9  5  1       21 -.568452802597D-03 0.100000000000D+01
0.841408473776D-06 0.000000000000D+00 0.000000000000D+00 0.417907287745D-06 0.628242802892D-08  6 2 -4 25 23 2 -4 4 0.43379968D-01 0.23076579D-01 0.31227262D+05 0.31227262D+05 0.31227262D+05 0.12130751D+01  3  4 11  9  5  1       21 0.191365653308D-03 0.100000000000D+01
  </mgrwgt>
  </event>
  <event>
  5     66 0.32447353E-03 0.61304797E+02 0.75467711E-02 0.11278816E+00
       21 -1    0    0  501  502 0.00000000E+00 0.00000000E+00 0.32300832E+03 0.32300919E+03 0.75000000E+00 0.0000E+00 0.9000E+01
       -2 -1    0    0    0  501 0.00000000E+00 0.00000000E+00 -.32463557E+03 0.32463573E+03 0.32000000E+00 0.0000E+00 0.9000E+01
       25  1    1    2    0    0 -.35556600E+02 0.12524844E+03 -.23174683E+03 0.29373975E+03 0.12500000E+03 0.0000E+00 0.9000E+01
       23  1    1    2    0    0 -.24643671E+02 -.11366401E+03 0.38507719E+02 0.15272496E+03 0.91188000E+02 0.0000E+00 0.9000E+01
       -2  1    1    2    0  502 0.60200272E+02 -.11584428E+02 0.19161186E+03 0.20118022E+03 0.32000000E+00 0.0000E+00 0.9000E+01
#aMCatNLO 1  0  0  1  1 0.73760992D+02 0.00000000D+00  -5  6  0 0.00000000D+00 0.00000000D+00 0.00000000D+00 0.00000000D+00 0.00000000D+00
  <mgrwgt>
 0.1774580191D-01   14    4    0
 0.323821438953167D+03 0.000000000000000D+00 0.000000000000000D+00 0.323821438953167D+03
 0.323821438953167D+03 0.000000000000000D+00 0.000000000000000D+00 -.323821438953167D+03
 0.293158484041673D+03 -.355566344091327D+02 0.125248444705694D+03 -.231009630998173D+03
 0.152822181740435D+03 -.246436893149714D+02 -.113664006382793D+03 0.388915172996151D+02
 0.201662212124225D+03 0.602003237241042D+02 -.115844383229011D+02 0.192118113698558D+03
 0.000000000000000D+00 0.000000000000000D+00 -.000000000000000D+00 0.000000000000000D+00
 0.402226517304657D+03 0.000000000000000D+00 0.000000000000000D+00 0.402226517304657D+03
 0.343738754123419D+03 0.000000000000000D+00 0.000000000000000D+00 -.343738754123419D+03
 0.302961388060274D+03 -.680205815628185D+02 0.134790034963094D+03 -.231009630998173D+03
 0.152852532157413D+03 -.412903542268580D+02 -.108771327898888D+03 0.388915172996151D+02
 0.196015797790426D+03 0.385432736872883D+02 -.521914033072981D+01 0.192118113698558D+03
 0.941355534199628D+02 0.707676621023882D+02 -.207995667334762D+02 0.584877631812378D+02
 0.323821438953167D+03 0.000000000000000D+00 0.000000000000000D+00 0.323821438953167D+03
 0.323821438953167D+03 0.000000000000000D+00 0.000000000000000D+00 -.323821438953167D+03
 0.293158484041673D+03 -.355566344091327D+02 0.125248444705694D+03 -.231009630998173D+03
 0.152822181740435D+03 -.246436893149714D+02 -.113664006382793D+03 0.388915172996151D+02
 0.000000000000000D+00 0.000000000000000D+00 -.000000000000000D+00 0.000000000000000D+00
 0.201662212124225D+03 0.602003237241042D+02 -.115844383229011D+02 0.192118113698558D+03
 0.402226517304657D+03 0.000000000000000D+00 0.000000000000000D+00 0.402226517304657D+03
 0.343738754123419D+03 0.000000000000000D+00 0.000000000000000D+00 -.343738754123419D+03
 0.302961388060274D+03 -.680205815628185D+02 0.134790034963094D+03 -.231009630998173D+03
 0.152852532157413D+03 -.412903542268580D+02 -.108771327898888D+03 0.388915172996151D+02
 0.941355534199628D+02 0.707676621023882D+02 -.207995667334762D+02 0.584877631812378D+02
 0.196015797790426D+03 0.385432736872883D+02 -.521914033072981D+01 0.192118113698558D+03
0.282149559937D-04 0.000000000000D+00 0.000000000000D+00 0.267328682015D-06 0.000000000000D+00  6 21 -2 25 23 -2 21 2 0.49693667D-01 0.49944014D-01 0.37944096D+05 0.37944096D+05 0.37944096D+05 0.12043343D+01  1  2  2  1  6  1       21 0.492759134644D-02 0.100000000000D+01
0.232090450279D-05 0.148894413422D-05 -.569578670622D-07 0.267328682015D-06 0.000000000000D+00  6 21 -2 25 23 -2 21 4 0.49693667D-01 0.49944014D-01 0.37944096D+05 0.37944096D+05 0.37944096D+05 0.12043343D+01  1  2  3  1  6  1       21 0.587904396519D-03 0.100000000000D+01
0.302761035727D-05 0.000000000000D+00 0.000000000000D+00 0.267328682015D-06 0.000000000000D+00  6 21 -2 25 23 -2 21 4 0.49693667D-01 0.49944014D-01 0.37944096D+05 0.37944096D+05 0.37944096D+05 0.12043343D+01  1  2 15  1  6  1       21 0.766918861954D-03 0.100000000000D+01
-.750698959743D-05 0.000000000000D+00 0.000000000000D+00 0.267328682015D-06 0.000000000000D+00  6 21 -2 25 23 -2 21 4 0.49693667D-01 0.49944014D-01 0.37944096D+05 0.37944096D+05 0.37944096D+05 0.12043343D+01  1  2  4  1  6  1       21 -.190158284567D-02 0.100000000000D+01
-.136763592972D-03 0.000000000000D+00 -.435920531363D-04 0.267328682015D-06 0.000000000000D+00  6 21 -2 25 23 -2 21 4 0.64671925D-01 0.49944014D-01 0.37944096D+05 0.37944096D+05 0.37944096D+05 0.12043343D+01  1  2  5  1  6  1       21 -.197766034127D-01 0.100000000000D+01
0.135032779833D-03 0.000000000000D+00 0.380886486666D-04 0.267328682015D-06 0.000000000000D+00  6 21 -2 25 23 -2 21 4 0.49693667D-01 0.49944014D-01 0.37944096D+05 0.37944096D+05 0.37944096D+05 0.12043343D+01  1  2  6  1  6  1       21 0.342049252101D-01 0.100000000000D+01
-.672205023309D-05 0.000000000000D+00 -.349824663341D-05 0.267328682015D-06 0.000000000000D+00  6 -1 -2 25 23 -2 -1 4 0.64671925D-01 0.49944014D-01 0.37944096D+05 0.37944096D+05 0.37944096D+05 0.12043343D+01  1  2  5  4  6  1       21 -.103028358407D-03 0.100000000000D+01
-.672205023309D-05 0.000000000000D+00 -.349824663341D-05 0.267328682015D-06 0.000000000000D+00  6 -3 -2 25 23 -2 -3 4 0.64671925D-01 0.49944014D-01 0.37944096D+05 0.37944096D+05 0.37944096D+05 0.12043343D+01  1  2  5  4  6  1       21 -.513212131239D-04 0.100000000000D+01
-.672205023309D-05 0.000000000000D+00 -.349824663341D-05 0.267328682015D-06 0.000000000000D+00  6 1 -2 25 23 1 -2 4 0.64671925D-01 0.49944014D-01 0.37944096D+05 0.37944096D+05 0.37944096D+05 0.12043343D+01  3  4  5  5  5  1       21 -.276017810448D-03 0.100000000000D+01
-.672205023309D-05 0.000000000000D+00 -.349824663341D-05 0.267328682015D-06 0.000000000000D+00  6 3 -2 25 23 3 -2 4 0.64671925D-01 0.49944014D-01 0.37944096D+05 0.37944096D+05 0.37944096D+05 0.12043343D+01  3  4  5  5  5  1       21 -.513630082006D-04 0.100000000000D+01
-.672205023309D-05 0.000000000000D+00 -.349824663341D-05 0.267328682015D-06 0.000000000000D+00  6 -2 -2 25 23 -2 -2 4 0.64671925D-01 0.49944014D-01 0.37944096D+05 0.37944096D+05 0.37944096D+05 0.12043343D+01  1  2  5  6  6  1       21 -.812563043796D-04 0.100000000000D+01
-.672205023309D-05 0.000000000000D+00 -.349824663341D-05 0.267328682015D-06 0.000000000000D+00  6 2 -2 25 23 2 -2 4 0.64671925D-01 0.49944014D-01 0.37944096D+05 0.37944096D+05 0.37944096D+05 0.12043343D+01  3  4  5  7  5  1       21 -.416359442084D-03 0.100000000000D+01
-.672205023309D-05 0.000000000000D+00 -.349824663341D-05 0.267328682015D-06 0.000000000000D+00  6 -4 -2 25 23 -2 -4 4 0.64671925D-01 0.49944014D-01 0.37944096D+05 0.37944096D+05 0.37944096D+05 0.12043343D+01  1  2  5  8  6  1       21 -.420027565255D-04 0.100000000000D+01
-.672205023309D-05 0.000000000000D+00 -.349824663341D-05 0.267328682015D-06 0.000000000000D+00  6 4 -2 25 23 4 -2 4 0.64671925D-01 0.49944014D-01 0.37944096D+05 0.37944096D+05 0.37944096D+05 0.12043343D+01  3  4  5  9  5  1       21 -.420027565255D-04 0.100000000000D+01
  </mgrwgt>
  </event>
  <event>
  5     66 -.32447353E-03 0.40509790E+02 0.75467711E-02 0.12246480E+00
       21 -1    0    0  501  502 0.00000000E+00 0.00000000E+00 0.89900152E+02 0.89903280E+02 0.75000000E+00 0.0000E+00 0.9000E+01
       -2 -1    0    0    0  501 -.00000000E+00 -.00000000E+00 -.23151163E+03 0.23151185E+03 0.32000000E+00 0.0000E+00 0.9000E+01
       25  1    1    2    0    0 0.58415890E+01 -.38344383E+01 -.21824694E+01 0.12521418E+03 0.12500000E+03 0.0000E+00 0.9000E+01
       23  1    1    2    0    0 0.13098270E+02 -.31974119E+02 -.97300992E+02 0.13775574E+03 0.91188000E+02 0.0000E+00 0.9000E+01
       -2  1    1    2    0  502 -.18939859E+02 0.35808557E+02 -.42128017E+02 0.58445215E+02 0.32000000E+00 0.0000E+00 0.9000E+01
#aMCatNLO 1  0  0  5  1 0.77608200D+01 0.00000000D+00  -5  6  0 0.00000000D+00 0.00000000D+00 0.00000000D+00 0.00000000D+00 0.00000000D+00
  <mgrwgt>
 -.1052254629D-01    8    2    0
 0.144268738559529D+03 0.000000000000000D+00 0.000000000000000D+00 0.144268738559529D+03
 0.144268738559529D+03 -.000000000000000D+00 -.000000000000000D+00 -.144268738559529D+03
 0.138410799572137D+03 0.584182466790715D+01 -.383488384331876D+01 0.590230140593992D+02
 0.105698082690004D+03 0.130984500264352D+02 -.319744591200032D+02 -.407786452844029D+02
 0.444285948569165D+02 -.189402746943424D+02 0.358093429633220D+02 -.182443687749964D+02
 0.000000000000000D+00 0.000000000000000D+00 0.000000000000000D+00 -.000000000000000D+00
 0.144268738559529D+03 0.000000000000000D+00 0.000000000000000D+00 0.144268738559529D+03
 0.144268738559529D+03 -.000000000000000D+00 -.000000000000000D+00 -.144268738559529D+03
 0.138067140137867D+03 0.514344970111349D+01 -.251450443454584D+01 0.583502988721577D+02
 0.105532366301604D+03 0.125648882603317D+02 -.309656830286922D+02 -.412926028579928D+02
 0.312903591875910D+02 -.626977484858846D+01 0.283505108224563D+02 -.116629772160566D+02
 0.136476114919957D+02 -.114385631128568D+02 0.512967664078174D+01 -.539471879810833D+01
0.231173353121D-05 0.000000000000D+00 0.000000000000D+00 0.171393186147D-06 0.000000000000D+00  6 21 -2 25 23 -2 21 2 0.13831050D-01 0.35617431D-01 0.17321196D+05 0.17321196D+05 0.17321196D+05 0.12407613D+01  1  2  2  3  6  5       -2 0.961785788666D-02 0.100000000000D+01
-.135071357818D-06 0.121993530025D-06 -.466672395955D-08 0.171393186147D-06 0.000000000000D+00  6 21 -2 25 23 -2 21 4 0.13831050D-01 0.35617431D-01 0.17321196D+05 0.17321196D+05 0.17321196D+05 0.12407613D+01  1  2  3  3  6  5       -2 -.865127923533D-03 0.100000000000D+01
0.310657228024D-06 0.000000000000D+00 0.000000000000D+00 0.171393186147D-06 0.000000000000D+00  6 21 -2 25 23 -2 21 4 0.13831050D-01 0.35617431D-01 0.17321196D+05 0.17321196D+05 0.17321196D+05 0.12407613D+01  1  2 15  3  6  5       -2 0.198975006213D-02 0.100000000000D+01
0.351364867233D-05 0.000000000000D+00 0.000000000000D+00 0.171331889185D-06 0.000000000000D+00  6 21 -2 25 23 -2 21 4 0.13831050D-01 0.35617431D-01 0.17400403D+05 0.17400403D+05 0.17400403D+05 0.12405394D+01  1  2 12  3  6  5       -2 0.224901273301D-01 0.100000000000D+01
-.860401146318D-05 0.000000000000D+00 0.000000000000D+00 0.171393186147D-06 0.000000000000D+00  6 21 -2 25 23 -2 21 4 0.13831050D-01 0.35617431D-01 0.17321196D+05 0.17321196D+05 0.17321196D+05 0.12407613D+01  1  2  4  3  6  5       -2 -.551084307690D-01 0.100000000000D+01
-.310482139053D-05 0.000000000000D+00 0.000000000000D+00 0.171393186147D-06 0.000000000000D+00  6 21 -2 25 23 -2 21 4 0.13831050D-01 0.35617431D-01 0.17321196D+05 0.17321196D+05 0.17321196D+05 0.12407613D+01  1  2  5  3  6  5       -2 -.198862862261D-01 0.100000000000D+01
0.482034248728D-05 0.000000000000D+00 -.000000000000D+00 0.171393186147D-06 0.000000000000D+00  6 21 -2 25 23 -2 21 4 0.13831050D-01 0.35617431D-01 0.17321196D+05 0.17321196D+05 0.17321196D+05 0.12407613D+01  1  2  6  3  6  5       -2 0.308741464815D-01 0.100000000000D+01
0.570893379497D-07 0.000000000000D+00 0.000000000000D+00 0.171393186147D-06 0.246360526768D-07  6 21 -2 25 23 -2 21 4 0.13831050D-01 0.35617431D-01 0.17400403D+05 0.17400403D+05 0.17400403D+05 0.12405394D+01  1  2 11  3  6  5       -2 0.365416864181D-03 0.100000000000D+01
  </mgrwgt>
  </event>
  <event>
  5     66 0.32447353E-03 0.22974811E+02 0.75467711E-02 0.12155794E+00
       21 -1    0    0  501  502 0.00000000E+00 0.00000000E+00 0.75489191E+03 0.75489229E+03 0.75000000E+00 0.0000E+00 0.9000E+01
       -4 -1    0    0    0  501 0.00000000E+00 0.00000000E+00 -.24844935E+02 0.24893238E+02 0.15500000E+01 0.0000E+00 0.9000E+01
       25  1    1    2    0    0 -.45381808E+02 -.31125757E+02 0.33530360E+03 0.36205224E+03 0.12500000E+03 0.0000E+00 0.9000E+01
       23  1    1    2    0    0 0.40694540E+02 0.53571197E+02 0.31596270E+03 0.33566889E+03 0.91188000E+02 0.0000E+00 0.9000E+01
       -4  1    1    2    0  502 0.46872672E+01 -.22445440E+02 0.78780674E+02 0.82064398E+02 0.15500000E+01 0.0000E+00 0.9000E+01
#aMCatNLO 1  0  0  1  2 0.37799635D+01 0.00000000D+00  -5  6  0 0.00000000D+00 0.00000000D+00 0.00000000D+00 0.00000000D+00 0.00000000D+00
  <mgrwgt>
 0.1105058375D-01   41    4    0
 0.137019043665895D+03 0.000000000000000D+00 0.000000000000000D+00 0.137019043665895D+03
 0.137019043665895D+03 0.000000000000000D+00 0.000000000000000D+00 -.137019043665895D+03
 0.136969260657122D+03 -.453868590910206D+02 -.311015681175499D+02 -.104069134444252D+02
 0.113430378973403D+03 0.406903573237046D+02 0.535912285673096D+02 0.484505640476973D+01
 0.236384477012653D+02 0.469650176731606D+01 -.224896604497597D+02 0.556185703965552D+01
 0.000000000000000D+00 -.000000000000000D+00 -.000000000000000D+00 0.000000000000000D+00
 0.143641484704892D+03 0.000000000000000D+00 0.000000000000000D+00 0.143641484704892D+03
 0.137572524378077D+03 0.000000000000000D+00 0.000000000000000D+00 -.137572524378077D+03
 0.136336594839543D+03 -.435041395271900D+02 -.310121442180455D+02 -.104069134444252D+02
 0.114036873563249D+03 0.422573089197591D+02 0.536656543738641D+02 0.484505640476973D+01
 0.236906872845150D+02 0.502253754951684D+01 -.224741746644189D+02 0.556185703965552D+01
 0.714985339566101D+01 -.377570694208603D+01 -.179335491399606D+00 0.606896032681489D+01
 0.137019043665895D+03 0.000000000000000D+00 0.000000000000000D+00 0.137019043665895D+03
 0.137019043665895D+03 0.000000000000000D+00 0.000000000000000D+00 -.137019043665895D+03
 0.136969260657122D+03 -.453868590910206D+02 -.311015681175499D+02 -.104069134444252D+02
 0.113430378973403D+03 0.406903573237046D+02 0.535912285673096D+02 0.484505640476973D+01
 0.000000000000000D+00 -.000000000000000D+00 -.000000000000000D+00 0.000000000000000D+00
 0.236384477012653D+02 0.469650176731606D+01 -.224896604497597D+02 0.556185703965552D+01
 0.143641484704892D+03 0.000000000000000D+00 0.000000000000000D+00 0.143641484704892D+03
 0.137572524378077D+03 0.000000000000000D+00 0.000000000000000D+00 -.137572524378077D+03
 0.136336594839543D+03 -.435041395271900D+02 -.310121442180455D+02 -.104069134444252D+02
 0.114036873563249D+03 0.422573089197591D+02 0.536656543738641D+02 0.484505640476973D+01
 0.714985339566101D+01 -.377570694208603D+01 -.179335491399606D+00 0.606896032681489D+01
 0.236906872845150D+02 0.502253754951684D+01 -.224741746644189D+02 0.556185703965552D+01
0.845981554000D-06 0.000000000000D+00 0.000000000000D+00 0.491497050500D-06 0.000000000000D+00  6 21 -4 25 23 -4 21 2 0.11614096D+00 0.38260420D-02 0.18615191D+05 0.18615191D+05 0.18615191D+05 0.12372716D+01  1  2  2  1  6  1       21 0.112950143024D-02 0.100000000000D+01
0.493630422015D-07 0.446436731202D-07 -.170779301944D-08 0.491497050500D-06 0.000000000000D+00  6 21 -4 25 23 -4 21 4 0.11614096D+00 0.38260420D-02 0.18615191D+05 0.18615191D+05 0.18615191D+05 0.12372716D+01  1  2  3  1  6  1       21 0.100892268573D-03 0.100000000000D+01
0.987821292395D-07 0.000000000000D+00 0.000000000000D+00 0.491497050500D-06 0.000000000000D+00  6 21 -4 25 23 -4 21 4 0.11614096D+00 0.38260420D-02 0.18615191D+05 0.18615191D+05 0.18615191D+05 0.12372716D+01  1  2 15  1  6  1       21 0.201899086218D-03 0.100000000000D+01
0.608037075323D-06 0.000000000000D+00 0.000000000000D+00 0.490437890341D-06 0.000000000000D+00  6 21 -4 25 23 -4 21 4 0.12198238D+00 0.38260420D-02 0.19138128D+05 0.19138128D+05 0.19138128D+05 0.12359377D+01  1  2 12  1  6  1       21 0.109856000488D-02 0.100000000000D+01
0.381227890136D-06 0.000000000000D+00 0.000000000000D+00 0.490437890341D-06 0.000000000000D+00  6 21 -4 25 23 -4 21 4 0.12528011D+00 0.38260420D-02 0.19138128D+05 0.19138128D+05 0.19138128D+05 0.12359377D+01  1  2 12  1  6  1       21 0.644896732346D-03 0.100000000000D+01
-.146610380014D-04 0.000000000000D+00 0.000000000000D+00 0.491497050500D-06 0.000000000000D+00  6 21 -4 25 23 -4 21 4 0.11614096D+00 0.38260420D-02 0.18615191D+05 0.18615191D+05 0.18615191D+05 0.12372716D+01  1  2  4  1  6  1       21 -.299654421126D-01 0.100000000000D+01
-.600827299534D-04 0.000000000000D+00 -.514415137494D-05 0.491497050500D-06 0.000000000000D+00  6 21 -4 25 23 -4 21 4 0.12200377D+00 0.38260420D-02 0.18615191D+05 0.18615191D+05 0.18615191D+05 0.12372716D+01  1  2  5  1  6  1       21 -.108903352416D+00 0.100000000000D+01
0.600266983339D-04 0.000000000000D+00 0.511928462812D-05 0.491497050500D-06 0.000000000000D+00  6 21 -4 25 23 -4 21 4 0.11614096D+00 0.38260420D-02 0.18615191D+05 0.18615191D+05 0.18615191D+05 0.12372716D+01  1  2  6  1  6  1       21 0.122687530990D+00 0.100000000000D+01
0.137722441220D-04 0.000000000000D+00 0.000000000000D+00 0.491497050500D-06 0.551550565332D-06  6 21 -4 25 23 -4 21 4 0.12175432D+00 0.38414971D-02 0.19138128D+05 0.19138128D+05 0.19138128D+05 0.12359377D+01  1  2 11  1  6  1       21 0.248383246989D-01 0.100000000000D+01
0.142729003467D-07 0.000000000000D+00 0.000000000000D+00 0.490437890341D-06 0.000000000000D+00  6 -1 -4 25 23 -4 -1 4 0.12198238D+00 0.38260420D-02 0.19138128D+05 0.19138128D+05 0.19138128D+05 0.12359377D+01  1  2 12  4  6  1       21 0.298512459615D-05 0.100000000000D+01
0.142729003467D-07 0.000000000000D+00 0.000000000000D+00 0.490437890341D-06 0.000000000000D+00  6 -3 -4 25 23 -4 -3 4 0.12198238D+00 0.38260420D-02 0.19138128D+05 0.19138128D+05 0.19138128D+05 0.12359377D+01  1  2 12  4  6  1       21 0.137801295348D-05 0.100000000000D+01
0.143273937403D-07 0.000000000000D+00 0.000000000000D+00 0.490437890341D-06 0.000000000000D+00  6 -1 -4 25 23 -4 -1 4 0.12528011D+00 0.38260420D-02 0.19138128D+05 0.19138128D+05 0.19138128D+05 0.12359377D+01  1  2 12  4  6  1       21 0.281203815076D-05 0.100000000000D+01
0.143273937403D-07 0.000000000000D+00 0.000000000000D+00 0.490437890341D-06 0.000000000000D+00  6 -3 -4 25 23 -4 -3 4 0.12528011D+00 0.38260420D-02 0.19138128D+05 0.19138128D+05 0.19138128D+05 0.12359377D+01  1  2 12  4  6  1       21 0.129821318360D-05 0.100000000000D+01
-.659254476441D-06 0.000000000000D+00 -.604653945491D-07 0.491497050500D-06 0.000000000000D+00  6 -1 -4 25 23 -4 -1 4 0.12200377D+00 0.38260420D-02 0.18615191D+05 0.18615191D+05 0.18615191D+05 0.12372716D+01  1  2  5  4  6  1       21 -.138214145476D-03 0.100000000000D+01
-.659254476441D-06 0.000000000000D+00 -.604653945491D-07 0.491497050500D-06 0.000000000000D+00  6 -3 -4 25 23 -4 -3 4 0.12200377D+00 0.38260420D-02 0.18615191D+05 0.18615191D+05 0.18615191D+05 0.12372716D+01  1  2  5  4  6  1       21 -.637588025623D-04 0.100000000000D+01
0.338377698114D-06 0.000000000000D+00 0.000000000000D+00 0.491497050500D-06 0.654346116685D-08  6 -1 -4 25 23 -4 -1 4 0.12175432D+00 0.38414971D-02 0.19138128D+05 0.19138128D+05 0.19138128D+05 0.12359377D+01  1  2 11  4  6  1       21 0.706320442743D-04 0.100000000000D+01
0.338377698114D-06 0.000000000000D+00 0.000000000000D+00 0.491497050500D-06 0.654346116685D-08  6 -3 -4 25 23 -4 -3 4 0.12175432D+00 0.38414971D-02 0.19138128D+05 0.19138128D+05 0.19138128D+05 0.12359377D+01  1  2 11  4  6  1       21 0.326058476827D-04 0.100000000000D+01
0.142729003467D-07 0.000000000000D+00 0.000000000000D+00 0.490437890341D-06 0.000000000000D+00  6 1 -4 25 23 1 -4 4 0.12198238D+00 0.38260420D-02 0.19138128D+05 0.19138128D+05 0.19138128D+05 0.12359377D+01  3  4 12  5  5  1       21 0.129820852332D-04 0.100000000000D+01
0.142729003467D-07 0.000000000000D+00 0.000000000000D+00 0.490437890341D-06 0.000000000000D+00  6 3 -4 25 23 3 -4 4 0.12198238D+00 0.38260420D-02 0.19138128D+05 0.19138128D+05 0.19138128D+05 0.12359377D+01  3  4 12  5  5  1       21 0.138183678989D-05 0.100000000000D+01
0.143273937403D-07 0.000000000000D+00 0.000000000000D+00 0.490437890341D-06 0.000000000000D+00  6 1 -4 25 23 1 -4 4 0.12528011D+00 0.38260420D-02 0.19138128D+05 0.19138128D+05 0.19138128D+05 0.12359377D+01  3  4 12  5  5  1       21 0.125168552446D-04 0.100000000000D+01
0.143273937403D-07 0.000000000000D+00 0.000000000000D+00 0.490437890341D-06 0.000000000000D+00  6 3 -4 25 23 3 -4 4 0.12528011D+00 0.38260420D-02 0.19138128D+05 0.19138128D+05 0.19138128D+05 0.12359377D+01  3  4 12  5  5  1       21 0.130198161545D-05 0.100000000000D+01
-.659254476441D-06 0.000000000000D+00 -.604653945491D-07 0.491497050500D-06 0.000000000000D+00  6 1 -4 25 23 1 -4 4 0.12200377D+00 0.38260420D-02 0.18615191D+05 0.18615191D+05 0.18615191D+05 0.12372716D+01  3  4  5  5  5  1       21 -.601134461079D-03 0.100000000000D+01
-.659254476441D-06 0.000000000000D+00 -.604653945491D-07 0.491497050500D-06 0.000000000000D+00  6 3 -4 25 23 3 -4 4 0.12200377D+00 0.38260420D-02 0.18615191D+05 0.18615191D+05 0.18615191D+05 0.12372716D+01  3  4  5  5  5  1       21 -.639357644032D-04 0.100000000000D+01
0.332548832898D-06 0.000000000000D+00 0.000000000000D+00 0.491497050500D-06 0.643074406580D-08  6 1 -4 25 23 1 -4 4 0.12175432D+00 0.38414971D-02 0.19138128D+05 0.19138128D+05 0.19138128D+05 0.12359377D+01  3  4 11  5  5  1       21 0.301392452815D-03 0.100000000000D+01
0.332548832898D-06 0.000000000000D+00 0.000000000000D+00 0.491497050500D-06 0.643074406580D-08  6 3 -4 25 23 3 -4 4 0.12175432D+00 0.38414971D-02 0.19138128D+05 0.19138128D+05 0.19138128D+05 0.12359377D+01  3  4 11  5  5  1       21 0.321328191006D-04 0.100000000000D+01
0.142729003467D-07 0.000000000000D+00 0.000000000000D+00 0.490437890341D-06 0.000000000000D+00  6 -4 -4 25 23 -4 -4 4 0.12198238D+00 0.38260420D-02 0.19138128D+05 0.19138128D+05 0.19138128D+05 0.12359377D+01  1  2 12  6  6  1       21 0.109075014304D-05 0.100000000000D+01
0.143273937403D-07 0.000000000000D+00 0.000000000000D+00 0.490437890341D-06 0.000000000000D+00  6 -4 -4 25 23 -4 -4 4 0.12528011D+00 0.38260420D-02 0.19138128D+05 0.19138128D+05 0.19138128D+05 0.12359377D+01  1  2 12  6  6  1       21 0.102632361548D-05 0.100000000000D+01
-.659254476441D-06 0.000000000000D+00 -.604653945491D-07 0.491497050500D-06 0.000000000000D+00  6 -4 -4 25 23 -4 -4 4 0.12200377D+00 0.38260420D-02 0.18615191D+05 0.18615191D+05 0.18615191D+05 0.12372716D+01  1  2  5  6  6  1       21 -.504527099211D-04 0.100000000000D+01
0.351032103408D-06 0.000000000000D+00 0.000000000000D+00 0.491497050500D-06 0.352715920995D-08  6 -4 -4 25 23 -4 -4 4 0.12175432D+00 0.38414971D-02 0.19138128D+05 0.19138128D+05 0.19138128D+05 0.12359377D+01  1  2 11  6  6  1       21 0.267762480045D-04 0.100000000000D+01
0.142729003467D-07 0.000000000000D+00 0.000000000000D+00 0.490437890341D-06 0.000000000000D+00  6 4 -4 25 23 4 -4 4 0.12198238D+00 0.38260420D-02 0.19138128D+05 0.19138128D+05 0.19138128D+05 0.12359377D+01  3  4 12  7  5  1       21 0.109075014304D-05 0.100000000000D+01
0.143273937403D-07 0.000000000000D+00 0.000000000000D+00 0.490437890341D-06 0.000000000000D+00  6 4 -4 25 23 4 -4 4 0.12528011D+00 0.38260420D-02 0.19138128D+05 0.19138128D+05 0.19138128D+05 0.12359377D+01  3  4 12  7  5  1       21 0.102632361548D-05 0.100000000000D+01
-.659254476441D-06 0.000000000000D+00 -.604653945491D-07 0.491497050500D-06 0.000000000000D+00  6 4 -4 25 23 4 -4 4 0.12200377D+00 0.38260420D-02 0.18615191D+05 0.18615191D+05 0.18615191D+05 0.12372716D+01  3  4  5  7  5  1       21 -.504527099211D-04 0.100000000000D+01
0.216339851788D-05 0.000000000000D+00 0.000000000000D+00 0.491497050500D-06 0.853141116439D-07  6 4 -4 25 23 4 -4 4 0.12175432D+00 0.38414971D-02 0.19138128D+05 0.19138128D+05 0.19138128D+05 0.12359377D+01  3  4 11  7  5  1       21 0.165021075523D-03 0.100000000000D+01
0.142729003467D-07 0.000000000000D+00 0.000000000000D+00 0.490437890341D-06 0.000000000000D+00  6 -2 -4 25 23 -4 -2 4 0.12198238D+00 0.38260420D-02 0.19138128D+05 0.19138128D+05 0.19138128D+05 0.12359377D+01  1  2 12  8  6  1       21 0.217916148628D-05 0.100000000000D+01
0.143273937403D-07 0.000000000000D+00 0.000000000000D+00 0.490437890341D-06 0.000000000000D+00  6 -2 -4 25 23 -4 -2 4 0.12528011D+00 0.38260420D-02 0.19138128D+05 0.19138128D+05 0.19138128D+05 0.12359377D+01  1  2 12  8  6  1       21 0.205041973196D-05 0.100000000000D+01
-.659254476441D-06 0.000000000000D+00 -.604653945491D-07 0.491497050500D-06 0.000000000000D+00  6 -2 -4 25 23 -4 -2 4 0.12200377D+00 0.38260420D-02 0.18615191D+05 0.18615191D+05 0.18615191D+05 0.12372716D+01  1  2  5  8  6  1       21 -.100875376391D-03 0.100000000000D+01
0.351117659292D-06 0.000000000000D+00 0.000000000000D+00 0.491497050500D-06 0.678982326962D-08  6 -2 -4 25 23 -4 -2 4 0.12175432D+00 0.38414971D-02 0.19138128D+05 0.19138128D+05 0.19138128D+05 0.12359377D+01  1  2 11  8  6  1       21 0.535080974397D-04 0.100000000000D+01
0.142729003467D-07 0.000000000000D+00 0.000000000000D+00 0.490437890341D-06 0.000000000000D+00  6 2 -4 25 23 2 -4 4 0.12198238D+00 0.38260420D-02 0.19138128D+05 0.19138128D+05 0.19138128D+05 0.12359377D+01  3  4 12  9  5  1       21 0.224870382188D-04 0.100000000000D+01
0.143273937403D-07 0.000000000000D+00 0.000000000000D+00 0.490437890341D-06 0.000000000000D+00  6 2 -4 25 23 2 -4 4 0.12528011D+00 0.38260420D-02 0.19138128D+05 0.19138128D+05 0.19138128D+05 0.12359377D+01  3  4 12  9  5  1       21 0.218344445788D-04 0.100000000000D+01
-.659254476441D-06 0.000000000000D+00 -.604653945491D-07 0.491497050500D-06 0.000000000000D+00  6 2 -4 25 23 2 -4 4 0.12200377D+00 0.38260420D-02 0.18615191D+05 0.18615191D+05 0.18615191D+05 0.12372716D+01  3  4  5  9  5  1       21 -.104114802880D-02 0.100000000000D+01
0.354491884652D-06 0.000000000000D+00 0.000000000000D+00 0.491497050500D-06 0.685507317448D-08  6 2 -4 25 23 2 -4 4 0.12175432D+00 0.38414971D-02 0.19138128D+05 0.19138128D+05 0.19138128D+05 0.12359377D+01  3  4 11  9  5  1       21 0.556235126851D-03 0.100000000000D+01
  </mgrwgt>
  </event>
  <event>
  5     66 0.32447353E-03 0.28402139E+02 0.75467711E-02 0.12111664E+00
       21 -1    0    0  501  502 0.00000000E+00 0.00000000E+00 0.19986016E+03 0.19986157E+03 0.75000000E+00 0.0000E+00 0.9000E+01
       -2 -1    0    0    0  501 0.00000000E+00 0.00000000E+00 -.15949867E+03 0.15949899E+03 0.32000000E+00 0.0000E+00 0.9000E+01
       25  1    1    2    0    0 0.56174789E+02 0.52129751E+02 0.67612033E+02 0.16146054E+03 0.12500000E+03 0.0000E+00 0.9000E+01
       23  1    1    2    0    0 -.30149671E+02 -.40756364E+02 -.84324463E+02 0.13414899E+03 0.91188000E+02 0.0000E+00 0.9000E+01
       -2  1    1    2    0  502 -.26025118E+02 -.11373387E+02 0.57073917E+02 0.63751040E+02 0.32000000E+00 0.0000E+00 0.9000E+01
#aMCatNLO 1  0  0  5  1 0.30224514D+01 0.00000000D+00  -5  6  0 0.00000000D+00 0.00000000D+00 0.00000000D+00 0.00000000D+00 0.00000000D+00
  <mgrwgt>
 0.1936693235D-01    5    2    0
 0.178543386609920D+03 0.000000000000000D+00 0.000000000000000D+00 0.178543386609920D+03
 0.178543386609920D+03 -.000000000000000D+00 -.000000000000000D+00 -.178543386609920D+03
 0.154846452425665D+03 0.561749622676102D+02 0.521298270320916D+02 0.497923546003860D+02
 0.144534542807187D+03 -.301495090611451D+02 -.407562936586899D+02 -.100024568737191D+03
 0.577057779869886D+02 -.260254532064652D+02 -.113735333734017D+02 0.502322141368049D+02
 0.000000000000000D+00 0.000000000000000D+00 0.000000000000000D+00 -.000000000000000D+00
 0.178543386609920D+03 0.000000000000000D+00 0.000000000000000D+00 0.178543386609920D+03
 0.178543386609920D+03 -.000000000000000D+00 -.000000000000000D+00 -.178543386609920D+03
 0.154954944676121D+03 0.553037665731253D+02 0.517491007781669D+02 0.514738657092707D+02
 0.143729683263194D+03 -.309601398555054D+02 -.411105520963825D+02 -.984599550751287D+02
 0.322311663708867D+01 0.150436201991122D+01 0.284716144764528D+01 0.138012536999288D+00
 0.551790286434366D+02 -.258479887375311D+02 -.134857101294297D+02 0.468480768288588D+02
0.860393203677D-05 0.000000000000D+00 0.000000000000D+00 0.533613611723D-06 0.000000000000D+00  6 21 -2 25 23 -2 21 2 0.30747850D-01 0.24538390D-01 0.19510130D+05 0.19510130D+05 0.19510130D+05 0.12350135D+01  1  2  2  3  6  5       -2 0.156823997783D-01 0.100000000000D+01
0.602609074908D-06 0.454041967679D-06 -.173688598795D-07 0.533613611723D-06 0.000000000000D+00  6 21 -2 25 23 -2 21 4 0.30747850D-01 0.24538390D-01 0.19510130D+05 0.19510130D+05 0.19510130D+05 0.12350135D+01  1  2  3  3  6  5       -2 0.167530779514D-02 0.100000000000D+01
0.104893051967D-05 0.000000000000D+00 0.000000000000D+00 0.533613611723D-06 0.000000000000D+00  6 21 -2 25 23 -2 21 4 0.30747850D-01 0.24538390D-01 0.19510130D+05 0.19510130D+05 0.19510130D+05 0.12350135D+01  1  2 15  3  6  5       -2 0.291612182646D-02 0.100000000000D+01
-.322960828278D-05 0.000000000000D+00 0.000000000000D+00 0.533613611723D-06 0.000000000000D+00  6 21 -2 25 23 -2 21 4 0.30747850D-01 0.24538390D-01 0.19510130D+05 0.19510130D+05 0.19510130D+05 0.12350135D+01  1  2  4  3  6  5       -2 -.897860347060D-02 0.100000000000D+01
0.291589793288D-05 0.000000000000D+00 0.000000000000D+00 0.533613611723D-06 0.234998825330D-07  6 21 -2 25 23 -2 21 4 0.30747850D-01 0.24538390D-01 0.20056045D+05 0.20056045D+05 0.20056045D+05 0.12336923D+01  1  2 11  3  6  5       -2 0.807170642532D-02 0.100000000000D+01
  </mgrwgt>
  </event>
  <event>
  5     66 0.32447353E-03 0.14130799E+03 0.75467711E-02 0.11072340E+00
       21 -1    0    0  501  502 0.00000000E+00 0.00000000E+00 0.69065878E+03 0.69065918E+03 0.75000000E+00 0.0000E+00 0.9000E+01
       -4 -1    0    0    0  501 0.00000000E+00 0.00000000E+00 -.85621144E+02 0.85635173E+02 0.15500000E+01 0.0000E+00 0.9000E+01
       25  1    1    2    0    0 -.24224050E+02 0.83321401E+02 0.30315818E+03 0.33920369E+03 0.12500000E+03 0.0000E+00 0.9000E+01
       23  1    1    2    0    0 0.70331396E+01 0.94441520E+02 0.17087019E+03 0.21559346E+03 0.91188000E+02 0.0000E+00 0.9000E+01
       -4  1    1    2    0  502 0.17190911E+02 -.17776292E+03 0.13100925E+03 0.22149720E+03 0.15500000E+01 0.0000E+00 0.9000E+01
#aMCatNLO 1  0  0  1  5 0.54156443D+02 0.00000000D+00  -5  6  0 0.00000000D+00 0.00000000D+00 0.00000000D+00 0.00000000D+00 0.00000000D+00
  <mgrwgt>
 0.1956103917D-02   32    4    0
 0.243188399408541D+03 0.000000000000000D+00 0.000000000000000D+00 0.243188399408541D+03
 0.243188399408541D+03 0.000000000000000D+00 0.000000000000000D+00 -.243188399408541D+03
 0.164276836467224D+03 -.242242425068538D+02 0.833233870665139D+02 0.619053975224457D+02
 0.131547497332144D+03 0.703298577245860D+01 0.944431111109740D+02 0.453084817169633D+01
 0.190552465017714D+03 0.171912567343952D+02 -.177766498177488D+03 -.664362456941420D+02
 0.000000000000000D+00 -.000000000000000D+00 0.000000000000000D+00 0.000000000000000D+00
 0.339890496680483D+03 0.000000000000000D+00 0.000000000000000D+00 0.339890496680483D+03
 0.252393351503843D+03 0.000000000000000D+00 0.000000000000000D+00 -.252393351503843D+03
 0.158189839482402D+03 -.889967996302212D+01 0.740779506304805D+02 0.619053975224457D+02
 0.127598688020055D+03 0.193483728236327D+02 0.870131353553130D+02 0.453084817169633D+01
 0.203594053679389D+03 0.359222557110176D+02 -.189067066133437D+03 -.664362456941420D+02
 0.102901267002481D+03 -.463709485716281D+02 0.279759801476440D+02 0.874971451766390D+02
 0.243188399408541D+03 0.000000000000000D+00 0.000000000000000D+00 0.243188399408541D+03
 0.243188399408541D+03 0.000000000000000D+00 0.000000000000000D+00 -.243188399408541D+03
 0.164276836467224D+03 -.242242425068538D+02 0.833233870665139D+02 0.619053975224457D+02
 0.131547497332144D+03 0.703298577245860D+01 0.944431111109740D+02 0.453084817169633D+01
 0.000000000000000D+00 -.000000000000000D+00 0.000000000000000D+00 0.000000000000000D+00
 0.190552465017714D+03 0.171912567343952D+02 -.177766498177488D+03 -.664362456941420D+02
 0.339890496680483D+03 0.000000000000000D+00 0.000000000000000D+00 0.339890496680483D+03
 0.252393351503843D+03 0.000000000000000D+00 0.000000000000000D+00 -.252393351503843D+03
 0.158189839482402D+03 -.889967996302212D+01 0.740779506304805D+02 0.619053975224457D+02
 0.127598688020055D+03 0.193483728236327D+02 0.870131353553130D+02 0.453084817169633D+01
 0.102901267002481D+03 -.463709485716281D+02 0.279759801476440D+02 0.874971451766390D+02
 0.203594053679389D+03 0.359222557110176D+02 -.189067066133437D+03 -.664362456941420D+02
0.347286386679D-05 0.000000000000D+00 0.000000000000D+00 0.109701869984D-06 0.000000000000D+00  6 21 -4 25 23 -4 21 2 0.10625631D+00 0.13173594D-01 0.53414519D+05 0.53414519D+05 0.53414519D+05 0.11894509D+01  1  2  2  1  6  1       21 0.692839169326D-03 0.100000000000D+01
-.415789580564D-06 0.183268061256D-06 -.701071157063D-08 0.109701869984D-06 0.000000000000D+00  6 21 -4 25 23 -4 21 4 0.10625631D+00 0.13173594D-01 0.53414519D+05 0.53414519D+05 0.53414519D+05 0.11894509D+01  1  2  3  1  6  1       21 -.117357624421D-03 0.100000000000D+01
0.511961167763D-06 0.000000000000D+00 0.000000000000D+00 0.109701869984D-06 0.000000000000D+00  6 21 -4 25 23 -4 21 4 0.10625631D+00 0.13173594D-01 0.53414519D+05 0.53414519D+05 0.53414519D+05 0.11894509D+01  1  2 15  1  6  1       21 0.144502289747D-03 0.100000000000D+01
0.110044115374D-04 0.000000000000D+00 0.000000000000D+00 0.107887287157D-06 0.000000000000D+00  6 21 -4 25 23 -4 21 4 0.14991161D+00 0.13173594D-01 0.67521476D+05 0.67521476D+05 0.67521476D+05 0.11795725D+01  1  2 12  1  6  1       21 0.125369213429D-02 0.100000000000D+01
0.105647886153D-04 0.000000000000D+00 0.000000000000D+00 0.107887287157D-06 0.000000000000D+00  6 21 -4 25 23 -4 21 4 0.15192039D+00 0.13173594D-01 0.67521476D+05 0.67521476D+05 0.67521476D+05 0.11795725D+01  1  2 12  1  6  1       21 0.116163003190D-02 0.100000000000D+01
-.154708305432D-04 0.000000000000D+00 0.000000000000D+00 0.109701869984D-06 0.000000000000D+00  6 21 -4 25 23 -4 21 4 0.10625631D+00 0.13173594D-01 0.53414519D+05 0.53414519D+05 0.53414519D+05 0.11894509D+01  1  2  4  1  6  1       21 -.436667969867D-02 0.100000000000D+01
-.276506135010D-04 0.000000000000D+00 -.435537218358D-05 0.109701869984D-06 0.000000000000D+00  6 21 -4 25 23 -4 21 4 0.15114340D+00 0.13173594D-01 0.53414519D+05 0.53414519D+05 0.53414519D+05 0.11894509D+01  1  2  5  1  6  1       21 -.320251441945D-02 0.100000000000D+01
0.231146915177D-04 0.000000000000D+00 0.343848015083D-05 0.109701869984D-06 0.000000000000D+00  6 21 -4 25 23 -4 21 4 0.10625631D+00 0.13173594D-01 0.53414519D+05 0.53414519D+05 0.53414519D+05 0.11894509D+01  1  2  6  1  6  1       21 0.652417812408D-02 0.100000000000D+01
0.122661705798D-05 0.000000000000D+00 0.000000000000D+00 0.107887287157D-06 0.000000000000D+00  6 -1 -4 25 23 -4 -1 4 0.14991161D+00 0.13173594D-01 0.67521476D+05 0.67521476D+05 0.67521476D+05 0.11795725D+01  1  2 12  4  6  1       21 0.171170486692D-04 0.100000000000D+01
0.122661705798D-05 0.000000000000D+00 0.000000000000D+00 0.107887287157D-06 0.000000000000D+00  6 -3 -4 25 23 -4 -3 4 0.14991161D+00 0.13173594D-01 0.67521476D+05 0.67521476D+05 0.67521476D+05 0.11795725D+01  1  2 12  4  6  1       21 0.820867599934D-05 0.100000000000D+01
0.123359368332D-05 0.000000000000D+00 0.000000000000D+00 0.107887287157D-06 0.000000000000D+00  6 -1 -4 25 23 -4 -1 4 0.15192039D+00 0.13173594D-01 0.67521476D+05 0.67521476D+05 0.67521476D+05 0.11795725D+01  1  2 12  4  6  1       21 0.166215065503D-04 0.100000000000D+01
0.123359368332D-05 0.000000000000D+00 0.000000000000D+00 0.107887287157D-06 0.000000000000D+00  6 -3 -4 25 23 -4 -3 4 0.15192039D+00 0.13173594D-01 0.67521476D+05 0.67521476D+05 0.67521476D+05 0.11795725D+01  1  2 12  4  6  1       21 0.798124577603D-05 0.100000000000D+01
-.291447173227D-05 0.000000000000D+00 -.499647454824D-06 0.109701869984D-06 0.000000000000D+00  6 -1 -4 25 23 -4 -1 4 0.15114340D+00 0.13173594D-01 0.53414519D+05 0.53414519D+05 0.53414519D+05 0.11894509D+01  1  2  5  4  6  1       21 -.409968680202D-04 0.100000000000D+01
-.291447173227D-05 0.000000000000D+00 -.499647454824D-06 0.109701869984D-06 0.000000000000D+00  6 -3 -4 25 23 -4 -3 4 0.15114340D+00 0.13173594D-01 0.53414519D+05 0.53414519D+05 0.53414519D+05 0.11894509D+01  1  2  5  4  6  1       21 -.195802675775D-04 0.100000000000D+01
0.122661705798D-05 0.000000000000D+00 0.000000000000D+00 0.107887287157D-06 0.000000000000D+00  6 1 -4 25 23 1 -4 4 0.14991161D+00 0.13173594D-01 0.67521476D+05 0.67521476D+05 0.67521476D+05 0.11795725D+01  3  4 12  5  5  1       21 0.898145043476D-04 0.100000000000D+01
0.122661705798D-05 0.000000000000D+00 0.000000000000D+00 0.107887287157D-06 0.000000000000D+00  6 3 -4 25 23 3 -4 4 0.14991161D+00 0.13173594D-01 0.67521476D+05 0.67521476D+05 0.67521476D+05 0.11795725D+01  3  4 12  5  5  1       21 0.824093231997D-05 0.100000000000D+01
0.123359368332D-05 0.000000000000D+00 0.000000000000D+00 0.107887287157D-06 0.000000000000D+00  6 1 -4 25 23 1 -4 4 0.15192039D+00 0.13173594D-01 0.67521476D+05 0.67521476D+05 0.67521476D+05 0.11795725D+01  3  4 12  5  5  1       21 0.882958797730D-04 0.100000000000D+01
0.123359368332D-05 0.000000000000D+00 0.000000000000D+00 0.107887287157D-06 0.000000000000D+00  6 3 -4 25 23 3 -4 4 0.15192039D+00 0.13173594D-01 0.67521476D+05 0.67521476D+05 0.67521476D+05 0.11795725D+01  3  4 12  5  5  1       21 0.801330222473D-05 0.100000000000D+01
-.291447173227D-05 0.000000000000D+00 -.499647454824D-06 0.109701869984D-06 0.000000000000D+00  6 1 -4 25 23 1 -4 4 0.15114340D+00 0.13173594D-01 0.53414519D+05 0.53414519D+05 0.53414519D+05 0.11894509D+01  3  4  5  5  5  1       21 -.216618316862D-03 0.100000000000D+01
-.291447173227D-05 0.000000000000D+00 -.499647454824D-06 0.109701869984D-06 0.000000000000D+00  6 3 -4 25 23 3 -4 4 0.15114340D+00 0.13173594D-01 0.53414519D+05 0.53414519D+05 0.53414519D+05 0.11894509D+01  3  4  5  5  5  1       21 -.196581115576D-04 0.100000000000D+01
0.122661705798D-05 0.000000000000D+00 0.000000000000D+00 0.107887287157D-06 0.000000000000D+00  6 -4 -4 25 23 -4 -4 4 0.14991161D+00 0.13173594D-01 0.67521476D+05 0.67521476D+05 0.67521476D+05 0.11795725D+01  1  2 12  6  6  1       21 0.649997929038D-05 0.100000000000D+01
0.123359368332D-05 0.000000000000D+00 0.000000000000D+00 0.107887287157D-06 0.000000000000D+00  6 -4 -4 25 23 -4 -4 4 0.15192039D+00 0.13173594D-01 0.67521476D+05 0.67521476D+05 0.67521476D+05 0.11795725D+01  1  2 12  6  6  1       21 0.631466710676D-05 0.100000000000D+01
-.291447173227D-05 0.000000000000D+00 -.499647454824D-06 0.109701869984D-06 0.000000000000D+00  6 -4 -4 25 23 -4 -4 4 0.15114340D+00 0.13173594D-01 0.53414519D+05 0.53414519D+05 0.53414519D+05 0.11894509D+01  1  2  5  6  6  1       21 -.154697197425D-04 0.100000000000D+01
0.122661705798D-05 0.000000000000D+00 0.000000000000D+00 0.107887287157D-06 0.000000000000D+00  6 4 -4 25 23 4 -4 4 0.14991161D+00 0.13173594D-01 0.67521476D+05 0.67521476D+05 0.67521476D+05 0.11795725D+01  3  4 12  7  5  1       21 0.649997929038D-05 0.100000000000D+01
0.123359368332D-05 0.000000000000D+00 0.000000000000D+00 0.107887287157D-06 0.000000000000D+00  6 4 -4 25 23 4 -4 4 0.15192039D+00 0.13173594D-01 0.67521476D+05 0.67521476D+05 0.67521476D+05 0.11795725D+01  3  4 12  7  5  1       21 0.631466710676D-05 0.100000000000D+01
-.291447173227D-05 0.000000000000D+00 -.499647454824D-06 0.109701869984D-06 0.000000000000D+00  6 4 -4 25 23 4 -4 4 0.15114340D+00 0.13173594D-01 0.53414519D+05 0.53414519D+05 0.53414519D+05 0.11894509D+01  3  4  5  7  5  1       21 -.154697197425D-04 0.100000000000D+01
0.122661705798D-05 0.000000000000D+00 0.000000000000D+00 0.107887287157D-06 0.000000000000D+00  6 -2 -4 25 23 -4 -2 4 0.14991161D+00 0.13173594D-01 0.67521476D+05 0.67521476D+05 0.67521476D+05 0.11795725D+01  1  2 12  8  6  1       21 0.125957298606D-04 0.100000000000D+01
0.123359368332D-05 0.000000000000D+00 0.000000000000D+00 0.107887287157D-06 0.000000000000D+00  6 -2 -4 25 23 -4 -2 4 0.15192039D+00 0.13173594D-01 0.67521476D+05 0.67521476D+05 0.67521476D+05 0.11795725D+01  1  2 12  8  6  1       21 0.122375935448D-04 0.100000000000D+01
-.291447173227D-05 0.000000000000D+00 -.499647454824D-06 0.109701869984D-06 0.000000000000D+00  6 -2 -4 25 23 -4 -2 4 0.15114340D+00 0.13173594D-01 0.53414519D+05 0.53414519D+05 0.53414519D+05 0.11894509D+01  1  2  5  8  6  1       21 -.301274360497D-04 0.100000000000D+01
0.122661705798D-05 0.000000000000D+00 0.000000000000D+00 0.107887287157D-06 0.000000000000D+00  6 2 -4 25 23 2 -4 4 0.14991161D+00 0.13173594D-01 0.67521476D+05 0.67521476D+05 0.67521476D+05 0.11795725D+01  3  4 12  9  5  1       21 0.166085166553D-03 0.100000000000D+01
0.123359368332D-05 0.000000000000D+00 0.000000000000D+00 0.107887287157D-06 0.000000000000D+00  6 2 -4 25 23 2 -4 4 0.15192039D+00 0.13173594D-01 0.67521476D+05 0.67521476D+05 0.67521476D+05 0.11795725D+01  3  4 12  9  5  1       21 0.163947057648D-03 0.100000000000D+01
-.291447173227D-05 0.000000000000D+00 -.499647454824D-06 0.109701869984D-06 0.000000000000D+00  6 2 -4 25 23 2 -4 4 0.15114340D+00 0.13173594D-01 0.53414519D+05 0.53414519D+05 0.53414519D+05 0.11894509D+01  3  4  5  9  5  1       21 -.401053586366D-03 0.100000000000D+01
  </mgrwgt>
  </event>
  <event>
  5     66 0.32447353E-03 0.41039509E+02 0.75467711E-02 0.12258206E+00
       21 -1    0    0  501  502 0.00000000E+00 0.00000000E+00 0.99257153E+02 0.99259987E+02 0.75000000E+00 0.0000E+00 0.9000E+01
       -2 -1    0    0    0  501 0.00000000E+00 0.00000000E+00 -.17839296E+03 0.17839325E+03 0.32000000E+00 0.0000E+00 0.9000E+01
       25  1    1    2    0    0 -.15326047E+01 -.27702296E+02 -.22387966E+02 0.12998456E+03 0.12500000E+03 0.0000E+00 0.9000E+01
       23  1    1    2    0    0 0.14468593E+02 -.11244177E+02 -.26581727E+02 0.96734747E+02 0.91188000E+02 0.0000E+00 0.9000E+01
       -2  1    1    2    0  502 -.12935988E+02 0.38946473E+02 -.30166114E+02 0.50933922E+02 0.32000000E+00 0.0000E+00 0.9000E+01
#aMCatNLO 1  0  0  1  2 0.12495554D+00 0.00000000D+00  -5  6  0 0.00000000D+00 0.00000000D+00 0.00000000D+00 0.00000000D+00 0.00000000D+00
  <mgrwgt>
 0.1384942228D-01   23    4    0
 0.133068443131550D+03 0.000000000000000D+00 0.000000000000000D+00 0.133068443131550D+03
 0.133068443131550D+03 0.000000000000000D+00 0.000000000000000D+00 -.133068443131550D+03
 0.128952359216375D+03 -.153244015349793D+01 -.277027913000651D+02 0.152943757254100D+02
 0.930166654446547D+02 0.144687114760353D+02 -.112445344559873D+02 0.103224974408851D+01
 0.441678616020703D+02 -.129362713225374D+02 0.389473257560524D+02 -.163266254694985D+02
 0.000000000000000D+00 0.000000000000000D+00 0.000000000000000D+00 0.000000000000000D+00
 0.133163894856173D+03 0.000000000000000D+00 0.000000000000000D+00 0.133163894856173D+03
 0.133109358804596D+03 0.000000000000000D+00 0.000000000000000D+00 -.133109358804596D+03
 0.128965392229858D+03 -.153366520669330D+01 -.277633271638106D+02 0.152943757254100D+02
 0.930218166593639D+02 0.144678278337281D+02 -.112881995396852D+02 0.103224974408851D+01
 0.441497067081920D+02 -.129366908117686D+02 0.389265967435994D+02 -.163266254694985D+02
 0.136338063354858D+00 0.252818473378152D-02 0.124929959896475D+00 0.545360515766428D-01
 0.133068443131550D+03 0.000000000000000D+00 0.000000000000000D+00 0.133068443131550D+03
 0.133068443131550D+03 0.000000000000000D+00 0.000000000000000D+00 -.133068443131550D+03
 0.128952359216375D+03 -.153244015349793D+01 -.277027913000651D+02 0.152943757254100D+02
 0.930166654446547D+02 0.144687114760353D+02 -.112445344559873D+02 0.103224974408851D+01
 0.000000000000000D+00 0.000000000000000D+00 0.000000000000000D+00 0.000000000000000D+00
 0.441678616020703D+02 -.129362713225374D+02 0.389473257560524D+02 -.163266254694985D+02
 0.133163894856173D+03 0.000000000000000D+00 0.000000000000000D+00 0.133163894856173D+03
 0.133109358804596D+03 0.000000000000000D+00 0.000000000000000D+00 -.133109358804596D+03
 0.128965392229858D+03 -.153366520669330D+01 -.277633271638106D+02 0.152943757254100D+02
 0.930218166593639D+02 0.144678278337281D+02 -.112881995396852D+02 0.103224974408851D+01
 0.136338063354858D+00 0.252818473378152D-02 0.124929959896475D+00 0.545360515766428D-01
 0.441497067081920D+02 -.129366908117686D+02 0.389265967435994D+02 -.163266254694985D+02
0.180759459857D-06 0.000000000000D+00 0.000000000000D+00 0.248569881307D-06 0.000000000000D+00  6 21 -2 25 23 -2 21 2 0.15270571D-01 0.27445311D-01 0.17173133D+05 0.17173133D+05 0.17173133D+05 0.12411792D+01  1  2  2  1  6  1       21 0.100922625711D-02 0.100000000000D+01
-.104732135242D-07 0.953893876420D-08 -.364901270342D-09 0.248569881307D-06 0.000000000000D+00  6 21 -2 25 23 -2 21 4 0.15270571D-01 0.27445311D-01 0.17173133D+05 0.17173133D+05 0.17173133D+05 0.12411792D+01  1  2  3  1  6  1       21 -.900816666771D-04 0.100000000000D+01
0.190341329403D-07 0.000000000000D+00 0.000000000000D+00 0.248569881307D-06 0.000000000000D+00  6 21 -2 25 23 -2 21 4 0.15270571D-01 0.27445311D-01 0.17173133D+05 0.17173133D+05 0.17173133D+05 0.12411792D+01  1  2 15  1  6  1       21 0.163715407412D-03 0.100000000000D+01
-.193485843349D-04 0.000000000000D+00 0.000000000000D+00 0.248569881307D-06 0.000000000000D+00  6 21 -2 25 23 -2 21 4 0.15270571D-01 0.27445311D-01 0.17173133D+05 0.17173133D+05 0.17173133D+05 0.12411792D+01  1  2  4  1  6  1       21 -.166420050608D+00 0.100000000000D+01
-.855570415363D-03 0.000000000000D+00 -.580470249724D-04 0.248569881307D-06 0.000000000000D+00  6 21 -2 25 23 -2 21 4 0.15285993D-01 0.27445311D-01 0.17173133D+05 0.17173133D+05 0.17173133D+05 0.12411792D+01  1  2  5  1  6  1       21 -.734548452587D+01 0.100000000000D+01
0.855627275619D-03 0.000000000000D+00 0.580469066896D-04 0.248569881307D-06 0.000000000000D+00  6 21 -2 25 23 -2 21 4 0.15270571D-01 0.27445311D-01 0.17173133D+05 0.17173133D+05 0.17173133D+05 0.12411792D+01  1  2  6  1  6  1       21 0.735937741213D+01 0.100000000000D+01
0.193263910173D-04 0.000000000000D+00 0.000000000000D+00 0.248569881307D-06 0.546187826502D-03  6 21 -2 25 23 -2 21 4 0.15281525D-01 0.27453750D-01 0.17189346D+05 0.17189346D+05 0.17189346D+05 0.12411332D+01  1  2 11  1  6  1       21 0.165901656772D+00 0.100000000000D+01
-.179182230601D-06 0.000000000000D+00 -.130400934803D-07 0.248569881307D-06 0.000000000000D+00  6 -1 -2 25 23 -2 -1 4 0.15285993D-01 0.27445311D-01 0.17173133D+05 0.17173133D+05 0.17173133D+05 0.12411792D+01  1  2  5  4  6  1       21 -.112403417481D-03 0.100000000000D+01
-.179182230601D-06 0.000000000000D+00 -.130400934803D-07 0.248569881307D-06 0.000000000000D+00  6 -3 -2 25 23 -2 -3 4 0.15285993D-01 0.27445311D-01 0.17173133D+05 0.17173133D+05 0.17173133D+05 0.12411792D+01  1  2  5  4  6  1       21 -.695738228945D-04 0.100000000000D+01
0.221241263831D-07 0.000000000000D+00 0.000000000000D+00 0.248569881307D-06 0.471191677307D-07  6 -1 -2 25 23 -2 -1 4 0.15281525D-01 0.27453750D-01 0.17189346D+05 0.17189346D+05 0.17189346D+05 0.12411332D+01  1  2 11  4  6  1       21 0.138759502776D-04 0.100000000000D+01
0.221241263831D-07 0.000000000000D+00 0.000000000000D+00 0.248569881307D-06 0.471191677307D-07  6 -3 -2 25 23 -2 -3 4 0.15281525D-01 0.27453750D-01 0.17189346D+05 0.17189346D+05 0.17189346D+05 0.12411332D+01  1  2 11  4  6  1       21 0.858929574784D-05 0.100000000000D+01
-.179182230601D-06 0.000000000000D+00 -.130400934803D-07 0.248569881307D-06 0.000000000000D+00  6 1 -2 25 23 1 -2 4 0.15285993D-01 0.27445311D-01 0.17173133D+05 0.17173133D+05 0.17173133D+05 0.12411792D+01  3  4  5  5  5  1       21 -.155795178552D-03 0.100000000000D+01
-.179182230601D-06 0.000000000000D+00 -.130400934803D-07 0.248569881307D-06 0.000000000000D+00  6 3 -2 25 23 3 -2 4 0.15285993D-01 0.27445311D-01 0.17173133D+05 0.17173133D+05 0.17173133D+05 0.12411792D+01  3  4  5  5  5  1       21 -.695652439539D-04 0.100000000000D+01
0.222225445504D-07 0.000000000000D+00 0.000000000000D+00 0.248569881307D-06 0.473287751996D-07  6 1 -2 25 23 1 -2 4 0.15281525D-01 0.27453750D-01 0.17189346D+05 0.17189346D+05 0.17189346D+05 0.12411332D+01  3  4 11  5  5  1       21 0.193165374792D-04 0.100000000000D+01
0.222225445504D-07 0.000000000000D+00 0.000000000000D+00 0.248569881307D-06 0.473287751996D-07  6 3 -2 25 23 3 -2 4 0.15281525D-01 0.27453750D-01 0.17189346D+05 0.17189346D+05 0.17189346D+05 0.12411332D+01  3  4 11  5  5  1       21 0.862644099264D-05 0.100000000000D+01
-.179182230601D-06 0.000000000000D+00 -.130400934803D-07 0.248569881307D-06 0.000000000000D+00  6 -2 -2 25 23 -2 -2 4 0.15285993D-01 0.27445311D-01 0.17173133D+05 0.17173133D+05 0.17173133D+05 0.12411792D+01  1  2  5  6  6  1       21 -.104930290333D-03 0.100000000000D+01
0.280205284236D-07 0.000000000000D+00 0.000000000000D+00 0.248569881307D-06 0.382153486948D-07  6 -2 -2 25 23 -2 -2 4 0.15281525D-01 0.27453750D-01 0.17189346D+05 0.17189346D+05 0.17189346D+05 0.12411332D+01  1  2 11  6  6  1       21 0.164060208863D-04 0.100000000000D+01
-.179182230601D-06 0.000000000000D+00 -.130400934803D-07 0.248569881307D-06 0.000000000000D+00  6 2 -2 25 23 2 -2 4 0.15285993D-01 0.27445311D-01 0.17173133D+05 0.17173133D+05 0.17173133D+05 0.12411792D+01  3  4  5  7  5  1       21 -.185681359007D-03 0.100000000000D+01
0.123829845673D-06 0.000000000000D+00 0.000000000000D+00 0.248569881307D-06 0.342558902565D-05  6 2 -2 25 23 2 -2 4 0.15281525D-01 0.27453750D-01 0.17189346D+05 0.17189346D+05 0.17189346D+05 0.12411332D+01  3  4 11  7  5  1       21 0.128280186321D-03 0.100000000000D+01
-.179182230601D-06 0.000000000000D+00 -.130400934803D-07 0.248569881307D-06 0.000000000000D+00  6 -4 -2 25 23 -2 -4 4 0.15285993D-01 0.27445311D-01 0.17173133D+05 0.17173133D+05 0.17173133D+05 0.12411792D+01  1  2  5  8  6  1       21 -.597996254918D-04 0.100000000000D+01
0.217906957463D-07 0.000000000000D+00 0.000000000000D+00 0.248569881307D-06 0.464090391665D-07  6 -4 -2 25 23 -2 -4 4 0.15281525D-01 0.27453750D-01 0.17189346D+05 0.17189346D+05 0.17189346D+05 0.12411332D+01  1  2 11  8  6  1       21 0.727150586109D-05 0.100000000000D+01
-.179182230601D-06 0.000000000000D+00 -.130400934803D-07 0.248569881307D-06 0.000000000000D+00  6 4 -2 25 23 4 -2 4 0.15285993D-01 0.27445311D-01 0.17173133D+05 0.17173133D+05 0.17173133D+05 0.12411792D+01  3  4  5  9  5  1       21 -.597996254918D-04 0.100000000000D+01
0.217337232373D-07 0.000000000000D+00 0.000000000000D+00 0.248569881307D-06 0.462877011683D-07  6 4 -2 25 23 4 -2 4 0.15281525D-01 0.27453750D-01 0.17189346D+05 0.17189346D+05 0.17189346D+05 0.12411332D+01  3  4 11  9  5  1       21 0.725249426375D-05 0.100000000000D+01
  </mgrwgt>
  </event>
  <event>
  6     66 0.32447353E-03 0.32839269E+02 0.75467711E-02 0.11831765E+00
        2 -1    0    0  501    0 0.00000000E+00 0.00000000E+00 0.11676607E+03 0.11676651E+03 0.32000000E+00 0.0000E+00 0.9000E+01
       -2 -1    0    0    0  501 0.00000000E+00 0.00000000E+00 -.46201384E+03 0.46201395E+03 0.32000000E+00 0.0000E+00 0.9000E+01
       25  1    1    2    0    0 0.77133079E+02 0.15438511E+02 -.15932343E+03 0.21724828E+03 0.12500000E+03 0.0000E+00 0.9000E+01
       23  1    1    2    0    0 -.88286881E+02 0.98456199E+01 -.19914424E+03 0.23635818E+03 0.91188000E+02 0.0000E+00 0.9000E+01
        2  1    1    2  502    0 -.13103459E+02 0.67956972E+01 0.60975894E+02 0.62737901E+02 0.32000000E+00 0.0000E+00 0.9000E+01
       -2  1    1    2    0  502 0.24257261E+02 -.32079828E+02 -.47755996E+02 0.62436109E+02 0.32000000E+00 0.0000E+00 0.9000E+01
#aMCatNLO 2  0  0  1  2 0.14760832D+02 0.00000000D+00  -5  6  0 0.00000000D+00 0.00000000D+00 0.00000000D+00 0.00000000D+00 0.00000000D+00
  <mgrwgt>
 0.3637918159D-03    3    2    0
 0.158953123810688D+03 0.000000000000000D+00 0.000000000000000D+00 0.158953123810688D+03
 0.158953123810688D+03 0.000000000000000D+00 0.000000000000000D+00 -.158953123810688D+03
 0.146214743570544D+03 0.710538985075416D+02 0.185915939078394D+02 0.189590975588482D+02
 0.133050666025428D+03 -.936861686980573D+02 0.126460707124517D+02 -.212180837029344D+02
 0.000000000000000D+00 -.000000000000000D+00 0.000000000000000D+00 0.000000000000000D+00
 0.386408380254035D+02 0.226322701905157D+02 -.312376646202911D+02 0.225898614408621D+01
 0.338381737447132D+03 0.000000000000000D+00 0.000000000000000D+00 0.338381737447132D+03
 0.159428240849897D+03 0.000000000000000D+00 0.000000000000000D+00 -.159428240849897D+03
 0.148903546847955D+03 0.771327166482323D+02 0.154390059951652D+02 0.189590975588482D+02
 0.129062124996245D+03 -.882871946571392D+02 0.984606256805504D+01 -.212180837029344D+02
 0.179561232150606D+03 -.131034593312495D+02 0.679569721380430D+01 0.178953496597235D+03
 0.402830743022232D+02 0.242579373401564D+02 -.320807657770246D+02 0.225898614408621D+01
-.602003648615D-05 0.000000000000D+00 0.000000000000D+00 0.197515556198D-06 0.000000000000D+00  6 2 -2 25 23 2 -2 4 0.17961859D-01 0.70867206D-01 0.27221400D+05 0.27221400D+05 0.27221400D+05 0.12193537D+01  1  2 13  7  5  1       21 -.773279473393D-03 0.100000000000D+01
-.603620157403D-05 0.000000000000D+00 0.000000000000D+00 0.197515556198D-06 0.000000000000D+00  6 2 -2 25 23 2 -2 4 0.18093510D-01 0.70867206D-01 0.27221400D+05 0.27221400D+05 0.27221400D+05 0.12193537D+01  1  2 13  7  5  1       21 -.768862358203D-03 0.100000000000D+01
0.149348952078D-04 0.000000000000D+00 0.000000000000D+00 0.198922478096D-06 0.130241784934D-07  6 2 -2 25 23 2 -2 4 0.17964038D-01 0.71079031D-01 0.27221400D+05 0.27221400D+05 0.27221400D+05 0.12193537D+01  1  2  1  7  5  1       21 0.190593364752D-02 0.100000000000D+01
  </mgrwgt>
  </event>
  <event>
  6     66 -.32447353E-03 0.23983632E+02 0.75467711E-02 0.12318960E+00
       21 -1    0    0  501  502 0.00000000E+00 0.00000000E+00 0.10489719E+04 0.10489722E+04 0.75000000E+00 0.0000E+00 0.9000E+01
       -2 -1    0    0    0  501 0.00000000E+00 0.00000000E+00 -.19240633E+02 0.19243294E+02 0.32000000E+00 0.0000E+00 0.9000E+01
       25  1    1    2    0    0 0.27079857E+02 -.18932580E+01 0.34468338E+03 0.36765273E+03 0.12500000E+03 0.0000E+00 0.9000E+01
       23  1    1    2    0    0 -.10833761E+02 0.26889253E+02 0.31746091E+03 0.33156762E+03 0.91188000E+02 0.0000E+00 0.9000E+01
       -2  1    1    2    0  503 -.12138088E+02 -.94194610E+01 0.14100037E+03 0.14183534E+03 0.32000000E+00 0.0000E+00 0.9000E+01
       21  1    1    2  503  502 -.41080075E+01 -.15576534E+02 0.22658661E+03 0.22715976E+03 0.75000000E+00 0.0000E+00 0.9000E+01
#aMCatNLO 2  0  0  5  1 0.58777682D+01 0.00000000D+00  -5  6  0 0.00000000D+00 0.00000000D+00 0.00000000D+00 0.00000000D+00 0.00000000D+00
  <mgrwgt>
 -.1394034356D-01    1    2    0
 0.142071981691251D+03 0.000000000000000D+00 0.000000000000000D+00 0.142071981691251D+03
 0.142071981691251D+03 -.000000000000000D+00 -.000000000000000D+00 -.142071981691251D+03
 0.133218114106737D+03 0.272737047806702D+02 -.159500736212171D+01 -.370899838933271D+02
 0.961077096487684D+02 -.106938745036460D+02 0.271044811025142D+02 -.851050305185912D+01
 0.548181396269958D+02 -.165798302770242D+02 -.255094737403925D+02 0.456004869451863D+02
 0.000000000000000D+00 0.000000000000000D+00 0.000000000000000D+00 0.000000000000000D+00
 0.142071981691251D+03 0.000000000000000D+00 0.000000000000000D+00 0.142071981691251D+03
 0.142071981691251D+03 -.000000000000000D+00 -.000000000000000D+00 -.142071981691251D+03
 0.133039703198552D+03 0.270848975818855D+02 -.188550323565724D+01 -.365706962975265D+02
 0.960315920691105D+02 -.108301232106359D+02 0.268948509220450D+02 -.813577018182480D+01
 0.218606541766577D+02 -.119596773204618D+02 -.925495998975231D+01 0.157860709174239D+02
 0.332120139381812D+02 -.429509705078787D+01 -.157543876966354D+02 0.289203955619275D+02
-.698996934860D-05 0.000000000000D+00 0.000000000000D+00 0.999460191903D-06 0.000000000000D+00  6 21 -2 25 23 -2 21 4 0.16138052D+00 0.29603227D-02 0.16262978D+05 0.16262978D+05 0.16262978D+05 0.12438398D+01  1  2 13  3  6  5       -2 -.139403435572D-01 0.100000000000D+01
  </mgrwgt>
  </event>
</LesHouchesEvents>
