<event>
 5    0  0.1911311E+001  0.2305845E+03  0.7546771E-02  0.1126229E+00
         21   -1    0    0  502  501  0.00000000000E+00  0.00000000000E+00  0.58273844815E+03  0.58273844815E+03  0.00000000000E+00 0.  1.
         21   -1    0    0  504  502 -0.00000000000E+00 -0.00000000000E+00 -0.10957405978E+04  0.10957405978E+04  0.00000000000E+00 0.  1.
         25    1    1    2    0    0  0.22749983312E+03 -0.40249949838E+02 -0.73557613522E+03  0.78107200899E+03  0.12500000000E+03 0.  0.
         21    1    1    2  503  501 -0.68397080113E+02  0.10825045260E+03  0.52966668100E+03  0.54492487007E+03  0.00000000000E+00 0.  1.
         21    1    1    2  504  503 -0.15910275301E+03 -0.68000502761E+02 -0.30709269548E+03  0.35248216694E+03  0.00000000000E+00 0.  1.
<mgrwt>
<rscale>  4 0.23058447E+03</rscale>
<asrwt>0</asrwt>
<pdfrwt beam="1">  1       21 0.89652071E-01 0.23058447E+03</pdfrwt>
<pdfrwt beam="2">  1       21 0.16857547E+00 0.23058447E+03</pdfrwt>
<totfact> 0.22127436E+02</totfact>
</mgrwt>
</event>
<event>
 5    0  0.3628101E+001  0.3520992E+03  0.7546771E-02  0.1061757E+00
         21   -1    0    0  503  501  0.00000000000E+00  0.00000000000E+00  0.73475153560E+03  0.73475153560E+03  0.00000000000E+00 0.  1.
         21   -1    0    0  504  502 -0.00000000000E+00 -0.00000000000E+00 -0.24024292308E+03  0.24024292308E+03  0.00000000000E+00 0.  1.
         25    1    1    2    0    0 -0.25847848559E+03  0.22825324883E+03  0.43494084950E+03  0.56895449351E+03  0.12500000000E+03 0.  0.
         21    1    1    2  503  502  0.24462033828E+03 -0.21304617512E+03 -0.18881746054E+02  0.32493738315E+03  0.00000000000E+00 0.  1.
         21    1    1    2  504  501  0.13858147311E+02 -0.15207073710E+02  0.78449509077E+02  0.81102582032E+02  0.00000000000E+00 0. -1.
<mgrwt>
<rscale>  4 0.35209920E+03</rscale>
<asrwt>0</asrwt>
<pdfrwt beam="1">  1       21 0.11303870E+00 0.35209920E+03</pdfrwt>
<pdfrwt beam="2">  1       21 0.36960450E-01 0.35209920E+03</pdfrwt>
<totfact> 0.39132551E+03</totfact>
</mgrwt>
</event>
<event>
 5    0  0.1911311E+001  0.2179074E+03  0.7546771E-02  0.1135453E+00
         21   -1    0    0  502  501  0.00000000000E+00  0.00000000000E+00  0.26772147538E+03  0.26772147538E+03  0.00000000000E+00 0. -1.
         21   -1    0    0  504  502 -0.00000000000E+00 -0.00000000000E+00 -0.46390795729E+03  0.46390795729E+03  0.00000000000E+00 0. -1.
         25    1    1    2    0    0 -0.11929236136E+02  0.20750910121E+03 -0.38621729182E+02  0.24559920954E+03  0.12500000000E+03 0.  0.
         21    1    1    2  503  501 -0.65477080345E+01 -0.36536861244E+02  0.13864080339E+03  0.14352382058E+03  0.00000000000E+00 0. -1.
         21    1    1    2  504  503  0.18476944171E+02 -0.17097223997E+03 -0.29620555612E+03  0.34250640255E+03  0.00000000000E+00 0. -1.
<mgrwt>
<rscale>  4 0.21790736E+03</rscale>
<asrwt>0</asrwt>
<pdfrwt beam="1">  1       21 0.41187920E-01 0.21790736E+03</pdfrwt>
<pdfrwt beam="2">  1       21 0.71370454E-01 0.21790736E+03</pdfrwt>
<totfact> 0.99082240E+03</totfact>
</mgrwt>
</event>
