<event>
 5    0  0.1257040E+001  0.2227880E+03  0.7546771E-02  0.1131821E+00
         21   -1    0    0  504  501  0.00000000000E+00  0.00000000000E+00  0.30273556291E+03  0.30273556291E+03  0.00000000000E+00 0.  1.
         21   -1    0    0  503  502 -0.00000000000E+00 -0.00000000000E+00 -0.31027429688E+03  0.31027429688E+03  0.00000000000E+00 0.  1.
         25    1    1    2    0    0  0.67565067651E+02  0.19671969620E+03  0.17694258332E+03  0.30032874493E+03  0.12500000000E+03 0.  0.
         21    1    1    2  503  501 -0.65553163598E+02 -0.16880875094E+03 -0.20824407373E+03  0.27596957422E+03  0.00000000000E+00 0.  1.
         21    1    1    2  504  502 -0.20119040534E+01 -0.27910945260E+02  0.23762756441E+02  0.36711540650E+02  0.00000000000E+00 0.  1.
<mgrwt>
<rscale>  4 0.22278798E+03</rscale>
<asrwt>0</asrwt>
<pdfrwt beam="1">  1       21 0.46574702E-01 0.22278798E+03</pdfrwt>
<pdfrwt beam="2">  1       21 0.47734507E-01 0.22278798E+03</pdfrwt>
<totfact> 0.18197015E+04</totfact>
</mgrwt>
</event>
<event>
 5    0  0.1257040E+001  0.2751947E+03  0.7546771E-02  0.1098343E+00
         21   -1    0    0  502  501  0.00000000000E+00  0.00000000000E+00  0.34672475359E+03  0.34672475359E+03  0.00000000000E+00 0.  1.
         21   -1    0    0  504  502 -0.00000000000E+00 -0.00000000000E+00 -0.26024151623E+03  0.26024151623E+03  0.00000000000E+00 0. -1.
         25    1    1    2    0    0  0.51100718045E+02  0.24753908945E+03 -0.20846552184E+01  0.28198622303E+03  0.12500000000E+03 0.  0.
         21    1    1    2  503  501  0.40533292095E+02 -0.25508767863E+02  0.68994709956E+02  0.83987588416E+02  0.00000000000E+00 0.  1.
         21    1    1    2  504  503 -0.91634010140E+02 -0.22203032159E+03  0.19573182625E+02  0.24099245838E+03  0.00000000000E+00 0. -1.
<mgrwt>
<rscale>  4 0.27519469E+03</rscale>
<asrwt>0</asrwt>
<pdfrwt beam="1">  1       21 0.53342270E-01 0.27519469E+03</pdfrwt>
<pdfrwt beam="2">  1       21 0.40037156E-01 0.27519469E+03</pdfrwt>
<totfact> 0.19161011E+04</totfact>
</mgrwt>
</event>
<event>
 5    0  0.1257040E+001  0.2625036E+03  0.7546771E-02  0.1105648E+00
         21   -1    0    0  502  501  0.00000000000E+00  0.00000000000E+00  0.31887925838E+03  0.31887925838E+03  0.00000000000E+00 0. -1.
         21   -1    0    0  504  502 -0.00000000000E+00 -0.00000000000E+00 -0.46401935837E+03  0.46401935837E+03  0.00000000000E+00 0.  1.
         25    1    1    2    0    0 -0.17356506945E+03 -0.19609199924E+03  0.12363773912E+03  0.31541749481E+03  0.12500000000E+03 0.  0.
         21    1    1    2  503  501  0.15723332437E+02  0.34487392561E+02  0.58563990422E+02  0.69759188662E+02  0.00000000000E+00 0.  1.
         21    1    1    2  504  503  0.15784173702E+03  0.16160460668E+03 -0.32734182954E+03  0.39772193328E+03  0.00000000000E+00 0.  1.
<mgrwt>
<rscale>  4 0.26250364E+03</rscale>
<asrwt>0</asrwt>
<pdfrwt beam="1">  1       21 0.49058348E-01 0.26250364E+03</pdfrwt>
<pdfrwt beam="2">  1       21 0.71387593E-01 0.26250364E+03</pdfrwt>
<totfact> 0.67210433E+03</totfact>
</mgrwt>
</event>
<event>
 5    0  0.1257040E+001  0.2495664E+03  0.7546771E-02  0.1113579E+00
         21   -1    0    0  504  501  0.00000000000E+00  0.00000000000E+00  0.32770003374E+03  0.32770003374E+03  0.00000000000E+00 0. -1.
         21   -1    0    0  503  502 -0.00000000000E+00 -0.00000000000E+00 -0.23583687766E+03  0.23583687766E+03  0.00000000000E+00 0. -1.
         25    1    1    2    0    0  0.16714574692E+03  0.18039432853E+03  0.20232780015E+02  0.27661196624E+03  0.12500000000E+03 0.  0.
         21    1    1    2  503  501 -0.11912330390E+03 -0.15651334940E+03 -0.93383848956E+00  0.19669179476E+03  0.00000000000E+00 0. -1.
         21    1    1    2  504  502 -0.48022443019E+02 -0.23880979131E+02  0.72564214550E+02  0.90233150400E+02  0.00000000000E+00 0. -1.
<mgrwt>
<rscale>  4 0.24956643E+03</rscale>
<asrwt>0</asrwt>
<pdfrwt beam="1">  1       21 0.50415390E-01 0.24956643E+03</pdfrwt>
<pdfrwt beam="2">  1       21 0.36282597E-01 0.24956643E+03</pdfrwt>
<totfact> 0.26645474E+04</totfact>
</mgrwt>
</event>
<event>
 5    0  0.1257040E+001  0.2267591E+03  0.7546771E-02  0.1128942E+00
         21   -1    0    0  502  501  0.00000000000E+00  0.00000000000E+00  0.56706632440E+03  0.56706632440E+03  0.00000000000E+00 0.  1.
         21   -1    0    0  504  502 -0.00000000000E+00 -0.00000000000E+00 -0.16542278140E+03  0.16542278140E+03  0.00000000000E+00 0.  1.
         25    1    1    2    0    0 -0.12403750684E+03  0.16535922454E+03  0.27150088772E+03  0.36340983514E+03  0.12500000000E+03 0.  0.
         21    1    1    2  503  501  0.12600616994E+02 -0.17421634647E+02  0.17678196250E+03  0.17808467415E+03  0.00000000000E+00 0. -1.
         21    1    1    2  504  503  0.11143688984E+03 -0.14793758989E+03 -0.46639307211E+02  0.19099459651E+03  0.00000000000E+00 0.  1.
<mgrwt>
<rscale>  4 0.22675907E+03</rscale>
<asrwt>0</asrwt>
<pdfrwt beam="1">  1       21 0.87240972E-01 0.22675907E+03</pdfrwt>
<pdfrwt beam="2">  1       21 0.25449659E-01 0.22675907E+03</pdfrwt>
<totfact> 0.16185169E+04</totfact>
</mgrwt>
</event>
<event>
 5    0  0.1257040E+001  0.4494674E+03  0.7546771E-02  0.1027881E+00
         21   -1    0    0  504  501  0.00000000000E+00  0.00000000000E+00  0.29174546351E+03  0.29174546351E+03  0.00000000000E+00 0. -1.
         21   -1    0    0  503  502 -0.00000000000E+00 -0.00000000000E+00 -0.89918895941E+03  0.89918895941E+03  0.00000000000E+00 0. -1.
         25    1    1    2    0    0 -0.23458293586E+03 -0.37398987255E+03 -0.12568502836E+03  0.47573028590E+03  0.12500000000E+03 0.  0.
         21    1    1    2  503  501  0.41766414164E+02  0.73481438779E+00 -0.21168491373E+03  0.21576718010E+03  0.00000000000E+00 0. -1.
         21    1    1    2  504  502  0.19281652170E+03  0.37325505816E+03 -0.27007355380E+03  0.49943695693E+03  0.00000000000E+00 0. -1.
<mgrwt>
<rscale>  4 0.44946739E+03</rscale>
<asrwt>0</asrwt>
<pdfrwt beam="1">  1       21 0.44883917E-01 0.44946739E+03</pdfrwt>
<pdfrwt beam="2">  1       21 0.13833676E+00 0.44946739E+03</pdfrwt>
<totfact> 0.15004493E+03</totfact>
</mgrwt>
</event>
<event>
 5    0  0.1257040E+001  0.2394491E+03  0.7546771E-02  0.1120160E+00
         21   -1    0    0  503  501  0.00000000000E+00  0.00000000000E+00  0.18342841492E+03  0.18342841492E+03  0.00000000000E+00 0. -1.
         21   -1    0    0  504  502 -0.00000000000E+00 -0.00000000000E+00 -0.51571550432E+03  0.51571550432E+03  0.00000000000E+00 0. -1.
         25    1    1    2    0    0 -0.31964974209E+02  0.21050584842E+03 -0.21517621308E+03  0.32750614417E+03  0.12500000000E+03 0.  0.
         21    1    1    2  503  502  0.83443079549E+02 -0.11439023127E+02 -0.14141020994E+03  0.16459175633E+03  0.00000000000E+00 0. -1.
         21    1    1    2  504  501 -0.51478105340E+02 -0.19906682529E+03  0.24299333624E+02  0.20704601874E+03  0.00000000000E+00 0. -1.
<mgrwt>
<rscale>  4 0.23944906E+03</rscale>
<asrwt>0</asrwt>
<pdfrwt beam="1">  1       21 0.28219756E-01 0.23944906E+03</pdfrwt>
<pdfrwt beam="2">  1       21 0.79340846E-01 0.23944906E+03</pdfrwt>
<totfact> 0.16360144E+04</totfact>
</mgrwt>
</event>
<event>
 5    0  0.1257040E+001  0.3036278E+03  0.7546771E-02  0.1083441E+00
         21   -1    0    0  504  501  0.00000000000E+00  0.00000000000E+00  0.15552471198E+03  0.15552471198E+03  0.00000000000E+00 0.  1.
         21   -1    0    0  503  502 -0.00000000000E+00 -0.00000000000E+00 -0.87570692290E+03  0.87570692290E+03  0.00000000000E+00 0.  1.
         25    1    1    2    0    0  0.22631366072E+03 -0.14631027783E+03 -0.95484351510E+02  0.31203658730E+03  0.12500000000E+03 0.  0.
         21    1    1    2  503  501 -0.27514534968E+03  0.11995020380E+03 -0.54291883831E+03  0.62036592414E+03  0.00000000000E+00 0.  1.
         21    1    1    2  504  502  0.48831688958E+02  0.26360074036E+02 -0.81779021101E+02  0.98829123451E+02  0.00000000000E+00 0.  1.
<mgrwt>
<rscale>  4 0.30362781E+03</rscale>
<asrwt>0</asrwt>
<pdfrwt beam="1">  1       21 0.23926879E-01 0.30362781E+03</pdfrwt>
<pdfrwt beam="2">  1       21 0.13472414E+00 0.30362781E+03</pdfrwt>
<totfact> 0.60535373E+03</totfact>
</mgrwt>
</event>
<event>
 5    0  0.1257040E+001  0.2802143E+03  0.7546771E-02  0.1095572E+00
         21   -1    0    0  502  501  0.00000000000E+00  0.00000000000E+00  0.69968758097E+02  0.69968758097E+02  0.00000000000E+00 0. -1.
         21   -1    0    0  504  502 -0.00000000000E+00 -0.00000000000E+00 -0.18311935058E+04  0.18311935058E+04  0.00000000000E+00 0. -1.
         25    1    1    2    0    0 -0.25489249703E+03 -0.64855514902E+02 -0.12596579350E+04  0.12928803255E+04  0.12500000000E+03 0.  0.
         21    1    1    2  503  501  0.23538370957E+03  0.78490069512E+02 -0.23857517689E+03  0.34421548015E+03  0.00000000000E+00 0. -1.
         21    1    1    2  504  503  0.19508787467E+02 -0.13634554611E+02 -0.26299163588E+03  0.26406645832E+03  0.00000000000E+00 0. -1.
<mgrwt>
<rscale>  4 0.28021427E+03</rscale>
<asrwt>0</asrwt>
<pdfrwt beam="1">  1       21 0.10764424E-01 0.28021427E+03</pdfrwt>
<pdfrwt beam="2">  1       21 0.28172208E+00 0.28021427E+03</pdfrwt>
<totfact> 0.28431154E+03</totfact>
</mgrwt>
</event>
<event>
 5    0  0.1257040E+001  0.3290935E+03  0.7546771E-02  0.1071539E+00
         21   -1    0    0  502  501  0.00000000000E+00  0.00000000000E+00  0.28710461023E+04  0.28710461023E+04  0.00000000000E+00 0.  1.
         21   -1    0    0  504  502 -0.00000000000E+00 -0.00000000000E+00 -0.35929197369E+03  0.35929197369E+03  0.00000000000E+00 0. -1.
         25    1    1    2    0    0  0.28754511167E+03 -0.51088537089E+02 -0.21222277370E+03  0.38204153641E+03  0.12500000000E+03 0.  0.
         21    1    1    2  503  501 -0.30199983069E+03 -0.44067953449E+02  0.27344963620E+04  0.27514752835E+04  0.00000000000E+00 0.  1.
         21    1    1    2  504  503  0.14454719027E+02  0.95156490538E+02 -0.10519459657E+02  0.96821256060E+02  0.00000000000E+00 0. -1.
<mgrwt>
<rscale>  4 0.32909353E+03</rscale>
<asrwt>0</asrwt>
<pdfrwt beam="1">  1       21 0.44169938E+00 0.32909353E+03</pdfrwt>
<pdfrwt beam="2">  1       21 0.55275690E-01 0.32909353E+03</pdfrwt>
<totfact> 0.11759275E+01</totfact>
</mgrwt>
</event>
<event>
 5    0  0.1257040E+001  0.2213236E+03  0.7546771E-02  0.1132900E+00
         21   -1    0    0  503  501  0.00000000000E+00  0.00000000000E+00  0.47486442186E+02  0.47486442186E+02  0.00000000000E+00 0. -1.
         21   -1    0    0  504  502 -0.00000000000E+00 -0.00000000000E+00 -0.22399782115E+04  0.22399782115E+04  0.00000000000E+00 0.  1.
         25    1    1    2    0    0  0.21520655533E+03  0.22366111658E+01 -0.18471755165E+04  0.18638672841E+04  0.12500000000E+03 0.  0.
         21    1    1    2  503  502 -0.36339315304E+02 -0.13498763512E+01 -0.16742459584E+03  0.17132823263E+03  0.00000000000E+00 0.  1.
         21    1    1    2  504  501 -0.17886724002E+03 -0.88673481462E+00 -0.17789165696E+03  0.25226913697E+03  0.00000000000E+00 0. -1.
<mgrwt>
<rscale>  4 0.22132358E+03</rscale>
<asrwt>0</asrwt>
<pdfrwt beam="1">  1       21 0.73056056E-02 0.22132358E+03</pdfrwt>
<pdfrwt beam="2">  1       21 0.34461208E+00 0.22132358E+03</pdfrwt>
<totfact> 0.25493544E+03</totfact>
</mgrwt>
</event>
<event>
 5    0  0.1257040E+001  0.2073207E+03  0.7546771E-02  0.1143705E+00
         21   -1    0    0  504  501  0.00000000000E+00  0.00000000000E+00  0.20851073352E+03  0.20851073352E+03  0.00000000000E+00 0.  1.
         21   -1    0    0  503  502 -0.00000000000E+00 -0.00000000000E+00 -0.49903902712E+03  0.49903902712E+03  0.00000000000E+00 0.  1.
         25    1    1    2    0    0  0.13628145017E+00 -0.21360707599E+03  0.25671037832E+02  0.24882122833E+03  0.12500000000E+03 0.  0.
         21    1    1    2  503  501 -0.29184123693E+02  0.80416234831E+02 -0.31073656396E+03  0.32229752727E+03  0.00000000000E+00 0.  1.
         21    1    1    2  504  502  0.29047842243E+02  0.13319084116E+03 -0.54627674649E+01  0.13643100504E+03  0.00000000000E+00 0.  1.
<mgrwt>
<rscale>  4 0.20732068E+03</rscale>
<asrwt>0</asrwt>
<pdfrwt beam="1">  1       21 0.32078574E-01 0.20732068E+03</pdfrwt>
<pdfrwt beam="2">  1       21 0.76775235E-01 0.20732068E+03</pdfrwt>
<totfact> 0.13970070E+04</totfact>
</mgrwt>
</event>
<event>
 5    0  0.1257040E+001  0.2823778E+03  0.7546771E-02  0.1094397E+00
         21   -1    0    0  504  501  0.00000000000E+00  0.00000000000E+00  0.35219101545E+03  0.35219101545E+03  0.00000000000E+00 0.  1.
         21   -1    0    0  503  502 -0.00000000000E+00 -0.00000000000E+00 -0.23998585755E+03  0.23998585755E+03  0.00000000000E+00 0.  1.
         25    1    1    2    0    0  0.14115127606E+02 -0.24476758635E+03  0.72761797424E+01  0.27529684151E+03  0.12500000000E+03 0.  0.
         21    1    1    2  503  501 -0.27524732843E+02 -0.19208744967E+02  0.20847181879E+02  0.39511919639E+02  0.00000000000E+00 0. -1.
         21    1    1    2  504  502  0.13409605236E+02  0.26397633131E+03  0.84081796285E+02  0.27736811185E+03  0.00000000000E+00 0.  1.
<mgrwt>
<rscale>  4 0.28237776E+03</rscale>
<asrwt>0</asrwt>
<pdfrwt beam="1">  1       21 0.54183233E-01 0.28237776E+03</pdfrwt>
<pdfrwt beam="2">  1       21 0.36920901E-01 0.28237776E+03</pdfrwt>
<totfact> 0.21774646E+04</totfact>
</mgrwt>
</event>
<event>
 5    0  0.1257040E+001  0.2923950E+03  0.7546771E-02  0.1089105E+00
         21   -1    0    0  503  501  0.00000000000E+00  0.00000000000E+00  0.21667675817E+03  0.21667675817E+03  0.00000000000E+00 0.  1.
         21   -1    0    0  504  502 -0.00000000000E+00 -0.00000000000E+00 -0.44668479830E+03  0.44668479830E+03  0.00000000000E+00 0.  1.
         25    1    1    2    0    0 -0.27083551896E+03  0.23238541436E+02 -0.10216560351E+03  0.31615616185E+03  0.12500000000E+03 0.  0.
         21    1    1    2  503  502  0.11818625569E+02 -0.19339899140E+02 -0.80804677862E+02  0.83923224280E+02  0.00000000000E+00 0.  1.
         21    1    1    2  504  501  0.25901689339E+03 -0.38986422964E+01 -0.47037758756E+02  0.26328217034E+03  0.00000000000E+00 0.  1.
<mgrwt>
<rscale>  4 0.29239499E+03</rscale>
<asrwt>0</asrwt>
<pdfrwt beam="1">  1       21 0.33334886E-01 0.29239499E+03</pdfrwt>
<pdfrwt beam="2">  1       21 0.68720738E-01 0.29239499E+03</pdfrwt>
<totfact> 0.15868343E+04</totfact>
</mgrwt>
</event>
<event>
 5    0  0.1257040E+001  0.2369802E+03  0.7546771E-02  0.1121821E+00
         21   -1    0    0  503  501  0.00000000000E+00  0.00000000000E+00  0.24646882631E+03  0.24646882631E+03  0.00000000000E+00 0. -1.
         21   -1    0    0  504  502 -0.00000000000E+00 -0.00000000000E+00 -0.49630273617E+03  0.49630273617E+03  0.00000000000E+00 0. -1.
         25    1    1    2    0    0 -0.10859815362E+03  0.18757096862E+03 -0.37591289704E+03  0.45156608973E+03  0.12500000000E+03 0.  0.
         21    1    1    2  503  502  0.20167489862E+02 -0.87881285371E+02 -0.21161875823E+02  0.92615727358E+02  0.00000000000E+00 0. -1.
         21    1    1    2  504  501  0.88430663754E+02 -0.99689683246E+02  0.14724086300E+03  0.19858974539E+03  0.00000000000E+00 0. -1.
<mgrwt>
<rscale>  4 0.23698021E+03</rscale>
<asrwt>0</asrwt>
<pdfrwt beam="1">  1       21 0.37918281E-01 0.23698021E+03</pdfrwt>
<pdfrwt beam="2">  1       21 0.76354266E-01 0.23698021E+03</pdfrwt>
<totfact> 0.99567048E+03</totfact>
</mgrwt>
</event>
<event>
 5    0  0.1257040E+001  0.3219911E+03  0.7546771E-02  0.1074737E+00
         21   -1    0    0  502  501  0.00000000000E+00  0.00000000000E+00  0.13084006504E+04  0.13084006504E+04  0.00000000000E+00 0.  1.
         21   -1    0    0  504  502 -0.00000000000E+00 -0.00000000000E+00 -0.71476697640E+03  0.71476697640E+03  0.00000000000E+00 0.  1.
         25    1    1    2    0    0 -0.44561618165E+02  0.31363362503E+03  0.30155091383E+03  0.45487332544E+03  0.12500000000E+03 0.  0.
         21    1    1    2  503  501  0.41285742849E-01 -0.22080721678E+02  0.89596579971E+03  0.89623784467E+03  0.00000000000E+00 0.  1.
         21    1    1    2  504  503  0.44520332422E+02 -0.29155290335E+03 -0.60388303957E+03  0.67205645665E+03  0.00000000000E+00 0.  1.
<mgrwt>
<rscale>  4 0.32199109E+03</rscale>
<asrwt>0</asrwt>
<pdfrwt beam="1">  1       21 0.20129241E+00 0.32199109E+03</pdfrwt>
<pdfrwt beam="2">  1       21 0.10996415E+00 0.32199109E+03</pdfrwt>
<totfact> 0.74405622E+01</totfact>
</mgrwt>
</event>
<event>
 5    0  0.1257040E+001  0.2518842E+03  0.7546771E-02  0.1112120E+00
         21   -1    0    0  502  501  0.00000000000E+00  0.00000000000E+00  0.36884755387E+03  0.36884755387E+03  0.00000000000E+00 0.  1.
         21   -1    0    0  504  502 -0.00000000000E+00 -0.00000000000E+00 -0.18269671886E+03  0.18269671886E+03  0.00000000000E+00 0.  1.
         25    1    1    2    0    0  0.17731732483E+03  0.12798131471E+03 -0.10819459594E+02  0.25211646378E+03  0.12500000000E+03 0.  0.
         21    1    1    2  503  501 -0.55523541023E+02 -0.72165389139E+02  0.70066858607E+02  0.11489156484E+03  0.00000000000E+00 0.  1.
         21    1    1    2  504  503 -0.12179378381E+03 -0.55815925576E+02  0.12690343600E+03  0.18453624411E+03  0.00000000000E+00 0.  1.
<mgrwt>
<rscale>  4 0.25188420E+03</rscale>
<asrwt>0</asrwt>
<pdfrwt beam="1">  1       21 0.56745777E-01 0.25188420E+03</pdfrwt>
<pdfrwt beam="2">  1       21 0.28107188E-01 0.25188420E+03</pdfrwt>
<totfact> 0.34304201E+04</totfact>
</mgrwt>
</event>
<event>
 5    0  0.1257040E+001  0.2210295E+03  0.7546771E-02  0.1133118E+00
         21   -1    0    0  502  501  0.00000000000E+00  0.00000000000E+00  0.15224295319E+03  0.15224295319E+03  0.00000000000E+00 0.  1.
         21   -1    0    0  504  502 -0.00000000000E+00 -0.00000000000E+00 -0.56505892543E+03  0.56505892543E+03  0.00000000000E+00 0. -1.
         25    1    1    2    0    0 -0.10619942706E+03  0.19099039549E+03 -0.67239436246E+02  0.26057972151E+03  0.12500000000E+03 0.  0.
         21    1    1    2  503  501  0.44817331867E+02 -0.26937185528E+02  0.16225862434E+02  0.54749281380E+02  0.00000000000E+00 0. -1.
         21    1    1    2  504  503  0.61382095195E+02 -0.16405320996E+03 -0.36180239844E+03  0.40197287573E+03  0.00000000000E+00 0. -1.
<mgrwt>
<rscale>  4 0.22102954E+03</rscale>
<asrwt>0</asrwt>
<pdfrwt beam="1">  1       21 0.23421993E-01 0.22102954E+03</pdfrwt>
<pdfrwt beam="2">  1       21 0.86932142E-01 0.22102954E+03</pdfrwt>
<totfact> 0.19186814E+04</totfact>
</mgrwt>
</event>
<event>
 5    0  0.1257040E+001  0.2978639E+03  0.7546771E-02  0.1086313E+00
         21   -1    0    0  504  501  0.00000000000E+00  0.00000000000E+00  0.13338884080E+04  0.13338884080E+04  0.00000000000E+00 0. -1.
         21   -1    0    0  503  502 -0.00000000000E+00 -0.00000000000E+00 -0.42981084766E+03  0.42981084766E+03  0.00000000000E+00 0. -1.
         25    1    1    2    0    0 -0.97857548064E+02  0.25143004725E+03 -0.34741474525E+03  0.45729112564E+03  0.12500000000E+03 0.  0.
         21    1    1    2  503  501  0.22033880481E+02  0.81439327200E+01 -0.24683393148E+01  0.23620081036E+02  0.00000000000E+00 0.  1.
         21    1    1    2  504  502  0.75823667584E+02 -0.25957397997E+03  0.12539606449E+04  0.12827880490E+04  0.00000000000E+00 0. -1.
<mgrwt>
<rscale>  4 0.29786386E+03</rscale>
<asrwt>0</asrwt>
<pdfrwt beam="1">  1       21 0.20521360E+00 0.29786386E+03</pdfrwt>
<pdfrwt beam="2">  1       21 0.66124746E-01 0.29786386E+03</pdfrwt>
<totfact> 0.23362177E+02</totfact>
</mgrwt>
</event>
<event>
 5    0  0.1257040E+001  0.2029035E+03  0.7546771E-02  0.1147312E+00
         21   -1    0    0  504  501  0.00000000000E+00  0.00000000000E+00  0.81637204373E+03  0.81637204373E+03  0.00000000000E+00 0.  1.
         21   -1    0    0  503  502 -0.00000000000E+00 -0.00000000000E+00 -0.18168880321E+03  0.18168880321E+03  0.00000000000E+00 0.  1.
         25    1    1    2    0    0 -0.26588038442E+03  0.11201213024E+03  0.10274195208E+03  0.33078694783E+03  0.12500000000E+03 0.  0.
         21    1    1    2  503  501  0.12149325785E+03 -0.79517844762E+02  0.35829742530E+02  0.14955758018E+03  0.00000000000E+00 0.  1.
         21    1    1    2  504  502  0.14438712657E+03 -0.32494285476E+02  0.49611154590E+03  0.51771631893E+03  0.00000000000E+00 0.  1.
<mgrwt>
<rscale>  4 0.20290350E+03</rscale>
<asrwt>0</asrwt>
<pdfrwt beam="1">  1       21 0.12559570E+00 0.20290350E+03</pdfrwt>
<pdfrwt beam="2">  1       21 0.27952124E-01 0.20290350E+03</pdfrwt>
<totfact> 0.57153946E+03</totfact>
</mgrwt>
</event>
<event>
 5    0  0.1257040E+001  0.3757019E+03  0.7546771E-02  0.1052534E+00
         21   -1    0    0  503  501  0.00000000000E+00  0.00000000000E+00  0.93084506636E+03  0.93084506636E+03  0.00000000000E+00 0. -1.
         21   -1    0    0  504  502 -0.00000000000E+00 -0.00000000000E+00 -0.17817167701E+03  0.17817167701E+03  0.00000000000E+00 0.  1.
         25    1    1    2    0    0 -0.16302946162E+03 -0.29146835342E+03  0.51263197180E+03  0.62445892172E+03  0.12500000000E+03 0.  0.
         21    1    1    2  503  502  0.20523856097E+03  0.30184059336E+03  0.17124588783E+03  0.40318204921E+03  0.00000000000E+00 0.  1.
         21    1    1    2  504  501 -0.42209099357E+02 -0.10372239937E+02  0.68795529728E+02  0.81375772441E+02  0.00000000000E+00 0. -1.
<mgrwt>
<rscale>  4 0.37570188E+03</rscale>
<asrwt>0</asrwt>
<pdfrwt beam="1">  1       21 0.14320693E+00 0.37570188E+03</pdfrwt>
<pdfrwt beam="2">  1       21 0.27411028E-01 0.37570188E+03</pdfrwt>
<totfact> 0.38281214E+03</totfact>
</mgrwt>
</event>
<event>
 5    0  0.1257040E+001  0.2417285E+03  0.7546771E-02  0.1118647E+00
         21   -1    0    0  502  501  0.00000000000E+00  0.00000000000E+00  0.11059975817E+03  0.11059975817E+03  0.00000000000E+00 0. -1.
         21   -1    0    0  504  502 -0.00000000000E+00 -0.00000000000E+00 -0.12226345920E+04  0.12226345920E+04  0.00000000000E+00 0.  1.
         25    1    1    2    0    0 -0.18397676419E+03  0.14952339403E+03 -0.13738868967E+03  0.30117328430E+03  0.12500000000E+03 0.  0.
         21    1    1    2  503  501  0.35326146719E+02 -0.11130081788E+02 -0.57622072812E+00  0.37042507919E+02  0.00000000000E+00 0. -1.
         21    1    1    2  504  503  0.14865061747E+03 -0.13839331225E+03 -0.97406992340E+03  0.99501855792E+03  0.00000000000E+00 0.  1.
<mgrwt>
<rscale>  4 0.24172852E+03</rscale>
<asrwt>0</asrwt>
<pdfrwt beam="1">  1       21 0.17015348E-01 0.24172852E+03</pdfrwt>
<pdfrwt beam="2">  1       21 0.18809762E+00 0.24172852E+03</pdfrwt>
<totfact> 0.48008133E+03</totfact>
</mgrwt>
</event>
<event>
 5    0  0.1257040E+001  0.3069788E+03  0.7546771E-02  0.1081803E+00
         21   -1    0    0  503  501  0.00000000000E+00  0.00000000000E+00  0.64793918488E+03  0.64793918488E+03  0.00000000000E+00 0.  1.
         21   -1    0    0  504  502 -0.00000000000E+00 -0.00000000000E+00 -0.38011854169E+03  0.38011854169E+03  0.00000000000E+00 0.  1.
         25    1    1    2    0    0 -0.26454123152E+03  0.50812510118E+02 -0.47034058073E+02  0.30066788484E+03  0.12500000000E+03 0.  0.
         21    1    1    2  503  502  0.29429454837E+03  0.50156237104E+02 -0.87818108728E+02  0.31118635822E+03  0.00000000000E+00 0.  1.
         21    1    1    2  504  501 -0.29753316853E+02 -0.10096874722E+03  0.40267280999E+03  0.41620348351E+03  0.00000000000E+00 0.  1.
<mgrwt>
<rscale>  4 0.30697884E+03</rscale>
<asrwt>0</asrwt>
<pdfrwt beam="1">  1       21 0.99682952E-01 0.30697884E+03</pdfrwt>
<pdfrwt beam="2">  1       21 0.58479776E-01 0.30697884E+03</pdfrwt>
<totfact> 0.20854699E+03</totfact>
</mgrwt>
</event>
<event>
 5    0  0.1257040E+001  0.2421090E+03  0.7546771E-02  0.1118396E+00
         21   -1    0    0  504  501  0.00000000000E+00  0.00000000000E+00  0.21304297027E+03  0.21304297027E+03  0.00000000000E+00 0.  1.
         21   -1    0    0  503  502 -0.00000000000E+00 -0.00000000000E+00 -0.68468338153E+03  0.68468338153E+03  0.00000000000E+00 0.  1.
         25    1    1    2    0    0 -0.18160393070E+03  0.99310551983E+02 -0.57025942233E+03  0.61940566847E+03  0.12500000000E+03 0.  0.
         21    1    1    2  503  501 -0.18189795281E+02 -0.27737951678E+02 -0.16320348293E+02  0.36967774941E+02  0.00000000000E+00 0. -1.
         21    1    1    2  504  502  0.19979372598E+03 -0.71572600305E+02  0.11493935936E+03  0.24135290838E+03  0.00000000000E+00 0.  1.
<mgrwt>
<rscale>  4 0.24210898E+03</rscale>
<asrwt>0</asrwt>
<pdfrwt beam="1">  1       21 0.32775841E-01 0.24210898E+03</pdfrwt>
<pdfrwt beam="2">  1       21 0.10533591E+00 0.24210898E+03</pdfrwt>
<totfact> 0.62738142E+03</totfact>
</mgrwt>
</event>
<event>
 5    0  0.1257040E+001  0.2460617E+03  0.7546771E-02  0.1115819E+00
         21   -1    0    0  504  501  0.00000000000E+00  0.00000000000E+00  0.73651647793E+03  0.73651647793E+03  0.00000000000E+00 0.  1.
         21   -1    0    0  501  502 -0.00000000000E+00 -0.00000000000E+00 -0.16390298664E+03  0.16390298664E+03  0.00000000000E+00 0.  1.
         25    1    1    2    0    0  0.10175475706E+03  0.18045968107E+03  0.26585593749E+03  0.35947754669E+03  0.12500000000E+03 0.  0.
         21    1    1    2  503  502 -0.35984167553E+02 -0.21700654361E+03  0.37798563096E+03  0.43733263942E+03  0.00000000000E+00 0.  1.
         21    1    1    2  504  503 -0.65770589505E+02  0.36546862549E+02 -0.71228077165E+02  0.10360927846E+03  0.00000000000E+00 0.  1.
<mgrwt>
<rscale>  4 0.24606175E+03</rscale>
<asrwt>0</asrwt>
<pdfrwt beam="1">  1       21 0.11331023E+00 0.24606175E+03</pdfrwt>
<pdfrwt beam="2">  1       21 0.25215845E-01 0.24606175E+03</pdfrwt>
<totfact> 0.87387236E+03</totfact>
</mgrwt>
</event>
<event>
 5    0  0.1257040E+001  0.1878475E+03  0.7546771E-02  0.1160417E+00
         21   -1    0    0  502  501  0.00000000000E+00  0.00000000000E+00  0.18820924514E+03  0.18820924514E+03  0.00000000000E+00 0.  1.
         21   -1    0    0  504  502 -0.00000000000E+00 -0.00000000000E+00 -0.69417808752E+03  0.69417808752E+03  0.00000000000E+00 0.  1.
         25    1    1    2    0    0 -0.46671060399E+02 -0.19671065773E+03  0.71085390875E+02  0.24809555324E+03  0.12500000000E+03 0.  0.
         21    1    1    2  503  501  0.12117207366E+02  0.64212037233E+02 -0.32874463164E+02  0.73148771475E+02  0.00000000000E+00 0. -1.
         21    1    1    2  504  503  0.34553853033E+02  0.13249862049E+03 -0.54417977009E+03  0.56114300794E+03  0.00000000000E+00 0.  1.
<mgrwt>
<rscale>  4 0.18784750E+03</rscale>
<asrwt>0</asrwt>
<pdfrwt beam="1">  1       21 0.28955268E-01 0.18784750E+03</pdfrwt>
<pdfrwt beam="2">  1       21 0.10679663E+00 0.18784750E+03</pdfrwt>
<totfact> 0.80363137E+03</totfact>
</mgrwt>
</event>
<event>
 5    0  0.1257040E+001  0.2631004E+03  0.7546771E-02  0.1105295E+00
         21   -1    0    0  502  501  0.00000000000E+00  0.00000000000E+00  0.28230777368E+03  0.28230777368E+03  0.00000000000E+00 0. -1.
         21   -1    0    0  504  502 -0.00000000000E+00 -0.00000000000E+00 -0.50265850985E+03  0.50265850985E+03  0.00000000000E+00 0. -1.
         25    1    1    2    0    0  0.10562108955E+03 -0.22542113263E+03 -0.36320250173E+03  0.45772432627E+03  0.12500000000E+03 0.  0.
         21    1    1    2  503  501 -0.55336939925E+02  0.14813448789E+03  0.16895585380E+03  0.23141323202E+03  0.00000000000E+00 0. -1.
         21    1    1    2  504  503 -0.50284149623E+02  0.77286644745E+02 -0.26104088233E+02  0.95828725243E+02  0.00000000000E+00 0. -1.
<mgrwt>
<rscale>  4 0.26310037E+03</rscale>
<asrwt>0</asrwt>
<pdfrwt beam="1">  1       21 0.43431966E-01 0.26310037E+03</pdfrwt>
<pdfrwt beam="2">  1       21 0.77332077E-01 0.26310037E+03</pdfrwt>
<totfact> 0.72294639E+03</totfact>
</mgrwt>
</event>
<event>
 5    0  0.1257040E+001  0.2578082E+03  0.7546771E-02  0.1108467E+00
         21   -1    0    0  503  501  0.00000000000E+00  0.00000000000E+00  0.17656727476E+03  0.17656727476E+03  0.00000000000E+00 0.  1.
         21   -1    0    0  504  502 -0.00000000000E+00 -0.00000000000E+00 -0.11343146774E+04  0.11343146774E+04  0.00000000000E+00 0.  1.
         25    1    1    2    0    0 -0.22548342317E+03 -0.45528035829E+02 -0.86378448184E+03  0.90258750669E+03  0.12500000000E+03 0.  0.
         21    1    1    2  503  502  0.39185099927E+00  0.63669842821E+02 -0.16067031374E+03  0.17282636416E+03  0.00000000000E+00 0. -1.
         21    1    1    2  504  501  0.22509157217E+03 -0.18141806992E+02  0.66707392965E+02  0.23546808127E+03  0.00000000000E+00 0.  1.
<mgrwt>
<rscale>  4 0.25780824E+03</rscale>
<asrwt>0</asrwt>
<pdfrwt beam="1">  1       21 0.27164196E-01 0.25780824E+03</pdfrwt>
<pdfrwt beam="2">  1       21 0.17450995E+00 0.25780824E+03</pdfrwt>
<totfact> 0.24254314E+03</totfact>
</mgrwt>
</event>
<event>
 5    0  0.1257040E+001  0.2660465E+03  0.7546771E-02  0.1103564E+00
         21   -1    0    0  502  501  0.00000000000E+00  0.00000000000E+00  0.11332301851E+03  0.11332301851E+03  0.00000000000E+00 0.  1.
         21   -1    0    0  504  502 -0.00000000000E+00 -0.00000000000E+00 -0.76243052700E+03  0.76243052700E+03  0.00000000000E+00 0.  1.
         25    1    1    2    0    0 -0.75035289769E+02 -0.23929849863E+03 -0.16572411760E+03  0.32555114699E+03  0.12500000000E+03 0.  0.
         21    1    1    2  503  501 -0.76637354094E+00  0.22558428152E+02 -0.11303139240E+02  0.25243434112E+02  0.00000000000E+00 0.  1.
         21    1    1    2  504  503  0.75801663310E+02  0.21674007047E+03 -0.47208025165E+03  0.52495896441E+03  0.00000000000E+00 0.  1.
<mgrwt>
<rscale>  4 0.26604647E+03</rscale>
<asrwt>0</asrwt>
<pdfrwt beam="1">  1       21 0.17434311E-01 0.26604647E+03</pdfrwt>
<pdfrwt beam="2">  1       21 0.11729700E+00 0.26604647E+03</pdfrwt>
<totfact> 0.15941762E+04</totfact>
</mgrwt>
</event>
