<event>
 5    0  0.1141006E+000  0.2802570E+03  0.7546771E-02  0.1095549E+00
          1   -1    0    0  503    0 -0.00000000000E+00  0.00000000000E+00  0.75785767205E+03  0.75785767205E+03  0.00000000000E+00 0.  1.
         21   -1    0    0  501  502  0.00000000000E+00 -0.00000000000E+00 -0.22359373008E+03  0.22359373008E+03  0.00000000000E+00 0. -1.
         25    1    1    2    0    0  0.14966855594E+03 -0.20129163205E+03 -0.99257512422E+02  0.29731473482E+03  0.12500000000E+03 0.  0.
         21    1    1    2  503  502 -0.22957574311E+02  0.50262896110E+02  0.20716390559E+03  0.21440683927E+03  0.00000000000E+00 0.  1.
          1    1    1    2  501    0 -0.12671098163E+03  0.15102873594E+03  0.42635754879E+03  0.46972982805E+03  0.00000000000E+00 0.  1.
<mgrwt>
<rscale>  4 0.28025702E+03</rscale>
<asrwt>0</asrwt>
<pdfrwt beam="1">  1       21 0.34399036E-01 0.28025702E+03</pdfrwt>
<pdfrwt beam="2">  1        1 0.11659349E+00 0.28025702E+03</pdfrwt>
<totfact> 0.22004896E+03</totfact>
</mgrwt>
</event>
<event>
 5    0  0.1141006E+000  0.2569976E+03  0.7546771E-02  0.1108961E+00
         21   -1    0    0  503  502  0.00000000000E+00  0.00000000000E+00  0.90834574787E+03  0.90834574787E+03  0.00000000000E+00 0. -1.
         -2   -1    0    0    0  501 -0.00000000000E+00 -0.00000000000E+00 -0.20310881732E+03  0.20310881732E+03  0.00000000000E+00 0.  1.
         25    1    1    2    0    0 -0.45959107741E+02 -0.22081303678E+03  0.80165069415E+03  0.84210419321E+03  0.12500000000E+03 0.  0.
         21    1    1    2  503  501  0.24023388980E+02  0.34192461516E+01 -0.34630209043E+02  0.42285527556E+02  0.00000000000E+00 0. -1.
         -2    1    1    2    0  502  0.21935718760E+02  0.21739379063E+03 -0.61783554553E+02  0.22706484443E+03  0.00000000000E+00 0.  1.
<mgrwt>
<rscale>  4 0.25699758E+03</rscale>
<asrwt>0</asrwt>
<pdfrwt beam="1">  1       21 0.13974550E+00 0.25699758E+03</pdfrwt>
<pdfrwt beam="2">  1       -2 0.31247511E-01 0.25699758E+03</pdfrwt>
<totfact> 0.26466360E+02</totfact>
</mgrwt>
</event>
<event>
 5    0  0.1141006E+000  0.4613452E+03  0.7546771E-02  0.1024392E+00
          2   -1    0    0  503    0 -0.00000000000E+00  0.00000000000E+00  0.39269889772E+04  0.39269889772E+04  0.00000000000E+00 0.  1.
         21   -1    0    0  501  502  0.00000000000E+00 -0.00000000000E+00 -0.47416602802E+03  0.47416602802E+03  0.00000000000E+00 0.  1.
         25    1    1    2    0    0 -0.12115852195E+03 -0.42724115079E+03 -0.34492911011E+03  0.57603426927E+03  0.12500000000E+03 0.  0.
         21    1    1    2  503  502  0.41692309203E+02  0.32224347402E+02  0.36002176642E+03  0.36385756761E+03  0.00000000000E+00 0. -1.
          2    1    1    2  501    0  0.79466212748E+02  0.39501680338E+03  0.34377302929E+04  0.34612631684E+04  0.00000000000E+00 0.  1.
<mgrwt>
<rscale>  4 0.46134519E+03</rscale>
<asrwt>0</asrwt>
<pdfrwt beam="1">  1       21 0.72948622E-01 0.46134519E+03</pdfrwt>
<pdfrwt beam="2">  1        2 0.60415213E+00 0.46134519E+03</pdfrwt>
<totfact> 0.90940061E+00</totfact>
</mgrwt>
</event>
<event>
 5    0  0.1141006E+000  0.3433532E+03  0.7546771E-02  0.1065377E+00
          1   -1    0    0  503    0 -0.00000000000E+00  0.00000000000E+00  0.18198654910E+04  0.18198654910E+04  0.00000000000E+00 0. -1.
         21   -1    0    0  501  502  0.00000000000E+00 -0.00000000000E+00 -0.33040015370E+03  0.33040015370E+03  0.00000000000E+00 0. -1.
         25    1    1    2    0    0  0.24516738245E+03  0.20318038507E+03 -0.21184656311E+03  0.40235964086E+03  0.12500000000E+03 0.  0.
         21    1    1    2  503  502  0.13168105005E+02  0.24487732231E+02  0.27733894204E+02  0.39271069592E+02  0.00000000000E+00 0. -1.
          1    1    1    2  501    0 -0.25833548745E+03 -0.22766811730E+03  0.16735780062E+04  0.17086349342E+04  0.00000000000E+00 0. -1.
<mgrwt>
<rscale>  4 0.34335323E+03</rscale>
<asrwt>0</asrwt>
<pdfrwt beam="1">  1       21 0.50830794E-01 0.34335323E+03</pdfrwt>
<pdfrwt beam="2">  1        1 0.27997930E+00 0.34335323E+03</pdfrwt>
<totfact> 0.16855742E+02</totfact>
</mgrwt>
</event>
<event>
 5    0  0.1141006E+000  0.1766186E+03  0.7546771E-02  0.1171116E+00
          1   -1    0    0  503    0 -0.00000000000E+00  0.00000000000E+00  0.23045496489E+03  0.23045496489E+03  0.00000000000E+00 0. -1.
         21   -1    0    0  501  502  0.00000000000E+00 -0.00000000000E+00 -0.53037549736E+03  0.53037549736E+03  0.00000000000E+00 0. -1.
         25    1    1    2    0    0  0.19780397383E+03 -0.95352346699E+02 -0.31289420788E+03  0.40217691059E+03  0.12500000000E+03 0.  0.
         21    1    1    2  503  502 -0.10578188846E+03  0.75435232913E+02  0.14615358203E+03  0.19555345006E+03  0.00000000000E+00 0. -1.
          1    1    1    2  501    0 -0.92022085370E+02  0.19917113786E+02 -0.13317990662E+03  0.16310010161E+03  0.00000000000E+00 0. -1.
<mgrwt>
<rscale>  4 0.17661861E+03</rscale>
<asrwt>0</asrwt>
<pdfrwt beam="1">  1       21 0.81596229E-01 0.17661861E+03</pdfrwt>
<pdfrwt beam="2">  1        1 0.35454611E-01 0.17661861E+03</pdfrwt>
<totfact> 0.17639961E+03</totfact>
</mgrwt>
</event>
<event>
 5    0  0.1141006E+000  0.4266304E+03  0.7546771E-02  0.1034930E+00
         21   -1    0    0  501  502  0.00000000000E+00  0.00000000000E+00  0.91519355863E+03  0.91519355863E+03  0.00000000000E+00 0. -1.
          2   -1    0    0  503    0 -0.00000000000E+00 -0.00000000000E+00 -0.83948627422E+03  0.83948627422E+03  0.00000000000E+00 0. -1.
         25    1    1    2    0    0 -0.17439502419E+03 -0.36777265170E+03  0.77653053158E+03  0.88560432151E+03  0.12500000000E+03 0.  0.
         21    1    1    2  503  502  0.73723225068E+02 -0.46800328883E+02 -0.11899501273E+03  0.14759809535E+03  0.00000000000E+00 0. -1.
          2    1    1    2  501    0  0.10067179912E+03  0.41457298058E+03 -0.58182823445E+03  0.72147741598E+03  0.00000000000E+00 0. -1.
<mgrwt>
<rscale>  4 0.42663036E+03</rscale>
<asrwt>0</asrwt>
<pdfrwt beam="1">  1       21 0.14079901E+00 0.42663036E+03</pdfrwt>
<pdfrwt beam="2">  1        2 0.12915174E+00 0.42663036E+03</pdfrwt>
<totfact> 0.13011997E+02</totfact>
</mgrwt>
</event>
<event>
 5    0  0.1141006E+000  0.2965152E+03  0.7546771E-02  0.1086996E+00
         21   -1    0    0  503  502  0.00000000000E+00  0.00000000000E+00  0.90966516061E+03  0.90966516061E+03  0.00000000000E+00 0. -1.
         -1   -1    0    0    0  501 -0.00000000000E+00 -0.00000000000E+00 -0.32066720856E+03  0.32066720856E+03  0.00000000000E+00 0.  1.
         25    1    1    2    0    0  0.19725329473E+03 -0.17299574176E+03  0.69479730976E+03  0.75312992942E+03  0.12500000000E+03 0.  0.
         21    1    1    2  503  501 -0.22868433741E+02 -0.11468467902E+03  0.18834454805E+02  0.11844947257E+03  0.00000000000E+00 0. -1.
         -1    1    1    2    0  502 -0.17438486098E+03  0.28768042078E+03 -0.12463381251E+03  0.35875296718E+03  0.00000000000E+00 0.  1.
<mgrwt>
<rscale>  4 0.29651517E+03</rscale>
<asrwt>0</asrwt>
<pdfrwt beam="1">  1       21 0.13994849E+00 0.29651517E+03</pdfrwt>
<pdfrwt beam="2">  1       -1 0.49333417E-01 0.29651517E+03</pdfrwt>
<totfact> 0.13122161E+02</totfact>
</mgrwt>
</event>
<event>
 5    0  0.1377697E+000  0.2608097E+03  0.7546771E-02  0.1106658E+00
         21   -1    0    0  503  502  0.00000000000E+00  0.00000000000E+00  0.13294282424E+04  0.13294282424E+04  0.00000000000E+00 0. -1.
         -1   -1    0    0    0  501 -0.00000000000E+00 -0.00000000000E+00 -0.18576488141E+04  0.18576488141E+04  0.00000000000E+00 0. -1.
         25    1    1    2    0    0 -0.90732230269E+02  0.21629281612E+03  0.12354673342E+04  0.12637323506E+04  0.12500000000E+03 0.  0.
         21    1    1    2  503  501  0.20255089062E+03 -0.88696627921E+02 -0.86245181051E+02  0.23734402531E+03  0.00000000000E+00 0. -1.
         -1    1    1    2    0  502 -0.11181866035E+03 -0.12759618819E+03 -0.16774427248E+04  0.16860006807E+04  0.00000000000E+00 0. -1.
<mgrwt>
<rscale>  4 0.26080966E+03</rscale>
<asrwt>0</asrwt>
<pdfrwt beam="1">  1       21 0.20452742E+00 0.26080966E+03</pdfrwt>
<pdfrwt beam="2">  1       -1 0.28579212E+00 0.26080966E+03</pdfrwt>
<totfact> 0.52493705E-01</totfact>
</mgrwt>
</event>
<event>
 5    0  0.1141006E+000  0.2487438E+03  0.7546771E-02  0.1114101E+00
         21   -1    0    0  503  502  0.00000000000E+00  0.00000000000E+00  0.32156142112E+03  0.32156142112E+03  0.00000000000E+00 0.  1.
         -3   -1    0    0    0  501 -0.00000000000E+00 -0.00000000000E+00 -0.99437550853E+03  0.99437550853E+03  0.00000000000E+00 0.  1.
         25    1    1    2    0    0 -0.21516364579E+03 -0.55635835989E+02  0.25088392890E+03  0.35771285481E+03  0.12500000000E+03 0.  0.
         21    1    1    2  503  501  0.90595226845E+02 -0.37172266061E+02 -0.41131310550E+03  0.42280934622E+03  0.00000000000E+00 0.  1.
         -3    1    1    2    0  502  0.12456841895E+03  0.92808102049E+02 -0.51238491081E+03  0.53541472863E+03  0.00000000000E+00 0.  1.
<mgrwt>
<rscale>  4 0.24874381E+03</rscale>
<asrwt>0</asrwt>
<pdfrwt beam="1">  1       21 0.49470988E-01 0.24874381E+03</pdfrwt>
<pdfrwt beam="2">  1       -3 0.15298085E+00 0.24874381E+03</pdfrwt>
<totfact> 0.61474306E+01</totfact>
</mgrwt>
</event>
<event>
 5    0  0.1141006E+000  0.2278130E+03  0.7546771E-02  0.1128189E+00
          2   -1    0    0  503    0 -0.00000000000E+00  0.00000000000E+00  0.14087756675E+04  0.14087756675E+04  0.00000000000E+00 0. -1.
         21   -1    0    0  501  502  0.00000000000E+00 -0.00000000000E+00 -0.65490430987E+02  0.65490430987E+02  0.00000000000E+00 0. -1.
         25    1    1    2    0    0 -0.21381687036E+03  0.59524666132E+02  0.10451391619E+04  0.10757331025E+04  0.12500000000E+03 0.  0.
         21    1    1    2  503  502  0.31670932240E+02 -0.25807196579E+02  0.16608939392E+03  0.17104018861E+03  0.00000000000E+00 0.  1.
          2    1    1    2  501    0  0.18214593811E+03 -0.33717469553E+02  0.13205668067E+03  0.22749280744E+03  0.00000000000E+00 0. -1.
<mgrwt>
<rscale>  4 0.22781299E+03</rscale>
<asrwt>0</asrwt>
<pdfrwt beam="1">  1       21 0.10075452E-01 0.22781299E+03</pdfrwt>
<pdfrwt beam="2">  1        2 0.21673469E+00 0.22781299E+03</pdfrwt>
<totfact> 0.15552895E+04</totfact>
</mgrwt>
</event>
<event>
 5    0  0.1141006E+000  0.2469954E+03  0.7546771E-02  0.1115219E+00
         21   -1    0    0  503  502  0.00000000000E+00  0.00000000000E+00  0.13457494256E+03  0.13457494256E+03  0.00000000000E+00 0.  1.
         -3   -1    0    0    0  501 -0.00000000000E+00 -0.00000000000E+00 -0.53308863480E+03  0.53308863480E+03  0.00000000000E+00 0. -1.
         25    1    1    2    0    0  0.13056069395E+03 -0.17638665363E+03 -0.79511746625E+02  0.26477436476E+03  0.12500000000E+03 0.  0.
         21    1    1    2  503  501  0.79610403969E+01  0.26517630090E+02 -0.99032558434E+02  0.10283000778E+03  0.00000000000E+00 0. -1.
         -3    1    1    2    0  502 -0.13852173435E+03  0.14986902354E+03 -0.21996938718E+03  0.30005920483E+03  0.00000000000E+00 0. -1.
<mgrwt>
<rscale>  4 0.24699541E+03</rscale>
<asrwt>0</asrwt>
<pdfrwt beam="1">  1       21 0.20703837E-01 0.24699541E+03</pdfrwt>
<pdfrwt beam="2">  1       -3 0.82013636E-01 0.24699541E+03</pdfrwt>
<totfact> 0.15054016E+03</totfact>
</mgrwt>
</event>
<event>
 5    0  0.1141006E+000  0.2467442E+03  0.7546771E-02  0.1115380E+00
         21   -1    0    0  501  502  0.00000000000E+00  0.00000000000E+00  0.11939464051E+04  0.11939464051E+04  0.00000000000E+00 0.  1.
          1   -1    0    0  503    0 -0.00000000000E+00 -0.00000000000E+00 -0.37018310694E+03  0.37018310694E+03  0.00000000000E+00 0.  1.
         25    1    1    2    0    0 -0.19614092695E+03 -0.10126362624E+03  0.10364795123E+04  0.10670709277E+04  0.12500000000E+03 0.  0.
         21    1    1    2  503  502  0.14504754974E+02  0.62669710227E+02 -0.28917438464E+03  0.29624264587E+03  0.00000000000E+00 0.  1.
          1    1    1    2  501    0  0.18163617198E+03  0.38593916009E+02  0.76458170482E+02  0.20081593850E+03  0.00000000000E+00 0.  1.
<mgrwt>
<rscale>  4 0.24674417E+03</rscale>
<asrwt>0</asrwt>
<pdfrwt beam="1">  1       21 0.18368406E+00 0.24674417E+03</pdfrwt>
<pdfrwt beam="2">  1        1 0.56951248E-01 0.24674417E+03</pdfrwt>
<totfact> 0.12100498E+02</totfact>
</mgrwt>
</event>
<event>
 5    0  0.1141006E+000  0.5921494E+03  0.7546771E-02  0.9921829E-01
         21   -1    0    0  501  502  0.00000000000E+00  0.00000000000E+00  0.25009557092E+03  0.25009557092E+03  0.00000000000E+00 0.  1.
          2   -1    0    0  503    0 -0.00000000000E+00 -0.00000000000E+00 -0.17678872514E+04  0.17678872514E+04  0.00000000000E+00 0.  1.
         25    1    1    2    0    0  0.26027768860E+03  0.49953227831E+03 -0.32083507873E+03  0.66017961192E+03  0.12500000000E+03 0.  0.
         21    1    1    2  503  502 -0.29282187469E+02  0.38709923808E+02 -0.48526315621E+02  0.68634597777E+02  0.00000000000E+00 0. -1.
          2    1    1    2  501    0 -0.23099550113E+03 -0.53824220211E+03 -0.11484302861E+04  0.12891686126E+04  0.00000000000E+00 0.  1.
<mgrwt>
<rscale>  4 0.59214944E+03</rscale>
<asrwt>0</asrwt>
<pdfrwt beam="1">  1       21 0.38476241E-01 0.59214944E+03</pdfrwt>
<pdfrwt beam="2">  1        2 0.27198266E+00 0.59214944E+03</pdfrwt>
<totfact> 0.71033544E+02</totfact>
</mgrwt>
</event>
<event>
 5    0  0.1141006E+000  0.2972083E+03  0.7546771E-02  0.1086645E+00
         -3   -1    0    0    0  501 -0.00000000000E+00  0.00000000000E+00  0.29288968429E+03  0.29288968429E+03  0.00000000000E+00 0.  1.
         21   -1    0    0  503  502  0.00000000000E+00 -0.00000000000E+00 -0.52122688186E+03  0.52122688186E+03  0.00000000000E+00 0.  1.
         25    1    1    2    0    0  0.26270875670E+03  0.66190948817E+02 -0.38288872029E+03  0.48541312784E+03  0.12500000000E+03 0.  0.
         21    1    1    2  503  501 -0.12647226790E+02  0.21637558608E+02  0.12907197228E+02  0.28190991970E+02  0.00000000000E+00 0.  1.
         -3    1    1    2    0  502 -0.25006152991E+03 -0.87828507425E+02  0.14164432550E+03  0.30051244634E+03  0.00000000000E+00 0.  1.
<mgrwt>
<rscale>  4 0.29720828E+03</rscale>
<asrwt>0</asrwt>
<pdfrwt beam="1">  1       21 0.80188751E-01 0.29720828E+03</pdfrwt>
<pdfrwt beam="2">  1       -3 0.45059952E-01 0.29720828E+03</pdfrwt>
<totfact> 0.32420769E+02</totfact>
</mgrwt>
</event>
<event>
 5    0  0.1141006E+000  0.2788209E+03  0.7546771E-02  0.1096335E+00
          3   -1    0    0  503    0 -0.00000000000E+00  0.00000000000E+00  0.13834302217E+04  0.13834302217E+04  0.00000000000E+00 0.  1.
         21   -1    0    0  501  502  0.00000000000E+00 -0.00000000000E+00 -0.68841103408E+02  0.68841103408E+02  0.00000000000E+00 0.  1.
         25    1    1    2    0    0 -0.22641640398E+03  0.11529351750E+03  0.36375787155E+03  0.46097914518E+03  0.12500000000E+03 0.  0.
         21    1    1    2  503  502 -0.12091617267E+01 -0.34875840775E+02  0.18667913428E+03  0.18991283663E+03  0.00000000000E+00 0. -1.
          3    1    1    2  501    0  0.22762556571E+03 -0.80417676729E+02  0.76415211244E+03  0.80137934328E+03  0.00000000000E+00 0.  1.
<mgrwt>
<rscale>  4 0.27882093E+03</rscale>
<asrwt>0</asrwt>
<pdfrwt beam="1">  1       21 0.10590940E-01 0.27882093E+03</pdfrwt>
<pdfrwt beam="2">  1        3 0.21283540E+00 0.27882093E+03</pdfrwt>
<totfact> 0.48313800E+02</totfact>
</mgrwt>
</event>
<event>
 5    0  0.1141006E+000  0.2706013E+03  0.7546771E-02  0.1100936E+00
          2   -1    0    0  503    0 -0.00000000000E+00  0.00000000000E+00  0.26736891471E+04  0.26736891471E+04  0.00000000000E+00 0. -1.
         21   -1    0    0  501  502  0.00000000000E+00 -0.00000000000E+00 -0.10475737908E+03  0.10475737908E+03  0.00000000000E+00 0. -1.
         25    1    1    2    0    0 -0.60177689230E+02 -0.23310454979E+03  0.22498791892E+04  0.22661730850E+04  0.12500000000E+03 0.  0.
         21    1    1    2  503  502 -0.24053123194E+02  0.83341122669E+01  0.26501076001E+03  0.26623056377E+03  0.00000000000E+00 0. -1.
          2    1    1    2  501    0  0.84230812424E+02  0.22477043752E+03  0.54041818888E+02  0.24604287743E+03  0.00000000000E+00 0. -1.
<mgrwt>
<rscale>  4 0.27060129E+03</rscale>
<asrwt>0</asrwt>
<pdfrwt beam="1">  1       21 0.16116522E-01 0.27060129E+03</pdfrwt>
<pdfrwt beam="2">  1        2 0.41133674E+00 0.27060129E+03</pdfrwt>
<totfact> 0.13811464E+03</totfact>
</mgrwt>
</event>
<event>
 5    0  0.1141006E+000  0.2647363E+03  0.7546771E-02  0.1104330E+00
          3   -1    0    0  503    0 -0.00000000000E+00  0.00000000000E+00  0.41027860918E+03  0.41027860918E+03  0.00000000000E+00 0. -1.
         21   -1    0    0  501  502  0.00000000000E+00 -0.00000000000E+00 -0.15161915554E+04  0.15161915554E+04  0.00000000000E+00 0. -1.
         25    1    1    2    0    0  0.11618635461E+03 -0.20200090862E+03 -0.14550681282E+04  0.14789022597E+04  0.12500000000E+03 0.  0.
         21    1    1    2  503  502  0.25588690162E+02  0.19606508966E+01  0.69428275017E+01  0.26586238355E+02  0.00000000000E+00 0. -1.
          3    1    1    2  501    0 -0.14177504478E+03  0.20004025772E+03  0.34221235445E+03  0.42098166655E+03  0.00000000000E+00 0. -1.
<mgrwt>
<rscale>  4 0.26473633E+03</rscale>
<asrwt>0</asrwt>
<pdfrwt beam="1">  1       21 0.23326024E+00 0.26473633E+03</pdfrwt>
<pdfrwt beam="2">  1        3 0.63119785E-01 0.26473633E+03</pdfrwt>
<totfact> 0.96785968E+00</totfact>
</mgrwt>
</event>
<event>
 5    0  0.1141006E+000  0.3006002E+03  0.7546771E-02  0.1084941E+00
         21   -1    0    0  501  502  0.00000000000E+00  0.00000000000E+00  0.10525992793E+03  0.10525992793E+03  0.00000000000E+00 0. -1.
          2   -1    0    0  503    0 -0.00000000000E+00 -0.00000000000E+00 -0.85379643282E+03  0.85379643282E+03  0.00000000000E+00 0.  1.
         25    1    1    2    0    0 -0.25033495895E+03  0.77877578613E+02 -0.40318383125E+03  0.49690513250E+03  0.12500000000E+03 0.  0.
         21    1    1    2  503  502 -0.22852697635E+02 -0.58247491843E+01 -0.37542475736E+02  0.44335211476E+02  0.00000000000E+00 0. -1.
          2    1    1    2  501    0  0.27318765659E+03 -0.72052829429E+02 -0.30781019791E+03  0.41781601678E+03  0.00000000000E+00 0.  1.
<mgrwt>
<rscale>  4 0.30060016E+03</rscale>
<asrwt>0</asrwt>
<pdfrwt beam="1">  1       21 0.16193835E-01 0.30060016E+03</pdfrwt>
<pdfrwt beam="2">  1        2 0.13135330E+00 0.30060016E+03</pdfrwt>
<totfact> 0.13761912E+04</totfact>
</mgrwt>
</event>
<event>
 5    0  0.1141006E+000  0.2544109E+03  0.7546771E-02  0.1110549E+00
         21   -1    0    0  503  502  0.00000000000E+00  0.00000000000E+00  0.38796450740E+03  0.38796450740E+03  0.00000000000E+00 0. -1.
         -4   -1    0    0    0  501 -0.00000000000E+00 -0.00000000000E+00 -0.38893955556E+03  0.38893955556E+03  0.00000000000E+00 0. -1.
         25    1    1    2    0    0  0.12874733703E+03  0.18367063546E+03  0.27426549486E+03  0.37570911726E+03  0.12500000000E+03 0.  0.
         21    1    1    2  503  501  0.48079225037E+02 -0.55814191126E+02 -0.71241329185E+02  0.10248006048E+03  0.00000000000E+00 0. -1.
         -4    1    1    2    0  502 -0.17682656207E+03 -0.12785644434E+03 -0.20399921383E+03  0.29871488523E+03  0.00000000000E+00 0. -1.
<mgrwt>
<rscale>  4 0.25441089E+03</rscale>
<asrwt>0</asrwt>
<pdfrwt beam="1">  1       21 0.59686847E-01 0.25441089E+03</pdfrwt>
<pdfrwt beam="2">  1       -4 0.59836855E-01 0.25441089E+03</pdfrwt>
<totfact> 0.29164062E+02</totfact>
</mgrwt>
</event>
<event>
 5    0  0.1141006E+000  0.2298184E+03  0.7546771E-02  0.1126768E+00
          2   -1    0    0  503    0 -0.00000000000E+00  0.00000000000E+00  0.97200464193E+03  0.97200464193E+03  0.00000000000E+00 0. -1.
         21   -1    0    0  501  502  0.00000000000E+00 -0.00000000000E+00 -0.12335998021E+03  0.12335998021E+03  0.00000000000E+00 0. -1.
         25    1    1    2    0    0  0.18250148983E+03 -0.10676078251E+03  0.45746894016E+02  0.24984482541E+03  0.12500000000E+03 0.  0.
         21    1    1    2  503  502 -0.57547241688E+02  0.95020030507E+02  0.19162878431E+03  0.22149962121E+03  0.00000000000E+00 0. -1.
          2    1    1    2  501    0 -0.12495424814E+03  0.11740751998E+02  0.61126898340E+03  0.62402017551E+03  0.00000000000E+00 0. -1.
<mgrwt>
<rscale>  4 0.22981840E+03</rscale>
<asrwt>0</asrwt>
<pdfrwt beam="1">  1       21 0.18978459E-01 0.22981840E+03</pdfrwt>
<pdfrwt beam="2">  1        2 0.14953917E+00 0.22981840E+03</pdfrwt>
<totfact> 0.87388584E+03</totfact>
</mgrwt>
</event>
<event>
 5    0  0.1141006E+000  0.3344335E+03  0.7546771E-02  0.1069192E+00
         21   -1    0    0  501  502  0.00000000000E+00  0.00000000000E+00  0.14735363766E+03  0.14735363766E+03  0.00000000000E+00 0.  1.
          2   -1    0    0  503    0 -0.00000000000E+00 -0.00000000000E+00 -0.10430508013E+04  0.10430508013E+04  0.00000000000E+00 0.  1.
         25    1    1    2    0    0  0.79744326866E+02  0.29194057618E+03 -0.15460852904E+03  0.36210116672E+03  0.12500000000E+03 0.  0.
         21    1    1    2  503  502  0.15211873791E+01  0.26757525315E+02 -0.14539990703E+03  0.14784928859E+03  0.00000000000E+00 0.  1.
          2    1    1    2  501    0 -0.81265514245E+02 -0.31869810149E+03 -0.59568872754E+03  0.68045398362E+03  0.00000000000E+00 0.  1.
<mgrwt>
<rscale>  4 0.33443346E+03</rscale>
<asrwt>0</asrwt>
<pdfrwt beam="1">  1       21 0.22669790E-01 0.33443346E+03</pdfrwt>
<pdfrwt beam="2">  1        2 0.16046935E+00 0.33443346E+03</pdfrwt>
<totfact> 0.54986055E+03</totfact>
</mgrwt>
</event>
<event>
 5    0  0.1141006E+000  0.3264072E+03  0.7546771E-02  0.1072738E+00
         21   -1    0    0  501  502  0.00000000000E+00  0.00000000000E+00  0.46716623005E+03  0.46716623005E+03  0.00000000000E+00 0. -1.
          2   -1    0    0  503    0 -0.00000000000E+00 -0.00000000000E+00 -0.62691178571E+03  0.62691178571E+03  0.00000000000E+00 0. -1.
         25    1    1    2    0    0  0.26983243467E+03  0.13866206106E+03  0.35497541009E+03  0.48339347507E+03  0.12500000000E+03 0.  0.
         21    1    1    2  503  502 -0.47704909023E+01 -0.29109304057E+02 -0.11882496686E+02  0.31800988878E+02  0.00000000000E+00 0. -1.
          2    1    1    2  501    0 -0.26506194376E+03 -0.10955275700E+03 -0.50283846906E+03  0.57888355181E+03  0.00000000000E+00 0. -1.
<mgrwt>
<rscale>  4 0.32640718E+03</rscale>
<asrwt>0</asrwt>
<pdfrwt beam="1">  1       21 0.71871728E-01 0.32640718E+03</pdfrwt>
<pdfrwt beam="2">  1        2 0.96447967E-01 0.32640718E+03</pdfrwt>
<totfact> 0.99488216E+02</totfact>
</mgrwt>
</event>
<event>
 5    0  0.1141006E+000  0.3289635E+03  0.7546771E-02  0.1071596E+00
         21   -1    0    0  501  502  0.00000000000E+00  0.00000000000E+00  0.55764086770E+03  0.55764086770E+03  0.00000000000E+00 0.  1.
          4   -1    0    0  503    0 -0.00000000000E+00 -0.00000000000E+00 -0.26197004281E+03  0.26197004281E+03  0.00000000000E+00 0.  1.
         25    1    1    2    0    0 -0.30013645621E+03 -0.22251824316E+02  0.30975014340E+03  0.44960781506E+03  0.12500000000E+03 0.  0.
         21    1    1    2  503  502 -0.76033779730E+01 -0.27044336086E+02 -0.48905739862E+02  0.56400167220E+02  0.00000000000E+00 0. -1.
          4    1    1    2  501    0  0.30773983418E+03  0.49296160402E+02  0.34826421357E+02  0.31360292823E+03  0.00000000000E+00 0.  1.
<mgrwt>
<rscale>  4 0.32896351E+03</rscale>
<asrwt>0</asrwt>
<pdfrwt beam="1">  1       21 0.85790903E-01 0.32896351E+03</pdfrwt>
<pdfrwt beam="2">  1        4 0.40303084E-01 0.32896351E+03</pdfrwt>
<totfact> 0.28974251E+02</totfact>
</mgrwt>
</event>
<event>
 5    0  0.1141006E+000  0.2508320E+03  0.7546771E-02  0.1112780E+00
         21   -1    0    0  503  502  0.00000000000E+00  0.00000000000E+00  0.27138529885E+04  0.27138529885E+04  0.00000000000E+00 0.  1.
         -4   -1    0    0    0  501 -0.00000000000E+00 -0.00000000000E+00 -0.27473846849E+02  0.27473846849E+02  0.00000000000E+00 0.  1.
         25    1    1    2    0    0 -0.19484563604E+03 -0.64059119597E+02  0.15214924893E+04  0.15403352841E+04  0.12500000000E+03 0.  0.
         21    1    1    2  503  501 -0.23188646945E+02 -0.18429351947E+02  0.29080563084E+02  0.41509438802E+02  0.00000000000E+00 0. -1.
         -4    1    1    2    0  502  0.21803428298E+03  0.82488471544E+02  0.11358060893E+04  0.11594821124E+04  0.00000000000E+00 0.  1.
<mgrwt>
<rscale>  4 0.25083197E+03</rscale>
<asrwt>0</asrwt>
<pdfrwt beam="1">  1       21 0.41751563E+00 0.25083197E+03</pdfrwt>
<pdfrwt beam="2">  1       -4 0.42267478E-02 0.25083197E+03</pdfrwt>
<totfact> 0.84824992E+01</totfact>
</mgrwt>
</event>
<event>
 5    0  0.1141006E+000  0.2535997E+03  0.7546771E-02  0.1111051E+00
         21   -1    0    0  501  502  0.00000000000E+00  0.00000000000E+00  0.13743487170E+03  0.13743487170E+03  0.00000000000E+00 0. -1.
          1   -1    0    0  503    0 -0.00000000000E+00 -0.00000000000E+00 -0.88991625685E+03  0.88991625685E+03  0.00000000000E+00 0. -1.
         25    1    1    2    0    0  0.30071202230E+02  0.22070783156E+03 -0.18272612308E+02  0.25607638016E+03  0.12500000000E+03 0.  0.
         21    1    1    2  503  502 -0.22978419315E+02 -0.96403792076E+01 -0.70236917025E+02  0.74526298571E+02  0.00000000000E+00 0.  1.
          1    1    1    2  501    0 -0.70927829149E+01 -0.21106745235E+03 -0.66397185582E+03  0.69674844982E+03  0.00000000000E+00 0. -1.
<mgrwt>
<rscale>  4 0.25359970E+03</rscale>
<asrwt>0</asrwt>
<pdfrwt beam="1">  1       21 0.21143826E-01 0.25359970E+03</pdfrwt>
<pdfrwt beam="2">  1        1 0.13691019E+00 0.25359970E+03</pdfrwt>
<totfact> 0.44402576E+03</totfact>
</mgrwt>
</event>
<event>
 5    0  0.1141006E+000  0.2591928E+03  0.7546771E-02  0.1107629E+00
         -1   -1    0    0    0  501 -0.00000000000E+00  0.00000000000E+00  0.33160384685E+03  0.33160384685E+03  0.00000000000E+00 0.  1.
         21   -1    0    0  503  502  0.00000000000E+00 -0.00000000000E+00 -0.36605156062E+03  0.36605156062E+03  0.00000000000E+00 0.  1.
         25    1    1    2    0    0  0.34109090295E+02 -0.22043696757E+03 -0.24328190460E+03  0.35294046498E+03  0.12500000000E+03 0.  0.
         21    1    1    2  503  501  0.25836252294E+01 -0.20228984306E+02  0.50095250949E+02  0.54087161999E+02  0.00000000000E+00 0. -1.
         -1    1    1    2    0  502 -0.36692715525E+02  0.24066595188E+03  0.15873893988E+03  0.29062778050E+03  0.00000000000E+00 0.  1.
<mgrwt>
<rscale>  4 0.25919280E+03</rscale>
<asrwt>0</asrwt>
<pdfrwt beam="1">  1       21 0.56315624E-01 0.25919280E+03</pdfrwt>
<pdfrwt beam="2">  1       -1 0.51015977E-01 0.25919280E+03</pdfrwt>
<totfact> 0.10601337E+03</totfact>
</mgrwt>
</event>
<event>
 5    0  0.1141006E+000  0.5761130E+03  0.7546771E-02  0.9956242E-01
         21   -1    0    0  501  502  0.00000000000E+00  0.00000000000E+00  0.14016452160E+04  0.14016452160E+04  0.00000000000E+00 0. -1.
          1   -1    0    0  503    0 -0.00000000000E+00 -0.00000000000E+00 -0.38062545156E+03  0.38062545156E+03  0.00000000000E+00 0. -1.
         25    1    1    2    0    0  0.14681258846E+03  0.57675358099E+03  0.72335804305E+03  0.94502406729E+03  0.12500000000E+03 0.  0.
         21    1    1    2  503  502  0.57122664132E+02 -0.89725197844E+02 -0.12267200848E+03  0.16236388622E+03  0.00000000000E+00 0. -1.
          1    1    1    2  501    0 -0.20393525259E+03 -0.48702838315E+03  0.42033372988E+03  0.67488271405E+03  0.00000000000E+00 0. -1.
<mgrwt>
<rscale>  4 0.57611297E+03</rscale>
<asrwt>0</asrwt>
<pdfrwt beam="1">  1       21 0.21563772E+00 0.57611297E+03</pdfrwt>
<pdfrwt beam="2">  1        1 0.58557762E-01 0.57611297E+03</pdfrwt>
<totfact> 0.61582110E+01</totfact>
</mgrwt>
</event>
<event>
 5    0  0.1141006E+000  0.2760241E+03  0.7546771E-02  0.1097881E+00
          2   -1    0    0  503    0 -0.00000000000E+00  0.00000000000E+00  0.11259074026E+04  0.11259074026E+04  0.00000000000E+00 0. -1.
         21   -1    0    0  501  502  0.00000000000E+00 -0.00000000000E+00 -0.96103950122E+02  0.96103950122E+02  0.00000000000E+00 0. -1.
         25    1    1    2    0    0  0.51136190852E+02  0.21331710591E+03  0.15530159442E+03  0.29641640123E+03  0.12500000000E+03 0.  0.
         21    1    1    2  503  502 -0.10232543894E+02  0.36794851530E+02  0.49358161678E+02  0.62408286132E+02  0.00000000000E+00 0. -1.
          2    1    1    2  501    0 -0.40903646958E+02 -0.25011195744E+03  0.82514369639E+03  0.86318666538E+03  0.00000000000E+00 0. -1.
<mgrwt>
<rscale>  4 0.27602409E+03</rscale>
<asrwt>0</asrwt>
<pdfrwt beam="1">  1       21 0.14785224E-01 0.27602409E+03</pdfrwt>
<pdfrwt beam="2">  1        2 0.17321651E+00 0.27602409E+03</pdfrwt>
<totfact> 0.11076376E+04</totfact>
</mgrwt>
</event>
<event>
 5    0  0.1141006E+000  0.3130435E+03  0.7546771E-02  0.1078896E+00
         21   -1    0    0  501  502  0.00000000000E+00  0.00000000000E+00  0.45483132914E+03  0.45483132914E+03  0.00000000000E+00 0.  1.
          4   -1    0    0  503    0 -0.00000000000E+00 -0.00000000000E+00 -0.54073122881E+03  0.54073122881E+03  0.00000000000E+00 0.  1.
         25    1    1    2    0    0  0.23513593331E+03  0.16447417042E+03  0.34431415701E+03  0.46531483814E+03  0.12500000000E+03 0.  0.
         21    1    1    2  503  502  0.11806622942E+02 -0.16222678198E+02 -0.15638561581E+02  0.25438872646E+02  0.00000000000E+00 0. -1.
          4    1    1    2  501    0 -0.24694255625E+03 -0.14825149222E+03 -0.41457549511E+03  0.50480884717E+03  0.00000000000E+00 0.  1.
<mgrwt>
<rscale>  4 0.31304347E+03</rscale>
<asrwt>0</asrwt>
<pdfrwt beam="1">  1       21 0.69974051E-01 0.31304347E+03</pdfrwt>
<pdfrwt beam="2">  1        4 0.83189419E-01 0.31304347E+03</pdfrwt>
<totfact> 0.98883118E+01</totfact>
</mgrwt>
</event>
<event>
 5    0  0.1141006E+000  0.2096080E+03  0.7546771E-02  0.1141877E+00
         21   -1    0    0  501  502  0.00000000000E+00  0.00000000000E+00  0.88222441458E+02  0.88222441458E+02  0.00000000000E+00 0.  1.
          2   -1    0    0  503    0 -0.00000000000E+00 -0.00000000000E+00 -0.83061021034E+03  0.83061021034E+03  0.00000000000E+00 0.  1.
         25    1    1    2    0    0  0.19347300991E+03 -0.98473920494E+02 -0.36510173762E+03  0.44277894868E+03  0.12500000000E+03 0.  0.
         21    1    1    2  503  502 -0.43710764639E+02  0.64289541551E+02 -0.28814679716E+03  0.29844991676E+03  0.00000000000E+00 0. -1.
          2    1    1    2  501    0 -0.14976224527E+03  0.34184378943E+02 -0.89139234100E+02  0.17760378636E+03  0.00000000000E+00 0.  1.
<mgrwt>
<rscale>  4 0.20960799E+03</rscale>
<asrwt>0</asrwt>
<pdfrwt beam="1">  1       21 0.13572683E-01 0.20960799E+03</pdfrwt>
<pdfrwt beam="2">  1        2 0.12778619E+00 0.20960799E+03</pdfrwt>
<totfact> 0.20049154E+04</totfact>
</mgrwt>
</event>
<event>
 5    0  0.1141006E+000  0.3141918E+03  0.7546771E-02  0.1078354E+00
         21   -1    0    0  501  502  0.00000000000E+00  0.00000000000E+00  0.66241316160E+03  0.66241316160E+03  0.00000000000E+00 0.  1.
          2   -1    0    0  503    0 -0.00000000000E+00 -0.00000000000E+00 -0.10142381978E+04  0.10142381978E+04  0.00000000000E+00 0.  1.
         25    1    1    2    0    0  0.85261463992E+02  0.26379043474E+03  0.51496128766E+03  0.59805103335E+03  0.12500000000E+03 0.  0.
         21    1    1    2  503  502 -0.32154686028E+02  0.14696035533E+03 -0.51071456146E+03  0.53241021136E+03  0.00000000000E+00 0. -1.
          2    1    1    2  501    0 -0.53106777964E+02 -0.41075079007E+03 -0.35607176238E+03  0.54619011468E+03  0.00000000000E+00 0.  1.
<mgrwt>
<rscale>  4 0.31419179E+03</rscale>
<asrwt>0</asrwt>
<pdfrwt beam="1">  1       21 0.10190972E+00 0.31419179E+03</pdfrwt>
<pdfrwt beam="2">  1        2 0.15603665E+00 0.31419179E+03</pdfrwt>
<totfact> 0.23817681E+02</totfact>
</mgrwt>
</event>
<event>
 5    0  0.1141006E+000  0.2945586E+03  0.7546771E-02  0.1087993E+00
         21   -1    0    0  503  502  0.00000000000E+00  0.00000000000E+00  0.33935696928E+03  0.33935696928E+03  0.00000000000E+00 0.  1.
         -1   -1    0    0    0  501 -0.00000000000E+00 -0.00000000000E+00 -0.42459293300E+03  0.42459293300E+03  0.00000000000E+00 0. -1.
         25    1    1    2    0    0  0.24591602350E+03  0.11190010016E+03  0.13734815695E+03  0.32785033056E+03  0.12500000000E+03 0.  0.
         21    1    1    2  503  501  0.33726466875E+00 -0.24051440024E+02 -0.16710129454E+03  0.16882365993E+03  0.00000000000E+00 0. -1.
         -1    1    1    2    0  502 -0.24625328817E+03 -0.87848660137E+02 -0.55482826133E+02  0.26727591178E+03  0.00000000000E+00 0. -1.
<mgrwt>
<rscale>  4 0.29455856E+03</rscale>
<asrwt>0</asrwt>
<pdfrwt beam="1">  1       21 0.52208765E-01 0.29455856E+03</pdfrwt>
<pdfrwt beam="2">  1       -1 0.65321989E-01 0.29455856E+03</pdfrwt>
<totfact> 0.76750438E+02</totfact>
</mgrwt>
</event>
<event>
 5    0  0.1141006E+000  0.2632085E+03  0.7546771E-02  0.1105231E+00
          2   -1    0    0  503    0 -0.00000000000E+00  0.00000000000E+00  0.51911909033E+03  0.51911909033E+03  0.00000000000E+00 0.  1.
         21   -1    0    0  501  502  0.00000000000E+00 -0.00000000000E+00 -0.22052806457E+03  0.22052806457E+03  0.00000000000E+00 0. -1.
         25    1    1    2    0    0  0.99056606089E+02 -0.21252690189E+03 -0.87332430129E+02  0.27969956844E+03  0.12500000000E+03 0.  0.
         21    1    1    2  503  502 -0.25008311913E+02  0.33074520604E+01  0.65315225362E+02  0.70017380471E+02  0.00000000000E+00 0. -1.
          2    1    1    2  501    0 -0.74048294176E+02  0.20921944983E+03  0.32060823053E+03  0.38993020598E+03  0.00000000000E+00 0.  1.
<mgrwt>
<rscale>  4 0.26320846E+03</rscale>
<asrwt>0</asrwt>
<pdfrwt beam="1">  1       21 0.33927395E-01 0.26320846E+03</pdfrwt>
<pdfrwt beam="2">  1        2 0.79864475E-01 0.26320846E+03</pdfrwt>
<totfact> 0.61366244E+03</totfact>
</mgrwt>
</event>
<event>
 5    0  0.2044252E+000  0.3087567E+03  0.7546771E-02  0.1080943E+00
         21   -1    0    0  501  502  0.00000000000E+00  0.00000000000E+00  0.11543023132E+04  0.11543023132E+04  0.00000000000E+00 0.  1.
          2   -1    0    0  503    0 -0.00000000000E+00 -0.00000000000E+00 -0.13151589637E+04  0.13151589637E+04  0.00000000000E+00 0.  1.
         25    1    1    2    0    0  0.26995829746E+03 -0.87462145940E+02  0.10909921657E+04  0.11342028104E+04  0.12500000000E+03 0.  0.
         21    1    1    2  503  502 -0.75144110964E+02  0.42587542310E+02 -0.21816341276E+02  0.89085851398E+02  0.00000000000E+00 0.  1.
          2    1    1    2  501    0 -0.19481418649E+03  0.44874603629E+02 -0.12300324750E+04  0.12461726152E+04  0.00000000000E+00 0.  1.
<mgrwt>
<rscale>  4 0.30875668E+03</rscale>
<asrwt>0</asrwt>
<pdfrwt beam="1">  1       21 0.17758497E+00 0.30875668E+03</pdfrwt>
<pdfrwt beam="2">  1        2 0.20233215E+00 0.30875668E+03</pdfrwt>
<totfact> 0.37540017E+01</totfact>
</mgrwt>
</event>
<event>
 5    0  0.1141006E+000  0.2149066E+03  0.7546771E-02  0.1137738E+00
          2   -1    0    0  503    0 -0.00000000000E+00  0.00000000000E+00  0.12916851791E+04  0.12916851791E+04  0.00000000000E+00 0. -1.
         21   -1    0    0  501  502  0.00000000000E+00 -0.00000000000E+00 -0.12916852007E+03  0.12916852007E+03  0.00000000000E+00 0. -1.
         25    1    1    2    0    0  0.66371073997E+02  0.18928527678E+03  0.13931993715E+02  0.23675543482E+03  0.12500000000E+03 0.  0.
         21    1    1    2  503  502 -0.74136381163E+02 -0.62063839661E+02  0.89575553054E+03  0.90095843062E+03  0.00000000000E+00 0. -1.
          2    1    1    2  501    0  0.77653071656E+01 -0.12722143712E+03  0.25282913478E+03  0.28313983374E+03  0.00000000000E+00 0. -1.
<mgrwt>
<rscale>  4 0.21490661E+03</rscale>
<asrwt>0</asrwt>
<pdfrwt beam="1">  1       21 0.19872081E-01 0.21490661E+03</pdfrwt>
<pdfrwt beam="2">  1        2 0.19872079E+00 0.21490661E+03</pdfrwt>
<totfact> 0.52574782E+03</totfact>
</mgrwt>
</event>
<event>
 5    0  0.1141006E+000  0.2997402E+03  0.7546771E-02  0.1085371E+00
          2   -1    0    0  503    0 -0.00000000000E+00  0.00000000000E+00  0.14194836977E+04  0.14194836977E+04  0.00000000000E+00 0.  1.
         21   -1    0    0  501  502  0.00000000000E+00 -0.00000000000E+00 -0.41771175953E+03  0.41771175953E+03  0.00000000000E+00 0. -1.
         25    1    1    2    0    0  0.16945742550E+03 -0.21015248239E+03 -0.33480366765E+03  0.44788210590E+03  0.12500000000E+03 0.  0.
         21    1    1    2  503  502  0.17091202759E+02 -0.47420187245E+02  0.32606652023E+03  0.32993962930E+03  0.00000000000E+00 0. -1.
          2    1    1    2  501    0 -0.18654862826E+03  0.25757266963E+03  0.10105090856E+04  0.10593737220E+04  0.00000000000E+00 0.  1.
<mgrwt>
<rscale>  4 0.29974020E+03</rscale>
<asrwt>0</asrwt>
<pdfrwt beam="1">  1       21 0.64263348E-01 0.29974020E+03</pdfrwt>
<pdfrwt beam="2">  1        2 0.21838211E+00 0.29974020E+03</pdfrwt>
<totfact> 0.40532556E+02</totfact>
</mgrwt>
</event>
<event>
 5    0  0.1141006E+000  0.2398771E+03  0.7546771E-02  0.1119875E+00
         21   -1    0    0  501  502  0.00000000000E+00  0.00000000000E+00  0.10045388968E+03  0.10045388968E+03  0.00000000000E+00 0.  1.
          2   -1    0    0  503    0 -0.00000000000E+00 -0.00000000000E+00 -0.13245057080E+04  0.13245057080E+04  0.00000000000E+00 0.  1.
         25    1    1    2    0    0  0.19716591304E+03  0.35651446840E+02 -0.85559746175E+02  0.25117900607E+03  0.12500000000E+03 0.  0.
         21    1    1    2  503  502  0.29503147458E+02 -0.27906954187E+02 -0.37839152344E+03  0.38056455275E+03  0.00000000000E+00 0.  1.
          2    1    1    2  501    0 -0.22666906050E+03 -0.77444926528E+01 -0.76010054866E+03  0.79321603881E+03  0.00000000000E+00 0.  1.
<mgrwt>
<rscale>  4 0.23987708E+03</rscale>
<asrwt>0</asrwt>
<pdfrwt beam="1">  1       21 0.15454445E-01 0.23987708E+03</pdfrwt>
<pdfrwt beam="2">  1        2 0.20377010E+00 0.23987708E+03</pdfrwt>
<totfact> 0.79637464E+03</totfact>
</mgrwt>
</event>
<event>
 5    0  0.1141006E+000  0.7743332E+03  0.7546771E-02  0.9597930E-01
         21   -1    0    0  501  502  0.00000000000E+00  0.00000000000E+00  0.17585480963E+03  0.17585480963E+03  0.00000000000E+00 0.  1.
          2   -1    0    0  503    0 -0.00000000000E+00 -0.00000000000E+00 -0.44004143699E+04  0.44004143699E+04  0.00000000000E+00 0.  1.
         25    1    1    2    0    0  0.73878219179E+03  0.16092471013E+03 -0.16384504703E+04  0.18088230518E+04  0.12500000000E+03 0.  0.
         21    1    1    2  503  502  0.19009169097E+02 -0.13609740443E+02 -0.10310306048E+04  0.10312956325E+04  0.00000000000E+00 0.  1.
          2    1    1    2  501    0 -0.75779136089E+03 -0.14731496969E+03 -0.15550784851E+04  0.17361504952E+04  0.00000000000E+00 0.  1.
<mgrwt>
<rscale>  4 0.77433321E+03</rscale>
<asrwt>0</asrwt>
<pdfrwt beam="1">  1       21 0.27054588E-01 0.77433321E+03</pdfrwt>
<pdfrwt beam="2">  1        2 0.67698679E+00 0.77433321E+03</pdfrwt>
<totfact> 0.26293014E+01</totfact>
</mgrwt>
</event>
<event>
 5    0  0.1141006E+000  0.2441079E+03  0.7546771E-02  0.1117086E+00
          2   -1    0    0  503    0 -0.00000000000E+00  0.00000000000E+00  0.16921986770E+04  0.16921986770E+04  0.00000000000E+00 0. -1.
         21   -1    0    0  501  502  0.00000000000E+00 -0.00000000000E+00 -0.50727162833E+02  0.50727162833E+02  0.00000000000E+00 0.  1.
         25    1    1    2    0    0 -0.14836949624E+03 -0.15071562525E+03  0.35144487262E+03  0.42879739458E+03  0.12500000000E+03 0.  0.
         21    1    1    2  503  502  0.19318720171E+02 -0.10119627052E+02  0.39718883220E+03  0.39778711420E+03  0.00000000000E+00 0. -1.
          2    1    1    2  501    0  0.12905077607E+03  0.16083525230E+03  0.89283780934E+03  0.91634133104E+03  0.00000000000E+00 0. -1.
<mgrwt>
<rscale>  4 0.24410792E+03</rscale>
<asrwt>0</asrwt>
<pdfrwt beam="1">  1       21 0.78041802E-02 0.24410792E+03</pdfrwt>
<pdfrwt beam="2">  1        2 0.26033822E+00 0.24410792E+03</pdfrwt>
<totfact> 0.17165197E+04</totfact>
</mgrwt>
</event>
<event>
 5    0  0.1141006E+000  0.2779941E+03  0.7546771E-02  0.1096790E+00
         21   -1    0    0  501  502  0.00000000000E+00  0.00000000000E+00  0.54941115274E+03  0.54941115274E+03  0.00000000000E+00 0. -1.
          1   -1    0    0  503    0 -0.00000000000E+00 -0.00000000000E+00 -0.47245198327E+04  0.47245198327E+04  0.00000000000E+00 0.  1.
         25    1    1    2    0    0  0.23399697468E+03  0.66357172254E+02  0.40530267492E+03  0.48893058481E+03  0.12500000000E+03 0.  0.
         21    1    1    2  503  502 -0.19823624208E+03 -0.32432713662E+03 -0.26885219464E+03  0.46558264765E+03  0.00000000000E+00 0. -1.
          1    1    1    2  501    0 -0.35760732598E+02  0.25796996437E+03 -0.43115591603E+04  0.43194177530E+04  0.00000000000E+00 0.  1.
<mgrwt>
<rscale>  4 0.27799406E+03</rscale>
<asrwt>0</asrwt>
<pdfrwt beam="1">  1       21 0.84524791E-01 0.27799406E+03</pdfrwt>
<pdfrwt beam="2">  1        1 0.72684922E+00 0.27799406E+03</pdfrwt>
<totfact> 0.33403327E-01</totfact>
</mgrwt>
</event>
<event>
 5    0  0.1141006E+000  0.2774720E+03  0.7546771E-02  0.1097078E+00
         21   -1    0    0  501  502  0.00000000000E+00  0.00000000000E+00  0.13239974202E+04  0.13239974202E+04  0.00000000000E+00 0. -1.
          2   -1    0    0  503    0 -0.00000000000E+00 -0.00000000000E+00 -0.80930670639E+02  0.80930670639E+02  0.00000000000E+00 0. -1.
         25    1    1    2    0    0 -0.21098874330E+03  0.14062249454E+03  0.99346761190E+03  0.10329055289E+04  0.12500000000E+03 0.  0.
         21    1    1    2  503  502  0.34601110737E+02  0.14354776466E+02  0.15747744959E+02  0.40636042412E+02  0.00000000000E+00 0.  1.
          2    1    1    2  501    0  0.17638763256E+03 -0.15497727100E+03  0.23385139271E+03  0.33138651952E+03  0.00000000000E+00 0. -1.
<mgrwt>
<rscale>  4 0.27747203E+03</rscale>
<asrwt>0</asrwt>
<pdfrwt beam="1">  1       21 0.20369190E+00 0.27747203E+03</pdfrwt>
<pdfrwt beam="2">  1        2 0.12450873E-01 0.27747203E+03</pdfrwt>
<totfact> 0.71794785E+02</totfact>
</mgrwt>
</event>
<event>
 5    0  0.1141006E+000  0.2715880E+03  0.7546771E-02  0.1100374E+00
         21   -1    0    0  501  502  0.00000000000E+00  0.00000000000E+00  0.12093072263E+03  0.12093072263E+03  0.00000000000E+00 0. -1.
          2   -1    0    0  503    0 -0.00000000000E+00 -0.00000000000E+00 -0.10805408604E+04  0.10805408604E+04  0.00000000000E+00 0. -1.
         25    1    1    2    0    0 -0.18041789336E+03 -0.14412721715E+03 -0.15703473490E+03  0.30595453736E+03  0.12500000000E+03 0.  0.
         21    1    1    2  503  502 -0.22947948228E+02 -0.12818991178E+02 -0.49098197838E+03  0.49168510041E+03  0.00000000000E+00 0. -1.
          2    1    1    2  501    0  0.20336584159E+03  0.15694620833E+03 -0.31159342451E+03  0.40383194528E+03  0.00000000000E+00 0. -1.
<mgrwt>
<rscale>  4 0.27158798E+03</rscale>
<asrwt>0</asrwt>
<pdfrwt beam="1">  1       21 0.18604727E-01 0.27158798E+03</pdfrwt>
<pdfrwt beam="2">  1        2 0.16623705E+00 0.27158798E+03</pdfrwt>
<totfact> 0.77066201E+03</totfact>
</mgrwt>
</event>
<event>
 5    0  0.1287587E+000  0.3974688E+03  0.7546771E-02  0.1044660E+00
         21   -1    0    0  501  502  0.00000000000E+00  0.00000000000E+00  0.10879983036E+04  0.10879983036E+04  0.00000000000E+00 0. -1.
          2   -1    0    0  503    0 -0.00000000000E+00 -0.00000000000E+00 -0.13181757516E+04  0.13181757516E+04  0.00000000000E+00 0.  1.
         25    1    1    2    0    0  0.34740604129E+03  0.14525949760E+03  0.10088633769E+04  0.10840763776E+04  0.12500000000E+03 0.  0.
         21    1    1    2  503  502  0.16489187363E+02  0.27219557143E+02 -0.18436353583E+02  0.36779025604E+02  0.00000000000E+00 0.  1.
          2    1    1    2  501    0 -0.36389522865E+03 -0.17247905474E+03 -0.12206044713E+04  0.12853186520E+04  0.00000000000E+00 0.  1.
<mgrwt>
<rscale>  4 0.39746876E+03</rscale>
<asrwt>0</asrwt>
<pdfrwt beam="1">  1       21 0.16738435E+00 0.39746876E+03</pdfrwt>
<pdfrwt beam="2">  1        2 0.20279627E+00 0.39746876E+03</pdfrwt>
<totfact> 0.41922531E+01</totfact>
</mgrwt>
</event>
<event>
 5    0  0.1141006E+000  0.3607572E+03  0.7546771E-02  0.1058284E+00
          2   -1    0    0  503    0 -0.00000000000E+00  0.00000000000E+00  0.27854159727E+04  0.27854159727E+04  0.00000000000E+00 0. -1.
         21   -1    0    0  501  502  0.00000000000E+00 -0.00000000000E+00 -0.54877827648E+02  0.54877827648E+02  0.00000000000E+00 0.  1.
         25    1    1    2    0    0 -0.31393844780E+03 -0.17300607974E+03  0.14555326329E+04  0.15042236197E+04  0.12500000000E+03 0.  0.
         21    1    1    2  503  502  0.61409369342E+01  0.62544436496E+02  0.33400291501E+03  0.33986389169E+03  0.00000000000E+00 0. -1.
          2    1    1    2  501    0  0.30779751086E+03  0.11046164324E+03  0.94100259716E+03  0.99620628897E+03  0.00000000000E+00 0. -1.
<mgrwt>
<rscale>  4 0.36075720E+03</rscale>
<asrwt>0</asrwt>
<pdfrwt beam="1">  1       21 0.84427449E-02 0.36075720E+03</pdfrwt>
<pdfrwt beam="2">  1        2 0.42852542E+00 0.36075720E+03</pdfrwt>
<totfact> 0.36946943E+03</totfact>
</mgrwt>
</event>
<event>
 5    0  0.1141006E+000  0.2575200E+03  0.7546771E-02  0.1108642E+00
         21   -1    0    0  501  502  0.00000000000E+00  0.00000000000E+00  0.12985427563E+04  0.12985427563E+04  0.00000000000E+00 0.  1.
          1   -1    0    0  503    0 -0.00000000000E+00 -0.00000000000E+00 -0.24955160362E+04  0.24955160362E+04  0.00000000000E+00 0.  1.
         25    1    1    2    0    0 -0.22520678666E+03  0.11027362394E+02  0.12694813568E+04  0.12953947718E+04  0.12500000000E+03 0.  0.
         21    1    1    2  503  502  0.62710677305E+02  0.49067663256E+02 -0.10971189024E+03  0.13556165935E+03  0.00000000000E+00 0.  1.
          1    1    1    2  501    0  0.16249610935E+03 -0.60095025650E+02 -0.23567427464E+04  0.23631023614E+04  0.00000000000E+00 0.  1.
<mgrwt>
<rscale>  4 0.25752003E+03</rscale>
<asrwt>0</asrwt>
<pdfrwt beam="1">  1       21 0.19977581E+00 0.25752003E+03</pdfrwt>
<pdfrwt beam="2">  1        1 0.38392554E+00 0.25752003E+03</pdfrwt>
<totfact> 0.22693416E+00</totfact>
</mgrwt>
</event>
<event>
 5    0  0.1141006E+000  0.2353362E+03  0.7546771E-02  0.1122939E+00
         21   -1    0    0  501  502  0.00000000000E+00  0.00000000000E+00  0.56869232369E+02  0.56869232369E+02  0.00000000000E+00 0.  1.
          2   -1    0    0  503    0 -0.00000000000E+00 -0.00000000000E+00 -0.32039726424E+04  0.32039726424E+04  0.00000000000E+00 0.  1.
         25    1    1    2    0    0  0.93666063287E+02 -0.17912212615E+03 -0.23866287862E+03  0.33681305960E+03  0.12500000000E+03 0.  0.
         21    1    1    2  503  502 -0.77548390602E+02 -0.83866936590E+01 -0.34585117057E+03  0.35453789882E+03  0.00000000000E+00 0. -1.
          2    1    1    2  501    0 -0.16117672685E+02  0.18750881981E+03 -0.25625893608E+04  0.25694909163E+04  0.00000000000E+00 0.  1.
<mgrwt>
<rscale>  4 0.23533616E+03</rscale>
<asrwt>0</asrwt>
<pdfrwt beam="1">  1       21 0.87491097E-02 0.23533616E+03</pdfrwt>
<pdfrwt beam="2">  1        2 0.49291903E+00 0.23533616E+03</pdfrwt>
<totfact> 0.20691997E+03</totfact>
</mgrwt>
</event>
<event>
 5    0  0.1141006E+000  0.2356240E+03  0.7546771E-02  0.1122743E+00
          2   -1    0    0  503    0 -0.00000000000E+00  0.00000000000E+00  0.12849512928E+04  0.12849512928E+04  0.00000000000E+00 0. -1.
         21   -1    0    0  501  502  0.00000000000E+00 -0.00000000000E+00 -0.74168828294E+02  0.74168828294E+02  0.00000000000E+00 0.  1.
         25    1    1    2    0    0  0.61220416025E+02 -0.19552402061E+03  0.17464497663E+03  0.29682225294E+03  0.12500000000E+03 0.  0.
         21    1    1    2  503  502 -0.47301802396E+02  0.11419558621E+02  0.17863177839E+03  0.18514097083E+03  0.00000000000E+00 0. -1.
          2    1    1    2  501    0 -0.13918613629E+02  0.18410446199E+03  0.85750570951E+03  0.87715689735E+03  0.00000000000E+00 0. -1.
<mgrwt>
<rscale>  4 0.23562399E+03</rscale>
<asrwt>0</asrwt>
<pdfrwt beam="1">  1       21 0.11410590E-01 0.23562399E+03</pdfrwt>
<pdfrwt beam="2">  1        2 0.19768480E+00 0.23562399E+03</pdfrwt>
<totfact> 0.14528992E+04</totfact>
</mgrwt>
</event>
<event>
 5    0  0.1141006E+000  0.2681219E+03  0.7546771E-02  0.1102359E+00
         21   -1    0    0  501  502  0.00000000000E+00  0.00000000000E+00  0.33500401158E+02  0.33500401158E+02  0.00000000000E+00 0.  1.
          2   -1    0    0  503    0 -0.00000000000E+00 -0.00000000000E+00 -0.26673697883E+04  0.26673697883E+04  0.00000000000E+00 0. -1.
         25    1    1    2    0    0 -0.20064839787E+02  0.23635086215E+03 -0.67959717938E+03  0.73057624794E+03  0.12500000000E+03 0.  0.
         21    1    1    2  503  502  0.19736743077E+02 -0.24837888046E+02 -0.13065326452E+03  0.13444974987E+03  0.00000000000E+00 0.  1.
          2    1    1    2  501    0  0.32809670992E+00 -0.21151297410E+03 -0.18236189432E+04  0.18358441917E+04  0.00000000000E+00 0. -1.
<mgrwt>
<rscale>  4 0.26812185E+03</rscale>
<asrwt>0</asrwt>
<pdfrwt beam="1">  1       21 0.51539073E-02 0.26812185E+03</pdfrwt>
<pdfrwt beam="2">  1        2 0.41036463E+00 0.26812185E+03</pdfrwt>
<totfact> 0.10509137E+04</totfact>
</mgrwt>
</event>
<event>
 5    0  0.1141006E+000  0.2657665E+03  0.7546771E-02  0.1103727E+00
         21   -1    0    0  501  502  0.00000000000E+00  0.00000000000E+00  0.14801086924E+04  0.14801086924E+04  0.00000000000E+00 0.  1.
          3   -1    0    0  503    0 -0.00000000000E+00 -0.00000000000E+00 -0.32345773200E+03  0.32345773200E+03  0.00000000000E+00 0. -1.
         25    1    1    2    0    0  0.52825116295E+02 -0.22872950071E+03  0.14099995498E+04  0.14348628533E+04  0.12500000000E+03 0.  0.
         21    1    1    2  503  502 -0.31438036548E+02 -0.18250453736E+01 -0.10582434051E+02  0.33221511751E+02  0.00000000000E+00 0. -1.
          3    1    1    2  501    0 -0.21387079747E+02  0.23055454608E+03 -0.24276615539E+03  0.33548205928E+03  0.00000000000E+00 0. -1.
<mgrwt>
<rscale>  4 0.26576654E+03</rscale>
<asrwt>0</asrwt>
<pdfrwt beam="1">  1       21 0.22770903E+00 0.26576654E+03</pdfrwt>
<pdfrwt beam="2">  1        3 0.49762729E-01 0.26576654E+03</pdfrwt>
<totfact> 0.17078708E+01</totfact>
</mgrwt>
</event>
<event>
 5    0  0.1141006E+000  0.8318939E+03  0.7546771E-02  0.9514966E-01
          2   -1    0    0  503    0 -0.00000000000E+00  0.00000000000E+00  0.29572686136E+04  0.29572686136E+04  0.00000000000E+00 0. -1.
         21   -1    0    0  501  502  0.00000000000E+00 -0.00000000000E+00 -0.26086717138E+03  0.26086717138E+03  0.00000000000E+00 0.  1.
         25    1    1    2    0    0  0.70859449150E+03 -0.41751212452E+03  0.82641975716E+03  0.11726112495E+04  0.12500000000E+03 0.  0.
         21    1    1    2  503  502 -0.14981451084E+02  0.22305800181E+02  0.10530298362E+03  0.10867709491E+03  0.00000000000E+00 0. -1.
          2    1    1    2  501    0 -0.69361304042E+03  0.39520632434E+03  0.17646787014E+04  0.19368474406E+04  0.00000000000E+00 0. -1.
<mgrwt>
<rscale>  4 0.83189394E+03</rscale>
<asrwt>0</asrwt>
<pdfrwt beam="1">  1       21 0.40133413E-01 0.83189394E+03</pdfrwt>
<pdfrwt beam="2">  1        2 0.45496438E+00 0.83189394E+03</pdfrwt>
<totfact> 0.13196732E+02</totfact>
</mgrwt>
</event>
<event>
 5    0  0.1141006E+000  0.4082276E+03  0.7546771E-02  0.1040967E+00
         21   -1    0    0  503  502  0.00000000000E+00  0.00000000000E+00  0.30112055269E+03  0.30112055269E+03  0.00000000000E+00 0. -1.
         -1   -1    0    0    0  501 -0.00000000000E+00 -0.00000000000E+00 -0.30086326213E+04  0.30086326213E+04  0.00000000000E+00 0.  1.
         25    1    1    2    0    0 -0.38801284978E+03 -0.48045912553E+02  0.13887589243E+03  0.43332885295E+03  0.12500000000E+03 0.  0.
         21    1    1    2  503  501  0.46046876797E+02  0.33249879701E+01 -0.12467818129E+03  0.13295119141E+03  0.00000000000E+00 0. -1.
         -1    1    1    2    0  502  0.34196597298E+03  0.44720924583E+02 -0.27217097797E+04  0.27434731296E+04  0.00000000000E+00 0.  1.
<mgrwt>
<rscale>  4 0.40822762E+03</rscale>
<asrwt>0</asrwt>
<pdfrwt beam="1">  1       21 0.46326237E-01 0.40822762E+03</pdfrwt>
<pdfrwt beam="2">  1       -1 0.46286657E+00 0.40822762E+03</pdfrwt>
<totfact> 0.12164723E+00</totfact>
</mgrwt>
</event>
<event>
 5    0  0.1141006E+000  0.3313763E+03  0.7546771E-02  0.1070530E+00
         21   -1    0    0  501  502  0.00000000000E+00  0.00000000000E+00  0.74096707461E+03  0.74096707461E+03  0.00000000000E+00 0.  1.
          2   -1    0    0  503    0 -0.00000000000E+00 -0.00000000000E+00 -0.16031526305E+04  0.16031526305E+04  0.00000000000E+00 0.  1.
         25    1    1    2    0    0  0.68142355852E+02 -0.31043089536E+03  0.66167936633E+03  0.74461755638E+03  0.12500000000E+03 0.  0.
         21    1    1    2  503  502 -0.49418568881E+02  0.42636543592E+01 -0.48640698973E+01  0.49840072980E+02  0.00000000000E+00 0.  1.
          2    1    1    2  501    0 -0.18723786972E+02  0.30616724100E+03 -0.15190008523E+04  0.15496620758E+04  0.00000000000E+00 0.  1.
<mgrwt>
<rscale>  4 0.33137633E+03</rscale>
<asrwt>0</asrwt>
<pdfrwt beam="1">  1       21 0.11399494E+00 0.33137633E+03</pdfrwt>
<pdfrwt beam="2">  1        2 0.24663887E+00 0.33137633E+03</pdfrwt>
<totfact> 0.83532123E+01</totfact>
</mgrwt>
</event>
<event>
 5    0  0.1141006E+000  0.2404985E+03  0.7546771E-02  0.1119461E+00
          2   -1    0    0  503    0 -0.00000000000E+00  0.00000000000E+00  0.26273998900E+03  0.26273998900E+03  0.00000000000E+00 0. -1.
         21   -1    0    0  501  502  0.00000000000E+00 -0.00000000000E+00 -0.65427631841E+03  0.65427631841E+03  0.00000000000E+00 0.  1.
         25    1    1    2    0    0 -0.27505972751E+02 -0.21929687503E+03 -0.54456844438E+03  0.60085563037E+03  0.12500000000E+03 0.  0.
         21    1    1    2  503  502  0.82242818333E+02  0.95857542681E+02  0.22384003525E+02  0.12827156064E+03  0.00000000000E+00 0.  1.
          2    1    1    2  501    0 -0.54736845582E+02  0.12343933235E+03  0.13064811144E+03  0.18788911639E+03  0.00000000000E+00 0. -1.
<mgrwt>
<rscale>  4 0.24049849E+03</rscale>
<asrwt>0</asrwt>
<pdfrwt beam="1">  1       21 0.10065789E+00 0.24049849E+03</pdfrwt>
<pdfrwt beam="2">  1        2 0.40421537E-01 0.24049849E+03</pdfrwt>
<totfact> 0.12360416E+03</totfact>
</mgrwt>
</event>
<event>
 5    0  0.1141006E+000  0.2385531E+03  0.7546771E-02  0.1120760E+00
         -2   -1    0    0    0  501 -0.00000000000E+00  0.00000000000E+00  0.22040481035E+04  0.22040481035E+04  0.00000000000E+00 0. -1.
         21   -1    0    0  503  502  0.00000000000E+00 -0.00000000000E+00 -0.35773355688E+02  0.35773355688E+02  0.00000000000E+00 0. -1.
         25    1    1    2    0    0 -0.20122299080E+03 -0.97455184751E+01  0.57599565668E+03  0.62288174132E+03  0.12500000000E+03 0.  0.
         21    1    1    2  503  501 -0.11892256110E+01 -0.37312887380E+02  0.69122474473E+03  0.69223212403E+03  0.00000000000E+00 0. -1.
         -2    1    1    2    0  502  0.20241221641E+03  0.47058405855E+02  0.90105434638E+03  0.92470759381E+03  0.00000000000E+00 0. -1.
<mgrwt>
<rscale>  4 0.23855313E+03</rscale>
<asrwt>0</asrwt>
<pdfrwt beam="1">  1       21 0.55035949E-02 0.23855313E+03</pdfrwt>
<pdfrwt beam="2">  1       -2 0.33908422E+00 0.23855313E+03</pdfrwt>
<totfact> 0.40757809E+02</totfact>
</mgrwt>
</event>
<event>
 5    0  0.1141006E+000  0.2541608E+03  0.7546771E-02  0.1110703E+00
          2   -1    0    0  503    0 -0.00000000000E+00  0.00000000000E+00  0.22457996669E+04  0.22457996669E+04  0.00000000000E+00 0.  1.
         21   -1    0    0  501  502  0.00000000000E+00 -0.00000000000E+00 -0.70133543673E+02  0.70133543673E+02  0.00000000000E+00 0.  1.
         25    1    1    2    0    0  0.16702774490E+03  0.18366054778E+03  0.14686227645E+04  0.14946930417E+04  0.12500000000E+03 0.  0.
         21    1    1    2  503  502 -0.88521839247E+01 -0.34261820767E+02  0.55423720455E+03  0.55536574654E+03  0.00000000000E+00 0. -1.
          2    1    1    2  501    0 -0.15817556098E+03 -0.14939872701E+03  0.15280615420E+03  0.26587442240E+03  0.00000000000E+00 0.  1.
<mgrwt>
<rscale>  4 0.25416080E+03</rscale>
<asrwt>0</asrwt>
<pdfrwt beam="1">  1       21 0.10789778E-01 0.25416080E+03</pdfrwt>
<pdfrwt beam="2">  1        2 0.34550759E+00 0.25416080E+03</pdfrwt>
<totfact> 0.49366229E+03</totfact>
</mgrwt>
</event>
<event>
 5    0  0.1141006E+000  0.3426585E+03  0.7546771E-02  0.1065669E+00
         21   -1    0    0  501  502  0.00000000000E+00  0.00000000000E+00  0.42125440831E+03  0.42125440831E+03  0.00000000000E+00 0. -1.
          1   -1    0    0  503    0 -0.00000000000E+00 -0.00000000000E+00 -0.51523781576E+03  0.51523781576E+03  0.00000000000E+00 0. -1.
         25    1    1    2    0    0 -0.32376347988E+01 -0.31256436263E+03  0.24734167211E+03  0.41774378012E+03  0.12500000000E+03 0.  0.
         21    1    1    2  503  502 -0.10845866956E+02 -0.33094467136E+02 -0.73198513674E+02  0.81061081840E+02  0.00000000000E+00 0. -1.
          1    1    1    2  501    0  0.14083501755E+02  0.34565882977E+03 -0.26812656589E+03  0.43768736211E+03  0.00000000000E+00 0. -1.
<mgrwt>
<rscale>  4 0.34265850E+03</rscale>
<asrwt>0</asrwt>
<pdfrwt beam="1">  1       21 0.64808371E-01 0.34265850E+03</pdfrwt>
<pdfrwt beam="2">  1        1 0.79267356E-01 0.34265850E+03</pdfrwt>
<totfact> 0.99128583E+02</totfact>
</mgrwt>
</event>
<event>
 5    0  0.1141006E+000  0.3929077E+03  0.7546771E-02  0.1046264E+00
         -4   -1    0    0    0  501 -0.00000000000E+00  0.00000000000E+00  0.69731468582E+03  0.69731468582E+03  0.00000000000E+00 0.  1.
         21   -1    0    0  503  502  0.00000000000E+00 -0.00000000000E+00 -0.66059795189E+03  0.66059795189E+03  0.00000000000E+00 0. -1.
         25    1    1    2    0    0 -0.35391811577E+03 -0.10065184540E+03 -0.50958931664E+03  0.64085497445E+03  0.12500000000E+03 0.  0.
         21    1    1    2  503  501 -0.45308324484E+02 -0.69488080475E+01  0.26809251136E+02  0.53102411879E+02  0.00000000000E+00 0.  1.
         -4    1    1    2    0  502  0.39922644025E+03  0.10760065344E+03  0.51949679943E+03  0.66395525138E+03  0.00000000000E+00 0.  1.
<mgrwt>
<rscale>  4 0.39290774E+03</rscale>
<asrwt>0</asrwt>
<pdfrwt beam="1">  1       21 0.10163045E+00 0.39290774E+03</pdfrwt>
<pdfrwt beam="2">  1       -4 0.10727918E+00 0.39290774E+03</pdfrwt>
<totfact> 0.22549217E+01</totfact>
</mgrwt>
</event>
<event>
 5    0  0.1141006E+000  0.2400279E+03  0.7546771E-02  0.1119774E+00
         21   -1    0    0  501  502  0.00000000000E+00  0.00000000000E+00  0.26658060036E+03  0.26658060036E+03  0.00000000000E+00 0.  1.
          3   -1    0    0  503    0 -0.00000000000E+00 -0.00000000000E+00 -0.61153587247E+03  0.61153587247E+03  0.00000000000E+00 0.  1.
         25    1    1    2    0    0  0.15837440411E+03  0.13169594663E+03  0.18075135181E+03  0.30120146981E+03  0.12500000000E+03 0.  0.
         21    1    1    2  503  502 -0.28704530133E+02  0.18498647628E+02 -0.42267889802E+02  0.54338977930E+02  0.00000000000E+00 0.  1.
          3    1    1    2  501    0 -0.12966987398E+03 -0.15019459426E+03 -0.48343873412E+03  0.52257602510E+03  0.00000000000E+00 0.  1.
<mgrwt>
<rscale>  4 0.24002792E+03</rscale>
<asrwt>0</asrwt>
<pdfrwt beam="1">  1       21 0.41012401E-01 0.24002792E+03</pdfrwt>
<pdfrwt beam="2">  1        3 0.94082441E-01 0.24002792E+03</pdfrwt>
<totfact> 0.29164582E+02</totfact>
</mgrwt>
</event>
<event>
 5    0  0.1141006E+000  0.2856659E+03  0.7546771E-02  0.1092634E+00
          2   -1    0    0  503    0 -0.00000000000E+00  0.00000000000E+00  0.30729989947E+03  0.30729989947E+03  0.00000000000E+00 0.  1.
         21   -1    0    0  501  502  0.00000000000E+00 -0.00000000000E+00 -0.30253801875E+04  0.30253801875E+04  0.00000000000E+00 0. -1.
         25    1    1    2    0    0 -0.12595206644E+03 -0.22386625917E+03 -0.29545414526E+04  0.29683194269E+04  0.12500000000E+03 0.  0.
         21    1    1    2  503  502  0.55463180197E+02  0.59516844840E+02  0.20360028553E+02  0.83862685027E+02  0.00000000000E+00 0. -1.
          2    1    1    2  501    0  0.70488886243E+02  0.16434941433E+03  0.21610113595E+03  0.28049797510E+03  0.00000000000E+00 0.  1.
<mgrwt>
<rscale>  4 0.28566593E+03</rscale>
<asrwt>0</asrwt>
<pdfrwt beam="1">  1       21 0.46544310E+00 0.28566593E+03</pdfrwt>
<pdfrwt beam="2">  1        2 0.47276909E-01 0.28566593E+03</pdfrwt>
<totfact> 0.37867334E+00</totfact>
</mgrwt>
</event>
<event>
 5    0  0.1141006E+000  0.2511043E+03  0.7546771E-02  0.1112609E+00
         21   -1    0    0  501  502  0.00000000000E+00  0.00000000000E+00  0.18737347610E+03  0.18737347610E+03  0.00000000000E+00 0. -1.
          2   -1    0    0  503    0 -0.00000000000E+00 -0.00000000000E+00 -0.34528493470E+03  0.34528493470E+03  0.00000000000E+00 0. -1.
         25    1    1    2    0    0 -0.76928007255E+02  0.20801968662E+03 -0.42561812197E+02  0.25812132066E+03  0.12500000000E+03 0.  0.
         21    1    1    2  503  502  0.21999258998E+02 -0.88623380365E+00 -0.43090160333E+02  0.48389200493E+02  0.00000000000E+00 0. -1.
          2    1    1    2  501    0  0.54928748256E+02 -0.20713345282E+03 -0.72259486069E+02  0.22614788964E+03  0.00000000000E+00 0. -1.
<mgrwt>
<rscale>  4 0.25110431E+03</rscale>
<asrwt>0</asrwt>
<pdfrwt beam="1">  1       21 0.28826689E-01 0.25110431E+03</pdfrwt>
<pdfrwt beam="2">  1        2 0.53120759E-01 0.25110431E+03</pdfrwt>
<totfact> 0.13290644E+04</totfact>
</mgrwt>
</event>
<event>
 5    0  0.1141006E+000  0.3191423E+03  0.7546771E-02  0.1076045E+00
         21   -1    0    0  501  502  0.00000000000E+00  0.00000000000E+00  0.38904241211E+03  0.38904241211E+03  0.00000000000E+00 0.  1.
          2   -1    0    0  503    0 -0.00000000000E+00 -0.00000000000E+00 -0.77231841911E+03  0.77231841911E+03  0.00000000000E+00 0.  1.
         25    1    1    2    0    0  0.15001683474E+03 -0.26033669243E+03  0.26791199493E+03  0.42152352385E+03  0.12500000000E+03 0.  0.
         21    1    1    2  503  502  0.90053322768E+01  0.77334809330E+02 -0.52448717901E+02  0.93875645153E+02  0.00000000000E+00 0.  1.
          2    1    1    2  501    0 -0.15902216702E+03  0.18300188310E+03 -0.59873928402E+03  0.64596166221E+03  0.00000000000E+00 0.  1.
<mgrwt>
<rscale>  4 0.31914225E+03</rscale>
<asrwt>0</asrwt>
<pdfrwt beam="1">  1       21 0.59852679E-01 0.31914225E+03</pdfrwt>
<pdfrwt beam="2">  1        2 0.11881822E+00 0.31914225E+03</pdfrwt>
<totfact> 0.11568090E+03</totfact>
</mgrwt>
</event>
<event>
 5    0  0.1141006E+000  0.2344063E+03  0.7546771E-02  0.1123576E+00
         21   -1    0    0  501  502  0.00000000000E+00  0.00000000000E+00  0.17706304702E+03  0.17706304702E+03  0.00000000000E+00 0. -1.
          1   -1    0    0  503    0 -0.00000000000E+00 -0.00000000000E+00 -0.57722636786E+03  0.57722636786E+03  0.00000000000E+00 0.  1.
         25    1    1    2    0    0 -0.19690432889E+03 -0.45228727652E+02  0.57391353378E+02  0.24440891960E+03  0.12500000000E+03 0.  0.
         21    1    1    2  503  502  0.24863420659E+02 -0.24447403885E+02 -0.11626759552E+03  0.12138376750E+03  0.00000000000E+00 0.  1.
          1    1    1    2  501    0  0.17204090823E+03  0.69676131536E+02 -0.34128707870E+03  0.38849672778E+03  0.00000000000E+00 0.  1.
<mgrwt>
<rscale>  4 0.23440630E+03</rscale>
<asrwt>0</asrwt>
<pdfrwt beam="1">  1       21 0.27240469E-01 0.23440630E+03</pdfrwt>
<pdfrwt beam="2">  1        1 0.88804057E-01 0.23440630E+03</pdfrwt>
<totfact> 0.52214528E+03</totfact>
</mgrwt>
</event>
<event>
 5    0  0.1141006E+000  0.2725685E+03  0.7546771E-02  0.1099819E+00
          2   -1    0    0  503    0 -0.00000000000E+00  0.00000000000E+00  0.25637705687E+04  0.25637705687E+04  0.00000000000E+00 0.  1.
         21   -1    0    0  501  502  0.00000000000E+00 -0.00000000000E+00 -0.66830014990E+03  0.66830014990E+03  0.00000000000E+00 0. -1.
         25    1    1    2    0    0  0.23925414455E+03 -0.46641251178E+02 -0.62012220662E+03  0.67793399616E+03  0.12500000000E+03 0.  0.
         21    1    1    2  503  502 -0.13402129549E+03 -0.64241893302E+02  0.31564951072E+03  0.34888872455E+03  0.00000000000E+00 0. -1.
          2    1    1    2  501    0 -0.10523284906E+03  0.11088314448E+03  0.21999431147E+04  0.22052479979E+04  0.00000000000E+00 0.  1.
<mgrwt>
<rscale>  4 0.27256847E+03</rscale>
<asrwt>0</asrwt>
<pdfrwt beam="1">  1       21 0.10281541E+00 0.27256847E+03</pdfrwt>
<pdfrwt beam="2">  1        2 0.39442624E+00 0.27256847E+03</pdfrwt>
<totfact> 0.34320448E+01</totfact>
</mgrwt>
</event>
<event>
 5    0  0.1141006E+000  0.2473364E+03  0.7546771E-02  0.1115000E+00
          2   -1    0    0  503    0 -0.00000000000E+00  0.00000000000E+00  0.16810992069E+04  0.16810992069E+04  0.00000000000E+00 0. -1.
         21   -1    0    0  501  502  0.00000000000E+00 -0.00000000000E+00 -0.90281976314E+02  0.90281976314E+02  0.00000000000E+00 0. -1.
         25    1    1    2    0    0  0.18476346398E+03 -0.10467547697E+03  0.11368523428E+03  0.27137395894E+03  0.12500000000E+03 0.  0.
         21    1    1    2  503  502 -0.91714987153E+01 -0.33045342154E+02  0.12661847772E+03  0.13118060042E+03  0.00000000000E+00 0. -1.
          2    1    1    2  501    0 -0.17559196526E+03  0.13772081912E+03  0.13505135186E+04  0.13688266239E+04  0.00000000000E+00 0. -1.
<mgrwt>
<rscale>  4 0.24733643E+03</rscale>
<asrwt>0</asrwt>
<pdfrwt beam="1">  1       21 0.13889536E-01 0.24733643E+03</pdfrwt>
<pdfrwt beam="2">  1        2 0.25863062E+00 0.24733643E+03</pdfrwt>
<totfact> 0.62215984E+03</totfact>
</mgrwt>
</event>
<event>
 5    0  0.1141006E+000  0.2716453E+03  0.7546771E-02  0.1100342E+00
         -1   -1    0    0    0  501 -0.00000000000E+00  0.00000000000E+00  0.28731775864E+04  0.28731775864E+04  0.00000000000E+00 0.  1.
         21   -1    0    0  503  502  0.00000000000E+00 -0.00000000000E+00 -0.10373780143E+03  0.10373780143E+03  0.00000000000E+00 0. -1.
         25    1    1    2    0    0 -0.72035124959E+02 -0.23420304629E+03  0.12276726007E+03  0.30122570652E+03  0.12500000000E+03 0.  0.
         21    1    1    2  503  501  0.24509565884E+02  0.13487698083E+02  0.17760093555E+04  0.17762296777E+04  0.00000000000E+00 0.  1.
         -1    1    1    2    0  502  0.47525559075E+02  0.22071534821E+03  0.87066316932E+03  0.89946000362E+03  0.00000000000E+00 0.  1.
<mgrwt>
<rscale>  4 0.27164528E+03</rscale>
<asrwt>0</asrwt>
<pdfrwt beam="1">  1       21 0.15959664E-01 0.27164528E+03</pdfrwt>
<pdfrwt beam="2">  1       -1 0.44202726E+00 0.27164528E+03</pdfrwt>
<totfact> 0.14732449E+01</totfact>
</mgrwt>
</event>
<event>
 5    0  0.1141006E+000  0.3165097E+03  0.7546771E-02  0.1077267E+00
         21   -1    0    0  501  502  0.00000000000E+00  0.00000000000E+00  0.17294945654E+03  0.17294945654E+03  0.00000000000E+00 0. -1.
          1   -1    0    0  503    0 -0.00000000000E+00 -0.00000000000E+00 -0.15827579872E+04  0.15827579872E+04  0.00000000000E+00 0. -1.
         25    1    1    2    0    0  0.77829133790E+02 -0.28520961392E+03 -0.12342711421E+02  0.32121525566E+03  0.12500000000E+03 0.  0.
         21    1    1    2  503  502 -0.15957721221E+02  0.29842319251E+02 -0.44988720105E+03  0.45115818351E+03  0.00000000000E+00 0. -1.
          1    1    1    2  501    0 -0.61871412569E+02  0.25536729467E+03 -0.94757861819E+03  0.98333400456E+03  0.00000000000E+00 0. -1.
<mgrwt>
<rscale>  4 0.31650974E+03</rscale>
<asrwt>0</asrwt>
<pdfrwt beam="1">  1       21 0.26607610E-01 0.31650974E+03</pdfrwt>
<pdfrwt beam="2">  1        1 0.24350122E+00 0.31650974E+03</pdfrwt>
<totfact> 0.90667915E+02</totfact>
</mgrwt>
</event>
<event>
 5    0  0.1141006E+000  0.2645817E+03  0.7546771E-02  0.1104421E+00
          2   -1    0    0  503    0 -0.00000000000E+00  0.00000000000E+00  0.12170125098E+04  0.12170125098E+04  0.00000000000E+00 0.  1.
         21   -1    0    0  501  502  0.00000000000E+00 -0.00000000000E+00 -0.21230390365E+04  0.21230390365E+04  0.00000000000E+00 0. -1.
         25    1    1    2    0    0  0.22722148866E+03 -0.54019461079E+02 -0.20914946681E+04  0.21082036557E+04  0.12500000000E+03 0.  0.
         21    1    1    2  503  502 -0.58345373545E+02 -0.30096523361E+02  0.54710182109E+02  0.85458688025E+02  0.00000000000E+00 0. -1.
          2    1    1    2  501    0 -0.16887611511E+03  0.84115984440E+02  0.11307579593E+04  0.11463892026E+04  0.00000000000E+00 0.  1.
<mgrwt>
<rscale>  4 0.26458171E+03</rscale>
<asrwt>0</asrwt>
<pdfrwt beam="1">  1       21 0.32662139E+00 0.26458171E+03</pdfrwt>
<pdfrwt beam="2">  1        2 0.18723269E+00 0.26458171E+03</pdfrwt>
<totfact> 0.53964124E+00</totfact>
</mgrwt>
</event>
<event>
 5    0  0.1141006E+000  0.4016995E+03  0.7546771E-02  0.1043193E+00
          2   -1    0    0  503    0 -0.00000000000E+00  0.00000000000E+00  0.12368260768E+04  0.12368260768E+04  0.00000000000E+00 0.  1.
         21   -1    0    0  501  502  0.00000000000E+00 -0.00000000000E+00 -0.17083854643E+03  0.17083854643E+03  0.00000000000E+00 0.  1.
         25    1    1    2    0    0  0.22947415127E+02 -0.37494831706E+03  0.18777296361E+03  0.43817406381E+03  0.12500000000E+03 0.  0.
         21    1    1    2  503  502  0.20921595526E+02 -0.64268210618E+01  0.21415324393E+02  0.30620798605E+02  0.00000000000E+00 0. -1.
          2    1    1    2  501    0 -0.43869010653E+02  0.38137513812E+03  0.85679924233E+03  0.93886976079E+03  0.00000000000E+00 0.  1.
<mgrwt>
<rscale>  4 0.40169949E+03</rscale>
<asrwt>0</asrwt>
<pdfrwt beam="1">  1       21 0.26282854E-01 0.40169949E+03</pdfrwt>
<pdfrwt beam="2">  1        2 0.19028093E+00 0.40169949E+03</pdfrwt>
<totfact> 0.31274721E+03</totfact>
</mgrwt>
</event>
<event>
 5    0  0.1141006E+000  0.3019553E+03  0.7546771E-02  0.1084267E+00
          2   -1    0    0  503    0 -0.00000000000E+00  0.00000000000E+00  0.46647457779E+03  0.46647457779E+03  0.00000000000E+00 0. -1.
         21   -1    0    0  501  502  0.00000000000E+00 -0.00000000000E+00 -0.54435348326E+03  0.54435348326E+03  0.00000000000E+00 0.  1.
         25    1    1    2    0    0 -0.71903459162E+02  0.26529590165E+03 -0.45304875911E+03  0.54445403938E+03  0.12500000000E+03 0.  0.
         21    1    1    2  503  502  0.13354436695E+02 -0.16791953648E+02  0.23791232026E+02  0.32036438755E+02  0.00000000000E+00 0. -1.
          2    1    1    2  501    0  0.58549022467E+02 -0.24850394800E+03  0.35137862161E+03  0.43433758291E+03  0.00000000000E+00 0. -1.
<mgrwt>
<rscale>  4 0.30195533E+03</rscale>
<asrwt>0</asrwt>
<pdfrwt beam="1">  1       21 0.83746690E-01 0.30195533E+03</pdfrwt>
<pdfrwt beam="2">  1        2 0.71765320E-01 0.30195533E+03</pdfrwt>
<totfact> 0.99480184E+02</totfact>
</mgrwt>
</event>
<event>
 5    0  0.1141006E+000  0.3215070E+03  0.7546771E-02  0.1074958E+00
         -1   -1    0    0    0  501 -0.00000000000E+00  0.00000000000E+00  0.12098551723E+04  0.12098551723E+04  0.00000000000E+00 0. -1.
         21   -1    0    0  503  502  0.00000000000E+00 -0.00000000000E+00 -0.15721793733E+03  0.15721793733E+03  0.00000000000E+00 0. -1.
         25    1    1    2    0    0  0.11414764298E+03 -0.26404923907E+03  0.91626470269E+02  0.32675999618E+03  0.12500000000E+03 0.  0.
         21    1    1    2  503  501  0.57168901613E+02 -0.23113639326E+02  0.11249416785E+03  0.12828663779E+03  0.00000000000E+00 0.  1.
         -1    1    1    2    0  502 -0.17131654459E+03  0.28716287840E+03  0.84851659687E+03  0.91202647568E+03  0.00000000000E+00 0. -1.
<mgrwt>
<rscale>  4 0.32150696E+03</rscale>
<asrwt>0</asrwt>
<pdfrwt beam="1">  1       21 0.24187376E-01 0.32150696E+03</pdfrwt>
<pdfrwt beam="2">  1       -1 0.18613156E+00 0.32150696E+03</pdfrwt>
<totfact> 0.30140180E+02</totfact>
</mgrwt>
</event>
<event>
 5    0  0.1141006E+000  0.5734793E+03  0.7546771E-02  0.9962009E-01
          1   -1    0    0  503    0 -0.00000000000E+00  0.00000000000E+00  0.15728336269E+04  0.15728336269E+04  0.00000000000E+00 0.  1.
         21   -1    0    0  501  502  0.00000000000E+00 -0.00000000000E+00 -0.29824491932E+03  0.29824491932E+03  0.00000000000E+00 0.  1.
         25    1    1    2    0    0 -0.50193112224E+03 -0.30550966409E+03  0.34729680631E+03  0.69390999272E+03  0.12500000000E+03 0.  0.
         21    1    1    2  503  502  0.11041329699E+03 -0.83269978445E+02  0.63454741771E+02  0.15215613598E+03  0.00000000000E+00 0.  1.
          1    1    1    2  501    0  0.39151782525E+03  0.38877964253E+03  0.86383715947E+03  0.10250124175E+04  0.00000000000E+00 0.  1.
<mgrwt>
<rscale>  4 0.57347934E+03</rscale>
<asrwt>0</asrwt>
<pdfrwt beam="1">  1       21 0.45883835E-01 0.57347934E+03</pdfrwt>
<pdfrwt beam="2">  1        1 0.24197440E+00 0.57347934E+03</pdfrwt>
<totfact> 0.28231759E+02</totfact>
</mgrwt>
</event>
<event>
 5    0  0.1141006E+000  0.2763314E+03  0.7546771E-02  0.1097710E+00
         21   -1    0    0  501  502  0.00000000000E+00  0.00000000000E+00  0.10459859159E+03  0.10459859159E+03  0.00000000000E+00 0.  1.
          2   -1    0    0  503    0 -0.00000000000E+00 -0.00000000000E+00 -0.11730639126E+04  0.11730639126E+04  0.00000000000E+00 0.  1.
         25    1    1    2    0    0  0.20817795577E+03  0.15661249448E+02 -0.13454416336E+03  0.27804760005E+03  0.12500000000E+03 0.  0.
         21    1    1    2  503  502  0.47265116416E+02 -0.41696164995E+02 -0.54004404097E+02  0.83000223295E+02  0.00000000000E+00 0. -1.
          2    1    1    2  501    0 -0.25544307218E+03  0.26034915547E+02 -0.87991675352E+03  0.91661468081E+03  0.00000000000E+00 0.  1.
<mgrwt>
<rscale>  4 0.27633140E+03</rscale>
<asrwt>0</asrwt>
<pdfrwt beam="1">  1       21 0.16092091E-01 0.27633140E+03</pdfrwt>
<pdfrwt beam="2">  1        2 0.18047137E+00 0.27633140E+03</pdfrwt>
<totfact> 0.88990228E+03</totfact>
</mgrwt>
</event>
