<event>
 5    0  0.7099509E-001  0.6011008E+03  0.7546771E-02  0.9903125E-01
          1   -1    0    0  503    0 -0.00000000000E+00  0.00000000000E+00  0.14379320550E+04  0.14379320550E+04  0.00000000000E+00 0.  1.
         21   -1    0    0  501  502  0.00000000000E+00 -0.00000000000E+00 -0.98284357654E+02  0.98284357654E+02  0.00000000000E+00 0.  1.
         25    1    1    2    0    0  0.25336664864E+03  0.16161241017E+02  0.29564530620E+03  0.40925174578E+03  0.12500000000E+03 0.  0.
         21    1    1    2  503  502 -0.30281304266E+03  0.26370527027E+02  0.54767068388E+03  0.62636596450E+03  0.00000000000E+00 0.  1.
          1    1    1    2  501    0  0.49446394021E+02 -0.42531768045E+02  0.49633170724E+03  0.50059870234E+03  0.00000000000E+00 0.  1.
<mgrwt>
<rscale>  4 0.60110081E+03</rscale>
<asrwt>0</asrwt>
<pdfrwt beam="1">  1       21 0.15120671E-01 0.60110081E+03</pdfrwt>
<pdfrwt beam="2">  1        1 0.22122030E+00 0.60110081E+03</pdfrwt>
<totfact> 0.31056819E+03</totfact>
</mgrwt>
</event>
<event>
 5    0  0.7099509E-001  0.5508513E+03  0.7546771E-02  0.1001297E+00
          1   -1    0    0  503    0 -0.00000000000E+00  0.00000000000E+00  0.96641641350E+02  0.96641641350E+02  0.00000000000E+00 0. -1.
         21   -1    0    0  501  502  0.00000000000E+00 -0.00000000000E+00 -0.11604242535E+04  0.11604242535E+04  0.00000000000E+00 0. -1.
         25    1    1    2    0    0 -0.20732208987E+03 -0.55365985692E+02 -0.20550908732E+03  0.32234581786E+03  0.12500000000E+03 0.  0.
         21    1    1    2  503  502  0.16348715874E+03  0.37608881049E+02 -0.86997282982E+03  0.88599955058E+03  0.00000000000E+00 0. -1.
          1    1    1    2  501    0  0.43834931127E+02  0.17757104642E+02  0.11699305021E+02  0.48720526375E+02  0.00000000000E+00 0. -1.
<mgrwt>
<rscale>  4 0.55085132E+03</rscale>
<asrwt>0</asrwt>
<pdfrwt beam="1">  1       21 0.17852680E+00 0.55085132E+03</pdfrwt>
<pdfrwt beam="2">  1        1 0.14867946E-01 0.55085132E+03</pdfrwt>
<totfact> 0.66124719E+02</totfact>
</mgrwt>
</event>
<event>
 5    0  0.7099509E-001  0.6128108E+03  0.7546771E-02  0.9879179E-01
         -2   -1    0    0    0  501 -0.00000000000E+00  0.00000000000E+00  0.41436401340E+03  0.41436401340E+03  0.00000000000E+00 0. -1.
         21   -1    0    0  501  502  0.00000000000E+00 -0.00000000000E+00 -0.61662447433E+03  0.61662447433E+03  0.00000000000E+00 0. -1.
         25    1    1    2    0    0  0.34712962956E+03  0.10571015305E+03  0.66126750972E+02  0.38945007815E+03  0.12500000000E+03 0.  0.
         21    1    1    2  503  502  0.21245699849E+02  0.26568647716E+02 -0.24723241158E+03  0.24956189240E+03  0.00000000000E+00 0. -1.
         -2    1    1    2    0  503 -0.36837532941E+03 -0.13227880076E+03 -0.21154800323E+02  0.39197651719E+03  0.00000000000E+00 0. -1.
<mgrwt>
<rscale>  4 0.61281077E+03</rscale>
<asrwt>0</asrwt>
<pdfrwt beam="1">  1       21 0.94865304E-01 0.61281077E+03</pdfrwt>
<pdfrwt beam="2">  1       -2 0.63748310E-01 0.61281077E+03</pdfrwt>
<totfact> 0.15458993E+02</totfact>
</mgrwt>
</event>
<event>
 5    0  0.7099509E-001  0.4725347E+03  0.7546771E-02  0.1021207E+00
          2   -1    0    0  503    0 -0.00000000000E+00  0.00000000000E+00  0.17749350050E+04  0.17749350050E+04  0.00000000000E+00 0.  1.
         21   -1    0    0  501  502  0.00000000000E+00 -0.00000000000E+00 -0.43776015295E+03  0.43776015295E+03  0.00000000000E+00 0.  1.
         25    1    1    2    0    0 -0.19142330866E+02 -0.32620126933E+03 -0.21009606012E+03  0.40809196441E+03  0.12500000000E+03 0.  0.
         21    1    1    2  503  502  0.63733513371E+02  0.10413814425E+03 -0.90038160362E+02  0.15170228784E+03  0.00000000000E+00 0. -1.
          2    1    1    2  501    0 -0.44591182505E+02  0.22206312508E+03  0.16373090726E+04  0.16529009057E+04  0.00000000000E+00 0.  1.
<mgrwt>
<rscale>  4 0.47253471E+03</rscale>
<asrwt>0</asrwt>
<pdfrwt beam="1">  1       21 0.67347717E-01 0.47253471E+03</pdfrwt>
<pdfrwt beam="2">  1        2 0.27306692E+00 0.47253471E+03</pdfrwt>
<totfact> 0.21914444E+02</totfact>
</mgrwt>
</event>
<event>
 5    0  0.7099509E-001  0.4432129E+03  0.7546771E-02  0.1029766E+00
          1   -1    0    0  503    0 -0.00000000000E+00  0.00000000000E+00  0.18410763055E+03  0.18410763055E+03  0.00000000000E+00 0. -1.
         21   -1    0    0  501  502  0.00000000000E+00 -0.00000000000E+00 -0.43663182524E+03  0.43663182524E+03  0.00000000000E+00 0. -1.
         25    1    1    2    0    0 -0.16818996369E+03  0.14362217000E+03 -0.26288205306E+03  0.36557785138E+03  0.12500000000E+03 0.  0.
         21    1    1    2  503  502  0.12128489530E+03 -0.11792746515E+03 -0.48158703932E+02  0.17588682051E+03  0.00000000000E+00 0. -1.
          1    1    1    2  501    0  0.46905068394E+02 -0.25694704843E+02  0.58516562300E+02  0.79274783894E+02  0.00000000000E+00 0. -1.
<mgrwt>
<rscale>  4 0.44321286E+03</rscale>
<asrwt>0</asrwt>
<pdfrwt beam="1">  1       21 0.67174126E-01 0.44321286E+03</pdfrwt>
<pdfrwt beam="2">  1        1 0.28324251E-01 0.44321286E+03</pdfrwt>
<totfact> 0.33849094E+03</totfact>
</mgrwt>
</event>
<event>
 5    0  0.7099509E-001  0.7311164E+03  0.7546771E-02  0.9665450E-01
         21   -1    0    0  501  502  0.00000000000E+00  0.00000000000E+00  0.67362987030E+03  0.67362987030E+03  0.00000000000E+00 0.  1.
          1   -1    0    0  503    0 -0.00000000000E+00 -0.00000000000E+00 -0.24460152976E+04  0.24460152976E+04  0.00000000000E+00 0.  1.
         25    1    1    2    0    0  0.20179130763E+03  0.81045914650E+02 -0.89126031721E+02  0.26618907124E+03  0.12500000000E+03 0.  0.
         21    1    1    2  503  502 -0.21915958283E+03 -0.26166371617E+02  0.56390153412E+03  0.60555804176E+03  0.00000000000E+00 0.  1.
          1    1    1    2  501    0  0.17368275198E+02 -0.54879543032E+02 -0.22471609297E+04  0.22478980549E+04  0.00000000000E+00 0.  1.
<mgrwt>
<rscale>  4 0.73111644E+03</rscale>
<asrwt>0</asrwt>
<pdfrwt beam="1">  1       21 0.10363536E+00 0.73111644E+03</pdfrwt>
<pdfrwt beam="2">  1        1 0.37631005E+00 0.73111644E+03</pdfrwt>
<totfact> 0.11026317E+01</totfact>
</mgrwt>
</event>
<event>
 5    0  0.7099509E-001  0.6638881E+03  0.7546771E-02  0.9781063E-01
         21   -1    0    0  501  502  0.00000000000E+00  0.00000000000E+00  0.32801401308E+03  0.32801401308E+03  0.00000000000E+00 0.  1.
          1   -1    0    0  503    0 -0.00000000000E+00 -0.00000000000E+00 -0.95784614338E+03  0.95784614338E+03  0.00000000000E+00 0.  1.
         25    1    1    2    0    0 -0.19108864207E+03  0.20601967842E+03 -0.13755378532E+03  0.33690506212E+03  0.12500000000E+03 0.  0.
         21    1    1    2  503  502  0.19646095339E+03 -0.22726157953E+03  0.12925580922E+03  0.32703485434E+03  0.00000000000E+00 0.  1.
          1    1    1    2  501    0 -0.53723113226E+01  0.21241901109E+02 -0.62153415419E+03  0.62192023999E+03  0.00000000000E+00 0.  1.
<mgrwt>
<rscale>  4 0.66388806E+03</rscale>
<asrwt>0</asrwt>
<pdfrwt beam="1">  1       21 0.50463695E-01 0.66388806E+03</pdfrwt>
<pdfrwt beam="2">  1        1 0.14736094E+00 0.66388806E+03</pdfrwt>
<totfact> 0.62328284E+02</totfact>
</mgrwt>
</event>
<event>
 5    0  0.7099509E-001  0.4929424E+03  0.7546771E-02  0.1015638E+00
          2   -1    0    0  503    0 -0.00000000000E+00  0.00000000000E+00  0.12610005156E+04  0.12610005156E+04  0.00000000000E+00 0.  1.
         21   -1    0    0  501  502  0.00000000000E+00 -0.00000000000E+00 -0.97477274414E+02  0.97477274414E+02  0.00000000000E+00 0. -1.
         25    1    1    2    0    0  0.53828229154E+02 -0.20441551503E+03  0.49108578896E+03  0.54906596430E+03  0.12500000000E+03 0.  0.
         21    1    1    2  503  502 -0.35454064580E+02  0.16705361791E+03  0.39728840715E+02  0.17533477332E+03  0.00000000000E+00 0. -1.
          2    1    1    2  501    0 -0.18374164574E+02  0.37361897121E+02  0.63270861148E+03  0.63407705235E+03  0.00000000000E+00 0.  1.
<mgrwt>
<rscale>  4 0.49294245E+03</rscale>
<asrwt>0</asrwt>
<pdfrwt beam="1">  1       21 0.14996505E-01 0.49294245E+03</pdfrwt>
<pdfrwt beam="2">  1        2 0.19400007E+00 0.49294245E+03</pdfrwt>
<totfact> 0.86605962E+03</totfact>
</mgrwt>
</event>
<event>
 5    0  0.7099509E-001  0.4923737E+03  0.7546771E-02  0.1015789E+00
         -1   -1    0    0    0  501 -0.00000000000E+00  0.00000000000E+00  0.14733378019E+04  0.14733378019E+04  0.00000000000E+00 0. -1.
         21   -1    0    0  501  502  0.00000000000E+00 -0.00000000000E+00 -0.15214601845E+03  0.15214601845E+03  0.00000000000E+00 0.  1.
         25    1    1    2    0    0  0.12517931168E+03  0.21682537133E+03  0.14345368909E+03  0.31446313399E+03  0.12500000000E+03 0.  0.
         21    1    1    2  503  502 -0.90605859533E+02 -0.19223166117E+03  0.10427356479E+03  0.23671799604E+03  0.00000000000E+00 0. -1.
         -1    1    1    2    0  503 -0.34573452146E+02 -0.24593710167E+02  0.10734645295E+04  0.10743026903E+04  0.00000000000E+00 0. -1.
<mgrwt>
<rscale>  4 0.49237369E+03</rscale>
<asrwt>0</asrwt>
<pdfrwt beam="1">  1       21 0.23407081E-01 0.49237369E+03</pdfrwt>
<pdfrwt beam="2">  1       -1 0.22666734E+00 0.49237369E+03</pdfrwt>
<totfact> 0.16396805E+02</totfact>
</mgrwt>
</event>
<event>
 5    0  0.7099509E-001  0.5437437E+03  0.7546771E-02  0.1002952E+00
         21   -1    0    0  501  502  0.00000000000E+00  0.00000000000E+00  0.38414622397E+02  0.38414622397E+02  0.00000000000E+00 0.  1.
          1   -1    0    0  503    0 -0.00000000000E+00 -0.00000000000E+00 -0.28019869872E+04  0.28019869872E+04  0.00000000000E+00 0. -1.
         25    1    1    2    0    0  0.16768495861E+03 -0.19482412773E+03 -0.19208764464E+04  0.19420262635E+04  0.12500000000E+03 0.  0.
         21    1    1    2  503  502 -0.16950867817E+03  0.82854594504E+02 -0.40843690982E+03  0.44990975219E+03  0.00000000000E+00 0.  1.
          1    1    1    2  501    0  0.18237195550E+01  0.11196953322E+03 -0.43425900868E+03  0.44846559393E+03  0.00000000000E+00 0. -1.
<mgrwt>
<rscale>  4 0.54374368E+03</rscale>
<asrwt>0</asrwt>
<pdfrwt beam="1">  1       21 0.59099428E-02 0.54374368E+03</pdfrwt>
<pdfrwt beam="2">  1        1 0.43107486E+00 0.54374368E+03</pdfrwt>
<totfact> 0.20593224E+03</totfact>
</mgrwt>
</event>
<event>
 5    0  0.7099509E-001  0.5726516E+03  0.7546771E-02  0.9963828E-01
         -3   -1    0    0    0  501 -0.00000000000E+00  0.00000000000E+00  0.15982866192E+04  0.15982866192E+04  0.00000000000E+00 0.  1.
         21   -1    0    0  501  502  0.00000000000E+00 -0.00000000000E+00 -0.11966304742E+03  0.11966304742E+03  0.00000000000E+00 0. -1.
         25    1    1    2    0    0 -0.38392698062E+02  0.23105306989E+03  0.86662620946E+02  0.27927572440E+03  0.12500000000E+03 0.  0.
         21    1    1    2  503  502  0.46842268700E+02 -0.21101571183E+03  0.47965738379E+03  0.52611123786E+03  0.00000000000E+00 0. -1.
         -3    1    1    2    0  503 -0.84495706380E+01 -0.20037358057E+02  0.91230356704E+03  0.91256270436E+03  0.00000000000E+00 0.  1.
<mgrwt>
<rscale>  4 0.57265156E+03</rscale>
<asrwt>0</asrwt>
<pdfrwt beam="1">  1       21 0.18409701E-01 0.57265156E+03</pdfrwt>
<pdfrwt beam="2">  1       -3 0.24589023E+00 0.57265156E+03</pdfrwt>
<totfact> 0.10614203E+02</totfact>
</mgrwt>
</event>
<event>
 5    0  0.7099509E-001  0.4544667E+03  0.7546771E-02  0.1026398E+00
         21   -1    0    0  501  502  0.00000000000E+00  0.00000000000E+00  0.51523920858E+02  0.51523920858E+02  0.00000000000E+00 0.  1.
          2   -1    0    0  503    0 -0.00000000000E+00 -0.00000000000E+00 -0.30608055085E+04  0.30608055085E+04  0.00000000000E+00 0. -1.
         25    1    1    2    0    0  0.27082961473E+03  0.22544778100E+02 -0.58260877432E+03  0.65491597258E+03  0.12500000000E+03 0.  0.
         21    1    1    2  503  502  0.23709244965E+02  0.62049493735E+02 -0.75243381889E+03  0.75536012589E+03  0.00000000000E+00 0. -1.
          2    1    1    2  501    0 -0.29453885970E+03 -0.84594271835E+02 -0.16742389944E+04  0.17020533309E+04  0.00000000000E+00 0. -1.
<mgrwt>
<rscale>  4 0.45446666E+03</rscale>
<asrwt>0</asrwt>
<pdfrwt beam="1">  1       21 0.79267542E-02 0.45446666E+03</pdfrwt>
<pdfrwt beam="2">  1        2 0.47089333E+00 0.45446666E+03</pdfrwt>
<totfact> 0.27568863E+03</totfact>
</mgrwt>
</event>
<event>
 5    0  0.7099509E-001  0.5838509E+03  0.7546771E-02  0.9939489E-01
          2   -1    0    0  503    0 -0.00000000000E+00  0.00000000000E+00  0.70599651121E+03  0.70599651121E+03  0.00000000000E+00 0. -1.
         21   -1    0    0  501  502  0.00000000000E+00 -0.00000000000E+00 -0.13007017318E+04  0.13007017318E+04  0.00000000000E+00 0. -1.
         25    1    1    2    0    0 -0.18206431760E+03 -0.10731337896E+03 -0.34552910273E+03  0.42388552450E+03  0.12500000000E+03 0.  0.
         21    1    1    2  503  502  0.29025575857E+03  0.11235915418E+03 -0.88484164375E+03  0.93798599106E+03  0.00000000000E+00 0. -1.
          2    1    1    2  501    0 -0.10819144097E+03 -0.50457752223E+01  0.63566552585E+03  0.64482672750E+03  0.00000000000E+00 0. -1.
<mgrwt>
<rscale>  4 0.58385088E+03</rscale>
<asrwt>0</asrwt>
<pdfrwt beam="1">  1       21 0.20010796E+00 0.58385088E+03</pdfrwt>
<pdfrwt beam="2">  1        2 0.10861485E+00 0.58385088E+03</pdfrwt>
<totfact> 0.56376751E+01</totfact>
</mgrwt>
</event>
<event>
 5    0  0.1270095E+000  0.7033175E+03  0.7546771E-02  0.9711576E-01
         -1   -1    0    0    0  501 -0.00000000000E+00  0.00000000000E+00  0.55096577645E+03  0.55096577645E+03  0.00000000000E+00 0.  1.
         21   -1    0    0  501  502  0.00000000000E+00 -0.00000000000E+00 -0.51568235722E+03  0.51568235722E+03  0.00000000000E+00 0. -1.
         25    1    1    2    0    0  0.21104290970E+03 -0.25008758624E+02 -0.45647588515E+03  0.51880611163E+03  0.12500000000E+03 0.  0.
         21    1    1    2  503  502 -0.12926208257E+03 -0.26069474635E+02  0.19172226107E+03  0.23269234815E+03  0.00000000000E+00 0.  1.
         -1    1    1    2    0  503 -0.81780827127E+02  0.51078233258E+02  0.30003704331E+03  0.31514967390E+03  0.00000000000E+00 0.  1.
<mgrwt>
<rscale>  4 0.70331746E+03</rscale>
<asrwt>0</asrwt>
<pdfrwt beam="1">  1       21 0.79335747E-01 0.70331746E+03</pdfrwt>
<pdfrwt beam="2">  1       -1 0.84763965E-01 0.70331746E+03</pdfrwt>
<totfact> 0.16180204E+02</totfact>
</mgrwt>
</event>
<event>
 5    0  0.7099509E-001  0.6537033E+03  0.7546771E-02  0.9799855E-01
         -2   -1    0    0    0  501 -0.00000000000E+00  0.00000000000E+00  0.70760246421E+03  0.70760246421E+03  0.00000000000E+00 0.  1.
         21   -1    0    0  501  502  0.00000000000E+00 -0.00000000000E+00 -0.10263284178E+04  0.10263284178E+04  0.00000000000E+00 0. -1.
         25    1    1    2    0    0  0.15877335566E+03 -0.27761507477E+03 -0.28756644532E+03  0.44788231566E+03  0.12500000000E+03 0.  0.
         21    1    1    2  503  502 -0.19125331626E+03  0.16563441401E+03 -0.62845885017E+03  0.67747554675E+03  0.00000000000E+00 0. -1.
         -2    1    1    2    0  503  0.32479960593E+02  0.11198066076E+03  0.59729934195E+03  0.60857301955E+03  0.00000000000E+00 0.  1.
<mgrwt>
<rscale>  4 0.65370328E+03</rscale>
<asrwt>0</asrwt>
<pdfrwt beam="1">  1       21 0.15789668E+00 0.65370328E+03</pdfrwt>
<pdfrwt beam="2">  1       -2 0.10886192E+00 0.65370328E+03</pdfrwt>
<totfact> 0.12182591E+01</totfact>
</mgrwt>
</event>
<event>
 5    0  0.7099509E-001  0.5106394E+03  0.7546771E-02  0.1011039E+00
         21   -1    0    0  501  502  0.00000000000E+00  0.00000000000E+00  0.13382955334E+03  0.13382955334E+03  0.00000000000E+00 0.  1.
         -2   -1    0    0    0  501 -0.00000000000E+00 -0.00000000000E+00 -0.12151192860E+04  0.12151192860E+04  0.00000000000E+00 0.  1.
         25    1    1    2    0    0 -0.29433815816E+03 -0.92097554679E+02 -0.41480872446E+03  0.53179713125E+03  0.12500000000E+03 0.  0.
         21    1    1    2  503  502  0.10578311795E+03 -0.11804386934E+03 -0.39437609521E+03  0.42503756023E+03  0.00000000000E+00 0.  1.
         -2    1    1    2    0  503  0.18855504021E+03  0.21014142402E+03 -0.27210491299E+03  0.39211414785E+03  0.00000000000E+00 0.  1.
<mgrwt>
<rscale>  4 0.51063936E+03</rscale>
<asrwt>0</asrwt>
<pdfrwt beam="1">  1       21 0.20589162E-01 0.51063936E+03</pdfrwt>
<pdfrwt beam="2">  1       -2 0.18694143E+00 0.51063936E+03</pdfrwt>
<totfact> 0.29221974E+02</totfact>
</mgrwt>
</event>
<event>
 5    0  0.7099509E-001  0.8681839E+03  0.7546771E-02  0.9466251E-01
          3   -1    0    0  503    0 -0.00000000000E+00  0.00000000000E+00  0.74974007702E+03  0.74974007702E+03  0.00000000000E+00 0.  1.
         21   -1    0    0  501  502  0.00000000000E+00 -0.00000000000E+00 -0.11325382392E+04  0.11325382392E+04  0.00000000000E+00 0. -1.
         25    1    1    2    0    0 -0.37332450892E+03  0.84150209400E+02 -0.25717330039E+03  0.47771911531E+03  0.12500000000E+03 0.  0.
         21    1    1    2  503  502  0.40790285162E+03 -0.73893029138E+02 -0.70834179338E+03  0.82072712418E+03  0.00000000000E+00 0. -1.
          3    1    1    2  501    0 -0.34578342702E+02 -0.10257180262E+02  0.58271693155E+03  0.58383207676E+03  0.00000000000E+00 0.  1.
<mgrwt>
<rscale>  4 0.86818387E+03</rscale>
<asrwt>0</asrwt>
<pdfrwt beam="1">  1       21 0.17423665E+00 0.86818387E+03</pdfrwt>
<pdfrwt beam="2">  1        3 0.11534463E+00 0.86818387E+03</pdfrwt>
<totfact> 0.50573508E+00</totfact>
</mgrwt>
</event>
<event>
 5    0  0.7099509E-001  0.5269102E+03  0.7546771E-02  0.1006984E+00
         21   -1    0    0  501  502  0.00000000000E+00  0.00000000000E+00  0.89191624938E+03  0.89191624938E+03  0.00000000000E+00 0.  1.
          2   -1    0    0  503    0 -0.00000000000E+00 -0.00000000000E+00 -0.25986884673E+03  0.25986884673E+03  0.00000000000E+00 0. -1.
         25    1    1    2    0    0  0.22985652962E+03 -0.26111964840E+03  0.58836383927E+03  0.69484854634E+03  0.12500000000E+03 0.  0.
         21    1    1    2  503  502 -0.76233701938E+02  0.13150728146E+03  0.16325378593E+03  0.22306398411E+03  0.00000000000E+00 0. -1.
          2    1    1    2  501    0 -0.15362282768E+03  0.12961236694E+03 -0.11957022255E+03  0.23387256566E+03  0.00000000000E+00 0. -1.
<mgrwt>
<rscale>  4 0.52691020E+03</rscale>
<asrwt>0</asrwt>
<pdfrwt beam="1">  1       21 0.13721788E+00 0.52691020E+03</pdfrwt>
<pdfrwt beam="2">  1        2 0.39979823E-01 0.52691020E+03</pdfrwt>
<totfact> 0.52740004E+02</totfact>
</mgrwt>
</event>
<event>
 5    0  0.7099509E-001  0.4964719E+03  0.7546771E-02  0.1014704E+00
          1   -1    0    0  503    0 -0.00000000000E+00  0.00000000000E+00  0.19258359563E+04  0.19258359563E+04  0.00000000000E+00 0.  1.
         21   -1    0    0  501  502  0.00000000000E+00 -0.00000000000E+00 -0.77980116163E+02  0.77980116163E+02  0.00000000000E+00 0. -1.
         25    1    1    2    0    0 -0.15529381953E+03  0.18904809875E+03  0.33036410050E+03  0.42967521796E+03  0.12500000000E+03 0.  0.
         21    1    1    2  503  502  0.50762622927E+01 -0.20748370489E+03  0.44495645991E+03  0.49098014975E+03  0.00000000000E+00 0.  1.
          1    1    1    2  501    0  0.15021755723E+03  0.18435606146E+02  0.10725352797E+04  0.10831607047E+04  0.00000000000E+00 0.  1.
<mgrwt>
<rscale>  4 0.49647189E+03</rscale>
<asrwt>0</asrwt>
<pdfrwt beam="1">  1       21 0.11996942E-01 0.49647189E+03</pdfrwt>
<pdfrwt beam="2">  1        1 0.29628242E+00 0.49647189E+03</pdfrwt>
<totfact> 0.22865282E+03</totfact>
</mgrwt>
</event>
<event>
 5    0  0.7099509E-001  0.4575749E+03  0.7546771E-02  0.1025487E+00
          2   -1    0    0  503    0 -0.00000000000E+00  0.00000000000E+00  0.18735119694E+04  0.18735119694E+04  0.00000000000E+00 0. -1.
         21   -1    0    0  501  502  0.00000000000E+00 -0.00000000000E+00 -0.11423661864E+03  0.11423661864E+03  0.00000000000E+00 0. -1.
         25    1    1    2    0    0  0.31223319138E+02 -0.26290663564E+03  0.14098904261E+03  0.32495800476E+03  0.12500000000E+03 0.  0.
         21    1    1    2  503  502 -0.30432571854E+02 -0.55215210054E+02  0.31421033034E+03  0.32047307616E+03  0.00000000000E+00 0.  1.
          2    1    1    2  501    0 -0.79074728328E+00  0.31812184570E+03  0.13040759778E+04  0.13423175071E+04  0.00000000000E+00 0. -1.
<mgrwt>
<rscale>  4 0.45757492E+03</rscale>
<asrwt>0</asrwt>
<pdfrwt beam="1">  1       21 0.17574866E-01 0.45757492E+03</pdfrwt>
<pdfrwt beam="2">  1        2 0.28823259E+00 0.45757492E+03</pdfrwt>
<totfact> 0.29946507E+03</totfact>
</mgrwt>
</event>
<event>
 5    0  0.7099509E-001  0.8189796E+03  0.7546771E-02  0.9532944E-01
          1   -1    0    0  503    0 -0.00000000000E+00  0.00000000000E+00  0.21510348455E+04  0.21510348455E+04  0.00000000000E+00 0.  1.
         21   -1    0    0  501  502  0.00000000000E+00 -0.00000000000E+00 -0.17188219396E+03  0.17188219396E+03  0.00000000000E+00 0. -1.
         25    1    1    2    0    0 -0.36288579062E+03  0.64968259148E+02  0.29475410733E+03  0.48827446740E+03  0.12500000000E+03 0.  0.
         21    1    1    2  503  502  0.41326816485E+03 -0.66058885174E+02  0.51255158181E+03  0.66171253305E+03  0.00000000000E+00 0. -1.
          1    1    1    2  501    0 -0.50382374230E+02  0.10906260260E+01  0.11718469624E+04  0.11729300390E+04  0.00000000000E+00 0.  1.
<mgrwt>
<rscale>  4 0.81897962E+03</rscale>
<asrwt>0</asrwt>
<pdfrwt beam="1">  1       21 0.26443416E-01 0.81897962E+03</pdfrwt>
<pdfrwt beam="2">  1        1 0.33092842E+00 0.81897962E+03</pdfrwt>
<totfact> 0.33939213E+02</totfact>
</mgrwt>
</event>
<event>
 5    0  0.7099509E-001  0.4038038E+03  0.7546771E-02  0.1042470E+00
         21   -1    0    0  501  502  0.00000000000E+00  0.00000000000E+00  0.31888592693E+03  0.31888592693E+03  0.00000000000E+00 0. -1.
          2   -1    0    0  503    0 -0.00000000000E+00 -0.00000000000E+00 -0.41510049946E+03  0.41510049946E+03  0.00000000000E+00 0.  1.
         25    1    1    2    0    0 -0.20466719571E+03 -0.10511156367E+03 -0.26336116721E+02  0.26316476371E+03  0.12500000000E+03 0.  0.
         21    1    1    2  503  502  0.34000474070E+02 -0.82449676275E+02  0.12320271015E+03  0.15209500039E+03  0.00000000000E+00 0.  1.
          2    1    1    2  501    0  0.17066672164E+03  0.18756123994E+03 -0.19308116597E+03  0.31872666229E+03  0.00000000000E+00 0.  1.
<mgrwt>
<rscale>  4 0.40380383E+03</rscale>
<asrwt>0</asrwt>
<pdfrwt beam="1">  1       21 0.49059373E-01 0.40380383E+03</pdfrwt>
<pdfrwt beam="2">  1        2 0.63861615E-01 0.40380383E+03</pdfrwt>
<totfact> 0.35926360E+03</totfact>
</mgrwt>
</event>
<event>
 5    0  0.7099509E-001  0.6663044E+03  0.7546771E-02  0.9776657E-01
          2   -1    0    0  503    0 -0.00000000000E+00  0.00000000000E+00  0.88161218057E+03  0.88161218057E+03  0.00000000000E+00 0.  1.
         21   -1    0    0  501  502  0.00000000000E+00 -0.00000000000E+00 -0.21595279170E+03  0.21595279170E+03  0.00000000000E+00 0.  1.
         25    1    1    2    0    0  0.98563757920E+02 -0.17424347511E+03  0.40261872520E+03  0.46669309066E+03  0.12500000000E+03 0.  0.
         21    1    1    2  503  502 -0.16105608406E+03  0.19119084365E+03 -0.94697509389E+02  0.26732119107E+03  0.00000000000E+00 0.  1.
          2    1    1    2  501    0  0.62492326143E+02 -0.16947368541E+02  0.35773817306E+03  0.36355069054E+03  0.00000000000E+00 0.  1.
<mgrwt>
<rscale>  4 0.66630435E+03</rscale>
<asrwt>0</asrwt>
<pdfrwt beam="1">  1       21 0.33223507E-01 0.66630435E+03</pdfrwt>
<pdfrwt beam="2">  1        2 0.13563264E+00 0.66630435E+03</pdfrwt>
<totfact> 0.31079556E+03</totfact>
</mgrwt>
</event>
<event>
 5    0  0.7099509E-001  0.5526932E+03  0.7546771E-02  0.1000872E+00
          1   -1    0    0  503    0 -0.00000000000E+00  0.00000000000E+00  0.12479389344E+04  0.12479389344E+04  0.00000000000E+00 0.  1.
         21   -1    0    0  501  502  0.00000000000E+00 -0.00000000000E+00 -0.12156488420E+03  0.12156488420E+03  0.00000000000E+00 0. -1.
         25    1    1    2    0    0 -0.25615863951E+03 -0.81099750670E+02  0.26106828923E+03  0.39493805817E+03  0.12500000000E+03 0.  0.
         21    1    1    2  503  502  0.22204524970E+03  0.12719616578E+03  0.25392311018E+03  0.36049951926E+03  0.00000000000E+00 0.  1.
          1    1    1    2  501    0  0.34113389811E+02 -0.46096415114E+02  0.61138265081E+03  0.61406624119E+03  0.00000000000E+00 0.  1.
<mgrwt>
<rscale>  4 0.55269322E+03</rscale>
<asrwt>0</asrwt>
<pdfrwt beam="1">  1       21 0.18702291E-01 0.55269322E+03</pdfrwt>
<pdfrwt beam="2">  1        1 0.19199060E+00 0.55269322E+03</pdfrwt>
<totfact> 0.28448522E+03</totfact>
</mgrwt>
</event>
<event>
 5    0  0.7099509E-001  0.4328577E+03  0.7546771E-02  0.1032961E+00
         21   -1    0    0  501  502  0.00000000000E+00  0.00000000000E+00  0.32503621645E+03  0.32503621645E+03  0.00000000000E+00 0. -1.
          2   -1    0    0  503    0 -0.00000000000E+00 -0.00000000000E+00 -0.11229801798E+04  0.11229801798E+04  0.00000000000E+00 0. -1.
         25    1    1    2    0    0  0.98274035713E+02 -0.18384487634E+03  0.97127245156E+02  0.26175451554E+03  0.12500000000E+03 0.  0.
         21    1    1    2  503  502  0.23803196161E+02  0.18828417796E+03  0.78266824247E+02  0.20528813798E+03  0.00000000000E+00 0. -1.
          2    1    1    2  501    0 -0.12207723187E+03 -0.44393016184E+01 -0.97333803274E+03  0.98097374272E+03  0.00000000000E+00 0. -1.
<mgrwt>
<rscale>  4 0.43285767E+03</rscale>
<asrwt>0</asrwt>
<pdfrwt beam="1">  1       21 0.50005571E-01 0.43285767E+03</pdfrwt>
<pdfrwt beam="2">  1        2 0.17276618E+00 0.43285767E+03</pdfrwt>
<totfact> 0.97788896E+02</totfact>
</mgrwt>
</event>
<event>
 5    0  0.7099509E-001  0.5730100E+03  0.7546771E-02  0.9963040E-01
         21   -1    0    0  501  502  0.00000000000E+00  0.00000000000E+00  0.91223001509E+02  0.91223001509E+02  0.00000000000E+00 0. -1.
          3   -1    0    0  503    0 -0.00000000000E+00 -0.00000000000E+00 -0.10970965684E+04  0.10970965684E+04  0.00000000000E+00 0.  1.
         25    1    1    2    0    0  0.10012191907E+03  0.20378180854E+03 -0.17048354920E+03  0.31022744031E+03  0.12500000000E+03 0.  0.
         21    1    1    2  503  502 -0.12399872677E+03 -0.19879038062E+03 -0.64671987822E+03  0.68785165592E+03  0.00000000000E+00 0.  1.
          3    1    1    2  501    0  0.23876807705E+02 -0.49914279236E+01 -0.18867013943E+03  0.19024047364E+03  0.00000000000E+00 0.  1.
<mgrwt>
<rscale>  4 0.57300998E+03</rscale>
<asrwt>0</asrwt>
<pdfrwt beam="1">  1       21 0.14034307E-01 0.57300998E+03</pdfrwt>
<pdfrwt beam="2">  1        3 0.16878409E+00 0.57300998E+03</pdfrwt>
<totfact> 0.53339892E+02</totfact>
</mgrwt>
</event>
<event>
 5    0  0.7099509E-001  0.4243515E+03  0.7546771E-02  0.1035659E+00
          3   -1    0    0  503    0 -0.00000000000E+00  0.00000000000E+00  0.46112849371E+03  0.46112849371E+03  0.00000000000E+00 0.  1.
         21   -1    0    0  501  502  0.00000000000E+00 -0.00000000000E+00 -0.17486025221E+03  0.17486025221E+03  0.00000000000E+00 0.  1.
         25    1    1    2    0    0 -0.16681630511E+03  0.12704973756E+03 -0.21264264816E+02  0.24504384183E+03  0.12500000000E+03 0.  0.
         21    1    1    2  503  502  0.43021735855E+02 -0.10553193409E+03  0.16990718949E+03  0.20458815193E+03  0.00000000000E+00 0. -1.
          3    1    1    2  501    0  0.12379456925E+03 -0.21517803463E+02  0.13762531683E+03  0.18635675215E+03  0.00000000000E+00 0.  1.
<mgrwt>
<rscale>  4 0.42435152E+03</rscale>
<asrwt>0</asrwt>
<pdfrwt beam="1">  1       21 0.26901578E-01 0.42435152E+03</pdfrwt>
<pdfrwt beam="2">  1        3 0.70942844E-01 0.42435152E+03</pdfrwt>
<totfact> 0.12385887E+03</totfact>
</mgrwt>
</event>
<event>
 5    0  0.7099509E-001  0.6549111E+03  0.7546771E-02  0.9797607E-01
         21   -1    0    0  501  502  0.00000000000E+00  0.00000000000E+00  0.14796839005E+03  0.14796839005E+03  0.00000000000E+00 0.  1.
          1   -1    0    0  503    0 -0.00000000000E+00 -0.00000000000E+00 -0.27686732712E+04  0.27686732712E+04  0.00000000000E+00 0.  1.
         25    1    1    2    0    0 -0.13442445119E+03 -0.42156103189E+03 -0.58795375404E+03  0.74639014836E+03  0.12500000000E+03 0.  0.
         21    1    1    2  503  502  0.89640457736E+02  0.13529618541E+03 -0.54962450975E+02  0.17135151142E+03  0.00000000000E+00 0.  1.
          1    1    1    2  501    0  0.44783993456E+02  0.28626484648E+03 -0.19777886761E+04  0.19989000015E+04  0.00000000000E+00 0.  1.
<mgrwt>
<rscale>  4 0.65491107E+03</rscale>
<asrwt>0</asrwt>
<pdfrwt beam="1">  1       21 0.22764368E-01 0.65491107E+03</pdfrwt>
<pdfrwt beam="2">  1        1 0.42594972E+00 0.65491107E+03</pdfrwt>
<totfact> 0.17862047E+02</totfact>
</mgrwt>
</event>
<event>
 5    0  0.7099509E-001  0.4067168E+03  0.7546771E-02  0.1041478E+00
          2   -1    0    0  503    0 -0.00000000000E+00  0.00000000000E+00  0.14616782910E+04  0.14616782910E+04  0.00000000000E+00 0.  1.
         21   -1    0    0  501  502  0.00000000000E+00 -0.00000000000E+00 -0.17436416468E+04  0.17436416468E+04  0.00000000000E+00 0. -1.
         25    1    1    2    0    0 -0.44719635188E+02  0.25864549028E+03 -0.15439567588E+04  0.15710903247E+04  0.12500000000E+03 0.  0.
         21    1    1    2  503  502  0.50560694498E+02 -0.69343375437E+02 -0.16964583262E+03  0.19011732186E+03  0.00000000000E+00 0.  1.
          2    1    1    2  501    0 -0.58410593101E+01 -0.18930211484E+03  0.14316392357E+04  0.14441122912E+04  0.00000000000E+00 0.  1.
<mgrwt>
<rscale>  4 0.40671677E+03</rscale>
<asrwt>0</asrwt>
<pdfrwt beam="1">  1       21 0.26825256E+00 0.40671677E+03</pdfrwt>
<pdfrwt beam="2">  1        2 0.22487358E+00 0.40671677E+03</pdfrwt>
<totfact> 0.77009313E+00</totfact>
</mgrwt>
</event>
<event>
 5    0  0.7099509E-001  0.4784254E+03  0.7546771E-02  0.1019569E+00
          2   -1    0    0  503    0 -0.00000000000E+00  0.00000000000E+00  0.11815413511E+04  0.11815413511E+04  0.00000000000E+00 0. -1.
         21   -1    0    0  501  502  0.00000000000E+00 -0.00000000000E+00 -0.31257873295E+03  0.31257873295E+03  0.00000000000E+00 0.  1.
         25    1    1    2    0    0  0.19498332412E+02 -0.35685432611E+03 -0.49907775146E+02  0.38189132100E+03  0.12500000000E+03 0.  0.
         21    1    1    2  503  502 -0.75575624181E+02  0.60152645349E+02 -0.41779790588E+02  0.10524051793E+03  0.00000000000E+00 0. -1.
          2    1    1    2  501    0  0.56077291769E+02  0.29670168076E+03  0.96065018388E+03  0.10069882451E+04  0.00000000000E+00 0. -1.
<mgrwt>
<rscale>  4 0.47842535E+03</rscale>
<asrwt>0</asrwt>
<pdfrwt beam="1">  1       21 0.48089036E-01 0.47842535E+03</pdfrwt>
<pdfrwt beam="2">  1        2 0.18177559E+00 0.47842535E+03</pdfrwt>
<totfact> 0.96975791E+02</totfact>
</mgrwt>
</event>
<event>
 5    0  0.7099509E-001  0.4309691E+03  0.7546771E-02  0.1033554E+00
          2   -1    0    0  503    0 -0.00000000000E+00  0.00000000000E+00  0.58546738117E+03  0.58546738117E+03  0.00000000000E+00 0.  1.
         21   -1    0    0  501  502  0.00000000000E+00 -0.00000000000E+00 -0.68012810174E+03  0.68012810174E+03  0.00000000000E+00 0.  1.
         25    1    1    2    0    0  0.12222154690E+03  0.17828930406E+03 -0.42634391743E+03  0.49408432317E+03  0.12500000000E+03 0.  0.
         21    1    1    2  503  502 -0.12137743526E+03 -0.12433487764E+03 -0.18396285526E+03  0.25304935429E+03  0.00000000000E+00 0.  1.
          2    1    1    2  501    0 -0.84411163974E+00 -0.53954426418E+02  0.51564605212E+03  0.51846180546E+03  0.00000000000E+00 0.  1.
<mgrwt>
<rscale>  4 0.43096911E+03</rscale>
<asrwt>0</asrwt>
<pdfrwt beam="1">  1       21 0.10463509E+00 0.43096911E+03</pdfrwt>
<pdfrwt beam="2">  1        2 0.90071905E-01 0.43096911E+03</pdfrwt>
<totfact> 0.43325079E+02</totfact>
</mgrwt>
</event>
<event>
 5    0  0.7099509E-001  0.8039694E+03  0.7546771E-02  0.9554289E-01
          2   -1    0    0  503    0 -0.00000000000E+00  0.00000000000E+00  0.16261857419E+04  0.16261857419E+04  0.00000000000E+00 0. -1.
         21   -1    0    0  501  502  0.00000000000E+00 -0.00000000000E+00 -0.18000085204E+03  0.18000085204E+03  0.00000000000E+00 0. -1.
         25    1    1    2    0    0 -0.14365964637E+03  0.25418276591E+03  0.67855098878E+03  0.74920185321E+03  0.12500000000E+03 0.  0.
         21    1    1    2  503  502  0.17313848335E+03 -0.27837772247E+03  0.42181285434E+02  0.33053040954E+03  0.00000000000E+00 0. -1.
          2    1    1    2  501    0 -0.29478836988E+02  0.24194956559E+02  0.72545261565E+03  0.72645433119E+03  0.00000000000E+00 0. -1.
<mgrwt>
<rscale>  4 0.80396937E+03</rscale>
<asrwt>0</asrwt>
<pdfrwt beam="1">  1       21 0.27692440E-01 0.80396937E+03</pdfrwt>
<pdfrwt beam="2">  1        2 0.25018241E+00 0.80396937E+03</pdfrwt>
<totfact> 0.15918198E+03</totfact>
</mgrwt>
</event>
<event>
 5    0  0.7099509E-001  0.6261860E+03  0.7546771E-02  0.9852520E-01
         -2   -1    0    0    0  501 -0.00000000000E+00  0.00000000000E+00  0.64052585452E+03  0.64052585452E+03  0.00000000000E+00 0.  1.
         21   -1    0    0  501  502  0.00000000000E+00 -0.00000000000E+00 -0.53618369246E+03  0.53618369246E+03  0.00000000000E+00 0.  1.
         25    1    1    2    0    0 -0.21610340247E+03 -0.42139048211E+02 -0.24231065064E+03  0.35045089721E+03  0.12500000000E+03 0.  0.
         21    1    1    2  503  502  0.34493707729E+03 -0.43609060250E+02 -0.93213542650E+02  0.35996125063E+03  0.00000000000E+00 0. -1.
         -2    1    1    2    0  503 -0.12883367482E+03  0.85748108461E+02  0.43986635535E+03  0.46629739913E+03  0.00000000000E+00 0.  1.
<mgrwt>
<rscale>  4 0.62618602E+03</rscale>
<asrwt>0</asrwt>
<pdfrwt beam="1">  1       21 0.82489799E-01 0.62618602E+03</pdfrwt>
<pdfrwt beam="2">  1       -2 0.98542439E-01 0.62618602E+03</pdfrwt>
<totfact> 0.81111831E+01</totfact>
</mgrwt>
</event>
<event>
 5    0  0.7099509E-001  0.2902667E+03  0.7546771E-02  0.1090210E+00
         21   -1    0    0  501  502  0.00000000000E+00  0.00000000000E+00  0.11152307398E+03  0.11152307398E+03  0.00000000000E+00 0.  1.
          4   -1    0    0  503    0 -0.00000000000E+00 -0.00000000000E+00 -0.71046429483E+03  0.71046429483E+03  0.00000000000E+00 0.  1.
         25    1    1    2    0    0  0.23610767886E+03  0.11105560310E+02 -0.44363602897E+03  0.51798464811E+03  0.12500000000E+03 0.  0.
         21    1    1    2  503  502 -0.16248392049E+02  0.12055491862E+02 -0.59890178058E+02  0.63215334817E+02  0.00000000000E+00 0. -1.
          4    1    1    2  501    0 -0.21985928681E+03 -0.23161052172E+02 -0.95415013825E+02  0.24078738587E+03  0.00000000000E+00 0.  1.
<mgrwt>
<rscale>  4 0.29026674E+03</rscale>
<asrwt>0</asrwt>
<pdfrwt beam="1">  1       21 0.17157396E-01 0.29026674E+03</pdfrwt>
<pdfrwt beam="2">  1        4 0.10930220E+00 0.29026674E+03</pdfrwt>
<totfact> 0.89428345E+02</totfact>
</mgrwt>
</event>
<event>
 5    0  0.7099509E-001  0.8239684E+03  0.7546771E-02  0.9525957E-01
         21   -1    0    0  501  502  0.00000000000E+00  0.00000000000E+00  0.13043188828E+03  0.13043188828E+03  0.00000000000E+00 0.  1.
          2   -1    0    0  503    0 -0.00000000000E+00 -0.00000000000E+00 -0.24862898665E+04  0.24862898665E+04  0.00000000000E+00 0. -1.
         25    1    1    2    0    0  0.23061767051E+03 -0.19497654106E+03 -0.11591521032E+04  0.12043500155E+04  0.12500000000E+03 0.  0.
         21    1    1    2  503  502 -0.17045410119E+03  0.16223993730E+03 -0.22749517062E+02  0.23641898907E+03  0.00000000000E+00 0.  1.
          2    1    1    2  501    0 -0.60163569320E+02  0.32736603761E+02 -0.11739563580E+04  0.11759527502E+04  0.00000000000E+00 0. -1.
<mgrwt>
<rscale>  4 0.82396838E+03</rscale>
<asrwt>0</asrwt>
<pdfrwt beam="1">  1       21 0.20066445E-01 0.82396838E+03</pdfrwt>
<pdfrwt beam="2">  1        2 0.38250612E+00 0.82396838E+03</pdfrwt>
<totfact> 0.99916372E+02</totfact>
</mgrwt>
</event>
<event>
 5    0  0.7099509E-001  0.3555825E+03  0.7546771E-02  0.1060347E+00
         21   -1    0    0  501  502  0.00000000000E+00  0.00000000000E+00  0.58291369859E+02  0.58291369859E+02  0.00000000000E+00 0. -1.
          4   -1    0    0  503    0 -0.00000000000E+00 -0.00000000000E+00 -0.17685540277E+04  0.17685540277E+04  0.00000000000E+00 0.  1.
         25    1    1    2    0    0 -0.13203948750E+02 -0.23604621421E+03 -0.49242078870E+03  0.56035291795E+03  0.12500000000E+03 0.  0.
         21    1    1    2  503  502 -0.97405648715E+01  0.74063567490E+02 -0.56442810493E+02  0.93627354389E+02  0.00000000000E+00 0.  1.
          4    1    1    2  501    0  0.22944513622E+02  0.16198264672E+03 -0.11613990586E+04  0.11728651252E+04  0.00000000000E+00 0.  1.
<mgrwt>
<rscale>  4 0.35558254E+03</rscale>
<asrwt>0</asrwt>
<pdfrwt beam="1">  1       21 0.89679021E-02 0.35558254E+03</pdfrwt>
<pdfrwt beam="2">  1        4 0.27208526E+00 0.35558254E+03</pdfrwt>
<totfact> 0.21538081E+02</totfact>
</mgrwt>
</event>
<event>
 5    0  0.7099509E-001  0.4531469E+03  0.7546771E-02  0.1026788E+00
          2   -1    0    0  503    0 -0.00000000000E+00  0.00000000000E+00  0.17688696041E+04  0.17688696041E+04  0.00000000000E+00 0. -1.
         21   -1    0    0  501  502  0.00000000000E+00 -0.00000000000E+00 -0.24425878338E+03  0.24425878338E+03  0.00000000000E+00 0. -1.
         25    1    1    2    0    0  0.24407943914E+03 -0.61090589610E+02 -0.10612544759E+03  0.30032389744E+03  0.12500000000E+03 0.  0.
         21    1    1    2  503  502 -0.95780664384E+02  0.90568880927E+02  0.78919356184E+02  0.15363893596E+03  0.00000000000E+00 0.  1.
          2    1    1    2  501    0 -0.14829877475E+03 -0.29478291317E+02  0.15518169121E+04  0.15591655541E+04  0.00000000000E+00 0. -1.
<mgrwt>
<rscale>  4 0.45314687E+03</rscale>
<asrwt>0</asrwt>
<pdfrwt beam="1">  1       21 0.37578275E-01 0.45314687E+03</pdfrwt>
<pdfrwt beam="2">  1        2 0.27213378E+00 0.45314687E+03</pdfrwt>
<totfact> 0.77170094E+02</totfact>
</mgrwt>
</event>
<event>
 5    0  0.7099509E-001  0.4867605E+03  0.7546771E-02  0.1017294E+00
          4   -1    0    0  503    0 -0.00000000000E+00  0.00000000000E+00  0.41648453877E+03  0.41648453877E+03  0.00000000000E+00 0.  1.
         21   -1    0    0  501  502  0.00000000000E+00 -0.00000000000E+00 -0.65945301989E+03  0.65945301989E+03  0.00000000000E+00 0. -1.
         25    1    1    2    0    0 -0.43993153870E+02 -0.23253590252E+03 -0.43340193110E+03  0.50938254527E+03  0.12500000000E+03 0.  0.
         21    1    1    2  503  502  0.89653954592E+02  0.17466877980E+03 -0.13149161070E+03  0.23629866249E+03  0.00000000000E+00 0. -1.
          4    1    1    2  501    0 -0.45660800722E+02  0.57867122722E+02  0.32192506067E+03  0.33025635089E+03  0.00000000000E+00 0.  1.
<mgrwt>
<rscale>  4 0.48676046E+03</rscale>
<asrwt>0</asrwt>
<pdfrwt beam="1">  1       21 0.10145431E+00 0.48676046E+03</pdfrwt>
<pdfrwt beam="2">  1        4 0.64074545E-01 0.48676046E+03</pdfrwt>
<totfact> 0.72177508E+01</totfact>
</mgrwt>
</event>
<event>
 5    0  0.7099509E-001  0.5750306E+03  0.7546771E-02  0.9958608E-01
         21   -1    0    0  501  502  0.00000000000E+00  0.00000000000E+00  0.92680631447E+02  0.92680631447E+02  0.00000000000E+00 0.  1.
          2   -1    0    0  503    0 -0.00000000000E+00 -0.00000000000E+00 -0.12842978285E+04  0.12842978285E+04  0.00000000000E+00 0. -1.
         25    1    1    2    0    0  0.20110307671E+03  0.12211175075E+02 -0.74196937084E+03  0.77893203010E+03  0.12500000000E+03 0.  0.
         21    1    1    2  503  502 -0.20007786412E+03  0.17225519002E+02 -0.63272383677E+02  0.21054991035E+03  0.00000000000E+00 0.  1.
          2    1    1    2  501    0 -0.10252125981E+01 -0.29436694077E+02 -0.38637544257E+03  0.38749651952E+03  0.00000000000E+00 0. -1.
<mgrwt>
<rscale>  4 0.57503063E+03</rscale>
<asrwt>0</asrwt>
<pdfrwt beam="1">  1       21 0.14258560E-01 0.57503063E+03</pdfrwt>
<pdfrwt beam="2">  1        2 0.19758427E+00 0.57503063E+03</pdfrwt>
<totfact> 0.91207334E+03</totfact>
</mgrwt>
</event>
<event>
 5    0  0.7099509E-001  0.4192736E+03  0.7546771E-02  0.1037303E+00
          2   -1    0    0  503    0 -0.00000000000E+00  0.00000000000E+00  0.91417102095E+03  0.91417102095E+03  0.00000000000E+00 0.  1.
         21   -1    0    0  501  502  0.00000000000E+00 -0.00000000000E+00 -0.27450254995E+03  0.27450254995E+03  0.00000000000E+00 0.  1.
         25    1    1    2    0    0 -0.16131259530E+03 -0.13033583816E+03  0.70804169830E+02  0.25228439226E+03  0.12500000000E+03 0.  0.
         21    1    1    2  503  502 -0.27311795354E+02  0.62433040867E+02 -0.16347301694E+03  0.17710800666E+03  0.00000000000E+00 0.  1.
          2    1    1    2  501    0  0.18862439066E+03  0.67902797298E+02  0.73233731810E+03  0.75928117197E+03  0.00000000000E+00 0.  1.
<mgrwt>
<rscale>  4 0.41927356E+03</rscale>
<asrwt>0</asrwt>
<pdfrwt beam="1">  1       21 0.42231162E-01 0.41927356E+03</pdfrwt>
<pdfrwt beam="2">  1        2 0.14064169E+00 0.41927356E+03</pdfrwt>
<totfact> 0.18862238E+03</totfact>
</mgrwt>
</event>
<event>
 5    0  0.7099509E-001  0.4489636E+03  0.7546771E-02  0.1028032E+00
          3   -1    0    0  503    0 -0.00000000000E+00  0.00000000000E+00  0.24752299670E+03  0.24752299670E+03  0.00000000000E+00 0. -1.
         21   -1    0    0  501  502  0.00000000000E+00 -0.00000000000E+00 -0.27112438763E+03  0.27112438763E+03  0.00000000000E+00 0. -1.
         25    1    1    2    0    0 -0.17333525975E+03  0.10425720966E+03 -0.13241529099E+03  0.27216444905E+03  0.12500000000E+03 0.  0.
         21    1    1    2  503  502  0.15277607940E+03 -0.88310399262E+02  0.51953458571E+02  0.18395221910E+03  0.00000000000E+00 0. -1.
          3    1    1    2  501    0  0.20559180352E+02 -0.15946810394E+02  0.56860441491E+02  0.62530716172E+02  0.00000000000E+00 0. -1.
<mgrwt>
<rscale>  4 0.44896359E+03</rscale>
<asrwt>0</asrwt>
<pdfrwt beam="1">  1       21 0.41711444E-01 0.44896359E+03</pdfrwt>
<pdfrwt beam="2">  1        3 0.38080461E-01 0.44896359E+03</pdfrwt>
<totfact> 0.18392780E+03</totfact>
</mgrwt>
</event>
<event>
 5    0  0.7099509E-001  0.9131266E+03  0.7546771E-02  0.9409320E-01
          1   -1    0    0  503    0 -0.00000000000E+00  0.00000000000E+00  0.84585155001E+03  0.84585155001E+03  0.00000000000E+00 0.  1.
         21   -1    0    0  501  502  0.00000000000E+00 -0.00000000000E+00 -0.39159825381E+03  0.39159825381E+03  0.00000000000E+00 0. -1.
         25    1    1    2    0    0  0.40022334364E+03 -0.13305083266E+03  0.24996621660E+03  0.50595390927E+03  0.12500000000E+03 0.  0.
         21    1    1    2  503  502 -0.37710185401E+03  0.14483692465E+03 -0.10798769446E+03  0.41814457451E+03  0.00000000000E+00 0. -1.
          1    1    1    2  501    0 -0.23121489635E+02 -0.11786091988E+02  0.31227477406E+03  0.31335132003E+03  0.00000000000E+00 0.  1.
<mgrwt>
<rscale>  4 0.91312656E+03</rscale>
<asrwt>0</asrwt>
<pdfrwt beam="1">  1       21 0.60245885E-01 0.91312656E+03</pdfrwt>
<pdfrwt beam="2">  1        1 0.13013101E+00 0.91312656E+03</pdfrwt>
<totfact> 0.50319043E+02</totfact>
</mgrwt>
</event>
<event>
 5    0  0.7099509E-001  0.6276415E+03  0.7546771E-02  0.9849662E-01
          2   -1    0    0  503    0 -0.00000000000E+00  0.00000000000E+00  0.11727778335E+04  0.11727778335E+04  0.00000000000E+00 0. -1.
         21   -1    0    0  501  502  0.00000000000E+00 -0.00000000000E+00 -0.33004338971E+03  0.33004338971E+03  0.00000000000E+00 0. -1.
         25    1    1    2    0    0  0.10321578225E+03 -0.29170117195E+03  0.79353079480E+03  0.86084795040E+03  0.12500000000E+03 0.  0.
         21    1    1    2  503  502 -0.23078243187E+03  0.10036233574E+03  0.23652908270E+03  0.34536811702E+03  0.00000000000E+00 0.  1.
          2    1    1    2  501    0  0.12756664962E+03  0.19133883621E+03 -0.18732543369E+03  0.29660515579E+03  0.00000000000E+00 0. -1.
<mgrwt>
<rscale>  4 0.62764150E+03</rscale>
<asrwt>0</asrwt>
<pdfrwt beam="1">  1       21 0.50775906E-01 0.62764150E+03</pdfrwt>
<pdfrwt beam="2">  1        2 0.18042736E+00 0.62764150E+03</pdfrwt>
<totfact> 0.84663147E+02</totfact>
</mgrwt>
</event>
<event>
 5    0  0.7127280E-001  0.9024768E+03  0.7546771E-02  0.9422491E-01
         21   -1    0    0  501  502  0.00000000000E+00  0.00000000000E+00  0.42855533829E+03  0.42855533829E+03  0.00000000000E+00 0.  1.
          1   -1    0    0  503    0 -0.00000000000E+00 -0.00000000000E+00 -0.21244035628E+04  0.21244035628E+04  0.00000000000E+00 0. -1.
         25    1    1    2    0    0  0.25383852108E+03  0.71812864315E+01 -0.39658535654E+03  0.48722737062E+03  0.12500000000E+03 0.  0.
         21    1    1    2  503  502 -0.22604875728E+03  0.72200136264E+01  0.34970545760E+03  0.41646617670E+03  0.00000000000E+00 0.  1.
          1    1    1    2  501    0 -0.27789763794E+02 -0.14401300058E+02 -0.16489683255E+04  0.16492653537E+04  0.00000000000E+00 0. -1.
<mgrwt>
<rscale>  4 0.90247676E+03</rscale>
<asrwt>0</asrwt>
<pdfrwt beam="1">  1       21 0.65931592E-01 0.90247676E+03</pdfrwt>
<pdfrwt beam="2">  1        1 0.32683131E+00 0.90247676E+03</pdfrwt>
<totfact> 0.50810418E+01</totfact>
</mgrwt>
</event>
<event>
 5    0  0.7099509E-001  0.1119745E+04  0.7546771E-02  0.9186158E-01
          1   -1    0    0  503    0 -0.00000000000E+00  0.00000000000E+00  0.16376432992E+04  0.16376432992E+04  0.00000000000E+00 0.  1.
         21   -1    0    0  501  502  0.00000000000E+00 -0.00000000000E+00 -0.86805128413E+03  0.86805128413E+03  0.00000000000E+00 0.  1.
         25    1    1    2    0    0  0.25958082575E+03 -0.31139837118E+03  0.16985172009E+03  0.45697456985E+03  0.12500000000E+03 0.  0.
         21    1    1    2  503  502 -0.23145533582E+03  0.29132880930E+03 -0.67646767433E+03  0.77204440417E+03  0.00000000000E+00 0.  1.
          1    1    1    2  501    0 -0.28125489935E+02  0.20069561873E+02  0.12762079693E+04  0.12766756093E+04  0.00000000000E+00 0.  1.
<mgrwt>
<rscale>  4 0.11197446E+04</rscale>
<asrwt>0</asrwt>
<pdfrwt beam="1">  1       21 0.13354635E+00 0.11197446E+04</pdfrwt>
<pdfrwt beam="2">  1        1 0.25194512E+00 0.11197446E+04</pdfrwt>
<totfact> 0.18466808E+01</totfact>
</mgrwt>
</event>
<event>
 5    0  0.7099509E-001  0.3961601E+03  0.7546771E-02  0.1045117E+00
         21   -1    0    0  501  502  0.00000000000E+00  0.00000000000E+00  0.30986513570E+02  0.30986513570E+02  0.00000000000E+00 0.  1.
          2   -1    0    0  503    0 -0.00000000000E+00 -0.00000000000E+00 -0.29541356792E+04  0.29541356792E+04  0.00000000000E+00 0.  1.
         25    1    1    2    0    0  0.10603809938E+03 -0.17902975773E+03 -0.10047857785E+04  0.10336900857E+04  0.12500000000E+03 0.  0.
         21    1    1    2  503  502 -0.67781520438E+02  0.11462827396E+03 -0.26696661708E+03  0.29833730967E+03  0.00000000000E+00 0.  1.
          2    1    1    2  501    0 -0.38256578943E+02  0.64401483765E+02 -0.16513967701E+04  0.16530947974E+04  0.00000000000E+00 0.  1.
<mgrwt>
<rscale>  4 0.39616010E+03</rscale>
<asrwt>0</asrwt>
<pdfrwt beam="1">  1       21 0.47671568E-02 0.39616010E+03</pdfrwt>
<pdfrwt beam="2">  1        2 0.45448233E+00 0.39616010E+03</pdfrwt>
<totfact> 0.78834577E+03</totfact>
</mgrwt>
</event>
<event>
 5    0  0.7099509E-001  0.3767372E+03  0.7546771E-02  0.1052146E+00
          2   -1    0    0  503    0 -0.00000000000E+00  0.00000000000E+00  0.11312236794E+04  0.11312236794E+04  0.00000000000E+00 0.  1.
         21   -1    0    0  501  502  0.00000000000E+00 -0.00000000000E+00 -0.14472916605E+03  0.14472916605E+03  0.00000000000E+00 0.  1.
         25    1    1    2    0    0  0.22245138696E+03 -0.50083286012E+02  0.19503095073E+02  0.26076488609E+03  0.12500000000E+03 0.  0.
         21    1    1    2  503  502 -0.83112007024E+02  0.40057140145E+02  0.96311684188E+02  0.13337211365E+03  0.00000000000E+00 0.  1.
          2    1    1    2  501    0 -0.13933937994E+03  0.10026145867E+02  0.87067973412E+03  0.88181584574E+03  0.00000000000E+00 0.  1.
<mgrwt>
<rscale>  4 0.37673719E+03</rscale>
<asrwt>0</asrwt>
<pdfrwt beam="1">  1       21 0.22266026E-01 0.37673719E+03</pdfrwt>
<pdfrwt beam="2">  1        2 0.17403441E+00 0.37673719E+03</pdfrwt>
<totfact> 0.49920668E+03</totfact>
</mgrwt>
</event>
<event>
 5    0  0.7099509E-001  0.7157219E+03  0.7546771E-02  0.9690717E-01
          2   -1    0    0  503    0 -0.00000000000E+00  0.00000000000E+00  0.11703793930E+04  0.11703793930E+04  0.00000000000E+00 0.  1.
         21   -1    0    0  501  502  0.00000000000E+00 -0.00000000000E+00 -0.55536100966E+03  0.55536100966E+03  0.00000000000E+00 0. -1.
         25    1    1    2    0    0  0.17971057215E+02 -0.22885512521E+03  0.13045456927E+03  0.29213185701E+03  0.12500000000E+03 0.  0.
         21    1    1    2  503  502 -0.45534101728E+02  0.18718600635E+03 -0.45427850305E+03  0.49343785194E+03  0.00000000000E+00 0. -1.
          2    1    1    2  501    0  0.27563044513E+02  0.41669118863E+02  0.93884231712E+03  0.94017069371E+03  0.00000000000E+00 0.  1.
<mgrwt>
<rscale>  4 0.71572189E+03</rscale>
<asrwt>0</asrwt>
<pdfrwt beam="1">  1       21 0.85440155E-01 0.71572189E+03</pdfrwt>
<pdfrwt beam="2">  1        2 0.18005837E+00 0.71572189E+03</pdfrwt>
<totfact> 0.25890544E+02</totfact>
</mgrwt>
</event>
<event>
 5    0  0.7099509E-001  0.4332785E+03  0.7546771E-02  0.1032829E+00
          2   -1    0    0  503    0 -0.00000000000E+00  0.00000000000E+00  0.84642092884E+03  0.84642092884E+03  0.00000000000E+00 0.  1.
         21   -1    0    0  501  502  0.00000000000E+00 -0.00000000000E+00 -0.15830863786E+03  0.15830863786E+03  0.00000000000E+00 0. -1.
         25    1    1    2    0    0 -0.22275440364E+03 -0.17910005371E+02  0.13559693977E+03  0.28974440928E+03  0.12500000000E+03 0.  0.
         21    1    1    2  503  502  0.15937513018E+03  0.49337744761E+02  0.92076142562E+01  0.16709106899E+03  0.00000000000E+00 0.  1.
          2    1    1    2  501    0  0.63379273460E+02 -0.31427739389E+02  0.54330773695E+03  0.54789408843E+03  0.00000000000E+00 0.  1.
<mgrwt>
<rscale>  4 0.43327854E+03</rscale>
<asrwt>0</asrwt>
<pdfrwt beam="1">  1       21 0.24355175E-01 0.43327854E+03</pdfrwt>
<pdfrwt beam="2">  1        2 0.13021860E+00 0.43327854E+03</pdfrwt>
<totfact> 0.62835643E+03</totfact>
</mgrwt>
</event>
<event>
 5    0  0.7099509E-001  0.4772615E+03  0.7546771E-02  0.1019891E+00
          2   -1    0    0  503    0 -0.00000000000E+00  0.00000000000E+00  0.16292152578E+04  0.16292152578E+04  0.00000000000E+00 0.  1.
         21   -1    0    0  501  502  0.00000000000E+00 -0.00000000000E+00 -0.81146024587E+02  0.81146024587E+02  0.00000000000E+00 0. -1.
         25    1    1    2    0    0  0.26206342193E+03  0.61774133568E+02  0.40334071099E+03  0.50080136764E+03  0.12500000000E+03 0.  0.
         21    1    1    2  503  502 -0.12200152138E+03 -0.13119691263E+03  0.29168604618E+03  0.34231235829E+03  0.00000000000E+00 0.  1.
          2    1    1    2  501    0 -0.14006190055E+03  0.69422779060E+02  0.85304247605E+03  0.86724755646E+03  0.00000000000E+00 0.  1.
<mgrwt>
<rscale>  4 0.47726152E+03</rscale>
<asrwt>0</asrwt>
<pdfrwt beam="1">  1       21 0.12484005E-01 0.47726152E+03</pdfrwt>
<pdfrwt beam="2">  1        2 0.25064848E+00 0.47726152E+03</pdfrwt>
<totfact> 0.76112972E+03</totfact>
</mgrwt>
</event>
<event>
 5    0  0.7099509E-001  0.5300876E+03  0.7546771E-02  0.1006211E+00
         21   -1    0    0  501  502  0.00000000000E+00  0.00000000000E+00  0.18307692586E+03  0.18307692586E+03  0.00000000000E+00 0.  1.
          1   -1    0    0  503    0 -0.00000000000E+00 -0.00000000000E+00 -0.58190615234E+03  0.58190615234E+03  0.00000000000E+00 0.  1.
         25    1    1    2    0    0  0.25532051617E+03 -0.52751656434E+02 -0.17370247536E+03  0.33729638773E+03  0.12500000000E+03 0.  0.
         21    1    1    2  503  502 -0.22632774923E+03  0.34772252019E+02 -0.31573393082E+02  0.23114981880E+03  0.00000000000E+00 0.  1.
          1    1    1    2  501    0 -0.28992766941E+02  0.17979404416E+02 -0.19355335804E+03  0.19653687167E+03  0.00000000000E+00 0.  1.
<mgrwt>
<rscale>  4 0.53008764E+03</rscale>
<asrwt>0</asrwt>
<pdfrwt beam="1">  1       21 0.28165681E-01 0.53008764E+03</pdfrwt>
<pdfrwt beam="2">  1        1 0.89524024E-01 0.53008764E+03</pdfrwt>
<totfact> 0.45773268E+03</totfact>
</mgrwt>
</event>
<event>
 5    0  0.7099509E-001  0.7869491E+03  0.7546771E-02  0.9579102E-01
          3   -1    0    0  503    0 -0.00000000000E+00  0.00000000000E+00  0.84911080125E+03  0.84911080125E+03  0.00000000000E+00 0. -1.
         21   -1    0    0  501  502  0.00000000000E+00 -0.00000000000E+00 -0.40927923222E+03  0.40927923222E+03  0.00000000000E+00 0.  1.
         25    1    1    2    0    0 -0.24150741772E+03 -0.26867737623E+03  0.16446335344E+03  0.41615689342E+03  0.12500000000E+03 0.  0.
         21    1    1    2  503  502  0.20606493394E+03  0.24087686099E+03 -0.19338217099E+03  0.37132342131E+03  0.00000000000E+00 0.  1.
          3    1    1    2  501    0  0.35442483785E+02  0.27800515243E+02  0.46875038656E+03  0.47090971875E+03  0.00000000000E+00 0. -1.
<mgrwt>
<rscale>  4 0.78694914E+03</rscale>
<asrwt>0</asrwt>
<pdfrwt beam="1">  1       21 0.62966036E-01 0.78694914E+03</pdfrwt>
<pdfrwt beam="2">  1        3 0.13063243E+00 0.78694914E+03</pdfrwt>
<totfact> 0.49118797E+01</totfact>
</mgrwt>
</event>
<event>
 5    0  0.7099509E-001  0.5707969E+03  0.7546771E-02  0.9967917E-01
         21   -1    0    0  501  502  0.00000000000E+00  0.00000000000E+00  0.79651169390E+02  0.79651169390E+02  0.00000000000E+00 0. -1.
         -1   -1    0    0    0  501 -0.00000000000E+00 -0.00000000000E+00 -0.24900249546E+04  0.24900249546E+04  0.00000000000E+00 0. -1.
         25    1    1    2    0    0 -0.18831234847E+03 -0.91102135389E+02 -0.13895108941E+03  0.28052369758E+03  0.12500000000E+03 0.  0.
         21    1    1    2  503  502  0.14502832175E+03  0.82812363924E+02 -0.80862060623E+03  0.82568661521E+03  0.00000000000E+00 0. -1.
         -1    1    1    2    0  503  0.43284026715E+02  0.82897714651E+01 -0.14628020896E+04  0.14634658112E+04  0.00000000000E+00 0. -1.
<mgrwt>
<rscale>  4 0.57079693E+03</rscale>
<asrwt>0</asrwt>
<pdfrwt beam="1">  1       21 0.12254028E-01 0.57079693E+03</pdfrwt>
<pdfrwt beam="2">  1       -1 0.38308069E+00 0.57079693E+03</pdfrwt>
<totfact> 0.53525686E+01</totfact>
</mgrwt>
</event>
<event>
 5    0  0.7099509E-001  0.4442268E+03  0.7546771E-02  0.1029458E+00
          1   -1    0    0  503    0 -0.00000000000E+00  0.00000000000E+00  0.18035550165E+04  0.18035550165E+04  0.00000000000E+00 0.  1.
         21   -1    0    0  501  502  0.00000000000E+00 -0.00000000000E+00 -0.10501573202E+03  0.10501573202E+03  0.00000000000E+00 0. -1.
         25    1    1    2    0    0  0.22741647990E+03 -0.17417097124E+02  0.25851387639E+03  0.36670974202E+03  0.12500000000E+03 0.  0.
         21    1    1    2  503  502 -0.17888703124E+03  0.11617802043E+02  0.10871398067E+03  0.20965274351E+03  0.00000000000E+00 0. -1.
          1    1    1    2  501    0 -0.48529448664E+02  0.57992950809E+01  0.13313114275E+04  0.13322082630E+04  0.00000000000E+00 0.  1.
<mgrwt>
<rscale>  4 0.44422676E+03</rscale>
<asrwt>0</asrwt>
<pdfrwt beam="1">  1       21 0.16156268E-01 0.44422676E+03</pdfrwt>
<pdfrwt beam="2">  1        1 0.27746998E+00 0.44422676E+03</pdfrwt>
<totfact> 0.16093481E+03</totfact>
</mgrwt>
</event>
<event>
 5    0  0.7099509E-001  0.6393851E+03  0.7546771E-02  0.9826904E-01
          2   -1    0    0  503    0 -0.00000000000E+00  0.00000000000E+00  0.80233217689E+03  0.80233217689E+03  0.00000000000E+00 0. -1.
         21   -1    0    0  501  502  0.00000000000E+00 -0.00000000000E+00 -0.38054347677E+03  0.38054347677E+03  0.00000000000E+00 0.  1.
         25    1    1    2    0    0  0.19859966439E+03  0.11768299188E+03  0.67727195957E+02  0.27111452626E+03  0.12500000000E+03 0.  0.
         21    1    1    2  503  502 -0.19438626299E+03 -0.27838400599E+03 -0.15840835324E+03  0.37466902782E+03  0.00000000000E+00 0.  1.
          2    1    1    2  501    0 -0.42134013975E+01  0.16070101411E+03  0.51246985740E+03  0.53709209958E+03  0.00000000000E+00 0. -1.
<mgrwt>
<rscale>  4 0.63938512E+03</rscale>
<asrwt>0</asrwt>
<pdfrwt beam="1">  1       21 0.58545150E-01 0.63938512E+03</pdfrwt>
<pdfrwt beam="2">  1        2 0.12343572E+00 0.63938512E+03</pdfrwt>
<totfact> 0.10735498E+03</totfact>
</mgrwt>
</event>
<event>
 5    0  0.7099509E-001  0.6575441E+03  0.7546771E-02  0.9792725E-01
          1   -1    0    0  503    0 -0.00000000000E+00  0.00000000000E+00  0.13384388382E+04  0.13384388382E+04  0.00000000000E+00 0. -1.
         21   -1    0    0  501  502  0.00000000000E+00 -0.00000000000E+00 -0.26055709006E+03  0.26055709006E+03  0.00000000000E+00 0. -1.
         25    1    1    2    0    0 -0.26013961782E+02 -0.26611163518E+03  0.15367673992E+03  0.33276668851E+03  0.12500000000E+03 0.  0.
         21    1    1    2  503  502 -0.86218531917E+02  0.33438383992E+03  0.12959618893E+02  0.34556350989E+03  0.00000000000E+00 0. -1.
          1    1    1    2  501    0  0.11223249370E+03 -0.68272204735E+02  0.91124538931E+03  0.92066572985E+03  0.00000000000E+00 0. -1.
<mgrwt>
<rscale>  4 0.65754405E+03</rscale>
<asrwt>0</asrwt>
<pdfrwt beam="1">  1       21 0.40085707E-01 0.65754405E+03</pdfrwt>
<pdfrwt beam="2">  1        1 0.20591366E+00 0.65754405E+03</pdfrwt>
<totfact> 0.53252430E+02</totfact>
</mgrwt>
</event>
<event>
 5    0  0.7099509E-001  0.6430545E+03  0.7546771E-02  0.9819900E-01
         21   -1    0    0  501  502  0.00000000000E+00  0.00000000000E+00  0.62059002544E+03  0.62059002544E+03  0.00000000000E+00 0. -1.
          2   -1    0    0  503    0 -0.00000000000E+00 -0.00000000000E+00 -0.56282240898E+03  0.56282240898E+03  0.00000000000E+00 0. -1.
         25    1    1    2    0    0 -0.33794028283E+02 -0.28933485533E+03  0.28914343781E+02  0.31830446766E+03  0.12500000000E+03 0.  0.
         21    1    1    2  503  502 -0.18284256190E+01  0.20317823069E+03  0.41809708123E+03  0.46485471483E+03  0.00000000000E+00 0. -1.
          2    1    1    2  501    0  0.35622453902E+02  0.86156624634E+02 -0.38924380855E+03  0.40025325193E+03  0.00000000000E+00 0. -1.
<mgrwt>
<rscale>  4 0.64305450E+03</rscale>
<asrwt>0</asrwt>
<pdfrwt beam="1">  1       21 0.95475389E-01 0.64305450E+03</pdfrwt>
<pdfrwt beam="2">  1        2 0.86588063E-01 0.64305450E+03</pdfrwt>
<totfact> 0.54080517E+02</totfact>
</mgrwt>
</event>
<event>
 5    0  0.7099509E-001  0.5671863E+03  0.7546771E-02  0.9975924E-01
          2   -1    0    0  503    0 -0.00000000000E+00  0.00000000000E+00  0.52796619240E+03  0.52796619240E+03  0.00000000000E+00 0. -1.
         21   -1    0    0  501  502  0.00000000000E+00 -0.00000000000E+00 -0.32560188984E+03  0.32560188984E+03  0.00000000000E+00 0.  1.
         25    1    1    2    0    0 -0.11648056270E+03 -0.16363384739E+03 -0.24052738725E+03  0.33737543111E+03  0.12500000000E+03 0.  0.
         21    1    1    2  503  502  0.78494847297E+02 -0.66450183323E+01  0.21643203183E+03  0.23032242991E+03  0.00000000000E+00 0. -1.
          2    1    1    2  501    0  0.37985715406E+02  0.17027886572E+03  0.22645965798E+03  0.28587022122E+03  0.00000000000E+00 0. -1.
<mgrwt>
<rscale>  4 0.56718628E+03</rscale>
<asrwt>0</asrwt>
<pdfrwt beam="1">  1       21 0.50092598E-01 0.56718628E+03</pdfrwt>
<pdfrwt beam="2">  1        2 0.81225568E-01 0.56718628E+03</pdfrwt>
<totfact> 0.25480751E+03</totfact>
</mgrwt>
</event>
<event>
 5    0  0.7099509E-001  0.5977884E+03  0.7546771E-02  0.9910005E-01
         21   -1    0    0  501  502  0.00000000000E+00  0.00000000000E+00  0.51640162644E+03  0.51640162644E+03  0.00000000000E+00 0. -1.
          2   -1    0    0  503    0 -0.00000000000E+00 -0.00000000000E+00 -0.69522103641E+03  0.69522103641E+03  0.00000000000E+00 0.  1.
         25    1    1    2    0    0 -0.36465833670E+03 -0.16600398506E+03  0.25612203019E+02  0.42049258081E+03  0.12500000000E+03 0.  0.
         21    1    1    2  503  502  0.21486396613E+01 -0.13811874127E+03  0.14699857542E+03  0.20171758604E+03  0.00000000000E+00 0. -1.
          2    1    1    2  501    0  0.36250969703E+03  0.30412272632E+03 -0.35143018841E+03  0.58941249600E+03  0.00000000000E+00 0.  1.
<mgrwt>
<rscale>  4 0.59778843E+03</rscale>
<asrwt>0</asrwt>
<pdfrwt beam="1">  1       21 0.79446404E-01 0.59778843E+03</pdfrwt>
<pdfrwt beam="2">  1        2 0.10695708E+00 0.59778843E+03</pdfrwt>
<totfact> 0.65227048E+02</totfact>
</mgrwt>
</event>
<event>
 5    0  0.7099509E-001  0.5612536E+03  0.7546771E-02  0.9989222E-01
         21   -1    0    0  501  502  0.00000000000E+00  0.00000000000E+00  0.26577519111E+03  0.26577519111E+03  0.00000000000E+00 0.  1.
          2   -1    0    0  503    0 -0.00000000000E+00 -0.00000000000E+00 -0.14501988110E+04  0.14501988110E+04  0.00000000000E+00 0.  1.
         25    1    1    2    0    0 -0.45574232413E+02  0.23401094175E+03 -0.15812969511E+03  0.31219886610E+03  0.12500000000E+03 0.  0.
         21    1    1    2  503  502  0.34410737177E+02 -0.21226076972E+03  0.12732263515E+03  0.24989955305E+03  0.00000000000E+00 0.  1.
          2    1    1    2  501    0  0.11163495235E+02 -0.21750172032E+02 -0.11536165599E+04  0.11538755830E+04  0.00000000000E+00 0.  1.
<mgrwt>
<rscale>  4 0.56125356E+03</rscale>
<asrwt>0</asrwt>
<pdfrwt beam="1">  1       21 0.40888493E-01 0.56125356E+03</pdfrwt>
<pdfrwt beam="2">  1        2 0.22310750E+00 0.56125356E+03</pdfrwt>
<totfact> 0.94070763E+02</totfact>
</mgrwt>
</event>
<event>
 5    0  0.7099509E-001  0.3766943E+03  0.7546771E-02  0.1052162E+00
          2   -1    0    0  503    0 -0.00000000000E+00  0.00000000000E+00  0.13626819486E+04  0.13626819486E+04  0.00000000000E+00 0.  1.
         21   -1    0    0  501  502  0.00000000000E+00 -0.00000000000E+00 -0.47911425354E+02  0.47911425354E+02  0.00000000000E+00 0.  1.
         25    1    1    2    0    0  0.15328247752E+03 -0.16941252343E+03  0.78652576079E+03  0.82851909658E+03  0.12500000000E+03 0.  0.
         21    1    1    2  503  502 -0.92779457393E+02  0.49515046568E+02  0.17508686760E+03  0.20424294053E+03  0.00000000000E+00 0. -1.
          2    1    1    2  501    0 -0.60503020131E+02  0.11989747686E+03  0.35315789483E+03  0.37783133682E+03  0.00000000000E+00 0.  1.
<mgrwt>
<rscale>  4 0.37669428E+03</rscale>
<asrwt>0</asrwt>
<pdfrwt beam="1">  1       21 0.73709895E-02 0.37669428E+03</pdfrwt>
<pdfrwt beam="2">  1        2 0.20964335E+00 0.37669428E+03</pdfrwt>
<totfact> 0.27813585E+04</totfact>
</mgrwt>
</event>
<event>
 5    0  0.7231831E-001  0.7865810E+03  0.7546771E-02  0.9579646E-01
          1   -1    0    0  503    0 -0.00000000000E+00  0.00000000000E+00  0.13167010011E+04  0.13167010011E+04  0.00000000000E+00 0.  1.
         21   -1    0    0  501  502  0.00000000000E+00 -0.00000000000E+00 -0.29715276983E+03  0.29715276983E+03  0.00000000000E+00 0. -1.
         25    1    1    2    0    0 -0.14086630090E+03  0.22541130137E+03 -0.18831647030E+03  0.34891497890E+03  0.12500000000E+03 0.  0.
         21    1    1    2  503  502  0.14142195037E+02 -0.20417051047E+03  0.42629577110E+03  0.47287808522E+03  0.00000000000E+00 0.  1.
          1    1    1    2  501    0  0.12672410586E+03 -0.21240790900E+02  0.78156893043E+03  0.79206070678E+03  0.00000000000E+00 0.  1.
<mgrwt>
<rscale>  4 0.78658101E+03</rscale>
<asrwt>0</asrwt>
<pdfrwt beam="1">  1       21 0.45715811E-01 0.78658101E+03</pdfrwt>
<pdfrwt beam="2">  1        1 0.20256938E+00 0.78658101E+03</pdfrwt>
<totfact> 0.40912924E+02</totfact>
</mgrwt>
</event>
<event>
 5    0  0.7099509E-001  0.4465014E+03  0.7546771E-02  0.1028771E+00
         -4   -1    0    0    0  501 -0.00000000000E+00  0.00000000000E+00  0.77672597254E+03  0.77672597254E+03  0.00000000000E+00 0.  1.
         21   -1    0    0  501  502  0.00000000000E+00 -0.00000000000E+00 -0.28456948089E+03  0.28456948089E+03  0.00000000000E+00 0.  1.
         25    1    1    2    0    0 -0.20815702515E+03  0.42839660502E+02  0.52682987901E+02  0.25212116303E+03  0.12500000000E+03 0.  0.
         21    1    1    2  503  502  0.87261957652E+02 -0.10981504998E+03 -0.14903247479E+03  0.20465745282E+03  0.00000000000E+00 0.  1.
         -4    1    1    2    0  503  0.12089506750E+03  0.66975389478E+02  0.58850597853E+03  0.60451683757E+03  0.00000000000E+00 0.  1.
<mgrwt>
<rscale>  4 0.44650138E+03</rscale>
<asrwt>0</asrwt>
<pdfrwt beam="1">  1       21 0.43779921E-01 0.44650138E+03</pdfrwt>
<pdfrwt beam="2">  1       -4 0.11949630E+00 0.44650138E+03</pdfrwt>
<totfact> 0.11309503E+02</totfact>
</mgrwt>
</event>
<event>
 5    0  0.7099509E-001  0.4230731E+03  0.7546771E-02  0.1036071E+00
         21   -1    0    0  501  502  0.00000000000E+00  0.00000000000E+00  0.15699376543E+03  0.15699376543E+03  0.00000000000E+00 0.  1.
         -2   -1    0    0    0  501 -0.00000000000E+00 -0.00000000000E+00 -0.47762851048E+03  0.47762851048E+03  0.00000000000E+00 0.  1.
         25    1    1    2    0    0  0.14621534289E+03  0.18068782526E+03 -0.24898499897E+03  0.36282991388E+03  0.12500000000E+03 0.  0.
         21    1    1    2  503  502 -0.86994573610E+02 -0.73416584715E+02  0.24014118614E+02  0.11633885267E+03  0.00000000000E+00 0. -1.
         -2    1    1    2    0  503 -0.59220769281E+02 -0.10727124054E+03 -0.95663864700E+02  0.15545350936E+03  0.00000000000E+00 0.  1.
<mgrwt>
<rscale>  4 0.42307305E+03</rscale>
<asrwt>0</asrwt>
<pdfrwt beam="1">  1       21 0.24152887E-01 0.42307305E+03</pdfrwt>
<pdfrwt beam="2">  1       -2 0.73481310E-01 0.42307305E+03</pdfrwt>
<totfact> 0.21818244E+03</totfact>
</mgrwt>
</event>
<event>
 5    0  0.7099509E-001  0.5146159E+03  0.7546771E-02  0.1010033E+00
         21   -1    0    0  501  502  0.00000000000E+00  0.00000000000E+00  0.51066906275E+02  0.51066906275E+02  0.00000000000E+00 0.  1.
          2   -1    0    0  503    0 -0.00000000000E+00 -0.00000000000E+00 -0.23119446339E+04  0.23119446339E+04  0.00000000000E+00 0.  1.
         25    1    1    2    0    0  0.16022054694E+03  0.14139127021E+03 -0.37402217219E+03  0.44853060123E+03  0.12500000000E+03 0.  0.
         21    1    1    2  503  502 -0.14478963625E+03 -0.16582866617E+03 -0.87687026155E+03  0.90408220914E+03  0.00000000000E+00 0.  1.
          2    1    1    2  501    0 -0.15430910693E+02  0.24437395958E+02 -0.10099852939E+04  0.10103987298E+04  0.00000000000E+00 0.  1.
<mgrwt>
<rscale>  4 0.51461591E+03</rscale>
<asrwt>0</asrwt>
<pdfrwt beam="1">  1       21 0.78564490E-02 0.51461591E+03</pdfrwt>
<pdfrwt beam="2">  1        2 0.35568371E+00 0.51461591E+03</pdfrwt>
<totfact> 0.74469431E+03</totfact>
</mgrwt>
</event>
<event>
 5    0  0.7099509E-001  0.6679301E+03  0.7546771E-02  0.9773704E-01
          2   -1    0    0  503    0 -0.00000000000E+00  0.00000000000E+00  0.19601814751E+04  0.19601814751E+04  0.00000000000E+00 0. -1.
         21   -1    0    0  501  502  0.00000000000E+00 -0.00000000000E+00 -0.72432336253E+02  0.72432336253E+02  0.00000000000E+00 0. -1.
         25    1    1    2    0    0 -0.35623128003E+02  0.31225790704E+03  0.66173379205E+03  0.74316257932E+03  0.12500000000E+03 0.  0.
         21    1    1    2  503  502  0.53642341369E+02 -0.32124602349E+03  0.81110490692E+03  0.87405244604E+03  0.00000000000E+00 0. -1.
          2    1    1    2  501    0 -0.18019213366E+02  0.89881164544E+01  0.41491043990E+03  0.41539878602E+03  0.00000000000E+00 0. -1.
<mgrwt>
<rscale>  4 0.66793009E+03</rscale>
<asrwt>0</asrwt>
<pdfrwt beam="1">  1       21 0.11143438E-01 0.66793009E+03</pdfrwt>
<pdfrwt beam="2">  1        2 0.30156634E+00 0.66793009E+03</pdfrwt>
<totfact> 0.60214868E+03</totfact>
</mgrwt>
</event>
<event>
 5    0  0.7099509E-001  0.1098549E+04  0.7546771E-02  0.9206607E-01
          2   -1    0    0  503    0 -0.00000000000E+00  0.00000000000E+00  0.11813514272E+04  0.11813514272E+04  0.00000000000E+00 0.  1.
         21   -1    0    0  501  502  0.00000000000E+00 -0.00000000000E+00 -0.10181805737E+04  0.10181805737E+04  0.00000000000E+00 0. -1.
         25    1    1    2    0    0  0.36819667309E+03 -0.57064790382E+03 -0.69278912398E+03  0.97815621989E+03  0.12500000000E+03 0.  0.
         21    1    1    2  503  502 -0.26238150098E+03  0.12276063478E+03  0.50987900914E+02  0.29413260878E+03  0.00000000000E+00 0.  1.
          2    1    1    2  501    0 -0.10581517211E+03  0.44788726903E+03  0.80497207654E+03  0.92724317221E+03  0.00000000000E+00 0.  1.
<mgrwt>
<rscale>  4 0.10985491E+04</rscale>
<asrwt>0</asrwt>
<pdfrwt beam="1">  1       21 0.15664316E+00 0.10985491E+04</pdfrwt>
<pdfrwt beam="2">  1        2 0.18174637E+00 0.10985491E+04</pdfrwt>
<totfact> 0.50007762E+01</totfact>
</mgrwt>
</event>
<event>
 5    0  0.7099509E-001  0.4463489E+03  0.7546771E-02  0.1028816E+00
          2   -1    0    0  503    0 -0.00000000000E+00  0.00000000000E+00  0.11385046039E+04  0.11385046039E+04  0.00000000000E+00 0.  1.
         21   -1    0    0  501  502  0.00000000000E+00 -0.00000000000E+00 -0.12560650966E+04  0.12560650966E+04  0.00000000000E+00 0. -1.
         25    1    1    2    0    0  0.12872941789E+03 -0.16543927006E+03 -0.10628200313E+04  0.10904828444E+04  0.12500000000E+03 0.  0.
         21    1    1    2  503  502  0.12866881605E+03  0.17737884466E+02 -0.13290035936E+03  0.18583003602E+03  0.00000000000E+00 0.  1.
          2    1    1    2  501    0 -0.25739823394E+03  0.14770138559E+03  0.10781598979E+04  0.11182568201E+04  0.00000000000E+00 0.  1.
<mgrwt>
<rscale>  4 0.44634887E+03</rscale>
<asrwt>0</asrwt>
<pdfrwt beam="1">  1       21 0.19324079E+00 0.44634887E+03</pdfrwt>
<pdfrwt beam="2">  1        2 0.17515455E+00 0.44634887E+03</pdfrwt>
<totfact> 0.34169210E+01</totfact>
</mgrwt>
</event>
<event>
 5    0  0.7099509E-001  0.5092821E+03  0.7546771E-02  0.1011384E+00
         21   -1    0    0  501  502  0.00000000000E+00  0.00000000000E+00  0.34103461193E+03  0.34103461193E+03  0.00000000000E+00 0. -1.
          2   -1    0    0  503    0 -0.00000000000E+00 -0.00000000000E+00 -0.34037909928E+03  0.34037909928E+03  0.00000000000E+00 0. -1.
         25    1    1    2    0    0 -0.60915808809E+02  0.25020269020E+03  0.89325052529E+02  0.29986011231E+03  0.12500000000E+03 0.  0.
         21    1    1    2  503  502  0.19995674908E+02 -0.22189047792E+03  0.55027682536E+02  0.22948476432E+03  0.00000000000E+00 0. -1.
          2    1    1    2  501    0  0.40920133901E+02 -0.28312212279E+02 -0.14369722241E+03  0.15206883458E+03  0.00000000000E+00 0. -1.
<mgrwt>
<rscale>  4 0.50928213E+03</rscale>
<asrwt>0</asrwt>
<pdfrwt beam="1">  1       21 0.52466863E-01 0.50928213E+03</pdfrwt>
<pdfrwt beam="2">  1        2 0.52366015E-01 0.50928213E+03</pdfrwt>
<totfact> 0.38147305E+03</totfact>
</mgrwt>
</event>
<event>
 5    0  0.7099509E-001  0.5253874E+03  0.7546771E-02  0.1007357E+00
          2   -1    0    0  503    0 -0.00000000000E+00  0.00000000000E+00  0.21000948576E+04  0.21000948576E+04  0.00000000000E+00 0.  1.
         21   -1    0    0  501  502  0.00000000000E+00 -0.00000000000E+00 -0.67993521312E+02  0.67993521312E+02  0.00000000000E+00 0.  1.
         25    1    1    2    0    0 -0.52154821650E+02  0.20535210003E+03  0.79525621159E+03  0.83243441332E+03  0.12500000000E+03 0.  0.
         21    1    1    2  503  502  0.68406194262E+02 -0.18797994505E+03  0.15375423977E+03  0.25230186960E+03  0.00000000000E+00 0.  1.
          2    1    1    2  501    0 -0.16251372612E+02 -0.17372154982E+02  0.10830908849E+04  0.10833520960E+04  0.00000000000E+00 0.  1.
<mgrwt>
<rscale>  4 0.52538744E+03</rscale>
<asrwt>0</asrwt>
<pdfrwt beam="1">  1       21 0.10460543E-01 0.52538744E+03</pdfrwt>
<pdfrwt beam="2">  1        2 0.32309147E+00 0.52538744E+03</pdfrwt>
<totfact> 0.58043531E+03</totfact>
</mgrwt>
</event>
<event>
 5    0  0.7099509E-001  0.4289863E+03  0.7546771E-02  0.1034181E+00
         -1   -1    0    0    0  501 -0.00000000000E+00  0.00000000000E+00  0.64153060561E+03  0.64153060561E+03  0.00000000000E+00 0.  1.
         21   -1    0    0  501  502  0.00000000000E+00 -0.00000000000E+00 -0.15811715957E+03  0.15811715957E+03  0.00000000000E+00 0.  1.
         25    1    1    2    0    0 -0.96359364389E+02 -0.19964287235E+03  0.35494090252E+02  0.25695765026E+03  0.12500000000E+03 0.  0.
         21    1    1    2  503  502  0.67237552894E+02  0.14940629312E+03  0.10434798169E+03  0.19424631329E+03  0.00000000000E+00 0.  1.
         -1    1    1    2    0  503  0.29121811494E+02  0.50236579224E+02  0.34357137410E+03  0.34844380163E+03  0.00000000000E+00 0.  1.
<mgrwt>
<rscale>  4 0.42898626E+03</rscale>
<asrwt>0</asrwt>
<pdfrwt beam="1">  1       21 0.24325717E-01 0.42898626E+03</pdfrwt>
<pdfrwt beam="2">  1       -1 0.98697015E-01 0.42898626E+03</pdfrwt>
<totfact> 0.14675832E+03</totfact>
</mgrwt>
</event>
<event>
 5    0  0.8360997E-001  0.1103065E+04  0.7546771E-02  0.9202210E-01
          2   -1    0    0  503    0 -0.00000000000E+00  0.00000000000E+00  0.21883427230E+04  0.21883427230E+04  0.00000000000E+00 0. -1.
         21   -1    0    0  501  502  0.00000000000E+00 -0.00000000000E+00 -0.21845578372E+03  0.21845578372E+03  0.00000000000E+00 0.  1.
         25    1    1    2    0    0 -0.27267546512E+03  0.94266031320E+02 -0.84607705234E+02  0.32560936370E+03  0.12500000000E+03 0.  0.
         21    1    1    2  503  502  0.24779930995E+03 -0.66434120550E+02  0.12618432937E+04  0.12876593059E+04  0.00000000000E+00 0. -1.
          2    1    1    2  501    0  0.24876155171E+02 -0.27831910770E+02  0.79265135082E+03  0.79352983707E+03  0.00000000000E+00 0. -1.
<mgrwt>
<rscale>  4 0.11030649E+04</rscale>
<asrwt>0</asrwt>
<pdfrwt beam="1">  1       21 0.33608584E-01 0.11030649E+04</pdfrwt>
<pdfrwt beam="2">  1        2 0.33666810E+00 0.11030649E+04</pdfrwt>
<totfact> 0.50713145E+02</totfact>
</mgrwt>
</event>
<event>
 5    0  0.7099509E-001  0.4197450E+03  0.7546771E-02  0.1037149E+00
         21   -1    0    0  501  502  0.00000000000E+00  0.00000000000E+00  0.36526548402E+03  0.36526548402E+03  0.00000000000E+00 0. -1.
          2   -1    0    0  503    0 -0.00000000000E+00 -0.00000000000E+00 -0.17183477599E+04  0.17183477599E+04  0.00000000000E+00 0. -1.
         25    1    1    2    0    0 -0.16682368799E+03 -0.20741484360E+03  0.22306325801E+03  0.36909792372E+03  0.12500000000E+03 0.  0.
         21    1    1    2  503  502 -0.44693524532E+02  0.10106046688E+03  0.98558453610E+01  0.11094082562E+03  0.00000000000E+00 0.  1.
          2    1    1    2  501    0  0.21151721252E+03  0.10635437672E+03 -0.15860013792E+04  0.16035744946E+04  0.00000000000E+00 0. -1.
<mgrwt>
<rscale>  4 0.41974503E+03</rscale>
<asrwt>0</asrwt>
<pdfrwt beam="1">  1       21 0.56194690E-01 0.41974503E+03</pdfrwt>
<pdfrwt beam="2">  1        2 0.26436119E+00 0.41974503E+03</pdfrwt>
<totfact> 0.35654670E+02</totfact>
</mgrwt>
</event>
<event>
 5    0  0.7099509E-001  0.5006324E+03  0.7546771E-02  0.1013614E+00
          3   -1    0    0  503    0 -0.00000000000E+00  0.00000000000E+00  0.32820375605E+03  0.32820375605E+03  0.00000000000E+00 0. -1.
         21   -1    0    0  501  502  0.00000000000E+00 -0.00000000000E+00 -0.23481672620E+04  0.23481672620E+04  0.00000000000E+00 0.  1.
         25    1    1    2    0    0  0.28835740362E+03 -0.14081025365E+02 -0.20760404924E+04  0.20997422208E+04  0.12500000000E+03 0.  0.
         21    1    1    2  503  502 -0.11654811784E+03  0.25795748052E+02 -0.22054869669E+03  0.25078000718E+03  0.00000000000E+00 0. -1.
          3    1    1    2  501    0 -0.17180928579E+03 -0.11714722687E+02  0.27662568317E+03  0.32584879009E+03  0.00000000000E+00 0. -1.
<mgrwt>
<rscale>  4 0.50063244E+03</rscale>
<asrwt>0</asrwt>
<pdfrwt beam="1">  1       21 0.36125650E+00 0.50063244E+03</pdfrwt>
<pdfrwt beam="2">  1        3 0.50492886E-01 0.50063244E+03</pdfrwt>
<totfact> 0.22818596E+00</totfact>
</mgrwt>
</event>
<event>
 5    0  0.7099509E-001  0.6108351E+03  0.7546771E-02  0.9883178E-01
         21   -1    0    0  501  502  0.00000000000E+00  0.00000000000E+00  0.16596762961E+03  0.16596762961E+03  0.00000000000E+00 0.  1.
          2   -1    0    0  503    0 -0.00000000000E+00 -0.00000000000E+00 -0.98257297562E+03  0.98257297562E+03  0.00000000000E+00 0.  1.
         25    1    1    2    0    0  0.34033143185E+02  0.21388506386E+03 -0.40251529877E+03  0.47386563615E+03  0.12500000000E+03 0.  0.
         21    1    1    2  503  502 -0.25711166970E+02 -0.25543611598E+03  0.16985906187E+01  0.25673246515E+03  0.00000000000E+00 0.  1.
          2    1    1    2  501    0 -0.83219762150E+01  0.41551052116E+02 -0.41578863786E+03  0.41794250393E+03  0.00000000000E+00 0.  1.
<mgrwt>
<rscale>  4 0.61083513E+03</rscale>
<asrwt>0</asrwt>
<pdfrwt beam="1">  1       21 0.25533483E-01 0.61083513E+03</pdfrwt>
<pdfrwt beam="2">  1        2 0.15116507E+00 0.61083513E+03</pdfrwt>
<totfact> 0.45415671E+03</totfact>
</mgrwt>
</event>
<event>
 5    0  0.7099509E-001  0.4444110E+03  0.7546771E-02  0.1029402E+00
         21   -1    0    0  501  502  0.00000000000E+00  0.00000000000E+00  0.51628522151E+03  0.51628522151E+03  0.00000000000E+00 0.  1.
          1   -1    0    0  503    0 -0.00000000000E+00 -0.00000000000E+00 -0.74284967213E+03  0.74284967213E+03  0.00000000000E+00 0. -1.
         25    1    1    2    0    0 -0.16380778649E+03  0.26174212342E+03  0.28809332064E+03  0.44041422716E+03  0.12500000000E+03 0.  0.
         21    1    1    2  503  502  0.95122107349E+02 -0.56980935869E+02  0.11096374877E+03  0.15686935934E+03  0.00000000000E+00 0. -1.
          1    1    1    2  501    0  0.68685679138E+02 -0.20476118755E+03 -0.62562152002E+03  0.66185130714E+03  0.00000000000E+00 0. -1.
<mgrwt>
<rscale>  4 0.44441100E+03</rscale>
<asrwt>0</asrwt>
<pdfrwt beam="1">  1       21 0.79428496E-01 0.44441100E+03</pdfrwt>
<pdfrwt beam="2">  1        1 0.11428456E+00 0.44441100E+03</pdfrwt>
<totfact> 0.36059103E+02</totfact>
</mgrwt>
</event>
<event>
 5    0  0.7099509E-001  0.5935741E+03  0.7546771E-02  0.9918828E-01
          2   -1    0    0  503    0 -0.00000000000E+00  0.00000000000E+00  0.12571385872E+04  0.12571385872E+04  0.00000000000E+00 0. -1.
         21   -1    0    0  501  502  0.00000000000E+00 -0.00000000000E+00 -0.28915099808E+03  0.28915099808E+03  0.00000000000E+00 0.  1.
         25    1    1    2    0    0  0.61504338219E+02 -0.23974294431E+03 -0.16712895102E+03  0.32375384049E+03  0.12500000000E+03 0.  0.
         21    1    1    2  503  502 -0.54198889457E+02  0.19013913411E+03  0.18396019122E+03  0.27005881192E+03  0.00000000000E+00 0. -1.
          2    1    1    2  501    0 -0.73054487623E+01  0.49603810197E+02  0.95115634892E+03  0.95247693288E+03  0.00000000000E+00 0. -1.
<mgrwt>
<rscale>  4 0.59357407E+03</rscale>
<asrwt>0</asrwt>
<pdfrwt beam="1">  1       21 0.44484770E-01 0.59357407E+03</pdfrwt>
<pdfrwt beam="2">  1        2 0.19340593E+00 0.59357407E+03</pdfrwt>
<totfact> 0.10074183E+03</totfact>
</mgrwt>
</event>
<event>
 5    0  0.7099509E-001  0.4098095E+03  0.7546771E-02  0.1040435E+00
          2   -1    0    0  503    0 -0.00000000000E+00  0.00000000000E+00  0.41562363089E+04  0.41562363089E+04  0.00000000000E+00 0. -1.
         21   -1    0    0  501  502  0.00000000000E+00 -0.00000000000E+00 -0.13103094706E+03  0.13103094706E+03  0.00000000000E+00 0.  1.
         25    1    1    2    0    0 -0.21249172085E+03 -0.19004003322E+03  0.10129929152E+03  0.32734460759E+03  0.12500000000E+03 0.  0.
         21    1    1    2  503  502  0.10235747788E+02  0.81114423253E+02  0.10020257022E+03  0.12932468933E+03  0.00000000000E+00 0. -1.
          2    1    1    2  501    0  0.20225597306E+03  0.10892560996E+03  0.38237035001E+04  0.38305979591E+04  0.00000000000E+00 0. -1.
<mgrwt>
<rscale>  4 0.40980952E+03</rscale>
<asrwt>0</asrwt>
<pdfrwt beam="1">  1       21 0.20158610E-01 0.40980952E+03</pdfrwt>
<pdfrwt beam="2">  1        2 0.63942087E+00 0.40980952E+03</pdfrwt>
<totfact> 0.87193689E+01</totfact>
</mgrwt>
</event>
<event>
 5    0  0.7099509E-001  0.5412310E+03  0.7546771E-02  0.1003544E+00
          2   -1    0    0  503    0 -0.00000000000E+00  0.00000000000E+00  0.58525443566E+03  0.58525443566E+03  0.00000000000E+00 0.  1.
         21   -1    0    0  501  502  0.00000000000E+00 -0.00000000000E+00 -0.18602781689E+03  0.18602781689E+03  0.00000000000E+00 0.  1.
         25    1    1    2    0    0 -0.23945935153E+03  0.11376491930E+03  0.39027548428E+02  0.29568799001E+03  0.12500000000E+03 0.  0.
         21    1    1    2  503  502  0.18310558242E+03 -0.12889617966E+03  0.18348879190E+03  0.28949959620E+03  0.00000000000E+00 0.  1.
          2    1    1    2  501    0  0.56353769108E+02  0.15131260366E+02  0.17671027845E+03  0.18609466635E+03  0.00000000000E+00 0.  1.
<mgrwt>
<rscale>  4 0.54123099E+03</rscale>
<asrwt>0</asrwt>
<pdfrwt beam="1">  1       21 0.28619664E-01 0.54123099E+03</pdfrwt>
<pdfrwt beam="2">  1        2 0.90039143E-01 0.54123099E+03</pdfrwt>
<totfact> 0.71611454E+03</totfact>
</mgrwt>
</event>
<event>
 5    0  0.7099509E-001  0.4967038E+03  0.7546771E-02  0.1014643E+00
         21   -1    0    0  501  502  0.00000000000E+00  0.00000000000E+00  0.27837312459E+03  0.27837312459E+03  0.00000000000E+00 0. -1.
          1   -1    0    0  503    0 -0.00000000000E+00 -0.00000000000E+00 -0.18925149384E+04  0.18925149384E+04  0.00000000000E+00 0. -1.
         25    1    1    2    0    0  0.17996401081E+03 -0.11761878820E+03 -0.70439181410E+02  0.25847224764E+03  0.12500000000E+03 0.  0.
         21    1    1    2  503  502 -0.11582734627E+03  0.17049928411E+03  0.12538332793E+03  0.24126118409E+03  0.00000000000E+00 0. -1.
          1    1    1    2  501    0 -0.64136664539E+02 -0.52880495913E+02 -0.16690859604E+04  0.16711546313E+04  0.00000000000E+00 0. -1.
<mgrwt>
<rscale>  4 0.49670378E+03</rscale>
<asrwt>0</asrwt>
<pdfrwt beam="1">  1       21 0.42826633E-01 0.49670378E+03</pdfrwt>
<pdfrwt beam="2">  1        1 0.29115616E+00 0.49670378E+03</pdfrwt>
<totfact> 0.20408113E+02</totfact>
</mgrwt>
</event>
<event>
 5    0  0.7099509E-001  0.3753871E+03  0.7546771E-02  0.1052652E+00
          2   -1    0    0  503    0 -0.00000000000E+00  0.00000000000E+00  0.33049159685E+04  0.33049159685E+04  0.00000000000E+00 0. -1.
         21   -1    0    0  501  502  0.00000000000E+00 -0.00000000000E+00 -0.17377834910E+03  0.17377834910E+03  0.00000000000E+00 0.  1.
         25    1    1    2    0    0 -0.19437899269E+03 -0.11886646383E+03 -0.11834672337E+02  0.26014897365E+03  0.12500000000E+03 0.  0.
         21    1    1    2  503  502  0.28955944981E+02  0.10349422043E+03  0.45636233117E+02  0.11675686783E+03  0.00000000000E+00 0. -1.
          2    1    1    2  501    0  0.16542304771E+03  0.15372243394E+02  0.30973360586E+04  0.31017884761E+04  0.00000000000E+00 0. -1.
<mgrwt>
<rscale>  4 0.37538709E+03</rscale>
<asrwt>0</asrwt>
<pdfrwt beam="1">  1       21 0.26735133E-01 0.37538709E+03</pdfrwt>
<pdfrwt beam="2">  1        2 0.50844856E+00 0.37538709E+03</pdfrwt>
<totfact> 0.21055850E+02</totfact>
</mgrwt>
</event>
<event>
 5    0  0.7099509E-001  0.4441982E+03  0.7546771E-02  0.1029466E+00
         -4   -1    0    0    0  501 -0.00000000000E+00  0.00000000000E+00  0.70843556448E+03  0.70843556448E+03  0.00000000000E+00 0.  1.
         21   -1    0    0  501  502  0.00000000000E+00 -0.00000000000E+00 -0.29448208487E+03  0.29448208487E+03  0.00000000000E+00 0. -1.
         25    1    1    2    0    0  0.18363988986E+03 -0.17908933822E+03  0.24223196677E+02  0.28637102415E+03  0.12500000000E+03 0.  0.
         21    1    1    2  503  502 -0.11501244219E+03  0.57803749851E+00 -0.12354769590E+03  0.16879641332E+03  0.00000000000E+00 0.  1.
         -4    1    1    2    0  503 -0.68627447677E+02  0.17851130072E+03  0.51327797884E+03  0.54775021188E+03  0.00000000000E+00 0.  1.
<mgrwt>
<rscale>  4 0.44419820E+03</rscale>
<asrwt>0</asrwt>
<pdfrwt beam="1">  1       21 0.45304936E-01 0.44419820E+03</pdfrwt>
<pdfrwt beam="2">  1       -4 0.10899009E+00 0.44419820E+03</pdfrwt>
<totfact> 0.13180876E+02</totfact>
</mgrwt>
</event>
<event>
 5    0  0.7099509E-001  0.4214283E+03  0.7546771E-02  0.1036602E+00
         21   -1    0    0  501  502  0.00000000000E+00  0.00000000000E+00  0.79441973438E+03  0.79441973438E+03  0.00000000000E+00 0.  1.
          1   -1    0    0  503    0 -0.00000000000E+00 -0.00000000000E+00 -0.24358045547E+03  0.24358045547E+03  0.00000000000E+00 0.  1.
         25    1    1    2    0    0  0.24438323071E+03 -0.11516961651E+01  0.26991483381E+03  0.38497208648E+03  0.12500000000E+03 0.  0.
         21    1    1    2  503  502 -0.54641528380E+02 -0.22435138350E+02  0.41520408583E+03  0.41938462650E+03  0.00000000000E+00 0.  1.
          1    1    1    2  501    0 -0.18974170233E+03  0.23586834515E+02 -0.13427964074E+03  0.23364347687E+03  0.00000000000E+00 0.  1.
<mgrwt>
<rscale>  4 0.42142827E+03</rscale>
<asrwt>0</asrwt>
<pdfrwt beam="1">  1       21 0.12221842E+00 0.42142827E+03</pdfrwt>
<pdfrwt beam="2">  1        1 0.37473917E-01 0.42142827E+03</pdfrwt>
<totfact> 0.57275173E+02</totfact>
</mgrwt>
</event>
<event>
 5    0  0.7099509E-001  0.7623839E+03  0.7546771E-02  0.9616120E-01
         21   -1    0    0  501  502  0.00000000000E+00  0.00000000000E+00  0.13122097687E+04  0.13122097687E+04  0.00000000000E+00 0. -1.
         -2   -1    0    0    0  501 -0.00000000000E+00 -0.00000000000E+00 -0.39390832047E+03  0.39390832047E+03  0.00000000000E+00 0.  1.
         25    1    1    2    0    0 -0.34578897460E+02  0.22519298779E+03  0.86796502654E+02  0.27398214317E+03  0.12500000000E+03 0.  0.
         21    1    1    2  503  502  0.65013708068E+02 -0.27249947876E+03  0.11116461699E+04  0.11464030510E+04  0.00000000000E+00 0. -1.
         -2    1    1    2    0  503 -0.30434810608E+02  0.47306490967E+02 -0.28014122429E+03  0.28573289509E+03  0.00000000000E+00 0.  1.
<mgrwt>
<rscale>  4 0.76238393E+03</rscale>
<asrwt>0</asrwt>
<pdfrwt beam="1">  1       21 0.20187842E+00 0.76238393E+03</pdfrwt>
<pdfrwt beam="2">  1       -2 0.60601281E-01 0.76238393E+03</pdfrwt>
<totfact> 0.21493041E+01</totfact>
</mgrwt>
</event>
<event>
 5    0  0.7099509E-001  0.5683564E+03  0.7546771E-02  0.9973322E-01
         21   -1    0    0  501  502  0.00000000000E+00  0.00000000000E+00  0.55611916345E+02  0.55611916345E+02  0.00000000000E+00 0. -1.
          1   -1    0    0  503    0 -0.00000000000E+00 -0.00000000000E+00 -0.24243135804E+04  0.24243135804E+04  0.00000000000E+00 0.  1.
         25    1    1    2    0    0  0.65309060655E+02  0.24970769515E+03 -0.91003107836E+03  0.95414923886E+03  0.12500000000E+03 0.  0.
         21    1    1    2  503  502 -0.45719928289E+02 -0.26056135988E+03 -0.49003106565E+03  0.55687788555E+03  0.00000000000E+00 0. -1.
          1    1    1    2  501    0 -0.19589132366E+02  0.10853664731E+02 -0.96863952005E+03  0.96889837235E+03  0.00000000000E+00 0.  1.
<mgrwt>
<rscale>  4 0.56835637E+03</rscale>
<asrwt>0</asrwt>
<pdfrwt beam="1">  1       21 0.85556802E-02 0.56835637E+03</pdfrwt>
<pdfrwt beam="2">  1        1 0.37297129E+00 0.56835637E+03</pdfrwt>
<totfact> 0.19321941E+03</totfact>
</mgrwt>
</event>
<event>
 5    0  0.7099509E-001  0.3947425E+03  0.7546771E-02  0.1045616E+00
          2   -1    0    0  503    0 -0.00000000000E+00  0.00000000000E+00  0.22582482171E+04  0.22582482171E+04  0.00000000000E+00 0. -1.
         21   -1    0    0  501  502  0.00000000000E+00 -0.00000000000E+00 -0.73415689244E+02  0.73415689244E+02  0.00000000000E+00 0. -1.
         25    1    1    2    0    0 -0.12480146611E+03  0.17764545029E+03  0.30278062368E+03  0.39298144744E+03  0.12500000000E+03 0.  0.
         21    1    1    2  503  502  0.13741705457E+03 -0.43773133316E+02  0.17691042633E+03  0.22824730673E+03  0.00000000000E+00 0. -1.
          2    1    1    2  501    0 -0.12615588459E+02 -0.13387231697E+03  0.17051414778E+04  0.17104351521E+04  0.00000000000E+00 0. -1.
<mgrwt>
<rscale>  4 0.39474253E+03</rscale>
<asrwt>0</asrwt>
<pdfrwt beam="1">  1       21 0.11294723E-01 0.39474253E+03</pdfrwt>
<pdfrwt beam="2">  1        2 0.34742275E+00 0.39474253E+03</pdfrwt>
<totfact> 0.42711812E+03</totfact>
</mgrwt>
</event>
<event>
 5    0  0.7099509E-001  0.5292740E+03  0.7546771E-02  0.1006408E+00
          1   -1    0    0  503    0 -0.00000000000E+00  0.00000000000E+00  0.16003608169E+04  0.16003608169E+04  0.00000000000E+00 0. -1.
         21   -1    0    0  501  502  0.00000000000E+00 -0.00000000000E+00 -0.78419981982E+02  0.78419981982E+02  0.00000000000E+00 0. -1.
         25    1    1    2    0    0  0.21636798941E+03  0.14479410400E+03  0.53982829157E+03  0.61222546809E+03  0.12500000000E+03 0.  0.
         21    1    1    2  503  502 -0.21698862691E+03 -0.85210480028E+02  0.29092109961E+03  0.37280018282E+03  0.00000000000E+00 0. -1.
          1    1    1    2  501    0  0.62063749977E+00 -0.59583623974E+02  0.69119144373E+03  0.69375514796E+03  0.00000000000E+00 0. -1.
<mgrwt>
<rscale>  4 0.52927401E+03</rscale>
<asrwt>0</asrwt>
<pdfrwt beam="1">  1       21 0.12064614E-01 0.52927401E+03</pdfrwt>
<pdfrwt beam="2">  1        1 0.24620933E+00 0.52927401E+03</pdfrwt>
<totfact> 0.37010479E+03</totfact>
</mgrwt>
</event>
<event>
 5    0  0.7099509E-001  0.5922478E+03  0.7546771E-02  0.9921621E-01
          2   -1    0    0  503    0 -0.00000000000E+00  0.00000000000E+00  0.11197198022E+04  0.11197198022E+04  0.00000000000E+00 0. -1.
         21   -1    0    0  501  502  0.00000000000E+00 -0.00000000000E+00 -0.48621909105E+03  0.48621909105E+03  0.00000000000E+00 0.  1.
         25    1    1    2    0    0 -0.23360136938E+03 -0.84783034246E+02 -0.15180594782E+02  0.27859148072E+03  0.12500000000E+03 0.  0.
         21    1    1    2  503  502  0.23138416518E+03  0.11202173480E+03 -0.29041647181E+03  0.38785206981E+03  0.00000000000E+00 0.  1.
          2    1    1    2  501    0  0.22172042080E+01 -0.27238700551E+02  0.93909777771E+03  0.93949534267E+03  0.00000000000E+00 0. -1.
<mgrwt>
<rscale>  4 0.59224779E+03</rscale>
<asrwt>0</asrwt>
<pdfrwt beam="1">  1       21 0.74802938E-01 0.59224779E+03</pdfrwt>
<pdfrwt beam="2">  1        2 0.17226458E+00 0.59224779E+03</pdfrwt>
<totfact> 0.38849251E+02</totfact>
</mgrwt>
</event>
<event>
 5    0  0.7099509E-001  0.6047907E+03  0.7546771E-02  0.9895516E-01
         21   -1    0    0  501  502  0.00000000000E+00  0.00000000000E+00  0.62003037599E+02  0.62003037599E+02  0.00000000000E+00 0. -1.
          2   -1    0    0  503    0 -0.00000000000E+00 -0.00000000000E+00 -0.18800503207E+04  0.18800503207E+04  0.00000000000E+00 0. -1.
         25    1    1    2    0    0 -0.24086704485E+03 -0.18189737811E+02 -0.12851947237E+04  0.13136583565E+04  0.12500000000E+03 0.  0.
         21    1    1    2  503  502  0.21064770605E+03 -0.39603491507E+02 -0.21377997877E+03  0.30272557198E+03  0.00000000000E+00 0. -1.
          2    1    1    2  501    0  0.30219338794E+02  0.57793229318E+02 -0.31907258068E+03  0.32566942984E+03  0.00000000000E+00 0. -1.
<mgrwt>
<rscale>  4 0.60479075E+03</rscale>
<asrwt>0</asrwt>
<pdfrwt beam="1">  1       21 0.95389289E-02 0.60479075E+03</pdfrwt>
<pdfrwt beam="2">  1        2 0.28923851E+00 0.60479075E+03</pdfrwt>
<totfact> 0.89028319E+03</totfact>
</mgrwt>
</event>
<event>
 5    0  0.7099509E-001  0.4982374E+03  0.7546771E-02  0.1014240E+00
         -2   -1    0    0    0  501 -0.00000000000E+00  0.00000000000E+00  0.23319496888E+03  0.23319496888E+03  0.00000000000E+00 0. -1.
         21   -1    0    0  501  502  0.00000000000E+00 -0.00000000000E+00 -0.75941751289E+03  0.75941751289E+03  0.00000000000E+00 0. -1.
         25    1    1    2    0    0  0.22389763657E+03 -0.32320772465E+02 -0.68089022848E+02  0.26727495024E+03  0.12500000000E+03 0.  0.
         21    1    1    2  503  502  0.49214711561E+02 -0.15447998244E+02 -0.44477650243E+03  0.44775759692E+03  0.00000000000E+00 0. -1.
         -2    1    1    2    0  503 -0.27311234813E+03  0.47768770709E+02 -0.13357018731E+02  0.27757993462E+03  0.00000000000E+00 0. -1.
<mgrwt>
<rscale>  4 0.49823739E+03</rscale>
<asrwt>0</asrwt>
<pdfrwt beam="1">  1       21 0.11683346E+00 0.49823739E+03</pdfrwt>
<pdfrwt beam="2">  1       -2 0.35876149E-01 0.49823739E+03</pdfrwt>
<totfact> 0.30031293E+02</totfact>
</mgrwt>
</event>
<event>
 5    0  0.7099509E-001  0.3876924E+03  0.7546771E-02  0.1048127E+00
         -4   -1    0    0    0  501 -0.00000000000E+00  0.00000000000E+00  0.21625757182E+03  0.21625757182E+03  0.00000000000E+00 0. -1.
         21   -1    0    0  501  502  0.00000000000E+00 -0.00000000000E+00 -0.85616927181E+03  0.85616927181E+03  0.00000000000E+00 0. -1.
         25    1    1    2    0    0 -0.21618596748E+03 -0.18373712429E+03 -0.44305422333E+03  0.54075664415E+03  0.12500000000E+03 0.  0.
         21    1    1    2  503  502  0.35150647216E+02 -0.14882544457E+02 -0.25405487671E+03  0.25690647813E+03  0.00000000000E+00 0.  1.
         -4    1    1    2    0  503  0.18103532026E+03  0.19861966875E+03  0.57197400047E+02  0.27476372135E+03  0.00000000000E+00 0. -1.
<mgrwt>
<rscale>  4 0.38769235E+03</rscale>
<asrwt>0</asrwt>
<pdfrwt beam="1">  1       21 0.13171835E+00 0.38769235E+03</pdfrwt>
<pdfrwt beam="2">  1       -4 0.33270396E-01 0.38769235E+03</pdfrwt>
<totfact> 0.14673438E+02</totfact>
</mgrwt>
</event>
<event>
 5    0  0.7099509E-001  0.5361598E+03  0.7546771E-02  0.1004749E+00
          2   -1    0    0  503    0 -0.00000000000E+00  0.00000000000E+00  0.36146767813E+03  0.36146767813E+03  0.00000000000E+00 0.  1.
         21   -1    0    0  501  502  0.00000000000E+00 -0.00000000000E+00 -0.26905179523E+03  0.26905179523E+03  0.00000000000E+00 0.  1.
         25    1    1    2    0    0  0.50016089929E+02 -0.24108875967E+03 -0.31135207719E+02  0.27788450920E+03  0.12500000000E+03 0.  0.
         21    1    1    2  503  502  0.83735189686E+01  0.25343746808E+03  0.50935206394E+02  0.25864079589E+03  0.00000000000E+00 0.  1.
          2    1    1    2  501    0 -0.58389608898E+02 -0.12348708410E+02  0.72615884233E+02  0.93994168274E+02  0.00000000000E+00 0.  1.
<mgrwt>
<rscale>  4 0.53615983E+03</rscale>
<asrwt>0</asrwt>
<pdfrwt beam="1">  1       21 0.41392584E-01 0.53615983E+03</pdfrwt>
<pdfrwt beam="2">  1        2 0.55610412E-01 0.53615983E+03</pdfrwt>
<totfact> 0.58697820E+03</totfact>
</mgrwt>
</event>
<event>
 5    0  0.7099509E-001  0.3949917E+03  0.7546771E-02  0.1045528E+00
          1   -1    0    0  503    0 -0.00000000000E+00  0.00000000000E+00  0.11028108718E+04  0.11028108718E+04  0.00000000000E+00 0.  1.
         21   -1    0    0  501  502  0.00000000000E+00 -0.00000000000E+00 -0.10634904694E+03  0.10634904694E+03  0.00000000000E+00 0.  1.
         25    1    1    2    0    0  0.69490690022E+02 -0.25134285399E+03  0.24553569045E+03  0.37936125466E+03  0.12500000000E+03 0.  0.
         21    1    1    2  503  502  0.42505636604E+02  0.96712716111E+02  0.80785496626E+02  0.13299013146E+03  0.00000000000E+00 0. -1.
          1    1    1    2  501    0 -0.11199632663E+03  0.15463013788E+03  0.67014063776E+03  0.69680853259E+03  0.00000000000E+00 0.  1.
<mgrwt>
<rscale>  4 0.39499168E+03</rscale>
<asrwt>0</asrwt>
<pdfrwt beam="1">  1       21 0.16361393E-01 0.39499168E+03</pdfrwt>
<pdfrwt beam="2">  1        1 0.16966320E+00 0.39499168E+03</pdfrwt>
<totfact> 0.47872466E+03</totfact>
</mgrwt>
</event>
<event>
 5    0  0.7099509E-001  0.3458911E+03  0.7546771E-02  0.1064314E+00
          1   -1    0    0  503    0 -0.00000000000E+00  0.00000000000E+00  0.75900583911E+03  0.75900583911E+03  0.00000000000E+00 0.  1.
         21   -1    0    0  501  502  0.00000000000E+00 -0.00000000000E+00 -0.93764685319E+02  0.93764685319E+02  0.00000000000E+00 0.  1.
         25    1    1    2    0    0  0.18475193892E+03  0.97617693963E+02  0.17314882582E+03  0.29877752424E+03  0.12500000000E+03 0.  0.
         21    1    1    2  503  502 -0.63824893579E+02 -0.78510552320E+02  0.96240338645E+02  0.13964142168E+03  0.00000000000E+00 0. -1.
          1    1    1    2  501    0 -0.12092704534E+03 -0.19107141642E+02  0.39585198933E+03  0.41435157851E+03  0.00000000000E+00 0.  1.
<mgrwt>
<rscale>  4 0.34589110E+03</rscale>
<asrwt>0</asrwt>
<pdfrwt beam="1">  1       21 0.14425337E-01 0.34589110E+03</pdfrwt>
<pdfrwt beam="2">  1        1 0.11677013E+00 0.34589110E+03</pdfrwt>
<totfact> 0.11391125E+04</totfact>
</mgrwt>
</event>
<event>
 5    0  0.7099509E-001  0.5543141E+03  0.7546771E-02  0.1000500E+00
          2   -1    0    0  503    0 -0.00000000000E+00  0.00000000000E+00  0.33904226935E+04  0.33904226935E+04  0.00000000000E+00 0. -1.
         21   -1    0    0  501  502  0.00000000000E+00 -0.00000000000E+00 -0.25803589776E+03  0.25803589776E+03  0.00000000000E+00 0. -1.
         25    1    1    2    0    0 -0.24494507764E+03 -0.17775185874E+02 -0.97382905278E+02  0.29227124137E+03  0.12500000000E+03 0.  0.
         21    1    1    2  503  502  0.21422720824E+03  0.67787254149E+02  0.13764227953E+03  0.26350295195E+03  0.00000000000E+00 0.  1.
          2    1    1    2  501    0  0.30717869405E+02 -0.50012068275E+02  0.30921274215E+04  0.30926843980E+04  0.00000000000E+00 0. -1.
<mgrwt>
<rscale>  4 0.55431411E+03</rscale>
<asrwt>0</asrwt>
<pdfrwt beam="1">  1       21 0.39697833E-01 0.55431411E+03</pdfrwt>
<pdfrwt beam="2">  1        2 0.52160346E+00 0.55431411E+03</pdfrwt>
<totfact> 0.77654941E+01</totfact>
</mgrwt>
</event>
<event>
 5    0  0.7099509E-001  0.6118389E+03  0.7546771E-02  0.9881144E-01
         -3   -1    0    0    0  501 -0.00000000000E+00  0.00000000000E+00  0.12970189477E+03  0.12970189477E+03  0.00000000000E+00 0. -1.
         21   -1    0    0  501  502  0.00000000000E+00 -0.00000000000E+00 -0.17000451429E+04  0.17000451429E+04  0.00000000000E+00 0.  1.
         25    1    1    2    0    0  0.22141889214E+03 -0.11283504231E+03 -0.12031077070E+04  0.12348486657E+04  0.12500000000E+03 0.  0.
         21    1    1    2  503  502 -0.24551441126E+03  0.12207563800E+03 -0.43958306608E+03  0.51808595765E+03  0.00000000000E+00 0. -1.
         -3    1    1    2    0  503  0.24095519122E+02 -0.92405956937E+01  0.72347524868E+02  0.76812414394E+02  0.00000000000E+00 0. -1.
<mgrwt>
<rscale>  4 0.61183888E+03</rscale>
<asrwt>0</asrwt>
<pdfrwt beam="1">  1       21 0.26154538E+00 0.61183888E+03</pdfrwt>
<pdfrwt beam="2">  1       -3 0.19954140E-01 0.61183888E+03</pdfrwt>
<totfact> 0.53112618E+01</totfact>
</mgrwt>
</event>
<event>
 5    0  0.7099509E-001  0.3842237E+03  0.7546771E-02  0.1049384E+00
         21   -1    0    0  501  502  0.00000000000E+00  0.00000000000E+00  0.16655109345E+03  0.16655109345E+03  0.00000000000E+00 0.  1.
          2   -1    0    0  503    0 -0.00000000000E+00 -0.00000000000E+00 -0.57087779252E+03  0.57087779252E+03  0.00000000000E+00 0.  1.
         25    1    1    2    0    0  0.88067908866E+02 -0.21723004273E+03 -0.65634466497E+02  0.27363795648E+03  0.12500000000E+03 0.  0.
         21    1    1    2  503  502 -0.88632279241E+02  0.78702196742E+02 -0.25377492447E+02  0.12121771248E+03  0.00000000000E+00 0. -1.
          2    1    1    2  501    0  0.56437037514E+00  0.13852784599E+03 -0.31331474013E+03  0.34257321701E+03  0.00000000000E+00 0.  1.
<mgrwt>
<rscale>  4 0.38422366E+03</rscale>
<asrwt>0</asrwt>
<pdfrwt beam="1">  1       21 0.25623245E-01 0.38422366E+03</pdfrwt>
<pdfrwt beam="2">  1        2 0.87827352E-01 0.38422366E+03</pdfrwt>
<totfact> 0.93483754E+03</totfact>
</mgrwt>
</event>
<event>
 5    0  0.7099509E-001  0.9459460E+03  0.7546771E-02  0.9369902E-01
          2   -1    0    0  503    0 -0.00000000000E+00  0.00000000000E+00  0.22377296418E+04  0.22377296418E+04  0.00000000000E+00 0.  1.
         21   -1    0    0  501  502  0.00000000000E+00 -0.00000000000E+00 -0.14908449696E+03  0.14908449696E+03  0.00000000000E+00 0. -1.
         25    1    1    2    0    0  0.44751066836E+03  0.10077909546E+03  0.63388551476E+03  0.79237495556E+03  0.12500000000E+03 0.  0.
         21    1    1    2  503  502 -0.42177865616E+03 -0.20110237188E+03  0.76111119382E+03  0.89310114104E+03  0.00000000000E+00 0.  1.
          2    1    1    2  501    0 -0.25732012200E+02  0.10032327642E+03  0.69364843623E+03  0.70133804212E+03  0.00000000000E+00 0.  1.
<mgrwt>
<rscale>  4 0.94594601E+03</rscale>
<asrwt>0</asrwt>
<pdfrwt beam="1">  1       21 0.22936078E-01 0.94594601E+03</pdfrwt>
<pdfrwt beam="2">  1        2 0.34426608E+00 0.94594601E+03</pdfrwt>
<totfact> 0.10439104E+03</totfact>
</mgrwt>
</event>
<event>
 5    0  0.7099509E-001  0.6586878E+03  0.7546771E-02  0.9790612E-01
         21   -1    0    0  501  502  0.00000000000E+00  0.00000000000E+00  0.47613637710E+03  0.47613637710E+03  0.00000000000E+00 0. -1.
          2   -1    0    0  503    0 -0.00000000000E+00 -0.00000000000E+00 -0.17762174857E+04  0.17762174857E+04  0.00000000000E+00 0. -1.
         25    1    1    2    0    0  0.28389812068E+03 -0.34905199281E+02  0.24738105707E+03  0.39829499527E+03  0.12500000000E+03 0.  0.
         21    1    1    2  503  502 -0.30510093873E+03  0.17166698055E+02  0.76545531569E+00  0.30558446338E+03  0.00000000000E+00 0. -1.
          2    1    1    2  501    0  0.21202818057E+02  0.17738501226E+02 -0.15482276210E+04  0.15484744042E+04  0.00000000000E+00 0. -1.
<mgrwt>
<rscale>  4 0.65868779E+03</rscale>
<asrwt>0</asrwt>
<pdfrwt beam="1">  1       21 0.73251750E-01 0.65868779E+03</pdfrwt>
<pdfrwt beam="2">  1        2 0.27326423E+00 0.65868779E+03</pdfrwt>
<totfact> 0.17147164E+02</totfact>
</mgrwt>
</event>
<event>
 5    0  0.7099509E-001  0.3776735E+03  0.7546771E-02  0.1051797E+00
          2   -1    0    0  503    0 -0.00000000000E+00  0.00000000000E+00  0.50650993647E+03  0.50650993647E+03  0.00000000000E+00 0.  1.
         21   -1    0    0  501  502  0.00000000000E+00 -0.00000000000E+00 -0.41179100813E+03  0.41179100813E+03  0.00000000000E+00 0. -1.
         25    1    1    2    0    0 -0.14870522622E+03  0.13410462441E+03 -0.13380132677E+03  0.27133943620E+03  0.12500000000E+03 0.  0.
         21    1    1    2  503  502  0.69943940165E+02 -0.10232033411E+03 -0.18617528435E+03  0.22365786828E+03  0.00000000000E+00 0. -1.
          2    1    1    2  501    0  0.78761286057E+02 -0.31784290296E+02  0.41469553946E+03  0.42330364012E+03  0.00000000000E+00 0.  1.
<mgrwt>
<rscale>  4 0.37767354E+03</rscale>
<asrwt>0</asrwt>
<pdfrwt beam="1">  1       21 0.63352463E-01 0.37767354E+03</pdfrwt>
<pdfrwt beam="2">  1        2 0.77924606E-01 0.37767354E+03</pdfrwt>
<totfact> 0.16633698E+03</totfact>
</mgrwt>
</event>
<event>
 5    0  0.7099509E-001  0.3775446E+03  0.7546771E-02  0.1051845E+00
          1   -1    0    0  503    0 -0.00000000000E+00  0.00000000000E+00  0.10325373188E+04  0.10325373188E+04  0.00000000000E+00 0.  1.
         21   -1    0    0  501  502  0.00000000000E+00 -0.00000000000E+00 -0.96862863621E+02  0.96862863621E+02  0.00000000000E+00 0. -1.
         25    1    1    2    0    0  0.22640429779E+03 -0.23951912178E+02  0.13491967982E+03  0.29267886866E+03  0.12500000000E+03 0.  0.
         21    1    1    2  503  502 -0.68197946897E+02 -0.28215110877E+02  0.19574583319E+03  0.20919723625E+03  0.00000000000E+00 0.  1.
          1    1    1    2  501    0 -0.15820635089E+03  0.52167023054E+02  0.60500894219E+03  0.62752407754E+03  0.00000000000E+00 0.  1.
<mgrwt>
<rscale>  4 0.37754462E+03</rscale>
<asrwt>0</asrwt>
<pdfrwt beam="1">  1       21 0.14901980E-01 0.37754462E+03</pdfrwt>
<pdfrwt beam="2">  1        1 0.15885189E+00 0.37754462E+03</pdfrwt>
<totfact> 0.64391607E+03</totfact>
</mgrwt>
</event>
<event>
 5    0  0.7099509E-001  0.4391957E+03  0.7546771E-02  0.1030994E+00
         21   -1    0    0  501  502  0.00000000000E+00  0.00000000000E+00  0.13026950698E+04  0.13026950698E+04  0.00000000000E+00 0.  1.
         -4   -1    0    0    0  501 -0.00000000000E+00 -0.00000000000E+00 -0.59487319316E+02  0.59487319316E+02  0.00000000000E+00 0. -1.
         25    1    1    2    0    0  0.19620283077E+03 -0.99844846187E+02  0.73582411868E+03  0.77815594693E+03  0.12500000000E+03 0.  0.
         21    1    1    2  503  502 -0.17789712180E+03  0.53475257902E+02  0.50030042321E+03  0.53367359183E+03  0.00000000000E+00 0. -1.
         -4    1    1    2    0  503 -0.18305708968E+02  0.46369588286E+02  0.70832086372E+01  0.50352850398E+02  0.00000000000E+00 0. -1.
<mgrwt>
<rscale>  4 0.43919569E+03</rscale>
<asrwt>0</asrwt>
<pdfrwt beam="1">  1       21 0.20041461E+00 0.43919569E+03</pdfrwt>
<pdfrwt beam="2">  1       -4 0.91518962E-02 0.43919569E+03</pdfrwt>
<totfact> 0.46845637E+02</totfact>
</mgrwt>
</event>
<event>
 5    0  0.7099509E-001  0.5697192E+03  0.7546771E-02  0.9970300E-01
         21   -1    0    0  501  502  0.00000000000E+00  0.00000000000E+00  0.11490782733E+03  0.11490782733E+03  0.00000000000E+00 0. -1.
          4   -1    0    0  503    0 -0.00000000000E+00 -0.00000000000E+00 -0.22451745699E+04  0.22451745699E+04  0.00000000000E+00 0. -1.
         25    1    1    2    0    0 -0.31584093085E+02  0.37536307520E+03 -0.55357529949E+03  0.68115020763E+03  0.12500000000E+03 0.  0.
         21    1    1    2  503  502  0.53592648593E+02 -0.14851770399E+03 -0.10481449315E+03  0.18951453337E+03  0.00000000000E+00 0.  1.
          4    1    1    2  501    0 -0.22008555508E+02 -0.22684537120E+03 -0.14718769500E+04  0.14894176563E+04  0.00000000000E+00 0. -1.
<mgrwt>
<rscale>  4 0.56971920E+03</rscale>
<asrwt>0</asrwt>
<pdfrwt beam="1">  1       21 0.17678127E-01 0.56971920E+03</pdfrwt>
<pdfrwt beam="2">  1        4 0.34541148E+00 0.56971920E+03</pdfrwt>
<totfact> 0.21240783E+01</totfact>
</mgrwt>
</event>
<event>
 5    0  0.7099509E-001  0.5042633E+03  0.7546771E-02  0.1012672E+00
         21   -1    0    0  501  502  0.00000000000E+00  0.00000000000E+00  0.32430230388E+03  0.32430230388E+03  0.00000000000E+00 0. -1.
          2   -1    0    0  503    0 -0.00000000000E+00 -0.00000000000E+00 -0.58470664150E+03  0.58470664150E+03  0.00000000000E+00 0. -1.
         25    1    1    2    0    0  0.21326454469E+03  0.66279465523E+02 -0.41399447842E+02  0.25925595047E+03  0.12500000000E+03 0.  0.
         21    1    1    2  503  502 -0.19049213547E+03 -0.56665390863E+02  0.16904854884E+03  0.26091307377E+03  0.00000000000E+00 0. -1.
          2    1    1    2  501    0 -0.22772409225E+02 -0.96140746599E+01 -0.38805343862E+03  0.38883992115E+03  0.00000000000E+00 0. -1.
<mgrwt>
<rscale>  4 0.50426334E+03</rscale>
<asrwt>0</asrwt>
<pdfrwt beam="1">  1       21 0.49892663E-01 0.50426334E+03</pdfrwt>
<pdfrwt beam="2">  1        2 0.89954867E-01 0.50426334E+03</pdfrwt>
<totfact> 0.23021585E+03</totfact>
</mgrwt>
</event>
<event>
 5    0  0.7099509E-001  0.8750148E+03  0.7546771E-02  0.9457365E-01
         21   -1    0    0  501  502  0.00000000000E+00  0.00000000000E+00  0.27492921145E+03  0.27492921145E+03  0.00000000000E+00 0.  1.
          1   -1    0    0  503    0 -0.00000000000E+00 -0.00000000000E+00 -0.26872568693E+04  0.26872568693E+04  0.00000000000E+00 0. -1.
         25    1    1    2    0    0  0.37849615133E+03  0.11316866936E+03 -0.51700847936E+03  0.66256264008E+03  0.12500000000E+03 0.  0.
         21    1    1    2  503  502 -0.26013728055E+03 -0.14654151482E+03  0.88954747710E+02  0.31154256120E+03  0.00000000000E+00 0.  1.
          1    1    1    2  501    0 -0.11835887079E+03  0.33372845467E+02 -0.19842739262E+04  0.19880808794E+04  0.00000000000E+00 0. -1.
<mgrwt>
<rscale>  4 0.87501483E+03</rscale>
<asrwt>0</asrwt>
<pdfrwt beam="1">  1       21 0.42296803E-01 0.87501483E+03</pdfrwt>
<pdfrwt beam="2">  1        1 0.41342412E+00 0.87501483E+03</pdfrwt>
<totfact> 0.55509886E+01</totfact>
</mgrwt>
</event>
<event>
 5    0  0.7099509E-001  0.4521330E+03  0.7546771E-02  0.1027088E+00
          1   -1    0    0  503    0 -0.00000000000E+00  0.00000000000E+00  0.28049463245E+03  0.28049463245E+03  0.00000000000E+00 0. -1.
         21   -1    0    0  501  502  0.00000000000E+00 -0.00000000000E+00 -0.37037298791E+03  0.37037298791E+03  0.00000000000E+00 0. -1.
         25    1    1    2    0    0 -0.38378696167E+02  0.24975160609E+03  0.46000935055E+02  0.28563941445E+03  0.12500000000E+03 0.  0.
         21    1    1    2  503  502 -0.12314484129E+02 -0.75891031337E+02 -0.16478242519E+03  0.18183603276E+03  0.00000000000E+00 0.  1.
          1    1    1    2  501    0  0.50693180296E+02 -0.17386057475E+03  0.28903134682E+02  0.18339217316E+03  0.00000000000E+00 0. -1.
<mgrwt>
<rscale>  4 0.45213300E+03</rscale>
<asrwt>0</asrwt>
<pdfrwt beam="1">  1       21 0.56980460E-01 0.45213300E+03</pdfrwt>
<pdfrwt beam="2">  1        1 0.43153020E-01 0.45213300E+03</pdfrwt>
<totfact> 0.28329947E+03</totfact>
</mgrwt>
</event>
<event>
 5    0  0.7099509E-001  0.8138749E+03  0.7546771E-02  0.9540148E-01
          1   -1    0    0  503    0 -0.00000000000E+00  0.00000000000E+00  0.23903220309E+04  0.23903220309E+04  0.00000000000E+00 0. -1.
         21   -1    0    0  501  502  0.00000000000E+00 -0.00000000000E+00 -0.12175473757E+03  0.12175473757E+03  0.00000000000E+00 0. -1.
         25    1    1    2    0    0 -0.70675435206E+00  0.27515772839E+03  0.10176676994E+03  0.31889457577E+03  0.12500000000E+03 0.  0.
         21    1    1    2  503  502 -0.87976933092E+01 -0.24403274823E+03  0.11397169032E+04  0.11655831164E+04  0.00000000000E+00 0. -1.
          1    1    1    2  501    0  0.95044476613E+01 -0.31124980160E+02  0.10270836202E+04  0.10275990764E+04  0.00000000000E+00 0. -1.
<mgrwt>
<rscale>  4 0.81387487E+03</rscale>
<asrwt>0</asrwt>
<pdfrwt beam="1">  1       21 0.18731500E-01 0.81387487E+03</pdfrwt>
<pdfrwt beam="2">  1        1 0.36774182E+00 0.81387487E+03</pdfrwt>
<totfact> 0.45816656E+02</totfact>
</mgrwt>
</event>
<event>
 5    0  0.7099509E-001  0.5842759E+03  0.7546771E-02  0.9938576E-01
         21   -1    0    0  501  502  0.00000000000E+00  0.00000000000E+00  0.82000864821E+02  0.82000864821E+02  0.00000000000E+00 0.  1.
          2   -1    0    0  503    0 -0.00000000000E+00 -0.00000000000E+00 -0.15651439469E+04  0.15651439469E+04  0.00000000000E+00 0. -1.
         25    1    1    2    0    0  0.12592148013E+03  0.21337434107E+03 -0.22529569849E+03  0.35744647200E+03  0.12500000000E+03 0.  0.
         21    1    1    2  503  502 -0.22306170280E+02 -0.15261003099E+03 -0.87371452971E+03  0.88722289545E+03  0.00000000000E+00 0. -1.
          2    1    1    2  501    0 -0.10361530985E+03 -0.60764310083E+02 -0.38413285392E+03  0.40247544431E+03  0.00000000000E+00 0. -1.
<mgrwt>
<rscale>  4 0.58427592E+03</rscale>
<asrwt>0</asrwt>
<pdfrwt beam="1">  1       21 0.12615519E-01 0.58427592E+03</pdfrwt>
<pdfrwt beam="2">  1        2 0.24079135E+00 0.58427592E+03</pdfrwt>
<totfact> 0.79575400E+03</totfact>
</mgrwt>
</event>
<event>
 5    0  0.7099509E-001  0.4131339E+03  0.7546771E-02  0.1039324E+00
         21   -1    0    0  501  502  0.00000000000E+00  0.00000000000E+00  0.13296999823E+03  0.13296999823E+03  0.00000000000E+00 0.  1.
          1   -1    0    0  503    0 -0.00000000000E+00 -0.00000000000E+00 -0.13089993608E+04  0.13089993608E+04  0.00000000000E+00 0. -1.
         25    1    1    2    0    0 -0.15150317933E+03 -0.14176788629E+03 -0.23089650428E+03  0.33464838655E+03  0.12500000000E+03 0.  0.
         21    1    1    2  503  502  0.99089761559E+02  0.62968746438E+02  0.35092959396E+02  0.12253717670E+03  0.00000000000E+00 0.  1.
          1    1    1    2  501    0  0.52413417772E+02  0.78799139849E+02 -0.98022581773E+03  0.98478379584E+03  0.00000000000E+00 0. -1.
<mgrwt>
<rscale>  4 0.41313389E+03</rscale>
<asrwt>0</asrwt>
<pdfrwt beam="1">  1       21 0.20456923E-01 0.41313389E+03</pdfrwt>
<pdfrwt beam="2">  1        1 0.20138452E+00 0.41313389E+03</pdfrwt>
<totfact> 0.22344328E+03</totfact>
</mgrwt>
</event>
