<event>
 5    0  0.1911311E+001  0.2525044E+03  0.7546771E-02  0.1111732E+00
         21   -1    0    0  502  501  0.00000000000E+00  0.00000000000E+00  0.15667968240E+03  0.15667968240E+03  0.00000000000E+00 0.  1.
         21   -1    0    0  504  502 -0.00000000000E+00 -0.00000000000E+00 -0.67420551168E+03  0.67420551168E+03  0.00000000000E+00 0.  1.
         25    1    1    2    0    0 -0.90138056443E+02 -0.19996640795E+03 -0.16287908647E+03  0.30044305673E+03  0.12500000000E+03 0.  0.
         21    1    1    2  503  501 -0.33816044145E+02  0.17763461643E+02  0.54011304748E+02  0.66153506723E+02  0.00000000000E+00 0. -1.
         21    1    1    2  504  503  0.12395410059E+03  0.18220294631E+03 -0.40865804756E+03  0.46428863063E+03  0.00000000000E+00 0.  1.
<mgrwt>
<rscale>  4 0.25250441E+03</rscale>
<asrwt>0</asrwt>
<pdfrwt beam="1">  1       21 0.24104566E-01 0.25250441E+03</pdfrwt>
<pdfrwt beam="2">  1       21 0.10372393E+00 0.25250441E+03</pdfrwt>
<totfact> 0.11771331E+04</totfact>
</mgrwt>
</event>
<event>
 5    0  0.1911311E+001  0.2502002E+03  0.7546771E-02  0.1113178E+00
         21   -1    0    0  502  501  0.00000000000E+00  0.00000000000E+00  0.77011569676E+02  0.77011569676E+02  0.00000000000E+00 0.  1.
         21   -1    0    0  504  502 -0.00000000000E+00 -0.00000000000E+00 -0.11227381894E+04  0.11227381894E+04  0.00000000000E+00 0.  1.
         25    1    1    2    0    0  0.16077490405E+03  0.17625769585E+03 -0.45046070831E+03  0.52483825589E+03  0.12500000000E+03 0.  0.
         21    1    1    2  503  501 -0.18193170747E+03 -0.10011423639E+03 -0.27246345703E+03  0.34257603817E+03  0.00000000000E+00 0.  1.
         21    1    1    2  504  503  0.21156803426E+02 -0.76143459458E+02 -0.32280245439E+03  0.33233546502E+03  0.00000000000E+00 0.  1.
<mgrwt>
<rscale>  4 0.25020019E+03</rscale>
<asrwt>0</asrwt>
<pdfrwt beam="1">  1       21 0.11847935E-01 0.25020019E+03</pdfrwt>
<pdfrwt beam="2">  1       21 0.17272893E+00 0.25020019E+03</pdfrwt>
<totfact> 0.11778130E+04</totfact>
</mgrwt>
</event>
<event>
 5    0  0.1911311E+001  0.3499538E+03  0.7546771E-02  0.1062634E+00
         21   -1    0    0  504  501  0.00000000000E+00  0.00000000000E+00  0.40475930551E+03  0.40475930551E+03  0.00000000000E+00 0.  1.
         21   -1    0    0  503  502 -0.00000000000E+00 -0.00000000000E+00 -0.42950701906E+03  0.42950701906E+03  0.00000000000E+00 0. -1.
         25    1    1    2    0    0  0.24739760866E+03 -0.15741565208E+03  0.16448613938E+03  0.35870036846E+03  0.12500000000E+03 0.  0.
         21    1    1    2  503  501 -0.29775749137E+03  0.16112150008E+03 -0.23115052488E+03  0.40993929625E+03  0.00000000000E+00 0. -1.
         21    1    1    2  504  502  0.50359882718E+02 -0.37058479973E+01  0.41916671950E+02  0.65626659858E+02  0.00000000000E+00 0.  1.
<mgrwt>
<rscale>  4 0.34995376E+03</rscale>
<asrwt>0</asrwt>
<pdfrwt beam="1">  1       21 0.62270662E-01 0.34995376E+03</pdfrwt>
<pdfrwt beam="2">  1       21 0.66078003E-01 0.34995376E+03</pdfrwt>
<totfact> 0.45866410E+03</totfact>
</mgrwt>
</event>
