<LesHouchesEvents version="3.0">
  <!--
  <scalesfunctionalform>
    muR  H_T/2 := sum_i mT(i)/2, i=final state
    muF1 H_T/2 := sum_i mT(i)/2, i=final state
    muF2 H_T/2 := sum_i mT(i)/2, i=final state
    QES  H_T/2 := sum_i mT(i)/2, i=final state
  </scalesfunctionalform>
HERWIG6   
  -->
  <header>
       33
  </header>
  <init>
   2212   2212 0.65000000D+04 0.65000000D+04 -1 -1   247000   247000 -3   1
 0.62106071D-02 0.10802332D-03 0.42720403D-03     66
  </init>
  <event>
  6     66 0.42720403E-03 0.25657857E+02 0.75467711E-02 0.11954164E+00
       21 -1    0    0  501  502 0.00000000E+00 0.00000000E+00 0.96424918E+03 0.96424947E+03 0.75000000E+00 0.0000E+00 0.9000E+01
       21 -1    0    0  503  501 0.00000000E+00 0.00000000E+00 -.66577267E+02 0.66581491E+02 0.75000000E+00 0.0000E+00 0.9000E+01
       25  1    1    2    0    0 0.95467778E+01 -.16509192E+02 0.60568282E+03 0.61874095E+03 0.12500000E+03 0.0000E+00 0.9000E+01
      -24  1    1    2    0    0 0.46097286E+02 0.74111409E+01 0.17300171E+03 0.19640950E+03 0.80419002E+02 0.0000E+00 0.9000E+01
        2  1    1    2  503    0 -.36905931E+02 -.28702374E+02 -.33465534E+02 0.57497116E+02 0.32000000E+00 0.0000E+00 0.9000E+01
       -1  1    1    2    0  502 -.18738133E+02 0.37800426E+02 0.15245292E+03 0.15818339E+03 0.32000000E+00 0.0000E+00 0.9000E+01
#aMCatNLO 2  0  0  2  1 0.88239754D+02 0.00000000D+00  -5  6  0 0.00000000D+00 0.00000000D+00 0.00000000D+00 0.00000000D+00 0.00000000D+00
  <mgrwgt>
 0.1933225059D-01    1    2    0
 0.139799819528126D+03 0.000000000000000D+00 0.000000000000000D+00 0.139799819528126D+03
 0.139799819528126D+03 0.000000000000000D+00 0.000000000000000D+00 -.139799819528126D+03
 0.137300252072933D+03 -.829962149229863D+01 -.303894053800802D+02 0.472647812120264D+02
 0.100750119193347D+03 0.325385695401149D+02 -.313426449011514D+01 -.511350021168683D+02
 0.000000000000000D+00 -.000000000000000D+00 -.000000000000000D+00 -.000000000000000D+00
 0.415492677899726D+02 -.242389480478163D+02 0.335236698701954D+02 0.387022090484196D+01
 0.143529287931380D+03 0.000000000000000D+00 0.000000000000000D+00 0.143529287931380D+03
 0.447290792490443D+03 0.000000000000000D+00 0.000000000000000D+00 -.447290792490443D+03
 0.134991395087195D+03 0.954713944031306D+01 -.165096739239048D+02 0.472647812120264D+02
 0.106122143285952D+03 0.460975598747885D+02 0.741079437926524D+01 -.511350021168683D+02
 0.307338454595148D+03 -.369059309193151D+02 -.287023741862436D+02 -.303761504559063D+03
 0.423680874535282D+02 -.187387683957865D+02 0.378012537308832D+02 0.387022090484196D+01
0.348685006009D-05 0.000000000000D+00 0.000000000000D+00 0.407909539604D-06 0.360204577305D-09  6 21 21 25 -24 2 -1 4 0.14834629D+00 0.10242998D-01 0.23774661D+05 0.23774661D+05 0.23774661D+05 0.12256446D+01  1  2  1 10  5  2       -2 0.193322505857D-01 0.100000000000D+01
  </mgrwgt>
  </event>
  <event>
  5     66 0.42720403E-03 0.31888322E+02 0.75467711E-02 0.10010465E+00
       21 -1    0    0  501  502 0.00000000E+00 0.00000000E+00 0.32176130E+03 0.32176218E+03 0.75000000E+00 0.0000E+00 0.9000E+01
       -2 -1    0    0    0  501 0.00000000E+00 0.00000000E+00 -.38205971E+03 0.38205984E+03 0.32000000E+00 0.0000E+00 0.9000E+01
       25  1    1    2    0    0 -.48685535E+02 -.88396490E+02 -.20711402E+03 0.26211722E+03 0.12500000E+03 0.0000E+00 0.9000E+01
      -24  1    1    2    0    0 0.20038909E+02 0.10240489E+03 -.11686367E+03 0.17610409E+03 0.80419002E+02 0.0000E+00 0.9000E+01
       -1  1    1    2    0  502 0.28646626E+02 -.14008397E+02 0.26367929E+03 0.26560070E+03 0.32000000E+00 0.0000E+00 0.9000E+01
#aMCatNLO 1  0  0  2  1 0.21980709D+02 0.00000000D+00  -5  6  0 0.00000000D+00 0.00000000D+00 0.00000000D+00 0.00000000D+00 0.00000000D+00
  <mgrwgt>
 0.9024135837D-01    3    2    0
 0.350617146238997D+03 0.000000000000000D+00 0.000000000000000D+00 0.350617146238997D+03
 0.350617146238997D+03 0.000000000000000D+00 0.000000000000000D+00 -.350617146238997D+03
 0.245275026250071D+03 -.486855410563683D+02 -.883964874818193D+02 -.185339196056577D+03
 0.166705002158353D+03 0.200389051221686D+02 0.102404889303161D+03 -.102151958956048D+03
 0.289254264069569D+03 0.286466359341996D+02 -.140084018213414D+02 0.287491155012625D+03
 0.000000000000000D+00 0.000000000000000D+00 0.000000000000000D+00 0.000000000000000D+00
 0.303462948445081D+04 0.000000000000000D+00 0.000000000000000D+00 0.303462948445081D+04
 0.451830658913058D+03 0.000000000000000D+00 0.000000000000000D+00 -.451830658913058D+03
 0.370050394570970D+03 -.164742742943439D+03 -.244584352677567D+03 -.185339196056577D+03
 0.137589658328651D+03 -.373544442346245D+02 0.251658677972498D+02 -.102151958956048D+03
 0.349430420484104D+03 -.918163822822757D+02 -.176125541855233D+03 0.287491155012625D+03
 0.262938966998014D+04 0.293913569460339D+03 0.395544026735550D+03 0.258279882553775D+04
0.425765034129D-03 0.000000000000D+00 0.000000000000D+00 0.117974240500D-04 0.000000000000D+00  6 21 -2 25 -24 -1 21 2 0.49501816D-01 0.58778494D-01 0.26289577D+05 0.26289577D+05 0.26289577D+05 0.12209626D+01  1  2  2  2  6  2       -2 0.560971545102D-01 0.100000000000D+01
0.128469873262D-03 0.224682381310D-04 -.859496935562D-06 0.117974240500D-04 0.000000000000D+00  6 21 -2 25 -24 -1 21 4 0.49501816D-01 0.58778494D-01 0.26289577D+05 0.26289577D+05 0.26289577D+05 0.12209626D+01  1  2  3  2  6  2       -2 0.252334650348D-01 0.100000000000D+01
0.453667970715D-04 0.000000000000D+00 0.000000000000D+00 0.117974240500D-04 0.000000000000D+00  6 21 -2 25 -24 -1 21 4 0.49501816D-01 0.58778494D-01 0.26289577D+05 0.26289577D+05 0.26289577D+05 0.12209626D+01  1  2 15  2  6  2       -2 0.891073882599D-02 0.100000000000D+01
  </mgrwgt>
  </event>
  <event>
  6     66 0.42720403E-03 0.66349004E+02 0.75467711E-02 0.11645264E+00
       21 -1    0    0  501  502 0.00000000E+00 0.00000000E+00 0.16686955E+03 0.16687124E+03 0.75000000E+00 0.0000E+00 0.9000E+01
       -2 -1    0    0    0  501 -.00000000E+00 -.00000000E+00 -.23807279E+03 0.23807301E+03 0.32000000E+00 0.0000E+00 0.9000E+01
       25  1    1    2    0    0 -.99524655E+02 -.80665399E+02 -.53940336E+02 0.18694016E+03 0.12500000E+03 0.0000E+00 0.9000E+01
      -24  1    1    2    0    0 0.62143446E+02 0.76474271E+01 -.58396353E+02 0.11746336E+03 0.80419002E+02 0.0000E+00 0.9000E+01
       -1  1    1    2    0  503 0.28258622E+01 0.32747129E+02 -.83629855E+00 0.32881024E+02 0.32000000E+00 0.0000E+00 0.9000E+01
       21  1    1    2  503  502 0.34555347E+02 0.40270842E+02 0.41969747E+02 0.67659700E+02 0.75000000E+00 0.0000E+00 0.9000E+01
#aMCatNLO 2  0  0  5  1 0.18395810D+02 0.00000000D+00  -5  6  0 0.00000000D+00 0.00000000D+00 0.00000000D+00 0.00000000D+00 0.00000000D+00
  <mgrwgt>
 0.5668372162D-02    2    2    0
 0.199317547475500D+03 0.000000000000000D+00 0.000000000000000D+00 0.199317547475500D+03
 0.199317547475500D+03 -.000000000000000D+00 -.000000000000000D+00 -.199317547475500D+03
 0.182476404260203D+03 -.100878871249748D+03 -.833106341588291D+02 -.235675557316296D+02
 0.108796158156547D+03 0.613307529355673D+02 0.605996737836039D+01 -.396384108534055D+02
 0.107362532534250D+03 0.395481183141804D+02 0.772506667804686D+02 0.632059665850351D+02
 0.000000000000000D+00 0.000000000000000D+00 0.000000000000000D+00 0.000000000000000D+00
 0.199317547475500D+03 0.000000000000000D+00 0.000000000000000D+00 0.199317547475500D+03
 0.199317547475500D+03 -.000000000000000D+00 -.000000000000000D+00 -.199317547475500D+03
 0.180291116896554D+03 -.995413434499468D+02 -.806979962186068D+02 -.214299132590052D+02
 0.108890362409360D+03 0.621333655067544D+02 0.762773745020128D+01 -.383556721159472D+02
 0.327068910708061D+02 0.271586922784580D+01 0.322322470047847D+02 0.484221342748960D+01
 0.767467245742793D+02 0.346921087153466D+02 0.408380117636207D+02 0.549433719474628D+02
-.165247143344D-05 0.000000000000D+00 0.000000000000D+00 0.259863427107D-06 0.000000000000D+00  6 21 -2 25 -24 -1 21 4 0.25672385D-01 0.36626730D-01 0.33645706D+05 0.33645706D+05 0.33645706D+05 0.12097053D+01  1  2 13  3  6  5       -1 -.289718167142D-02 0.100000000000D+01
0.488555245309D-05 0.000000000000D+00 0.000000000000D+00 0.259632903339D-06 0.308859615961D-08  6 21 -2 25 -24 -1 21 4 0.25672385D-01 0.36626730D-01 0.33645706D+05 0.33645706D+05 0.33645706D+05 0.12097053D+01  1  2  1  3  6  5       -1 0.856555383375D-02 0.100000000000D+01
  </mgrwgt>
  </event>
  <event>
  6     66 -.42720403E-03 0.35273425E+02 0.75467711E-02 0.12121864E+00
       21 -1    0    0  501  503 0.00000000E+00 0.00000000E+00 0.91634178E+02 0.91637247E+02 0.75000000E+00 0.0000E+00 0.9000E+01
       -2 -1    0    0    0  501 0.00000000E+00 0.00000000E+00 -.24676269E+03 0.24676290E+03 0.32000000E+00 0.0000E+00 0.9000E+01
       25  1    1    2    0    0 0.65690649E+02 0.39592987E+02 -.78134515E+02 0.16617120E+03 0.12500000E+03 0.0000E+00 0.9000E+01
      -24  1    1    2    0    0 -.40388145E+02 -.34498943E+01 -.16062177E+02 0.91478487E+02 0.80419002E+02 0.0000E+00 0.9000E+01
       -1  1    1    2    0  502 -.24500629E+02 -.29713886E+02 -.63059030E+02 0.73890050E+02 0.32000000E+00 0.0000E+00 0.9000E+01
       21  1    1    2  502  503 -.80187477E+00 -.64292059E+01 0.21272072E+01 0.68604083E+01 0.75000000E+00 0.0000E+00 0.9000E+01
#aMCatNLO 2  0  0  1  2 0.64790193D+01 0.00000000D+00  -5  6  0 0.00000000D+00 0.00000000D+00 0.00000000D+00 0.00000000D+00 0.00000000D+00
  <mgrwgt>
 -.1842062509D-01    4    2    0
 0.145900016055124D+03 0.000000000000000D+00 0.000000000000000D+00 0.145900016055124D+03
 0.145900016055124D+03 0.000000000000000D+00 0.000000000000000D+00 -.145900016055124D+03
 0.145641125688049D+03 0.652893212638975D+02 0.363735945365087D+02 0.776943418319039D+00
 0.954675940463900D+02 -.406500110108857D+02 -.555054566375911D+01 0.310421263170741D+02
 0.506913123758095D+02 -.246393102530118D+02 -.308230488727496D+02 -.318190697353931D+02
 0.000000000000000D+00 -.000000000000000D+00 -.000000000000000D+00 0.000000000000000D+00
 0.153445410301817D+03 0.000000000000000D+00 0.000000000000000D+00 0.153445410301817D+03
 0.147333474536048D+03 0.000000000000000D+00 0.000000000000000D+00 -.147333474536048D+03
 0.146657855180372D+03 0.656908947220020D+02 0.395932973576905D+02 0.776943418319039D+00
 0.952571218650609D+02 -.403879848365658D+02 -.344969363866898D+01 0.310421263170741D+02
 0.499569750693110D+02 -.245010351186903D+02 -.297143978125530D+02 -.318190697353931D+02
 0.890693272312090D+01 -.801874766745903D+00 -.642920590646859D+01 0.611193576576909D+01
-.522167792023D-05 0.000000000000D+00 0.000000000000D+00 0.269778672267D-06 0.000000000000D+00  6 21 -2 25 -24 -1 21 4 0.14160037D-01 0.37590386D-01 0.19839425D+05 0.19839425D+05 0.19839425D+05 0.12342117D+01  1  2 13  1  6  1       21 -.284358801949D-01 0.100000000000D+01
-.423790349583D-05 0.000000000000D+00 0.000000000000D+00 0.269778672267D-06 0.000000000000D+00  6 21 -2 25 -24 -1 21 4 0.14327686D-01 0.37590386D-01 0.19839425D+05 0.19839425D+05 0.19839425D+05 0.12342117D+01  1  2 13  1  6  1       21 -.225948489508D-01 0.100000000000D+01
-.340732442785D-05 0.000000000000D+00 0.000000000000D+00 0.270732369341D-06 0.000000000000D+00  6 21 -2 25 -24 -1 21 4 0.13403159D-01 0.37590386D-01 0.18958495D+05 0.18958495D+05 0.18958495D+05 0.12363913D+01  1  2  8  1  6  1       21 -.206126427382D-01 0.100000000000D+01
0.987354913016D-05 0.000000000000D+00 0.000000000000D+00 0.270732369341D-06 0.140737345789D-06  6 21 -2 25 -24 -1 21 4 0.14096320D-01 0.37959709D-01 0.19839425D+05 0.19839425D+05 0.19839425D+05 0.12342117D+01  1  2  1  1  6  1       21 0.532227467932D-01 0.100000000000D+01
  </mgrwgt>
  </event>
  <event>
  6     66 -.42720403E-03 0.14473087E+02 0.75467711E-02 0.12005270E+00
       21 -1    0    0  501  502 0.00000000E+00 0.00000000E+00 0.80744514E+02 0.80747997E+02 0.75000000E+00 0.0000E+00 0.9000E+01
       21 -1    0    0  503  501 0.00000000E+00 0.00000000E+00 -.56508264E+03 0.56508314E+03 0.75000000E+00 0.0000E+00 0.9000E+01
       25  1    1    2    0    0 0.20852835E+02 0.67625236E+02 -.13601742E+03 0.19782253E+03 0.12500000E+03 0.0000E+00 0.9000E+01
      -24  1    1    2    0    0 -.24852339E+02 -.89754473E+02 -.33237556E+03 0.35442098E+03 0.80419002E+02 0.0000E+00 0.9000E+01
        4  1    1    2  503    0 -.10279548E+02 0.71113066E+01 -.51180308E+02 0.52707364E+02 0.15500000E+01 0.0000E+00 0.9000E+01
       -3  1    1    2    0  502 0.14279052E+02 0.15017930E+02 0.35235160E+02 0.40880264E+02 0.50000000E+00 0.0000E+00 0.9000E+01
#aMCatNLO 2  0  0  2  1 0.12499591D+02 0.00000000D+00  -5  6  0 0.00000000D+00 0.00000000D+00 0.00000000D+00 0.00000000D+00 0.00000000D+00
  <mgrwgt>
 -.9505426573D-02    2    2    0
 0.202493131375809D+03 0.000000000000000D+00 0.000000000000000D+00 0.202493131375809D+03
 0.202493131375809D+03 0.000000000000000D+00 0.000000000000000D+00 -.202493131375809D+03
 0.144900584811758D+03 0.171849416083680D+02 0.701625374255365D+02 0.123723725581133D+02
 0.162627232674932D+03 -.289902935401274D+02 -.868920013814968D+02 -.107655672537545D+03
 0.000000000000000D+00 -.000000000000000D+00 0.000000000000000D+00 -.000000000000000D+00
 0.974584452649270D+02 0.118053519317594D+02 0.167294639559603D+02 0.952832999794314D+02
 0.204496912167450D+03 0.000000000000000D+00 0.000000000000000D+00 0.204496912167450D+03
 0.223068136348561D+03 0.000000000000000D+00 0.000000000000000D+00 -.223068136348561D+03
 0.144173770242796D+03 0.208527775393275D+02 0.676251587221889D+02 0.123723725581133D+02
 0.163494598125885D+03 -.248523914814830D+02 -.897545679623841D+02 -.107655672537545D+03
 0.223859365130556D+02 -.102795478726685D+02 0.711130659689238D+01 -.185712241811105D+02
 0.975107436342735D+02 0.142791618148241D+02 0.150181026433028D+02 0.952832999794314D+02
-.892771477142D-06 0.000000000000D+00 0.000000000000D+00 0.334196292701D-05 0.000000000000D+00  6 21 21 25 -24 4 -3 4 0.12299217D-01 0.87290899D-01 0.22486818D+05 0.22486818D+05 0.22486818D+05 0.12282617D+01  1  2 13 10  5  2       -4 -.131238300132D-01 0.100000000000D+01
0.248114513627D-06 0.000000000000D+00 0.000000000000D+00 0.336517431824D-05 0.267576387228D-08  6 21 21 25 -24 4 -3 4 0.12420924D-01 0.86924795D-01 0.22486818D+05 0.22486818D+05 0.22486818D+05 0.12282617D+01  1  2  1 10  5  2       -4 0.361840344057D-02 0.100000000000D+01
  </mgrwgt>
  </event>
  <event>
  5     66 0.42720403E-03 0.21028103E+02 0.75467711E-02 0.94345582E-01
       21 -1    0    0  501  502 0.00000000E+00 0.00000000E+00 0.26836935E+03 0.26837040E+03 0.75000000E+00 0.0000E+00 0.9000E+01
       -2 -1    0    0    0  501 0.00000000E+00 0.00000000E+00 -.17677498E+03 0.17677527E+03 0.32000000E+00 0.0000E+00 0.9000E+01
       25  1    1    2    0    0 0.23969628E+02 0.12277848E+03 0.93798801E+02 0.20018070E+03 0.12500000E+03 0.0000E+00 0.9000E+01
      -24  1    1    2    0    0 -.36447341E+02 -.10585277E+03 -.83387512E+02 0.16110218E+03 0.80419002E+02 0.0000E+00 0.9000E+01
       -1  1    1    2    0  502 0.12477713E+02 -.16925711E+02 0.81183078E+02 0.83862790E+02 0.32000000E+00 0.0000E+00 0.9000E+01
#aMCatNLO 1  0  0  1  1 0.98860422D+02 0.00000000D+00  -5  6  0 0.00000000D+00 0.00000000D+00 0.00000000D+00 0.00000000D+00 0.00000000D+00
  <mgrwgt>
 0.1303986494D-01   12    4    0
 0.217810204815768D+03 0.000000000000000D+00 0.000000000000000D+00 0.217810204815768D+03
 0.217810204815768D+03 0.000000000000000D+00 0.000000000000000D+00 -.217810204815768D+03
 0.184835494153370D+03 0.239695703761591D+02 0.122778563055536D+03 0.537591299122350D+02
 0.182158208326273D+03 -.364473974885926D+02 -.105852696571262D+03 -.119084804871017D+03
 0.686267071518933D+02 0.124778271124335D+02 -.169258664842744D+02 0.653256749587821D+02
 0.000000000000000D+00 0.000000000000000D+00 0.000000000000000D+00 0.000000000000000D+00
 0.116853191895353D+04 0.000000000000000D+00 0.000000000000000D+00 0.116853191895353D+04
 0.748098614387225D+03 0.000000000000000D+00 0.000000000000000D+00 -.748098614387225D+03
 0.212321109992685D+03 -.158244976199747D+03 -.390350766253509D+02 0.537591299122350D+02
 0.594123348804859D+03 -.392603610104080D+03 -.422133334650091D+03 -.119084804871017D+03
 0.155262431212032D+03 -.902420002915951D+02 -.108145088286165D+03 0.653256749587821D+02
 0.954923643331175D+03 0.641090586595421D+03 0.569313499561606D+03 0.420433304566301D+03
 0.217810204815768D+03 0.000000000000000D+00 0.000000000000000D+00 0.217810204815768D+03
 0.217810204815768D+03 0.000000000000000D+00 0.000000000000000D+00 -.217810204815768D+03
 0.184835494153370D+03 0.239695703761591D+02 0.122778563055536D+03 0.537591299122350D+02
 0.182158208326273D+03 -.364473974885926D+02 -.105852696571262D+03 -.119084804871017D+03
 0.000000000000000D+00 0.000000000000000D+00 0.000000000000000D+00 0.000000000000000D+00
 0.686267071518933D+02 0.124778271124335D+02 -.169258664842744D+02 0.653256749587821D+02
 0.116853191895353D+04 0.000000000000000D+00 0.000000000000000D+00 0.116853191895353D+04
 0.748098614387225D+03 0.000000000000000D+00 0.000000000000000D+00 -.748098614387225D+03
 0.212321109992685D+03 -.158244976199747D+03 -.390350766253509D+02 0.537591299122350D+02
 0.594123348804859D+03 -.392603610104080D+03 -.422133334650091D+03 -.119084804871017D+03
 0.954923643331175D+03 0.641090586595421D+03 0.569313499561606D+03 0.420433304566301D+03
 0.155262431212032D+03 -.902420002915951D+02 -.108145088286165D+03 0.653256749587821D+02
0.967285059843D-05 0.000000000000D+00 0.000000000000D+00 0.151370283099D-05 0.000000000000D+00  6 21 -2 25 -24 -1 21 2 0.41287695D-01 0.27196254D-01 0.28176143D+05 0.28176143D+05 0.28176143D+05 0.12177677D+01  1  2  2  1  6  1       21 0.796463444909D-02 0.100000000000D+01
0.170478103481D-05 0.510450349911D-06 -.195266984864D-07 0.151370283099D-05 0.000000000000D+00  6 21 -2 25 -24 -1 21 4 0.41287695D-01 0.27196254D-01 0.28176143D+05 0.28176143D+05 0.28176143D+05 0.12177677D+01  1  2  3  1  6  1       21 0.208165571947D-02 0.100000000000D+01
0.980229470613D-06 0.000000000000D+00 0.000000000000D+00 0.151370283099D-05 0.000000000000D+00  6 21 -2 25 -24 -1 21 4 0.41287695D-01 0.27196254D-01 0.28176143D+05 0.28176143D+05 0.28176143D+05 0.12177677D+01  1  2 15  1  6  1       21 0.119692807594D-02 0.100000000000D+01
0.384684827811D-03 0.000000000000D+00 -.341009396505D-03 0.151370283099D-05 0.000000000000D+00  6 21 -2 25 -24 -1 21 4 0.45485687D+00 0.27196254D-01 0.28176143D+05 0.28176143D+05 0.28176143D+05 0.12177677D+01  1  2  5  1  6  1       21 0.334896423775D-03 0.100000000000D+01
0.167371751113D-03 0.000000000000D+00 -.149524219941D-03 0.151370283099D-05 0.000000000000D+00  6 -1 -2 25 -24 -1 -1 4 0.45485687D+00 0.27196254D-01 0.28176143D+05 0.28176143D+05 0.28176143D+05 0.12177677D+01  1  2  5  4  6  1       21 0.133947005872D-04 0.100000000000D+01
0.167371751113D-03 0.000000000000D+00 -.149524219941D-03 0.151370283099D-05 0.000000000000D+00  6 1 -2 25 -24 1 -1 4 0.45485687D+00 0.27196254D-01 0.28176143D+05 0.28176143D+05 0.28176143D+05 0.12177677D+01  3  4  5  5  5  1       21 0.330917146307D-03 0.100000000000D+01
0.167371751113D-03 0.000000000000D+00 -.149524219941D-03 0.151370283099D-05 0.000000000000D+00  6 -2 -2 25 -24 -1 -2 4 0.45485687D+00 0.27196254D-01 0.28176143D+05 0.28176143D+05 0.28176143D+05 0.12177677D+01  1  2  5  6  6  1       21 0.124700920411D-04 0.100000000000D+01
0.167371751113D-03 0.000000000000D+00 -.149524219941D-03 0.151370283099D-05 0.000000000000D+00  6 2 -2 25 -24 2 -1 4 0.45485687D+00 0.27196254D-01 0.28176143D+05 0.28176143D+05 0.28176143D+05 0.12177677D+01  3  4  5  7  5  1       21 0.106797521138D-02 0.100000000000D+01
0.167371751113D-03 0.000000000000D+00 -.149524219941D-03 0.151370283099D-05 0.000000000000D+00  6 -3 -2 25 -24 -1 -3 4 0.45485687D+00 0.27196254D-01 0.28176143D+05 0.28176143D+05 0.28176143D+05 0.12177677D+01  1  2  5  8  6  1       21 0.123069821869D-04 0.100000000000D+01
0.167371751113D-03 0.000000000000D+00 -.149524219941D-03 0.151370283099D-05 0.000000000000D+00  6 -4 -2 25 -24 -1 -4 4 0.45485687D+00 0.27196254D-01 0.28176143D+05 0.28176143D+05 0.28176143D+05 0.12177677D+01  1  2  5  8  6  1       21 0.571347894575D-05 0.100000000000D+01
0.167371751113D-03 0.000000000000D+00 -.149524219941D-03 0.151370283099D-05 0.000000000000D+00  6 3 -2 25 -24 3 -1 4 0.45485687D+00 0.27196254D-01 0.28176143D+05 0.28176143D+05 0.28176143D+05 0.12177677D+01  3  4  5  9  5  1       21 0.132591827129D-04 0.100000000000D+01
0.167371751113D-03 0.000000000000D+00 -.149524219941D-03 0.151370283099D-05 0.000000000000D+00  6 4 -2 25 -24 4 -1 4 0.45485687D+00 0.27196254D-01 0.28176143D+05 0.28176143D+05 0.28176143D+05 0.12177677D+01  3  4  5  9  5  1       21 0.571347894575D-05 0.100000000000D+01
  </mgrwgt>
  </event>
  <event>
  5     66 0.42720403E-03 0.22620844E+02 0.75467711E-02 0.97333360E-01
       21 -1    0    0  501  502 0.00000000E+00 0.00000000E+00 0.25796116E+03 0.25796225E+03 0.75000000E+00 0.0000E+00 0.9000E+01
       -4 -1    0    0    0  501 0.00000000E+00 0.00000000E+00 -.21610063E+03 0.21610619E+03 0.15500000E+01 0.0000E+00 0.9000E+01
       25  1    1    2    0    0 -.23621168E+01 -.54689758E+02 -.72057906E+02 0.15431750E+03 0.12500000E+03 0.0000E+00 0.9000E+01
      -24  1    1    2    0    0 0.24261084E+02 0.60358549E+02 -.76084885E+02 0.12840514E+03 0.80419002E+02 0.0000E+00 0.9000E+01
       -3  1    1    2    0  502 -.21898967E+02 -.56687911E+01 0.19000333E+03 0.19134580E+03 0.50000000E+00 0.0000E+00 0.9000E+01
#aMCatNLO 1  0  0  2  1 0.36814529D+01 0.00000000D+00  -5  6  0 0.00000000D+00 0.00000000D+00 0.00000000D+00 0.00000000D+00 0.00000000D+00
  <mgrwgt>
 0.2771171624D-01    3    2    0
 0.236108333861290D+03 0.000000000000000D+00 0.000000000000000D+00 0.236108333861290D+03
 0.236108333861290D+03 0.000000000000000D+00 0.000000000000000D+00 -.236108333861290D+03
 0.161310482975228D+03 -.236208634711537D+01 -.546897497865537D+02 -.860204843864193D+02
 0.135653502200116D+03 0.242611095974285D+02 0.603585554389260D+02 -.877661668937065D+02
 0.175252682547236D+03 -.218990232503131D+02 -.566880565237229D+01 0.173786651280126D+03
 0.000000000000000D+00 0.000000000000000D+00 -.000000000000000D+00 0.000000000000000D+00
 0.928392509980804D+03 0.000000000000000D+00 0.000000000000000D+00 0.928392509980804D+03
 0.609301875490351D+03 0.000000000000000D+00 0.000000000000000D+00 -.609301875490351D+03
 0.266075957206762D+03 -.217944766505098D+03 -.164915136497197D+02 -.860204843864193D+02
 0.213628814280476D+03 -.151924213190563D+03 0.915761307968731D+02 -.877661668937065D+02
 0.328542236127149D+03 -.276023741787355D+03 0.393585406992496D+02 0.173786651280126D+03
 0.729447377856768D+03 0.645892721483016D+03 -.114443157846403D+03 0.319090634490453D+03
0.504682388264D-04 0.000000000000D+00 0.000000000000D+00 0.147030897017D-04 0.000000000000D+00  6 21 -4 25 -24 -3 21 2 0.39686844D-01 0.33246762D-01 0.17228856D+05 0.17228856D+05 0.17228856D+05 0.12410214D+01  1  2  2  2  6  2       -4 0.172342837882D-01 0.100000000000D+01
0.149654872859D-04 0.266328213241D-05 -.101880833646D-06 0.147030897017D-04 0.000000000000D+00  6 21 -4 25 -24 -3 21 4 0.39686844D-01 0.33246762D-01 0.17228856D+05 0.17228856D+05 0.17228856D+05 0.12410214D+01  1  2  3  2  6  2       -4 0.787090213169D-02 0.100000000000D+01
0.495597528430D-05 0.000000000000D+00 0.000000000000D+00 0.147030897017D-04 0.000000000000D+00  6 21 -4 25 -24 -3 21 4 0.39686844D-01 0.33246762D-01 0.17228856D+05 0.17228856D+05 0.17228856D+05 0.12410214D+01  1  2 15  2  6  2       -4 0.260653032438D-02 0.100000000000D+01
  </mgrwgt>
  </event>
  <event>
  5     66 -.42720403E-03 0.25483039E+02 0.75467711E-02 0.12155549E+00
       21 -1    0    0  501  502 0.00000000E+00 0.00000000E+00 0.74686611E+02 0.74690377E+02 0.75000000E+00 0.0000E+00 0.9000E+01
       -4 -1    0    0    0  501 0.00000000E+00 0.00000000E+00 -.30939845E+03 0.30940233E+03 0.15500000E+01 0.0000E+00 0.9000E+01
       25  1    1    2    0    0 -.13475892E+02 -.23804410E+01 -.14022960E+02 0.12652632E+03 0.12500000E+03 0.0000E+00 0.9000E+01
      -24  1    1    2    0    0 0.23824562E+01 -.20557518E+02 -.21631913E+03 0.23170988E+03 0.80419002E+02 0.0000E+00 0.9000E+01
       -3  1    1    2    0  502 0.11093436E+02 0.22937959E+02 -.43697497E+01 0.25856508E+02 0.50000000E+00 0.0000E+00 0.9000E+01
#aMCatNLO 1  0  0  1  5 0.26578575D+00 0.00000000D+00  -5  6  0 0.00000000D+00 0.00000000D+00 0.00000000D+00 0.00000000D+00 0.00000000D+00
  <mgrwgt>
 -.1522162757D-01   12    4    0
 0.152017731039494D+03 0.000000000000000D+00 0.000000000000000D+00 0.152017731039494D+03
 0.152017731039494D+03 0.000000000000000D+00 0.000000000000000D+00 -.152017731039494D+03
 0.149016642534292D+03 -.134766847677693D+02 -.238207933399565D+01 0.799603928073746D+02
 0.125727699501025D+03 0.238178770981637D+01 -.205589002072569D+02 -.944028451744065D+02
 0.292911200436707D+02 0.110948970579529D+02 0.229409795412525D+02 0.144424523670320D+02
 0.000000000000000D+00 0.000000000000000D+00 -.000000000000000D+00 0.000000000000000D+00
 0.415159314211571D+03 0.000000000000000D+00 0.000000000000000D+00 0.415159314211571D+03
 0.154846272562662D+03 0.000000000000000D+00 0.000000000000000D+00 -.154846272562662D+03
 0.150931127228287D+03 -.234885931399923D+02 0.144853975021663D+02 0.799603928073746D+02
 0.124325800428654D+03 -.596470785316530D+01 -.649721333022610D+01 -.944028451744065D+02
 0.313901119635455D+02 0.906942797294941D+01 0.263533712255836D+02 0.144424523670320D+02
 0.263358547153745D+03 0.203838730202081D+02 -.343415553975239D+02 0.260313041648908D+03
 0.152017731039494D+03 0.000000000000000D+00 0.000000000000000D+00 0.152017731039494D+03
 0.152017731039494D+03 0.000000000000000D+00 0.000000000000000D+00 -.152017731039494D+03
 0.149016642534292D+03 -.134766847677693D+02 -.238207933399565D+01 0.799603928073746D+02
 0.125727699501025D+03 0.238178770981637D+01 -.205589002072569D+02 -.944028451744065D+02
 0.000000000000000D+00 0.000000000000000D+00 -.000000000000000D+00 0.000000000000000D+00
 0.292911200436707D+02 0.110948970579529D+02 0.229409795412525D+02 0.144424523670320D+02
 0.415159314211571D+03 0.000000000000000D+00 0.000000000000000D+00 0.415159314211571D+03
 0.154846272562662D+03 0.000000000000000D+00 0.000000000000000D+00 -.154846272562662D+03
 0.150931127228287D+03 -.234885931399923D+02 0.144853975021663D+02 0.799603928073746D+02
 0.124325800428654D+03 -.596470785316530D+01 -.649721333022610D+01 -.944028451744065D+02
 0.263358547153745D+03 0.203838730202081D+02 -.343415553975239D+02 0.260313041648908D+03
 0.313901119635455D+02 0.906942797294941D+01 0.263533712255836D+02 0.144424523670320D+02
0.397601436749D-06 0.000000000000D+00 0.000000000000D+00 0.545799679253D-06 0.000000000000D+00  6 21 -4 25 -24 -3 21 2 0.11490836D-01 0.47600350D-01 0.13720547D+05 0.13720547D+05 0.13720547D+05 0.12522609D+01  1  2  2  1  6  1       21 0.684186148435D-03 0.100000000000D+01
0.958435623489D-08 0.209820042653D-07 -.802642746745D-09 0.545799679253D-06 0.000000000000D+00  6 21 -4 25 -24 -3 21 4 0.11490836D-01 0.47600350D-01 0.13720547D+05 0.13720547D+05 0.13720547D+05 0.12522609D+01  1  2  3  1  6  1       21 0.258630030073D-04 0.100000000000D+01
0.470957860493D-07 0.000000000000D+00 0.000000000000D+00 0.545799679253D-06 0.000000000000D+00  6 21 -4 25 -24 -3 21 4 0.11490836D-01 0.47600350D-01 0.13720547D+05 0.13720547D+05 0.13720547D+05 0.12522609D+01  1  2 15  1  6  1       21 0.127086100138D-03 0.100000000000D+01
-.309257321126D-04 0.000000000000D+00 -.905851442654D-06 0.545799679253D-06 0.000000000000D+00  6 21 -4 25 -24 -3 21 4 0.31658777D-01 0.47600350D-01 0.13720547D+05 0.13720547D+05 0.13720547D+05 0.12522609D+01  1  2  5  1  6  1       21 -.129286981236D-01 0.100000000000D+01
-.106679031380D-04 0.000000000000D+00 -.305026503347D-06 0.545799679253D-06 0.000000000000D+00  6 -3 -4 25 -24 -3 -3 4 0.31658777D-01 0.47600350D-01 0.13720547D+05 0.13720547D+05 0.13720547D+05 0.12522609D+01  1  2  5  4  6  1       21 -.212834790527D-03 0.100000000000D+01
-.106679031380D-04 0.000000000000D+00 -.305026503347D-06 0.545799679253D-06 0.000000000000D+00  6 3 -4 25 -24 3 -3 4 0.31658777D-01 0.47600350D-01 0.13720547D+05 0.13720547D+05 0.13720547D+05 0.12522609D+01  3  4  5  5  5  1       21 -.212842773296D-03 0.100000000000D+01
-.106679031380D-04 0.000000000000D+00 -.305026503347D-06 0.545799679253D-06 0.000000000000D+00  6 -4 -4 25 -24 -3 -4 4 0.31658777D-01 0.47600350D-01 0.13720547D+05 0.13720547D+05 0.13720547D+05 0.12522609D+01  1  2  5  6  6  1       21 -.177373232350D-03 0.100000000000D+01
-.106679031380D-04 0.000000000000D+00 -.305026503347D-06 0.545799679253D-06 0.000000000000D+00  6 4 -4 25 -24 4 -3 4 0.31658777D-01 0.47600350D-01 0.13720547D+05 0.13720547D+05 0.13720547D+05 0.12522609D+01  3  4  5  7  5  1       21 -.177373232350D-03 0.100000000000D+01
-.106679031380D-04 0.000000000000D+00 -.305026503347D-06 0.545799679253D-06 0.000000000000D+00  6 -1 -4 25 -24 -3 -1 4 0.31658777D-01 0.47600350D-01 0.13720547D+05 0.13720547D+05 0.13720547D+05 0.12522609D+01  1  2  5  8  6  1       21 -.388179113650D-03 0.100000000000D+01
-.106679031380D-04 0.000000000000D+00 -.305026503347D-06 0.545799679253D-06 0.000000000000D+00  6 -2 -4 25 -24 -3 -2 4 0.31658777D-01 0.47600350D-01 0.13720547D+05 0.13720547D+05 0.13720547D+05 0.12522609D+01  1  2  5  8  6  1       21 -.338181292352D-03 0.100000000000D+01
-.106679031380D-04 0.000000000000D+00 -.305026503347D-06 0.545799679253D-06 0.000000000000D+00  6 1 -4 25 -24 1 -3 4 0.31658777D-01 0.47600350D-01 0.13720547D+05 0.13720547D+05 0.13720547D+05 0.12522609D+01  3  4  5  9  5  1       21 -.698571227159D-03 0.100000000000D+01
-.106679031380D-04 0.000000000000D+00 -.305026503347D-06 0.545799679253D-06 0.000000000000D+00  6 2 -4 25 -24 2 -3 4 0.31658777D-01 0.47600350D-01 0.13720547D+05 0.13720547D+05 0.13720547D+05 0.12522609D+01  3  4  5  9  5  1       21 -.924709040606D-03 0.100000000000D+01
  </mgrwgt>
  </event>
  <event>
  5     66 -.42720403E-03 0.28034521E+02 0.75467711E-02 0.11842475E+00
       21 -1    0    0  501  502 0.00000000E+00 0.00000000E+00 0.39252283E+03 0.39252355E+03 0.75000000E+00 0.0000E+00 0.9000E+01
       -4 -1    0    0    0  501 0.00000000E+00 0.00000000E+00 -.61600836E+02 0.61620334E+02 0.15500000E+01 0.0000E+00 0.9000E+01
       25  1    1    2    0    0 -.46718599E+02 0.71975879E+02 0.15302769E+03 0.21541966E+03 0.12500000E+03 0.0000E+00 0.9000E+01
      -24  1    1    2    0    0 0.18704290E+02 -.73000822E+02 0.78128339E+02 0.13509339E+03 0.80419002E+02 0.0000E+00 0.9000E+01
       -3  1    1    2    0  502 0.28014310E+02 0.10249434E+01 0.99765971E+02 0.10363084E+03 0.50000000E+00 0.0000E+00 0.9000E+01
#aMCatNLO 1  0  0  1  2 0.37301394D+02 0.00000000D+00  -5  6  0 0.00000000D+00 0.00000000D+00 0.00000000D+00 0.00000000D+00 0.00000000D+00
  <mgrwgt>
 -.2326064403D-01   12    4    0
 0.155513101644452D+03 0.000000000000000D+00 0.000000000000000D+00 0.155513101644452D+03
 0.155513101644452D+03 0.000000000000000D+00 0.000000000000000D+00 -.155513101644452D+03
 0.151727984622551D+03 -.467194366824291D+02 0.719758478694333D+02 -.575785352139753D+01
 0.114130214432164D+03 0.187036597356857D+02 -.730008449452219D+02 -.296570335963765D+02
 0.451680042341891D+02 0.280157769467433D+02 0.102499707578855D+01 0.354148871177740D+02
 0.000000000000000D+00 0.000000000000000D+00 -.000000000000000D+00 0.000000000000000D+00
 0.363733499218597D+03 0.000000000000000D+00 0.000000000000000D+00 0.363733499218597D+03
 0.158307065989535D+03 0.000000000000000D+00 0.000000000000000D+00 -.158307065989535D+03
 0.163060795042499D+03 -.583978402653549D+02 0.867200222270501D+02 -.575785352139753D+01
 0.106692336782002D+03 0.105113255742383D+02 -.626578898987943D+02 -.296570335963765D+02
 0.435018651847116D+02 0.247261980684202D+02 0.517814388226138D+01 0.354148871177740D+02
 0.208785568198919D+03 0.231603166226964D+02 -.292402762105172D+02 0.205426433229063D+03
 0.155513101644452D+03 0.000000000000000D+00 0.000000000000000D+00 0.155513101644452D+03
 0.155513101644452D+03 0.000000000000000D+00 0.000000000000000D+00 -.155513101644452D+03
 0.151727984622551D+03 -.467194366824291D+02 0.719758478694333D+02 -.575785352139753D+01
 0.114130214432164D+03 0.187036597356857D+02 -.730008449452219D+02 -.296570335963765D+02
 0.000000000000000D+00 0.000000000000000D+00 -.000000000000000D+00 0.000000000000000D+00
 0.451680042341891D+02 0.280157769467433D+02 0.102499707578855D+01 0.354148871177740D+02
 0.363733499218597D+03 0.000000000000000D+00 0.000000000000000D+00 0.363733499218597D+03
 0.158307065989535D+03 0.000000000000000D+00 0.000000000000000D+00 -.158307065989535D+03
 0.163060795042499D+03 -.583978402653549D+02 0.867200222270501D+02 -.575785352139753D+01
 0.106692336782002D+03 0.105113255742383D+02 -.626578898987943D+02 -.296570335963765D+02
 0.208785568198919D+03 0.231603166226964D+02 -.292402762105172D+02 0.205426433229063D+03
 0.435018651847116D+02 0.247261980684202D+02 0.517814388226138D+01 0.354148871177740D+02
0.111373563622D-05 0.000000000000D+00 0.000000000000D+00 0.114722805297D-05 0.000000000000D+00  6 21 -4 25 -24 -3 21 2 0.60389683D-01 0.94786067D-02 0.21005120D+05 0.21005120D+05 0.21005120D+05 0.12314885D+01  1  2  2  1  6  1       21 0.148544715419D-02 0.100000000000D+01
0.816524152498D-07 0.587734442323D-07 -.224831136806D-08 0.114722805297D-05 0.000000000000D+00  6 21 -4 25 -24 -3 21 4 0.60389683D-01 0.94786067D-02 0.21005120D+05 0.21005120D+05 0.21005120D+05 0.12314885D+01  1  2  3  1  6  1       21 0.165159989819D-03 0.100000000000D+01
0.108333879882D-06 0.000000000000D+00 0.000000000000D+00 0.114722805297D-05 0.000000000000D+00  6 21 -4 25 -24 -3 21 4 0.60389683D-01 0.94786067D-02 0.21005120D+05 0.21005120D+05 0.21005120D+05 0.12314885D+01  1  2 15  1  6  1       21 0.219129127332D-03 0.100000000000D+01
-.554652182875D-04 0.000000000000D+00 -.188124349001D-05 0.114722805297D-05 0.000000000000D+00  6 21 -4 25 -24 -3 21 4 0.14201140D+00 0.94786067D-02 0.21005120D+05 0.21005120D+05 0.21005120D+05 0.12314885D+01  1  2  5  1  6  1       21 -.154112896272D-01 0.100000000000D+01
-.171858315968D-04 0.000000000000D+00 -.559897093123D-06 0.114722805297D-05 0.000000000000D+00  6 -3 -4 25 -24 -3 -3 4 0.14201140D+00 0.94786067D-02 0.21005120D+05 0.21005120D+05 0.21005120D+05 0.12314885D+01  1  2  5  4  6  1       21 -.260213650882D-03 0.100000000000D+01
-.171858315968D-04 0.000000000000D+00 -.559897093123D-06 0.114722805297D-05 0.000000000000D+00  6 3 -4 25 -24 3 -3 4 0.14201140D+00 0.94786067D-02 0.21005120D+05 0.21005120D+05 0.21005120D+05 0.12314885D+01  3  4  5  5  5  1       21 -.261142967919D-03 0.100000000000D+01
-.171858315968D-04 0.000000000000D+00 -.559897093123D-06 0.114722805297D-05 0.000000000000D+00  6 -4 -4 25 -24 -3 -4 4 0.14201140D+00 0.94786067D-02 0.21005120D+05 0.21005120D+05 0.21005120D+05 0.12314885D+01  1  2  5  6  6  1       21 -.204644179781D-03 0.100000000000D+01
-.171858315968D-04 0.000000000000D+00 -.559897093123D-06 0.114722805297D-05 0.000000000000D+00  6 4 -4 25 -24 4 -3 4 0.14201140D+00 0.94786067D-02 0.21005120D+05 0.21005120D+05 0.21005120D+05 0.12314885D+01  3  4  5  7  5  1       21 -.204644179781D-03 0.100000000000D+01
-.171858315968D-04 0.000000000000D+00 -.559897093123D-06 0.114722805297D-05 0.000000000000D+00  6 -1 -4 25 -24 -3 -1 4 0.14201140D+00 0.94786067D-02 0.21005120D+05 0.21005120D+05 0.21005120D+05 0.12314885D+01  1  2  5  8  6  1       21 -.559608496717D-03 0.100000000000D+01
-.171858315968D-04 0.000000000000D+00 -.559897093123D-06 0.114722805297D-05 0.000000000000D+00  6 -2 -4 25 -24 -3 -2 4 0.14201140D+00 0.94786067D-02 0.21005120D+05 0.21005120D+05 0.21005120D+05 0.12314885D+01  1  2  5  8  6  1       21 -.407649338432D-03 0.100000000000D+01
-.171858315968D-04 0.000000000000D+00 -.559897093123D-06 0.114722805297D-05 0.000000000000D+00  6 1 -4 25 -24 1 -3 4 0.14201140D+00 0.94786067D-02 0.21005120D+05 0.21005120D+05 0.21005120D+05 0.12314885D+01  3  4  5  9  5  1       21 -.278598329598D-02 0.100000000000D+01
-.171858315968D-04 0.000000000000D+00 -.559897093123D-06 0.114722805297D-05 0.000000000000D+00  6 2 -4 25 -24 2 -3 4 0.14201140D+00 0.94786067D-02 0.21005120D+05 0.21005120D+05 0.21005120D+05 0.12314885D+01  3  4  5  9  5  1       21 -.503520456400D-02 0.100000000000D+01
  </mgrwgt>
  </event>
  <event>
  6     66 -.42720403E-03 0.50715157E+02 0.75467711E-02 0.11262838E+00
       21 -1    0    0  503  502 0.00000000E+00 0.00000000E+00 0.18040384E+04 0.18040386E+04 0.75000000E+00 0.0000E+00 0.9000E+01
       -2 -1    0    0    0  501 0.00000000E+00 0.00000000E+00 -.14106945E+03 0.14106981E+03 0.32000000E+00 0.0000E+00 0.9000E+01
       25  1    1    2    0    0 0.14564621E+03 0.96461961E+02 0.32112388E+01 0.21483259E+03 0.12500000E+03 0.0000E+00 0.9000E+01
      -24  1    1    2    0    0 -.67960311E+02 -.39760197E+01 0.91304975E+02 0.13942104E+03 0.80419002E+02 0.0000E+00 0.9000E+01
       -1  1    1    2    0  502 -.37667530E+01 -.59964984E+02 0.14247262E+04 0.14259926E+04 0.32000000E+00 0.0000E+00 0.9000E+01
       21  1    1    2  503  501 -.73919146E+02 -.32520958E+02 0.14372657E+03 0.16486219E+03 0.75000000E+00 0.0000E+00 0.9000E+01
#aMCatNLO 2  0  0  1  2 0.80756751D+02 0.00000000D+00  -5  6  0 0.00000000D+00 0.00000000D+00 0.00000000D+00 0.00000000D+00 0.00000000D+00
  <mgrwgt>
 -.2835869665D-02    2    2    0
 0.462238410371321D+03 0.000000000000000D+00 0.000000000000000D+00 0.462238410371321D+03
 0.462238410371321D+03 0.000000000000000D+00 0.000000000000000D+00 -.462238410371321D+03
 0.393382727316779D+03 0.113713703856133D+03 0.824131634068950D+02 -.345546283736022D+03
 0.124007726294119D+03 -.776165122337343D+02 -.822429288926507D+01 -.530917909041394D+02
 0.407086367131744D+03 -.360971916223983D+02 -.741888705176300D+02 0.398638074640162D+03
 0.000000000000000D+00 -.000000000000000D+00 -.000000000000000D+00 0.000000000000000D+00
 0.507392968901816D+03 0.000000000000000D+00 0.000000000000000D+00 0.507392968901816D+03
 0.501570721264956D+03 0.000000000000000D+00 0.000000000000000D+00 -.501570721264956D+03
 0.406872175905692D+03 0.145646219144939D+03 0.964619726692413D+02 -.345546283736022D+03
 0.117984603064544D+03 -.679603092840208D+02 -.397601641583042D+01 -.530917909041394D+02
 0.403140551284681D+03 -.376676371055234D+01 -.599649983611272D+02 0.398638074640162D+03
 0.809663599118536D+02 -.739191461503663D+02 -.325209578922837D+02 0.582224763685986D+01
-.224451761238D-03 0.000000000000D+00 0.000000000000D+00 0.204686472134D-05 0.000000000000D+00  6 21 -2 25 -24 -1 21 4 0.28734425D+00 0.20001049D-01 0.53133201D+05 0.53133201D+05 0.53133201D+05 0.11896764D+01  1  2 13  1  6  1       21 -.292173030100D-02 0.100000000000D+01
0.665663616249D-05 0.000000000000D+00 0.000000000000D+00 0.210323588606D-05 0.294497556986D-08  6 21 -2 25 -24 -1 21 4 0.27754346D+00 0.21702957D-01 0.53133201D+05 0.53133201D+05 0.53133201D+05 0.11896764D+01  1  2  1  1  6  1       21 0.858606357349D-04 0.100000000000D+01
  </mgrwgt>
  </event>
  <event>
  6     66 0.42720403E-03 0.30937081E+03 0.75467711E-02 0.10412088E+00
       21 -1    0    0  501  502 0.00000000E+00 0.00000000E+00 0.31357752E+03 0.31357842E+03 0.75000000E+00 0.0000E+00 0.9000E+01
       -2 -1    0    0    0  501 -.00000000E+00 -.00000000E+00 -.82728322E+03 0.82728328E+03 0.32000000E+00 0.0000E+00 0.9000E+01
       25  1    1    2    0    0 -.66268241E+02 0.95699885E+02 -.20391098E+03 0.26599743E+03 0.12500000E+03 0.0000E+00 0.9000E+01
      -24  1    1    2    0    0 0.80229791E+02 0.26059830E+03 -.38879037E+03 0.48163623E+03 0.80419002E+02 0.0000E+00 0.9000E+01
       -1  1    1    2    0  503 0.18223131E+02 -.10919295E+03 -.39180865E+02 0.11743265E+03 0.32000000E+00 0.0000E+00 0.9000E+01
       21  1    1    2  503  502 -.32184681E+02 -.24710523E+03 0.11817652E+03 0.27579539E+03 0.75000000E+00 0.0000E+00 0.9000E+01
#aMCatNLO 2  0  0  5  1 0.60132325D+02 0.00000000D+00  -5  6  0 0.00000000D+00 0.00000000D+00 0.00000000D+00 0.00000000D+00 0.00000000D+00
  <mgrwgt>
 0.1063479394D-02    2    2    0
 0.509330903957215D+03 0.000000000000000D+00 0.000000000000000D+00 0.509330903957215D+03
 0.509330903957215D+03 -.000000000000000D+00 -.000000000000000D+00 -.509330903957215D+03
 0.198083650351914D+03 -.661333580464978D+02 0.991420918189692D+02 -.970018408072349D+02
 0.350768657694028D+03 0.804679251973286D+02 0.266675467895215D+03 -.197434908522796D+03
 0.469809499868487D+03 -.143345671508308D+02 -.365817559714184D+03 0.294436749330031D+03
 0.000000000000000D+00 0.000000000000000D+00 0.000000000000000D+00 0.000000000000000D+00
 0.509330903957215D+03 0.000000000000000D+00 0.000000000000000D+00 0.509330903957215D+03
 0.509330903957215D+03 -.000000000000000D+00 -.000000000000000D+00 -.509330903957215D+03
 0.195085549456180D+03 -.662677903736763D+02 0.957113843997854D+02 -.942405563538693D+02
 0.343373671061283D+03 0.802305842034430D+02 0.260618535565845D+03 -.192559846026165D+03
 0.111289815603043D+03 0.181684620372769D+02 -.108738503110813D+03 0.152074976698673D+02
 0.368912771793923D+03 -.321312558670435D+02 -.247591416854817D+03 0.271592904710167D+03
-.175778162828D-04 0.000000000000D+00 0.000000000000D+00 0.174828518051D-06 0.000000000000D+00  6 21 -2 25 -24 -1 21 4 0.48242770D-01 0.12727441D+00 0.16606685D+06 0.16606685D+06 0.16606685D+06 0.11438626D+01  1  2 13  3  6  5       -1 -.453145363453D-03 0.100000000000D+01
0.588309039493D-04 0.000000000000D+00 0.000000000000D+00 0.174443454800D-06 0.148316607749D-09  6 21 -2 25 -24 -1 21 4 0.48242770D-01 0.12727441D+00 0.16606685D+06 0.16606685D+06 0.16606685D+06 0.11438626D+01  1  2  1  3  6  5       -1 0.151662475722D-02 0.100000000000D+01
  </mgrwgt>
  </event>
  <event>
  5     66 0.42720403E-03 0.10631928E+03 0.75467711E-02 0.98872600E-01
       21 -1    0    0  501  502 0.00000000E+00 0.00000000E+00 0.41014315E+03 0.41014384E+03 0.75000000E+00 0.0000E+00 0.9000E+01
       -2 -1    0    0    0  501 0.00000000E+00 0.00000000E+00 -.13065386E+04 0.13065386E+04 0.32000000E+00 0.0000E+00 0.9000E+01
       25  1    1    2    0    0 0.62301141E+02 -.33522584E+02 -.92080663E+03 0.93194155E+03 0.12500000E+03 0.0000E+00 0.9000E+01
      -24  1    1    2    0    0 -.16301375E+03 -.54732395E+00 -.35061626E+03 0.39493387E+03 0.80419002E+02 0.0000E+00 0.9000E+01
       -1  1    1    2    0  502 0.10071261E+03 0.34069908E+02 0.37502749E+03 0.38980702E+03 0.32000000E+00 0.0000E+00 0.9000E+01
#aMCatNLO 1  0  0  2  1 0.10714913D+02 0.00000000D+00  -5  6  0 0.00000000D+00 0.00000000D+00 0.00000000D+00 0.00000000D+00 0.00000000D+00
  <mgrwgt>
 0.2107434242D-01    3    2    0
 0.732030372649783D+03 0.000000000000000D+00 0.000000000000000D+00 0.732030372649783D+03
 0.732030372649783D+03 0.000000000000000D+00 0.000000000000000D+00 -.732030372649783D+03
 0.528967732373593D+03 0.623011375149437D+02 -.335225857943752D+02 -.509093966177624D+03
 0.248408575984578D+03 -.163013749443875D+03 -.547324579150095D+00 -.169309841994995D+03
 0.686684436941394D+03 0.100712611928931D+03 0.340699103735253D+02 0.678403808172619D+03
 0.000000000000000D+00 0.000000000000000D+00 0.000000000000000D+00 0.000000000000000D+00
 0.113793248947923D+04 0.000000000000000D+00 0.000000000000000D+00 0.113793248947923D+04
 0.973676059288818D+03 0.000000000000000D+00 0.000000000000000D+00 -.973676059288818D+03
 0.570201723228520D+03 0.260124841523189D+02 -.222826590519478D+03 -.509093966177624D+03
 0.275470728304795D+03 -.180309421535487D+03 -.907722210126609D+02 -.169309841994995D+03
 0.711288557678058D+03 0.545590755897450D+02 -.206695410233059D+03 0.678403808172619D+03
 0.554647539556676D+03 0.997378617934234D+02 0.520294221765197D+03 0.164256430190412D+03
0.401662905552D-02 0.000000000000D+00 0.000000000000D+00 0.335315693410D-05 0.000000000000D+00  6 21 -2 25 -24 -1 21 2 0.63099003D-01 0.20100599D+00 0.46596244D+05 0.46596244D+05 0.46596244D+05 0.11953261D+01  1  2  2  2  6  2       -2 0.155131371316D-01 0.100000000000D+01
0.611036971598D-03 0.211963338624D-03 -.810841682098D-05 0.335315693410D-05 0.000000000000D+00  6 21 -2 25 -24 -1 21 4 0.63099003D-01 0.20100599D+00 0.46596244D+05 0.46596244D+05 0.46596244D+05 0.11953261D+01  1  2  3  2  6  2       -2 0.337192728875D-02 0.100000000000D+01
0.396725577569D-03 0.000000000000D+00 0.000000000000D+00 0.335315693410D-05 0.000000000000D+00  6 21 -2 25 -24 -1 21 4 0.63099003D-01 0.20100599D+00 0.46596244D+05 0.46596244D+05 0.46596244D+05 0.11953261D+01  1  2 15  2  6  2       -2 0.218927800334D-02 0.100000000000D+01
  </mgrwgt>
  </event>
  <event>
  5     66 -.42720403E-03 0.29533363E+02 0.75467711E-02 0.11786222E+00
       21 -1    0    0  501  502 0.00000000E+00 0.00000000E+00 0.67154267E+02 0.67158455E+02 0.75000000E+00 0.0000E+00 0.9000E+01
       -2 -1    0    0    0  501 0.00000000E+00 0.00000000E+00 -.43274848E+03 0.43274860E+03 0.32000000E+00 0.0000E+00 0.9000E+01
       25  1    1    2    0    0 0.82235345E+02 0.51200350E+01 -.54657549E+02 0.15937790E+03 0.12500000E+03 0.0000E+00 0.9000E+01
      -24  1    1    2    0    0 -.66271428E+02 -.29965424E+02 -.25902624E+03 0.28080534E+03 0.80419002E+02 0.0000E+00 0.9000E+01
       -1  1    1    2    0  502 -.15963917E+02 0.24845389E+02 -.51910424E+02 0.59723819E+02 0.32000000E+00 0.0000E+00 0.9000E+01
#aMCatNLO 1  0  0  2  1 0.47625988D+02 0.00000000D+00  -5  6  0 0.00000000D+00 0.00000000D+00 0.00000000D+00 0.00000000D+00 0.00000000D+00
  <mgrwgt>
 -.7713697400D-02    5    4    0
 0.170475756803835D+03 0.000000000000000D+00 0.000000000000000D+00 0.170475756803835D+03
 0.170475756803835D+03 0.000000000000000D+00 0.000000000000000D+00 -.170475756803835D+03
 0.175074062929922D+03 0.822357569065479D+02 0.511939327196979D+01 0.907579176123180D+02
 0.133972162246200D+03 -.662711122953645D+02 -.299659147685874D+02 -.786861355625532D+02
 0.319052884315483D+02 -.159646446111833D+02 0.248465214966176D+02 -.120717820497649D+02
 0.000000000000000D+00 -.000000000000000D+00 0.000000000000000D+00 -.000000000000000D+00
 0.174137965922874D+03 0.000000000000000D+00 0.000000000000000D+00 0.174137965922874D+03
 0.454660265459166D+03 0.000000000000000D+00 0.000000000000000D+00 -.454660265459166D+03
 0.188141425586397D+03 0.107367438925034D+03 0.272570560344007D+01 0.907579176123180D+02
 0.126454358605906D+03 -.482516260174778D+02 -.316821955199072D+02 -.786861355625532D+02
 0.296659903135234D+02 -.117043918196144D+02 0.244407502249416D+02 -.120717820497649D+02
 0.284536456876213D+03 -.474114210879416D+02 0.451573969152555D+01 -.280522299536292D+03
 0.170475756803835D+03 0.000000000000000D+00 0.000000000000000D+00 0.170475756803835D+03
 0.170475756803835D+03 0.000000000000000D+00 0.000000000000000D+00 -.170475756803835D+03
 0.175074062929922D+03 0.822357569065479D+02 0.511939327196979D+01 0.907579176123180D+02
 0.133972162246200D+03 -.662711122953645D+02 -.299659147685874D+02 -.786861355625532D+02
 0.000000000000000D+00 -.000000000000000D+00 0.000000000000000D+00 -.000000000000000D+00
 0.319052884315483D+02 -.159646446111833D+02 0.248465214966176D+02 -.120717820497649D+02
 0.174137965922874D+03 0.000000000000000D+00 0.000000000000000D+00 0.174137965922874D+03
 0.454660265459166D+03 0.000000000000000D+00 0.000000000000000D+00 -.454660265459166D+03
 0.188141425586397D+03 0.107367438925034D+03 0.272570560344007D+01 0.907579176123180D+02
 0.126454358605906D+03 -.482516260174778D+02 -.316821955199072D+02 -.786861355625532D+02
 0.284536456876213D+03 -.474114210879416D+02 0.451573969152555D+01 -.280522299536292D+03
 0.296659903135234D+02 -.117043918196144D+02 0.244407502249416D+02 -.120717820497649D+02
0.589806007358D-06 0.000000000000D+00 0.000000000000D+00 0.196921902156D-06 0.000000000000D+00  6 21 -2 25 -24 -1 21 2 0.10331757D-01 0.66577021D-01 0.20689375D+05 0.20689375D+05 0.20689375D+05 0.12322091D+01  1  2  2  2  6  2       -2 0.118579477719D-02 0.100000000000D+01
-.375094833934D-08 0.311249181171D-07 -.119064839821D-08 0.196921902156D-06 0.000000000000D+00  6 21 -2 25 -24 -1 21 4 0.10331757D-01 0.66577021D-01 0.20689375D+05 0.20689375D+05 0.20689375D+05 0.12322091D+01  1  2  3  2  6  2       -2 -.114501250696D-04 0.100000000000D+01
0.603175726069D-07 0.000000000000D+00 0.000000000000D+00 0.196921902156D-06 0.000000000000D+00  6 21 -2 25 -24 -1 21 4 0.10331757D-01 0.66577021D-01 0.20689375D+05 0.20689375D+05 0.20689375D+05 0.12322091D+01  1  2 15  2  6  2       -2 0.184125103244D-03 0.100000000000D+01
-.136794353309D-04 0.000000000000D+00 -.525616874715D-06 0.196921902156D-06 0.000000000000D+00  6 21 -2 25 -24 -1 21 4 0.10331757D-01 0.17856637D+00 0.20689375D+05 0.20689375D+05 0.20689375D+05 0.12322091D+01  1  2  5  2  6  2       -2 -.403449301725D-02 0.100000000000D+01
-.147280946463D-05 0.000000000000D+00 -.577746650513D-07 0.196921902156D-06 0.000000000000D+00  6 21 21 25 -24 2 -1 4 0.10331757D-01 0.17856637D+00 0.20689375D+05 0.20689375D+05 0.20689375D+05 0.12322091D+01  3  4  5 10  5  2       -2 -.503767413778D-02 0.100000000000D+01
  </mgrwgt>
  </event>
  <event>
  5     66 0.42720403E-03 0.10817865E+03 0.75467711E-02 0.11289678E+00
       21 -1    0    0  501  502 0.00000000E+00 0.00000000E+00 0.52838641E+02 0.52843963E+02 0.75000000E+00 0.0000E+00 0.9000E+01
       -2 -1    0    0    0  501 -.00000000E+00 -.00000000E+00 -.26485034E+04 0.26485035E+04 0.32000000E+00 0.0000E+00 0.9000E+01
       25  1    1    2    0    0 0.32521147E+02 0.24666767E+02 -.11754584E+04 0.11827905E+04 0.12500000E+03 0.0000E+00 0.9000E+01
      -24  1    1    2    0    0 0.13317923E+03 -.61371619E+01 -.13088011E+04 0.13180296E+04 0.80419002E+02 0.0000E+00 0.9000E+01
       -1  1    1    2    0  502 -.16570038E+03 -.18529605E+02 -.11140533E+03 0.20052734E+03 0.32000000E+00 0.0000E+00 0.9000E+01
#aMCatNLO 1  0  0  5  1 0.66774958D+01 0.00000000D+00  -5  6  0 0.00000000D+00 0.00000000D+00 0.00000000D+00 0.00000000D+00 0.00000000D+00
  <mgrwgt>
 0.2905825956D-02    6    2    0
 0.374099635141610D+03 0.000000000000000D+00 0.000000000000000D+00 0.374099635141610D+03
 0.374099635141610D+03 -.000000000000000D+00 -.000000000000000D+00 -.374099635141610D+03
 0.192505231922057D+03 0.325211663667829D+02 0.246667692675046D+02 -.140595834040034D+03
 0.218186296189668D+03 0.133179252007706D+03 -.613715947702096D+01 -.152851777872606D+03
 0.337507742171494D+03 -.165700418374489D+03 -.185296097904836D+02 0.293447611912640D+03
 0.000000000000000D+00 0.000000000000000D+00 0.000000000000000D+00 0.000000000000000D+00
 0.374099635141610D+03 0.000000000000000D+00 0.000000000000000D+00 0.374099635141610D+03
 0.374099635141610D+03 -.000000000000000D+00 -.000000000000000D+00 -.374099635141610D+03
 0.192075024731221D+03 0.322295367070235D+02 0.246341574983149D+02 -.140079371691545D+03
 0.217575858389480D+03 0.132848810788539D+03 -.617411138643626D+01 -.152266582086179D+03
 0.110743657280491D+02 -.981005848305591D+01 0.196930989023496D+01 0.474617186728685D+01
 0.327474021434470D+03 -.155268289012507D+03 -.204293560021136D+02 0.287599781910437D+03
0.212582736213D-03 0.000000000000D+00 0.000000000000D+00 0.978459654426D-06 0.000000000000D+00  6 21 -2 25 -24 -1 21 2 0.81294326D-02 0.40746248D+00 0.51512181D+05 0.51512181D+05 0.51512181D+05 0.11910024D+01  1  2  2  3  6  5       -1 0.237539012621D-02 0.100000000000D+01
-.265913374878D-05 0.112182991953D-04 -.429143296614D-06 0.978459654426D-06 0.000000000000D+00  6 21 -2 25 -24 -1 21 4 0.81294326D-02 0.40746248D+00 0.51512181D+05 0.51512181D+05 0.51512181D+05 0.11910024D+01  1  2  3  3  6  5       -1 -.421475546682D-04 0.100000000000D+01
0.230533376088D-04 0.000000000000D+00 0.000000000000D+00 0.978459654426D-06 0.000000000000D+00  6 21 -2 25 -24 -1 21 4 0.81294326D-02 0.40746248D+00 0.51512181D+05 0.51512181D+05 0.51512181D+05 0.11910024D+01  1  2 15  3  6  5       -1 0.365397869737D-03 0.100000000000D+01
0.947485295171D-04 0.000000000000D+00 0.000000000000D+00 0.978608719148D-06 0.000000000000D+00  6 21 -2 25 -24 -1 21 4 0.81294326D-02 0.40746248D+00 0.51403298D+05 0.51403298D+05 0.51403298D+05 0.11910931D+01  1  2 12  3  6  5       -1 0.150244126659D-02 0.100000000000D+01
-.949548555659D-04 0.000000000000D+00 0.000000000000D+00 0.978459654426D-06 0.000000000000D+00  6 21 -2 25 -24 -1 21 4 0.81294326D-02 0.40746248D+00 0.51512181D+05 0.51512181D+05 0.51512181D+05 0.11910024D+01  1  2  5  3  6  5       -1 -.150504462884D-02 0.100000000000D+01
0.132299265517D-04 0.000000000000D+00 0.000000000000D+00 0.978459654426D-06 0.481426132370D-08  6 21 -2 25 -24 -1 21 4 0.81294326D-02 0.40746248D+00 0.51403298D+05 0.51403298D+05 0.51403298D+05 0.11910931D+01  1  2 11  3  6  5       -1 0.209788877004D-03 0.100000000000D+01
  </mgrwgt>
  </event>
  <event>
  5     66 0.42720403E-03 0.41566568E+02 0.75467711E-02 0.10253453E+00
       21 -1    0    0  501  502 0.00000000E+00 0.00000000E+00 0.66248328E+03 0.66248371E+03 0.75000000E+00 0.0000E+00 0.9000E+01
       -2 -1    0    0    0  501 0.00000000E+00 0.00000000E+00 -.27026272E+03 0.27026291E+03 0.32000000E+00 0.0000E+00 0.9000E+01
       25  1    1    2    0    0 -.69951810E+02 -.18758710E+02 -.62474180E+02 0.15739494E+03 0.12500000E+03 0.0000E+00 0.9000E+01
      -24  1    1    2    0    0 0.80174051E+02 -.21531298E+02 -.13867627E+03 0.18052645E+03 0.80419002E+02 0.0000E+00 0.9000E+01
       -1  1    1    2    0  502 -.10222241E+02 0.40290008E+02 0.59337102E+03 0.59482522E+03 0.32000000E+00 0.0000E+00 0.9000E+01
#aMCatNLO 1  0  0  1  5 0.43414557D+01 0.00000000D+00  -5  6  0 0.00000000D+00 0.00000000D+00 0.00000000D+00 0.00000000D+00 0.00000000D+00
  <mgrwgt>
 0.9068650019D-01    3    2    0
 0.423136879361783D+03 0.000000000000000D+00 0.000000000000000D+00 0.423136879361783D+03
 0.423136879361783D+03 0.000000000000000D+00 0.000000000000000D+00 -.423136879361783D+03
 0.202432457966982D+03 -.699518090148939D+02 -.187587132689831D+02 -.141805342390863D+03
 0.263244784083326D+03 0.801740519266439D+02 -.215313020685408D+02 -.236514534059968D+03
 0.380596516673257D+03 -.102222429117500D+02 0.402900153375239D+02 0.378319876450831D+03
 0.000000000000000D+00 -.000000000000000D+00 0.000000000000000D+00 -.000000000000000D+00
 0.583955506881146D+03 0.000000000000000D+00 0.000000000000000D+00 0.583955506881146D+03
 0.810616551641462D+03 0.000000000000000D+00 0.000000000000000D+00 -.810616551641462D+03
 0.203066236564301D+03 0.200882294908163D+01 -.741492139685786D+02 -.141805342390863D+03
 0.327194436267006D+03 0.184954609806958D+03 -.102184395380437D+03 -.236514534059968D+03
 0.405379495762374D+03 0.129258676080531D+03 -.670731043317120D+02 0.378319876450831D+03
 0.458931889928928D+03 -.316222108836570D+03 0.243406713680728D+03 -.226661044760317D+03
0.108122425506D-02 0.000000000000D+00 0.000000000000D+00 0.149255385873D-04 0.000000000000D+00  6 21 -2 25 -24 -1 21 2 0.10192055D+00 0.41578927D-01 0.22742360D+05 0.22742360D+05 0.22742360D+05 0.12277292D+01  1  2  2  1  6  1       21 0.585002591406D-01 0.100000000000D+01
0.276338194846D-03 0.570577715132D-04 -.218268025645D-05 0.149255385873D-04 0.000000000000D+00  6 21 -2 25 -24 -1 21 4 0.10192055D+00 0.41578927D-01 0.22742360D+05 0.22742360D+05 0.22742360D+05 0.12277292D+01  1  2  3  1  6  1       21 0.225365861201D-01 0.100000000000D+01
0.118321746241D-03 0.000000000000D+00 0.000000000000D+00 0.149255385873D-04 0.000000000000D+00  6 21 -2 25 -24 -1 21 4 0.10192055D+00 0.41578927D-01 0.22742360D+05 0.22742360D+05 0.22742360D+05 0.12277292D+01  1  2 15  1  6  1       21 0.964965492931D-02 0.100000000000D+01
  </mgrwgt>
  </event>
  <event>
  5     66 0.42720403E-03 0.30020548E+03 0.75467711E-02 0.97367286E-01
       21 -1    0    0  501  502 0.00000000E+00 0.00000000E+00 0.67582802E+03 0.67582843E+03 0.75000000E+00 0.0000E+00 0.9000E+01
       -2 -1    0    0    0  501 0.00000000E+00 0.00000000E+00 -.28917485E+03 0.28917502E+03 0.32000000E+00 0.0000E+00 0.9000E+01
       25  1    1    2    0    0 -.91727758E+02 -.11819986E+03 0.44901968E+03 0.48951901E+03 0.12500000E+03 0.0000E+00 0.9000E+01
      -24  1    1    2    0    0 -.80121532E+02 -.12795274E+03 -.27792108E+02 0.17329449E+03 0.80419002E+02 0.0000E+00 0.9000E+01
       -1  1    1    2    0  502 0.17184929E+03 0.24615260E+03 -.34574396E+02 0.30218996E+03 0.32000000E+00 0.0000E+00 0.9000E+01
#aMCatNLO 1  0  0  1  5 0.52291677D+03 0.00000000D+00  -5  6  0 0.00000000D+00 0.00000000D+00 0.00000000D+00 0.00000000D+00 0.00000000D+00
  <mgrwgt>
 0.1038708179D-01    3    2    0
 0.442077764401589D+03 0.000000000000000D+00 0.000000000000000D+00 0.442077764401589D+03
 0.442077764401589D+03 0.000000000000000D+00 0.000000000000000D+00 -.442077764401589D+03
 0.337918705395497D+03 -.917277860330232D+02 -.118199900591719D+03 0.276005159781038D+03
 0.201294564160186D+03 -.801215484587601D+02 -.127952764376441D+03 -.106117449870728D+03
 0.344942259247494D+03 0.171849334491783D+03 0.246152664968160D+03 -.169887709910310D+03
 0.000000000000000D+00 -.000000000000000D+00 0.000000000000000D+00 -.000000000000000D+00
 0.524243376697499D+03 0.000000000000000D+00 0.000000000000000D+00 0.524243376697499D+03
 0.694129418492996D+04 0.000000000000000D+00 0.000000000000000D+00 -.694129418492996D+04
 0.454546140328553D+03 -.624840895977217D+02 -.333022647891959D+03 0.276005159781038D+03
 0.302456881865680D+03 -.615320117166415D+02 -.264510581641975D+03 -.106117449870728D+03
 0.270213094604950D+03 0.194549920550178D+03 0.793952828027809D+02 -.169887709910310D+03
 0.643832144482827D+04 -.705338192358149D+02 0.518137946731154D+03 -.641705080823246D+04
0.277369786471D-03 0.000000000000D+00 0.000000000000D+00 0.262949946523D-07 0.000000000000D+00  6 21 -2 25 -24 -1 21 2 0.10397359D+00 0.44488484D-01 0.11096192D+06 0.11096192D+06 0.11096192D+06 0.11594445D+01  1  2  2  1  6  1       21 0.103027354649D-01 0.100000000000D+01
-.337228449785D-04 0.146372057666D-04 -.559929685106D-06 0.262949946523D-07 0.000000000000D+00  6 21 -2 25 -24 -1 21 4 0.10397359D+00 0.44488484D-01 0.11096192D+06 0.11096192D+06 0.11096192D+06 0.11594445D+01  1  2  3  1  6  1       21 -.168390493101D-02 0.100000000000D+01
0.354120128446D-04 0.000000000000D+00 0.000000000000D+00 0.262949946523D-07 0.000000000000D+00  6 21 -2 25 -24 -1 21 4 0.10397359D+00 0.44488484D-01 0.11096192D+06 0.11096192D+06 0.11096192D+06 0.11594445D+01  1  2 15  1  6  1       21 0.176825125769D-02 0.100000000000D+01
  </mgrwgt>
  </event>
  <event>
  5     66 0.42720403E-03 0.28004856E+02 0.75467711E-02 0.11653274E+00
       21 -1    0    0  501  502 0.00000000E+00 0.00000000E+00 0.54685308E+03 0.54685360E+03 0.75000000E+00 0.0000E+00 0.9000E+01
       -2 -1    0    0    0  501 0.00000000E+00 0.00000000E+00 -.98344214E+02 0.98344734E+02 0.32000000E+00 0.0000E+00 0.9000E+01
       25  1    1    2    0    0 -.10357425E+03 -.10721243E+01 0.64135912E+02 0.17454853E+03 0.12500000E+03 0.0000E+00 0.9000E+01
      -24  1    1    2    0    0 0.13069021E+03 -.59273493E+01 0.96393832E+02 0.18131203E+03 0.80419002E+02 0.0000E+00 0.9000E+01
       -1  1    1    2    0  502 -.27115964E+02 0.69994736E+01 0.28797912E+03 0.28933777E+03 0.32000000E+00 0.0000E+00 0.9000E+01
#aMCatNLO 1  0  0  1  2 0.22043425D+02 0.00000000D+00  -5  6  0 0.00000000D+00 0.00000000D+00 0.00000000D+00 0.00000000D+00 0.00000000D+00
  <mgrwgt>
 0.6144034862D-01   23    4    0
 0.231905520325970D+03 0.000000000000000D+00 0.000000000000000D+00 0.231905520325970D+03
 0.231905520325970D+03 0.000000000000000D+00 0.000000000000000D+00 -.231905520325970D+03
 0.180791120498876D+03 -.103574212242247D+03 -.107213333555138D+01 -.795717433499359D+02
 0.159006042527226D+03 0.130690242116199D+03 -.592735733738095D+01 -.412387276283316D+02
 0.124013877625838D+03 -.271160298739521D+02 0.699949067293232D+01 0.120810470978268D+03
 0.000000000000000D+00 -.000000000000000D+00 -.000000000000000D+00 0.000000000000000D+00
 0.247960617128133D+03 0.000000000000000D+00 0.000000000000000D+00 0.247960617128133D+03
 0.239859022283271D+03 0.000000000000000D+00 0.000000000000000D+00 -.239859022283271D+03
 0.178156464257592D+03 -.987306505862227D+02 0.594323580550717D+01 -.795717433499359D+02
 0.162482702106479D+03 0.135028342224624D+03 0.355906052818804D+00 -.412387276283316D+02
 0.123695404845165D+03 -.237734939902471D+02 0.118407882049378D+02 0.120810470978268D+03
 0.234850682021669D+02 -.125241976481542D+02 -.181399300632638D+02 0.810159484486231D+01
 0.231905520325970D+03 0.000000000000000D+00 0.000000000000000D+00 0.231905520325970D+03
 0.231905520325970D+03 0.000000000000000D+00 0.000000000000000D+00 -.231905520325970D+03
 0.180791120498876D+03 -.103574212242247D+03 -.107213333555138D+01 -.795717433499359D+02
 0.159006042527226D+03 0.130690242116199D+03 -.592735733738095D+01 -.412387276283316D+02
 0.000000000000000D+00 -.000000000000000D+00 -.000000000000000D+00 0.000000000000000D+00
 0.124013877625838D+03 -.271160298739521D+02 0.699949067293232D+01 0.120810470978268D+03
 0.247960617128133D+03 0.000000000000000D+00 0.000000000000000D+00 0.247960617128133D+03
 0.239859022283271D+03 0.000000000000000D+00 0.000000000000000D+00 -.239859022283271D+03
 0.178156464257592D+03 -.987306505862227D+02 0.594323580550717D+01 -.795717433499359D+02
 0.162482702106479D+03 0.135028342224624D+03 0.355906052818804D+00 -.412387276283316D+02
 0.234850682021669D+02 -.125241976481542D+02 -.181399300632638D+02 0.810159484486231D+01
 0.123695404845165D+03 -.237734939902471D+02 0.118407882049378D+02 0.120810470978268D+03
0.154130558606D-04 0.000000000000D+00 0.000000000000D+00 0.251955818171D-05 0.000000000000D+00  6 21 -2 25 -24 -1 21 2 0.84131323D-01 0.15129959D-01 0.29568272D+05 0.29568272D+05 0.29568272D+05 0.12155597D+01  1  2  2  1  6  1       21 0.749863171686D-02 0.100000000000D+01
0.327882896490D-05 0.813369303822D-06 -.311145190842D-07 0.251955818171D-05 0.000000000000D+00  6 21 -2 25 -24 -1 21 4 0.84131323D-01 0.15129959D-01 0.29568272D+05 0.29568272D+05 0.29568272D+05 0.12155597D+01  1  2  3  1  6  1       21 0.235702722770D-02 0.100000000000D+01
0.129173414669D-05 0.000000000000D+00 0.000000000000D+00 0.251955818171D-05 0.000000000000D+00  6 21 -2 25 -24 -1 21 4 0.84131323D-01 0.15129959D-01 0.29568272D+05 0.29568272D+05 0.29568272D+05 0.12155597D+01  1  2 15  1  6  1       21 0.928579254147D-03 0.100000000000D+01
0.461509052437D-04 0.000000000000D+00 0.000000000000D+00 0.249706376645D-05 0.000000000000D+00  6 21 -2 25 -24 -1 21 4 0.91322241D-01 0.15129959D-01 0.33336163D+05 0.33336163D+05 0.33336163D+05 0.12101213D+01  1  2 12  1  6  1       21 0.269098304608D-01 0.100000000000D+01
-.121705451707D-04 0.000000000000D+00 0.000000000000D+00 0.251955818171D-05 0.000000000000D+00  6 21 -2 25 -24 -1 21 4 0.84131323D-01 0.15129959D-01 0.29568272D+05 0.29568272D+05 0.29568272D+05 0.12155597D+01  1  2  4  1  6  1       21 -.874894867969D-02 0.100000000000D+01
-.262101619196D-03 0.000000000000D+00 -.528554137762D-04 0.251955818171D-05 0.000000000000D+00  6 21 -2 25 -24 -1 21 4 0.92343376D-01 0.15129959D-01 0.29568272D+05 0.29568272D+05 0.29568272D+05 0.12155597D+01  1  2  5  1  6  1       21 -.152127548536D+00 0.100000000000D+01
0.261907680071D-03 0.000000000000D+00 0.519496121021D-04 0.251955818171D-05 0.000000000000D+00  6 21 -2 25 -24 -1 21 4 0.84131323D-01 0.15129959D-01 0.29568272D+05 0.29568272D+05 0.29568272D+05 0.12155597D+01  1  2  6  1  6  1       21 0.188275612934D+00 0.100000000000D+01
0.946502228992D-06 0.000000000000D+00 0.000000000000D+00 0.249706376645D-05 0.000000000000D+00  6 -1 -2 25 -24 -1 -1 4 0.91322241D-01 0.15129959D-01 0.33336163D+05 0.33336163D+05 0.33336163D+05 0.12101213D+01  1  2 12  4  6  1       21 0.624679222896D-04 0.100000000000D+01
-.538659785835D-05 0.000000000000D+00 -.124661661254D-05 0.251955818171D-05 0.000000000000D+00  6 -1 -2 25 -24 -1 -1 4 0.92343376D-01 0.15129959D-01 0.29568272D+05 0.29568272D+05 0.29568272D+05 0.12155597D+01  1  2  5  4  6  1       21 -.353314577322D-03 0.100000000000D+01
0.946502228992D-06 0.000000000000D+00 0.000000000000D+00 0.249706376645D-05 0.000000000000D+00  6 1 -2 25 -24 1 -1 4 0.91322241D-01 0.15129959D-01 0.33336163D+05 0.33336163D+05 0.33336163D+05 0.12101213D+01  3  4 12  5  5  1       21 0.214524790062D-03 0.100000000000D+01
-.538659785835D-05 0.000000000000D+00 -.124661661254D-05 0.251955818171D-05 0.000000000000D+00  6 1 -2 25 -24 1 -1 4 0.92343376D-01 0.15129959D-01 0.29568272D+05 0.29568272D+05 0.29568272D+05 0.12155597D+01  3  4  5  5  5  1       21 -.122348184507D-02 0.100000000000D+01
0.946502228992D-06 0.000000000000D+00 0.000000000000D+00 0.249706376645D-05 0.000000000000D+00  6 -2 -2 25 -24 -1 -2 4 0.91322241D-01 0.15129959D-01 0.33336163D+05 0.33336163D+05 0.33336163D+05 0.12101213D+01  1  2 12  6  6  1       21 0.469346385329D-04 0.100000000000D+01
-.538659785835D-05 0.000000000000D+00 -.124661661254D-05 0.251955818171D-05 0.000000000000D+00  6 -2 -2 25 -24 -1 -2 4 0.92343376D-01 0.15129959D-01 0.29568272D+05 0.29568272D+05 0.29568272D+05 0.12155597D+01  1  2  5  6  6  1       21 -.264929812296D-03 0.100000000000D+01
0.946502228992D-06 0.000000000000D+00 0.000000000000D+00 0.249706376645D-05 0.000000000000D+00  6 2 -2 25 -24 2 -1 4 0.91322241D-01 0.15129959D-01 0.33336163D+05 0.33336163D+05 0.33336163D+05 0.12101213D+01  3  4 12  7  5  1       21 0.347551766236D-03 0.100000000000D+01
-.538659785835D-05 0.000000000000D+00 -.124661661254D-05 0.251955818171D-05 0.000000000000D+00  6 2 -2 25 -24 2 -1 4 0.92343376D-01 0.15129959D-01 0.29568272D+05 0.29568272D+05 0.29568272D+05 0.12155597D+01  3  4  5  7  5  1       21 -.198598624641D-02 0.100000000000D+01
0.946502228992D-06 0.000000000000D+00 0.000000000000D+00 0.249706376645D-05 0.000000000000D+00  6 -3 -2 25 -24 -1 -3 4 0.91322241D-01 0.15129959D-01 0.33336163D+05 0.33336163D+05 0.33336163D+05 0.12101213D+01  1  2 12  8  6  1       21 0.296832324648D-04 0.100000000000D+01
0.946502228992D-06 0.000000000000D+00 0.000000000000D+00 0.249706376645D-05 0.000000000000D+00  6 -4 -2 25 -24 -1 -4 4 0.91322241D-01 0.15129959D-01 0.33336163D+05 0.33336163D+05 0.33336163D+05 0.12101213D+01  1  2 12  8  6  1       21 0.239232592158D-04 0.100000000000D+01
-.538659785835D-05 0.000000000000D+00 -.124661661254D-05 0.251955818171D-05 0.000000000000D+00  6 -3 -2 25 -24 -1 -3 4 0.92343376D-01 0.15129959D-01 0.29568272D+05 0.29568272D+05 0.29568272D+05 0.12155597D+01  1  2  5  8  6  1       21 -.167232957806D-03 0.100000000000D+01
-.538659785835D-05 0.000000000000D+00 -.124661661254D-05 0.251955818171D-05 0.000000000000D+00  6 -4 -2 25 -24 -1 -4 4 0.92343376D-01 0.15129959D-01 0.29568272D+05 0.29568272D+05 0.29568272D+05 0.12155597D+01  1  2  5  8  6  1       21 -.134557808700D-03 0.100000000000D+01
0.946502228992D-06 0.000000000000D+00 0.000000000000D+00 0.249706376645D-05 0.000000000000D+00  6 3 -2 25 -24 3 -1 4 0.91322241D-01 0.15129959D-01 0.33336163D+05 0.33336163D+05 0.33336163D+05 0.12101213D+01  3  4 12  9  5  1       21 0.297324794228D-04 0.100000000000D+01
0.946502228992D-06 0.000000000000D+00 0.000000000000D+00 0.249706376645D-05 0.000000000000D+00  6 4 -2 25 -24 4 -1 4 0.91322241D-01 0.15129959D-01 0.33336163D+05 0.33336163D+05 0.33336163D+05 0.12101213D+01  3  4 12  9  5  1       21 0.239232592158D-04 0.100000000000D+01
-.538659785835D-05 0.000000000000D+00 -.124661661254D-05 0.251955818171D-05 0.000000000000D+00  6 3 -2 25 -24 3 -1 4 0.92343376D-01 0.15129959D-01 0.29568272D+05 0.29568272D+05 0.29568272D+05 0.12155597D+01  3  4  5  9  5  1       21 -.167516047792D-03 0.100000000000D+01
-.538659785835D-05 0.000000000000D+00 -.124661661254D-05 0.251955818171D-05 0.000000000000D+00  6 4 -2 25 -24 4 -1 4 0.92343376D-01 0.15129959D-01 0.29568272D+05 0.29568272D+05 0.29568272D+05 0.12155597D+01  3  4  5  9  5  1       21 -.134557808700D-03 0.100000000000D+01
  </mgrwgt>
  </event>
  <event>
  6     66 0.42720403E-03 0.11981548E+02 0.75467711E-02 0.10639171E+00
       21 -1    0    0  501  502 0.00000000E+00 0.00000000E+00 0.15553599E+03 0.15553780E+03 0.75000000E+00 0.0000E+00 0.9000E+01
       -2 -1    0    0    0  501 -.00000000E+00 -.00000000E+00 -.10428074E+04 0.10428075E+04 0.32000000E+00 0.0000E+00 0.9000E+01
       25  1    1    2    0    0 -.28842666E+03 -.95106824E+02 -.54707982E+03 0.63808822E+03 0.12500000E+03 0.0000E+00 0.9000E+01
      -24  1    1    2    0    0 0.28774653E+03 0.12012837E+03 -.37162321E+03 0.49173155E+03 0.80419002E+02 0.0000E+00 0.9000E+01
       -1  1    1    2    0  503 0.18368712E+02 -.11039146E+02 -.81792763E+01 0.22940691E+02 0.32000000E+00 0.0000E+00 0.9000E+01
       21  1    1    2  503  502 -.17688579E+02 -.13982396E+02 0.39610866E+02 0.45584827E+02 0.75000000E+00 0.0000E+00 0.9000E+01
#aMCatNLO 2  0  0  5  1 0.19503862D+02 0.00000000D+00  -5  6  0 0.00000000D+00 0.00000000D+00 0.00000000D+00 0.00000000D+00 0.00000000D+00
  <mgrwgt>
 0.2634311504D-01    1    2    0
 0.402734657204190D+03 0.000000000000000D+00 0.000000000000000D+00 0.402734657204190D+03
 0.402734657204190D+03 -.000000000000000D+00 -.000000000000000D+00 -.402734657204190D+03
 0.348065605686787D+03 -.288454578115461D+03 -.940797824164983D+02 -.116050061468340D+03
 0.322743144058931D+03 0.287720612040688D+03 0.121081803923668D+03 -.158734762479988D+02
 0.134660564662661D+03 0.733966074772334D+00 -.270020215071695D+02 0.131923537716339D+03
 0.000000000000000D+00 0.000000000000000D+00 0.000000000000000D+00 0.000000000000000D+00
 0.402734657204190D+03 0.000000000000000D+00 0.000000000000000D+00 0.402734657204190D+03
 0.402734657204190D+03 -.000000000000000D+00 -.000000000000000D+00 -.402734657204190D+03
 0.346718557527099D+03 -.288427417477765D+03 -.950790004300094D+02 -.111168190855161D+03
 0.322227476113614D+03 0.287745825357667D+03 0.120154226272962D+03 -.113416183219069D+02
 0.243633397043822D+02 0.178802601031391D+02 -.107167006644729D+02 0.126103507906522D+02
 0.112159941063285D+03 -.171986679830419D+02 -.143585251784793D+02 0.109899458386416D+03
0.426756870887D-03 0.000000000000D+00 0.000000000000D+00 0.995558173391D-06 0.117738350728D-07  6 21 -2 25 -24 -1 21 4 0.23928757D-01 0.16043206D+00 0.12030203D+06 0.12030203D+06 0.12030203D+06 0.11562689D+01  1  2  1  3  6  5       -1 0.263431150364D-01 0.100000000000D+01
  </mgrwgt>
  </event>
  <event>
  6     66 0.42720403E-03 0.28275574E+02 0.75467711E-02 0.11730114E+00
       21 -1    0    0  503  502 0.00000000E+00 0.00000000E+00 0.44046714E+03 0.44046778E+03 0.75000000E+00 0.0000E+00 0.9000E+01
       -4 -1    0    0    0  501 0.00000000E+00 0.00000000E+00 -.87766539E+03 0.87766675E+03 0.15500000E+01 0.0000E+00 0.9000E+01
       25  1    1    2    0    0 -.68056127E+02 -.75041107E+02 -.79920559E+03 0.81524068E+03 0.12500000E+03 0.0000E+00 0.9000E+01
      -24  1    1    2    0    0 0.61193092E+02 0.62345049E+02 -.53626412E+01 0.11885905E+03 0.80419002E+02 0.0000E+00 0.9000E+01
       -3  1    1    2    0  502 0.19647008E+02 0.37256789E+02 0.49655604E+02 0.65115299E+02 0.50000000E+00 0.0000E+00 0.9000E+01
       21  1    1    2  503  501 -.12783973E+02 -.24560731E+02 0.31771438E+03 0.31891950E+03 0.75000000E+00 0.0000E+00 0.9000E+01
#aMCatNLO 2  0  0  1  5 0.27688616D+02 0.00000000D+00  -5  6  0 0.00000000D+00 0.00000000D+00 0.00000000D+00 0.00000000D+00 0.00000000D+00
  <mgrwgt>
 0.6003973817D-01    3    2    0
 0.327021005350773D+03 0.000000000000000D+00 0.000000000000000D+00 0.327021005350773D+03
 0.327021005350773D+03 0.000000000000000D+00 0.000000000000000D+00 -.327021005350773D+03
 0.327171174683620D+03 -.744048755202507D+02 -.872384024241531D+02 -.279766604842603D+03
 0.171860178518058D+03 0.578023512563398D+02 0.558307163320160D+02 0.128881823035604D+03
 0.155010657499869D+03 0.166025242639109D+02 0.314076860921370D+02 0.150884781806999D+03
 0.000000000000000D+00 -.000000000000000D+00 -.000000000000000D+00 0.000000000000000D+00
 0.118026902484633D+04 0.000000000000000D+00 0.000000000000000D+00 0.118026902484633D+04
 0.327538627745444D+03 0.000000000000000D+00 0.000000000000000D+00 -.327538627745444D+03
 0.322733903466775D+03 -.680561627374322D+02 -.750411751986908D+02 -.279766604842603D+03
 0.175240493363275D+03 0.611930656030708D+02 0.623449995825733D+02 0.128881823035604D+03
 0.156653444938662D+03 0.196470702101102D+02 0.372569062371484D+02 0.150884781806999D+03
 0.853179810823066D+03 -.127839730757488D+02 -.245607306210310D+02 0.852730397100890D+03
-.155692777790D-02 0.000000000000D+00 0.000000000000D+00 0.393011609592D-06 0.000000000000D+00  6 21 -4 25 -24 -3 21 4 0.67726927D-01 0.13481214D+00 0.30527671D+05 0.30527671D+05 0.30527671D+05 0.12141044D+01  1  2 13  1  6  1       21 -.118794133679D-01 0.100000000000D+01
-.147523500644D-02 0.000000000000D+00 0.000000000000D+00 0.393011609592D-06 0.000000000000D+00  6 21 -4 25 -24 -3 21 4 0.71212443D-01 0.13481214D+00 0.30527671D+05 0.30527671D+05 0.30527671D+05 0.12141044D+01  1  2 13  1  6  1       21 -.100815946716D-01 0.100000000000D+01
0.108024076747D-01 0.000000000000D+00 0.000000000000D+00 0.398487235441D-06 0.806950281907D-07  6 21 -4 25 -24 -3 21 4 0.67764296D-01 0.13502553D+00 0.30527671D+05 0.30527671D+05 0.30527671D+05 0.12141044D+01  1  2  1  1  6  1       21 0.820007462111D-01 0.100000000000D+01
  </mgrwgt>
  </event>
  <event>
  5     66 0.42720403E-03 0.36606421E+02 0.75467711E-02 0.11889316E+00
       21 -1    0    0  501  502 0.00000000E+00 0.00000000E+00 0.82860120E+02 0.82863514E+02 0.75000000E+00 0.0000E+00 0.9000E+01
       -2 -1    0    0    0  501 -.00000000E+00 -.00000000E+00 -.41334584E+03 0.41334597E+03 0.32000000E+00 0.0000E+00 0.9000E+01
       25  1    1    2    0    0 0.85154696E+02 -.59948729E+02 -.14299023E+03 0.21660189E+03 0.12500000E+03 0.0000E+00 0.9000E+01
      -24  1    1    2    0    0 -.85652708E+02 0.23345988E+02 -.20622285E+03 0.23848795E+03 0.80419002E+02 0.0000E+00 0.9000E+01
       -1  1    1    2    0  502 0.49801181E+00 0.36602741E+02 0.18727359E+02 0.41119643E+02 0.32000000E+00 0.0000E+00 0.9000E+01
#aMCatNLO 1  0  0  5  1 0.16134915D+01 0.00000000D+00  -5  6  0 0.00000000D+00 0.00000000D+00 0.00000000D+00 0.00000000D+00 0.00000000D+00
  <mgrwgt>
 0.1474006600D-01    8    2    0
 0.185069605880311D+03 0.000000000000000D+00 0.000000000000000D+00 0.185069605880311D+03
 0.185069605880311D+03 -.000000000000000D+00 -.000000000000000D+00 -.185069605880311D+03
 0.162705543531171D+03 0.851546937916997D+02 -.599488887349207D+02 0.170374894389066D+01
 0.135587645799633D+03 -.856527095849924D+02 0.233458552055263D+02 -.635246261271004D+02
 0.718460224298175D+02 0.498015793292614D+00 0.366030335293944D+02 0.618208771832097D+02
 0.000000000000000D+00 0.000000000000000D+00 0.000000000000000D+00 0.000000000000000D+00
 0.185069605880311D+03 0.000000000000000D+00 0.000000000000000D+00 0.185069605880311D+03
 0.185069605880311D+03 -.000000000000000D+00 -.000000000000000D+00 -.185069605880311D+03
 0.162678034418779D+03 0.851557858862190D+02 -.598686222597497D+02 0.183931540997306D+01
 0.135545719168655D+03 -.856517995720663D+02 0.234127390957471D+02 -.634116622450343D+02
 0.400819889304163D+01 0.135134112328040D+01 0.107349402466386D+01 0.361761608158218D+01
 0.679072592801467D+02 -.855327437433198D+00 0.353823891393387D+02 0.579547307534790D+02
0.185118403141D-05 0.000000000000D+00 0.000000000000D+00 0.854341578045D-06 0.000000000000D+00  6 21 -2 25 -24 -1 21 2 0.12747981D-01 0.63591939D-01 0.25454418D+05 0.25454418D+05 0.25454418D+05 0.12224598D+01  1  2  2  3  6  5       -1 0.278050582712D-02 0.100000000000D+01
0.127891492474D-06 0.976896652093D-07 -.373700720965D-08 0.854341578045D-06 0.000000000000D+00  6 21 -2 25 -24 -1 21 4 0.12747981D-01 0.63591939D-01 0.25454418D+05 0.25454418D+05 0.25454418D+05 0.12224598D+01  1  2  3  3  6  5       -1 0.287068166572D-03 0.100000000000D+01
0.184409839345D-06 0.000000000000D+00 0.000000000000D+00 0.854341578045D-06 0.000000000000D+00  6 21 -2 25 -24 -1 21 4 0.12747981D-01 0.63591939D-01 0.25454418D+05 0.25454418D+05 0.25454418D+05 0.12224598D+01  1  2 15  3  6  5       -1 0.413930539512D-03 0.100000000000D+01
0.608855467373D-09 0.000000000000D+00 0.000000000000D+00 0.854140063388D-06 0.000000000000D+00  6 21 -2 25 -24 -1 21 4 0.12747981D-01 0.63591939D-01 0.25533543D+05 0.25533543D+05 0.25533543D+05 0.12223156D+01  1  2 12  3  6  5       -1 0.136601631165D-05 0.100000000000D+01
-.319293470898D-05 0.000000000000D+00 0.000000000000D+00 0.854341578045D-06 0.000000000000D+00  6 21 -2 25 -24 -1 21 4 0.12747981D-01 0.63591939D-01 0.25454418D+05 0.25454418D+05 0.25454418D+05 0.12224598D+01  1  2  4  3  6  5       -1 -.716693421244D-02 0.100000000000D+01
-.193410260634D-05 0.000000000000D+00 0.000000000000D+00 0.854341578045D-06 0.000000000000D+00  6 21 -2 25 -24 -1 21 4 0.12747981D-01 0.63591939D-01 0.25454418D+05 0.25454418D+05 0.25454418D+05 0.12224598D+01  1  2  5  3  6  5       -1 -.434133090812D-02 0.100000000000D+01
0.477906338049D-05 0.000000000000D+00 -.000000000000D+00 0.854341578045D-06 0.000000000000D+00  6 21 -2 25 -24 -1 21 4 0.12747981D-01 0.63591939D-01 0.25454418D+05 0.25454418D+05 0.25454418D+05 0.12224598D+01  1  2  6  3  6  5       -1 0.107271948746D-01 0.100000000000D+01
0.536564887727D-05 0.000000000000D+00 0.000000000000D+00 0.854341578045D-06 0.232526726848D-06  6 21 -2 25 -24 -1 21 4 0.12747981D-01 0.63591939D-01 0.25533543D+05 0.25533543D+05 0.25533543D+05 0.12223156D+01  1  2 11  3  6  5       -1 0.120382656997D-01 0.100000000000D+01
  </mgrwgt>
  </event>
  <event>
  5     66 0.42720403E-03 0.28415612E+02 0.75467711E-02 0.11958238E+00
       21 -1    0    0  501  502 0.00000000E+00 0.00000000E+00 0.18918342E+03 0.18918490E+03 0.75000000E+00 0.0000E+00 0.9000E+01
       -4 -1    0    0    0  501 0.00000000E+00 0.00000000E+00 -.15732986E+03 0.15733749E+03 0.15500000E+01 0.0000E+00 0.9000E+01
       25  1    1    2    0    0 -.92134279E+01 -.55471408E+02 0.10456035E+03 0.17239440E+03 0.12500000E+03 0.0000E+00 0.9000E+01
      -24  1    1    2    0    0 0.28746347E+02 0.76104139E+02 -.85649443E+02 0.14290289E+03 0.80419002E+02 0.0000E+00 0.9000E+01
       -3  1    1    2    0  502 -.19532919E+02 -.20632731E+02 0.12942657E+02 0.31225101E+02 0.50000000E+00 0.0000E+00 0.9000E+01
#aMCatNLO 1  0  0  1  2 0.27083486D+02 0.00000000D+00  -5  6  0 0.00000000D+00 0.00000000D+00 0.00000000D+00 0.00000000D+00 0.00000000D+00
  <mgrwgt>
 0.7153756807D-02   23    4    0
 0.172527620425092D+03 0.000000000000000D+00 0.000000000000000D+00 0.172527620425092D+03
 0.172527620425092D+03 0.000000000000000D+00 0.000000000000000D+00 -.172527620425092D+03
 0.163474103127363D+03 -.921215625908402D+01 -.554700648527061D+02 0.890897888401944D+02
 0.151418425829636D+03 0.287475249381003D+02 0.761053834590505D+02 -.992062202930773D+02
 0.301627118931854D+02 -.195353686790163D+02 -.206353186063444D+02 0.101164314528829D+02
 0.000000000000000D+00 0.000000000000000D+00 0.000000000000000D+00 0.000000000000000D+00
 0.188568547532490D+03 0.000000000000000D+00 0.000000000000000D+00 0.188568547532490D+03
 0.184881289371391D+03 0.000000000000000D+00 0.000000000000000D+00 -.184881289371391D+03
 0.164945562518106D+03 -.220605560075909D+02 -.561994660780671D+02 0.890897888401944D+02
 0.149292787754669D+03 0.169831323479178D+02 0.754375211151891D+02 -.992062202930773D+02
 0.318781538770238D+02 -.219625249292136D+02 -.207731078079329D+02 0.101164314528829D+02
 0.273333327540826D+02 0.270399485888867D+02 0.153505277081090D+01 0.368725816109964D+01
 0.172527620425092D+03 0.000000000000000D+00 0.000000000000000D+00 0.172527620425092D+03
 0.172527620425092D+03 0.000000000000000D+00 0.000000000000000D+00 -.172527620425092D+03
 0.163474103127363D+03 -.921215625908402D+01 -.554700648527061D+02 0.890897888401944D+02
 0.151418425829636D+03 0.287475249381003D+02 0.761053834590505D+02 -.992062202930773D+02
 0.000000000000000D+00 0.000000000000000D+00 0.000000000000000D+00 0.000000000000000D+00
 0.301627118931854D+02 -.195353686790163D+02 -.206353186063444D+02 0.101164314528829D+02
 0.188568547532490D+03 0.000000000000000D+00 0.000000000000000D+00 0.188568547532490D+03
 0.184881289371391D+03 0.000000000000000D+00 0.000000000000000D+00 -.184881289371391D+03
 0.164945562518106D+03 -.220605560075909D+02 -.561994660780671D+02 0.890897888401944D+02
 0.149292787754669D+03 0.169831323479178D+02 0.754375211151891D+02 -.992062202930773D+02
 0.273333327540826D+02 0.270399485888867D+02 0.153505277081090D+01 0.368725816109964D+01
 0.318781538770238D+02 -.219625249292136D+02 -.207731078079329D+02 0.101164314528829D+02
0.110838266932D-05 0.000000000000D+00 0.000000000000D+00 0.360998291855D-06 0.000000000000D+00  6 21 -4 25 -24 -3 21 2 0.29105843D-01 0.24205295D-01 0.19582241D+05 0.19582241D+05 0.19582241D+05 0.12348366D+01  1  2  2  1  6  1       21 0.125307524451D-02 0.100000000000D+01
0.334631749489D-07 0.584909604083D-07 -.223750527015D-08 0.360998291855D-06 0.000000000000D+00  6 21 -4 25 -24 -3 21 4 0.29105843D-01 0.24205295D-01 0.19582241D+05 0.19582241D+05 0.19582241D+05 0.12348366D+01  1  2  3  1  6  1       21 0.576864151533D-04 0.100000000000D+01
0.127716228292D-06 0.000000000000D+00 0.000000000000D+00 0.360998291855D-06 0.000000000000D+00  6 21 -4 25 -24 -3 21 4 0.29105843D-01 0.24205295D-01 0.19582241D+05 0.19582241D+05 0.19582241D+05 0.12348366D+01  1  2 15  1  6  1       21 0.220167135315D-03 0.100000000000D+01
0.176242833282D-05 0.000000000000D+00 0.000000000000D+00 0.355765012463D-06 0.000000000000D+00  6 21 -4 25 -24 -3 21 4 0.32769367D-01 0.24205295D-01 0.23668923D+05 0.23668923D+05 0.23668923D+05 0.12258534D+01  1  2 12  1  6  1       21 0.235869152984D-02 0.100000000000D+01
-.426044477664D-06 0.000000000000D+00 0.000000000000D+00 0.360998291855D-06 0.000000000000D+00  6 21 -4 25 -24 -3 21 4 0.29105843D-01 0.24205295D-01 0.19582241D+05 0.19582241D+05 0.19582241D+05 0.12348366D+01  1  2  4  1  6  1       21 -.734448498980D-03 0.100000000000D+01
-.980827260410D-05 0.000000000000D+00 -.259642997515D-05 0.360998291855D-06 0.000000000000D+00  6 21 -4 25 -24 -3 21 4 0.33926910D-01 0.24205295D-01 0.19582241D+05 0.19582241D+05 0.19582241D+05 0.12348366D+01  1  2  5  1  6  1       21 -.125523815358D-01 0.100000000000D+01
0.974910958013D-05 0.000000000000D+00 0.247838642664D-05 0.360998291855D-06 0.000000000000D+00  6 21 -4 25 -24 -3 21 4 0.29105843D-01 0.24205295D-01 0.19582241D+05 0.19582241D+05 0.19582241D+05 0.12348366D+01  1  2  6  1  6  1       21 0.168062708776D-01 0.100000000000D+01
0.546465537295D-07 0.000000000000D+00 0.000000000000D+00 0.355765012463D-06 0.000000000000D+00  6 -3 -4 25 -24 -3 -3 4 0.32769367D-01 0.24205295D-01 0.23668923D+05 0.23668923D+05 0.23668923D+05 0.12258534D+01  1  2 12  4  6  1       21 0.358668632913D-05 0.100000000000D+01
-.328637130850D-06 0.000000000000D+00 -.108484069034D-06 0.360998291855D-06 0.000000000000D+00  6 -3 -4 25 -24 -3 -3 4 0.33926910D-01 0.24205295D-01 0.19582241D+05 0.19582241D+05 0.19582241D+05 0.12348366D+01  1  2  5  4  6  1       21 -.205109440830D-04 0.100000000000D+01
0.546465537295D-07 0.000000000000D+00 0.000000000000D+00 0.355765012463D-06 0.000000000000D+00  6 3 -4 25 -24 3 -3 4 0.32769367D-01 0.24205295D-01 0.23668923D+05 0.23668923D+05 0.23668923D+05 0.12258534D+01  3  4 12  5  5  1       21 0.358692349758D-05 0.100000000000D+01
-.328637130850D-06 0.000000000000D+00 -.108484069034D-06 0.360998291855D-06 0.000000000000D+00  6 3 -4 25 -24 3 -3 4 0.33926910D-01 0.24205295D-01 0.19582241D+05 0.19582241D+05 0.19582241D+05 0.12348366D+01  3  4  5  5  5  1       21 -.205126142935D-04 0.100000000000D+01
0.546465537295D-07 0.000000000000D+00 0.000000000000D+00 0.355765012463D-06 0.000000000000D+00  6 -4 -4 25 -24 -3 -4 4 0.32769367D-01 0.24205295D-01 0.23668923D+05 0.23668923D+05 0.23668923D+05 0.12258534D+01  1  2 12  6  6  1       21 0.300375949902D-05 0.100000000000D+01
-.328637130850D-06 0.000000000000D+00 -.108484069034D-06 0.360998291855D-06 0.000000000000D+00  6 -4 -4 25 -24 -3 -4 4 0.33926910D-01 0.24205295D-01 0.19582241D+05 0.19582241D+05 0.19582241D+05 0.12348366D+01  1  2  5  6  6  1       21 -.171167954469D-04 0.100000000000D+01
0.546465537295D-07 0.000000000000D+00 0.000000000000D+00 0.355765012463D-06 0.000000000000D+00  6 4 -4 25 -24 4 -3 4 0.32769367D-01 0.24205295D-01 0.23668923D+05 0.23668923D+05 0.23668923D+05 0.12258534D+01  3  4 12  7  5  1       21 0.300375949902D-05 0.100000000000D+01
-.328637130850D-06 0.000000000000D+00 -.108484069034D-06 0.360998291855D-06 0.000000000000D+00  6 4 -4 25 -24 4 -3 4 0.33926910D-01 0.24205295D-01 0.19582241D+05 0.19582241D+05 0.19582241D+05 0.12348366D+01  3  4  5  7  5  1       21 -.171167954469D-04 0.100000000000D+01
0.546465537295D-07 0.000000000000D+00 0.000000000000D+00 0.355765012463D-06 0.000000000000D+00  6 -1 -4 25 -24 -3 -1 4 0.32769367D-01 0.24205295D-01 0.23668923D+05 0.23668923D+05 0.23668923D+05 0.12258534D+01  1  2 12  8  6  1       21 0.649164858184D-05 0.100000000000D+01
0.546465537295D-07 0.000000000000D+00 0.000000000000D+00 0.355765012463D-06 0.000000000000D+00  6 -2 -4 25 -24 -3 -2 4 0.32769367D-01 0.24205295D-01 0.23668923D+05 0.23668923D+05 0.23668923D+05 0.12258534D+01  1  2 12  8  6  1       21 0.563709943788D-05 0.100000000000D+01
-.328637130850D-06 0.000000000000D+00 -.108484069034D-06 0.360998291855D-06 0.000000000000D+00  6 -1 -4 25 -24 -3 -1 4 0.33926910D-01 0.24205295D-01 0.19582241D+05 0.19582241D+05 0.19582241D+05 0.12348366D+01  1  2  5  8  6  1       21 -.375171014975D-04 0.100000000000D+01
-.328637130850D-06 0.000000000000D+00 -.108484069034D-06 0.360998291855D-06 0.000000000000D+00  6 -2 -4 25 -24 -3 -2 4 0.33926910D-01 0.24205295D-01 0.19582241D+05 0.19582241D+05 0.19582241D+05 0.12348366D+01  1  2  5  8  6  1       21 -.324242088022D-04 0.100000000000D+01
0.546465537295D-07 0.000000000000D+00 0.000000000000D+00 0.355765012463D-06 0.000000000000D+00  6 1 -4 25 -24 1 -3 4 0.32769367D-01 0.24205295D-01 0.23668923D+05 0.23668923D+05 0.23668923D+05 0.12258534D+01  3  4 12  9  5  1       21 0.118689155040D-04 0.100000000000D+01
0.546465537295D-07 0.000000000000D+00 0.000000000000D+00 0.355765012463D-06 0.000000000000D+00  6 2 -4 25 -24 2 -3 4 0.32769367D-01 0.24205295D-01 0.23668923D+05 0.23668923D+05 0.23668923D+05 0.12258534D+01  3  4 12  9  5  1       21 0.158197922883D-04 0.100000000000D+01
-.328637130850D-06 0.000000000000D+00 -.108484069034D-06 0.360998291855D-06 0.000000000000D+00  6 1 -4 25 -24 1 -3 4 0.33926910D-01 0.24205295D-01 0.19582241D+05 0.19582241D+05 0.19582241D+05 0.12348366D+01  3  4  5  9  5  1       21 -.697039596175D-04 0.100000000000D+01
-.328637130850D-06 0.000000000000D+00 -.108484069034D-06 0.360998291855D-06 0.000000000000D+00  6 2 -4 25 -24 2 -3 4 0.33926910D-01 0.24205295D-01 0.19582241D+05 0.19582241D+05 0.19582241D+05 0.12348366D+01  3  4  5  9  5  1       21 -.934005257950D-04 0.100000000000D+01
  </mgrwgt>
  </event>
  <event>
  5     66 0.42720403E-03 0.10303909E+03 0.75467711E-02 0.94653562E-01
       21 -1    0    0  501  502 0.00000000E+00 0.00000000E+00 0.11027345E+03 0.11027600E+03 0.75000000E+00 0.0000E+00 0.9000E+01
       -2 -1    0    0    0  501 0.00000000E+00 0.00000000E+00 -.34801557E+03 0.34801572E+03 0.32000000E+00 0.0000E+00 0.9000E+01
       25  1    1    2    0    0 0.63645460E+02 0.49328137E+01 -.91896520E+02 0.16776486E+03 0.12500000E+03 0.0000E+00 0.9000E+01
      -24  1    1    2    0    0 -.39914713E+02 -.10520166E+03 -.12277491E+03 0.18493639E+03 0.80419002E+02 0.0000E+00 0.9000E+01
       -1  1    1    2    0  502 -.23730747E+02 0.10026885E+03 -.23070687E+02 0.10559048E+03 0.32000000E+00 0.0000E+00 0.9000E+01
#aMCatNLO 1  0  0  2  2 0.64244499D+02 0.00000000D+00  -5  6  0 0.00000000D+00 0.00000000D+00 0.00000000D+00 0.00000000D+00 0.00000000D+00
  <mgrwgt>
 0.5444376398D-02    5    4    0
 0.195901754585516D+03 0.000000000000000D+00 0.000000000000000D+00 0.195901754585516D+03
 0.195901754585516D+03 0.000000000000000D+00 0.000000000000000D+00 -.195901754585516D+03
 0.140472397052910D+03 0.636454967997786D+02 0.493266025135285D+01 -.569332361142092D+01
 0.141821331509542D+03 -.399146765966647D+02 -.105201814028594D+03 -.313922129523492D+02
 0.109509780608580D+03 -.237308202031139D+02 0.100269153777241D+03 0.370855365637701D+02
 0.000000000000000D+00 0.000000000000000D+00 -.000000000000000D+00 -.000000000000000D+00
 0.618263857414222D+03 0.000000000000000D+00 0.000000000000000D+00 0.618263857414222D+03
 0.152288729543373D+04 0.000000000000000D+00 0.000000000000000D+00 -.152288729543373D+04
 0.292441739687420D+03 -.291747885909649D+02 0.262704375464766D+03 -.569332361142092D+01
 0.150890713639792D+03 -.102674501842026D+03 0.690888351747330D+02 -.313922129523492D+02
 0.471991688855140D+03 -.148409429123512D+03 0.446514791102532D+03 0.370855365637701D+02
 0.122582701066560D+04 0.280258719556502D+03 -.778308001742031D+03 -.904623438019505D+03
 0.195901754585516D+03 0.000000000000000D+00 0.000000000000000D+00 0.195901754585516D+03
 0.195901754585516D+03 0.000000000000000D+00 0.000000000000000D+00 -.195901754585516D+03
 0.140472397052910D+03 0.636454967997786D+02 0.493266025135285D+01 -.569332361142092D+01
 0.141821331509542D+03 -.399146765966647D+02 -.105201814028594D+03 -.313922129523492D+02
 0.000000000000000D+00 0.000000000000000D+00 -.000000000000000D+00 -.000000000000000D+00
 0.109509780608580D+03 -.237308202031139D+02 0.100269153777241D+03 0.370855365637701D+02
 0.618263857414222D+03 0.000000000000000D+00 0.000000000000000D+00 0.618263857414222D+03
 0.152288729543373D+04 0.000000000000000D+00 0.000000000000000D+00 -.152288729543373D+04
 0.292441739687420D+03 -.291747885909649D+02 0.262704375464766D+03 -.569332361142092D+01
 0.150890713639792D+03 -.102674501842026D+03 0.690888351747330D+02 -.313922129523492D+02
 0.122582701066560D+04 0.280258719556502D+03 -.778308001742031D+03 -.904623438019505D+03
 0.471991688855140D+03 -.148409429123512D+03 0.446514791102532D+03 0.370855365637701D+02
0.415676460053D-05 0.000000000000D+00 0.000000000000D+00 0.203338656480D-06 0.000000000000D+00  6 21 -2 25 -24 -1 21 2 0.16965354D-01 0.53541065D-01 0.36423613D+05 0.36423613D+05 0.36423613D+05 0.12061530D+01  1  2  2  2  6  2       -2 0.514347905806D-02 0.100000000000D+01
-.247762045206D-06 0.219358494504D-06 -.839131011150D-08 0.203338656480D-06 0.000000000000D+00  6 21 -2 25 -24 -1 21 4 0.16965354D-01 0.53541065D-01 0.36423613D+05 0.36423613D+05 0.36423613D+05 0.12061530D+01  1  2  3  2  6  2       -2 -.446006463643D-03 0.100000000000D+01
0.409061832442D-06 0.000000000000D+00 0.000000000000D+00 0.203338656480D-06 0.000000000000D+00  6 21 -2 25 -24 -1 21 4 0.16965354D-01 0.53541065D-01 0.36423613D+05 0.36423613D+05 0.36423613D+05 0.12061530D+01  1  2 15  2  6  2       -2 0.736368724868D-03 0.100000000000D+01
0.200827773692D-04 0.000000000000D+00 -.996743854749D-05 0.203338656480D-06 0.000000000000D+00  6 21 -2 25 -24 -1 21 4 0.16965354D-01 0.62857114D+00 0.36423613D+05 0.36423613D+05 0.36423613D+05 0.12061530D+01  1  2  5  2  6  2       -2 0.526199035417D-05 0.100000000000D+01
0.392198030588D-05 0.000000000000D+00 -.286571139450D-05 0.203338656480D-06 0.000000000000D+00  6 21 21 25 -24 2 -1 4 0.16965354D-01 0.62857114D+00 0.36423613D+05 0.36423613D+05 0.36423613D+05 0.12061530D+01  3  4  5 10  5  2       -2 0.527308819230D-05 0.100000000000D+01
  </mgrwgt>
  </event>
  <event>
  5     66 -.42720403E-03 0.40742612E+02 0.75467711E-02 0.11408963E+00
       21 -1    0    0  501  502 0.00000000E+00 0.00000000E+00 0.14537048E+03 0.14537242E+03 0.75000000E+00 0.0000E+00 0.9000E+01
       -2 -1    0    0    0  501 -.00000000E+00 -.00000000E+00 -.49241419E+03 0.49241430E+03 0.32000000E+00 0.0000E+00 0.9000E+01
       25  1    1    2    0    0 -.88406278E+02 -.11250289E+03 -.50057076E+02 0.19647718E+03 0.12500000E+03 0.0000E+00 0.9000E+01
      -24  1    1    2    0    0 0.12903232E+03 0.11557993E+03 -.33498047E+03 0.38559978E+03 0.80419002E+02 0.0000E+00 0.9000E+01
       -1  1    1    2    0  502 -.40626041E+02 -.30770464E+01 0.37993835E+02 0.55709760E+02 0.32000000E+00 0.0000E+00 0.9000E+01
#aMCatNLO 1  0  0  5  1 0.13189959D+01 0.00000000D+00  -5  6  0 0.00000000D+00 0.00000000D+00 0.00000000D+00 0.00000000D+00 0.00000000D+00
  <mgrwgt>
 -.1439010813D-01    8    2    0
 0.267550256440500D+03 0.000000000000000D+00 0.000000000000000D+00 0.267550256440500D+03
 0.267550256440500D+03 -.000000000000000D+00 -.000000000000000D+00 -.267550256440500D+03
 0.201716272495393D+03 -.884061836139390D+02 -.112502880608859D+03 0.677635827193564D+02
 0.242342624922169D+03 0.129032432993264D+03 0.115579942812052D+03 -.149179891256154D+03
 0.910416154634380D+02 -.406262493793254D+02 -.307706220319291D+01 0.814163085367978D+02
 0.000000000000000D+00 0.000000000000000D+00 0.000000000000000D+00 0.000000000000000D+00
 0.267550256440500D+03 0.000000000000000D+00 0.000000000000000D+00 0.267550256440500D+03
 0.267550256440500D+03 -.000000000000000D+00 -.000000000000000D+00 -.267550256440500D+03
 0.201742354705349D+03 -.884287862739445D+02 -.112504592551060D+03 0.678088791759300D+02
 0.242293697367759D+03 0.129005282576145D+03 0.115577886419360D+03 -.149125480948265D+03
 0.839863179570965D+02 -.385807083632813D+02 -.327361659466066D+01 0.745286118250509D+02
 0.707814285079505D+01 -.199578793891897D+01 0.200322726360901D+00 0.678798994728410D+01
0.697003899069D-06 0.000000000000D+00 0.000000000000D+00 0.392511722638D-06 0.000000000000D+00  6 21 -2 25 -24 -1 21 2 0.22364847D-01 0.75756186D-01 0.44462207D+05 0.44462207D+05 0.44462207D+05 0.11973637D+01  1  2  2  3  6  5       -1 0.244505437616D-03 0.100000000000D+01
0.605285824601D-07 0.367819062797D-07 -.140705005649D-08 0.392511722638D-06 0.000000000000D+00  6 21 -2 25 -24 -1 21 4 0.22364847D-01 0.75756186D-01 0.44462207D+05 0.44462207D+05 0.44462207D+05 0.11973637D+01  1  2  3  3  6  5       -1 0.304414984770D-04 0.100000000000D+01
0.735538060707D-07 0.000000000000D+00 0.000000000000D+00 0.392511722638D-06 0.000000000000D+00  6 21 -2 25 -24 -1 21 4 0.22364847D-01 0.75756186D-01 0.44462207D+05 0.44462207D+05 0.44462207D+05 0.11973637D+01  1  2 15  3  6  5       -1 0.369922437380D-04 0.100000000000D+01
0.665844607045D-09 0.000000000000D+00 0.000000000000D+00 0.392515178911D-06 0.000000000000D+00  6 21 -2 25 -24 -1 21 4 0.22364847D-01 0.75756186D-01 0.44456829D+05 0.44456829D+05 0.44456829D+05 0.11973690D+01  1  2 12  3  6  5       -1 0.334878477773D-06 0.100000000000D+01
-.287227209074D-03 0.000000000000D+00 0.000000000000D+00 0.392511722638D-06 0.000000000000D+00  6 21 -2 25 -24 -1 21 4 0.22364847D-01 0.75756186D-01 0.44462207D+05 0.44462207D+05 0.44462207D+05 0.11973637D+01  1  2  4  3  6  5       -1 -.144454508799D+00 0.100000000000D+01
-.749973938484D-04 0.000000000000D+00 0.000000000000D+00 0.392511722638D-06 0.000000000000D+00  6 21 -2 25 -24 -1 21 4 0.22364847D-01 0.75756186D-01 0.44462207D+05 0.44462207D+05 0.44462207D+05 0.11973637D+01  1  2  5  3  6  5       -1 -.377182639643D-01 0.100000000000D+01
0.834793869796D-04 0.000000000000D+00 -.000000000000D+00 0.392511722638D-06 0.000000000000D+00  6 21 -2 25 -24 -1 21 4 0.22364847D-01 0.75756186D-01 0.44462207D+05 0.44462207D+05 0.44462207D+05 0.11973637D+01  1  2  6  3  6  5       -1 0.419840929411D-01 0.100000000000D+01
0.249506552633D-03 0.000000000000D+00 0.000000000000D+00 0.392511722638D-06 0.516538125123D-05  6 21 -2 25 -24 -1 21 4 0.22364847D-01 0.75756186D-01 0.44456829D+05 0.44456829D+05 0.44456829D+05 0.11973690D+01  1  2 11  3  6  5       -1 0.125486297637D+00 0.100000000000D+01
  </mgrwgt>
  </event>
  <event>
  6     66 -.42720403E-03 0.27735490E+02 0.75467711E-02 0.12196171E+00
       21 -1    0    0  501  503 0.00000000E+00 0.00000000E+00 0.14340226E+04 0.14340228E+04 0.75000000E+00 0.0000E+00 0.9000E+01
       -2 -1    0    0    0  501 0.00000000E+00 0.00000000E+00 -.26373095E+02 0.26375037E+02 0.32000000E+00 0.0000E+00 0.9000E+01
       25  1    1    2    0    0 -.27449825E+02 0.21401182E+01 0.17234589E+03 0.21467692E+03 0.12500000E+03 0.0000E+00 0.9000E+01
      -24  1    1    2    0    0 0.58196269E+02 0.59268184E+01 0.63283732E+03 0.64060302E+03 0.80419002E+02 0.0000E+00 0.9000E+01
       -1  1    1    2    0  502 -.32890675E+02 0.21637357E+01 0.57103335E+03 0.57198397E+03 0.32000000E+00 0.0000E+00 0.9000E+01
       21  1    1    2  502  503 0.21442315E+01 -.10230672E+02 0.31432901E+02 0.33133883E+02 0.75000000E+00 0.0000E+00 0.9000E+01
#aMCatNLO 2  0  0  1  2 0.10452961D+02 0.00000000D+00  -5  6  0 0.00000000D+00 0.00000000D+00 0.00000000D+00 0.00000000D+00 0.00000000D+00
  <mgrwgt>
 -.1439175963D-01    3    2    0
 0.189077348581559D+03 0.000000000000000D+00 0.000000000000000D+00 0.189077348581559D+03
 0.189077348581559D+03 0.000000000000000D+00 0.000000000000000D+00 -.189077348581559D+03
 0.182821115271133D+03 -.264128517145381D+02 -.280695404922270D+01 -.130740362789203D+03
 0.114906663750584D+03 0.588471669796456D+02 0.282158983023077D+01 0.571434597239158D+02
 0.804269181414015D+02 -.324343152651075D+02 -.146357810080699D-01 0.735969030652868D+02
 0.000000000000000D+00 0.000000000000000D+00 -.000000000000000D+00 -.000000000000000D+00
 0.193492706676160D+03 0.000000000000000D+00 0.000000000000000D+00 0.193492706676160D+03
 0.195439055792879D+03 0.000000000000000D+00 0.000000000000000D+00 -.195439055792879D+03
 0.182964774609670D+03 -.274497023371226D+02 0.214012320165824D+01 -.130740362789203D+03
 0.114693212117993D+03 0.581963469758525D+02 0.592681710699823D+01 0.571434597239158D+02
 0.806411533333698D+02 -.328908761517003D+02 0.216373198625535D+01 0.735969030652868D+02
 0.106326224080067D+02 0.214423151297043D+01 -.102306722949118D+02 -.194634911671917D+01
-.317151956946D-04 0.000000000000D+00 0.000000000000D+00 0.939372249880D-06 0.000000000000D+00  6 21 -2 25 -24 -1 21 4 0.22412979D+00 0.39252197D-02 0.18340679D+05 0.18340679D+05 0.18340679D+05 0.12379887D+01  1  2 13  1  6  1       21 -.160248907188D-01 0.100000000000D+01
-.588661622146D-05 0.000000000000D+00 0.000000000000D+00 0.945457964797D-06 0.000000000000D+00  6 21 -2 25 -24 -1 21 4 0.21557000D+00 0.39252197D-02 0.16889028D+05 0.16889028D+05 0.16889028D+05 0.12419924D+01  1  2  8  1  6  1       21 -.340470455539D-02 0.100000000000D+01
0.997593838980D-05 0.000000000000D+00 0.000000000000D+00 0.945457964797D-06 0.707650432053D-07  6 21 -2 25 -24 -1 21 4 0.22060402D+00 0.40572878D-02 0.18340679D+05 0.18340679D+05 0.18340679D+05 0.12379887D+01  1  2  1  1  6  1       21 0.503783564784D-02 0.100000000000D+01
  </mgrwgt>
  </event>
  <event>
  6     66 0.42720403E-03 0.12748556E+03 0.75467711E-02 0.11403951E+00
       21 -1    0    0  501  502 0.00000000E+00 0.00000000E+00 0.10122544E+04 0.10122547E+04 0.75000000E+00 0.0000E+00 0.9000E+01
       -2 -1    0    0    0  501 0.00000000E+00 0.00000000E+00 -.54935277E+02 0.54936209E+02 0.32000000E+00 0.0000E+00 0.9000E+01
       25  1    1    2    0    0 0.54347102E+02 0.94998514E+02 0.16507595E+03 0.23420802E+03 0.12500000E+03 0.0000E+00 0.9000E+01
      -24  1    1    2    0    0 -.65611765E+02 0.29050863E+02 0.31331376E+03 0.33133304E+03 0.80419002E+02 0.0000E+00 0.9000E+01
       -1  1    1    2    0  503 0.16529413E+01 -.13467466E+03 0.44045676E+03 0.46058903E+03 0.32000000E+00 0.0000E+00 0.9000E+01
       21  1    1    2  503  502 0.96117215E+01 0.10625278E+02 0.38472646E+02 0.41060793E+02 0.75000000E+00 0.0000E+00 0.9000E+01
#aMCatNLO 2  0  0  5  5 0.13165374D+02 0.00000000D+00  -5  6  0 0.00000000D+00 0.00000000D+00 0.00000000D+00 0.00000000D+00 0.00000000D+00
  <mgrwgt>
 0.3632333538D-02    2    2    0
 0.235815863187986D+03 0.000000000000000D+00 0.000000000000000D+00 0.235815863187986D+03
 0.235815863187986D+03 -.000000000000000D+00 -.000000000000000D+00 -.235815863187986D+03
 0.201249576810127D+03 0.535801790213784D+02 0.103444067324142D+03 -.106324416376158D+03
 0.114570268222047D+03 -.660538212481710D+02 0.339189031529414D+02 0.338456956423909D+02
 0.155811881343797D+03 0.124736422267925D+02 -.137362970477083D+03 0.724787207337676D+02
 0.000000000000000D+00 0.000000000000000D+00 0.000000000000000D+00 0.000000000000000D+00
 0.235815863187986D+03 0.000000000000000D+00 0.000000000000000D+00 0.235815863187986D+03
 0.235815863187986D+03 -.000000000000000D+00 -.000000000000000D+00 -.235815863187986D+03
 0.194861643710267D+03 0.543500667808328D+02 0.949658644344158D+02 -.101850945123794D+03
 0.113760585918991D+03 -.656100339465187D+02 0.290318027450081D+02 0.364243439086176D+02
 0.148143048321459D+03 0.160615926196336D+01 -.134672191449590D+03 0.617023813848724D+02
 0.148664484252550D+02 0.965380790372248D+01 0.106745242701662D+02 0.372421983030360D+01
-.323334706979D-05 0.000000000000D+00 0.000000000000D+00 0.173525198471D-06 0.000000000000D+00  6 21 -2 25 -24 -1 21 4 0.15573154D+00 0.84516742D-02 0.43734298D+05 0.43734298D+05 0.43734298D+05 0.11980838D+01  1  2  8  3  6  5       -1 -.121558647650D-02 0.100000000000D+01
0.129494386384D-04 0.000000000000D+00 0.000000000000D+00 0.173525198471D-06 0.838361044875D-08  6 21 -2 25 -24 -1 21 4 0.15573154D+00 0.84516742D-02 0.44726045D+05 0.44726045D+05 0.44726045D+05 0.11971060D+01  1  2  1  3  6  5       -1 0.484792001418D-02 0.100000000000D+01
  </mgrwgt>
  </event>
  <event>
  6     66 0.42720403E-03 0.13524837E+02 0.75467711E-02 0.11920390E+00
       21 -1    0    0  501  502 0.00000000E+00 0.00000000E+00 0.70623389E+03 0.70623429E+03 0.75000000E+00 0.0000E+00 0.9000E+01
       -2 -1    0    0    0  501 0.00000000E+00 0.00000000E+00 -.51918634E+02 0.51919620E+02 0.32000000E+00 0.0000E+00 0.9000E+01
       25  1    1    2    0    0 0.76741495E+02 -.52046286E+02 0.22906138E+03 0.27693354E+03 0.12500000E+03 0.0000E+00 0.9000E+01
      -24  1    1    2    0    0 -.59179749E+02 0.46421554E+02 0.94674629E+02 0.14521606E+03 0.80419002E+02 0.0000E+00 0.9000E+01
       -1  1    1    2    0  503 -.17968531E+02 -.17454094E+02 0.27020165E+03 0.27136055E+03 0.32000000E+00 0.0000E+00 0.9000E+01
       21  1    1    2  503  502 0.40678557E+00 0.23078825E+02 0.60377599E+02 0.64643751E+02 0.75000000E+00 0.0000E+00 0.9000E+01
#aMCatNLO 2  0  0  5  5 0.13165374D+02 0.00000000D+00  -5  6  0 0.00000000D+00 0.00000000D+00 0.00000000D+00 0.00000000D+00 0.00000000D+00
  <mgrwgt>
 0.9939452443D-03    1    2    0
 0.191486875108731D+03 0.000000000000000D+00 0.000000000000000D+00 0.191486875108731D+03
 0.191486875108731D+03 -.000000000000000D+00 -.000000000000000D+00 -.191486875108731D+03
 0.158930988803343D+03 0.783529054153746D+02 -.525623936966543D+02 -.270569063984698D+02
 0.127947848958494D+03 -.578853885997855D+02 0.460069924832389D+02 -.666038627110628D+02
 0.960949124556260D+02 -.204675168155891D+02 0.655540121341543D+01 0.936607691095325D+02
 0.000000000000000D+00 0.000000000000000D+00 0.000000000000000D+00 0.000000000000000D+00
 0.191486875108731D+03 0.000000000000000D+00 0.000000000000000D+00 0.191486875108731D+03
 0.191486875108731D+03 -.000000000000000D+00 -.000000000000000D+00 -.191486875108731D+03
 0.156865995319429D+03 0.767318093629724D+02 -.520431839104976D+02 -.196386590147534D+02
 0.125711640277754D+03 -.591875112207392D+02 0.464240404469134D+02 -.606452597573054D+02
 0.753831320109213D+02 -.179378971286722D+02 -.176291570340023D+02 0.710637830448651D+02
 0.250129826093586D+02 0.393598986439019D+00 0.232483004975865D+02 0.922013572719364D+01
0.880376128829D-06 0.000000000000D+00 0.000000000000D+00 0.411632130793D-05 0.358585007708D-07  6 21 -2 25 -24 -1 21 4 0.10865147D+00 0.79875886D-02 0.24672598D+05 0.24672598D+05 0.24672598D+05 0.12239119D+01  1  2  1  3  6  5       -1 0.993945244346D-03 0.100000000000D+01
  </mgrwgt>
  </event>
  <event>
  5     66 0.42720403E-03 0.93279845E+02 0.75467711E-02 0.11882368E+00
       21 -1    0    0  501  502 0.00000000E+00 0.00000000E+00 0.29246686E+03 0.29246783E+03 0.75000000E+00 0.0000E+00 0.9000E+01
       -2 -1    0    0    0  501 0.00000000E+00 0.00000000E+00 -.12379131E+03 0.12379172E+03 0.32000000E+00 0.0000E+00 0.9000E+01
       25  1    1    2    0    0 0.58715077E+02 0.19642888E+02 -.12725687E+02 0.14007229E+03 0.12500000E+03 0.0000E+00 0.9000E+01
      -24  1    1    2    0    0 0.48437090E+02 -.52664771E+01 0.11790667E+03 0.15080811E+03 0.80419002E+02 0.0000E+00 0.9000E+01
       -1  1    1    2    0  502 -.10715217E+03 -.14376411E+02 0.63494572E+02 0.12537915E+03 0.32000000E+00 0.0000E+00 0.9000E+01
#aMCatNLO 1  0  0  5  1 0.28006785D+02 0.00000000D+00  -5  6  0 0.00000000D+00 0.00000000D+00 0.00000000D+00 0.00000000D+00 0.00000000D+00
  <mgrwgt>
 0.6363309164D-02    7    2    0
 0.190276489698142D+03 0.000000000000000D+00 0.000000000000000D+00 0.190276489698142D+03
 0.190276489698142D+03 -.000000000000000D+00 -.000000000000000D+00 -.190276489698142D+03
 0.158855604164680D+03 0.587152696279419D+02 0.196429138104340D+02 -.760051052501051D+02
 0.112697479296571D+03 0.484372271802478D+02 -.526645878231012D+01 0.621257218904840D+02
 0.108999895935033D+03 -.107152496808190D+03 -.143764550281238D+02 0.138793833596211D+02
 0.000000000000000D+00 0.000000000000000D+00 0.000000000000000D+00 0.000000000000000D+00
 0.190276489698142D+03 0.000000000000000D+00 0.000000000000000D+00 0.190276489698142D+03
 0.190276489698142D+03 -.000000000000000D+00 -.000000000000000D+00 -.190276489698142D+03
 0.155077152861573D+03 0.498083108521641D+02 0.184478833996490D+02 -.748513934925653D+02
 0.110631689977847D+03 0.421008903067128D+02 -.611659354182471D+01 0.629464629015023D+02
 0.320476751140370D+02 -.195953136461389D+02 0.372397792592658D+01 -.250840417742340D+02
 0.827964614428271D+02 -.723138875127379D+02 -.160552677837509D+02 0.369889723652970D+02
0.438411688240D-05 0.000000000000D+00 0.000000000000D+00 0.176948801977D-06 0.000000000000D+00  6 21 -2 25 -24 -1 21 2 0.44995008D-01 0.19044923D-01 0.29178267D+05 0.29178267D+05 0.29178267D+05 0.12161664D+01  1  2  2  3  6  5       -1 0.559939173893D-02 0.100000000000D+01
-.370552170581D-06 0.231356204037D-06 -.885026886550D-08 0.176948801977D-06 0.000000000000D+00  6 21 -2 25 -24 -1 21 4 0.44995008D-01 0.19044923D-01 0.29178267D+05 0.29178267D+05 0.29178267D+05 0.12161664D+01  1  2  3  3  6  5       -1 -.699993594291D-03 0.100000000000D+01
0.460087639867D-06 0.000000000000D+00 0.000000000000D+00 0.176948801977D-06 0.000000000000D+00  6 21 -2 25 -24 -1 21 4 0.44995008D-01 0.19044923D-01 0.29178267D+05 0.29178267D+05 0.29178267D+05 0.12161664D+01  1  2 15  3  6  5       -1 0.869131059776D-03 0.100000000000D+01
0.870547164972D-06 0.000000000000D+00 0.000000000000D+00 0.178638268064D-06 0.000000000000D+00  6 21 -2 25 -24 -1 21 4 0.44995008D-01 0.19044923D-01 0.25730758D+05 0.25730758D+05 0.25730758D+05 0.12219584D+01  1  2 12  3  6  5       -1 0.167821457288D-02 0.100000000000D+01
-.117669077602D-05 0.000000000000D+00 0.000000000000D+00 0.176948801977D-06 0.000000000000D+00  6 21 -2 25 -24 -1 21 4 0.44995008D-01 0.19044923D-01 0.29178267D+05 0.29178267D+05 0.29178267D+05 0.12161664D+01  1  2  4  3  6  5       -1 -.222283411370D-02 0.100000000000D+01
-.677149263778D-06 0.000000000000D+00 0.000000000000D+00 0.176948801977D-06 0.000000000000D+00  6 21 -2 25 -24 -1 21 4 0.44995008D-01 0.19044923D-01 0.29178267D+05 0.29178267D+05 0.29178267D+05 0.12161664D+01  1  2  5  3  6  5       -1 -.127917250162D-02 0.100000000000D+01
0.128030758043D-05 0.000000000000D+00 -.000000000000D+00 0.176948801977D-06 0.000000000000D+00  6 21 -2 25 -24 -1 21 4 0.44995008D-01 0.19044923D-01 0.29178267D+05 0.29178267D+05 0.29178267D+05 0.12161664D+01  1  2  6  3  6  5       -1 0.241857200194D-02 0.100000000000D+01
  </mgrwgt>
  </event>
  <event>
  5     66 0.42720403E-03 0.13529678E+03 0.75467711E-02 0.97773749E-01
       21 -1    0    0  501  502 0.00000000E+00 0.00000000E+00 0.15253529E+03 0.15253713E+03 0.75000000E+00 0.0000E+00 0.9000E+01
       -2 -1    0    0    0  501 0.00000000E+00 0.00000000E+00 -.12793932E+04 0.12793933E+04 0.32000000E+00 0.0000E+00 0.9000E+01
       25  1    1    2    0    0 0.22376968E+02 -.14755596E+03 -.94177010E+03 0.96168051E+03 0.12500000E+03 0.0000E+00 0.9000E+01
      -24  1    1    2    0    0 -.15145442E+03 0.18810484E+03 -.21324016E+03 0.33205490E+03 0.80419002E+02 0.0000E+00 0.9000E+01
       -1  1    1    2    0  502 0.12907745E+03 -.40548875E+02 0.28152316E+02 0.13819499E+03 0.32000000E+00 0.0000E+00 0.9000E+01
#aMCatNLO 1  0  0  2  1 0.16648089D+02 0.00000000D+00  -5  6  0 0.00000000D+00 0.00000000D+00 0.00000000D+00 0.00000000D+00 0.00000000D+00
  <mgrwgt>
 0.1258438246D-01    3    2    0
 0.441762334443081D+03 0.000000000000000D+00 0.000000000000000D+00 0.441762334443081D+03
 0.441762334443081D+03 0.000000000000000D+00 0.000000000000000D+00 -.441762334443081D+03
 0.357452936800959D+03 0.223769280121591D+02 -.147555951180822D+03 -.299790120570195D+03
 0.266193062160620D+03 -.151454449169553D+03 0.188104847491999D+03 0.779079364688615D+02
 0.259878669924582D+03 0.129077521157394D+03 -.405488963111771D+02 0.221882184101333D+03
 0.000000000000000D+00 0.000000000000000D+00 -.000000000000000D+00 0.000000000000000D+00
 0.834030801516567D+03 0.000000000000000D+00 0.000000000000000D+00 0.834030801516567D+03
 0.810610238417309D+03 0.000000000000000D+00 0.000000000000000D+00 -.810610238417309D+03
 0.329888124983384D+03 -.497654940553586D+01 0.574655772578257D+02 -.299790120570195D+03
 0.455849499700220D+03 -.180188910135996D+03 0.403477211898933D+03 0.779079364688615D+02
 0.273737173576753D+03 0.107841704273348D+03 0.118619152735262D+03 0.221882184101333D+03
 0.585166241673518D+03 0.773237552681832D+02 -.579561941892021D+03 0.234205630992575D+02
0.391251000343D-03 0.000000000000D+00 0.000000000000D+00 0.831241021136D-07 0.000000000000D+00  6 21 -2 25 -24 -1 21 2 0.23467112D-01 0.19682987D+00 0.85412736D+05 0.85412736D+05 0.85412736D+05 0.11699151D+01  1  2  2  2  6  2       -2 0.110473573466D-01 0.100000000000D+01
-.193800754224D-05 0.206468825292D-04 -.789823045282D-06 0.831241021136D-07 0.000000000000D+00  6 21 -2 25 -24 -1 21 4 0.23467112D-01 0.19682987D+00 0.85412736D+05 0.85412736D+05 0.85412736D+05 0.11699151D+01  1  2  3  2  6  2       -2 -.748974551161D-04 0.100000000000D+01
0.417092689475D-04 0.000000000000D+00 0.000000000000D+00 0.831241021136D-07 0.000000000000D+00  6 21 -2 25 -24 -1 21 4 0.23467112D-01 0.19682987D+00 0.85412736D+05 0.85412736D+05 0.85412736D+05 0.11699151D+01  1  2 15  2  6  2       -2 0.161192257039D-02 0.100000000000D+01
  </mgrwgt>
  </event>
  <event>
  5     66 0.42720403E-03 0.33497387E+02 0.75467711E-02 0.12198776E+00
       21 -1    0    0  501  502 0.00000000E+00 0.00000000E+00 0.97911593E+02 0.97914465E+02 0.75000000E+00 0.0000E+00 0.9000E+01
       -2 -1    0    0    0  501 0.00000000E+00 0.00000000E+00 -.19856419E+03 0.19856445E+03 0.32000000E+00 0.0000E+00 0.9000E+01
       25  1    1    2    0    0 -.21777376E+02 -.54664667E+02 -.10138427E+03 0.17136584E+03 0.12500000E+03 0.0000E+00 0.9000E+01
      -24  1    1    2    0    0 0.78311791E+01 0.24209165E+02 -.18686762E+02 0.86393414E+02 0.80419002E+02 0.0000E+00 0.9000E+01
       -1  1    1    2    0  502 0.13946197E+02 0.30455502E+02 0.19418438E+02 0.38719661E+02 0.32000000E+00 0.0000E+00 0.9000E+01
#aMCatNLO 1  0  0  1  2 0.14007312D+02 0.00000000D+00  -5  6  0 0.00000000D+00 0.00000000D+00 0.00000000D+00 0.00000000D+00 0.00000000D+00
  <mgrwgt>
 0.2288998328D-01   23    4    0
 0.139435290795998D+03 0.000000000000000D+00 0.000000000000000D+00 0.139435290795998D+03
 0.139435290795998D+03 0.000000000000000D+00 0.000000000000000D+00 -.139435290795998D+03
 0.145593865650461D+03 -.217775368279338D+02 -.546650174084421D+02 -.459352639753734D+02
 0.851037321144020D+02 0.783108522871848D+01 0.242089596877427D+02 0.113150183564661D+02
 0.481729838271338D+02 0.139464515992153D+02 0.304560577206994D+02 0.346202456189073D+02
 0.000000000000000D+00 -.000000000000000D+00 0.000000000000000D+00 0.000000000000000D+00
 0.147322127654043D+03 0.000000000000000D+00 0.000000000000000D+00 0.147322127654043D+03
 0.145972224950256D+03 0.000000000000000D+00 0.000000000000000D+00 -.145972224950256D+03
 0.145521655380042D+03 -.147812387829909D+02 -.567716362993048D+02 -.459352639753734D+02
 0.852370707476714D+02 0.119248381891217D+02 0.229763110404850D+02 0.113150183564661D+02
 0.484634185460046D+02 0.162688872790452D+02 0.297567612006663D+02 0.346202456189073D+02
 0.140722079305817D+02 -.134124866851760D+02 0.403856405815353D+01 0.134990270378750D+01
 0.139435290795998D+03 0.000000000000000D+00 0.000000000000000D+00 0.139435290795998D+03
 0.139435290795998D+03 0.000000000000000D+00 0.000000000000000D+00 -.139435290795998D+03
 0.145593865650461D+03 -.217775368279338D+02 -.546650174084421D+02 -.459352639753734D+02
 0.851037321144020D+02 0.783108522871848D+01 0.242089596877427D+02 0.113150183564661D+02
 0.000000000000000D+00 -.000000000000000D+00 0.000000000000000D+00 0.000000000000000D+00
 0.481729838271338D+02 0.139464515992153D+02 0.304560577206994D+02 0.346202456189073D+02
 0.147322127654043D+03 0.000000000000000D+00 0.000000000000000D+00 0.147322127654043D+03
 0.145972224950256D+03 0.000000000000000D+00 0.000000000000000D+00 -.145972224950256D+03
 0.145521655380042D+03 -.147812387829909D+02 -.567716362993048D+02 -.459352639753734D+02
 0.852370707476714D+02 0.119248381891217D+02 0.229763110404850D+02 0.113150183564661D+02
 0.140722079305817D+02 -.134124866851760D+02 0.403856405815353D+01 0.134990270378750D+01
 0.484634185460046D+02 0.162688872790452D+02 0.297567612006663D+02 0.346202456189073D+02
0.648112629370D-06 0.000000000000D+00 0.000000000000D+00 0.107804716403D-05 0.000000000000D+00  6 21 -2 25 -24 -1 21 2 0.15063563D-01 0.30548578D-01 0.16384407D+05 0.16384407D+05 0.16384407D+05 0.12434753D+01  1  2  2  1  6  1       21 0.307206822958D-02 0.100000000000D+01
0.195495042111D-07 0.342018430945D-07 -.130835266917D-08 0.107804716403D-05 0.000000000000D+00  6 21 -2 25 -24 -1 21 4 0.15063563D-01 0.30548578D-01 0.16384407D+05 0.16384407D+05 0.16384407D+05 0.12434753D+01  1  2  3  1  6  1       21 0.143281617755D-03 0.100000000000D+01
0.663846831258D-07 0.000000000000D+00 0.000000000000D+00 0.107804716403D-05 0.000000000000D+00  6 21 -2 25 -24 -1 21 4 0.15063563D-01 0.30548578D-01 0.16384407D+05 0.16384407D+05 0.16384407D+05 0.12434753D+01  1  2 15  1  6  1       21 0.486544553239D-03 0.100000000000D+01
0.154294394673D-05 0.000000000000D+00 0.000000000000D+00 0.106878293955D-05 0.000000000000D+00  6 21 -2 25 -24 -1 21 4 0.16250668D-01 0.30548578D-01 0.18290571D+05 0.18290571D+05 0.18290571D+05 0.12381209D+01  1  2 12  1  6  1       21 0.970303684331D-02 0.100000000000D+01
-.405107444019D-06 0.000000000000D+00 0.000000000000D+00 0.107804716403D-05 0.000000000000D+00  6 21 -2 25 -24 -1 21 4 0.15063563D-01 0.30548578D-01 0.16384407D+05 0.16384407D+05 0.16384407D+05 0.12434753D+01  1  2  4  1  6  1       21 -.296910086910D-02 0.100000000000D+01
-.109539403038D-04 0.000000000000D+00 -.225344260325D-05 0.107804716403D-05 0.000000000000D+00  6 21 -2 25 -24 -1 21 4 0.16636510D-01 0.30548578D-01 0.16384407D+05 0.16384407D+05 0.16384407D+05 0.12434753D+01  1  2  5  1  6  1       21 -.670717475806D-01 0.100000000000D+01
0.109454321411D-04 0.000000000000D+00 0.220959762098D-05 0.107804716403D-05 0.000000000000D+00  6 21 -2 25 -24 -1 21 4 0.15063563D-01 0.30548578D-01 0.16384407D+05 0.16384407D+05 0.16384407D+05 0.12434753D+01  1  2  6  1  6  1       21 0.802209205552D-01 0.100000000000D+01
0.290237358631D-07 0.000000000000D+00 0.000000000000D+00 0.106878293955D-05 0.000000000000D+00  6 -1 -2 25 -24 -1 -1 4 0.16250668D-01 0.30548578D-01 0.18290571D+05 0.18290571D+05 0.18290571D+05 0.12381209D+01  1  2 12  4  6  1       21 0.135476701269D-04 0.100000000000D+01
-.237638787630D-06 0.000000000000D+00 -.571329382484D-07 0.107804716403D-05 0.000000000000D+00  6 -1 -2 25 -24 -1 -1 4 0.16636510D-01 0.30548578D-01 0.16384407D+05 0.16384407D+05 0.16384407D+05 0.12434753D+01  1  2  5  4  6  1       21 -.108406688908D-03 0.100000000000D+01
0.290237358631D-07 0.000000000000D+00 0.000000000000D+00 0.106878293955D-05 0.000000000000D+00  6 1 -2 25 -24 1 -1 4 0.16250668D-01 0.30548578D-01 0.18290571D+05 0.18290571D+05 0.18290571D+05 0.12381209D+01  3  4 12  5  5  1       21 0.191036428301D-04 0.100000000000D+01
-.237638787630D-06 0.000000000000D+00 -.571329382484D-07 0.107804716403D-05 0.000000000000D+00  6 1 -2 25 -24 1 -1 4 0.16636510D-01 0.30548578D-01 0.16384407D+05 0.16384407D+05 0.16384407D+05 0.12434753D+01  3  4  5  5  5  1       21 -.153932041624D-03 0.100000000000D+01
0.290237358631D-07 0.000000000000D+00 0.000000000000D+00 0.106878293955D-05 0.000000000000D+00  6 -2 -2 25 -24 -1 -2 4 0.16250668D-01 0.30548578D-01 0.18290571D+05 0.18290571D+05 0.18290571D+05 0.12381209D+01  1  2 12  6  6  1       21 0.125935658541D-04 0.100000000000D+01
-.237638787630D-06 0.000000000000D+00 -.571329382484D-07 0.107804716403D-05 0.000000000000D+00  6 -2 -2 25 -24 -1 -2 4 0.16636510D-01 0.30548578D-01 0.16384407D+05 0.16384407D+05 0.16384407D+05 0.12434753D+01  1  2  5  6  6  1       21 -.100590757477D-03 0.100000000000D+01
0.290237358631D-07 0.000000000000D+00 0.000000000000D+00 0.106878293955D-05 0.000000000000D+00  6 2 -2 25 -24 2 -1 4 0.16250668D-01 0.30548578D-01 0.18290571D+05 0.18290571D+05 0.18290571D+05 0.12381209D+01  3  4 12  7  5  1       21 0.229464750414D-04 0.100000000000D+01
-.237638787630D-06 0.000000000000D+00 -.571329382484D-07 0.107804716403D-05 0.000000000000D+00  6 2 -2 25 -24 2 -1 4 0.16636510D-01 0.30548578D-01 0.16384407D+05 0.16384407D+05 0.16384407D+05 0.12434753D+01  3  4  5  7  5  1       21 -.185439546735D-03 0.100000000000D+01
0.290237358631D-07 0.000000000000D+00 0.000000000000D+00 0.106878293955D-05 0.000000000000D+00  6 -3 -2 25 -24 -1 -3 4 0.16250668D-01 0.30548578D-01 0.18290571D+05 0.18290571D+05 0.18290571D+05 0.12381209D+01  1  2 12  8  6  1       21 0.832398652544D-05 0.100000000000D+01
0.290237358631D-07 0.000000000000D+00 0.000000000000D+00 0.106878293955D-05 0.000000000000D+00  6 -4 -2 25 -24 -1 -4 4 0.16250668D-01 0.30548578D-01 0.18290571D+05 0.18290571D+05 0.18290571D+05 0.12381209D+01  1  2 12  8  6  1       21 0.714369467490D-05 0.100000000000D+01
-.237638787630D-06 0.000000000000D+00 -.571329382484D-07 0.107804716403D-05 0.000000000000D+00  6 -3 -2 25 -24 -1 -3 4 0.16636510D-01 0.30548578D-01 0.16384407D+05 0.16384407D+05 0.16384407D+05 0.12434753D+01  1  2  5  8  6  1       21 -.661989946485D-04 0.100000000000D+01
-.237638787630D-06 0.000000000000D+00 -.571329382484D-07 0.107804716403D-05 0.000000000000D+00  6 -4 -2 25 -24 -1 -4 4 0.16636510D-01 0.30548578D-01 0.16384407D+05 0.16384407D+05 0.16384407D+05 0.12434753D+01  1  2  5  8  6  1       21 -.566933040961D-04 0.100000000000D+01
0.290237358631D-07 0.000000000000D+00 0.000000000000D+00 0.106878293955D-05 0.000000000000D+00  6 3 -2 25 -24 3 -1 4 0.16250668D-01 0.30548578D-01 0.18290571D+05 0.18290571D+05 0.18290571D+05 0.12381209D+01  3  4 12  9  5  1       21 0.832300173616D-05 0.100000000000D+01
0.290237358631D-07 0.000000000000D+00 0.000000000000D+00 0.106878293955D-05 0.000000000000D+00  6 4 -2 25 -24 4 -1 4 0.16250668D-01 0.30548578D-01 0.18290571D+05 0.18290571D+05 0.18290571D+05 0.12381209D+01  3  4 12  9  5  1       21 0.714369467490D-05 0.100000000000D+01
-.237638787630D-06 0.000000000000D+00 -.571329382484D-07 0.107804716403D-05 0.000000000000D+00  6 3 -2 25 -24 3 -1 4 0.16636510D-01 0.30548578D-01 0.16384407D+05 0.16384407D+05 0.16384407D+05 0.12434753D+01  3  4  5  9  5  1       21 -.661911664309D-04 0.100000000000D+01
-.237638787630D-06 0.000000000000D+00 -.571329382484D-07 0.107804716403D-05 0.000000000000D+00  6 4 -2 25 -24 4 -1 4 0.16636510D-01 0.30548578D-01 0.16384407D+05 0.16384407D+05 0.16384407D+05 0.12434753D+01  3  4  5  9  5  1       21 -.566933040961D-04 0.100000000000D+01
  </mgrwgt>
  </event>
  <event>
  5     66 0.42720403E-03 0.29082952E+02 0.75467711E-02 0.11840468E+00
       21 -1    0    0  501  502 0.00000000E+00 0.00000000E+00 0.16856993E+04 0.16856994E+04 0.75000000E+00 0.0000E+00 0.9000E+01
       -4 -1    0    0    0  501 0.00000000E+00 0.00000000E+00 -.19368927E+02 0.19430848E+02 0.15500000E+01 0.0000E+00 0.9000E+01
       25  1    1    2    0    0 0.86012311E+02 0.17214516E+01 0.70321457E+03 0.71940032E+03 0.12500000E+03 0.0000E+00 0.9000E+01
      -24  1    1    2    0    0 -.11000341E+03 0.14716305E+02 0.41918837E+03 0.44102543E+03 0.80419002E+02 0.0000E+00 0.9000E+01
       -3  1    1    2    0  502 0.23991096E+02 -.16437756E+02 0.54392740E+03 0.54470455E+03 0.50000000E+00 0.0000E+00 0.9000E+01
#aMCatNLO 1  0  0  1  2 0.97014787D+01 0.00000000D+00  -5  6  0 0.00000000D+00 0.00000000D+00 0.00000000D+00 0.00000000D+00 0.00000000D+00
  <mgrwgt>
 0.1452014886D-01   32    4    0
 0.180840036512776D+03 0.000000000000000D+00 0.000000000000000D+00 0.180840036512776D+03
 0.180840036512776D+03 0.000000000000000D+00 0.000000000000000D+00 -.180840036512776D+03
 0.151745765913988D+03 0.860119841878089D+02 0.172167574354950D+01 0.867111026892388D+00
 0.147919952872746D+03 -.110003726630224D+03 0.147165232804463D+02 -.556390202421277D+02
 0.620143542388184D+02 0.239917424424150D+02 -.164381990239958D+02 0.547719092152353D+02
 0.000000000000000D+00 -.000000000000000D+00 0.000000000000000D+00 0.000000000000000D+00
 0.186937990928869D+03 0.000000000000000D+00 0.000000000000000D+00 0.186937990928869D+03
 0.184805301052228D+03 0.000000000000000D+00 0.000000000000000D+00 -.184805301052228D+03
 0.153122549419024D+03 0.884209419428235D+02 -.158122895000969D+01 0.867111026892388D+00
 0.145915494816837D+03 -.107681946554007D+03 0.115331472767842D+02 -.556390202421277D+02
 0.627721185743940D+02 0.249777594415117D+02 -.177901198567568D+02 0.547719092152353D+02
 0.993312917084179D+01 -.571675483032824D+01 0.783820152998228D+01 0.213268987664178D+01
 0.180840036512776D+03 0.000000000000000D+00 0.000000000000000D+00 0.180840036512776D+03
 0.180840036512776D+03 0.000000000000000D+00 0.000000000000000D+00 -.180840036512776D+03
 0.151745765913988D+03 0.860119841878089D+02 0.172167574354950D+01 0.867111026892388D+00
 0.147919952872746D+03 -.110003726630224D+03 0.147165232804463D+02 -.556390202421277D+02
 0.000000000000000D+00 -.000000000000000D+00 0.000000000000000D+00 0.000000000000000D+00
 0.620143542388184D+02 0.239917424424150D+02 -.164381990239958D+02 0.547719092152353D+02
 0.186937990928869D+03 0.000000000000000D+00 0.000000000000000D+00 0.186937990928869D+03
 0.184805301052228D+03 0.000000000000000D+00 0.000000000000000D+00 -.184805301052228D+03
 0.153122549419024D+03 0.884209419428235D+02 -.158122895000969D+01 0.867111026892388D+00
 0.145915494816837D+03 -.107681946554007D+03 0.115331472767842D+02 -.556390202421277D+02
 0.993312917084179D+01 -.571675483032824D+01 0.783820152998228D+01 0.213268987664178D+01
 0.627721185743940D+02 0.249777594415117D+02 -.177901198567568D+02 0.547719092152353D+02
0.727389355326D-05 0.000000000000D+00 0.000000000000D+00 0.115629544054D-05 0.000000000000D+00  6 21 -4 25 -24 -3 21 2 0.25934313D+00 0.29846109D-02 0.25262433D+05 0.25262433D+05 0.25262433D+05 0.12228117D+01  1  2  2  1  6  1       21 0.147934690843D-02 0.100000000000D+01
0.745158846117D-06 0.383853908596D-06 -.146838953824D-07 0.115629544054D-05 0.000000000000D+00  6 21 -4 25 -24 -3 21 4 0.25934313D+00 0.29846109D-02 0.25262433D+05 0.25262433D+05 0.25262433D+05 0.12228117D+01  1  2  3  1  6  1       21 0.226605856807D-03 0.100000000000D+01
0.675635995301D-06 0.000000000000D+00 0.000000000000D+00 0.115629544054D-05 0.000000000000D+00  6 21 -4 25 -24 -3 21 4 0.25934313D+00 0.29846109D-02 0.25262433D+05 0.25262433D+05 0.25262433D+05 0.12228117D+01  1  2 15  1  6  1       21 0.205463673151D-03 0.100000000000D+01
0.178639381816D-04 0.000000000000D+00 0.000000000000D+00 0.115061053996D-05 0.000000000000D+00  6 21 -4 25 -24 -3 21 4 0.27085225D+00 0.29846109D-02 0.26958080D+05 0.26958080D+05 0.26958080D+05 0.12198020D+01  1  2 12  1  6  1       21 0.461007797279D-02 0.100000000000D+01
-.586377144360D-05 0.000000000000D+00 0.000000000000D+00 0.115629544054D-05 0.000000000000D+00  6 21 -4 25 -24 -3 21 4 0.25934313D+00 0.29846109D-02 0.25262433D+05 0.25262433D+05 0.25262433D+05 0.12228117D+01  1  2  4  1  6  1       21 -.178319691032D-02 0.100000000000D+01
-.264423140025D-03 0.000000000000D+00 -.405070558529D-04 0.115629544054D-05 0.000000000000D+00  6 21 -4 25 -24 -3 21 4 0.27119463D+00 0.29846109D-02 0.25262433D+05 0.25262433D+05 0.25262433D+05 0.12228117D+01  1  2  5  1  6  1       21 -.687493881934D-01 0.100000000000D+01
0.265234850130D-03 0.000000000000D+00 0.403457490649D-04 0.115629544054D-05 0.000000000000D+00  6 21 -4 25 -24 -3 21 4 0.25934313D+00 0.29846109D-02 0.25262433D+05 0.25262433D+05 0.25262433D+05 0.12228117D+01  1  2  6  1  6  1       21 0.806590041599D-01 0.100000000000D+01
0.867655461354D-11 0.000000000000D+00 0.000000000000D+00 0.115629544054D-05 0.101384726697D-06  6 21 -4 25 -24 -3 21 4 0.26808822D+00 0.30500542D-02 0.26958080D+05 0.26958080D+05 0.26958080D+05 0.12198020D+01  1  2 11  1  6  1       21 0.224453423074D-08 0.100000000000D+01
0.323727482839D-06 0.000000000000D+00 0.000000000000D+00 0.115061053996D-05 0.000000000000D+00  6 -3 -4 25 -24 -3 -3 4 0.27085225D+00 0.29846109D-02 0.26958080D+05 0.26958080D+05 0.26958080D+05 0.12198020D+01  1  2 12  4  6  1       21 0.511409139944D-05 0.100000000000D+01
-.238337369581D-05 0.000000000000D+00 -.429258721734D-06 0.115629544054D-05 0.000000000000D+00  6 -3 -4 25 -24 -3 -3 4 0.27119463D+00 0.29846109D-02 0.25262433D+05 0.25262433D+05 0.25262433D+05 0.12228117D+01  1  2  5  4  6  1       21 -.377573148258D-04 0.100000000000D+01
0.509102884859D-12 0.000000000000D+00 0.000000000000D+00 0.115629544054D-05 0.116659810537D-08  6 -3 -4 25 -24 -3 -3 4 0.26808822D+00 0.30500542D-02 0.26958080D+05 0.26958080D+05 0.26958080D+05 0.12198020D+01  1  2 11  4  6  1       21 0.804258839727D-11 0.100000000000D+01
0.323727482839D-06 0.000000000000D+00 0.000000000000D+00 0.115061053996D-05 0.000000000000D+00  6 3 -4 25 -24 3 -3 4 0.27085225D+00 0.29846109D-02 0.26958080D+05 0.26958080D+05 0.26958080D+05 0.12198020D+01  3  4 12  5  5  1       21 0.517624584549D-05 0.100000000000D+01
-.238337369581D-05 0.000000000000D+00 -.429258721734D-06 0.115629544054D-05 0.000000000000D+00  6 3 -4 25 -24 3 -3 4 0.27119463D+00 0.29846109D-02 0.25262433D+05 0.25262433D+05 0.25262433D+05 0.12228117D+01  3  4  5  5  5  1       21 -.382168211004D-04 0.100000000000D+01
0.151989429181D-11 0.000000000000D+00 0.000000000000D+00 0.115629544054D-05 0.124663164768D-07  6 3 -4 25 -24 3 -3 4 0.26808822D+00 0.30500542D-02 0.26958080D+05 0.26958080D+05 0.26958080D+05 0.12198020D+01  3  4 11  5  5  1       21 0.242948580947D-10 0.100000000000D+01
0.323727482839D-06 0.000000000000D+00 0.000000000000D+00 0.115061053996D-05 0.000000000000D+00  6 -4 -4 25 -24 -3 -4 4 0.27085225D+00 0.29846109D-02 0.26958080D+05 0.26958080D+05 0.26958080D+05 0.12198020D+01  1  2 12  6  6  1       21 0.373473681346D-05 0.100000000000D+01
-.238337369581D-05 0.000000000000D+00 -.429258721734D-06 0.115629544054D-05 0.000000000000D+00  6 -4 -4 25 -24 -3 -4 4 0.27119463D+00 0.29846109D-02 0.25262433D+05 0.25262433D+05 0.25262433D+05 0.12228117D+01  1  2  5  6  6  1       21 -.275560222539D-04 0.100000000000D+01
0.234313892978D-12 0.000000000000D+00 0.000000000000D+00 0.115629544054D-05 0.836435114876D-09  6 -4 -4 25 -24 -3 -4 4 0.26808822D+00 0.30500542D-02 0.26958080D+05 0.26958080D+05 0.26958080D+05 0.12198020D+01  1  2 11  6  6  1       21 0.271049268633D-11 0.100000000000D+01
0.323727482839D-06 0.000000000000D+00 0.000000000000D+00 0.115061053996D-05 0.000000000000D+00  6 4 -4 25 -24 4 -3 4 0.27085225D+00 0.29846109D-02 0.26958080D+05 0.26958080D+05 0.26958080D+05 0.12198020D+01  3  4 12  7  5  1       21 0.373473681346D-05 0.100000000000D+01
-.238337369581D-05 0.000000000000D+00 -.429258721734D-06 0.115629544054D-05 0.000000000000D+00  6 4 -4 25 -24 4 -3 4 0.27119463D+00 0.29846109D-02 0.25262433D+05 0.25262433D+05 0.25262433D+05 0.12228117D+01  3  4  5  7  5  1       21 -.275560222539D-04 0.100000000000D+01
0.308565862717D-12 0.000000000000D+00 0.000000000000D+00 0.115629544054D-05 0.720480450849D-09  6 4 -4 25 -24 4 -3 4 0.26808822D+00 0.30500542D-02 0.26958080D+05 0.26958080D+05 0.26958080D+05 0.12198020D+01  3  4 11  7  5  1       21 0.356942349221D-11 0.100000000000D+01
0.323727482839D-06 0.000000000000D+00 0.000000000000D+00 0.115061053996D-05 0.000000000000D+00  6 -1 -4 25 -24 -3 -1 4 0.27085225D+00 0.29846109D-02 0.26958080D+05 0.26958080D+05 0.26958080D+05 0.12198020D+01  1  2 12  8  6  1       21 0.920542262479D-05 0.100000000000D+01
0.323727482839D-06 0.000000000000D+00 0.000000000000D+00 0.115061053996D-05 0.000000000000D+00  6 -2 -4 25 -24 -3 -2 4 0.27085225D+00 0.29846109D-02 0.26958080D+05 0.26958080D+05 0.26958080D+05 0.12198020D+01  1  2 12  8  6  1       21 0.739754777388D-05 0.100000000000D+01
-.238337369581D-05 0.000000000000D+00 -.429258721734D-06 0.115629544054D-05 0.000000000000D+00  6 -1 -4 25 -24 -3 -1 4 0.27119463D+00 0.29846109D-02 0.25262433D+05 0.25262433D+05 0.25262433D+05 0.12228117D+01  1  2  5  8  6  1       21 -.680007006008D-04 0.100000000000D+01
-.238337369581D-05 0.000000000000D+00 -.429258721734D-06 0.115629544054D-05 0.000000000000D+00  6 -2 -4 25 -24 -3 -2 4 0.27119463D+00 0.29846109D-02 0.25262433D+05 0.25262433D+05 0.25262433D+05 0.12228117D+01  1  2  5  8  6  1       21 -.546427549031D-04 0.100000000000D+01
0.307609620671D-12 0.000000000000D+00 0.000000000000D+00 0.115629544054D-05 0.718247690251D-09  6 -1 -4 25 -24 -3 -1 4 0.26808822D+00 0.30500542D-02 0.26958080D+05 0.26958080D+05 0.26958080D+05 0.12198020D+01  1  2 11  8  6  1       21 0.879256549675D-11 0.100000000000D+01
0.307609620671D-12 0.000000000000D+00 0.000000000000D+00 0.115629544054D-05 0.718247690251D-09  6 -2 -4 25 -24 -3 -2 4 0.26808822D+00 0.30500542D-02 0.26958080D+05 0.26958080D+05 0.26958080D+05 0.12198020D+01  1  2 11  8  6  1       21 0.704669450862D-11 0.100000000000D+01
0.323727482839D-06 0.000000000000D+00 0.000000000000D+00 0.115061053996D-05 0.000000000000D+00  6 1 -4 25 -24 1 -3 4 0.27085225D+00 0.29846109D-02 0.26958080D+05 0.26958080D+05 0.26958080D+05 0.12198020D+01  3  4 12  9  5  1       21 0.897198806917D-04 0.100000000000D+01
0.323727482839D-06 0.000000000000D+00 0.000000000000D+00 0.115061053996D-05 0.000000000000D+00  6 2 -4 25 -24 2 -3 4 0.27085225D+00 0.29846109D-02 0.26958080D+05 0.26958080D+05 0.26958080D+05 0.12198020D+01  3  4 12  9  5  1       21 0.208544401221D-03 0.100000000000D+01
-.238337369581D-05 0.000000000000D+00 -.429258721734D-06 0.115629544054D-05 0.000000000000D+00  6 1 -4 25 -24 1 -3 4 0.27119463D+00 0.29846109D-02 0.25262433D+05 0.25262433D+05 0.25262433D+05 0.12228117D+01  3  4  5  9  5  1       21 -.663678338636D-03 0.100000000000D+01
-.238337369581D-05 0.000000000000D+00 -.429258721734D-06 0.115629544054D-05 0.000000000000D+00  6 2 -4 25 -24 2 -3 4 0.27119463D+00 0.29846109D-02 0.25262433D+05 0.25262433D+05 0.25262433D+05 0.12228117D+01  3  4  5  9  5  1       21 -.154298627104D-02 0.100000000000D+01
0.307609620671D-12 0.000000000000D+00 0.000000000000D+00 0.115629544054D-05 0.718247690251D-09  6 1 -4 25 -24 1 -3 4 0.26808822D+00 0.30500542D-02 0.26958080D+05 0.26958080D+05 0.26958080D+05 0.12198020D+01  3  4 11  9  5  1       21 0.846077045825D-10 0.100000000000D+01
0.307609620671D-12 0.000000000000D+00 0.000000000000D+00 0.115629544054D-05 0.718247690251D-09  6 2 -4 25 -24 2 -3 4 0.26808822D+00 0.30500542D-02 0.26958080D+05 0.26958080D+05 0.26958080D+05 0.12198020D+01  3  4 11  9  5  1       21 0.195642521418D-09 0.100000000000D+01
  </mgrwgt>
  </event>
  <event>
  5     66 0.42720403E-03 0.31842794E+02 0.75467711E-02 0.12218911E+00
       21 -1    0    0  501  502 0.00000000E+00 0.00000000E+00 0.58606589E+03 0.58606637E+03 0.75000000E+00 0.0000E+00 0.9000E+01
       -2 -1    0    0    0  501 0.00000000E+00 0.00000000E+00 -.52207166E+02 0.52208147E+02 0.32000000E+00 0.0000E+00 0.9000E+01
       25  1    1    2    0    0 -.66997523E+01 0.35234655E+02 0.13776217E+03 0.18944599E+03 0.12500000E+03 0.0000E+00 0.9000E+01
      -24  1    1    2    0    0 0.35932054E+02 -.47861158E+02 0.72611462E+02 0.12377982E+03 0.80419002E+02 0.0000E+00 0.9000E+01
       -1  1    1    2    0  502 -.29232302E+02 0.12626503E+02 0.32348510E+03 0.32504871E+03 0.32000000E+00 0.0000E+00 0.9000E+01
#aMCatNLO 1  0  0  1  2 0.65983655D+01 0.00000000D+00  -5  6  0 0.00000000D+00 0.00000000D+00 0.00000000D+00 0.00000000D+00 0.00000000D+00
  <mgrwgt>
 0.2247585046D-01   32    4    0
 0.174920855370292D+03 0.000000000000000D+00 0.000000000000000D+00 0.174920855370292D+03
 0.174920855370292D+03 0.000000000000000D+00 0.000000000000000D+00 -.174920855370292D+03
 0.135412746106044D+03 -.669969370132560D+01 0.352346301435109D+02 -.377524403309018D+02
 0.115027099830225D+03 0.359321037883105D+02 -.478611799561077D+02 -.564110725969399D+02
 0.994018648043157D+02 -.292324100869849D+02 0.126265498125968D+02 0.941635129278417D+02
 0.000000000000000D+00 -.000000000000000D+00 0.000000000000000D+00 0.000000000000000D+00
 0.190742832627166D+03 0.000000000000000D+00 0.000000000000000D+00 0.190742832627166D+03
 0.175641263161780D+03 0.000000000000000D+00 0.000000000000000D+00 -.175641263161780D+03
 0.135013237108748D+03 -.444821908225681D+01 0.340373440597393D+02 -.377524403309018D+02
 0.116069767454124D+03 0.378561375851064D+02 -.488843400086792D+02 -.564110725969399D+02
 0.988209265405697D+02 -.275820746483244D+02 0.117489366973841D+02 0.941635129278417D+02
 0.164801646855037D+02 -.582584385452517D+01 0.309805925155578D+01 0.151015694653855D+02
 0.174920855370292D+03 0.000000000000000D+00 0.000000000000000D+00 0.174920855370292D+03
 0.174920855370292D+03 0.000000000000000D+00 0.000000000000000D+00 -.174920855370292D+03
 0.135412746106044D+03 -.669969370132560D+01 0.352346301435109D+02 -.377524403309018D+02
 0.115027099830225D+03 0.359321037883105D+02 -.478611799561077D+02 -.564110725969399D+02
 0.000000000000000D+00 -.000000000000000D+00 0.000000000000000D+00 0.000000000000000D+00
 0.994018648043157D+02 -.292324100869849D+02 0.126265498125968D+02 0.941635129278417D+02
 0.190742832627166D+03 0.000000000000000D+00 0.000000000000000D+00 0.190742832627166D+03
 0.175641263161780D+03 0.000000000000000D+00 0.000000000000000D+00 -.175641263161780D+03
 0.135013237108748D+03 -.444821908225681D+01 0.340373440597393D+02 -.377524403309018D+02
 0.116069767454124D+03 0.378561375851064D+02 -.488843400086792D+02 -.564110725969399D+02
 0.164801646855037D+02 -.582584385452517D+01 0.309805925155578D+01 0.151015694653855D+02
 0.988209265405697D+02 -.275820746483244D+02 0.117489366973841D+02 0.941635129278417D+02
0.526984016519D-06 0.000000000000D+00 0.000000000000D+00 0.284990334469D-05 0.000000000000D+00  6 21 -2 25 -24 -1 21 2 0.90164096D-01 0.80319841D-02 0.17178208D+05 0.17178208D+05 0.17178208D+05 0.12411648D+01  1  2  2  1  6  1       21 0.630212285188D-03 0.100000000000D+01
0.623206510459D-07 0.278097105804D-07 -.106382889853D-08 0.284990334469D-05 0.000000000000D+00  6 21 -2 25 -24 -1 21 4 0.90164096D-01 0.80319841D-02 0.17178208D+05 0.17178208D+05 0.17178208D+05 0.12411648D+01  1  2  3  1  6  1       21 0.114810149621D-03 0.100000000000D+01
0.560482391658D-07 0.000000000000D+00 0.000000000000D+00 0.284990334469D-05 0.000000000000D+00  6 21 -2 25 -24 -1 21 4 0.90164096D-01 0.80319841D-02 0.17178208D+05 0.17178208D+05 0.17178208D+05 0.12411648D+01  1  2 15  1  6  1       21 0.103254805857D-03 0.100000000000D+01
0.944236556144D-05 0.000000000000D+00 0.000000000000D+00 0.284062301705D-05 0.000000000000D+00  6 21 -2 25 -24 -1 21 4 0.98495494D-01 0.80319841D-02 0.17908555D+05 0.17908555D+05 0.17908555D+05 0.12391423D+01  1  2 12  1  6  1       21 0.140834269188D-01 0.100000000000D+01
-.571602541942D-06 0.000000000000D+00 0.000000000000D+00 0.284990334469D-05 0.000000000000D+00  6 21 -2 25 -24 -1 21 4 0.90164096D-01 0.80319841D-02 0.17178208D+05 0.17178208D+05 0.17178208D+05 0.12411648D+01  1  2  4  1  6  1       21 -.105303414298D-02 0.100000000000D+01
-.273217645385D-04 0.000000000000D+00 -.187960737578D-05 0.284990334469D-05 0.000000000000D+00  6 21 -2 25 -24 -1 21 4 0.98518504D-01 0.80319841D-02 0.17178208D+05 0.17178208D+05 0.17178208D+05 0.12411648D+01  1  2  5  1  6  1       21 -.410172336436D-01 0.100000000000D+01
0.272185474846D-04 0.000000000000D+00 0.185041417120D-05 0.284990334469D-05 0.000000000000D+00  6 21 -2 25 -24 -1 21 4 0.90164096D-01 0.80319841D-02 0.17178208D+05 0.17178208D+05 0.17178208D+05 0.12411648D+01  1  2  6  1  6  1       21 0.501433386322D-01 0.100000000000D+01
0.440679678242D-07 0.000000000000D+00 0.000000000000D+00 0.284990334469D-05 0.412781568739D-05  6 21 -2 25 -24 -1 21 4 0.98319637D-01 0.80650636D-02 0.17908555D+05 0.17908555D+05 0.17908555D+05 0.12391423D+01  1  2 11  1  6  1       21 0.655849605718D-04 0.100000000000D+01
0.214618619636D-06 0.000000000000D+00 0.000000000000D+00 0.284062301705D-05 0.000000000000D+00  6 -1 -2 25 -24 -1 -1 4 0.98495494D-01 0.80319841D-02 0.17908555D+05 0.17908555D+05 0.17908555D+05 0.12391423D+01  1  2 12  4  6  1       21 0.360466997990D-04 0.100000000000D+01
-.507332233938D-06 0.000000000000D+00 -.419309361142D-07 0.284990334469D-05 0.000000000000D+00  6 -1 -2 25 -24 -1 -1 4 0.98518504D-01 0.80319841D-02 0.17178208D+05 0.17178208D+05 0.17178208D+05 0.12411648D+01  1  2  5  4  6  1       21 -.856723875966D-04 0.100000000000D+01
0.315661419043D-07 0.000000000000D+00 0.000000000000D+00 0.284990334469D-05 0.116571043197D-07  6 -1 -2 25 -24 -1 -1 4 0.98319637D-01 0.80650636D-02 0.17908555D+05 0.17908555D+05 0.17908555D+05 0.12391423D+01  1  2 11  4  6  1       21 0.528881128472D-05 0.100000000000D+01
0.214618619636D-06 0.000000000000D+00 0.000000000000D+00 0.284062301705D-05 0.000000000000D+00  6 1 -2 25 -24 1 -1 4 0.98495494D-01 0.80319841D-02 0.17908555D+05 0.17908555D+05 0.17908555D+05 0.12391423D+01  3  4 12  5  5  1       21 0.131168259301D-03 0.100000000000D+01
-.507332233938D-06 0.000000000000D+00 -.419309361142D-07 0.284990334469D-05 0.000000000000D+00  6 1 -2 25 -24 1 -1 4 0.98518504D-01 0.80319841D-02 0.17178208D+05 0.17178208D+05 0.17178208D+05 0.12411648D+01  3  4  5  5  5  1       21 -.311774653790D-03 0.100000000000D+01
0.123838788697D-07 0.000000000000D+00 0.000000000000D+00 0.284990334469D-05 0.115863928995D-05  6 1 -2 25 -24 1 -1 4 0.98319637D-01 0.80650636D-02 0.17908555D+05 0.17908555D+05 0.17908555D+05 0.12391423D+01  3  4 11  5  5  1       21 0.753940744076D-05 0.100000000000D+01
0.214618619636D-06 0.000000000000D+00 0.000000000000D+00 0.284062301705D-05 0.000000000000D+00  6 -2 -2 25 -24 -1 -2 4 0.98495494D-01 0.80319841D-02 0.17908555D+05 0.17908555D+05 0.17908555D+05 0.12391423D+01  1  2 12  6  6  1       21 0.267515589601D-04 0.100000000000D+01
-.507332233938D-06 0.000000000000D+00 -.419309361142D-07 0.284990334469D-05 0.000000000000D+00  6 -2 -2 25 -24 -1 -2 4 0.98518504D-01 0.80319841D-02 0.17178208D+05 0.17178208D+05 0.17178208D+05 0.12411648D+01  1  2  5  6  6  1       21 -.635612579162D-04 0.100000000000D+01
0.272726299899D-07 0.000000000000D+00 0.000000000000D+00 0.284990334469D-05 0.175282248105D-07  6 -2 -2 25 -24 -1 -2 4 0.98319637D-01 0.80650636D-02 0.17908555D+05 0.17908555D+05 0.17908555D+05 0.12391423D+01  1  2 11  6  6  1       21 0.339180003581D-05 0.100000000000D+01
0.214618619636D-06 0.000000000000D+00 0.000000000000D+00 0.284062301705D-05 0.000000000000D+00  6 2 -2 25 -24 2 -1 4 0.98495494D-01 0.80319841D-02 0.17908555D+05 0.17908555D+05 0.17908555D+05 0.12391423D+01  3  4 12  7  5  1       21 0.215530185587D-03 0.100000000000D+01
-.507332233938D-06 0.000000000000D+00 -.419309361142D-07 0.284990334469D-05 0.000000000000D+00  6 2 -2 25 -24 2 -1 4 0.98518504D-01 0.80319841D-02 0.17178208D+05 0.17178208D+05 0.17178208D+05 0.12411648D+01  3  4  5  7  5  1       21 -.512213472991D-03 0.100000000000D+01
0.279803470822D-07 0.000000000000D+00 0.000000000000D+00 0.284990334469D-05 0.177993650315D-07  6 2 -2 25 -24 2 -1 4 0.98319637D-01 0.80650636D-02 0.17908555D+05 0.17908555D+05 0.17908555D+05 0.12391423D+01  3  4 11  7  5  1       21 0.279791358515D-04 0.100000000000D+01
0.214618619636D-06 0.000000000000D+00 0.000000000000D+00 0.284062301705D-05 0.000000000000D+00  6 -3 -2 25 -24 -1 -3 4 0.98495494D-01 0.80319841D-02 0.17908555D+05 0.17908555D+05 0.17908555D+05 0.12391423D+01  1  2 12  8  6  1       21 0.167590572779D-04 0.100000000000D+01
0.214618619636D-06 0.000000000000D+00 0.000000000000D+00 0.284062301705D-05 0.000000000000D+00  6 -4 -2 25 -24 -1 -4 4 0.98495494D-01 0.80319841D-02 0.17908555D+05 0.17908555D+05 0.17908555D+05 0.12391423D+01  1  2 12  8  6  1       21 0.133777128236D-04 0.100000000000D+01
-.507332233938D-06 0.000000000000D+00 -.419309361142D-07 0.284990334469D-05 0.000000000000D+00  6 -3 -2 25 -24 -1 -3 4 0.98518504D-01 0.80319841D-02 0.17178208D+05 0.17178208D+05 0.17178208D+05 0.12411648D+01  1  2  5  8  6  1       21 -.397871074299D-04 0.100000000000D+01
-.507332233938D-06 0.000000000000D+00 -.419309361142D-07 0.284990334469D-05 0.000000000000D+00  6 -4 -2 25 -24 -1 -4 4 0.98518504D-01 0.80319841D-02 0.17178208D+05 0.17178208D+05 0.17178208D+05 0.12411648D+01  1  2  5  8  6  1       21 -.317443262258D-04 0.100000000000D+01
0.279992819415D-07 0.000000000000D+00 0.000000000000D+00 0.284990334469D-05 0.178114102171D-07  6 -3 -2 25 -24 -1 -3 4 0.98319637D-01 0.80650636D-02 0.17908555D+05 0.17908555D+05 0.17908555D+05 0.12391423D+01  1  2 11  8  6  1       21 0.218135462908D-05 0.100000000000D+01
0.279992819415D-07 0.000000000000D+00 0.000000000000D+00 0.284990334469D-05 0.178114102171D-07  6 -4 -2 25 -24 -1 -4 4 0.98319637D-01 0.80650636D-02 0.17908555D+05 0.17908555D+05 0.17908555D+05 0.12391423D+01  1  2 11  8  6  1       21 0.174136584900D-05 0.100000000000D+01
0.214618619636D-06 0.000000000000D+00 0.000000000000D+00 0.284062301705D-05 0.000000000000D+00  6 3 -2 25 -24 3 -1 4 0.98495494D-01 0.80319841D-02 0.17908555D+05 0.17908555D+05 0.17908555D+05 0.12391423D+01  3  4 12  9  5  1       21 0.167909491100D-04 0.100000000000D+01
0.214618619636D-06 0.000000000000D+00 0.000000000000D+00 0.284062301705D-05 0.000000000000D+00  6 4 -2 25 -24 4 -1 4 0.98495494D-01 0.80319841D-02 0.17908555D+05 0.17908555D+05 0.17908555D+05 0.12391423D+01  3  4 12  9  5  1       21 0.133777128236D-04 0.100000000000D+01
-.507332233938D-06 0.000000000000D+00 -.419309361142D-07 0.284990334469D-05 0.000000000000D+00  6 3 -2 25 -24 3 -1 4 0.98518504D-01 0.80319841D-02 0.17178208D+05 0.17178208D+05 0.17178208D+05 0.12411648D+01  3  4  5  9  5  1       21 -.398628393025D-04 0.100000000000D+01
-.507332233938D-06 0.000000000000D+00 -.419309361142D-07 0.284990334469D-05 0.000000000000D+00  6 4 -2 25 -24 4 -1 4 0.98518504D-01 0.80319841D-02 0.17178208D+05 0.17178208D+05 0.17178208D+05 0.12411648D+01  3  4  5  9  5  1       21 -.317443262258D-04 0.100000000000D+01
0.279992819415D-07 0.000000000000D+00 0.000000000000D+00 0.284990334469D-05 0.178114102171D-07  6 3 -2 25 -24 3 -1 4 0.98319637D-01 0.80650636D-02 0.17908555D+05 0.17908555D+05 0.17908555D+05 0.12391423D+01  3  4 11  9  5  1       21 0.218549204597D-05 0.100000000000D+01
0.279992819415D-07 0.000000000000D+00 0.000000000000D+00 0.284990334469D-05 0.178114102171D-07  6 4 -2 25 -24 4 -1 4 0.98319637D-01 0.80650636D-02 0.17908555D+05 0.17908555D+05 0.17908555D+05 0.12391423D+01  3  4 11  9  5  1       21 0.174136584900D-05 0.100000000000D+01
  </mgrwgt>
  </event>
  <event>
  5     66 0.42720403E-03 0.35224124E+02 0.75467711E-02 0.12106852E+00
       21 -1    0    0  501  502 0.00000000E+00 0.00000000E+00 0.20405311E+03 0.20405448E+03 0.75000000E+00 0.0000E+00 0.9000E+01
       -2 -1    0    0    0  501 -.00000000E+00 -.00000000E+00 -.26524224E+03 0.26524244E+03 0.32000000E+00 0.0000E+00 0.9000E+01
       25  1    1    2    0    0 -.29523636E+02 -.16238237E+02 -.32713877E+02 0.13353098E+03 0.12500000E+03 0.0000E+00 0.9000E+01
      -24  1    1    2    0    0 0.60629935E+02 -.28852568E+00 -.16580175E+03 0.19399358E+03 0.80419002E+02 0.0000E+00 0.9000E+01
       -1  1    1    2    0  502 -.31106298E+02 0.16526763E+02 0.13732649E+03 0.14177236E+03 0.32000000E+00 0.0000E+00 0.9000E+01
#aMCatNLO 1  0  0  5  1 0.33768597D+02 0.00000000D+00  -5  6  0 0.00000000D+00 0.00000000D+00 0.00000000D+00 0.00000000D+00 0.00000000D+00
  <mgrwgt>
 0.3418791621D-02    6    2    0
 0.232645378192412D+03 0.000000000000000D+00 0.000000000000000D+00 0.232645378192412D+03
 0.232645378192412D+03 -.000000000000000D+00 -.000000000000000D+00 -.232645378192412D+03
 0.130378580108546D+03 -.295236192021504D+02 -.162382464997620D+02 -.154353299588931D+02
 0.173859825492468D+03 0.606299575728485D+02 -.288537871947556D+00 -.141717846288010D+03
 0.161052350783810D+03 -.311063383706980D+02 0.165267843717096D+02 0.157153176246903D+03
 0.000000000000000D+00 -.000000000000000D+00 0.000000000000000D+00 0.000000000000000D+00
 0.232645378192412D+03 0.000000000000000D+00 0.000000000000000D+00 0.232645378192412D+03
 0.232645378192412D+03 -.000000000000000D+00 -.000000000000000D+00 -.232645378192412D+03
 0.130062987828849D+03 -.304412430963513D+02 -.157507133143045D+02 -.107993773805091D+02
 0.168500176691130D+03 0.594237072768210D+02 0.352342398278529D+00 -.135623716432210D+03
 0.111066422072106D+03 0.115661820857609D+02 0.281974525833914D+01 0.110426548350188D+03
 0.556611697927396D+02 -.405486462662306D+02 0.125786256576868D+02 0.359965454625312D+02
0.807191131302D-05 0.000000000000D+00 0.000000000000D+00 0.322407275930D-05 0.000000000000D+00  6 21 -2 25 -24 -1 21 2 0.31392906D-01 0.40806620D-01 0.17609251D+05 0.17609251D+05 0.17609251D+05 0.12399597D+01  1  2  2  3  6  5       -1 0.565862031638D-02 0.100000000000D+01
0.119957881954D-05 0.425966462756D-06 -.162948633202D-07 0.322407275930D-05 0.000000000000D+00  6 21 -2 25 -24 -1 21 4 0.31392906D-01 0.40806620D-01 0.17609251D+05 0.17609251D+05 0.17609251D+05 0.12399597D+01  1  2  3  3  6  5       -1 0.129293926306D-02 0.100000000000D+01
0.873098947939D-06 0.000000000000D+00 0.000000000000D+00 0.322407275930D-05 0.000000000000D+00  6 21 -2 25 -24 -1 21 4 0.31392906D-01 0.40806620D-01 0.17609251D+05 0.17609251D+05 0.17609251D+05 0.12399597D+01  1  2 15  3  6  5       -1 0.941050218577D-03 0.100000000000D+01
-.705722853031D-05 0.000000000000D+00 0.000000000000D+00 0.322407275930D-05 0.000000000000D+00  6 21 -2 25 -24 -1 21 4 0.31392906D-01 0.40806620D-01 0.17609251D+05 0.17609251D+05 0.17609251D+05 0.12399597D+01  1  2  4  3  6  5       -1 -.760647629535D-02 0.100000000000D+01
-.726001700849D-05 0.000000000000D+00 0.000000000000D+00 0.322407275930D-05 0.000000000000D+00  6 21 -2 25 -24 -1 21 4 0.31392906D-01 0.40806620D-01 0.17609251D+05 0.17609251D+05 0.17609251D+05 0.12399597D+01  1  2  5  3  6  5       -1 -.782504733151D-02 0.100000000000D+01
0.101664724275D-04 0.000000000000D+00 -.000000000000D+00 0.322407275930D-05 0.000000000000D+00  6 21 -2 25 -24 -1 21 4 0.31392906D-01 0.40806620D-01 0.17609251D+05 0.17609251D+05 0.17609251D+05 0.12399597D+01  1  2  6  3  6  5       -1 0.109577054498D-01 0.100000000000D+01
  </mgrwgt>
  </event>
  <event>
  5     66 -.42720403E-03 0.21778213E+02 0.75467711E-02 0.12164793E+00
       21 -1    0    0  501  502 0.00000000E+00 0.00000000E+00 0.29328515E+03 0.29328611E+03 0.75000000E+00 0.0000E+00 0.9000E+01
       -2 -1    0    0    0  501 0.00000000E+00 0.00000000E+00 -.74400858E+02 0.74401547E+02 0.32000000E+00 0.0000E+00 0.9000E+01
       25  1    1    2    0    0 -.52431478E+02 -.30598966E+02 0.10330191E+03 0.17315208E+03 0.12500000E+03 0.0000E+00 0.9000E+01
      -24  1    1    2    0    0 0.73721868E+02 0.35179364E+02 0.49325387E+02 0.12479067E+03 0.80419002E+02 0.0000E+00 0.9000E+01
       -1  1    1    2    0  502 -.21290390E+02 -.45803982E+01 0.66256996E+02 0.69744911E+02 0.32000000E+00 0.0000E+00 0.9000E+01
#aMCatNLO 1  0  0  1  1 0.24274042D-06 0.00000000D+00  -5  6  0 0.00000000D+00 0.00000000D+00 0.00000000D+00 0.00000000D+00 0.00000000D+00
  <mgrwgt>
 -.9954375575D-01   23    4    0
 0.147719226185617D+03 0.000000000000000D+00 0.000000000000000D+00 0.147719226185617D+03
 0.147719226185617D+03 0.000000000000000D+00 0.000000000000000D+00 -.147719226185617D+03
 0.138961836034773D+03 -.524311177400602D+02 -.305988880781812D+02 0.278953512452397D+00
 0.118764273698765D+03 0.737221763155108D+02 0.351794301193644D+02 -.310674293852294D+02
 0.377123426376947D+02 -.212910585754505D+02 -.458054204118319D+01 0.307884758727770D+02
 0.000000000000000D+00 -.000000000000000D+00 0.000000000000000D+00 0.000000000000000D+00
 0.147719396090956D+03 0.000000000000000D+00 0.000000000000000D+00 0.147719396090956D+03
 0.147719226185703D+03 0.000000000000000D+00 0.000000000000000D+00 -.147719226185703D+03
 0.138961836056348D+03 -.524311177308261D+02 -.305988881919821D+02 0.278953512452397D+00
 0.118764273674855D+03 0.737221763234028D+02 0.351794300221041D+02 -.310674293852294D+02
 0.377123426400310D+02 -.212910585729445D+02 -.458054207206719D+01 0.307884758727770D+02
 0.169905426440448D-03 -.196322350610155D-07 0.241945218506937D-06 0.169905253041209D-03
 0.147719226185617D+03 0.000000000000000D+00 0.000000000000000D+00 0.147719226185617D+03
 0.147719226185617D+03 0.000000000000000D+00 0.000000000000000D+00 -.147719226185617D+03
 0.138961836034773D+03 -.524311177400602D+02 -.305988880781812D+02 0.278953512452397D+00
 0.118764273698765D+03 0.737221763155108D+02 0.351794301193644D+02 -.310674293852294D+02
 0.000000000000000D+00 -.000000000000000D+00 0.000000000000000D+00 0.000000000000000D+00
 0.377123426376947D+02 -.212910585754505D+02 -.458054204118319D+01 0.307884758727770D+02
 0.147719396090956D+03 0.000000000000000D+00 0.000000000000000D+00 0.147719396090956D+03
 0.147719226185703D+03 0.000000000000000D+00 0.000000000000000D+00 -.147719226185703D+03
 0.138961836056348D+03 -.524311177308261D+02 -.305988881919821D+02 0.278953512452397D+00
 0.118764273674855D+03 0.737221763234028D+02 0.351794300221041D+02 -.310674293852294D+02
 0.169905426440448D-03 -.196322350610155D-07 0.241945218506937D-06 0.169905253041209D-03
 0.377123426400310D+02 -.212910585729445D+02 -.458054207206719D+01 0.307884758727770D+02
0.179749917791D-11 0.000000000000D+00 0.000000000000D+00 0.170889296216D-05 0.000000000000D+00  6 21 -2 25 -24 -1 21 2 0.45120919D-01 0.11446413D-01 0.18956966D+05 0.18956966D+05 0.18956966D+05 0.12363951D+01  1  2  2  1  6  1       21 0.543473320997D-08 0.100000000000D+01
0.184372155065D-12 0.948566376572D-13 -.362863295773D-14 0.170889296216D-05 0.000000000000D+00  6 21 -2 25 -24 -1 21 4 0.45120919D-01 0.11446413D-01 0.18956966D+05 0.18956966D+05 0.18956966D+05 0.12363951D+01  1  2  3  1  6  1       21 0.852156661706D-09 0.100000000000D+01
0.168614572432D-12 0.000000000000D+00 0.000000000000D+00 0.170889296216D-05 0.000000000000D+00  6 21 -2 25 -24 -1 21 4 0.45120919D-01 0.11446413D-01 0.18956966D+05 0.18956966D+05 0.18956966D+05 0.12363951D+01  1  2 15  1  6  1       21 0.779326092423D-09 0.100000000000D+01
-.478393155280D+00 0.000000000000D+00 0.000000000000D+00 0.170889296216D-05 0.000000000000D+00  6 21 -2 25 -24 -1 21 4 0.45120919D-01 0.11446413D-01 0.18956966D+05 0.18956966D+05 0.18956966D+05 0.12363951D+01  1  2  4  1  6  1       21 -.221110348275D+04 0.100000000000D+01
-.478547557848D+00 0.000000000000D+00 -.488375410975D-06 0.170889296216D-05 0.000000000000D+00  6 21 -2 25 -24 -1 21 4 0.45120971D-01 0.11446413D-01 0.18956966D+05 0.18956966D+05 0.18956966D+05 0.12363951D+01  1  2  5  1  6  1       21 -.221181194132D+04 0.100000000000D+01
0.478547557847D+00 0.000000000000D+00 0.488375410974D-06 0.170889296216D-05 0.000000000000D+00  6 21 -2 25 -24 -1 21 4 0.45120919D-01 0.11446413D-01 0.18956966D+05 0.18956966D+05 0.18956966D+05 0.12363951D+01  1  2  6  1  6  1       21 0.221181712184D+04 0.100000000000D+01
0.478371617744D+00 0.000000000000D+00 0.000000000000D+00 0.170889296216D-05 0.531836707380D+09  6 21 -2 25 -24 -1 21 4 0.45120971D-01 0.11446413D-01 0.18956966D+05 0.18956966D+05 0.18956966D+05 0.12363951D+01  1  2 11  1  6  1       21 0.221099875838D+04 0.100000000000D+01
-.122315992296D-06 0.000000000000D+00 -.124827963487D-12 0.170889296216D-05 0.000000000000D+00  6 -1 -2 25 -24 -1 -1 4 0.45120971D-01 0.11446413D-01 0.18956966D+05 0.18956966D+05 0.18956966D+05 0.12363951D+01  1  2  5  4  6  1       21 -.541084097384D-04 0.100000000000D+01
0.122307321477D-06 0.000000000000D+00 0.000000000000D+00 0.170889296216D-05 0.679884850291D+02  6 -1 -2 25 -24 -1 -1 4 0.45120971D-01 0.11446413D-01 0.18956966D+05 0.18956966D+05 0.18956966D+05 0.12363951D+01  1  2 11  4  6  1       21 0.541045740522D-04 0.100000000000D+01
-.122315992296D-06 0.000000000000D+00 -.124827963487D-12 0.170889296216D-05 0.000000000000D+00  6 1 -2 25 -24 1 -1 4 0.45120971D-01 0.11446413D-01 0.18956966D+05 0.18956966D+05 0.18956966D+05 0.12363951D+01  3  4  5  5  5  1       21 -.116282583461D-03 0.100000000000D+01
0.122430350106D-06 0.000000000000D+00 0.000000000000D+00 0.170889296216D-05 0.136113748952D+03  6 1 -2 25 -24 1 -1 4 0.45120971D-01 0.11446413D-01 0.18956966D+05 0.18956966D+05 0.18956966D+05 0.12363951D+01  3  4 11  5  5  1       21 0.116391300384D-03 0.100000000000D+01
-.122315992296D-06 0.000000000000D+00 -.124827963487D-12 0.170889296216D-05 0.000000000000D+00  6 -2 -2 25 -24 -1 -2 4 0.45120971D-01 0.11446413D-01 0.18956966D+05 0.18956966D+05 0.18956966D+05 0.12363951D+01  1  2  5  6  6  1       21 -.449577433392D-04 0.100000000000D+01
0.122307537544D-06 0.000000000000D+00 0.000000000000D+00 0.170889296216D-05 0.135977210274D+03  6 -2 -2 25 -24 -1 -2 4 0.45120971D-01 0.11446413D-01 0.18956966D+05 0.18956966D+05 0.18956966D+05 0.12363951D+01  1  2 11  6  6  1       21 0.449546357503D-04 0.100000000000D+01
-.122315992296D-06 0.000000000000D+00 -.124827963487D-12 0.170889296216D-05 0.000000000000D+00  6 2 -2 25 -24 2 -1 4 0.45120971D-01 0.11446413D-01 0.18956966D+05 0.18956966D+05 0.18956966D+05 0.12363951D+01  3  4  5  7  5  1       21 -.163627963191D-03 0.100000000000D+01
0.122307321497D-06 0.000000000000D+00 0.000000000000D+00 0.170889296216D-05 0.135976970081D+03  6 2 -2 25 -24 2 -1 4 0.45120971D-01 0.11446413D-01 0.18956966D+05 0.18956966D+05 0.18956966D+05 0.12363951D+01  3  4 11  7  5  1       21 0.163616363811D-03 0.100000000000D+01
-.122315992296D-06 0.000000000000D+00 -.124827963487D-12 0.170889296216D-05 0.000000000000D+00  6 -3 -2 25 -24 -1 -3 4 0.45120971D-01 0.11446413D-01 0.18956966D+05 0.18956966D+05 0.18956966D+05 0.12363951D+01  1  2  5  8  6  1       21 -.281332721790D-04 0.100000000000D+01
-.122315992296D-06 0.000000000000D+00 -.124827963487D-12 0.170889296216D-05 0.000000000000D+00  6 -4 -2 25 -24 -1 -4 4 0.45120971D-01 0.11446413D-01 0.18956966D+05 0.18956966D+05 0.18956966D+05 0.12363951D+01  1  2  5  8  6  1       21 -.231946024958D-04 0.100000000000D+01
0.122307321496D-06 0.000000000000D+00 0.000000000000D+00 0.170889296216D-05 0.135976970080D+03  6 -3 -2 25 -24 -1 -3 4 0.45120971D-01 0.11446413D-01 0.18956966D+05 0.18956966D+05 0.18956966D+05 0.12363951D+01  1  2 11  8  6  1       21 0.281312778477D-04 0.100000000000D+01
0.122307321496D-06 0.000000000000D+00 0.000000000000D+00 0.170889296216D-05 0.135976970080D+03  6 -4 -2 25 -24 -1 -4 4 0.45120971D-01 0.11446413D-01 0.18956966D+05 0.18956966D+05 0.18956966D+05 0.12363951D+01  1  2 11  8  6  1       21 0.231929582609D-04 0.100000000000D+01
-.122315992296D-06 0.000000000000D+00 -.124827963487D-12 0.170889296216D-05 0.000000000000D+00  6 3 -2 25 -24 3 -1 4 0.45120971D-01 0.11446413D-01 0.18956966D+05 0.18956966D+05 0.18956966D+05 0.12363951D+01  3  4  5  9  5  1       21 -.281417082040D-04 0.100000000000D+01
-.122315992296D-06 0.000000000000D+00 -.124827963487D-12 0.170889296216D-05 0.000000000000D+00  6 4 -2 25 -24 4 -1 4 0.45120971D-01 0.11446413D-01 0.18956966D+05 0.18956966D+05 0.18956966D+05 0.12363951D+01  3  4  5  9  5  1       21 -.231946024958D-04 0.100000000000D+01
0.122307321496D-06 0.000000000000D+00 0.000000000000D+00 0.170889296216D-05 0.135976970080D+03  6 3 -2 25 -24 3 -1 4 0.45120971D-01 0.11446413D-01 0.18956966D+05 0.18956966D+05 0.18956966D+05 0.12363951D+01  3  4 11  9  5  1       21 0.281397132747D-04 0.100000000000D+01
0.122307321496D-06 0.000000000000D+00 0.000000000000D+00 0.170889296216D-05 0.135976970080D+03  6 4 -2 25 -24 4 -1 4 0.45120971D-01 0.11446413D-01 0.18956966D+05 0.18956966D+05 0.18956966D+05 0.12363951D+01  3  4 11  9  5  1       21 0.231929582609D-04 0.100000000000D+01
  </mgrwgt>
  </event>
</LesHouchesEvents>
