<event>
 5    0  0.1911311E+001  0.2316826E+03  0.7546771E-02  0.1125461E+00
         21   -1    0    0  504  501  0.00000000000E+00  0.00000000000E+00  0.47675238517E+03  0.47675238517E+03  0.00000000000E+00 0.  1.
         21   -1    0    0  503  502 -0.00000000000E+00 -0.00000000000E+00 -0.58336157177E+03  0.58336157177E+03  0.00000000000E+00 0. -1.
         25    1    1    2    0    0  0.87671046351E+02 -0.21649393353E+03  0.32455478952E+03  0.41894706948E+03  0.12500000000E+03 0.  0.
         21    1    1    2  503  501 -0.59960687659E+02  0.18373563431E+03 -0.51331022398E+03  0.54849015800E+03  0.00000000000E+00 0. -1.
         21    1    1    2  504  502 -0.27710358692E+02  0.32758299216E+02  0.82146247855E+02  0.92676729458E+02  0.00000000000E+00 0.  1.
<mgrwt>
<rscale>  4 0.23168256E+03</rscale>
<asrwt>0</asrwt>
<pdfrwt beam="1">  1       21 0.73346521E-01 0.23168256E+03</pdfrwt>
<pdfrwt beam="2">  1       21 0.89747934E-01 0.23168256E+03</pdfrwt>
<totfact> 0.17078964E+03</totfact>
</mgrwt>
</event>
<event>
 5    0  0.1911311E+001  0.3008716E+03  0.7546771E-02  0.1084806E+00
         21   -1    0    0  502  501  0.00000000000E+00  0.00000000000E+00  0.26638265415E+04  0.26638265415E+04  0.00000000000E+00 0.  1.
         21   -1    0    0  504  502 -0.00000000000E+00 -0.00000000000E+00 -0.55482941965E+02  0.55482941965E+02  0.00000000000E+00 0.  1.
         25    1    1    2    0    0  0.77372550275E+02  0.27100923414E+03  0.51663318133E+03  0.60163723337E+03  0.12500000000E+03 0.  0.
         21    1    1    2  503  501 -0.42128181992E+02 -0.26901222313E+03  0.20139537994E+04  0.20322776055E+04  0.00000000000E+00 0.  1.
         21    1    1    2  504  503 -0.35244368283E+02 -0.19970110138E+01  0.77756618829E+02  0.85394644565E+02  0.00000000000E+00 0.  1.
<mgrwt>
<rscale>  4 0.30087157E+03</rscale>
<asrwt>0</asrwt>
<pdfrwt beam="1">  1       21 0.40981937E+00 0.30087157E+03</pdfrwt>
<pdfrwt beam="2">  1       21 0.85358393E-02 0.30087157E+03</pdfrwt>
<totfact> 0.70808098E+02</totfact>
</mgrwt>
</event>
<event>
 5    0  0.1911311E+001  0.2467408E+03  0.7546771E-02  0.1115382E+00
         21   -1    0    0  502  501  0.00000000000E+00  0.00000000000E+00  0.27608349364E+03  0.27608349364E+03  0.00000000000E+00 0.  1.
         21   -1    0    0  504  502 -0.00000000000E+00 -0.00000000000E+00 -0.68044731374E+03  0.68044731374E+03  0.00000000000E+00 0.  1.
         25    1    1    2    0    0  0.67007250968E+02 -0.20970144392E+03 -0.58790883308E+03  0.64009879181E+03  0.12500000000E+03 0.  0.
         21    1    1    2  503  501 -0.42779291834E+02  0.20790583808E+03  0.19619136762E+03  0.28904317678E+03  0.00000000000E+00 0.  1.
         21    1    1    2  504  503 -0.24227959134E+02  0.17956058398E+01 -0.12646354629E+02  0.27388838777E+02  0.00000000000E+00 0.  1.
<mgrwt>
<rscale>  4 0.24674081E+03</rscale>
<asrwt>0</asrwt>
<pdfrwt beam="1">  1       21 0.42474385E-01 0.24674081E+03</pdfrwt>
<pdfrwt beam="2">  1       21 0.10468420E+00 0.24674081E+03</pdfrwt>
<totfact> 0.37679206E+03</totfact>
</mgrwt>
</event>
<event>
 5    0  0.1911311E+001  0.3843520E+03  0.7546771E-02  0.1049337E+00
         21   -1    0    0  502  501  0.00000000000E+00  0.00000000000E+00  0.76873883610E+03  0.76873883610E+03  0.00000000000E+00 0. -1.
         21   -1    0    0  504  502 -0.00000000000E+00 -0.00000000000E+00 -0.10866037288E+04  0.10866037288E+04  0.00000000000E+00 0.  1.
         25    1    1    2    0    0 -0.35200168313E+03 -0.51195401119E+02 -0.86923769309E+03  0.94748367854E+03  0.12500000000E+03 0.  0.
         21    1    1    2  503  501  0.36384749934E+03  0.93264472243E+01  0.68043286754E+03  0.77166111254E+03  0.00000000000E+00 0. -1.
         21    1    1    2  504  503 -0.11845816210E+02  0.41868953895E+02 -0.12906006718E+03  0.13619777385E+03  0.00000000000E+00 0. -1.
<mgrwt>
<rscale>  4 0.38435203E+03</rscale>
<asrwt>0</asrwt>
<pdfrwt beam="1">  1       21 0.11826751E+00 0.38435203E+03</pdfrwt>
<pdfrwt beam="2">  1       21 0.16716980E+00 0.38435203E+03</pdfrwt>
<totfact> 0.10190739E+02</totfact>
</mgrwt>
</event>
