<event>
 5    0  0.2159162E+000  0.2373966E+03  0.7546771E-02  0.1121539E+00
         21   -1    0    0  502  501  0.00000000000E+00  0.00000000000E+00  0.24808260027E+03  0.24808260027E+03  0.00000000000E+00 0. -1.
         21   -1    0    0  503  502 -0.00000000000E+00 -0.00000000000E+00 -0.24099714051E+03  0.24099714051E+03  0.00000000000E+00 0. -1.
         25    1    1    2    0    0 -0.95568648793E+02 -0.17776041246E+03  0.10577534495E+03  0.25989527596E+03  0.12500000000E+03 0.  0.
         21    1    1    2  503  504  0.69306328285E+02  0.99492675282E+02 -0.77664504526E+02  0.14399282912E+03  0.00000000000E+00 0. -1.
         21    1    1    2  504  501  0.26262320509E+02  0.78267737176E+02 -0.21025380658E+02  0.85191635698E+02  0.00000000000E+00 0. -1.
<mgrwt>
<rscale>  4 0.23739657E+03</rscale>
<asrwt>0</asrwt>
<pdfrwt beam="1">  1       21 0.38166554E-01 0.23739657E+03</pdfrwt>
<pdfrwt beam="2">  1       21 0.37076483E-01 0.23739657E+03</pdfrwt>
<totfact> 0.45487527E+04</totfact>
</mgrwt>
</event>
<event>
 5    0  0.2159162E+000  0.3022769E+03  0.7546771E-02  0.1084108E+00
         21   -1    0    0  502  501  0.00000000000E+00  0.00000000000E+00  0.21438117913E+03  0.21438117913E+03  0.00000000000E+00 0.  1.
         21   -1    0    0  503  502 -0.00000000000E+00 -0.00000000000E+00 -0.48738492747E+03  0.48738492747E+03  0.00000000000E+00 0.  1.
         25    1    1    2    0    0  0.23746792448E+03 -0.13912335525E+03 -0.28073572461E+03  0.41253347768E+03  0.12500000000E+03 0.  0.
         21    1    1    2  503  504 -0.13267795380E+03  0.49747217883E+02 -0.33230657498E+02  0.14554209601E+03  0.00000000000E+00 0.  1.
         21    1    1    2  504  501 -0.10478997068E+03  0.89376137364E+02  0.40962633770E+02  0.14369053292E+03  0.00000000000E+00 0.  1.
<mgrwt>
<rscale>  4 0.30227690E+03</rscale>
<asrwt>0</asrwt>
<pdfrwt beam="1">  1       21 0.32981720E-01 0.30227690E+03</pdfrwt>
<pdfrwt beam="2">  1       21 0.74982296E-01 0.30227690E+03</pdfrwt>
<totfact> 0.13276478E+04</totfact>
</mgrwt>
</event>
<event>
 5    0  0.4219523E+000  0.2377910E+03  0.7546771E-02  0.1121273E+00
         21   -1    0    0  502  501  0.00000000000E+00  0.00000000000E+00  0.10812836232E+03  0.10812836232E+03  0.00000000000E+00 0.  1.
         21   -1    0    0  503  502 -0.00000000000E+00 -0.00000000000E+00 -0.53773950625E+03  0.53773950625E+03  0.00000000000E+00 0.  1.
         25    1    1    2    0    0 -0.20227899470E+03 -0.16648587011E+01 -0.10354980037E+03  0.25935906502E+03  0.12500000000E+03 0.  0.
         21    1    1    2  503  504  0.28029775907E+02  0.16268289170E+02 -0.58465190357E+02  0.66846870184E+02  0.00000000000E+00 0. -1.
         21    1    1    2  504  501  0.17424921879E+03 -0.14603430469E+02 -0.26759615321E+03  0.31966193337E+03  0.00000000000E+00 0.  1.
<mgrwt>
<rscale>  4 0.23779101E+03</rscale>
<asrwt>0</asrwt>
<pdfrwt beam="1">  1       21 0.16635133E-01 0.23779101E+03</pdfrwt>
<pdfrwt beam="2">  1       21 0.82729153E-01 0.23779101E+03</pdfrwt>
<totfact> 0.40473436E+04</totfact>
</mgrwt>
</event>
<event>
 5    0  0.2159162E+000  0.3269224E+03  0.7546771E-02  0.1072841E+00
         21   -1    0    0  502  501  0.00000000000E+00  0.00000000000E+00  0.83772100851E+03  0.83772100851E+03  0.00000000000E+00 0. -1.
         21   -1    0    0  503  502 -0.00000000000E+00 -0.00000000000E+00 -0.15134340280E+03  0.15134340280E+03  0.00000000000E+00 0. -1.
         25    1    1    2    0    0 -0.72578152527E+02 -0.28991864077E+03  0.54254114589E+03  0.63189896461E+03  0.12500000000E+03 0.  0.
         21    1    1    2  503  504  0.47758638561E+02  0.19800115955E+03  0.25479857438E+02  0.20526706964E+03  0.00000000000E+00 0. -1.
         21    1    1    2  504  501  0.24819513966E+02  0.91917481213E+02  0.11835660239E+03  0.15189837706E+03  0.00000000000E+00 0. -1.
<mgrwt>
<rscale>  4 0.32617742E+03</rscale>
<asrwt>0</asrwt>
<pdfrwt beam="1">  1       21 0.12888015E+00 0.32692236E+03</pdfrwt>
<pdfrwt beam="2">  1       21 0.23283601E-01 0.32692236E+03</pdfrwt>
<totfact> 0.70689002E+03</totfact>
</mgrwt>
</event>
<event>
 5    0  0.2159162E+000  0.2334805E+03  0.7546771E-02  0.1124214E+00
         21   -1    0    0  502  501  0.00000000000E+00  0.00000000000E+00  0.45428766675E+02  0.45428766675E+02  0.00000000000E+00 0.  1.
         21   -1    0    0  503  502 -0.00000000000E+00 -0.00000000000E+00 -0.29342657639E+04  0.29342657639E+04  0.00000000000E+00 0.  1.
         25    1    1    2    0    0  0.16157938289E+03 -0.20740204301E+03 -0.61199944886E+03  0.67771072725E+03  0.12500000000E+03 0.  0.
         21    1    1    2  503  504 -0.36888185203E+02  0.12905474981E+03 -0.17444059029E+04  0.17495621797E+04  0.00000000000E+00 0.  1.
         21    1    1    2  504  501 -0.12469119769E+03  0.78347293197E+02 -0.53243164554E+03  0.55242162367E+03  0.00000000000E+00 0.  1.
<mgrwt>
<rscale>  4 0.23348054E+03</rscale>
<asrwt>0</asrwt>
<pdfrwt beam="1">  1       21 0.69890414E-02 0.23348054E+03</pdfrwt>
<pdfrwt beam="2">  1       21 0.45142548E+00 0.23348054E+03</pdfrwt>
<totfact> 0.58040775E+02</totfact>
</mgrwt>
</event>
<event>
 5    0  0.2159162E+000  0.3079049E+03  0.7546771E-02  0.1081354E+00
         21   -1    0    0  502  501  0.00000000000E+00  0.00000000000E+00  0.36968282054E+03  0.36968282054E+03  0.00000000000E+00 0.  1.
         21   -1    0    0  503  502 -0.00000000000E+00 -0.00000000000E+00 -0.55927859819E+03  0.55927859819E+03  0.00000000000E+00 0.  1.
         25    1    1    2    0    0 -0.25973526619E+03 -0.10577700408E+03  0.17251793842E+03  0.35219117276E+03  0.12500000000E+03 0.  0.
         21    1    1    2  503  504  0.22367319735E+03  0.19113062129E+03 -0.12038074853E+03  0.31788698971E+03  0.00000000000E+00 0.  1.
         21    1    1    2  504  501  0.36062068844E+02 -0.85353617211E+02 -0.24173296753E+03  0.25888325626E+03  0.00000000000E+00 0.  1.
<mgrwt>
<rscale>  4 0.30790486E+03</rscale>
<asrwt>0</asrwt>
<pdfrwt beam="1">  1       21 0.56874280E-01 0.30790486E+03</pdfrwt>
<pdfrwt beam="2">  1       21 0.86042861E-01 0.30790486E+03</pdfrwt>
<totfact> 0.31324110E+03</totfact>
</mgrwt>
</event>
<event>
 5    0  0.2655557E+000  0.3595322E+03  0.7546771E-02  0.1058769E+00
         21   -1    0    0  502  501  0.00000000000E+00  0.00000000000E+00  0.10158063150E+04  0.10158063150E+04  0.00000000000E+00 0.  1.
         21   -1    0    0  503  502 -0.00000000000E+00 -0.00000000000E+00 -0.15903983091E+03  0.15903983091E+03  0.00000000000E+00 0.  1.
         25    1    1    2    0    0  0.32142251122E+03  0.12756260746E+03  0.21382543952E+03  0.42535981019E+03  0.12500000000E+03 0.  0.
         21    1    1    2  503  504 -0.17193671841E+02 -0.17244166652E+02  0.19698969696E+03  0.19848910384E+03  0.00000000000E+00 0.  1.
         21    1    1    2  504  501 -0.30422883938E+03 -0.11031844081E+03  0.44595134757E+03  0.55099723184E+03  0.00000000000E+00 0.  1.
<mgrwt>
<rscale>  4 0.35953225E+03</rscale>
<asrwt>0</asrwt>
<pdfrwt beam="1">  1       21 0.15627789E+00 0.35953225E+03</pdfrwt>
<pdfrwt beam="2">  1       21 0.24467667E-01 0.35953225E+03</pdfrwt>
<totfact> 0.38007125E+03</totfact>
</mgrwt>
</event>
<event>
 5    0  0.3724912E+000  0.2746436E+03  0.7546771E-02  0.1098651E+00
         21   -1    0    0  502  501  0.00000000000E+00  0.00000000000E+00  0.12956944630E+04  0.12956944630E+04  0.00000000000E+00 0. -1.
         21   -1    0    0  503  502 -0.00000000000E+00 -0.00000000000E+00 -0.98538777933E+02  0.98538777933E+02  0.00000000000E+00 0. -1.
         25    1    1    2    0    0 -0.23323734043E+03  0.73514849759E+02  0.10659970238E+04  0.11008082235E+04  0.12500000000E+03 0.  0.
         21    1    1    2  503  504  0.17236905834E+03 -0.93709025380E+02  0.11451434216E+03  0.22716955842E+03  0.00000000000E+00 0. -1.
         21    1    1    2  504  501  0.60868282082E+02  0.20194175621E+02  0.16644319083E+02  0.66255459023E+02  0.00000000000E+00 0.  1.
<mgrwt>
<rscale>  4 0.27464357E+03</rscale>
<asrwt>0</asrwt>
<pdfrwt beam="1">  1       21 0.19933760E+00 0.27464357E+03</pdfrwt>
<pdfrwt beam="2">  1       21 0.15159813E-01 0.27464357E+03</pdfrwt>
<totfact> 0.48908772E+03</totfact>
</mgrwt>
</event>
<event>
 5    0  0.2159162E+000  0.2400105E+03  0.7546771E-02  0.1119786E+00
         21   -1    0    0  502  501  0.00000000000E+00  0.00000000000E+00  0.48218301357E+03  0.48218301357E+03  0.00000000000E+00 0. -1.
         21   -1    0    0  503  502 -0.00000000000E+00 -0.00000000000E+00 -0.49500632825E+03  0.49500632825E+03  0.00000000000E+00 0.  1.
         25    1    1    2    0    0 -0.20457818302E+03 -0.11305595621E+02  0.42754083397E+03  0.49030216619E+03  0.12500000000E+03 0.  0.
         21    1    1    2  503  504  0.18309059396E+03  0.90381000967E+01 -0.36441298072E+03  0.40792238646E+03  0.00000000000E+00 0.  1.
         21    1    1    2  504  501  0.21487589059E+02  0.22674955247E+01 -0.75951167929E+02  0.78964789174E+02  0.00000000000E+00 0.  1.
<mgrwt>
<rscale>  4 0.24001052E+03</rscale>
<asrwt>0</asrwt>
<pdfrwt beam="1">  1       21 0.74182002E-01 0.24001052E+03</pdfrwt>
<pdfrwt beam="2">  1       21 0.76154819E-01 0.24001052E+03</pdfrwt>
<totfact> 0.24095651E+03</totfact>
</mgrwt>
</event>
<event>
 5    0  0.2159162E+000  0.2819008E+03  0.7546771E-02  0.1094655E+00
         21   -1    0    0  502  501  0.00000000000E+00  0.00000000000E+00  0.87760340024E+03  0.87760340024E+03  0.00000000000E+00 0. -1.
         21   -1    0    0  503  502 -0.00000000000E+00 -0.00000000000E+00 -0.15136685261E+03  0.15136685261E+03  0.00000000000E+00 0.  1.
         25    1    1    2    0    0  0.42491529663E+02 -0.25248023693E+03  0.50683285656E+03  0.58142612998E+03  0.12500000000E+03 0.  0.
         21    1    1    2  503  504  0.81459855759E+02  0.25304567511E+03  0.15757122673E+03  0.30902510138E+03  0.00000000000E+00 0.  1.
         21    1    1    2  504  501 -0.12395138542E+03 -0.56543817076E+00  0.61832464343E+02  0.13851902149E+03  0.00000000000E+00 0.  1.
<mgrwt>
<rscale>  4 0.28190078E+03</rscale>
<asrwt>0</asrwt>
<pdfrwt beam="1">  1       21 0.13501590E+00 0.28190078E+03</pdfrwt>
<pdfrwt beam="2">  1       21 0.23287209E-01 0.28190078E+03</pdfrwt>
<totfact> 0.64139397E+03</totfact>
</mgrwt>
</event>
<event>
 5    0  0.2159162E+000  0.4058147E+03  0.7546771E-02  0.1041785E+00
         21   -1    0    0  502  501  0.00000000000E+00  0.00000000000E+00  0.78663877783E+03  0.78663877783E+03  0.00000000000E+00 0. -1.
         21   -1    0    0  503  502 -0.00000000000E+00 -0.00000000000E+00 -0.48128875069E+03  0.48128875069E+03  0.00000000000E+00 0. -1.
         25    1    1    2    0    0 -0.39307615538E+03  0.61273287050E+02  0.58594799024E+03  0.71918240169E+03  0.12500000000E+03 0.  0.
         21    1    1    2  503  504  0.38358362644E+03 -0.28115672626E+02 -0.31713615344E+03  0.49849997928E+03  0.00000000000E+00 0. -1.
         21    1    1    2  504  501  0.94925289429E+01 -0.33157614423E+02  0.36538190327E+02  0.50245147550E+02  0.00000000000E+00 0.  1.
<mgrwt>
<rscale>  4 0.40581472E+03</rscale>
<asrwt>0</asrwt>
<pdfrwt beam="1">  1       21 0.12102135E+00 0.40581472E+03</pdfrwt>
<pdfrwt beam="2">  1       21 0.74044423E-01 0.40581472E+03</pdfrwt>
<totfact> 0.72742039E+02</totfact>
</mgrwt>
</event>
<event>
 5    0  0.2687818E+000  0.2575018E+03  0.7546771E-02  0.1108654E+00
         21   -1    0    0  502  501  0.00000000000E+00  0.00000000000E+00  0.43027536247E+03  0.43027536247E+03  0.00000000000E+00 0.  1.
         21   -1    0    0  503  502 -0.00000000000E+00 -0.00000000000E+00 -0.31217802630E+03  0.31217802630E+03  0.00000000000E+00 0.  1.
         25    1    1    2    0    0 -0.20058685470E+03 -0.11698440030E+03  0.32000785333E+03  0.41466909987E+03  0.12500000000E+03 0.  0.
         21    1    1    2  503  504  0.45062248121E+02 -0.97785525353E+01 -0.81907177577E+02  0.93994744715E+02  0.00000000000E+00 0.  1.
         21    1    1    2  504  501  0.15552460658E+03  0.12676295283E+03 -0.12000333959E+03  0.23378954419E+03  0.00000000000E+00 0.  1.
<mgrwt>
<rscale>  4 0.25750181E+03</rscale>
<asrwt>0</asrwt>
<pdfrwt beam="1">  1       21 0.66196210E-01 0.25750181E+03</pdfrwt>
<pdfrwt beam="2">  1       21 0.48027389E-01 0.25750181E+03</pdfrwt>
<totfact> 0.83283944E+03</totfact>
</mgrwt>
</event>
<event>
 5    0  0.2159162E+000  0.2448628E+03  0.7546771E-02  0.1116595E+00
         21   -1    0    0  502  501  0.00000000000E+00  0.00000000000E+00  0.30126690605E+03  0.30126690605E+03  0.00000000000E+00 0. -1.
         21   -1    0    0  503  502 -0.00000000000E+00 -0.00000000000E+00 -0.19169552838E+03  0.19169552838E+03  0.00000000000E+00 0. -1.
         25    1    1    2    0    0 -0.19380503138E+03  0.82294629981E+02  0.11391475477E+03  0.27006363633E+03  0.12500000000E+03 0.  0.
         21    1    1    2  503  504  0.79149557300E+02 -0.22246268202E+02  0.32377680490E+02  0.88362113282E+02  0.00000000000E+00 0. -1.
         21    1    1    2  504  501  0.11465547408E+03 -0.60048361779E+02 -0.36721057590E+02  0.13453668481E+03  0.00000000000E+00 0. -1.
<mgrwt>
<rscale>  4 0.24486281E+03</rscale>
<asrwt>0</asrwt>
<pdfrwt beam="1">  1       21 0.46348755E-01 0.24486281E+03</pdfrwt>
<pdfrwt beam="2">  1       21 0.29491620E-01 0.24486281E+03</pdfrwt>
<totfact> 0.47976307E+04</totfact>
</mgrwt>
</event>
<event>
 5    0  0.4168378E+000  0.2568928E+03  0.7546771E-02  0.1109025E+00
         21   -1    0    0  502  501  0.00000000000E+00  0.00000000000E+00  0.17856134930E+04  0.17856134930E+04  0.00000000000E+00 0.  1.
         21   -1    0    0  503  502 -0.00000000000E+00 -0.00000000000E+00 -0.62809929801E+02  0.62809929801E+02  0.00000000000E+00 0.  1.
         25    1    1    2    0    0  0.17520720946E+03 -0.14371181994E+03  0.14954212386E+04  0.15176496085E+04  0.12500000000E+03 0.  0.
         21    1    1    2  503  504 -0.21029521164E+02 -0.69532878139E+01  0.37236965495E+02  0.43326441939E+02  0.00000000000E+00 0.  1.
         21    1    1    2  504  501 -0.15417768830E+03  0.15066510776E+03  0.19014535908E+03  0.28744737230E+03  0.00000000000E+00 0.  1.
<mgrwt>
<rscale>  4 0.25689277E+03</rscale>
<asrwt>0</asrwt>
<pdfrwt beam="1">  1       21 0.27470973E+00 0.25689277E+03</pdfrwt>
<pdfrwt beam="2">  1       21 0.96630675E-02 0.25689277E+03</pdfrwt>
<totfact> 0.38640323E+03</totfact>
</mgrwt>
</event>
<event>
 5    0  0.2159162E+000  0.3628698E+03  0.7546771E-02  0.1057453E+00
         21   -1    0    0  502  501  0.00000000000E+00  0.00000000000E+00  0.70046392095E+03  0.70046392095E+03  0.00000000000E+00 0. -1.
         21   -1    0    0  503  502 -0.00000000000E+00 -0.00000000000E+00 -0.54020459127E+03  0.54020459127E+03  0.00000000000E+00 0. -1.
         25    1    1    2    0    0 -0.17211838884E+03  0.29951907013E+03  0.57041809354E+03  0.67848228760E+03  0.12500000000E+03 0.  0.
         21    1    1    2  503  504  0.19846010420E+03 -0.23461376167E+03 -0.37169682669E+03  0.48227436288E+03  0.00000000000E+00 0. -1.
         21    1    1    2  504  501 -0.26341715360E+02 -0.64905308462E+02 -0.38461937181E+02  0.79911861738E+02  0.00000000000E+00 0. -1.
<mgrwt>
<rscale>  4 0.36286977E+03</rscale>
<asrwt>0</asrwt>
<pdfrwt beam="1">  1       21 0.10776368E+00 0.36286977E+03</pdfrwt>
<pdfrwt beam="2">  1       21 0.83108398E-01 0.36286977E+03</pdfrwt>
<totfact> 0.76209093E+02</totfact>
</mgrwt>
</event>
<event>
 5    0  0.6433698E+000  0.2537753E+03  0.7546771E-02  0.1110942E+00
         21   -1    0    0  502  501  0.00000000000E+00  0.00000000000E+00  0.44243915244E+03  0.44243915244E+03  0.00000000000E+00 0.  1.
         21   -1    0    0  503  502 -0.00000000000E+00 -0.00000000000E+00 -0.30184661026E+03  0.30184661026E+03  0.00000000000E+00 0.  1.
         25    1    1    2    0    0  0.14001416595E+03  0.17080082625E+03  0.35224566651E+03  0.43414156503E+03  0.12500000000E+03 0.  0.
         21    1    1    2  503  504 -0.20648227172E+01 -0.24803306968E+02 -0.32956755086E+02  0.41299094847E+02  0.00000000000E+00 0. -1.
         21    1    1    2  504  501 -0.13794934323E+03 -0.14599751928E+03 -0.17869636924E+03  0.26884510282E+03  0.00000000000E+00 0.  1.
<mgrwt>
<rscale>  4 0.25377527E+03</rscale>
<asrwt>0</asrwt>
<pdfrwt beam="1">  1       21 0.68067562E-01 0.25377527E+03</pdfrwt>
<pdfrwt beam="2">  1       21 0.46437940E-01 0.25377527E+03</pdfrwt>
<totfact> 0.84177984E+03</totfact>
</mgrwt>
</event>
<event>
 5    0  0.2159162E+000  0.2636268E+03  0.7546771E-02  0.1104984E+00
         21   -1    0    0  502  501  0.00000000000E+00  0.00000000000E+00  0.11630570860E+03  0.11630570860E+03  0.00000000000E+00 0.  1.
         21   -1    0    0  503  502 -0.00000000000E+00 -0.00000000000E+00 -0.56616583251E+03  0.56616583251E+03  0.00000000000E+00 0.  1.
         25    1    1    2    0    0  0.19550328087E+03 -0.12511026187E+03 -0.16081222323E+03  0.30880362951E+03  0.12500000000E+03 0.  0.
         21    1    1    2  503  504 -0.16571081120E+03  0.83307375025E+02 -0.22730942203E+03  0.29337649024E+03  0.00000000000E+00 0.  1.
         21    1    1    2  504  501 -0.29792469672E+02  0.41802886842E+02 -0.61738478650E+02  0.80291421356E+02  0.00000000000E+00 0.  1.
<mgrwt>
<rscale>  4 0.26362684E+03</rscale>
<asrwt>0</asrwt>
<pdfrwt beam="1">  1       21 0.17893186E-01 0.26362684E+03</pdfrwt>
<pdfrwt beam="2">  1       21 0.87102435E-01 0.26362684E+03</pdfrwt>
<totfact> 0.31050193E+04</totfact>
</mgrwt>
</event>
<event>
 5    0  0.2180127E+000  0.2162688E+03  0.7546771E-02  0.1136696E+00
         21   -1    0    0  502  501  0.00000000000E+00  0.00000000000E+00  0.63094564369E+03  0.63094564369E+03  0.00000000000E+00 0. -1.
         21   -1    0    0  503  502 -0.00000000000E+00 -0.00000000000E+00 -0.12328210708E+03  0.12328210708E+03  0.00000000000E+00 0. -1.
         25    1    1    2    0    0 -0.22589885850E+03  0.60421216401E+02  0.32693618326E+03  0.42094332824E+03  0.12500000000E+03 0.  0.
         21    1    1    2  503  504  0.99236642373E+02  0.14421063475E+02  0.42993746246E-01  0.10027901131E+03  0.00000000000E+00 0. -1.
         21    1    1    2  504  501  0.12666221613E+03 -0.74842279876E+02  0.18068435961E+03  0.23300541122E+03  0.00000000000E+00 0. -1.
<mgrwt>
<rscale>  4 0.21626881E+03</rscale>
<asrwt>0</asrwt>
<pdfrwt beam="1">  1       21 0.97068559E-01 0.21626881E+03</pdfrwt>
<pdfrwt beam="2">  1       21 0.18966478E-01 0.21626881E+03</pdfrwt>
<totfact> 0.22129338E+04</totfact>
</mgrwt>
</event>
