<event>
 5    0  0.2344091E+000  0.2692052E+03  0.7546771E-02  0.1101735E+00
         21   -1    0    0  502  501  0.00000000000E+00  0.00000000000E+00  0.11891574520E+04  0.11891574520E+04  0.00000000000E+00 0.  1.
         21   -1    0    0  503  502 -0.00000000000E+00 -0.00000000000E+00 -0.61216752862E+02  0.61216752862E+02  0.00000000000E+00 0.  1.
         25    1    1    2    0    0 -0.99654857897E+02  0.21659955861E+03  0.77863821156E+03  0.82386219964E+03  0.12500000000E+03 0.  0.
         21    1    1    2  503  504  0.41681363174E+02 -0.49884207658E+02  0.65385244907E+02  0.92200870176E+02  0.00000000000E+00 0.  1.
         21    1    1    2  504  501  0.57973494722E+02 -0.16671535095E+03  0.28391724271E+03  0.33431113509E+03  0.00000000000E+00 0.  1.
<mgrwt>
<rscale>  4 0.26920524E+03</rscale>
<asrwt>0</asrwt>
<pdfrwt beam="1">  1       21 0.18294728E+00 0.26920524E+03</pdfrwt>
<pdfrwt beam="2">  1       21 0.94179629E-02 0.26920524E+03</pdfrwt>
<totfact> 0.14901393E+04</totfact>
</mgrwt>
</event>
<event>
 5    0  0.3241548E+000  0.2915843E+03  0.7546771E-02  0.1089525E+00
         21   -1    0    0  502  501  0.00000000000E+00  0.00000000000E+00  0.74312725435E+03  0.74312725435E+03  0.00000000000E+00 0.  1.
         21   -1    0    0  503  502 -0.00000000000E+00 -0.00000000000E+00 -0.10746873094E+03  0.10746873094E+03  0.00000000000E+00 0.  1.
         25    1    1    2    0    0 -0.10677221777E+03  0.24082378936E+03  0.35018224742E+03  0.45568520979E+03  0.12500000000E+03 0.  0.
         21    1    1    2  503  504  0.81742073094E+01 -0.40846496146E+02  0.86776331549E+02  0.96256873156E+02  0.00000000000E+00 0.  1.
         21    1    1    2  504  501  0.98598010461E+02 -0.19997729321E+03  0.19869994444E+03  0.29865390235E+03  0.00000000000E+00 0.  1.
<mgrwt>
<rscale>  4 0.29158430E+03</rscale>
<asrwt>0</asrwt>
<pdfrwt beam="1">  1       21 0.11432727E+00 0.29158430E+03</pdfrwt>
<pdfrwt beam="2">  1       21 0.16533651E-01 0.29158430E+03</pdfrwt>
<totfact> 0.18518337E+04</totfact>
</mgrwt>
</event>
<event>
 5    0  0.2159162E+000  0.2446091E+03  0.7546771E-02  0.1116760E+00
         21   -1    0    0  502  501  0.00000000000E+00  0.00000000000E+00  0.18783785366E+03  0.18783785366E+03  0.00000000000E+00 0.  1.
         21   -1    0    0  503  502 -0.00000000000E+00 -0.00000000000E+00 -0.11303932642E+04  0.11303932642E+04  0.00000000000E+00 0. -1.
         25    1    1    2    0    0 -0.41079511306E+02  0.20601224413E+03  0.86533491974E+02  0.25930988453E+03  0.12500000000E+03 0.  0.
         21    1    1    2  503  504  0.65303387161E+02 -0.20351450661E+03 -0.99044478233E+03  0.10132440741E+04  0.00000000000E+00 0. -1.
         21    1    1    2  504  501 -0.24223875855E+02 -0.24977375212E+01 -0.38644120126E+02  0.45677159221E+02  0.00000000000E+00 0.  1.
<mgrwt>
<rscale>  4 0.24460908E+03</rscale>
<asrwt>0</asrwt>
<pdfrwt beam="1">  1       21 0.28898132E-01 0.24460908E+03</pdfrwt>
<pdfrwt beam="2">  1       21 0.17390665E+00 0.24460908E+03</pdfrwt>
<totfact> 0.21931383E+03</totfact>
</mgrwt>
</event>
<event>
 5    0  0.2159162E+000  0.2402706E+03  0.7546771E-02  0.1119613E+00
         21   -1    0    0  502  501  0.00000000000E+00  0.00000000000E+00  0.53127629947E+03  0.53127629947E+03  0.00000000000E+00 0. -1.
         21   -1    0    0  503  502 -0.00000000000E+00 -0.00000000000E+00 -0.32353070525E+03  0.32353070525E+03  0.00000000000E+00 0. -1.
         25    1    1    2    0    0  0.17691837476E+03 -0.10394643413E+03 -0.25114588294E+03  0.34756902482E+03  0.12500000000E+03 0.  0.
         21    1    1    2  503  504 -0.26306277244E+02  0.24706474559E+02  0.15292712698E+03  0.15712777053E+03  0.00000000000E+00 0. -1.
         21    1    1    2  504  501 -0.15061209752E+03  0.79239959573E+02  0.30596435019E+03  0.35011020936E+03  0.00000000000E+00 0. -1.
<mgrwt>
<rscale>  4 0.24027062E+03</rscale>
<asrwt>0</asrwt>
<pdfrwt beam="1">  1       21 0.81734815E-01 0.24027062E+03</pdfrwt>
<pdfrwt beam="2">  1       21 0.49773955E-01 0.24027062E+03</pdfrwt>
<totfact> 0.48686664E+03</totfact>
</mgrwt>
</event>
<event>
 5    0  0.2159162E+000  0.4369047E+03  0.7546771E-02  0.1031701E+00
         21   -1    0    0  502  501  0.00000000000E+00  0.00000000000E+00  0.34048507849E+03  0.34048507849E+03  0.00000000000E+00 0. -1.
         21   -1    0    0  503  502 -0.00000000000E+00 -0.00000000000E+00 -0.72939597704E+03  0.72939597704E+03  0.00000000000E+00 0. -1.
         25    1    1    2    0    0  0.24413007592E+03 -0.34009005050E+03  0.73216465187E+02  0.44299705100E+03  0.12500000000E+03 0.  0.
         21    1    1    2  503  504 -0.65041313107E+01  0.38680389335E+02 -0.52564655531E+02  0.65585968426E+02  0.00000000000E+00 0. -1.
         21    1    1    2  504  501 -0.23762594461E+03  0.30140966116E+03 -0.40956270820E+03  0.56129803611E+03  0.00000000000E+00 0. -1.
<mgrwt>
<rscale>  4 0.43690472E+03</rscale>
<asrwt>0</asrwt>
<pdfrwt beam="1">  1       21 0.52382320E-01 0.43690472E+03</pdfrwt>
<pdfrwt beam="2">  1       21 0.11221476E+00 0.43690472E+03</pdfrwt>
<totfact> 0.18595996E+03</totfact>
</mgrwt>
</event>
<event>
 5    0  0.2159162E+000  0.2393846E+03  0.7546771E-02  0.1120203E+00
         21   -1    0    0  502  501  0.00000000000E+00  0.00000000000E+00  0.10547998546E+04  0.10547998546E+04  0.00000000000E+00 0.  1.
         21   -1    0    0  503  502 -0.00000000000E+00 -0.00000000000E+00 -0.72879503716E+02  0.72879503716E+02  0.00000000000E+00 0.  1.
         25    1    1    2    0    0  0.21354786065E+03 -0.95089670113E+01  0.65286727825E+03  0.69825052256E+03  0.12500000000E+03 0.  0.
         21    1    1    2  503  504 -0.19940761806E+02  0.23151259489E+02 -0.15280188184E+02  0.34162829922E+02  0.00000000000E+00 0.  1.
         21    1    1    2  504  501 -0.19360709885E+03 -0.13642292478E+02  0.34433326086E+03  0.39526600587E+03  0.00000000000E+00 0.  1.
<mgrwt>
<rscale>  4 0.23938458E+03</rscale>
<asrwt>0</asrwt>
<pdfrwt beam="1">  1       21 0.16227689E+00 0.23938458E+03</pdfrwt>
<pdfrwt beam="2">  1       21 0.11212232E-01 0.23938458E+03</pdfrwt>
<totfact> 0.15553517E+04</totfact>
</mgrwt>
</event>
<event>
 5    0  0.2159162E+000  0.2588159E+03  0.7546771E-02  0.1107857E+00
         21   -1    0    0  502  501  0.00000000000E+00  0.00000000000E+00  0.10701888906E+04  0.10701888906E+04  0.00000000000E+00 0. -1.
         21   -1    0    0  503  502 -0.00000000000E+00 -0.00000000000E+00 -0.57229509787E+02  0.57229509787E+02  0.00000000000E+00 0.  1.
         25    1    1    2    0    0 -0.22660556392E+03 -0.32577513042E+01  0.54860279582E+03  0.60658941808E+03  0.12500000000E+03 0.  0.
         21    1    1    2  503  504  0.16469027028E+03 -0.25876982598E+02  0.34728206841E+03  0.38522375107E+03  0.00000000000E+00 0.  1.
         21    1    1    2  504  501  0.61915293638E+02  0.29134733902E+02  0.11707451663E+03  0.13560523128E+03  0.00000000000E+00 0. -1.
<mgrwt>
<rscale>  4 0.25881595E+03</rscale>
<asrwt>0</asrwt>
<pdfrwt beam="1">  1       21 0.16464443E+00 0.25881595E+03</pdfrwt>
<pdfrwt beam="2">  1       21 0.88045408E-02 0.25881595E+03</pdfrwt>
<totfact> 0.22715111E+04</totfact>
</mgrwt>
</event>
