<event>
 5    0  0.1856407E+000  0.2461865E+03  0.7546771E-02  0.1115739E+00
         21   -1    0    0  502  501  0.00000000000E+00  0.00000000000E+00  0.12174955327E+03  0.12174955327E+03  0.00000000000E+00 0. -1.
         21   -1    0    0  503  502 -0.00000000000E+00 -0.00000000000E+00 -0.46597550112E+03  0.46597550112E+03  0.00000000000E+00 0. -1.
         25    1    1    2    0    0  0.20395390530E+03  0.58185810638E+02 -0.19028811532E+03  0.31115486639E+03  0.12500000000E+03 0.  0.
         21    1    1    2  503  504 -0.55884748427E+02 -0.25983384191E+02 -0.96536809984E+02  0.11453207866E+03  0.00000000000E+00 0. -1.
         21    1    1    2  504  501 -0.14806915688E+03 -0.32202426447E+02 -0.57401022549E+02  0.16203810933E+03  0.00000000000E+00 0. -1.
<mgrwt>
<rscale>  4 0.24618648E+03</rscale>
<asrwt>0</asrwt>
<pdfrwt beam="1">  1       21 0.18730701E-01 0.24618648E+03</pdfrwt>
<pdfrwt beam="2">  1       21 0.71688538E-01 0.24618648E+03</pdfrwt>
<totfact> 0.44714139E+04</totfact>
</mgrwt>
</event>
<event>
 5    0  0.1856407E+000  0.4108202E+03  0.7546771E-02  0.1040096E+00
         21   -1    0    0  502  501  0.00000000000E+00  0.00000000000E+00  0.47657969746E+03  0.47657969746E+03  0.00000000000E+00 0. -1.
         21   -1    0    0  503  502 -0.00000000000E+00 -0.00000000000E+00 -0.41288602528E+03  0.41288602528E+03  0.00000000000E+00 0.  1.
         25    1    1    2    0    0  0.39639358086E+02  0.38932887899E+03  0.20342777242E+03  0.45842787144E+03  0.12500000000E+03 0.  0.
         21    1    1    2  503  504 -0.65439453703E+02 -0.25652739595E+03 -0.13124005712E+03  0.29548702098E+03  0.00000000000E+00 0.  1.
         21    1    1    2  504  501  0.25800095618E+02 -0.13280148304E+03 -0.84940431226E+01  0.13555083032E+03  0.00000000000E+00 0.  1.
<mgrwt>
<rscale>  4 0.41082022E+03</rscale>
<asrwt>0</asrwt>
<pdfrwt beam="1">  1       21 0.73319954E-01 0.41082022E+03</pdfrwt>
<pdfrwt beam="2">  1       21 0.63520927E-01 0.41082022E+03</pdfrwt>
<totfact> 0.33921822E+03</totfact>
</mgrwt>
</event>
<event>
 5    0  0.1865884E+000  0.2606433E+03  0.7546771E-02  0.1106757E+00
         21   -1    0    0  502  501  0.00000000000E+00  0.00000000000E+00  0.29775636206E+03  0.29775636206E+03  0.00000000000E+00 0. -1.
         21   -1    0    0  503  502 -0.00000000000E+00 -0.00000000000E+00 -0.21565635126E+03  0.21565635126E+03  0.00000000000E+00 0. -1.
         25    1    1    2    0    0  0.39579359544E+02  0.22526294728E+03  0.14575417940E+02  0.26105050072E+03  0.12500000000E+03 0.  0.
         21    1    1    2  503  504 -0.17460330586E+02 -0.16826044569E+03  0.84235241520E+02  0.18897623301E+03  0.00000000000E+00 0. -1.
         21    1    1    2  504  501 -0.22119028958E+02 -0.57002501588E+02 -0.16710648659E+02  0.63385979585E+02  0.00000000000E+00 0. -1.
<mgrwt>
<rscale>  4 0.26064328E+03</rscale>
<asrwt>0</asrwt>
<pdfrwt beam="1">  1       21 0.45808671E-01 0.26064328E+03</pdfrwt>
<pdfrwt beam="2">  1       21 0.33177900E-01 0.26064328E+03</pdfrwt>
<totfact> 0.38725324E+04</totfact>
</mgrwt>
</event>
<event>
 5    0  0.1856407E+000  0.2612707E+03  0.7546771E-02  0.1106382E+00
         21   -1    0    0  502  501  0.00000000000E+00  0.00000000000E+00  0.96604081738E+02  0.96604081738E+02  0.00000000000E+00 0. -1.
         21   -1    0    0  503  502 -0.00000000000E+00 -0.00000000000E+00 -0.10067176135E+04  0.10067176135E+04  0.00000000000E+00 0. -1.
         25    1    1    2    0    0 -0.15640007382E+03  0.16985301573E+03 -0.59115843292E+03  0.64684180667E+03  0.12500000000E+03 0.  0.
         21    1    1    2  503  504 -0.33494134868E+02 -0.38761401135E+02  0.12389738108E+02  0.52704922909E+02  0.00000000000E+00 0.  1.
         21    1    1    2  504  501  0.18989420869E+03 -0.13109161460E+03 -0.33134483690E+03  0.40377496561E+03  0.00000000000E+00 0. -1.
<mgrwt>
<rscale>  4 0.26127072E+03</rscale>
<asrwt>0</asrwt>
<pdfrwt beam="1">  1       21 0.14862166E-01 0.26127072E+03</pdfrwt>
<pdfrwt beam="2">  1       21 0.15487963E+00 0.26127072E+03</pdfrwt>
<totfact> 0.10465265E+04</totfact>
</mgrwt>
</event>
<event>
 5    0  0.1856407E+000  0.2360488E+03  0.7546771E-02  0.1122453E+00
         21   -1    0    0  502  501  0.00000000000E+00  0.00000000000E+00  0.19561121949E+03  0.19561121949E+03  0.00000000000E+00 0.  1.
         21   -1    0    0  503  502 -0.00000000000E+00 -0.00000000000E+00 -0.81623241132E+03  0.81623241132E+03  0.00000000000E+00 0. -1.
         25    1    1    2    0    0 -0.13943566096E+03  0.14370704009E+03  0.10448425495E+03  0.25813945156E+03  0.12500000000E+03 0.  0.
         21    1    1    2  503  504  0.47046027104E+02 -0.39693576711E+02 -0.30542114436E+03  0.31156216735E+03  0.00000000000E+00 0. -1.
         21    1    1    2  504  501  0.92389633855E+02 -0.10401346338E+03 -0.41968430241E+03  0.44214201191E+03  0.00000000000E+00 0. -1.
<mgrwt>
<rscale>  4 0.23604876E+03</rscale>
<asrwt>0</asrwt>
<pdfrwt beam="1">  1       21 0.30094034E-01 0.23604876E+03</pdfrwt>
<pdfrwt beam="2">  1       21 0.12557422E+00 0.23604876E+03</pdfrwt>
<totfact> 0.48325478E+03</totfact>
</mgrwt>
</event>
<event>
 5    0  0.1856407E+000  0.3487870E+03  0.7546771E-02  0.1063114E+00
         21   -1    0    0  502  501  0.00000000000E+00  0.00000000000E+00  0.68197604768E+03  0.68197604768E+03  0.00000000000E+00 0.  1.
         21   -1    0    0  503  502 -0.00000000000E+00 -0.00000000000E+00 -0.32131444901E+03  0.32131444901E+03  0.00000000000E+00 0.  1.
         25    1    1    2    0    0 -0.99997116943E+02  0.32211539389E+03  0.50030881467E+03  0.61619125311E+03  0.12500000000E+03 0.  0.
         21    1    1    2  503  504  0.17599031267E+02 -0.44534845082E+02 -0.77269122166E+02  0.90904320955E+02  0.00000000000E+00 0.  1.
         21    1    1    2  504  501  0.82398085675E+02 -0.27758054881E+03 -0.62378093831E+02  0.29619492262E+03  0.00000000000E+00 0.  1.
<mgrwt>
<rscale>  4 0.34878700E+03</rscale>
<asrwt>0</asrwt>
<pdfrwt beam="1">  1       21 0.10491939E+00 0.34878700E+03</pdfrwt>
<pdfrwt beam="2">  1       21 0.49432993E-01 0.34878700E+03</pdfrwt>
<totfact> 0.25800775E+03</totfact>
</mgrwt>
</event>
<event>
 5    0  0.2942927E+000  0.2746043E+03  0.7546771E-02  0.1098673E+00
         21   -1    0    0  502  501  0.00000000000E+00  0.00000000000E+00  0.19183249975E+04  0.19183249975E+04  0.00000000000E+00 0. -1.
         21   -1    0    0  503  502 -0.00000000000E+00 -0.00000000000E+00 -0.76904580678E+02  0.76904580678E+02  0.00000000000E+00 0.  1.
         25    1    1    2    0    0 -0.24007286808E+03  0.46341767959E+02  0.16645018164E+04  0.16870014340E+04  0.12500000000E+03 0.  0.
         21    1    1    2  503  504  0.22029143389E+03 -0.59793671544E+02  0.15629741209E+03  0.27664504338E+03  0.00000000000E+00 0.  1.
         21    1    1    2  504  501  0.19781434197E+02  0.13451903585E+02  0.20621188319E+02  0.31583100808E+02  0.00000000000E+00 0.  1.
<mgrwt>
<rscale>  4 0.27460434E+03</rscale>
<asrwt>0</asrwt>
<pdfrwt beam="1">  1       21 0.29512689E+00 0.27460434E+03</pdfrwt>
<pdfrwt beam="2">  1       21 0.11831475E-01 0.27460434E+03</pdfrwt>
<totfact> 0.20109334E+03</totfact>
</mgrwt>
</event>
<event>
 5    0  0.1856407E+000  0.2711422E+03  0.7546771E-02  0.1100628E+00
         21   -1    0    0  502  501  0.00000000000E+00  0.00000000000E+00  0.17933261589E+04  0.17933261589E+04  0.00000000000E+00 0. -1.
         21   -1    0    0  503  502 -0.00000000000E+00 -0.00000000000E+00 -0.91457067275E+02  0.91457067275E+02  0.00000000000E+00 0.  1.
         25    1    1    2    0    0  0.77415120744E+02  0.22781565976E+03  0.15953790387E+04  0.16182559603E+04  0.12500000000E+03 0.  0.
         21    1    1    2  503  504  0.74236782649E+00 -0.47802670668E+02  0.25931100714E+02  0.54388127539E+02  0.00000000000E+00 0. -1.
         21    1    1    2  504  501 -0.78157488571E+02 -0.18001298909E+03  0.80558952237E+02  0.21213913842E+03  0.00000000000E+00 0.  1.
<mgrwt>
<rscale>  4 0.27114217E+03</rscale>
<asrwt>0</asrwt>
<pdfrwt beam="1">  1       21 0.27589631E+00 0.27114217E+03</pdfrwt>
<pdfrwt beam="2">  1       21 0.14070319E-01 0.27114217E+03</pdfrwt>
<totfact> 0.19106489E+03</totfact>
</mgrwt>
</event>
