<event>
 5    0  0.2159162E+000  0.3566507E+03  0.7546771E-02  0.1060939E+00
         21   -1    0    0  502  501  0.00000000000E+00  0.00000000000E+00  0.10146394055E+03  0.10146394055E+03  0.00000000000E+00 0.  1.
         21   -1    0    0  503  502 -0.00000000000E+00 -0.00000000000E+00 -0.13238738869E+04  0.13238738869E+04  0.00000000000E+00 0.  1.
         25    1    1    2    0    0  0.32259935982E+03 -0.21082217610E+02 -0.40223152170E+03  0.53097081267E+03  0.12500000000E+03 0.  0.
         21    1    1    2  503  504 -0.21602143691E+03  0.83053602084E+02 -0.48952443025E+03  0.54147698920E+03  0.00000000000E+00 0.  1.
         21    1    1    2  504  501 -0.10657792291E+03 -0.61971384473E+02 -0.33065399436E+03  0.35289002555E+03  0.00000000000E+00 0.  1.
<mgrwt>
<rscale>  4 0.35411405E+03</rscale>
<asrwt>0</asrwt>
<pdfrwt beam="1">  1       21 0.15609837E-01 0.35665068E+03</pdfrwt>
<pdfrwt beam="2">  1       21 0.20367291E+00 0.35665068E+03</pdfrwt>
<totfact> 0.41401373E+03</totfact>
</mgrwt>
</event>
<event>
 5    0  0.3002453E+000  0.3045523E+03  0.7546771E-02  0.1082987E+00
         21   -1    0    0  502  501  0.00000000000E+00  0.00000000000E+00  0.33131599209E+03  0.33131599209E+03  0.00000000000E+00 0. -1.
         21   -1    0    0  503  502 -0.00000000000E+00 -0.00000000000E+00 -0.38646512264E+03  0.38646512264E+03  0.00000000000E+00 0. -1.
         25    1    1    2    0    0  0.24724932329E+03 -0.12647078015E+03  0.16496180603E+03  0.34635889414E+03  0.12500000000E+03 0.  0.
         21    1    1    2  503  504 -0.18263122910E+03  0.12791513333E+03 -0.12265558946E+03  0.25448151368E+03  0.00000000000E+00 0. -1.
         21    1    1    2  504  501 -0.64618094197E+02 -0.14443531827E+01 -0.97455347109E+02  0.11694070692E+03  0.00000000000E+00 0. -1.
<mgrwt>
<rscale>  4 0.30455227E+03</rscale>
<asrwt>0</asrwt>
<pdfrwt beam="1">  1       21 0.50971691E-01 0.30455227E+03</pdfrwt>
<pdfrwt beam="2">  1       21 0.59456173E-01 0.30455227E+03</pdfrwt>
<totfact> 0.90773308E+03</totfact>
</mgrwt>
</event>
<event>
 5    0  0.3793855E+000  0.2813142E+03  0.7546771E-02  0.1094973E+00
         21   -1    0    0  502  501  0.00000000000E+00  0.00000000000E+00  0.59793632992E+03  0.59793632992E+03  0.00000000000E+00 0. -1.
         21   -1    0    0  503  502 -0.00000000000E+00 -0.00000000000E+00 -0.27035666473E+03  0.27035666473E+03  0.00000000000E+00 0. -1.
         25    1    1    2    0    0 -0.22198867839E+03  0.11930505519E+03  0.48730288260E+03  0.56267376776E+03  0.12500000000E+03 0.  0.
         21    1    1    2  503  504  0.23184145957E+02  0.66605077660E+01 -0.23550625881E+02  0.33712000339E+02  0.00000000000E+00 0. -1.
         21    1    1    2  504  501  0.19880453244E+03 -0.12596556295E+03 -0.13617259154E+03  0.27190722656E+03  0.00000000000E+00 0. -1.
<mgrwt>
<rscale>  4 0.28131418E+03</rscale>
<asrwt>0</asrwt>
<pdfrwt beam="1">  1       21 0.91990204E-01 0.28131418E+03</pdfrwt>
<pdfrwt beam="2">  1       21 0.41593333E-01 0.28131418E+03</pdfrwt>
<totfact> 0.52418234E+03</totfact>
</mgrwt>
</event>
<event>
 5    0  0.4812684E+000  0.2924337E+03  0.7546771E-02  0.1089085E+00
         21   -1    0    0  502  501  0.00000000000E+00  0.00000000000E+00  0.47371184672E+03  0.47371184672E+03  0.00000000000E+00 0.  1.
         21   -1    0    0  503  502 -0.00000000000E+00 -0.00000000000E+00 -0.17976929698E+03  0.17976929698E+03  0.00000000000E+00 0.  1.
         25    1    1    2    0    0 -0.54154429604E+02  0.25876585798E+03  0.71390527156E+02  0.30102172491E+03  0.12500000000E+03 0.  0.
         21    1    1    2  503  504  0.65845125616E+02 -0.22117176352E+03  0.20741531613E+03  0.31027994281E+03  0.00000000000E+00 0.  1.
         21    1    1    2  504  501 -0.11690696013E+02 -0.37594094457E+02  0.15136706448E+02  0.42179475974E+02  0.00000000000E+00 0. -1.
<mgrwt>
<rscale>  4 0.29243370E+03</rscale>
<asrwt>0</asrwt>
<pdfrwt beam="1">  1       21 0.72878745E-01 0.29243370E+03</pdfrwt>
<pdfrwt beam="2">  1       21 0.27656815E-01 0.29243370E+03</pdfrwt>
<totfact> 0.20109837E+04</totfact>
</mgrwt>
</event>
<event>
 5    0  0.2159162E+000  0.2999869E+03  0.7546771E-02  0.1085247E+00
         21   -1    0    0  502  501  0.00000000000E+00  0.00000000000E+00  0.43922478821E+03  0.43922478821E+03  0.00000000000E+00 0. -1.
         21   -1    0    0  503  502 -0.00000000000E+00 -0.00000000000E+00 -0.10368548506E+04  0.10368548506E+04  0.00000000000E+00 0. -1.
         25    1    1    2    0    0  0.27238146999E+03 -0.76658035426E+02  0.33310502496E+03  0.45459001005E+03  0.12500000000E+03 0.  0.
         21    1    1    2  503  504 -0.37715686195E+02 -0.62139285034E+02 -0.27028468475E+02  0.77551929942E+02  0.00000000000E+00 0. -1.
         21    1    1    2  504  501 -0.23466578380E+03  0.13879732046E+03 -0.90370661892E+03  0.94393769886E+03  0.00000000000E+00 0. -1.
<mgrwt>
<rscale>  4 0.29998691E+03</rscale>
<asrwt>0</asrwt>
<pdfrwt beam="1">  1       21 0.67573045E-01 0.29998691E+03</pdfrwt>
<pdfrwt beam="2">  1       21 0.15951613E+00 0.29998691E+03</pdfrwt>
<totfact> 0.45991121E+02</totfact>
</mgrwt>
</event>
<event>
 5    0  0.2724712E+000  0.2292575E+03  0.7546771E-02  0.1127163E+00
         21   -1    0    0  502  501  0.00000000000E+00  0.00000000000E+00  0.46192990762E+03  0.46192990762E+03  0.00000000000E+00 0. -1.
         21   -1    0    0  503  502 -0.00000000000E+00 -0.00000000000E+00 -0.22816968323E+03  0.22816968323E+03  0.00000000000E+00 0. -1.
         25    1    1    2    0    0 -0.16038298914E+03 -0.20515080940E+03  0.19302147708E+03  0.34740732350E+03  0.12500000000E+03 0.  0.
         21    1    1    2  503  504  0.16569222344E+03  0.71172315175E+02 -0.41970378389E+02  0.18515108430E+03  0.00000000000E+00 0. -1.
         21    1    1    2  504  501 -0.53092342987E+01  0.13397849423E+03  0.82709125698E+02  0.15754118305E+03  0.00000000000E+00 0. -1.
<mgrwt>
<rscale>  4 0.22925751E+03</rscale>
<asrwt>0</asrwt>
<pdfrwt beam="1">  1       21 0.71066139E-01 0.22925751E+03</pdfrwt>
<pdfrwt beam="2">  1       21 0.35103028E-01 0.22925751E+03</pdfrwt>
<totfact> 0.13706485E+04</totfact>
</mgrwt>
</event>
<event>
 5    0  0.2159162E+000  0.2635993E+03  0.7546771E-02  0.1105000E+00
         21   -1    0    0  502  501  0.00000000000E+00  0.00000000000E+00  0.61918670684E+03  0.61918670684E+03  0.00000000000E+00 0.  1.
         21   -1    0    0  503  502 -0.00000000000E+00 -0.00000000000E+00 -0.21495013836E+03  0.21495013836E+03  0.00000000000E+00 0.  1.
         25    1    1    2    0    0  0.13196675658E+03 -0.19090404347E+03  0.51231822666E+03  0.57615496529E+03  0.12500000000E+03 0.  0.
         21    1    1    2  503  504 -0.10670223080E+03  0.17232186144E+03 -0.89848916831E+02  0.22170479887E+03  0.00000000000E+00 0.  1.
         21    1    1    2  504  501 -0.25264525783E+02  0.18582182036E+02 -0.18232741341E+02  0.36277081044E+02  0.00000000000E+00 0.  1.
<mgrwt>
<rscale>  4 0.26359928E+03</rscale>
<asrwt>0</asrwt>
<pdfrwt beam="1">  1       21 0.95259492E-01 0.26359928E+03</pdfrwt>
<pdfrwt beam="2">  1       21 0.33069252E-01 0.26359928E+03</pdfrwt>
<totfact> 0.77419834E+03</totfact>
</mgrwt>
</event>
<event>
 5    0  0.2549967E+000  0.2629228E+03  0.7546771E-02  0.1105400E+00
         21   -1    0    0  502  501  0.00000000000E+00  0.00000000000E+00  0.34510518872E+03  0.34510518872E+03  0.00000000000E+00 0. -1.
         21   -1    0    0  503  502 -0.00000000000E+00 -0.00000000000E+00 -0.19033859809E+03  0.19033859809E+03  0.00000000000E+00 0.  1.
         25    1    1    2    0    0  0.19044663779E+03 -0.13127635949E+03  0.14381218035E+03  0.29968374601E+03  0.12500000000E+03 0.  0.
         21    1    1    2  503  504 -0.16192877861E+03  0.12729385754E+03  0.15729508168E+02  0.20657219788E+03  0.00000000000E+00 0.  1.
         21    1    1    2  504  501 -0.28517859187E+02  0.39825019483E+01 -0.47750978946E+01  0.29187842919E+02  0.00000000000E+00 0. -1.
<mgrwt>
<rscale>  4 0.26292281E+03</rscale>
<asrwt>0</asrwt>
<pdfrwt beam="1">  1       21 0.53093106E-01 0.26292281E+03</pdfrwt>
<pdfrwt beam="2">  1       21 0.29282861E-01 0.26292281E+03</pdfrwt>
<totfact> 0.36321512E+04</totfact>
</mgrwt>
</event>
<event>
 5    0  0.2159162E+000  0.2927744E+03  0.7546771E-02  0.1089495E+00
         21   -1    0    0  502  501  0.00000000000E+00  0.00000000000E+00  0.16947713334E+03  0.16947713334E+03  0.00000000000E+00 0. -1.
         21   -1    0    0  503  502 -0.00000000000E+00 -0.00000000000E+00 -0.49805177111E+03  0.49805177111E+03  0.00000000000E+00 0. -1.
         25    1    1    2    0    0 -0.25574971549E+02 -0.25850121189E+03 -0.16070310926E+03  0.33004158078E+03  0.12500000000E+03 0.  0.
         21    1    1    2  503  504  0.79164366347E+02  0.15354930688E+03 -0.79385832313E+02  0.19012232092E+03  0.00000000000E+00 0. -1.
         21    1    1    2  504  501 -0.53589394798E+02  0.10495190502E+03 -0.88485696206E+02  0.14736500275E+03  0.00000000000E+00 0. -1.
<mgrwt>
<rscale>  4 0.29164277E+03</rscale>
<asrwt>0</asrwt>
<pdfrwt beam="1">  1       21 0.26073406E-01 0.29277439E+03</pdfrwt>
<pdfrwt beam="2">  1       21 0.76623348E-01 0.29277439E+03</pdfrwt>
<totfact> 0.20137686E+04</totfact>
</mgrwt>
</event>
<event>
 5    0  0.3257923E+000  0.2898746E+03  0.7546771E-02  0.1090415E+00
         21   -1    0    0  502  501  0.00000000000E+00  0.00000000000E+00  0.24406238017E+03  0.24406238017E+03  0.00000000000E+00 0. -1.
         21   -1    0    0  503  502 -0.00000000000E+00 -0.00000000000E+00 -0.61212325251E+03  0.61212325251E+03  0.00000000000E+00 0. -1.
         25    1    1    2    0    0  0.17491689873E+03 -0.19443864526E+03  0.10959658101E+03  0.30990114359E+03  0.12500000000E+03 0.  0.
         21    1    1    2  503  504 -0.19368447086E+02  0.24526872419E+02 -0.90890431523E+02  0.96113343276E+02  0.00000000000E+00 0. -1.
         21    1    1    2  504  501 -0.15554845165E+03  0.16991177284E+03 -0.38676702182E+03  0.45017114581E+03  0.00000000000E+00 0. -1.
<mgrwt>
<rscale>  4 0.28987464E+03</rscale>
<asrwt>0</asrwt>
<pdfrwt beam="1">  1       21 0.37548059E-01 0.28987464E+03</pdfrwt>
<pdfrwt beam="2">  1       21 0.94172806E-01 0.28987464E+03</pdfrwt>
<totfact> 0.60812474E+03</totfact>
</mgrwt>
</event>
<event>
 5    0  0.2159162E+000  0.2631161E+03  0.7546771E-02  0.1105285E+00
         21   -1    0    0  502  501  0.00000000000E+00  0.00000000000E+00  0.38830477831E+03  0.38830477831E+03  0.00000000000E+00 0. -1.
         21   -1    0    0  503  502 -0.00000000000E+00 -0.00000000000E+00 -0.86478457142E+03  0.86478457142E+03  0.00000000000E+00 0. -1.
         25    1    1    2    0    0  0.18802474511E+03 -0.13511499028E+03  0.32163930701E+03  0.41555530220E+03  0.12500000000E+03 0.  0.
         21    1    1    2  503  504  0.12288730436E+02  0.17466818915E+02 -0.78052462986E+02  0.80921502933E+02  0.00000000000E+00 0. -1.
         21    1    1    2  504  501 -0.20031347555E+03  0.11764817137E+03 -0.72006663714E+03  0.75661254459E+03  0.00000000000E+00 0. -1.
<mgrwt>
<rscale>  4 0.26311610E+03</rscale>
<asrwt>0</asrwt>
<pdfrwt beam="1">  1       21 0.59739197E-01 0.26311610E+03</pdfrwt>
<pdfrwt beam="2">  1       21 0.13304378E+00 0.26311610E+03</pdfrwt>
<totfact> 0.10014588E+03</totfact>
</mgrwt>
</event>
