<event>
 5    0  0.4115852E+000  0.2554239E+03  0.7546771E-02  0.1109924E+00
         21   -1    0    0  503  502  0.00000000000E+00  0.00000000000E+00  0.19582646459E+03  0.19582646459E+03  0.00000000000E+00 0.  1.
          1   -1    0    0  502    0 -0.00000000000E+00 -0.00000000000E+00 -0.67701987382E+03  0.67701987382E+03  0.00000000000E+00 0.  1.
         25    1    1    2    0    0  0.28254077575E+02 -0.21983137978E+03  0.69444049473E+02  0.26376429714E+03  0.12500000000E+03 0.  0.
         21    1    1    2  503  501  0.20691226774E+02  0.22622773685E+01 -0.78101230457E+01  0.22231571836E+02  0.00000000000E+00 0.  1.
          1    1    1    2  501    0 -0.48945304349E+02  0.21756910242E+03 -0.54282733566E+03  0.58685046944E+03  0.00000000000E+00 0.  1.
<mgrwt>
<rscale>  4 0.25542389E+03</rscale>
<asrwt>0</asrwt>
<pdfrwt beam="1">  1       21 0.30127148E-01 0.25542389E+03</pdfrwt>
<pdfrwt beam="2">  1        1 0.10415691E+00 0.25542389E+03</pdfrwt>
<totfact> 0.34066538E+03</totfact>
</mgrwt>
</event>
<event>
 5    0  0.4115852E+000  0.3174207E+03  0.7546771E-02  0.1076843E+00
          2   -1    0    0  502    0 -0.00000000000E+00  0.00000000000E+00  0.29841949258E+04  0.29841949258E+04  0.00000000000E+00 0. -1.
         21   -1    0    0  503  502  0.00000000000E+00 -0.00000000000E+00 -0.43335791460E+03  0.43335791460E+03  0.00000000000E+00 0. -1.
         25    1    1    2    0    0 -0.25910441214E+03  0.44305756854E+03  0.16432944533E+04  0.17261160927E+04  0.12500000000E+03 0.  0.
         21    1    1    2  503  501  0.11463286305E+03 -0.26079251668E+03 -0.32785918933E+03  0.43433291157E+03  0.00000000000E+00 0. -1.
          2    1    1    2  501    0  0.14447154908E+03 -0.18226505186E+03  0.12354017472E+04  0.12571038361E+04  0.00000000000E+00 0. -1.
<mgrwt>
<rscale>  4 0.31742068E+03</rscale>
<asrwt>0</asrwt>
<pdfrwt beam="1">  1       21 0.66670450E-01 0.31742068E+03</pdfrwt>
<pdfrwt beam="2">  1        2 0.45910690E+00 0.31742068E+03</pdfrwt>
<totfact> 0.51756963E+01</totfact>
</mgrwt>
</event>
<event>
 5    0  0.4115852E+000  0.2115012E+03  0.7546771E-02  0.1140383E+00
          4   -1    0    0  502    0 -0.00000000000E+00  0.00000000000E+00  0.27914339000E+03  0.27914339000E+03  0.00000000000E+00 0. -1.
         21   -1    0    0  503  502  0.00000000000E+00 -0.00000000000E+00 -0.24858057471E+03  0.24858057471E+03  0.00000000000E+00 0. -1.
         25    1    1    2    0    0 -0.20890945099E+03 -0.29654908915E+01 -0.33417811915E+02  0.24575130315E+03  0.12500000000E+03 0.  0.
         21    1    1    2  503  501  0.14742203214E+03  0.33353012919E+02 -0.40966506697E+02  0.15660119317E+03  0.00000000000E+00 0. -1.
          4    1    1    2  501    0  0.61487418846E+02 -0.30387522028E+02  0.10494713390E+03  0.12537146839E+03  0.00000000000E+00 0. -1.
<mgrwt>
<rscale>  4 0.21150116E+03</rscale>
<asrwt>0</asrwt>
<pdfrwt beam="1">  1       21 0.38243166E-01 0.21150116E+03</pdfrwt>
<pdfrwt beam="2">  1        4 0.42945137E-01 0.21150116E+03</pdfrwt>
<totfact> 0.14649782E+03</totfact>
</mgrwt>
</event>
<event>
 5    0  0.4115852E+000  0.3855350E+03  0.7546771E-02  0.1048907E+00
         21   -1    0    0  503  502  0.00000000000E+00  0.00000000000E+00  0.55285467177E+03  0.55285467177E+03  0.00000000000E+00 0.  1.
          2   -1    0    0  502    0 -0.00000000000E+00 -0.00000000000E+00 -0.54091785206E+03  0.54091785206E+03  0.00000000000E+00 0.  1.
         25    1    1    2    0    0  0.26196575751E+03  0.19446451676E+03  0.16268986271E+03  0.38540303296E+03  0.12500000000E+03 0.  0.
         21    1    1    2  503  501  0.44254845384E+02  0.24372030173E+02  0.19247268361E+03  0.19899301779E+03  0.00000000000E+00 0.  1.
          2    1    1    2  501    0 -0.30622060290E+03 -0.21883654693E+03 -0.34322572661E+03  0.50937647307E+03  0.00000000000E+00 0.  1.
<mgrwt>
<rscale>  4 0.38553505E+03</rscale>
<asrwt>0</asrwt>
<pdfrwt beam="1">  1       21 0.85054565E-01 0.38553505E+03</pdfrwt>
<pdfrwt beam="2">  1        2 0.83218131E-01 0.38553505E+03</pdfrwt>
<totfact> 0.79001691E+02</totfact>
</mgrwt>
</event>
<event>
 5    0  0.4115852E+000  0.2993284E+03  0.7546771E-02  0.1085577E+00
         21   -1    0    0  503  502  0.00000000000E+00  0.00000000000E+00  0.61143646258E+02  0.61143646258E+02  0.00000000000E+00 0.  1.
          2   -1    0    0  502    0 -0.00000000000E+00 -0.00000000000E+00 -0.14792321026E+04  0.14792321026E+04  0.00000000000E+00 0.  1.
         25    1    1    2    0    0  0.16220881100E+03  0.21831350403E+03 -0.55350808452E+03  0.62926042625E+03  0.12500000000E+03 0.  0.
         21    1    1    2  503  501 -0.86940310526E+02 -0.17981646439E+03 -0.54164421832E+03  0.57729631706E+03  0.00000000000E+00 0.  1.
          2    1    1    2  501    0 -0.75268500477E+02 -0.38497039646E+02 -0.32293615352E+03  0.33381900556E+03  0.00000000000E+00 0.  1.
<mgrwt>
<rscale>  4 0.29932839E+03</rscale>
<asrwt>0</asrwt>
<pdfrwt beam="1">  1       21 0.94067151E-02 0.29932839E+03</pdfrwt>
<pdfrwt beam="2">  1        2 0.22757416E+00 0.29932839E+03</pdfrwt>
<totfact> 0.15818595E+04</totfact>
</mgrwt>
</event>
<event>
 5    0  0.4115852E+000  0.1657522E+03  0.7546771E-02  0.1182351E+00
          1   -1    0    0  502    0 -0.00000000000E+00  0.00000000000E+00  0.10008719651E+04  0.10008719651E+04  0.00000000000E+00 0. -1.
         21   -1    0    0  503  502  0.00000000000E+00 -0.00000000000E+00 -0.28437717711E+03  0.28437717711E+03  0.00000000000E+00 0.  1.
         25    1    1    2    0    0 -0.89475799621E+02  0.17921772342E+03  0.80791067958E+03  0.84170634861E+03  0.12500000000E+03 0.  0.
         21    1    1    2  503  501  0.45875757232E+02 -0.97320798757E+02 -0.24303695755E+03  0.26578729410E+03  0.00000000000E+00 0.  1.
          1    1    1    2  501    0  0.43600042388E+02 -0.81896924661E+02  0.15162106598E+03  0.17775549953E+03  0.00000000000E+00 0. -1.
<mgrwt>
<rscale>  4 0.16575218E+03</rscale>
<asrwt>0</asrwt>
<pdfrwt beam="1">  1       21 0.43750336E-01 0.16575218E+03</pdfrwt>
<pdfrwt beam="2">  1        1 0.15398030E+00 0.16575218E+03</pdfrwt>
<totfact> 0.91642105E+02</totfact>
</mgrwt>
</event>
<event>
 5    0  0.4115852E+000  0.3302379E+03  0.7546771E-02  0.1071032E+00
          2   -1    0    0  502    0 -0.00000000000E+00  0.00000000000E+00  0.48119371771E+03  0.48119371771E+03  0.00000000000E+00 0. -1.
         21   -1    0    0  503  502  0.00000000000E+00 -0.00000000000E+00 -0.50042906546E+03  0.50042906546E+03  0.00000000000E+00 0.  1.
         25    1    1    2    0    0 -0.26552863487E+03 -0.22144328277E+03  0.28916614877E+03  0.46774420896E+03  0.12500000000E+03 0.  0.
         21    1    1    2  503  501  0.22359107680E+03  0.19961452209E+03 -0.34283928668E+03  0.45538742137E+03  0.00000000000E+00 0.  1.
          2    1    1    2  501    0  0.41937558070E+02  0.21828760681E+02  0.34437790160E+02  0.58491152843E+02  0.00000000000E+00 0. -1.
<mgrwt>
<rscale>  4 0.33023789E+03</rscale>
<asrwt>0</asrwt>
<pdfrwt beam="1">  1       21 0.76989087E-01 0.33023789E+03</pdfrwt>
<pdfrwt beam="2">  1        2 0.74029802E-01 0.33023789E+03</pdfrwt>
<totfact> 0.11542873E+03</totfact>
</mgrwt>
</event>
<event>
 5    0  0.4115852E+000  0.2656688E+03  0.7546771E-02  0.1103784E+00
         -1   -1    0    0    0  501 -0.00000000000E+00  0.00000000000E+00  0.16788063132E+03  0.16788063132E+03  0.00000000000E+00 0. -1.
         21   -1    0    0  501  502  0.00000000000E+00 -0.00000000000E+00 -0.71985911852E+03  0.71985911852E+03  0.00000000000E+00 0. -1.
         25    1    1    2    0    0  0.20657831831E+02 -0.20932822376E+03 -0.11859905029E+03  0.27191135689E+03  0.12500000000E+03 0.  0.
         21    1    1    2  503  502  0.34175671544E+02 -0.43081999147E+02 -0.33491498657E+03  0.33939959253E+03  0.00000000000E+00 0. -1.
         -1    1    1    2    0  503 -0.54833503375E+02  0.25241022290E+03 -0.98464450348E+02  0.27642880042E+03  0.00000000000E+00 0. -1.
<mgrwt>
<rscale>  4 0.26566880E+03</rscale>
<asrwt>0</asrwt>
<pdfrwt beam="1">  1       21 0.11074756E+00 0.26566880E+03</pdfrwt>
<pdfrwt beam="2">  1       -1 0.25827790E-01 0.26566880E+03</pdfrwt>
<totfact> 0.74829417E+02</totfact>
</mgrwt>
</event>
<event>
 5    0  0.4115852E+000  0.4931377E+03  0.7546771E-02  0.1015586E+00
         21   -1    0    0  503  502  0.00000000000E+00  0.00000000000E+00  0.11460010616E+04  0.11460010616E+04  0.00000000000E+00 0.  1.
          1   -1    0    0  502    0 -0.00000000000E+00 -0.00000000000E+00 -0.16333726378E+04  0.16333726378E+04  0.00000000000E+00 0. -1.
         25    1    1    2    0    0  0.27791351094E+03  0.38489644366E+03  0.86217781497E+03  0.99214755784E+03  0.12500000000E+03 0.  0.
         21    1    1    2  503  501 -0.37777168052E+02  0.27489511452E+02  0.17947876562E+03  0.18546000909E+03  0.00000000000E+00 0.  1.
          1    1    1    2  501    0 -0.24013634289E+03 -0.41238595511E+03 -0.15290281567E+04  0.16017661325E+04  0.00000000000E+00 0. -1.
<mgrwt>
<rscale>  4 0.49313770E+03</rscale>
<asrwt>0</asrwt>
<pdfrwt beam="1">  1       21 0.17630786E+00 0.49313770E+03</pdfrwt>
<pdfrwt beam="2">  1        1 0.25128810E+00 0.49313770E+03</pdfrwt>
<totfact> 0.10197590E+01</totfact>
</mgrwt>
</event>
<event>
 5    0  0.4115852E+000  0.2041086E+03  0.7546771E-02  0.1146318E+00
         21   -1    0    0  503  502  0.00000000000E+00  0.00000000000E+00  0.15050742337E+03  0.15050742337E+03  0.00000000000E+00 0.  1.
          2   -1    0    0  502    0 -0.00000000000E+00 -0.00000000000E+00 -0.69315800880E+03  0.69315800880E+03  0.00000000000E+00 0.  1.
         25    1    1    2    0    0 -0.13196743652E+03  0.23578069384E+03 -0.12415281955E+03  0.32256295896E+03  0.12500000000E+03 0.  0.
         21    1    1    2  503  501  0.59018499929E+02 -0.10998349670E+03 -0.69139666162E+02  0.14268793333E+03  0.00000000000E+00 0.  1.
          2    1    1    2  501    0  0.72948936587E+02 -0.12579719714E+03 -0.34935809971E+03  0.37841453988E+03  0.00000000000E+00 0.  1.
<mgrwt>
<rscale>  4 0.20410862E+03</rscale>
<asrwt>0</asrwt>
<pdfrwt beam="1">  1       21 0.23154989E-01 0.20410862E+03</pdfrwt>
<pdfrwt beam="2">  1        2 0.10663969E+00 0.20410862E+03</pdfrwt>
<totfact> 0.93495476E+03</totfact>
</mgrwt>
</event>
<event>
 5    0  0.4115852E+000  0.2198577E+03  0.7546771E-02  0.1133989E+00
          1   -1    0    0  502    0 -0.00000000000E+00  0.00000000000E+00  0.16827442596E+04  0.16827442596E+04  0.00000000000E+00 0.  1.
         21   -1    0    0  503  502  0.00000000000E+00 -0.00000000000E+00 -0.14474526296E+03  0.14474526296E+03  0.00000000000E+00 0.  1.
         25    1    1    2    0    0 -0.20185331740E+03  0.30530133687E+02 -0.13529239816E+02  0.23976006994E+03  0.12500000000E+03 0.  0.
         21    1    1    2  503  501  0.24449528842E+02 -0.59265838127E+00 -0.13213350094E+01  0.24492379034E+02  0.00000000000E+00 0. -1.
          1    1    1    2  501    0  0.17740378856E+03 -0.29937475306E+02  0.15528495714E+04  0.15632370735E+04  0.00000000000E+00 0.  1.
<mgrwt>
<rscale>  4 0.21985775E+03</rscale>
<asrwt>0</asrwt>
<pdfrwt beam="1">  1       21 0.22268503E-01 0.21985775E+03</pdfrwt>
<pdfrwt beam="2">  1        1 0.25888372E+00 0.21985775E+03</pdfrwt>
<totfact> 0.11474546E+03</totfact>
</mgrwt>
</event>
<event>
 5    0  0.4115852E+000  0.2002812E+03  0.7546771E-02  0.1149502E+00
          2   -1    0    0  502    0 -0.00000000000E+00  0.00000000000E+00  0.29181471447E+04  0.29181471447E+04  0.00000000000E+00 0.  1.
         21   -1    0    0  503  502  0.00000000000E+00 -0.00000000000E+00 -0.10481122083E+03  0.10481122083E+03  0.00000000000E+00 0.  1.
         25    1    1    2    0    0 -0.98492266049E+02 -0.22707615170E+03  0.11615123630E+04  0.11941525340E+04  0.12500000000E+03 0.  0.
         21    1    1    2  503  501 -0.32110481252E+02  0.15022575886E+03 -0.15692389907E+02  0.15441862819E+03  0.00000000000E+00 0.  1.
          2    1    1    2  501    0  0.13060274730E+03  0.76850392847E+02  0.16675159508E+04  0.16743872033E+04  0.00000000000E+00 0.  1.
<mgrwt>
<rscale>  4 0.20028121E+03</rscale>
<asrwt>0</asrwt>
<pdfrwt beam="1">  1       21 0.16124805E-01 0.20028121E+03</pdfrwt>
<pdfrwt beam="2">  1        2 0.44894565E+00 0.20028121E+03</pdfrwt>
<totfact> 0.10473732E+03</totfact>
</mgrwt>
</event>
<event>
 5    0  0.4115852E+000  0.3252740E+03  0.7546771E-02  0.1073247E+00
         21   -1    0    0  503  502  0.00000000000E+00  0.00000000000E+00  0.72915161083E+03  0.72915161083E+03  0.00000000000E+00 0. -1.
          1   -1    0    0  502    0 -0.00000000000E+00 -0.00000000000E+00 -0.98447839630E+03  0.98447839630E+03  0.00000000000E+00 0. -1.
         25    1    1    2    0    0 -0.19469355915E+03 -0.27813651868E+03 -0.17518916611E+02  0.36221184055E+03  0.12500000000E+03 0.  0.
         21    1    1    2  503  501  0.51704268374E+02  0.20876388778E+02  0.52803173638E+03  0.53096767284E+03  0.00000000000E+00 0. -1.
          1    1    1    2  501    0  0.14298929077E+03  0.25726012990E+03 -0.76583960524E+03  0.82045049373E+03  0.00000000000E+00 0. -1.
<mgrwt>
<rscale>  4 0.32527398E+03</rscale>
<asrwt>0</asrwt>
<pdfrwt beam="1">  1       21 0.11217717E+00 0.32527398E+03</pdfrwt>
<pdfrwt beam="2">  1        1 0.15145821E+00 0.32527398E+03</pdfrwt>
<totfact> 0.10510219E+02</totfact>
</mgrwt>
</event>
<event>
 5    0  0.4115852E+000  0.2977616E+03  0.7546771E-02  0.1086365E+00
         -4   -1    0    0    0  501 -0.00000000000E+00  0.00000000000E+00  0.37039992796E+03  0.37039992796E+03  0.00000000000E+00 0.  1.
         21   -1    0    0  501  502  0.00000000000E+00 -0.00000000000E+00 -0.11469802962E+04  0.11469802962E+04  0.00000000000E+00 0. -1.
         25    1    1    2    0    0 -0.21774186413E+03  0.20088195837E+03 -0.98057238027E+03  0.10319458675E+04  0.12500000000E+03 0.  0.
         21    1    1    2  503  502  0.16884341109E+03 -0.10219691649E+03 -0.54253401685E+02  0.20468448599E+03  0.00000000000E+00 0. -1.
         -4    1    1    2    0  503  0.48898453037E+02 -0.98685041876E+02  0.25824541368E+03  0.28074987067E+03  0.00000000000E+00 0.  1.
<mgrwt>
<rscale>  4 0.29776163E+03</rscale>
<asrwt>0</asrwt>
<pdfrwt beam="1">  1       21 0.17645851E+00 0.29776163E+03</pdfrwt>
<pdfrwt beam="2">  1       -4 0.56984605E-01 0.29776163E+03</pdfrwt>
<totfact> 0.22792913E+01</totfact>
</mgrwt>
</event>
<event>
 5    0  0.4115852E+000  0.3211211E+03  0.7546771E-02  0.1075134E+00
         21   -1    0    0  501  502  0.00000000000E+00  0.00000000000E+00  0.66563959722E+03  0.66563959722E+03  0.00000000000E+00 0. -1.
         -2   -1    0    0    0  501 -0.00000000000E+00 -0.00000000000E+00 -0.55163815122E+03  0.55163815122E+03  0.00000000000E+00 0.  1.
         25    1    1    2    0    0 -0.18240103477E+02  0.38319320418E+03  0.32158460936E+03  0.51595677541E+03  0.12500000000E+03 0.  0.
         21    1    1    2  503  502  0.38294729876E+02 -0.23742406277E+03  0.17103921838E+03  0.29511198915E+03  0.00000000000E+00 0. -1.
         -2    1    1    2    0  503 -0.20054626399E+02 -0.14576914142E+03 -0.37862238174E+03  0.40620898388E+03  0.00000000000E+00 0.  1.
<mgrwt>
<rscale>  4 0.32112111E+03</rscale>
<asrwt>0</asrwt>
<pdfrwt beam="1">  1       21 0.10240609E+00 0.32112111E+03</pdfrwt>
<pdfrwt beam="2">  1       -2 0.84867408E-01 0.32112111E+03</pdfrwt>
<totfact> 0.74201106E+01</totfact>
</mgrwt>
</event>
<event>
 5    0  0.4115852E+000  0.3800670E+03  0.7546771E-02  0.1050909E+00
          1   -1    0    0  502    0 -0.00000000000E+00  0.00000000000E+00  0.15593581770E+04  0.15593581770E+04  0.00000000000E+00 0.  1.
         21   -1    0    0  503  502  0.00000000000E+00 -0.00000000000E+00 -0.23991368842E+03  0.23991368842E+03  0.00000000000E+00 0.  1.
         25    1    1    2    0    0  0.28910289125E+03 -0.17300780929E+03  0.20379940247E+03  0.41312392844E+03  0.12500000000E+03 0.  0.
         21    1    1    2  503  501  0.24301590072E+02 -0.13134873432E+02 -0.10690314702E+03  0.11041455983E+03  0.00000000000E+00 0.  1.
          1    1    1    2  501    0 -0.31340448132E+03  0.18614268272E+03  0.12225482331E+04  0.12757333772E+04  0.00000000000E+00 0.  1.
<mgrwt>
<rscale>  4 0.38006703E+03</rscale>
<asrwt>0</asrwt>
<pdfrwt beam="1">  1       21 0.36909799E-01 0.38006703E+03</pdfrwt>
<pdfrwt beam="2">  1        1 0.23990125E+00 0.38006703E+03</pdfrwt>
<totfact> 0.47901451E+02</totfact>
</mgrwt>
</event>
<event>
 5    0  0.4115852E+000  0.3222624E+03  0.7546771E-02  0.1074613E+00
         21   -1    0    0  503  502  0.00000000000E+00  0.00000000000E+00  0.22217227138E+03  0.22217227138E+03  0.00000000000E+00 0.  1.
          2   -1    0    0  502    0 -0.00000000000E+00 -0.00000000000E+00 -0.69450251345E+03  0.69450251345E+03  0.00000000000E+00 0.  1.
         25    1    1    2    0    0  0.96405549661E+01  0.29985539834E+03 -0.32993848635E+03  0.46313130427E+03  0.12500000000E+03 0.  0.
         21    1    1    2  503  501 -0.32539841191E+02 -0.60666263677E+01  0.78546831657E+02  0.85236435774E+02  0.00000000000E+00 0.  1.
          2    1    1    2  501    0  0.22899286225E+02 -0.29378877198E+03 -0.22093858738E+03  0.36830704479E+03  0.00000000000E+00 0.  1.
<mgrwt>
<rscale>  4 0.32226244E+03</rscale>
<asrwt>0</asrwt>
<pdfrwt beam="1">  1       21 0.34180349E-01 0.32226244E+03</pdfrwt>
<pdfrwt beam="2">  1        2 0.10684654E+00 0.32226244E+03</pdfrwt>
<totfact> 0.42371807E+03</totfact>
</mgrwt>
</event>
<event>
 5    0  0.4115852E+000  0.2606909E+03  0.7546771E-02  0.1106729E+00
         21   -1    0    0  503  502  0.00000000000E+00  0.00000000000E+00  0.24515364209E+02  0.24515364209E+02  0.00000000000E+00 0. -1.
          1   -1    0    0  502    0 -0.00000000000E+00 -0.00000000000E+00 -0.30154224732E+04  0.30154224732E+04  0.00000000000E+00 0. -1.
         25    1    1    2    0    0 -0.61925990111E+02 -0.22552911047E+03 -0.11689177813E+04  0.11986208689E+04  0.12500000000E+03 0.  0.
         21    1    1    2  503  501  0.21015354657E+02  0.26747968081E+01 -0.42775550321E+02  0.47734132176E+02  0.00000000000E+00 0.  1.
          1    1    1    2  501    0  0.40910635454E+02  0.22285431366E+03 -0.17792137774E+04  0.17935828364E+04  0.00000000000E+00 0. -1.
<mgrwt>
<rscale>  4 0.26069089E+03</rscale>
<asrwt>0</asrwt>
<pdfrwt beam="1">  1       21 0.37715955E-02 0.26069089E+03</pdfrwt>
<pdfrwt beam="2">  1        1 0.46391102E+00 0.26069089E+03</pdfrwt>
<totfact> 0.34305058E+03</totfact>
</mgrwt>
</event>
<event>
 5    0  0.4115852E+000  0.2224748E+03  0.7546771E-02  0.1132051E+00
          2   -1    0    0  502    0 -0.00000000000E+00  0.00000000000E+00  0.58169793417E+03  0.58169793417E+03  0.00000000000E+00 0. -1.
         21   -1    0    0  503  502  0.00000000000E+00 -0.00000000000E+00 -0.19593593180E+03  0.19593593180E+03  0.00000000000E+00 0. -1.
         25    1    1    2    0    0  0.12898433000E+03 -0.18272059444E+03  0.32401673344E+01  0.25624065193E+03  0.12500000000E+03 0.  0.
         21    1    1    2  503  501 -0.35800033107E+02  0.30539638971E+02 -0.40620410597E+02  0.62163732803E+02  0.00000000000E+00 0. -1.
          2    1    1    2  501    0 -0.93184296891E+02  0.15218095547E+03  0.42314224564E+03  0.45922948124E+03  0.00000000000E+00 0. -1.
<mgrwt>
<rscale>  4 0.22247485E+03</rscale>
<asrwt>0</asrwt>
<pdfrwt beam="1">  1       21 0.30143990E-01 0.22247485E+03</pdfrwt>
<pdfrwt beam="2">  1        2 0.89491989E-01 0.22247485E+03</pdfrwt>
<totfact> 0.68780027E+03</totfact>
</mgrwt>
</event>
<event>
 5    0  0.4115852E+000  0.2467249E+03  0.7546771E-02  0.1115392E+00
          2   -1    0    0  502    0 -0.00000000000E+00  0.00000000000E+00  0.87326576339E+03  0.87326576339E+03  0.00000000000E+00 0.  1.
         21   -1    0    0  503  502  0.00000000000E+00 -0.00000000000E+00 -0.51493237500E+03  0.51493237500E+03  0.00000000000E+00 0.  1.
         25    1    1    2    0    0  0.18482909409E+03 -0.29815568632E+03 -0.27023295499E+03  0.46011895991E+03  0.12500000000E+03 0.  0.
         21    1    1    2  503  501 -0.11330280629E+03  0.10342634901E+03 -0.91568355401E+02  0.17865973048E+03  0.00000000000E+00 0.  1.
          2    1    1    2  501    0 -0.71526287796E+02  0.19472933731E+03  0.72013469878E+03  0.74941944800E+03  0.00000000000E+00 0.  1.
<mgrwt>
<rscale>  4 0.24672493E+03</rscale>
<asrwt>0</asrwt>
<pdfrwt beam="1">  1       21 0.79220366E-01 0.24672493E+03</pdfrwt>
<pdfrwt beam="2">  1        2 0.13434858E+00 0.24672493E+03</pdfrwt>
<totfact> 0.54584650E+02</totfact>
</mgrwt>
</event>
<event>
 5    0  0.4115852E+000  0.2176661E+03  0.7546771E-02  0.1135635E+00
         21   -1    0    0  501  502  0.00000000000E+00  0.00000000000E+00  0.10337513823E+04  0.10337513823E+04  0.00000000000E+00 0. -1.
         -1   -1    0    0    0  501 -0.00000000000E+00 -0.00000000000E+00 -0.87847469810E+03  0.87847469810E+03  0.00000000000E+00 0.  1.
         25    1    1    2    0    0  0.11094360665E+03 -0.17930396234E+03  0.51585551075E+03  0.57113072299E+03  0.12500000000E+03 0.  0.
         21    1    1    2  503  502 -0.13077427393E+01  0.39508638824E+02  0.48016314774E+03  0.48178759966E+03  0.00000000000E+00 0. -1.
         -1    1    1    2    0  503 -0.10963586391E+03  0.13979532351E+03 -0.84074197431E+03  0.85930775773E+03  0.00000000000E+00 0.  1.
<mgrwt>
<rscale>  4 0.21766606E+03</rscale>
<asrwt>0</asrwt>
<pdfrwt beam="1">  1       21 0.15903868E+00 0.21766606E+03</pdfrwt>
<pdfrwt beam="2">  1       -1 0.13514995E+00 0.21766606E+03</pdfrwt>
<totfact> 0.11651072E+01</totfact>
</mgrwt>
</event>
<event>
 5    0  0.4115852E+000  0.2769969E+03  0.7546771E-02  0.1097341E+00
         21   -1    0    0  503  502  0.00000000000E+00  0.00000000000E+00  0.46528640365E+03  0.46528640365E+03  0.00000000000E+00 0. -1.
          2   -1    0    0  502    0 -0.00000000000E+00 -0.00000000000E+00 -0.15615290440E+04  0.15615290440E+04  0.00000000000E+00 0.  1.
         25    1    1    2    0    0 -0.20632745740E+03  0.17560587388E+03  0.25663291262E+03  0.39356561646E+03  0.12500000000E+03 0.  0.
         21    1    1    2  503  501  0.12309601856E+02 -0.23633631506E+02  0.12864226494E+03  0.13137315998E+03  0.00000000000E+00 0. -1.
          2    1    1    2  501    0  0.19401785555E+03 -0.15197224237E+03 -0.14815178179E+04  0.15018766712E+04  0.00000000000E+00 0.  1.
<mgrwt>
<rscale>  4 0.27699686E+03</rscale>
<asrwt>0</asrwt>
<pdfrwt beam="1">  1       21 0.71582523E-01 0.27699686E+03</pdfrwt>
<pdfrwt beam="2">  1        2 0.24023524E+00 0.27699686E+03</pdfrwt>
<totfact> 0.27085956E+02</totfact>
</mgrwt>
</event>
<event>
 5    0  0.4115852E+000  0.2534025E+03  0.7546771E-02  0.1111173E+00
          2   -1    0    0  502    0 -0.00000000000E+00  0.00000000000E+00  0.13855220368E+04  0.13855220368E+04  0.00000000000E+00 0. -1.
         21   -1    0    0  503  502  0.00000000000E+00 -0.00000000000E+00 -0.51050907357E+03  0.51050907357E+03  0.00000000000E+00 0. -1.
         25    1    1    2    0    0 -0.13111000565E+03 -0.24706765063E+03  0.11422451904E+04  0.11826163082E+04  0.12500000000E+03 0.  0.
         21    1    1    2  503  501  0.72867471255E+02  0.20676065840E+03 -0.45917332782E+03  0.50882195630E+03  0.00000000000E+00 0. -1.
          2    1    1    2  501    0  0.58242534399E+02  0.40306992232E+02  0.19194110073E+03  0.20459284588E+03  0.00000000000E+00 0. -1.
<mgrwt>
<rscale>  4 0.25340247E+03</rscale>
<asrwt>0</asrwt>
<pdfrwt beam="1">  1       21 0.78539858E-01 0.25340247E+03</pdfrwt>
<pdfrwt beam="2">  1        2 0.21315723E+00 0.25340247E+03</pdfrwt>
<totfact> 0.27728045E+02</totfact>
</mgrwt>
</event>
<event>
 5    0  0.4115852E+000  0.2900087E+03  0.7546771E-02  0.1090345E+00
         21   -1    0    0  503  502  0.00000000000E+00  0.00000000000E+00  0.68884019625E+03  0.68884019625E+03  0.00000000000E+00 0.  1.
          2   -1    0    0  502    0 -0.00000000000E+00 -0.00000000000E+00 -0.12551279005E+04  0.12551279005E+04  0.00000000000E+00 0. -1.
         25    1    1    2    0    0  0.16833156564E+03 -0.14890440814E+03  0.34891142723E+03  0.43344229467E+03  0.12500000000E+03 0.  0.
         21    1    1    2  503  501  0.29142703207E+02 -0.24852587344E+02  0.28209276365E+03  0.28468100665E+03  0.00000000000E+00 0.  1.
          2    1    1    2  501    0 -0.19747426885E+03  0.17375699549E+03 -0.11972918951E+04  0.12258447954E+04  0.00000000000E+00 0. -1.
<mgrwt>
<rscale>  4 0.29000865E+03</rscale>
<asrwt>0</asrwt>
<pdfrwt beam="1">  1       21 0.10597541E+00 0.29000865E+03</pdfrwt>
<pdfrwt beam="2">  1        2 0.19309660E+00 0.29000865E+03</pdfrwt>
<totfact> 0.15851310E+02</totfact>
</mgrwt>
</event>
<event>
 5    0  0.4115852E+000  0.2139421E+03  0.7546771E-02  0.1138482E+00
         -3   -1    0    0    0  501 -0.00000000000E+00  0.00000000000E+00  0.11752975057E+03  0.11752975057E+03  0.00000000000E+00 0. -1.
         21   -1    0    0  501  502  0.00000000000E+00 -0.00000000000E+00 -0.11726579745E+04  0.11726579745E+04  0.00000000000E+00 0. -1.
         25    1    1    2    0    0 -0.35284082408E+02 -0.22758776817E+03 -0.60231706340E+03  0.65685006170E+03  0.12500000000E+03 0.  0.
         21    1    1    2  503  502 -0.18442032938E+02  0.69636365821E+02 -0.46071409694E+03  0.46631192472E+03  0.00000000000E+00 0. -1.
         -3    1    1    2    0  503  0.53726115346E+02  0.15795140235E+03  0.79029363801E+01  0.16702573867E+03  0.00000000000E+00 0. -1.
<mgrwt>
<rscale>  4 0.21394205E+03</rscale>
<asrwt>0</asrwt>
<pdfrwt beam="1">  1       21 0.18040892E+00 0.21394205E+03</pdfrwt>
<pdfrwt beam="2">  1       -3 0.18081500E-01 0.21394205E+03</pdfrwt>
<totfact> 0.23672187E+02</totfact>
</mgrwt>
</event>
<event>
 5    0  0.4115852E+000  0.3208722E+03  0.7546771E-02  0.1075249E+00
         21   -1    0    0  503  502  0.00000000000E+00  0.00000000000E+00  0.19702235072E+03  0.19702235072E+03  0.00000000000E+00 0.  1.
          1   -1    0    0  502    0 -0.00000000000E+00 -0.00000000000E+00 -0.12125984482E+04  0.12125984482E+04  0.00000000000E+00 0. -1.
         25    1    1    2    0    0 -0.30766868468E+03 -0.50979071692E+02 -0.85485023749E+03  0.91850575056E+03  0.12500000000E+03 0.  0.
         21    1    1    2  503  501  0.44563061747E+02  0.52842852142E+01  0.10512373729E+03  0.11430131357E+03  0.00000000000E+00 0.  1.
          1    1    1    2  501    0  0.26310562294E+03  0.45694786478E+02 -0.26584959725E+03  0.37681373474E+03  0.00000000000E+00 0. -1.
<mgrwt>
<rscale>  4 0.32087221E+03</rscale>
<asrwt>0</asrwt>
<pdfrwt beam="1">  1       21 0.30311130E-01 0.32087221E+03</pdfrwt>
<pdfrwt beam="2">  1        1 0.18655361E+00 0.32087221E+03</pdfrwt>
<totfact> 0.12504095E+03</totfact>
</mgrwt>
</event>
<event>
 5    0  0.4115852E+000  0.2246512E+03  0.7546771E-02  0.1130462E+00
          1   -1    0    0  502    0 -0.00000000000E+00  0.00000000000E+00  0.90002788906E+03  0.90002788906E+03  0.00000000000E+00 0.  1.
         21   -1    0    0  503  502  0.00000000000E+00 -0.00000000000E+00 -0.21475284857E+03  0.21475284857E+03  0.00000000000E+00 0.  1.
         25    1    1    2    0    0 -0.11195348084E+03 -0.18028221657E+03 -0.10700576459E+03  0.26853397018E+03  0.12500000000E+03 0.  0.
         21    1    1    2  503  501 -0.23889459312E+02  0.53889832588E+02  0.39554461934E+02  0.70988560920E+02  0.00000000000E+00 0.  1.
          1    1    1    2  501    0  0.13584294015E+03  0.12639238399E+03  0.75272634315E+03  0.77525820653E+03  0.00000000000E+00 0.  1.
<mgrwt>
<rscale>  4 0.22465121E+03</rscale>
<asrwt>0</asrwt>
<pdfrwt beam="1">  1       21 0.33038900E-01 0.22465121E+03</pdfrwt>
<pdfrwt beam="2">  1        1 0.13846583E+00 0.22465121E+03</pdfrwt>
<totfact> 0.18600720E+03</totfact>
</mgrwt>
</event>
<event>
 5    0  0.4115852E+000  0.2462915E+03  0.7546771E-02  0.1115671E+00
         -2   -1    0    0    0  501 -0.00000000000E+00  0.00000000000E+00  0.73240404229E+02  0.73240404229E+02  0.00000000000E+00 0.  1.
         21   -1    0    0  501  502  0.00000000000E+00 -0.00000000000E+00 -0.14599279148E+04  0.14599279148E+04  0.00000000000E+00 0.  1.
         25    1    1    2    0    0 -0.16225258806E+03 -0.13029099099E+03 -0.48796000522E+03  0.54500606543E+03  0.12500000000E+03 0.  0.
         21    1    1    2  503  502  0.11307664766E+03 -0.10368603268E+03 -0.50239993311E+03  0.52530259318E+03  0.00000000000E+00 0.  1.
         -2    1    1    2    0  503  0.49175940397E+02  0.23397702367E+03 -0.39632757228E+03  0.46285966044E+03  0.00000000000E+00 0.  1.
<mgrwt>
<rscale>  4 0.24629147E+03</rscale>
<asrwt>0</asrwt>
<pdfrwt beam="1">  1       21 0.22460429E+00 0.24629147E+03</pdfrwt>
<pdfrwt beam="2">  1       -2 0.11267755E-01 0.24629147E+03</pdfrwt>
<totfact> 0.39211068E+02</totfact>
</mgrwt>
</event>
<event>
 5    0  0.4115852E+000  0.2518044E+03  0.7546771E-02  0.1112170E+00
         21   -1    0    0  501  502  0.00000000000E+00  0.00000000000E+00  0.10416461444E+04  0.10416461444E+04  0.00000000000E+00 0. -1.
         -3   -1    0    0    0  501 -0.00000000000E+00 -0.00000000000E+00 -0.86769456979E+03  0.86769456979E+03  0.00000000000E+00 0.  1.
         25    1    1    2    0    0 -0.10579435153E+03  0.21064413808E+03  0.71871263715E+03  0.76663958450E+03  0.12500000000E+03 0.  0.
         21    1    1    2  503  502  0.39601919375E+02 -0.26051794116E+01  0.28344205266E+03  0.28620708620E+03  0.00000000000E+00 0. -1.
         -3    1    1    2    0  503  0.66192432158E+02 -0.20803895866E+03 -0.82820311523E+03  0.85649404345E+03  0.00000000000E+00 0.  1.
<mgrwt>
<rscale>  4 0.25180438E+03</rscale>
<asrwt>0</asrwt>
<pdfrwt beam="1">  1       21 0.16025325E+00 0.25180438E+03</pdfrwt>
<pdfrwt beam="2">  1       -3 0.13349147E+00 0.25180438E+03</pdfrwt>
<totfact> 0.54329445E+00</totfact>
</mgrwt>
</event>
<event>
 5    0  0.4115852E+000  0.2890910E+03  0.7546771E-02  0.1090825E+00
         21   -1    0    0  503  502  0.00000000000E+00  0.00000000000E+00  0.71162973905E+03  0.71162973905E+03  0.00000000000E+00 0. -1.
          1   -1    0    0  502    0 -0.00000000000E+00 -0.00000000000E+00 -0.73690574036E+03  0.73690574036E+03  0.00000000000E+00 0. -1.
         25    1    1    2    0    0  0.12669416905E+03  0.25317991978E+03  0.49383049860E+03  0.58279073911E+03  0.12500000000E+03 0.  0.
         21    1    1    2  503  501 -0.13256830960E+02 -0.19615603045E+02  0.14800310460E+03  0.14988473712E+03  0.00000000000E+00 0. -1.
          1    1    1    2  501    0 -0.11343733809E+03 -0.23356431673E+03 -0.66710960451E+03  0.71586000318E+03  0.00000000000E+00 0. -1.
<mgrwt>
<rscale>  4 0.28909098E+03</rscale>
<asrwt>0</asrwt>
<pdfrwt beam="1">  1       21 0.10948150E+00 0.28909098E+03</pdfrwt>
<pdfrwt beam="2">  1        1 0.11337011E+00 0.28909098E+03</pdfrwt>
<totfact> 0.18078128E+02</totfact>
</mgrwt>
</event>
<event>
 5    0  0.4115852E+000  0.2222045E+03  0.7546771E-02  0.1132250E+00
          2   -1    0    0  502    0 -0.00000000000E+00  0.00000000000E+00  0.18795661962E+04  0.18795661962E+04  0.00000000000E+00 0.  1.
         21   -1    0    0  503  502  0.00000000000E+00 -0.00000000000E+00 -0.47637303258E+03  0.47637303258E+03  0.00000000000E+00 0.  1.
         25    1    1    2    0    0 -0.16640262217E+03  0.19400960677E+03  0.10491817027E+04  0.10870771847E+04  0.12500000000E+03 0.  0.
         21    1    1    2  503  501  0.80483076557E+02 -0.64213835181E+02 -0.44401517908E+03  0.45579646937E+03  0.00000000000E+00 0.  1.
          2    1    1    2  501    0  0.85919545611E+02 -0.12979577159E+03  0.79802663995E+03  0.81306557467E+03  0.00000000000E+00 0.  1.
<mgrwt>
<rscale>  4 0.22220449E+03</rscale>
<asrwt>0</asrwt>
<pdfrwt beam="1">  1       21 0.73288160E-01 0.22220449E+03</pdfrwt>
<pdfrwt beam="2">  1        2 0.28916403E+00 0.22220449E+03</pdfrwt>
<totfact> 0.18153196E+02</totfact>
</mgrwt>
</event>
<event>
 5    0  0.4115852E+000  0.2889840E+03  0.7546771E-02  0.1090881E+00
         -2   -1    0    0    0  501 -0.00000000000E+00  0.00000000000E+00  0.10340658045E+04  0.10340658045E+04  0.00000000000E+00 0. -1.
         21   -1    0    0  501  502  0.00000000000E+00 -0.00000000000E+00 -0.58474419284E+03  0.58474419284E+03  0.00000000000E+00 0. -1.
         25    1    1    2    0    0  0.72117198837E+02  0.23248465462E+03 -0.40168690457E+03  0.48603227702E+03  0.12500000000E+03 0.  0.
         21    1    1    2  503  502  0.15970834300E+02  0.13439008949E+02 -0.12278968321E+03  0.12455111727E+03  0.00000000000E+00 0. -1.
         -2    1    1    2    0  503 -0.88088033136E+02 -0.24592366357E+03  0.97379819946E+03  0.10082266031E+04  0.00000000000E+00 0. -1.
<mgrwt>
<rscale>  4 0.28898395E+03</rscale>
<asrwt>0</asrwt>
<pdfrwt beam="1">  1       21 0.89960645E-01 0.28898395E+03</pdfrwt>
<pdfrwt beam="2">  1       -2 0.15908705E+00 0.28898395E+03</pdfrwt>
<totfact> 0.22273642E+01</totfact>
</mgrwt>
</event>
<event>
 5    0  0.4115852E+000  0.2073008E+03  0.7546771E-02  0.1143721E+00
         21   -1    0    0  503  502  0.00000000000E+00  0.00000000000E+00  0.22047052671E+03  0.22047052671E+03  0.00000000000E+00 0.  1.
          2   -1    0    0  502    0 -0.00000000000E+00 -0.00000000000E+00 -0.69328118655E+03  0.69328118655E+03  0.00000000000E+00 0.  1.
         25    1    1    2    0    0  0.20583119950E+03  0.12154683207E+03  0.48170643970E+02  0.27401738268E+03  0.12500000000E+03 0.  0.
         21    1    1    2  503  501 -0.76971780065E+02 -0.26559516582E+02  0.12835231341E+02  0.82430613312E+02  0.00000000000E+00 0.  1.
          2    1    1    2  501    0 -0.12885941943E+03 -0.94987315486E+02 -0.53381653515E+03  0.55730371726E+03  0.00000000000E+00 0.  1.
<mgrwt>
<rscale>  4 0.20730081E+03</rscale>
<asrwt>0</asrwt>
<pdfrwt beam="1">  1       21 0.33918543E-01 0.20730081E+03</pdfrwt>
<pdfrwt beam="2">  1        2 0.10665864E+00 0.20730081E+03</pdfrwt>
<totfact> 0.44571492E+03</totfact>
</mgrwt>
</event>
<event>
 5    0  0.4115852E+000  0.3504951E+03  0.7546771E-02  0.1062412E+00
          1   -1    0    0  502    0 -0.00000000000E+00  0.00000000000E+00  0.20560462945E+04  0.20560462945E+04  0.00000000000E+00 0. -1.
         21   -1    0    0  503  502  0.00000000000E+00 -0.00000000000E+00 -0.15973496617E+03  0.15973496617E+03  0.00000000000E+00 0. -1.
         25    1    1    2    0    0 -0.27592086729E+03 -0.12100554009E+03  0.14894948701E+03  0.35858836487E+03  0.12500000000E+03 0.  0.
         21    1    1    2  503  501 -0.53837229034E+02  0.75243437218E+02  0.15729419385E+02  0.93847944616E+02  0.00000000000E+00 0. -1.
          1    1    1    2  501    0  0.32975809632E+03  0.45762102873E+02  0.17316324220E+04  0.17633449512E+04  0.00000000000E+00 0. -1.
<mgrwt>
<rscale>  4 0.35049511E+03</rscale>
<asrwt>0</asrwt>
<pdfrwt beam="1">  1       21 0.24574612E-01 0.35049511E+03</pdfrwt>
<pdfrwt beam="2">  1        1 0.31631480E+00 0.35049511E+03</pdfrwt>
<totfact> 0.51055563E+02</totfact>
</mgrwt>
</event>
<event>
 5    0  0.4115852E+000  0.4063636E+03  0.7546771E-02  0.1041598E+00
         21   -1    0    0  503  502  0.00000000000E+00  0.00000000000E+00  0.76607168245E+03  0.76607168245E+03  0.00000000000E+00 0. -1.
          2   -1    0    0  502    0 -0.00000000000E+00 -0.00000000000E+00 -0.81929885401E+03  0.81929885401E+03  0.00000000000E+00 0.  1.
         25    1    1    2    0    0  0.23770475858E+03 -0.27523017337E+03  0.56725732816E+03  0.68531823041E+03  0.12500000000E+03 0.  0.
         21    1    1    2  503  501  0.64135209606E+01 -0.26995323284E+02  0.87873839949E+02  0.92150379694E+02  0.00000000000E+00 0. -1.
          2    1    1    2  501    0 -0.24411827954E+03  0.30222549665E+03 -0.70835833967E+03  0.80790192636E+03  0.00000000000E+00 0.  1.
<mgrwt>
<rscale>  4 0.40636356E+03</rscale>
<asrwt>0</asrwt>
<pdfrwt beam="1">  1       21 0.11785718E+00 0.40636356E+03</pdfrwt>
<pdfrwt beam="2">  1        2 0.12604598E+00 0.40636356E+03</pdfrwt>
<totfact> 0.21445884E+02</totfact>
</mgrwt>
</event>
<event>
 5    0  0.4115852E+000  0.2274900E+03  0.7546771E-02  0.1128419E+00
         21   -1    0    0  501  502  0.00000000000E+00  0.00000000000E+00  0.23422681750E+03  0.23422681750E+03  0.00000000000E+00 0.  1.
         -1   -1    0    0    0  501 -0.00000000000E+00 -0.00000000000E+00 -0.26545413804E+03  0.26545413804E+03  0.00000000000E+00 0.  1.
         25    1    1    2    0    0  0.15407082353E+03 -0.12904574713E+03 -0.96131547058E+02  0.25545429700E+03  0.12500000000E+03 0.  0.
         21    1    1    2  503  502 -0.53886663892E+02 -0.17169468238E+02  0.35653943768E+01  0.56668114685E+02  0.00000000000E+00 0.  1.
         -1    1    1    2    0  503 -0.10018415963E+03  0.14621521537E+03  0.61338832144E+02  0.18755854386E+03  0.00000000000E+00 0.  1.
<mgrwt>
<rscale>  4 0.22749003E+03</rscale>
<asrwt>0</asrwt>
<pdfrwt beam="1">  1       21 0.36034895E-01 0.22749003E+03</pdfrwt>
<pdfrwt beam="2">  1       -1 0.40839098E-01 0.22749003E+03</pdfrwt>
<totfact> 0.40338384E+03</totfact>
</mgrwt>
</event>
<event>
 5    0  0.4115852E+000  0.4268417E+03  0.7546771E-02  0.1034862E+00
         21   -1    0    0  503  502  0.00000000000E+00  0.00000000000E+00  0.28445552583E+03  0.28445552583E+03  0.00000000000E+00 0.  1.
          2   -1    0    0  502    0 -0.00000000000E+00 -0.00000000000E+00 -0.11322003816E+04  0.11322003816E+04  0.00000000000E+00 0. -1.
         25    1    1    2    0    0 -0.35272052439E+03  0.15970421066E+03  0.11092056664E+02  0.40701994662E+03  0.12500000000E+03 0.  0.
         21    1    1    2  503  501 -0.22755338922E+02  0.11633054297E+02  0.24019565443E+02  0.35072395496E+02  0.00000000000E+00 0.  1.
          2    1    1    2  501    0  0.37547586331E+03 -0.17133726495E+03 -0.88285647792E+03  0.97456356534E+03  0.00000000000E+00 0. -1.
<mgrwt>
<rscale>  4 0.42684165E+03</rscale>
<asrwt>0</asrwt>
<pdfrwt beam="1">  1       21 0.43762388E-01 0.42684165E+03</pdfrwt>
<pdfrwt beam="2">  1        2 0.17418468E+00 0.42684165E+03</pdfrwt>
<totfact> 0.12805241E+03</totfact>
</mgrwt>
</event>
<event>
 5    0  0.4115852E+000  0.3181560E+03  0.7546771E-02  0.1076501E+00
         -4   -1    0    0    0  501 -0.00000000000E+00  0.00000000000E+00  0.12764171197E+04  0.12764171197E+04  0.00000000000E+00 0.  1.
         21   -1    0    0  501  502  0.00000000000E+00 -0.00000000000E+00 -0.12865981739E+03  0.12865981739E+03  0.00000000000E+00 0. -1.
         25    1    1    2    0    0 -0.12368641057E+03  0.29425871342E+03  0.30436506982E+03  0.45842078303E+03  0.12500000000E+03 0.  0.
         21    1    1    2  503  502 -0.48492790883E+02 -0.65440015105E+02  0.34289756219E+02  0.88372697854E+02  0.00000000000E+00 0. -1.
         -4    1    1    2    0  503  0.17217920145E+03 -0.22881869831E+03  0.80910247622E+03  0.85828345617E+03  0.00000000000E+00 0.  1.
<mgrwt>
<rscale>  4 0.31815599E+03</rscale>
<asrwt>0</asrwt>
<pdfrwt beam="1">  1       21 0.19793819E-01 0.31815599E+03</pdfrwt>
<pdfrwt beam="2">  1       -4 0.19637186E+00 0.31815599E+03</pdfrwt>
<totfact> 0.14776691E+02</totfact>
</mgrwt>
</event>
<event>
 5    0  0.4115852E+000  0.2356407E+03  0.7546771E-02  0.1122731E+00
         21   -1    0    0  501  502  0.00000000000E+00  0.00000000000E+00  0.29333438394E+03  0.29333438394E+03  0.00000000000E+00 0. -1.
         -2   -1    0    0    0  501 -0.00000000000E+00 -0.00000000000E+00 -0.51369511244E+03  0.51369511244E+03  0.00000000000E+00 0.  1.
         25    1    1    2    0    0  0.15145776816E+03  0.14686153866E+03  0.20131657223E+03  0.31727138120E+03  0.12500000000E+03 0.  0.
         21    1    1    2  503  502 -0.71564024628E+02 -0.47084214294E+02 -0.55898814105E+02  0.10228885704E+03  0.00000000000E+00 0. -1.
         -2    1    1    2    0  503 -0.79893743533E+02 -0.99777324368E+02 -0.36577848664E+03  0.38746925813E+03  0.00000000000E+00 0.  1.
<mgrwt>
<rscale>  4 0.23564067E+03</rscale>
<asrwt>0</asrwt>
<pdfrwt beam="1">  1       21 0.45128367E-01 0.23564067E+03</pdfrwt>
<pdfrwt beam="2">  1       -2 0.79030017E-01 0.23564067E+03</pdfrwt>
<totfact> 0.55484530E+02</totfact>
</mgrwt>
</event>
<event>
 5    0  0.4115852E+000  0.2661528E+03  0.7546771E-02  0.1103502E+00
         21   -1    0    0  503  502  0.00000000000E+00  0.00000000000E+00  0.13449012271E+04  0.13449012271E+04  0.00000000000E+00 0.  1.
          1   -1    0    0  502    0 -0.00000000000E+00 -0.00000000000E+00 -0.35277407743E+03  0.35277407743E+03  0.00000000000E+00 0.  1.
         25    1    1    2    0    0 -0.27048413495E+03 -0.46071797103E+02  0.97061763812E+03  0.10163699509E+04  0.12500000000E+03 0.  0.
         21    1    1    2  503  501  0.39846790823E+02  0.85107618895E+02  0.30187986495E+03  0.31616850949E+03  0.00000000000E+00 0.  1.
          1    1    1    2  501    0  0.23063734412E+03 -0.39035821792E+02 -0.28037035338E+03  0.36513684413E+03  0.00000000000E+00 0.  1.
<mgrwt>
<rscale>  4 0.26615285E+03</rscale>
<asrwt>0</asrwt>
<pdfrwt beam="1">  1       21 0.20690788E+00 0.26615285E+03</pdfrwt>
<pdfrwt beam="2">  1        1 0.54272936E-01 0.26615285E+03</pdfrwt>
<totfact> 0.89230986E+01</totfact>
</mgrwt>
</event>
<event>
 5    0  0.4115852E+000  0.2742844E+03  0.7546771E-02  0.1098852E+00
         -2   -1    0    0    0  501 -0.00000000000E+00  0.00000000000E+00  0.15465602934E+03  0.15465602934E+03  0.00000000000E+00 0. -1.
         21   -1    0    0  501  502  0.00000000000E+00 -0.00000000000E+00 -0.20249271185E+04  0.20249271185E+04  0.00000000000E+00 0.  1.
         25    1    1    2    0    0  0.20755831793E+03  0.52796879317E+02 -0.15025946623E+04  0.15229194611E+04  0.12500000000E+03 0.  0.
         21    1    1    2  503  502  0.23390949539E+02  0.32851469166E+02 -0.40546237966E+03  0.40746300061E+03  0.00000000000E+00 0.  1.
         -2    1    1    2    0  503 -0.23094926747E+03 -0.85648348483E+02  0.37785952803E+02  0.24920068614E+03  0.00000000000E+00 0. -1.
<mgrwt>
<rscale>  4 0.27428441E+03</rscale>
<asrwt>0</asrwt>
<pdfrwt beam="1">  1       21 0.31152722E+00 0.27428441E+03</pdfrwt>
<pdfrwt beam="2">  1       -2 0.23793237E-01 0.27428441E+03</pdfrwt>
<totfact> 0.33421393E+01</totfact>
</mgrwt>
</event>
<event>
 5    0  0.4115852E+000  0.2200842E+03  0.7546771E-02  0.1133820E+00
          1   -1    0    0  502    0 -0.00000000000E+00  0.00000000000E+00  0.12908091965E+04  0.12908091965E+04  0.00000000000E+00 0. -1.
         21   -1    0    0  503  502  0.00000000000E+00 -0.00000000000E+00 -0.59286421276E+02  0.59286421276E+02  0.00000000000E+00 0. -1.
         25    1    1    2    0    0 -0.21199695316E+03 -0.37472207234E+02  0.68620811155E+03  0.72996811357E+03  0.12500000000E+03 0.  0.
         21    1    1    2  503  501  0.15662600120E+03 -0.23602106288E+01  0.52658982457E+03  0.54939431939E+03  0.00000000000E+00 0.  1.
          1    1    1    2  501    0  0.55370951957E+02  0.39832417863E+02  0.18724839096E+02  0.70733184805E+02  0.00000000000E+00 0. -1.
<mgrwt>
<rscale>  4 0.22008419E+03</rscale>
<asrwt>0</asrwt>
<pdfrwt beam="1">  1       21 0.91209888E-02 0.22008419E+03</pdfrwt>
<pdfrwt beam="2">  1        1 0.19858601E+00 0.22008419E+03</pdfrwt>
<totfact> 0.10600358E+04</totfact>
</mgrwt>
</event>
<event>
 5    0  0.4115852E+000  0.3582941E+03  0.7546771E-02  0.1059261E+00
         21   -1    0    0  503  502  0.00000000000E+00  0.00000000000E+00  0.22757385716E+03  0.22757385716E+03  0.00000000000E+00 0. -1.
          2   -1    0    0  502    0 -0.00000000000E+00 -0.00000000000E+00 -0.37773639281E+04  0.37773639281E+04  0.00000000000E+00 0. -1.
         25    1    1    2    0    0 -0.42418268395E+03 -0.58072680206E+02 -0.35561389618E+03  0.57042933717E+03  0.12500000000E+03 0.  0.
         21    1    1    2  503  501  0.17482281088E+03 -0.16360965282E+03 -0.17195892334E+02  0.24005589435E+03  0.00000000000E+00 0. -1.
          2    1    1    2  501    0  0.24935987307E+03  0.22168233303E+03 -0.31769802824E+04  0.31944525537E+04  0.00000000000E+00 0. -1.
<mgrwt>
<rscale>  4 0.35829406E+03</rscale>
<asrwt>0</asrwt>
<pdfrwt beam="1">  1       21 0.35011366E-01 0.35829406E+03</pdfrwt>
<pdfrwt beam="2">  1        2 0.58113286E+00 0.35829406E+03</pdfrwt>
<totfact> 0.59627255E+01</totfact>
</mgrwt>
</event>
<event>
 5    0  0.4115852E+000  0.3924309E+03  0.7546771E-02  0.1046433E+00
          1   -1    0    0  502    0 -0.00000000000E+00  0.00000000000E+00  0.84606748941E+03  0.84606748941E+03  0.00000000000E+00 0.  1.
         21   -1    0    0  503  502  0.00000000000E+00 -0.00000000000E+00 -0.13074778699E+04  0.13074778699E+04  0.00000000000E+00 0.  1.
         25    1    1    2    0    0 -0.44588097636E+03  0.95771548166E+02 -0.13231122725E+03  0.49103288625E+03  0.12500000000E+03 0.  0.
         21    1    1    2  503  501  0.87286530202E+02 -0.70865762622E+02 -0.94377446452E+03  0.95044785999E+03  0.00000000000E+00 0.  1.
          1    1    1    2  501    0  0.35859444616E+03 -0.24905785544E+02  0.61467531126E+03  0.71206461311E+03  0.00000000000E+00 0.  1.
<mgrwt>
<rscale>  4 0.39243093E+03</rscale>
<asrwt>0</asrwt>
<pdfrwt beam="1">  1       21 0.20115044E+00 0.39243093E+03</pdfrwt>
<pdfrwt beam="2">  1        1 0.13016423E+00 0.39243093E+03</pdfrwt>
<totfact> 0.26646847E+01</totfact>
</mgrwt>
</event>
<event>
 5    0  0.4115852E+000  0.2637996E+03  0.7546771E-02  0.1104882E+00
         21   -1    0    0  501  502  0.00000000000E+00  0.00000000000E+00  0.21436402760E+03  0.21436402760E+03  0.00000000000E+00 0.  1.
         -2   -1    0    0    0  501 -0.00000000000E+00 -0.00000000000E+00 -0.66585257256E+03  0.66585257256E+03  0.00000000000E+00 0.  1.
         25    1    1    2    0    0 -0.52365940135E+02 -0.22561587859E+03  0.77270565257E+02  0.27429993914E+03  0.12500000000E+03 0.  0.
         21    1    1    2  503  502 -0.32881610765E+02  0.90817062182E+01 -0.72959104086E+01  0.34884208792E+02  0.00000000000E+00 0.  1.
         -2    1    1    2    0  503  0.85247550900E+02  0.21653417237E+03 -0.52146319981E+03  0.57103245222E+03  0.00000000000E+00 0.  1.
<mgrwt>
<rscale>  4 0.26379956E+03</rscale>
<asrwt>0</asrwt>
<pdfrwt beam="1">  1       21 0.32979081E-01 0.26379956E+03</pdfrwt>
<pdfrwt beam="2">  1       -2 0.10243886E+00 0.26379956E+03</pdfrwt>
<totfact> 0.57572616E+02</totfact>
</mgrwt>
</event>
<event>
 5    0  0.4115852E+000  0.2786889E+03  0.7546771E-02  0.1096407E+00
         -1   -1    0    0    0  501 -0.00000000000E+00  0.00000000000E+00  0.14048670135E+03  0.14048670135E+03  0.00000000000E+00 0.  1.
         21   -1    0    0  501  502  0.00000000000E+00 -0.00000000000E+00 -0.72751249079E+03  0.72751249079E+03  0.00000000000E+00 0.  1.
         25    1    1    2    0    0 -0.19684594013E+03 -0.14612392693E+03 -0.13013106152E+03  0.30440042598E+03  0.12500000000E+03 0.  0.
         21    1    1    2  503  502  0.61170189291E+01 -0.23520345404E+02 -0.19992595618E+03  0.20139764776E+03  0.00000000000E+00 0.  1.
         -1    1    1    2    0  503  0.19072892120E+03  0.16964427233E+03 -0.25696877174E+03  0.36220111840E+03  0.00000000000E+00 0.  1.
<mgrwt>
<rscale>  4 0.27868889E+03</rscale>
<asrwt>0</asrwt>
<pdfrwt beam="1">  1       21 0.11192500E+00 0.27868889E+03</pdfrwt>
<pdfrwt beam="2">  1       -1 0.21613339E-01 0.27868889E+03</pdfrwt>
<totfact> 0.97564137E+02</totfact>
</mgrwt>
</event>
<event>
 5    0  0.4115852E+000  0.2493340E+03  0.7546771E-02  0.1113726E+00
         21   -1    0    0  503  502  0.00000000000E+00  0.00000000000E+00  0.50912857662E+02  0.50912857662E+02  0.00000000000E+00 0.  1.
          2   -1    0    0  502    0 -0.00000000000E+00 -0.00000000000E+00 -0.10918529797E+04  0.10918529797E+04  0.00000000000E+00 0.  1.
         25    1    1    2    0    0  0.13244672541E+03  0.17029473478E+03 -0.62609192588E+03  0.67391285150E+03  0.12500000000E+03 0.  0.
         21    1    1    2  503  501 -0.11632597295E+03 -0.14525354555E+03 -0.32896602005E+03  0.37795365698E+03  0.00000000000E+00 0.  1.
          2    1    1    2  501    0 -0.16120752459E+02 -0.25041189222E+02 -0.85882176093E+02  0.90899328864E+02  0.00000000000E+00 0.  1.
<mgrwt>
<rscale>  4 0.24933398E+03</rscale>
<asrwt>0</asrwt>
<pdfrwt beam="1">  1       21 0.78327477E-02 0.24933398E+03</pdfrwt>
<pdfrwt beam="2">  1        2 0.16797737E+00 0.24933398E+03</pdfrwt>
<totfact> 0.36325049E+04</totfact>
</mgrwt>
</event>
<event>
 5    0  0.4115852E+000  0.3293173E+03  0.7546771E-02  0.1071439E+00
          1   -1    0    0  502    0 -0.00000000000E+00  0.00000000000E+00  0.73467331171E+03  0.73467331171E+03  0.00000000000E+00 0. -1.
         21   -1    0    0  503  502  0.00000000000E+00 -0.00000000000E+00 -0.56920144641E+03  0.56920144641E+03  0.00000000000E+00 0.  1.
         25    1    1    2    0    0  0.24138071681E+03 -0.15532027670E+03 -0.41797883915E+03  0.52222633865E+03  0.12500000000E+03 0.  0.
         21    1    1    2  503  501  0.41262773371E+02  0.37301844500E+02 -0.52054565019E+02  0.76182162011E+02  0.00000000000E+00 0.  1.
          1    1    1    2  501    0 -0.28264349018E+03  0.11801843220E+03  0.63550526947E+03  0.70546625746E+03  0.00000000000E+00 0. -1.
<mgrwt>
<rscale>  4 0.32931729E+03</rscale>
<asrwt>0</asrwt>
<pdfrwt beam="1">  1       21 0.87569453E-01 0.32931729E+03</pdfrwt>
<pdfrwt beam="2">  1        1 0.11302666E+00 0.32931729E+03</pdfrwt>
<totfact> 0.30413961E+02</totfact>
</mgrwt>
</event>
<event>
 5    0  0.4115852E+000  0.3005297E+03  0.7546771E-02  0.1084976E+00
          2   -1    0    0  502    0 -0.00000000000E+00  0.00000000000E+00  0.98220344023E+03  0.98220344023E+03  0.00000000000E+00 0. -1.
         21   -1    0    0  503  502  0.00000000000E+00 -0.00000000000E+00 -0.13300319880E+03  0.13300319880E+03  0.00000000000E+00 0. -1.
         25    1    1    2    0    0  0.26519123567E+03  0.66081102418E+02  0.10318685036E+03  0.31775089246E+03  0.12500000000E+03 0.  0.
         21    1    1    2  503  501 -0.59327790770E+02 -0.94696982461E+01  0.95743203890E+02  0.11303195581E+03  0.00000000000E+00 0. -1.
          2    1    1    2  501    0 -0.20586344490E+03 -0.56611404172E+02  0.65027018718E+03  0.68442379076E+03  0.00000000000E+00 0. -1.
<mgrwt>
<rscale>  4 0.30052970E+03</rscale>
<asrwt>0</asrwt>
<pdfrwt beam="1">  1       21 0.20462031E-01 0.30052970E+03</pdfrwt>
<pdfrwt beam="2">  1        2 0.15110822E+00 0.30052970E+03</pdfrwt>
<totfact> 0.73416704E+03</totfact>
</mgrwt>
</event>
<event>
 5    0  0.4115852E+000  0.2993093E+03  0.7546771E-02  0.1085586E+00
          1   -1    0    0  502    0 -0.00000000000E+00  0.00000000000E+00  0.55998748424E+03  0.55998748424E+03  0.00000000000E+00 0. -1.
         21   -1    0    0  503  502  0.00000000000E+00 -0.00000000000E+00 -0.33651190880E+03  0.33651190880E+03  0.00000000000E+00 0. -1.
         25    1    1    2    0    0  0.16411956200E+03  0.13142484594E+03  0.46816666529E+02  0.24904722650E+03  0.12500000000E+03 0.  0.
         21    1    1    2  503  501  0.19156968451E+03 -0.11028266439E+03 -0.48035372609E+02  0.22620479020E+03  0.00000000000E+00 0. -1.
          1    1    1    2  501    0 -0.35568924651E+03 -0.21142181551E+02  0.22469428152E+03  0.42124737633E+03  0.00000000000E+00 0. -1.
<mgrwt>
<rscale>  4 0.29930926E+03</rscale>
<asrwt>0</asrwt>
<pdfrwt beam="1">  1       21 0.51771063E-01 0.29930926E+03</pdfrwt>
<pdfrwt beam="2">  1        1 0.86151921E-01 0.29930926E+03</pdfrwt>
<totfact> 0.14573432E+03</totfact>
</mgrwt>
</event>
<event>
 5    0  0.4115852E+000  0.2163103E+03  0.7546771E-02  0.1136664E+00
         -1   -1    0    0    0  501 -0.00000000000E+00  0.00000000000E+00  0.36933515389E+03  0.36933515389E+03  0.00000000000E+00 0.  1.
         21   -1    0    0  501  502  0.00000000000E+00 -0.00000000000E+00 -0.38476648677E+03  0.38476648677E+03  0.00000000000E+00 0.  1.
         25    1    1    2    0    0  0.19502700632E+03  0.11160608334E+03  0.22207354589E+03  0.33975448609E+03  0.12500000000E+03 0.  0.
         21    1    1    2  503  502 -0.58732789613E+02 -0.11128977392E+03 -0.24753476701E+03  0.27768402048E+03  0.00000000000E+00 0.  1.
         -1    1    1    2    0  503 -0.13629421671E+03 -0.31630941932E+00  0.10029888243E+02  0.13666313409E+03  0.00000000000E+00 0.  1.
<mgrwt>
<rscale>  4 0.21631028E+03</rscale>
<asrwt>0</asrwt>
<pdfrwt beam="1">  1       21 0.59194844E-01 0.21631028E+03</pdfrwt>
<pdfrwt beam="2">  1       -1 0.56820793E-01 0.21631028E+03</pdfrwt>
<totfact> 0.79022036E+02</totfact>
</mgrwt>
</event>
<event>
 5    0  0.4115852E+000  0.6220911E+03  0.7546771E-02  0.9860605E-01
          2   -1    0    0  502    0 -0.00000000000E+00  0.00000000000E+00  0.12868995102E+04  0.12868995102E+04  0.00000000000E+00 0.  1.
         21   -1    0    0  503  502  0.00000000000E+00 -0.00000000000E+00 -0.48319653639E+03  0.48319653639E+03  0.00000000000E+00 0.  1.
         25    1    1    2    0    0 -0.45077451705E+03  0.35404902908E+03 -0.11717396833E+03  0.59825004728E+03  0.12500000000E+03 0.  0.
         21    1    1    2  503  501 -0.52426276732E+02  0.64110216810E+01 -0.10198424250E+02  0.53792411623E+02  0.00000000000E+00 0.  1.
          2    1    1    2  501    0  0.50320079379E+03 -0.36046005076E+03  0.93107536642E+03  0.11180535877E+04  0.00000000000E+00 0.  1.
<mgrwt>
<rscale>  4 0.62209108E+03</rscale>
<asrwt>0</asrwt>
<pdfrwt beam="1">  1       21 0.74337929E-01 0.62209108E+03</pdfrwt>
<pdfrwt beam="2">  1        2 0.19798454E+00 0.62209108E+03</pdfrwt>
<totfact> 0.31222143E+02</totfact>
</mgrwt>
</event>
<event>
 5    0  0.4115852E+000  0.2941093E+03  0.7546771E-02  0.1088223E+00
         21   -1    0    0  503  502  0.00000000000E+00  0.00000000000E+00  0.42847185661E+03  0.42847185661E+03  0.00000000000E+00 0. -1.
          3   -1    0    0  502    0 -0.00000000000E+00 -0.00000000000E+00 -0.20667081033E+03  0.20667081033E+03  0.00000000000E+00 0. -1.
         25    1    1    2    0    0  0.24954536591E+03 -0.64328619445E+02  0.92948846641E+02  0.30112381011E+03  0.12500000000E+03 0.  0.
         21    1    1    2  503  501  0.99574212104E+01 -0.21426776068E+02 -0.12058381228E+02  0.26526619228E+02  0.00000000000E+00 0.  1.
          3    1    1    2  501    0 -0.25950278712E+03  0.85755395513E+02  0.14091058087E+03  0.30749223760E+03  0.00000000000E+00 0. -1.
<mgrwt>
<rscale>  4 0.29410929E+03</rscale>
<asrwt>0</asrwt>
<pdfrwt beam="1">  1       21 0.65918747E-01 0.29410929E+03</pdfrwt>
<pdfrwt beam="2">  1        3 0.31795509E-01 0.29410929E+03</pdfrwt>
<totfact> 0.99128894E+02</totfact>
</mgrwt>
</event>
<event>
 5    0  0.4115852E+000  0.2260235E+03  0.7546771E-02  0.1129470E+00
          2   -1    0    0  502    0 -0.00000000000E+00  0.00000000000E+00  0.23590035618E+03  0.23590035618E+03  0.00000000000E+00 0.  1.
         21   -1    0    0  503  502  0.00000000000E+00 -0.00000000000E+00 -0.73148504717E+03  0.73148504717E+03  0.00000000000E+00 0.  1.
         25    1    1    2    0    0  0.16606298523E+03  0.25021151508E+03 -0.17335754754E+03  0.36859267035E+03  0.12500000000E+03 0.  0.
         21    1    1    2  503  501 -0.28384398891E+02 -0.15414583583E+03 -0.38801936795E+03  0.41848015808E+03  0.00000000000E+00 0.  1.
          2    1    1    2  501    0 -0.13767858634E+03 -0.96065679257E+02  0.65792224507E+02  0.18031257492E+03  0.00000000000E+00 0.  1.
<mgrwt>
<rscale>  4 0.22602345E+03</rscale>
<asrwt>0</asrwt>
<pdfrwt beam="1">  1       21 0.11253616E+00 0.22602345E+03</pdfrwt>
<pdfrwt beam="2">  1        2 0.36292363E-01 0.22602345E+03</pdfrwt>
<totfact> 0.10671285E+03</totfact>
</mgrwt>
</event>
<event>
 5    0  0.4115852E+000  0.3243668E+03  0.7546771E-02  0.1073657E+00
          1   -1    0    0  502    0 -0.00000000000E+00  0.00000000000E+00  0.14558724043E+04  0.14558724043E+04  0.00000000000E+00 0.  1.
         21   -1    0    0  503  502  0.00000000000E+00 -0.00000000000E+00 -0.37049724312E+03  0.37049724312E+03  0.00000000000E+00 0. -1.
         25    1    1    2    0    0 -0.25799695590E+03 -0.15015973358E+03 -0.27110920335E+03  0.42217955301E+03  0.12500000000E+03 0.  0.
         21    1    1    2  503  501 -0.12748724344E+01 -0.27644816472E+02  0.29400537025E+02  0.40376388581E+02  0.00000000000E+00 0. -1.
          1    1    1    2  501    0  0.25927182833E+03  0.17780455005E+03  0.13270838275E+04  0.13638137058E+04  0.00000000000E+00 0.  1.
<mgrwt>
<rscale>  4 0.32436681E+03</rscale>
<asrwt>0</asrwt>
<pdfrwt beam="1">  1       21 0.56999577E-01 0.32436681E+03</pdfrwt>
<pdfrwt beam="2">  1        1 0.22398037E+00 0.32436681E+03</pdfrwt>
<totfact> 0.23175957E+02</totfact>
</mgrwt>
</event>
<event>
 5    0  0.4115852E+000  0.2655566E+03  0.7546771E-02  0.1103850E+00
          4   -1    0    0  502    0 -0.00000000000E+00  0.00000000000E+00  0.27782481952E+03  0.27782481952E+03  0.00000000000E+00 0.  1.
         21   -1    0    0  503  502  0.00000000000E+00 -0.00000000000E+00 -0.41107007526E+03  0.41107007526E+03  0.00000000000E+00 0.  1.
         25    1    1    2    0    0 -0.51111169704E+02  0.24943045453E+03 -0.25264549964E+03  0.37984556309E+03  0.12500000000E+03 0.  0.
         21    1    1    2  503  501 -0.24737525742E+02 -0.31854425965E+02 -0.14131084160E+02  0.42735666286E+02  0.00000000000E+00 0.  1.
          4    1    1    2  501    0  0.75848695447E+02 -0.21757602856E+03  0.13353132806E+03  0.26631366540E+03  0.00000000000E+00 0.  1.
<mgrwt>
<rscale>  4 0.26555662E+03</rscale>
<asrwt>0</asrwt>
<pdfrwt beam="1">  1       21 0.63241550E-01 0.26555662E+03</pdfrwt>
<pdfrwt beam="2">  1        4 0.42742280E-01 0.26555662E+03</pdfrwt>
<totfact> 0.51518764E+02</totfact>
</mgrwt>
</event>
<event>
 5    0  0.4115852E+000  0.2865793E+03  0.7546771E-02  0.1092149E+00
          1   -1    0    0  502    0 -0.00000000000E+00  0.00000000000E+00  0.11775252766E+04  0.11775252766E+04  0.00000000000E+00 0. -1.
         21   -1    0    0  503  502  0.00000000000E+00 -0.00000000000E+00 -0.19216433608E+03  0.19216433608E+03  0.00000000000E+00 0.  1.
         25    1    1    2    0    0  0.26841074979E+03  0.11191619935E+03 -0.28544505189E+01  0.31654812299E+03  0.12500000000E+03 0.  0.
         21    1    1    2  503  501 -0.24544513976E+02 -0.38628580795E+02  0.16555543418E+02  0.48669152842E+02  0.00000000000E+00 0.  1.
          1    1    1    2  501    0 -0.24386623581E+03 -0.73287618560E+02  0.97165984760E+03  0.10044723368E+04  0.00000000000E+00 0. -1.
<mgrwt>
<rscale>  4 0.28657932E+03</rscale>
<asrwt>0</asrwt>
<pdfrwt beam="1">  1       21 0.29563745E-01 0.28657932E+03</pdfrwt>
<pdfrwt beam="2">  1        1 0.18115773E+00 0.28657932E+03</pdfrwt>
<totfact> 0.14076507E+03</totfact>
</mgrwt>
</event>
<event>
 5    0  0.4115852E+000  0.2147451E+03  0.7546771E-02  0.1137863E+00
         21   -1    0    0  503  502  0.00000000000E+00  0.00000000000E+00  0.13700549793E+03  0.13700549793E+03  0.00000000000E+00 0.  1.
          2   -1    0    0  502    0 -0.00000000000E+00 -0.00000000000E+00 -0.14011197684E+04  0.14011197684E+04  0.00000000000E+00 0.  1.
         25    1    1    2    0    0  0.29789225604E+02  0.25610893316E+03 -0.70429087775E+02  0.29506683990E+03  0.12500000000E+03 0.  0.
         21    1    1    2  503  501 -0.68064359825E+01 -0.87858240707E+02 -0.88454271570E+02  0.12485814427E+03  0.00000000000E+00 0.  1.
          2    1    1    2  501    0 -0.22982789622E+02 -0.16825069245E+03 -0.11052309111E+04  0.11182002822E+04  0.00000000000E+00 0.  1.
<mgrwt>
<rscale>  4 0.21474506E+03</rscale>
<asrwt>0</asrwt>
<pdfrwt beam="1">  1       21 0.21077768E-01 0.21474506E+03</pdfrwt>
<pdfrwt beam="2">  1        2 0.21555690E+00 0.21474506E+03</pdfrwt>
<totfact> 0.41037499E+03</totfact>
</mgrwt>
</event>
<event>
 5    0  0.4115852E+000  0.1663924E+03  0.7546771E-02  0.1181663E+00
         21   -1    0    0  503  502  0.00000000000E+00  0.00000000000E+00  0.23925378040E+03  0.23925378040E+03  0.00000000000E+00 0.  1.
          3   -1    0    0  502    0 -0.00000000000E+00 -0.00000000000E+00 -0.13653393647E+04  0.13653393647E+04  0.00000000000E+00 0. -1.
         25    1    1    2    0    0  0.56283500330E+02 -0.19775478121E+03  0.11862908742E+03  0.26827718181E+03  0.12500000000E+03 0.  0.
         21    1    1    2  503  501  0.54714427902E+01  0.10822793605E+03 -0.24290437616E+02  0.11105515831E+03  0.00000000000E+00 0.  1.
          3    1    1    2  501    0 -0.61754943120E+02  0.89526845156E+02 -0.12204242341E+04  0.12252608050E+04  0.00000000000E+00 0. -1.
<mgrwt>
<rscale>  4 0.16639240E+03</rscale>
<asrwt>0</asrwt>
<pdfrwt beam="1">  1       21 0.36808274E-01 0.16639240E+03</pdfrwt>
<pdfrwt beam="2">  1        3 0.21005221E+00 0.16639240E+03</pdfrwt>
<totfact> 0.50117124E+01</totfact>
</mgrwt>
</event>
<event>
 5    0  0.4115852E+000  0.2452690E+03  0.7546771E-02  0.1116332E+00
          2   -1    0    0  502    0 -0.00000000000E+00  0.00000000000E+00  0.92346852302E+03  0.92346852302E+03  0.00000000000E+00 0.  1.
         21   -1    0    0  503  502  0.00000000000E+00 -0.00000000000E+00 -0.36381374546E+03  0.36381374546E+03  0.00000000000E+00 0.  1.
         25    1    1    2    0    0  0.22311264341E+03 -0.10509325582E+03 -0.22924293367E+03  0.35916732411E+03  0.12500000000E+03 0.  0.
         21    1    1    2  503  501 -0.33768841106E+02  0.15504962462E+02 -0.50656661298E+02  0.62823847577E+02  0.00000000000E+00 0.  1.
          2    1    1    2  501    0 -0.18934380230E+03  0.89588293360E+02  0.83955437253E+03  0.86529109680E+03  0.00000000000E+00 0.  1.
<mgrwt>
<rscale>  4 0.24526899E+03</rscale>
<asrwt>0</asrwt>
<pdfrwt beam="1">  1       21 0.55971346E-01 0.24526899E+03</pdfrwt>
<pdfrwt beam="2">  1        2 0.14207208E+00 0.24526899E+03</pdfrwt>
<totfact> 0.10887118E+03</totfact>
</mgrwt>
</event>
<event>
 5    0  0.4115852E+000  0.4847269E+03  0.7546771E-02  0.1017844E+00
         21   -1    0    0  503  502  0.00000000000E+00  0.00000000000E+00  0.68072681036E+03  0.68072681036E+03  0.00000000000E+00 0.  1.
          2   -1    0    0  502    0 -0.00000000000E+00 -0.00000000000E+00 -0.19327815338E+04  0.19327815338E+04  0.00000000000E+00 0.  1.
         25    1    1    2    0    0  0.43011585273E+03 -0.26962679260E+03 -0.58955384807E+03  0.78797017319E+03  0.12500000000E+03 0.  0.
         21    1    1    2  503  501 -0.45887783127E+02  0.31481158481E+02  0.53897331511E+03  0.54183852427E+03  0.00000000000E+00 0.  1.
          2    1    1    2  501    0 -0.38422806961E+03  0.23814563412E+03 -0.12014741905E+04  0.12836996467E+04  0.00000000000E+00 0.  1.
<mgrwt>
<rscale>  4 0.48472695E+03</rscale>
<asrwt>0</asrwt>
<pdfrwt beam="1">  1       21 0.10472720E+00 0.48472695E+03</pdfrwt>
<pdfrwt beam="2">  1        2 0.29735100E+00 0.48472695E+03</pdfrwt>
<totfact> 0.63830559E+01</totfact>
</mgrwt>
</event>
<event>
 5    0  0.4115852E+000  0.2332886E+03  0.7546771E-02  0.1124346E+00
          3   -1    0    0  502    0 -0.00000000000E+00  0.00000000000E+00  0.54874230866E+03  0.54874230866E+03  0.00000000000E+00 0. -1.
         21   -1    0    0  503  502  0.00000000000E+00 -0.00000000000E+00 -0.50970851584E+03  0.50970851584E+03  0.00000000000E+00 0.  1.
         25    1    1    2    0    0 -0.19166164589E+03  0.11304717050E+03 -0.43293830812E+03  0.50256783413E+03  0.12500000000E+03 0.  0.
         21    1    1    2  503  501  0.22740959388E+02 -0.13761752013E+02 -0.15315456868E+02  0.30677357635E+02  0.00000000000E+00 0.  1.
          3    1    1    2  501    0  0.16892068650E+03 -0.99285418489E+02  0.48728755782E+03  0.52520563273E+03  0.00000000000E+00 0. -1.
<mgrwt>
<rscale>  4 0.23328863E+03</rscale>
<asrwt>0</asrwt>
<pdfrwt beam="1">  1       21 0.78416695E-01 0.23328863E+03</pdfrwt>
<pdfrwt beam="2">  1        3 0.84421894E-01 0.23328863E+03</pdfrwt>
<totfact> 0.92893618E+01</totfact>
</mgrwt>
</event>
<event>
 5    0  0.4115852E+000  0.2452365E+03  0.7546771E-02  0.1116353E+00
         21   -1    0    0  503  502  0.00000000000E+00  0.00000000000E+00  0.23447984714E+03  0.23447984714E+03  0.00000000000E+00 0.  1.
          1   -1    0    0  502    0 -0.00000000000E+00 -0.00000000000E+00 -0.26735984877E+04  0.26735984877E+04  0.00000000000E+00 0.  1.
         25    1    1    2    0    0  0.20954258750E+03  0.16580656168E+03 -0.11185568008E+04  0.11568034529E+04  0.12500000000E+03 0.  0.
         21    1    1    2  503  501 -0.43339808045E+02 -0.66719955968E+02  0.20166879799E+03  0.21679528493E+03  0.00000000000E+00 0.  1.
          1    1    1    2  501    0 -0.16620277945E+03 -0.99086605717E+02 -0.15222306377E+04  0.15344795970E+04  0.00000000000E+00 0.  1.
<mgrwt>
<rscale>  4 0.24523654E+03</rscale>
<asrwt>0</asrwt>
<pdfrwt beam="1">  1       21 0.36073823E-01 0.24523654E+03</pdfrwt>
<pdfrwt beam="2">  1        1 0.41132284E+00 0.24523654E+03</pdfrwt>
<totfact> 0.99298826E+01</totfact>
</mgrwt>
</event>
<event>
 5    0  0.4115852E+000  0.4082156E+03  0.7546771E-02  0.1040971E+00
          2   -1    0    0  502    0 -0.00000000000E+00  0.00000000000E+00  0.11327526372E+04  0.11327526372E+04  0.00000000000E+00 0. -1.
         21   -1    0    0  503  502  0.00000000000E+00 -0.00000000000E+00 -0.43202635564E+03  0.43202635564E+03  0.00000000000E+00 0. -1.
         25    1    1    2    0    0 -0.33321467220E+03  0.94898901698E+01  0.33905555315E+03  0.49163578379E+03  0.12500000000E+03 0.  0.
         21    1    1    2  503  501 -0.10351825074E+03 -0.76107577782E+02 -0.27191430236E+03  0.30074204805E+03  0.00000000000E+00 0. -1.
          2    1    1    2  501    0  0.43673292294E+03  0.66617687612E+02  0.63358503074E+03  0.77240116096E+03  0.00000000000E+00 0. -1.
<mgrwt>
<rscale>  4 0.40821565E+03</rscale>
<asrwt>0</asrwt>
<pdfrwt beam="1">  1       21 0.66465594E-01 0.40821565E+03</pdfrwt>
<pdfrwt beam="2">  1        2 0.17426964E+00 0.40821565E+03</pdfrwt>
<totfact> 0.52354875E+02</totfact>
</mgrwt>
</event>
<event>
 5    0  0.4115852E+000  0.2755239E+03  0.7546771E-02  0.1098159E+00
         -1   -1    0    0    0  501 -0.00000000000E+00  0.00000000000E+00  0.32178592537E+03  0.32178592537E+03  0.00000000000E+00 0.  1.
         21   -1    0    0  501  502  0.00000000000E+00 -0.00000000000E+00 -0.48192536902E+03  0.48192536902E+03  0.00000000000E+00 0. -1.
         25    1    1    2    0    0  0.20172611389E+02 -0.22221288461E+03  0.39883940643E+02  0.25884595624E+03  0.12500000000E+03 0.  0.
         21    1    1    2  503  502  0.95054075096E+01 -0.43068174195E+02 -0.26621606934E+03  0.26984479979E+03  0.00000000000E+00 0. -1.
         -1    1    1    2    0  503 -0.29678018899E+02  0.26528105881E+03  0.66192685044E+02  0.27502053836E+03  0.00000000000E+00 0.  1.
<mgrwt>
<rscale>  4 0.27552392E+03</rscale>
<asrwt>0</asrwt>
<pdfrwt beam="1">  1       21 0.74142364E-01 0.27552392E+03</pdfrwt>
<pdfrwt beam="2">  1       -1 0.49505527E-01 0.27552392E+03</pdfrwt>
<totfact> 0.60992301E+02</totfact>
</mgrwt>
</event>
<event>
 5    0  0.4115852E+000  0.4839930E+03  0.7546771E-02  0.1018044E+00
          1   -1    0    0  502    0 -0.00000000000E+00  0.00000000000E+00  0.85291491234E+03  0.85291491234E+03  0.00000000000E+00 0.  1.
         21   -1    0    0  503  502  0.00000000000E+00 -0.00000000000E+00 -0.51416784420E+03  0.51416784420E+03  0.00000000000E+00 0.  1.
         25    1    1    2    0    0  0.29536365991E+03  0.38745348164E+03 -0.23674743165E+03  0.55590848026E+03  0.12500000000E+03 0.  0.
         21    1    1    2  503  501 -0.79366391211E+02  0.23886633451E+02  0.16847250248E+02  0.84577923552E+02  0.00000000000E+00 0.  1.
          1    1    1    2  501    0 -0.21599726870E+03 -0.41134011509E+03  0.55864724954E+03  0.72659635273E+03  0.00000000000E+00 0.  1.
<mgrwt>
<rscale>  4 0.48399297E+03</rscale>
<asrwt>0</asrwt>
<pdfrwt beam="1">  1       21 0.79102745E-01 0.48399297E+03</pdfrwt>
<pdfrwt beam="2">  1        1 0.13121768E+00 0.48399297E+03</pdfrwt>
<totfact> 0.28977008E+02</totfact>
</mgrwt>
</event>
<event>
 5    0  0.4115852E+000  0.2991682E+03  0.7546771E-02  0.1085657E+00
          2   -1    0    0  502    0 -0.00000000000E+00  0.00000000000E+00  0.92512051740E+03  0.92512051740E+03  0.00000000000E+00 0. -1.
         21   -1    0    0  503  502  0.00000000000E+00 -0.00000000000E+00 -0.25702569929E+03  0.25702569929E+03  0.00000000000E+00 0.  1.
         25    1    1    2    0    0  0.23369421208E+03 -0.88871276695E+02 -0.14077215330E+03  0.31297426048E+03  0.12500000000E+03 0.  0.
         21    1    1    2  503  501  0.20414114311E+02 -0.13648835695E+02  0.13703901985E+02  0.28121587945E+02  0.00000000000E+00 0. -1.
          2    1    1    2  501    0 -0.25410832639E+03  0.10252011239E+03  0.79516306943E+03  0.84105036827E+03  0.00000000000E+00 0. -1.
<mgrwt>
<rscale>  4 0.29916824E+03</rscale>
<asrwt>0</asrwt>
<pdfrwt beam="1">  1       21 0.39542416E-01 0.29916824E+03</pdfrwt>
<pdfrwt beam="2">  1        2 0.14232623E+00 0.29916824E+03</pdfrwt>
<totfact> 0.21950035E+03</totfact>
</mgrwt>
</event>
<event>
 5    0  0.4115852E+000  0.2682161E+03  0.7546771E-02  0.1102305E+00
         21   -1    0    0  503  502  0.00000000000E+00  0.00000000000E+00  0.13134143458E+03  0.13134143458E+03  0.00000000000E+00 0.  1.
          2   -1    0    0  502    0 -0.00000000000E+00 -0.00000000000E+00 -0.15389385578E+04  0.15389385578E+04  0.00000000000E+00 0.  1.
         25    1    1    2    0    0 -0.18667782548E+03  0.90693662700E+02 -0.64368418415E+03  0.68777051398E+03  0.12500000000E+03 0.  0.
         21    1    1    2  503  501 -0.36967802984E+02  0.52890745865E+02  0.77077616652E+02  0.10052367107E+03  0.00000000000E+00 0.  1.
          2    1    1    2  501    0  0.22364562846E+03 -0.14358440857E+03 -0.84099055575E+03  0.88198580735E+03  0.00000000000E+00 0.  1.
<mgrwt>
<rscale>  4 0.26821614E+03</rscale>
<asrwt>0</asrwt>
<pdfrwt beam="1">  1       21 0.20206375E-01 0.26821614E+03</pdfrwt>
<pdfrwt beam="2">  1        2 0.23675978E+00 0.26821614E+03</pdfrwt>
<totfact> 0.36691663E+03</totfact>
</mgrwt>
</event>
<event>
 5    0  0.4115852E+000  0.3148992E+03  0.7546771E-02  0.1078021E+00
         21   -1    0    0  503  502  0.00000000000E+00  0.00000000000E+00  0.16356877656E+03  0.16356877656E+03  0.00000000000E+00 0. -1.
          1   -1    0    0  502    0 -0.00000000000E+00 -0.00000000000E+00 -0.73323807063E+03  0.73323807063E+03  0.00000000000E+00 0. -1.
         25    1    1    2    0    0 -0.19771266886E+03 -0.21106549710E+03 -0.93114430222E+02  0.32853346954E+03  0.12500000000E+03 0.  0.
         21    1    1    2  503  501  0.15353662700E+02 -0.13280318409E+02 -0.27055678552E+02  0.33824718140E+02  0.00000000000E+00 0. -1.
          1    1    1    2  501    0  0.18235900616E+03  0.22434581551E+03 -0.44949918530E+03  0.53444865951E+03  0.00000000000E+00 0. -1.
<mgrwt>
<rscale>  4 0.31489916E+03</rscale>
<asrwt>0</asrwt>
<pdfrwt beam="1">  1       21 0.25164428E-01 0.31489916E+03</pdfrwt>
<pdfrwt beam="2">  1        1 0.11280586E+00 0.31489916E+03</pdfrwt>
<totfact> 0.42334299E+03</totfact>
</mgrwt>
</event>
<event>
 5    0  0.4115852E+000  0.2401088E+03  0.7546771E-02  0.1119720E+00
         21   -1    0    0  503  502  0.00000000000E+00  0.00000000000E+00  0.76775771198E+03  0.76775771198E+03  0.00000000000E+00 0.  1.
          2   -1    0    0  502    0 -0.00000000000E+00 -0.00000000000E+00 -0.38982249079E+04  0.38982249079E+04  0.00000000000E+00 0.  1.
         25    1    1    2    0    0 -0.68553618696E+02 -0.21557362469E+03 -0.22707019234E+04  0.22853629496E+04  0.12500000000E+03 0.  0.
         21    1    1    2  503  501 -0.10945464973E+01  0.39626867931E+02  0.75437970561E+03  0.75542056295E+03  0.00000000000E+00 0.  1.
          2    1    1    2  501    0  0.69648165194E+02  0.17594675676E+03 -0.16141449782E+04  0.16251991074E+04  0.00000000000E+00 0.  1.
<mgrwt>
<rscale>  4 0.24010883E+03</rscale>
<asrwt>0</asrwt>
<pdfrwt beam="1">  1       21 0.11811657E+00 0.24010883E+03</pdfrwt>
<pdfrwt beam="2">  1        2 0.59972690E+00 0.24010883E+03</pdfrwt>
<totfact> 0.36662981E+00</totfact>
</mgrwt>
</event>
<event>
 5    0  0.4115852E+000  0.2703146E+03  0.7546771E-02  0.1101100E+00
          2   -1    0    0  502    0 -0.00000000000E+00  0.00000000000E+00  0.19824275450E+04  0.19824275450E+04  0.00000000000E+00 0.  1.
         21   -1    0    0  503  502  0.00000000000E+00 -0.00000000000E+00 -0.33887446086E+02  0.33887446086E+02  0.00000000000E+00 0.  1.
         25    1    1    2    0    0  0.12735141772E+03 -0.20304334368E+03  0.10522747051E+04  0.10864400756E+04  0.12500000000E+03 0.  0.
         21    1    1    2  503  501 -0.57401386983E-01  0.29047139594E+02  0.66641285588E+02  0.72696633748E+02  0.00000000000E+00 0.  1.
          2    1    1    2  501    0 -0.12729401633E+03  0.17399620409E+03  0.82962410829E+03  0.85717828174E+03  0.00000000000E+00 0.  1.
<mgrwt>
<rscale>  4 0.27031460E+03</rscale>
<asrwt>0</asrwt>
<pdfrwt beam="1">  1       21 0.52134548E-02 0.27031460E+03</pdfrwt>
<pdfrwt beam="2">  1        2 0.30498876E+00 0.27031460E+03</pdfrwt>
<totfact> 0.24115350E+04</totfact>
</mgrwt>
</event>
<event>
 5    0  0.4115852E+000  0.2651440E+03  0.7546771E-02  0.1104091E+00
          3   -1    0    0  502    0 -0.00000000000E+00  0.00000000000E+00  0.23486607558E+04  0.23486607558E+04  0.00000000000E+00 0. -1.
         21   -1    0    0  503  502  0.00000000000E+00 -0.00000000000E+00 -0.32446153720E+02  0.32446153720E+02  0.00000000000E+00 0.  1.
         25    1    1    2    0    0 -0.18907204409E+03 -0.15202953355E+03  0.13611160193E+04  0.13882085704E+04  0.12500000000E+03 0.  0.
         21    1    1    2  503  501  0.20624716287E+02  0.23383676206E+01  0.13620773305E+02  0.24826847373E+02  0.00000000000E+00 0.  1.
          3    1    1    2  501    0  0.16844732781E+03  0.14969116593E+03  0.94147780941E+03  0.96807149169E+03  0.00000000000E+00 0. -1.
<mgrwt>
<rscale>  4 0.26514400E+03</rscale>
<asrwt>0</asrwt>
<pdfrwt beam="1">  1       21 0.49917178E-02 0.26514400E+03</pdfrwt>
<pdfrwt beam="2">  1        3 0.36133229E+00 0.26514400E+03</pdfrwt>
<totfact> 0.28396890E+02</totfact>
</mgrwt>
</event>
<event>
 5    0  0.4115852E+000  0.2711484E+03  0.7546771E-02  0.1100624E+00
         21   -1    0    0  503  502  0.00000000000E+00  0.00000000000E+00  0.52666291489E+03  0.52666291489E+03  0.00000000000E+00 0.  1.
          2   -1    0    0  502    0 -0.00000000000E+00 -0.00000000000E+00 -0.11905469729E+04  0.11905469729E+04  0.00000000000E+00 0.  1.
         25    1    1    2    0    0 -0.18355790600E+03  0.11246901963E+03 -0.85328333366E+02  0.26315149573E+03  0.12500000000E+03 0.  0.
         21    1    1    2  503  501 -0.19314672102E+02  0.24630098149E+02  0.42241603348E+03  0.42357408281E+03  0.00000000000E+00 0.  1.
          2    1    1    2  501    0  0.20287257810E+03 -0.13709911778E+03 -0.10009717581E+04  0.10304843092E+04  0.00000000000E+00 0.  1.
<mgrwt>
<rscale>  4 0.27114845E+03</rscale>
<asrwt>0</asrwt>
<pdfrwt beam="1">  1       21 0.81025064E-01 0.27114845E+03</pdfrwt>
<pdfrwt beam="2">  1        2 0.18316107E+00 0.27114845E+03</pdfrwt>
<totfact> 0.32819576E+02</totfact>
</mgrwt>
</event>
<event>
 5    0  0.4115852E+000  0.3247278E+03  0.7546771E-02  0.1073494E+00
         21   -1    0    0  503  502  0.00000000000E+00  0.00000000000E+00  0.18176467254E+04  0.18176467254E+04  0.00000000000E+00 0. -1.
          2   -1    0    0  502    0 -0.00000000000E+00 -0.00000000000E+00 -0.67513622070E+03  0.67513622070E+03  0.00000000000E+00 0.  1.
         25    1    1    2    0    0 -0.16810088210E+03  0.20564759403E+03  0.13734854257E+04  0.14045056262E+04  0.12500000000E+03 0.  0.
         21    1    1    2  503  501 -0.38780350286E+02  0.12387086929E+02  0.39330720799E+03  0.39540854233E+03  0.00000000000E+00 0. -1.
          2    1    1    2  501    0  0.20688123239E+03 -0.21803468095E+03 -0.62428212895E+03  0.69286877758E+03  0.00000000000E+00 0.  1.
<mgrwt>
<rscale>  4 0.32472783E+03</rscale>
<asrwt>0</asrwt>
<pdfrwt beam="1">  1       21 0.27963796E+00 0.32472783E+03</pdfrwt>
<pdfrwt beam="2">  1        2 0.10386711E+00 0.32472783E+03</pdfrwt>
<totfact> 0.21586671E+01</totfact>
</mgrwt>
</event>
<event>
 5    0  0.4115852E+000  0.2681172E+03  0.7546771E-02  0.1102362E+00
          2   -1    0    0  502    0 -0.00000000000E+00  0.00000000000E+00  0.15984966904E+04  0.15984966904E+04  0.00000000000E+00 0. -1.
         21   -1    0    0  503  502  0.00000000000E+00 -0.00000000000E+00 -0.14609235513E+03  0.14609235513E+03  0.00000000000E+00 0.  1.
         25    1    1    2    0    0 -0.21270337538E+03 -0.23694140744E+03  0.11783007610E+04  0.12269480999E+04  0.12500000000E+03 0.  0.
         21    1    1    2  503  501  0.18183208986E+03  0.14040310859E+03  0.46734736514E+01  0.22977768203E+03  0.00000000000E+00 0.  1.
          2    1    1    2  501    0  0.30871285516E+02  0.96538298856E+02  0.26943010068E+03  0.28786326366E+03  0.00000000000E+00 0. -1.
<mgrwt>
<rscale>  4 0.26811718E+03</rscale>
<asrwt>0</asrwt>
<pdfrwt beam="1">  1       21 0.22475748E-01 0.26811718E+03</pdfrwt>
<pdfrwt beam="2">  1        2 0.24592256E+00 0.26811718E+03</pdfrwt>
<totfact> 0.27883453E+03</totfact>
</mgrwt>
</event>
<event>
 5    0  0.4115852E+000  0.2579017E+03  0.7546771E-02  0.1108411E+00
         21   -1    0    0  503  502  0.00000000000E+00  0.00000000000E+00  0.22010054924E+03  0.22010054924E+03  0.00000000000E+00 0.  1.
          1   -1    0    0  502    0 -0.00000000000E+00 -0.00000000000E+00 -0.41947963926E+03  0.41947963926E+03  0.00000000000E+00 0.  1.
         25    1    1    2    0    0 -0.13015356776E+03  0.15252567140E+03 -0.24845421911E+03  0.34286809509E+03  0.12500000000E+03 0.  0.
         21    1    1    2  503  501  0.11188664937E+03 -0.20643306452E+03  0.48652883983E+02  0.23979227584E+03  0.00000000000E+00 0.  1.
          1    1    1    2  501    0  0.18266918397E+02  0.53907393121E+02  0.42224511569E+00  0.56919817566E+02  0.00000000000E+00 0.  1.
<mgrwt>
<rscale>  4 0.25790166E+03</rscale>
<asrwt>0</asrwt>
<pdfrwt beam="1">  1       21 0.33861623E-01 0.25790166E+03</pdfrwt>
<pdfrwt beam="2">  1        1 0.64535329E-01 0.25790166E+03</pdfrwt>
<totfact> 0.51744337E+03</totfact>
</mgrwt>
</event>
<event>
 5    0  0.4115852E+000  0.2223891E+03  0.7546771E-02  0.1132114E+00
          1   -1    0    0  502    0 -0.00000000000E+00  0.00000000000E+00  0.27135077802E+04  0.27135077802E+04  0.00000000000E+00 0. -1.
         21   -1    0    0  503  502  0.00000000000E+00 -0.00000000000E+00 -0.22426039388E+03  0.22426039388E+03  0.00000000000E+00 0.  1.
         25    1    1    2    0    0 -0.21033846547E+03 -0.11257226624E+03  0.44136552144E+03  0.51705252025E+03  0.12500000000E+03 0.  0.
         21    1    1    2  503  501  0.50433307179E+02  0.32644094637E+02 -0.17789807663E+03  0.18776815773E+03  0.00000000000E+00 0.  1.
          1    1    1    2  501    0  0.15990515829E+03  0.79928171598E+02  0.22257799416E+04  0.22329474961E+04  0.00000000000E+00 0. -1.
<mgrwt>
<rscale>  4 0.22238907E+03</rscale>
<asrwt>0</asrwt>
<pdfrwt beam="1">  1       21 0.34501601E-01 0.22238907E+03</pdfrwt>
<pdfrwt beam="2">  1        1 0.41746271E+00 0.22238907E+03</pdfrwt>
<totfact> 0.10391868E+02</totfact>
</mgrwt>
</event>
<event>
 5    0  0.4115852E+000  0.4786378E+03  0.7546771E-02  0.1019510E+00
          2   -1    0    0  502    0 -0.00000000000E+00  0.00000000000E+00  0.36782542201E+04  0.36782542201E+04  0.00000000000E+00 0. -1.
         21   -1    0    0  503  502  0.00000000000E+00 -0.00000000000E+00 -0.33386771582E+03  0.33386771582E+03  0.00000000000E+00 0.  1.
         25    1    1    2    0    0 -0.26335231590E+03 -0.49842631826E+03  0.42131935728E+03  0.71478544882E+03  0.12500000000E+03 0.  0.
         21    1    1    2  503  501  0.88834126924E+02  0.82731505938E+02 -0.14909847584E+03  0.19226637688E+03  0.00000000000E+00 0.  1.
          2    1    1    2  501    0  0.17451818898E+03  0.41569481232E+03  0.30721656229E+04  0.31050701103E+04  0.00000000000E+00 0. -1.
<mgrwt>
<rscale>  4 0.47863783E+03</rscale>
<asrwt>0</asrwt>
<pdfrwt beam="1">  1       21 0.51364267E-01 0.47863783E+03</pdfrwt>
<pdfrwt beam="2">  1        2 0.56588524E+00 0.47863783E+03</pdfrwt>
<totfact> 0.29680612E+01</totfact>
</mgrwt>
</event>
<event>
 5    0  0.4115852E+000  0.2959714E+03  0.7546771E-02  0.1087272E+00
          1   -1    0    0  502    0 -0.00000000000E+00  0.00000000000E+00  0.10293380254E+04  0.10293380254E+04  0.00000000000E+00 0.  1.
         21   -1    0    0  503  502  0.00000000000E+00 -0.00000000000E+00 -0.55349877570E+03  0.55349877570E+03  0.00000000000E+00 0.  1.
         25    1    1    2    0    0  0.21729407773E+03  0.37147112104E+03 -0.24568784584E+02  0.44881637132E+03  0.12500000000E+03 0.  0.
         21    1    1    2  503  501 -0.86723995424E+02 -0.15326512190E+03 -0.27021153140E+03  0.32252987563E+03  0.00000000000E+00 0.  1.
          1    1    1    2  501    0 -0.13057008231E+03 -0.21820599914E+03  0.77061956568E+03  0.81149055415E+03  0.00000000000E+00 0.  1.
<mgrwt>
<rscale>  4 0.29597140E+03</rscale>
<asrwt>0</asrwt>
<pdfrwt beam="1">  1       21 0.85153658E-01 0.29597140E+03</pdfrwt>
<pdfrwt beam="2">  1        1 0.15835970E+00 0.29597140E+03</pdfrwt>
<totfact> 0.19090004E+02</totfact>
</mgrwt>
</event>
<event>
 5    0  0.4115852E+000  0.4284437E+03  0.7546771E-02  0.1034353E+00
          3   -1    0    0  502    0 -0.00000000000E+00  0.00000000000E+00  0.26959526730E+03  0.26959526730E+03  0.00000000000E+00 0.  1.
         21   -1    0    0  503  502  0.00000000000E+00 -0.00000000000E+00 -0.90760625676E+03  0.90760625676E+03  0.00000000000E+00 0. -1.
         25    1    1    2    0    0 -0.22465397651E+03 -0.35225575849E+03 -0.53080283299E+03  0.68697174328E+03  0.12500000000E+03 0.  0.
         21    1    1    2  503  501 -0.15331050905E+02  0.23361127960E+02 -0.77064120108E+02  0.81973544692E+02  0.00000000000E+00 0. -1.
          3    1    1    2  501    0  0.23998502742E+03  0.32889463053E+03 -0.30144036367E+02  0.40825623609E+03  0.00000000000E+00 0.  1.
<mgrwt>
<rscale>  4 0.42844374E+03</rscale>
<asrwt>0</asrwt>
<pdfrwt beam="1">  1       21 0.13963173E+00 0.42844374E+03</pdfrwt>
<pdfrwt beam="2">  1        3 0.41476195E-01 0.42844374E+03</pdfrwt>
<totfact> 0.95484463E+01</totfact>
</mgrwt>
</event>
<event>
 5    0  0.4115852E+000  0.2811535E+03  0.7546771E-02  0.1095061E+00
         21   -1    0    0  503  502  0.00000000000E+00  0.00000000000E+00  0.10023312165E+04  0.10023312165E+04  0.00000000000E+00 0.  1.
          4   -1    0    0  502    0 -0.00000000000E+00 -0.00000000000E+00 -0.11661246123E+04  0.11661246123E+04  0.00000000000E+00 0. -1.
         25    1    1    2    0    0 -0.25706411098E+03  0.28007163535E+03  0.35394597192E+03  0.53425165336E+03  0.12500000000E+03 0.  0.
         21    1    1    2  503  501  0.18205857248E+03 -0.12653977436E+03  0.52901331611E+03  0.57359631007E+03  0.00000000000E+00 0.  1.
          4    1    1    2  501    0  0.75005538497E+02 -0.15353186099E+03 -0.10467526838E+04  0.10606078654E+04  0.00000000000E+00 0. -1.
<mgrwt>
<rscale>  4 0.28115355E+03</rscale>
<asrwt>0</asrwt>
<pdfrwt beam="1">  1       21 0.15420480E+00 0.28115355E+03</pdfrwt>
<pdfrwt beam="2">  1        4 0.17940379E+00 0.28115355E+03</pdfrwt>
<totfact> 0.21692476E+00</totfact>
</mgrwt>
</event>
<event>
 5    0  0.4115852E+000  0.2580689E+03  0.7546771E-02  0.1108309E+00
          1   -1    0    0  502    0 -0.00000000000E+00  0.00000000000E+00  0.40032570017E+04  0.40032570017E+04  0.00000000000E+00 0.  1.
         21   -1    0    0  503  502  0.00000000000E+00 -0.00000000000E+00 -0.47576012721E+02  0.47576012721E+02  0.00000000000E+00 0.  1.
         25    1    1    2    0    0 -0.25275003902E+02 -0.23059697655E+03  0.49766638628E+03  0.56312576167E+03  0.12500000000E+03 0.  0.
         21    1    1    2  503  501  0.28453568000E+02  0.53628106689E+01  0.75834740132E+01  0.29931160157E+02  0.00000000000E+00 0.  1.
          1    1    1    2  501    0 -0.31785640987E+01  0.22523416588E+03  0.34504311287E+04  0.34577760926E+04  0.00000000000E+00 0.  1.
<mgrwt>
<rscale>  4 0.25806886E+03</rscale>
<asrwt>0</asrwt>
<pdfrwt beam="1">  1       21 0.73193897E-02 0.25806886E+03</pdfrwt>
<pdfrwt beam="2">  1        1 0.61588543E+00 0.25806886E+03</pdfrwt>
<totfact> 0.19540201E+02</totfact>
</mgrwt>
</event>
<event>
 5    0  0.4115852E+000  0.2413414E+03  0.7546771E-02  0.1118902E+00
          1   -1    0    0  502    0 -0.00000000000E+00  0.00000000000E+00  0.47987921308E+03  0.47987921308E+03  0.00000000000E+00 0.  1.
         21   -1    0    0  503  502  0.00000000000E+00 -0.00000000000E+00 -0.13414872779E+04  0.13414872779E+04  0.00000000000E+00 0. -1.
         25    1    1    2    0    0 -0.23448541435E+03 -0.51821003638E+02 -0.10270677056E+04  0.10621496589E+04  0.12500000000E+03 0.  0.
         21    1    1    2  503  501  0.34359643480E+02  0.42216883335E+01 -0.27284914802E+03  0.27503648000E+03  0.00000000000E+00 0. -1.
          1    1    1    2  501    0  0.20012577087E+03  0.47599315304E+02  0.43830878883E+03  0.48418035209E+03  0.00000000000E+00 0.  1.
<mgrwt>
<rscale>  4 0.24134141E+03</rscale>
<asrwt>0</asrwt>
<pdfrwt beam="1">  1       21 0.20638265E+00 0.24134141E+03</pdfrwt>
<pdfrwt beam="2">  1        1 0.73827573E-01 0.24134141E+03</pdfrwt>
<totfact> 0.61556563E+01</totfact>
</mgrwt>
</event>
<event>
 5    0  0.4115852E+000  0.3078757E+03  0.7546771E-02  0.1081369E+00
         21   -1    0    0  503  502  0.00000000000E+00  0.00000000000E+00  0.54857506316E+03  0.54857506316E+03  0.00000000000E+00 0.  1.
          2   -1    0    0  502    0 -0.00000000000E+00 -0.00000000000E+00 -0.10029167582E+04  0.10029167582E+04  0.00000000000E+00 0. -1.
         25    1    1    2    0    0  0.68574579348E+02  0.30143112345E+03  0.42495122641E+03  0.54015899506E+03  0.12500000000E+03 0.  0.
         21    1    1    2  503  501 -0.18213766910E+02 -0.25826392954E+02  0.39607491850E+02  0.50670477486E+02  0.00000000000E+00 0.  1.
          2    1    1    2  501    0 -0.50360812439E+02 -0.27560473050E+03 -0.91890041331E+03  0.96066234884E+03  0.00000000000E+00 0. -1.
<mgrwt>
<rscale>  4 0.30787569E+03</rscale>
<asrwt>0</asrwt>
<pdfrwt beam="1">  1       21 0.84396164E-01 0.30787569E+03</pdfrwt>
<pdfrwt beam="2">  1        2 0.15429489E+00 0.30787569E+03</pdfrwt>
<totfact> 0.37900465E+02</totfact>
</mgrwt>
</event>
<event>
 5    0  0.4115852E+000  0.2760892E+03  0.7546771E-02  0.1097844E+00
         21   -1    0    0  503  502  0.00000000000E+00  0.00000000000E+00  0.14713486605E+03  0.14713486605E+03  0.00000000000E+00 0.  1.
          2   -1    0    0  502    0 -0.00000000000E+00 -0.00000000000E+00 -0.92102094265E+03  0.92102094265E+03  0.00000000000E+00 0. -1.
         25    1    1    2    0    0 -0.17006342088E+03 -0.10758108293E+03 -0.27711803405E+02  0.23851247467E+03  0.12500000000E+03 0.  0.
         21    1    1    2  503  501 -0.43938421492E+02 -0.31879729884E+02 -0.16785623891E+02  0.56821292049E+02  0.00000000000E+00 0.  1.
          2    1    1    2  501    0  0.21400184237E+03  0.13946081281E+03 -0.72938864930E+03  0.77282204199E+03  0.00000000000E+00 0. -1.
<mgrwt>
<rscale>  4 0.27608917E+03</rscale>
<asrwt>0</asrwt>
<pdfrwt beam="1">  1       21 0.22636133E-01 0.27608917E+03</pdfrwt>
<pdfrwt beam="2">  1        2 0.14169553E+00 0.27608917E+03</pdfrwt>
<totfact> 0.66646676E+03</totfact>
</mgrwt>
</event>
<event>
 5    0  0.4115852E+000  0.4444336E+03  0.7546771E-02  0.1029395E+00
         21   -1    0    0  503  502  0.00000000000E+00  0.00000000000E+00  0.18193045297E+03  0.18193045297E+03  0.00000000000E+00 0.  1.
          2   -1    0    0  502    0 -0.00000000000E+00 -0.00000000000E+00 -0.18140635637E+04  0.18140635637E+04  0.00000000000E+00 0.  1.
         25    1    1    2    0    0 -0.29420873946E+03  0.30605023103E+03 -0.22636122095E+03  0.49708141047E+03  0.12500000000E+03 0.  0.
         21    1    1    2  503  501 -0.27217868194E+02 -0.24568835840E+02 -0.83108307159E+01  0.37596674730E+02  0.00000000000E+00 0.  1.
          2    1    1    2  501    0  0.32142660766E+03 -0.28148139519E+03 -0.13974610591E+04  0.14613159315E+04  0.00000000000E+00 0.  1.
<mgrwt>
<rscale>  4 0.44443356E+03</rscale>
<asrwt>0</asrwt>
<pdfrwt beam="1">  1       21 0.27989301E-01 0.44443356E+03</pdfrwt>
<pdfrwt beam="2">  1        2 0.27908670E+00 0.44443356E+03</pdfrwt>
<totfact> 0.13210239E+03</totfact>
</mgrwt>
</event>
<event>
 5    0  0.4115852E+000  0.1822678E+03  0.7546771E-02  0.1165626E+00
         21   -1    0    0  503  502  0.00000000000E+00  0.00000000000E+00  0.10649601517E+04  0.10649601517E+04  0.00000000000E+00 0. -1.
          2   -1    0    0  502    0 -0.00000000000E+00 -0.00000000000E+00 -0.18974784840E+04  0.18974784840E+04  0.00000000000E+00 0. -1.
         25    1    1    2    0    0  0.17793125668E+03  0.10903915232E+03 -0.16981232622E+04  0.17154581553E+04  0.12500000000E+03 0.  0.
         21    1    1    2  503  501 -0.13249549081E+03 -0.31617973782E+01  0.10342661983E+04  0.10427231756E+04  0.00000000000E+00 0. -1.
          2    1    1    2  501    0 -0.45435765862E+02 -0.10587735494E+03 -0.16866126838E+03  0.20425730479E+03  0.00000000000E+00 0. -1.
<mgrwt>
<rscale>  4 0.18226778E+03</rscale>
<asrwt>0</asrwt>
<pdfrwt beam="1">  1       21 0.16384002E+00 0.18226778E+03</pdfrwt>
<pdfrwt beam="2">  1        2 0.29191976E+00 0.18226778E+03</pdfrwt>
<totfact> 0.26059671E+01</totfact>
</mgrwt>
</event>
<event>
 5    0  0.4115852E+000  0.3008946E+03  0.7546771E-02  0.1084794E+00
         21   -1    0    0  503  502  0.00000000000E+00  0.00000000000E+00  0.30249017139E+03  0.30249017139E+03  0.00000000000E+00 0. -1.
          1   -1    0    0  502    0 -0.00000000000E+00 -0.00000000000E+00 -0.39015378588E+04  0.39015378588E+04  0.00000000000E+00 0. -1.
         25    1    1    2    0    0 -0.47632342765E+03  0.97875647854E+01 -0.38193309143E+03  0.62327978507E+03  0.12500000000E+03 0.  0.
         21    1    1    2  503  501  0.21896428249E+03  0.54649964840E+02  0.10439715075E+03  0.24865787892E+03  0.00000000000E+00 0. -1.
          1    1    1    2  501    0  0.25735914515E+03 -0.64437529625E+02 -0.33215117468E+04  0.33320903662E+04  0.00000000000E+00 0. -1.
<mgrwt>
<rscale>  4 0.30089465E+03</rscale>
<asrwt>0</asrwt>
<pdfrwt beam="1">  1       21 0.46536952E-01 0.30089465E+03</pdfrwt>
<pdfrwt beam="2">  1        1 0.60023656E+00 0.30089465E+03</pdfrwt>
<totfact> 0.70466903E+00</totfact>
</mgrwt>
</event>
<event>
 5    0  0.4115852E+000  0.3397678E+03  0.7546771E-02  0.1066895E+00
         21   -1    0    0  503  502  0.00000000000E+00  0.00000000000E+00  0.38773991475E+03  0.38773991475E+03  0.00000000000E+00 0. -1.
          1   -1    0    0  502    0 -0.00000000000E+00 -0.00000000000E+00 -0.86845727189E+03  0.86845727189E+03  0.00000000000E+00 0. -1.
         25    1    1    2    0    0  0.38996684412E+03 -0.11255675874E+03  0.23560214583E+02  0.42535073429E+03  0.12500000000E+03 0.  0.
         21    1    1    2  503  501 -0.10218183470E+03  0.21546903175E+02  0.10675003862E+03  0.14933508336E+03  0.00000000000E+00 0. -1.
          1    1    1    2  501    0 -0.28778500942E+03  0.91009855564E+02 -0.61102761034E+03  0.68151136899E+03  0.00000000000E+00 0. -1.
<mgrwt>
<rscale>  4 0.33976782E+03</rscale>
<asrwt>0</asrwt>
<pdfrwt beam="1">  1       21 0.59652294E-01 0.33976782E+03</pdfrwt>
<pdfrwt beam="2">  1        1 0.13360881E+00 0.33976782E+03</pdfrwt>
<totfact> 0.55412056E+02</totfact>
</mgrwt>
</event>
<event>
 5    0  0.4115852E+000  0.3573207E+03  0.7546771E-02  0.1059650E+00
          1   -1    0    0  502    0 -0.00000000000E+00  0.00000000000E+00  0.13258633624E+04  0.13258633624E+04  0.00000000000E+00 0.  1.
         21   -1    0    0  503  502  0.00000000000E+00 -0.00000000000E+00 -0.43411226994E+03  0.43411226994E+03  0.00000000000E+00 0.  1.
         25    1    1    2    0    0  0.40034064745E+03  0.25402455585E+03  0.31637550831E+03  0.58354054806E+03  0.12500000000E+03 0.  0.
         21    1    1    2  503  501 -0.18259596813E+03 -0.37137259184E+02 -0.24070660123E+03  0.30440126720E+03  0.00000000000E+00 0.  1.
          1    1    1    2  501    0 -0.21774467932E+03 -0.21688729666E+03  0.81608218538E+03  0.87203381707E+03  0.00000000000E+00 0.  1.
<mgrwt>
<rscale>  4 0.35732069E+03</rscale>
<asrwt>0</asrwt>
<pdfrwt beam="1">  1       21 0.66786503E-01 0.35732069E+03</pdfrwt>
<pdfrwt beam="2">  1        1 0.20397898E+00 0.35732069E+03</pdfrwt>
<totfact> 0.19783963E+02</totfact>
</mgrwt>
</event>
<event>
 5    0  0.4115852E+000  0.2676454E+03  0.7546771E-02  0.1102635E+00
         21   -1    0    0  503  502  0.00000000000E+00  0.00000000000E+00  0.34126088151E+03  0.34126088151E+03  0.00000000000E+00 0. -1.
          1   -1    0    0  502    0 -0.00000000000E+00 -0.00000000000E+00 -0.54157708743E+03  0.54157708743E+03  0.00000000000E+00 0. -1.
         25    1    1    2    0    0 -0.27558817193E+03  0.37333088358E+02  0.53009873839E+02  0.30947963862E+03  0.12500000000E+03 0.  0.
         21    1    1    2  503  501  0.50863892060E+02  0.86701810352E+01  0.12257714987E+03  0.13299423005E+03  0.00000000000E+00 0. -1.
          1    1    1    2  501    0  0.22472427987E+03 -0.46003269393E+02 -0.37590322964E+03  0.44036410027E+03  0.00000000000E+00 0. -1.
<mgrwt>
<rscale>  4 0.26764539E+03</rscale>
<asrwt>0</asrwt>
<pdfrwt beam="1">  1       21 0.52501674E-01 0.26764539E+03</pdfrwt>
<pdfrwt beam="2">  1        1 0.83319552E-01 0.26764539E+03</pdfrwt>
<totfact> 0.14965519E+03</totfact>
</mgrwt>
</event>
<event>
 5    0  0.4115852E+000  0.3108227E+03  0.7546771E-02  0.1079952E+00
          3   -1    0    0  502    0 -0.00000000000E+00  0.00000000000E+00  0.71719067487E+03  0.71719067487E+03  0.00000000000E+00 0. -1.
         21   -1    0    0  503  502  0.00000000000E+00 -0.00000000000E+00 -0.19785462464E+03  0.19785462464E+03  0.00000000000E+00 0. -1.
         25    1    1    2    0    0  0.68907108668E+02  0.23402045608E+03  0.70386521363E+02  0.28300711277E+03  0.12500000000E+03 0.  0.
         21    1    1    2  503  501  0.45591056240E+01  0.58101068536E+02 -0.30531173203E+02  0.65792645078E+02  0.00000000000E+00 0. -1.
          3    1    1    2  501    0 -0.73466214292E+02 -0.29212152462E+03  0.47948070207E+03  0.56624554166E+03  0.00000000000E+00 0. -1.
<mgrwt>
<rscale>  4 0.31082273E+03</rscale>
<asrwt>0</asrwt>
<pdfrwt beam="1">  1       21 0.30439174E-01 0.31082273E+03</pdfrwt>
<pdfrwt beam="2">  1        3 0.11033703E+00 0.31082273E+03</pdfrwt>
<totfact> 0.36222529E+02</totfact>
</mgrwt>
</event>
<event>
 5    0  0.4115852E+000  0.2594227E+03  0.7546771E-02  0.1107491E+00
         21   -1    0    0  503  502  0.00000000000E+00  0.00000000000E+00  0.66411140939E+02  0.66411140939E+02  0.00000000000E+00 0. -1.
          2   -1    0    0  502    0 -0.00000000000E+00 -0.00000000000E+00 -0.10116106009E+04  0.10116106009E+04  0.00000000000E+00 0.  1.
         25    1    1    2    0    0  0.99864680754E+02  0.21096896868E+03 -0.48728697548E+03  0.55457592508E+03  0.12500000000E+03 0.  0.
         21    1    1    2  503  501 -0.26295921972E+02 -0.44474925325E+00 -0.24112816716E+02  0.35680544338E+02  0.00000000000E+00 0.  1.
          2    1    1    2  501    0 -0.73568758782E+02 -0.21052421942E+03 -0.43379966781E+03  0.48776527246E+03  0.00000000000E+00 0.  1.
<mgrwt>
<rscale>  4 0.25942272E+03</rscale>
<asrwt>0</asrwt>
<pdfrwt beam="1">  1       21 0.10217100E-01 0.25942272E+03</pdfrwt>
<pdfrwt beam="2">  1        2 0.15563239E+00 0.25942272E+03</pdfrwt>
<totfact> 0.25349809E+04</totfact>
</mgrwt>
</event>
<event>
 5    0  0.4115852E+000  0.2679441E+03  0.7546771E-02  0.1102462E+00
         -3   -1    0    0    0  501 -0.00000000000E+00  0.00000000000E+00  0.27608886546E+03  0.27608886546E+03  0.00000000000E+00 0. -1.
         21   -1    0    0  501  502  0.00000000000E+00 -0.00000000000E+00 -0.28955210595E+03  0.28955210595E+03  0.00000000000E+00 0. -1.
         25    1    1    2    0    0  0.22236812454E+03  0.89538576307E+02  0.71600590020E+02  0.27967192199E+03  0.12500000000E+03 0.  0.
         21    1    1    2  503  502  0.59954318489E+01 -0.35627821321E+02 -0.24454009947E+02  0.43626659941E+02  0.00000000000E+00 0. -1.
         -3    1    1    2    0  503 -0.22836355639E+03 -0.53910754986E+02 -0.60609820564E+02  0.24234238948E+03  0.00000000000E+00 0. -1.
<mgrwt>
<rscale>  4 0.26794407E+03</rscale>
<asrwt>0</asrwt>
<pdfrwt beam="1">  1       21 0.44546478E-01 0.26794407E+03</pdfrwt>
<pdfrwt beam="2">  1       -3 0.42475210E-01 0.26794407E+03</pdfrwt>
<totfact> 0.13103520E+03</totfact>
</mgrwt>
</event>
<event>
 5    0  0.4115852E+000  0.3109160E+03  0.7546771E-02  0.1079908E+00
          4   -1    0    0  502    0 -0.00000000000E+00  0.00000000000E+00  0.72606141839E+03  0.72606141839E+03  0.00000000000E+00 0. -1.
         21   -1    0    0  503  502  0.00000000000E+00 -0.00000000000E+00 -0.36273301234E+03  0.36273301234E+03  0.00000000000E+00 0. -1.
         25    1    1    2    0    0 -0.25444105918E+03  0.10681514901E+03  0.14891599274E+03  0.33756584773E+03  0.12500000000E+03 0.  0.
         21    1    1    2  503  501  0.25053387134E+03 -0.14189987546E+03 -0.19020069694E+03  0.34507839756E+03  0.00000000000E+00 0. -1.
          4    1    1    2  501    0  0.39071878429E+01  0.35084726447E+02  0.40461311026E+03  0.40615018545E+03  0.00000000000E+00 0. -1.
<mgrwt>
<rscale>  4 0.31091603E+03</rscale>
<asrwt>0</asrwt>
<pdfrwt beam="1">  1       21 0.55805079E-01 0.31091603E+03</pdfrwt>
<pdfrwt beam="2">  1        4 0.11170176E+00 0.31091603E+03</pdfrwt>
<totfact> 0.81490595E+01</totfact>
</mgrwt>
</event>
<event>
 5    0  0.4115852E+000  0.2430550E+03  0.7546771E-02  0.1117774E+00
         21   -1    0    0  503  502  0.00000000000E+00  0.00000000000E+00  0.26083563629E+03  0.26083563629E+03  0.00000000000E+00 0. -1.
          1   -1    0    0  502    0 -0.00000000000E+00 -0.00000000000E+00 -0.16090448791E+04  0.16090448791E+04  0.00000000000E+00 0. -1.
         25    1    1    2    0    0  0.18018754178E+03 -0.14946859739E+03  0.13814906311E+03  0.29919654987E+03  0.12500000000E+03 0.  0.
         21    1    1    2  503  501 -0.18060433934E+02  0.19774442403E+02  0.29979011698E+02  0.40198868001E+02  0.00000000000E+00 0. -1.
          1    1    1    2  501    0 -0.16212710785E+03  0.12969415499E+03 -0.15163373176E+04  0.15304850975E+04  0.00000000000E+00 0. -1.
<mgrwt>
<rscale>  4 0.24305496E+03</rscale>
<asrwt>0</asrwt>
<pdfrwt beam="1">  1       21 0.40128561E-01 0.24305496E+03</pdfrwt>
<pdfrwt beam="2">  1        1 0.24754536E+00 0.24305496E+03</pdfrwt>
<totfact> 0.39910242E+02</totfact>
</mgrwt>
</event>
<event>
 5    0  0.4115852E+000  0.2754519E+03  0.7546771E-02  0.1098199E+00
          2   -1    0    0  502    0 -0.00000000000E+00  0.00000000000E+00  0.21830691512E+04  0.21830691512E+04  0.00000000000E+00 0.  1.
         21   -1    0    0  503  502  0.00000000000E+00 -0.00000000000E+00 -0.90119091979E+02  0.90119091979E+02  0.00000000000E+00 0.  1.
         25    1    1    2    0    0  0.23238332324E+03 -0.21486083943E+03  0.40032532611E+03  0.52540703837E+03  0.12500000000E+03 0.  0.
         21    1    1    2  503  501 -0.47737357333E+02  0.68105182191E+02  0.71769015609E+02  0.10985427952E+03  0.00000000000E+00 0.  1.
          2    1    1    2  501    0 -0.18464596591E+03  0.14675565723E+03  0.16208557175E+04  0.16379269253E+04  0.00000000000E+00 0.  1.
<mgrwt>
<rscale>  4 0.27545191E+03</rscale>
<asrwt>0</asrwt>
<pdfrwt beam="1">  1       21 0.13864477E-01 0.27545191E+03</pdfrwt>
<pdfrwt beam="2">  1        2 0.33585675E+00 0.27545191E+03</pdfrwt>
<totfact> 0.33606468E+03</totfact>
</mgrwt>
</event>
<event>
 5    0  0.4115852E+000  0.6989786E+03  0.7546771E-02  0.9718980E-01
          2   -1    0    0  502    0 -0.00000000000E+00  0.00000000000E+00  0.29810791259E+04  0.29810791259E+04  0.00000000000E+00 0.  1.
         21   -1    0    0  503  502  0.00000000000E+00 -0.00000000000E+00 -0.31054018709E+03  0.31054018709E+03  0.00000000000E+00 0.  1.
         25    1    1    2    0    0 -0.64474458969E+03  0.14061945949E+03  0.73596754230E+03  0.99636471316E+03  0.12500000000E+03 0.  0.
         21    1    1    2  503  501 -0.43640436181E+02 -0.12465575185E+02 -0.11805701414E+03  0.12648057884E+03  0.00000000000E+00 0. -1.
          2    1    1    2  501    0  0.68838502587E+03 -0.12815388431E+03  0.20526284107E+04  0.21687740210E+04  0.00000000000E+00 0.  1.
<mgrwt>
<rscale>  4 0.69897865E+03</rscale>
<asrwt>0</asrwt>
<pdfrwt beam="1">  1       21 0.47775415E-01 0.69897865E+03</pdfrwt>
<pdfrwt beam="2">  1        2 0.45862754E+00 0.69897865E+03</pdfrwt>
<totfact> 0.91244026E+01</totfact>
</mgrwt>
</event>
<event>
 5    0  0.4115852E+000  0.3314548E+03  0.7546771E-02  0.1070495E+00
          2   -1    0    0  502    0 -0.00000000000E+00  0.00000000000E+00  0.70376857775E+03  0.70376857775E+03  0.00000000000E+00 0.  1.
         21   -1    0    0  503  502  0.00000000000E+00 -0.00000000000E+00 -0.25422645629E+03  0.25422645629E+03  0.00000000000E+00 0.  1.
         25    1    1    2    0    0  0.28617600916E+03 -0.11207399366E+03  0.23630378022E+03  0.40733495409E+03  0.12500000000E+03 0.  0.
         21    1    1    2  503  501 -0.31490379773E+03 -0.74033282345E+01  0.12428940263E+02  0.31523592697E+03  0.00000000000E+00 0.  1.
          2    1    1    2  501    0  0.28727788569E+02  0.11947732190E+03  0.20080940098E+03  0.23542415298E+03  0.00000000000E+00 0.  1.
<mgrwt>
<rscale>  4 0.33145477E+03</rscale>
<asrwt>0</asrwt>
<pdfrwt beam="1">  1       21 0.39111763E-01 0.33145477E+03</pdfrwt>
<pdfrwt beam="2">  1        2 0.10827209E+00 0.33145477E+03</pdfrwt>
<totfact> 0.31678469E+03</totfact>
</mgrwt>
</event>
<event>
 5    0  0.4115852E+000  0.2469561E+03  0.7546771E-02  0.1115244E+00
          2   -1    0    0  502    0 -0.00000000000E+00  0.00000000000E+00  0.15664460149E+04  0.15664460149E+04  0.00000000000E+00 0.  1.
         21   -1    0    0  503  502  0.00000000000E+00 -0.00000000000E+00 -0.13311824104E+03  0.13311824104E+03  0.00000000000E+00 0.  1.
         25    1    1    2    0    0  0.22779642721E+03 -0.12190198560E+03  0.11019151546E+04  0.11386805146E+04  0.12500000000E+03 0.  0.
         21    1    1    2  503  501 -0.16825003132E+03  0.12440255452E+03 -0.14619595441E+02  0.20975652834E+03  0.00000000000E+00 0.  1.
          2    1    1    2  501    0 -0.59546395881E+02 -0.25005689132E+01  0.34603221466E+03  0.35112721298E+03  0.00000000000E+00 0.  1.
<mgrwt>
<rscale>  4 0.24695607E+03</rscale>
<asrwt>0</asrwt>
<pdfrwt beam="1">  1       21 0.20479730E-01 0.24695607E+03</pdfrwt>
<pdfrwt beam="2">  1        2 0.24099168E+00 0.24695607E+03</pdfrwt>
<totfact> 0.34874265E+03</totfact>
</mgrwt>
</event>
