<event>
 5    0  0.3748990E+001  0.3517998E+03  0.7546771E-02  0.1061879E+00
         21   -1    0    0  503  501  0.00000000000E+00  0.00000000000E+00  0.63056012419E+03  0.63056012419E+03  0.00000000000E+00 0.  1.
         21   -1    0    0  504  502 -0.00000000000E+00 -0.00000000000E+00 -0.23309257561E+03  0.23309257561E+03  0.00000000000E+00 0.  1.
         25    1    1    2    0    0  0.23217619965E+03  0.22134797517E+03  0.64861258362E+02  0.35033226605E+03  0.12500000000E+03 0.  0.
         21    1    1    2  503  502 -0.23338530761E+03 -0.25012103893E+03  0.24412164645E+03  0.42026731277E+03  0.00000000000E+00 0.  1.
         21    1    1    2  504  501  0.12091079584E+01  0.28773063756E+02  0.88484643768E+02  0.93053120973E+02  0.00000000000E+00 0. -1.
<mgrwt>
<rscale>  4 0.35179976E+03</rscale>
<asrwt>0</asrwt>
<pdfrwt beam="1">  1       21 0.97009249E-01 0.35179976E+03</pdfrwt>
<pdfrwt beam="2">  1       21 0.35860396E-01 0.35179976E+03</pdfrwt>
<totfact> 0.60418525E+03</totfact>
</mgrwt>
</event>
<event>
 5    0  0.1911311E+001  0.2971316E+03  0.7546771E-02  0.1086683E+00
         21   -1    0    0  502  501  0.00000000000E+00  0.00000000000E+00  0.69443371030E+03  0.69443371030E+03  0.00000000000E+00 0. -1.
         21   -1    0    0  504  502 -0.00000000000E+00 -0.00000000000E+00 -0.34278125602E+03  0.34278125602E+03  0.00000000000E+00 0. -1.
         25    1    1    2    0    0 -0.85869020659E+02  0.25076767227E+03  0.44016660251E+03  0.52880010603E+03  0.12500000000E+03 0.  0.
         21    1    1    2  503  501 -0.31780426845E+02 -0.73617122337E+01  0.14656716821E+03  0.15015367174E+03  0.00000000000E+00 0. -1.
         21    1    1    2  504  503  0.11764944750E+03 -0.24340596004E+03 -0.23508131645E+03  0.35826118855E+03  0.00000000000E+00 0. -1.
<mgrwt>
<rscale>  4 0.29713159E+03</rscale>
<asrwt>0</asrwt>
<pdfrwt beam="1">  1       21 0.10683595E+00 0.29713159E+03</pdfrwt>
<pdfrwt beam="2">  1       21 0.52735578E-01 0.29713159E+03</pdfrwt>
<totfact> 0.22126313E+03</totfact>
</mgrwt>
</event>
<event>
 5    0  0.1911311E+001  0.2381912E+03  0.7546771E-02  0.1121004E+00
         21   -1    0    0  504  501  0.00000000000E+00  0.00000000000E+00  0.73144625433E+03  0.73144625433E+03  0.00000000000E+00 0.  1.
         21   -1    0    0  503  502 -0.00000000000E+00 -0.00000000000E+00 -0.13132592662E+03  0.13132592662E+03  0.00000000000E+00 0.  1.
         25    1    1    2    0    0 -0.14564638578E+02  0.20665431386E+03  0.17910884018E+03  0.30103672660E+03  0.12500000000E+03 0.  0.
         21    1    1    2  503  501  0.63558090461E+02 -0.19221090919E+03  0.81228379557E+02  0.21813462384E+03  0.00000000000E+00 0.  1.
         21    1    1    2  504  502 -0.48993451883E+02 -0.14443404670E+02  0.33978310797E+03  0.34360083051E+03  0.00000000000E+00 0. -1.
<mgrwt>
<rscale>  4 0.23819117E+03</rscale>
<asrwt>0</asrwt>
<pdfrwt beam="1">  1       21 0.11253019E+00 0.23819117E+03</pdfrwt>
<pdfrwt beam="2">  1       21 0.20203989E-01 0.23819117E+03</pdfrwt>
<totfact> 0.13602509E+04</totfact>
</mgrwt>
</event>
<event>
 5    0  0.1911311E+001  0.2319970E+03  0.7546771E-02  0.1125242E+00
         21   -1    0    0  502  501  0.00000000000E+00  0.00000000000E+00  0.17254024757E+04  0.17254024757E+04  0.00000000000E+00 0.  1.
         21   -1    0    0  504  502 -0.00000000000E+00 -0.00000000000E+00 -0.36301436647E+02  0.36301436647E+02  0.00000000000E+00 0.  1.
         25    1    1    2    0    0  0.14885110364E+03  0.15021574924E+03  0.84759907213E+03  0.88247980682E+03  0.12500000000E+03 0.  0.
         21    1    1    2  503  501 -0.17194164725E+02 -0.17845052316E+02  0.38807646791E+03  0.38886685400E+03  0.00000000000E+00 0.  1.
         21    1    1    2  504  503 -0.13165693892E+03 -0.13237069693E+03  0.45342549904E+03  0.49035725155E+03  0.00000000000E+00 0.  1.
<mgrwt>
<rscale>  4 0.23199704E+03</rscale>
<asrwt>0</asrwt>
<pdfrwt beam="1">  1       21 0.26544647E+00 0.23199704E+03</pdfrwt>
<pdfrwt beam="2">  1       21 0.55848377E-02 0.23199704E+03</pdfrwt>
<totfact> 0.11617042E+04</totfact>
</mgrwt>
</event>
<event>
 5    0  0.1911311E+001  0.2312136E+03  0.7546771E-02  0.1125789E+00
         21   -1    0    0  504  501  0.00000000000E+00  0.00000000000E+00  0.60288233038E+03  0.60288233038E+03  0.00000000000E+00 0.  1.
         21   -1    0    0  503  502 -0.00000000000E+00 -0.00000000000E+00 -0.21021548582E+03  0.21021548582E+03  0.00000000000E+00 0.  1.
         25    1    1    2    0    0 -0.16821299785E+03 -0.10841222148E+03  0.64677647397E+02  0.24465694449E+03  0.12500000000E+03 0.  0.
         21    1    1    2  503  501 -0.20456671708E+02  0.58830782026E+02 -0.88679388060E+02  0.10836775442E+03  0.00000000000E+00 0.  1.
         21    1    1    2  504  502  0.18866966956E+03  0.49581439450E+02  0.41666858522E+03  0.46007311730E+03  0.00000000000E+00 0.  1.
<mgrwt>
<rscale>  4 0.23121357E+03</rscale>
<asrwt>0</asrwt>
<pdfrwt beam="1">  1       21 0.92751127E-01 0.23121357E+03</pdfrwt>
<pdfrwt beam="2">  1       21 0.32340844E-01 0.23121357E+03</pdfrwt>
<totfact> 0.87793005E+03</totfact>
</mgrwt>
</event>
<event>
 5    0  0.1911311E+001  0.3368103E+03  0.7546771E-02  0.1068163E+00
         21   -1    0    0  502  501  0.00000000000E+00  0.00000000000E+00  0.12394590525E+03  0.12394590525E+03  0.00000000000E+00 0. -1.
         21   -1    0    0  504  502 -0.00000000000E+00 -0.00000000000E+00 -0.14030429102E+04  0.14030429102E+04  0.00000000000E+00 0. -1.
         25    1    1    2    0    0  0.29370682346E+03 -0.21507936333E+03 -0.57860501435E+03  0.69493279769E+03  0.12500000000E+03 0.  0.
         21    1    1    2  503  501 -0.68590852317E+02  0.35907015409E+02 -0.29168256737E+01  0.77475974658E+02  0.00000000000E+00 0. -1.
         21    1    1    2  504  503 -0.22511597114E+03  0.17917234792E+03 -0.69757516490E+03  0.75458004308E+03  0.00000000000E+00 0. -1.
<mgrwt>
<rscale>  4 0.33681030E+03</rscale>
<asrwt>0</asrwt>
<pdfrwt beam="1">  1       21 0.19068601E-01 0.33681030E+03</pdfrwt>
<pdfrwt beam="2">  1       21 0.21585275E+00 0.33681030E+03</pdfrwt>
<totfact> 0.24035966E+03</totfact>
</mgrwt>
</event>
<event>
 5    0  0.1911311E+001  0.3163876E+03  0.7546771E-02  0.1077324E+00
         21   -1    0    0  504  501  0.00000000000E+00  0.00000000000E+00  0.27807156209E+03  0.27807156209E+03  0.00000000000E+00 0.  1.
         21   -1    0    0  501  502 -0.00000000000E+00 -0.00000000000E+00 -0.39419100127E+03  0.39419100127E+03  0.00000000000E+00 0.  1.
         25    1    1    2    0    0  0.24754290602E+03  0.17283204597E+03 -0.19492426661E+02  0.32734288007E+03  0.12500000000E+03 0.  0.
         21    1    1    2  503  502 -0.20827884371E+03 -0.18815426344E+03 -0.55668663250E+02  0.28614874394E+03  0.00000000000E+00 0.  1.
         21    1    1    2  504  503 -0.39264062309E+02  0.15322217470E+02 -0.40958349267E+02  0.58770939349E+02  0.00000000000E+00 0.  1.
<mgrwt>
<rscale>  4 0.31638760E+03</rscale>
<asrwt>0</asrwt>
<pdfrwt beam="1">  1       21 0.42780240E-01 0.31638760E+03</pdfrwt>
<pdfrwt beam="2">  1       21 0.60644770E-01 0.31638760E+03</pdfrwt>
<totfact> 0.12473203E+04</totfact>
</mgrwt>
</event>
<event>
 5    0  0.1911311E+001  0.1817814E+03  0.7546771E-02  0.1166090E+00
         21   -1    0    0  503  501  0.00000000000E+00  0.00000000000E+00  0.78267170423E+02  0.78267170423E+02  0.00000000000E+00 0. -1.
         21   -1    0    0  504  502 -0.00000000000E+00 -0.00000000000E+00 -0.15975882525E+04  0.15975882525E+04  0.00000000000E+00 0.  1.
         25    1    1    2    0    0 -0.22203176513E+03 -0.47882893679E+02 -0.72783544265E+03  0.77263206496E+03  0.12500000000E+03 0.  0.
         21    1    1    2  503  502  0.10205017928E+03  0.21515942861E+02 -0.77179604393E+03  0.77881082961E+03  0.00000000000E+00 0.  1.
         21    1    1    2  504  501  0.11998158584E+03  0.26366950818E+02 -0.19689595484E+02  0.12441252834E+03  0.00000000000E+00 0. -1.
<mgrwt>
<rscale>  4 0.18178137E+03</rscale>
<asrwt>0</asrwt>
<pdfrwt beam="1">  1       21 0.12041103E-01 0.18178137E+03</pdfrwt>
<pdfrwt beam="2">  1       21 0.24578281E+00 0.18178137E+03</pdfrwt>
<totfact> 0.41549716E+03</totfact>
</mgrwt>
</event>
<event>
 5    0  0.1911311E+001  0.2772174E+03  0.7546771E-02  0.1097219E+00
         21   -1    0    0  502  501  0.00000000000E+00  0.00000000000E+00  0.51812848289E+03  0.51812848289E+03  0.00000000000E+00 0.  1.
         21   -1    0    0  504  502 -0.00000000000E+00 -0.00000000000E+00 -0.24028637901E+03  0.24028637901E+03  0.00000000000E+00 0. -1.
         25    1    1    2    0    0  0.22661775886E+03 -0.19420305457E+03  0.19480097510E+03  0.37768089035E+03  0.12500000000E+03 0.  0.
         21    1    1    2  503  501 -0.66358727662E+02  0.28222176207E+02  0.12682699918E+03  0.14589400155E+03  0.00000000000E+00 0.  1.
         21    1    1    2  504  503 -0.16025903120E+03  0.16598087836E+03 -0.43785870402E+02  0.23483997000E+03  0.00000000000E+00 0. -1.
<mgrwt>
<rscale>  4 0.27721738E+03</rscale>
<asrwt>0</asrwt>
<pdfrwt beam="1">  1       21 0.79712074E-01 0.27721738E+03</pdfrwt>
<pdfrwt beam="2">  1       21 0.36967135E-01 0.27721738E+03</pdfrwt>
<totfact> 0.93013139E+03</totfact>
</mgrwt>
</event>
