<event>
 5    0  0.2629946E-001  0.5012794E+03  0.7546771E-02  0.1013446E+00
         21   -1    0    0  504  501  0.00000000000E+00  0.00000000000E+00  0.65141749517E+03  0.65141749517E+03  0.00000000000E+00 0. -1.
         21   -1    0    0  501  502 -0.00000000000E+00 -0.00000000000E+00 -0.96436246575E+02  0.96436246575E+02  0.00000000000E+00 0. -1.
         25    1    1    2    0    0 -0.11731406798E+03  0.16902611642E+03  0.17071935509E+03  0.29513135512E+03  0.12500000000E+03 0.  0.
         21    1    1    2  503  502  0.12383911286E+03 -0.76824382220E+02  0.21253918843E+03  0.25770335309E+03  0.00000000000E+00 0. -1.
         21    1    1    2  504  503 -0.65250448791E+01 -0.92201734195E+02  0.17172270508E+03  0.19501903353E+03  0.00000000000E+00 0. -1.
<mgrwt>
<rscale>  4 0.50127940E+03</rscale>
<asrwt>0</asrwt>
<pdfrwt beam="1">  1       21 0.10021807E+00 0.50127940E+03</pdfrwt>
<pdfrwt beam="2">  1       21 0.14836346E-01 0.50127940E+03</pdfrwt>
<totfact> 0.29322122E+04</totfact>
</mgrwt>
</event>
<event>
 5    0  0.2629946E-001  0.6579101E+03  0.7546771E-02  0.9792049E-01
         21   -1    0    0  504  501  0.00000000000E+00  0.00000000000E+00  0.40149911782E+02  0.40149911782E+02  0.00000000000E+00 0. -1.
         21   -1    0    0  501  502 -0.00000000000E+00 -0.00000000000E+00 -0.26951849971E+04  0.26951849971E+04  0.00000000000E+00 0. -1.
         25    1    1    2    0    0 -0.13517455205E+03 -0.27417413604E+03 -0.11883750086E+04  0.12334114388E+04  0.12500000000E+03 0.  0.
         21    1    1    2  503  502  0.47116550394E+02  0.26674281200E+02 -0.38670555910E+03  0.39047749748E+03  0.00000000000E+00 0. -1.
         21    1    1    2  504  503  0.88058001656E+02  0.24749985484E+03 -0.10799545177E+04  0.11114459726E+04  0.00000000000E+00 0. -1.
<mgrwt>
<rscale>  4 0.65791015E+03</rscale>
<asrwt>0</asrwt>
<pdfrwt beam="1">  1       21 0.61769099E-02 0.65791015E+03</pdfrwt>
<pdfrwt beam="2">  1       21 0.41464382E+00 0.65791015E+03</pdfrwt>
<totfact> 0.93755988E+02</totfact>
</mgrwt>
</event>
<event>
 5    0  0.2629946E-001  0.5220783E+03  0.7546771E-02  0.1008172E+00
         21   -1    0    0  504  501  0.00000000000E+00  0.00000000000E+00  0.12026056118E+04  0.12026056118E+04  0.00000000000E+00 0.  1.
         21   -1    0    0  501  502 -0.00000000000E+00 -0.00000000000E+00 -0.56661501753E+02  0.56661501753E+02  0.00000000000E+00 0.  1.
         25    1    1    2    0    0  0.33309263919E+02  0.23423287693E+03  0.51564280327E+03  0.58093635475E+03  0.12500000000E+03 0.  0.
         21    1    1    2  503  502  0.99349327299E+01 -0.55568407973E+02  0.24508849364E+03  0.25150530922E+03  0.00000000000E+00 0.  1.
         21    1    1    2  504  503 -0.43244196649E+02 -0.17866446896E+03  0.38521281318E+03  0.42682544963E+03  0.00000000000E+00 0.  1.
<mgrwt>
<rscale>  4 0.52207831E+03</rscale>
<asrwt>0</asrwt>
<pdfrwt beam="1">  1       21 0.18501623E+00 0.52207831E+03</pdfrwt>
<pdfrwt beam="2">  1       21 0.87171550E-02 0.52207831E+03</pdfrwt>
<totfact> 0.14999505E+04</totfact>
</mgrwt>
</event>
<event>
 5    0  0.2629946E-001  0.4778880E+03  0.7546771E-02  0.1019717E+00
         21   -1    0    0  504  501  0.00000000000E+00  0.00000000000E+00  0.26088783912E+03  0.26088783912E+03  0.00000000000E+00 0. -1.
         21   -1    0    0  501  502 -0.00000000000E+00 -0.00000000000E+00 -0.21884589077E+03  0.21884589077E+03  0.00000000000E+00 0. -1.
         25    1    1    2    0    0  0.21085219183E+03 -0.18012203098E+02  0.83544334536E+02  0.25959149080E+03  0.12500000000E+03 0.  0.
         21    1    1    2  503  502 -0.22889157988E+02  0.14444518921E+02 -0.12897079397E+02  0.29981533270E+02  0.00000000000E+00 0. -1.
         21    1    1    2  504  503 -0.18796303384E+03  0.35676841774E+01 -0.28605306790E+02  0.19016070582E+03  0.00000000000E+00 0. -1.
<mgrwt>
<rscale>  4 0.47788798E+03</rscale>
<asrwt>0</asrwt>
<pdfrwt beam="1">  1       21 0.40136591E-01 0.47788798E+03</pdfrwt>
<pdfrwt beam="2">  1       21 0.33668598E-01 0.47788798E+03</pdfrwt>
<totfact> 0.46486210E+04</totfact>
</mgrwt>
</event>
<event>
 5    0  0.2629946E-001  0.5760970E+03  0.7546771E-02  0.9956277E-01
         21   -1    0    0  504  501  0.00000000000E+00  0.00000000000E+00  0.45642320215E+02  0.45642320215E+02  0.00000000000E+00 0. -1.
         21   -1    0    0  501  502 -0.00000000000E+00 -0.00000000000E+00 -0.18178728881E+04  0.18178728881E+04  0.00000000000E+00 0. -1.
         25    1    1    2    0    0  0.80531024387E+02  0.21029626278E+03 -0.14181942526E+04  0.14413915853E+04  0.12500000000E+03 0.  0.
         21    1    1    2  503  502 -0.61020936877E+01 -0.43168299761E+02 -0.99754285022E+02  0.10886530683E+03  0.00000000000E+00 0. -1.
         21    1    1    2  504  503 -0.74428930699E+02 -0.16712796302E+03 -0.25428203024E+03  0.31325831618E+03  0.00000000000E+00 0. -1.
<mgrwt>
<rscale>  4 0.57609699E+03</rscale>
<asrwt>0</asrwt>
<pdfrwt beam="1">  1       21 0.70218978E-02 0.57609699E+03</pdfrwt>
<pdfrwt beam="2">  1       21 0.27967266E+00 0.57609699E+03</pdfrwt>
<totfact> 0.53718636E+03</totfact>
</mgrwt>
</event>
<event>
 5    0  0.2629946E-001  0.5107034E+03  0.7546771E-02  0.1011022E+00
         21   -1    0    0  504  501  0.00000000000E+00  0.00000000000E+00  0.59461637553E+02  0.59461637553E+02  0.00000000000E+00 0.  1.
         21   -1    0    0  501  502 -0.00000000000E+00 -0.00000000000E+00 -0.10965806095E+04  0.10965806095E+04  0.00000000000E+00 0.  1.
         25    1    1    2    0    0  0.22200420713E+03  0.86474498383E+02 -0.53468160884E+03  0.59855921151E+03  0.12500000000E+03 0.  0.
         21    1    1    2  503  502 -0.33918217368E+02 -0.28854358870E+02 -0.82353825454E+02  0.93622497628E+02  0.00000000000E+00 0.  1.
         21    1    1    2  504  503 -0.18808598977E+03 -0.57620139514E+02 -0.42008353763E+03  0.46386053789E+03  0.00000000000E+00 0.  1.
<mgrwt>
<rscale>  4 0.51070335E+03</rscale>
<asrwt>0</asrwt>
<pdfrwt beam="1">  1       21 0.91479437E-02 0.51070335E+03</pdfrwt>
<pdfrwt beam="2">  1       21 0.16870472E+00 0.51070335E+03</pdfrwt>
<totfact> 0.18058378E+04</totfact>
</mgrwt>
</event>
<event>
 5    0  0.2629946E-001  0.6111723E+03  0.7546771E-02  0.9882494E-01
         21   -1    0    0  504  501  0.00000000000E+00  0.00000000000E+00  0.46712215878E+03  0.46712215878E+03  0.00000000000E+00 0.  1.
         21   -1    0    0  501  502 -0.00000000000E+00 -0.00000000000E+00 -0.19991107908E+03  0.19991107908E+03  0.00000000000E+00 0.  1.
         25    1    1    2    0    0  0.27370048492E+03 -0.66955439342E+02  0.10004302813E+03  0.32408115308E+03  0.12500000000E+03 0.  0.
         21    1    1    2  503  502 -0.51781282541E+02 -0.17912825251E+02  0.44344518621E+01  0.54971218773E+02  0.00000000000E+00 0.  1.
         21    1    1    2  504  503 -0.22191920237E+03  0.84868264593E+02  0.16273359970E+03  0.28798086601E+03  0.00000000000E+00 0.  1.
<mgrwt>
<rscale>  4 0.61117230E+03</rscale>
<asrwt>0</asrwt>
<pdfrwt beam="1">  1       21 0.71864947E-01 0.61117230E+03</pdfrwt>
<pdfrwt beam="2">  1       21 0.30755551E-01 0.61117230E+03</pdfrwt>
<totfact> 0.15388877E+04</totfact>
</mgrwt>
</event>
<event>
 5    0  0.2629946E-001  0.5146709E+03  0.7546771E-02  0.1010019E+00
         21   -1    0    0  504  501  0.00000000000E+00  0.00000000000E+00  0.88751966296E+03  0.88751966296E+03  0.00000000000E+00 0.  1.
         21   -1    0    0  501  502 -0.00000000000E+00 -0.00000000000E+00 -0.74614148528E+02  0.74614148528E+02  0.00000000000E+00 0.  1.
         25    1    1    2    0    0 -0.20440856410E+03 -0.86753438366E+02  0.27104147407E+03  0.37201814581E+03  0.12500000000E+03 0.  0.
         21    1    1    2  503  502  0.86481061341E+02  0.53145341398E+02  0.16418342673E+03  0.19302745632E+03  0.00000000000E+00 0.  1.
         21    1    1    2  504  503  0.11792750276E+03  0.33608096969E+02  0.37768061364E+03  0.39708820935E+03  0.00000000000E+00 0.  1.
<mgrwt>
<rscale>  4 0.51467086E+03</rscale>
<asrwt>0</asrwt>
<pdfrwt beam="1">  1       21 0.13654148E+00 0.51467086E+03</pdfrwt>
<pdfrwt beam="2">  1       21 0.11479100E-01 0.51467086E+03</pdfrwt>
<totfact> 0.21397498E+04</totfact>
</mgrwt>
</event>
<event>
 5    0  0.2629946E-001  0.5832841E+03  0.7546771E-02  0.9940706E-01
         21   -1    0    0  502  501  0.00000000000E+00  0.00000000000E+00  0.10369527814E+03  0.10369527814E+03  0.00000000000E+00 0. -1.
         21   -1    0    0  504  502 -0.00000000000E+00 -0.00000000000E+00 -0.82024061367E+03  0.82024061367E+03  0.00000000000E+00 0. -1.
         25    1    1    2    0    0 -0.25894016374E+03  0.83720149009E+02 -0.35515012209E+03  0.46455966352E+03  0.12500000000E+03 0.  0.
         21    1    1    2  503  501  0.12646240577E+03 -0.24153603375E+02 -0.11143221479E+03  0.17027411759E+03  0.00000000000E+00 0. -1.
         21    1    1    2  504  503  0.13247775796E+03 -0.59566545634E+02 -0.24996299866E+03  0.28910211070E+03  0.00000000000E+00 0. -1.
<mgrwt>
<rscale>  4 0.58328408E+03</rscale>
<asrwt>0</asrwt>
<pdfrwt beam="1">  1       21 0.15953120E-01 0.58328408E+03</pdfrwt>
<pdfrwt beam="2">  1       21 0.12619086E+00 0.58328408E+03</pdfrwt>
<totfact> 0.14090329E+04</totfact>
</mgrwt>
</event>
<event>
 5    0  0.2629946E-001  0.6016001E+03  0.7546771E-02  0.9902092E-01
         21   -1    0    0  504  501  0.00000000000E+00  0.00000000000E+00  0.50174813452E+02  0.50174813452E+02  0.00000000000E+00 0.  1.
         21   -1    0    0  501  502 -0.00000000000E+00 -0.00000000000E+00 -0.18033085409E+04  0.18033085409E+04  0.00000000000E+00 0.  1.
         25    1    1    2    0    0 -0.24350180532E+03  0.13550085546E+03 -0.91093810137E+03  0.96077408143E+03  0.12500000000E+03 0.  0.
         21    1    1    2  503  502  0.17474435674E+03 -0.51270369594E+02 -0.60428839891E+03  0.63113287829E+03  0.00000000000E+00 0.  1.
         21    1    1    2  504  503  0.68757448582E+02 -0.84230485863E+02 -0.23790722716E+03  0.26157639461E+03  0.00000000000E+00 0.  1.
<mgrwt>
<rscale>  4 0.60160010E+03</rscale>
<asrwt>0</asrwt>
<pdfrwt beam="1">  1       21 0.77192031E-02 0.60160010E+03</pdfrwt>
<pdfrwt beam="2">  1       21 0.27743205E+00 0.60160010E+03</pdfrwt>
<totfact> 0.46468079E+03</totfact>
</mgrwt>
</event>
<event>
 5    0  0.2629946E-001  0.4972914E+03  0.7546771E-02  0.1014488E+00
         21   -1    0    0  502  501  0.00000000000E+00  0.00000000000E+00  0.14212214300E+03  0.14212214300E+03  0.00000000000E+00 0.  1.
         21   -1    0    0  504  502 -0.00000000000E+00 -0.00000000000E+00 -0.43501087032E+03  0.43501087032E+03  0.00000000000E+00 0.  1.
         25    1    1    2    0    0  0.17241499728E+03 -0.12229236386E+03 -0.48293384635E+02  0.25027905335E+03  0.12500000000E+03 0.  0.
         21    1    1    2  503  501 -0.16369314893E+03  0.10194160819E+03 -0.23083158827E+03  0.30078357773E+03  0.00000000000E+00 0.  1.
         21    1    1    2  504  503 -0.87218483492E+01  0.20350755673E+02 -0.13763754419E+02  0.26070382252E+02  0.00000000000E+00 0. -1.
<mgrwt>
<rscale>  4 0.49729137E+03</rscale>
<asrwt>0</asrwt>
<pdfrwt beam="1">  1       21 0.21864945E-01 0.49729137E+03</pdfrwt>
<pdfrwt beam="2">  1       21 0.66924748E-01 0.49729137E+03</pdfrwt>
<totfact> 0.36144561E+04</totfact>
</mgrwt>
</event>
<event>
 5    0  0.2629946E-001  0.5570429E+03  0.7546771E-02  0.9998768E-01
         21   -1    0    0  504  501  0.00000000000E+00  0.00000000000E+00  0.10096227348E+03  0.10096227348E+03  0.00000000000E+00 0.  1.
         21   -1    0    0  501  502 -0.00000000000E+00 -0.00000000000E+00 -0.76834841301E+03  0.76834841301E+03  0.00000000000E+00 0.  1.
         25    1    1    2    0    0  0.16723851142E+03 -0.16951233655E+03 -0.17643693266E+03  0.32164909941E+03  0.12500000000E+03 0.  0.
         21    1    1    2  503  502 -0.12936833104E+03  0.10049660735E+03 -0.34074620192E+03  0.37807896964E+03  0.00000000000E+00 0.  1.
         21    1    1    2  504  503 -0.37870180379E+02  0.69015729198E+02 -0.15020300496E+03  0.16958261744E+03  0.00000000000E+00 0.  1.
<mgrwt>
<rscale>  4 0.55704292E+03</rscale>
<asrwt>0</asrwt>
<pdfrwt beam="1">  1       21 0.15532658E-01 0.55704292E+03</pdfrwt>
<pdfrwt beam="2">  1       21 0.11820744E+00 0.55704292E+03</pdfrwt>
<totfact> 0.17631834E+04</totfact>
</mgrwt>
</event>
<event>
 5    0  0.2629946E-001  0.4943098E+03  0.7546771E-02  0.1015275E+00
         21   -1    0    0  504  501  0.00000000000E+00  0.00000000000E+00  0.19671459167E+04  0.19671459167E+04  0.00000000000E+00 0.  1.
         21   -1    0    0  501  502 -0.00000000000E+00 -0.00000000000E+00 -0.31052876693E+02  0.31052876693E+02  0.00000000000E+00 0.  1.
         25    1    1    2    0    0 -0.12900386455E+03 -0.18648760881E+03  0.96451670504E+03  0.99866766224E+03  0.12500000000E+03 0.  0.
         21    1    1    2  503  502  0.75784334382E+02  0.10609344888E+03  0.42614548624E+03  0.44564454521E+03  0.00000000000E+00 0.  1.
         21    1    1    2  504  503  0.53219530167E+02  0.80394159929E+02  0.54543084870E+03  0.55388658592E+03  0.00000000000E+00 0.  1.
<mgrwt>
<rscale>  4 0.49430978E+03</rscale>
<asrwt>0</asrwt>
<pdfrwt beam="1">  1       21 0.30263774E+00 0.49430978E+03</pdfrwt>
<pdfrwt beam="2">  1       21 0.47773672E-02 0.49430978E+03</pdfrwt>
<totfact> 0.78686035E+03</totfact>
</mgrwt>
</event>
<event>
 5    0  0.2629946E-001  0.4734576E+03  0.7546771E-02  0.1020949E+00
         21   -1    0    0  502  501  0.00000000000E+00  0.00000000000E+00  0.82214938280E+02  0.82214938280E+02  0.00000000000E+00 0. -1.
         21   -1    0    0  504  502 -0.00000000000E+00 -0.00000000000E+00 -0.68163426752E+03  0.68163426752E+03  0.00000000000E+00 0. -1.
         25    1    1    2    0    0  0.20527464723E+03  0.24853203642E+02 -0.20764713600E+03  0.31858702989E+03  0.12500000000E+03 0.  0.
         21    1    1    2  503  501 -0.18273965231E+03 -0.93692432751E+01 -0.32257020924E+03  0.37085455793E+03  0.00000000000E+00 0. -1.
         21    1    1    2  504  503 -0.22534994918E+02 -0.15483960367E+02 -0.69201983998E+02  0.74407617982E+02  0.00000000000E+00 0. -1.
<mgrwt>
<rscale>  4 0.47345758E+03</rscale>
<asrwt>0</asrwt>
<pdfrwt beam="1">  1       21 0.12648452E-01 0.47345758E+03</pdfrwt>
<pdfrwt beam="2">  1       21 0.10486681E+00 0.47345758E+03</pdfrwt>
<totfact> 0.35436277E+04</totfact>
</mgrwt>
</event>
<event>
 5    0  0.2629946E-001  0.8033432E+03  0.7546771E-02  0.9555191E-01
         21   -1    0    0  504  501  0.00000000000E+00  0.00000000000E+00  0.10919218556E+03  0.10919218556E+03  0.00000000000E+00 0. -1.
         21   -1    0    0  501  502 -0.00000000000E+00 -0.00000000000E+00 -0.14775788820E+04  0.14775788820E+04  0.00000000000E+00 0. -1.
         25    1    1    2    0    0  0.23776927304E+03  0.28313877268E+03 -0.63537128199E+03  0.74566980479E+03  0.12500000000E+03 0.  0.
         21    1    1    2  503  502  0.21286891818E+02 -0.57186919214E+02 -0.17891040792E+03  0.18903018160E+03  0.00000000000E+00 0. -1.
         21    1    1    2  504  503 -0.25905616486E+03 -0.22595185347E+03 -0.55410500657E+03  0.65207108121E+03  0.00000000000E+00 0. -1.
<mgrwt>
<rscale>  4 0.80334318E+03</rscale>
<asrwt>0</asrwt>
<pdfrwt beam="1">  1       21 0.16798798E-01 0.80334318E+03</pdfrwt>
<pdfrwt beam="2">  1       21 0.22731982E+00 0.80334318E+03</pdfrwt>
<totfact> 0.21773756E+03</totfact>
</mgrwt>
</event>
<event>
 5    0  0.2629946E-001  0.5266808E+03  0.7546771E-02  0.1007040E+00
         21   -1    0    0  504  501  0.00000000000E+00  0.00000000000E+00  0.10931961106E+03  0.10931961106E+03  0.00000000000E+00 0.  1.
         21   -1    0    0  501  502 -0.00000000000E+00 -0.00000000000E+00 -0.63436158911E+03  0.63436158911E+03  0.00000000000E+00 0.  1.
         25    1    1    2    0    0  0.73145408145E+02  0.21017772225E+03 -0.20991833305E+03  0.33047788461E+03  0.12500000000E+03 0.  0.
         21    1    1    2  503  502  0.33938688580E+02 -0.33791456810E+01 -0.34119528877E+02  0.48243087162E+02  0.00000000000E+00 0.  1.
         21    1    1    2  504  503 -0.10708409673E+03 -0.20679857657E+03 -0.28100411611E+03  0.36496022840E+03  0.00000000000E+00 0.  1.
<mgrwt>
<rscale>  4 0.52668078E+03</rscale>
<asrwt>0</asrwt>
<pdfrwt beam="1">  1       21 0.16818402E-01 0.52668078E+03</pdfrwt>
<pdfrwt beam="2">  1       21 0.97594090E-01 0.52668078E+03</pdfrwt>
<totfact> 0.24604143E+04</totfact>
</mgrwt>
</event>
<event>
 5    0  0.2629946E-001  0.4793716E+03  0.7546771E-02  0.1019308E+00
         21   -1    0    0  502  501  0.00000000000E+00  0.00000000000E+00  0.15967216171E+04  0.15967216171E+04  0.00000000000E+00 0.  1.
         21   -1    0    0  504  502 -0.00000000000E+00 -0.00000000000E+00 -0.35979516643E+02  0.35979516643E+02  0.00000000000E+00 0.  1.
         25    1    1    2    0    0 -0.11099995796E+03  0.16697016017E+03  0.52384040595E+03  0.57465972189E+03  0.12500000000E+03 0.  0.
         21    1    1    2  503  501  0.11332718650E+03 -0.12624632303E+03  0.83362667592E+03  0.85071418237E+03  0.00000000000E+00 0.  1.
         21    1    1    2  504  503 -0.23272285391E+01 -0.40723837144E+02  0.20327501853E+03  0.20732722943E+03  0.00000000000E+00 0.  1.
<mgrwt>
<rscale>  4 0.47937156E+03</rscale>
<asrwt>0</asrwt>
<pdfrwt beam="1">  1       21 0.24564942E+00 0.47937156E+03</pdfrwt>
<pdfrwt beam="2">  1       21 0.55353115E-02 0.47937156E+03</pdfrwt>
<totfact> 0.13622675E+04</totfact>
</mgrwt>
</event>
<event>
 5    0  0.2629946E-001  0.6137438E+03  0.7546771E-02  0.9877295E-01
         21   -1    0    0  504  501  0.00000000000E+00  0.00000000000E+00  0.76802042291E+03  0.76802042291E+03  0.00000000000E+00 0. -1.
         21   -1    0    0  501  502 -0.00000000000E+00 -0.00000000000E+00 -0.12261440157E+03  0.12261440157E+03  0.00000000000E+00 0. -1.
         25    1    1    2    0    0 -0.18427757084E+03 -0.10520084934E+03  0.61001911647E+03  0.65785542809E+03  0.12500000000E+03 0.  0.
         21    1    1    2  503  502  0.31860591821E+02  0.50070763018E+01  0.38664686846E+02  0.50350036079E+02  0.00000000000E+00 0.  1.
         21    1    1    2  504  503  0.15241697902E+03  0.10019377304E+03 -0.32777819755E+01  0.18242936031E+03  0.00000000000E+00 0.  1.
<mgrwt>
<rscale>  4 0.61374381E+03</rscale>
<asrwt>0</asrwt>
<pdfrwt beam="1">  1       21 0.11815699E+00 0.61374381E+03</pdfrwt>
<pdfrwt beam="2">  1       21 0.18863755E-01 0.61374381E+03</pdfrwt>
<totfact> 0.12084382E+04</totfact>
</mgrwt>
</event>
<event>
 5    0  0.2629946E-001  0.5739611E+03  0.7546771E-02  0.9960951E-01
         21   -1    0    0  504  501  0.00000000000E+00  0.00000000000E+00  0.21800500184E+03  0.21800500184E+03  0.00000000000E+00 0. -1.
         21   -1    0    0  501  502 -0.00000000000E+00 -0.00000000000E+00 -0.37777955083E+03  0.37777955083E+03  0.00000000000E+00 0. -1.
         25    1    1    2    0    0  0.21162997743E+03  0.69134643144E+02  0.20038276551E+02  0.25611204337E+03  0.12500000000E+03 0.  0.
         21    1    1    2  503  502 -0.64914133428E+02 -0.49789395528E+02 -0.17318833247E+03  0.19153857870E+03  0.00000000000E+00 0. -1.
         21    1    1    2  504  503 -0.14671584400E+03 -0.19345247615E+02 -0.66244930690E+01  0.14813393060E+03  0.00000000000E+00 0. -1.
<mgrwt>
<rscale>  4 0.57396108E+03</rscale>
<asrwt>0</asrwt>
<pdfrwt beam="1">  1       21 0.33539231E-01 0.57396108E+03</pdfrwt>
<pdfrwt beam="2">  1       21 0.58119931E-01 0.57396108E+03</pdfrwt>
<totfact> 0.20922556E+04</totfact>
</mgrwt>
</event>
<event>
 5    0  0.2629946E-001  0.5200599E+03  0.7546771E-02  0.1008672E+00
         21   -1    0    0  504  501  0.00000000000E+00  0.00000000000E+00  0.45284754124E+03  0.45284754124E+03  0.00000000000E+00 0.  1.
         21   -1    0    0  501  502 -0.00000000000E+00 -0.00000000000E+00 -0.14931199553E+03  0.14931199553E+03  0.00000000000E+00 0.  1.
         25    1    1    2    0    0  0.32946433130E+02  0.22057826774E+03  0.55643108407E+02  0.26165128543E+03  0.12500000000E+03 0.  0.
         21    1    1    2  503  502 -0.14135924360E+02 -0.54839161270E+02  0.24481226629E+02  0.61696745648E+02  0.00000000000E+00 0.  1.
         21    1    1    2  504  503 -0.18810508770E+02 -0.16573910647E+03  0.22341121067E+03  0.27881150569E+03  0.00000000000E+00 0.  1.
<mgrwt>
<rscale>  4 0.52005988E+03</rscale>
<asrwt>0</asrwt>
<pdfrwt beam="1">  1       21 0.69668852E-01 0.52005988E+03</pdfrwt>
<pdfrwt beam="2">  1       21 0.22971076E-01 0.52005988E+03</pdfrwt>
<totfact> 0.29880682E+04</totfact>
</mgrwt>
</event>
<event>
 5    0  0.2629946E-001  0.5400934E+03  0.7546771E-02  0.1003813E+00
         21   -1    0    0  504  501  0.00000000000E+00  0.00000000000E+00  0.11431320634E+03  0.11431320634E+03  0.00000000000E+00 0.  1.
         21   -1    0    0  501  502 -0.00000000000E+00 -0.00000000000E+00 -0.63794233352E+03  0.63794233352E+03  0.00000000000E+00 0.  1.
         25    1    1    2    0    0 -0.63835262442E+02 -0.19952116142E+03 -0.73364844350E+02  0.25473718804E+03  0.12500000000E+03 0.  0.
         21    1    1    2  503  502  0.62495996038E+02  0.17568158768E+03 -0.41456513577E+03  0.45457015033E+03  0.00000000000E+00 0.  1.
         21    1    1    2  504  503  0.13392664047E+01  0.23839573741E+02 -0.35699147064E+02  0.42948201496E+02  0.00000000000E+00 0. -1.
<mgrwt>
<rscale>  4 0.54009345E+03</rscale>
<asrwt>0</asrwt>
<pdfrwt beam="1">  1       21 0.17586647E-01 0.54009345E+03</pdfrwt>
<pdfrwt beam="2">  1       21 0.98144975E-01 0.54009345E+03</pdfrwt>
<totfact> 0.22247832E+04</totfact>
</mgrwt>
</event>
<event>
 5    0  0.2629946E-001  0.4853268E+03  0.7546771E-02  0.1017681E+00
         21   -1    0    0  504  501  0.00000000000E+00  0.00000000000E+00  0.46294407852E+03  0.46294407852E+03  0.00000000000E+00 0.  1.
         21   -1    0    0  501  502 -0.00000000000E+00 -0.00000000000E+00 -0.12719789882E+03  0.12719789882E+03  0.00000000000E+00 0.  1.
         25    1    1    2    0    0  0.33390254197E+02 -0.21590016435E+03  0.17772577380E+03  0.30812211981E+03  0.12500000000E+03 0.  0.
         21    1    1    2  503  502 -0.12832913648E+02  0.27966791618E+02 -0.64466653312E+01  0.31438584574E+02  0.00000000000E+00 0.  1.
         21    1    1    2  504  503 -0.20557340549E+02  0.18793337273E+03  0.16446707123E+03  0.25058127296E+03  0.00000000000E+00 0.  1.
<mgrwt>
<rscale>  4 0.48532675E+03</rscale>
<asrwt>0</asrwt>
<pdfrwt beam="1">  1       21 0.71222165E-01 0.48532675E+03</pdfrwt>
<pdfrwt beam="2">  1       21 0.19568908E-01 0.48532675E+03</pdfrwt>
<totfact> 0.38948557E+04</totfact>
</mgrwt>
</event>
<event>
 5    0  0.2629946E-001  0.5723811E+03  0.7546771E-02  0.9964423E-01
         21   -1    0    0  502  501  0.00000000000E+00  0.00000000000E+00  0.48452601910E+02  0.48452601910E+02  0.00000000000E+00 0. -1.
         21   -1    0    0  504  502 -0.00000000000E+00 -0.00000000000E+00 -0.16904158036E+04  0.16904158036E+04  0.00000000000E+00 0. -1.
         25    1    1    2    0    0 -0.12282402034E+03 -0.23878627988E+03 -0.96169297649E+03  0.10062718363E+04  0.12500000000E+03 0.  0.
         21    1    1    2  503  501  0.12236566571E+03  0.21398376620E+03 -0.60284750831E+03  0.65129680378E+03  0.00000000000E+00 0. -1.
         21    1    1    2  504  503  0.45835462852E+00  0.24802513673E+02 -0.77422716909E+02  0.81299765480E+02  0.00000000000E+00 0.  1.
<mgrwt>
<rscale>  4 0.57238115E+03</rscale>
<asrwt>0</asrwt>
<pdfrwt beam="1">  1       21 0.74542447E-02 0.57238115E+03</pdfrwt>
<pdfrwt beam="2">  1       21 0.26006403E+00 0.57238115E+03</pdfrwt>
<totfact> 0.63797624E+03</totfact>
</mgrwt>
</event>
