<event>
 5    0  0.1257040E+001  0.2878628E+03  0.7546771E-02  0.1091470E+00
         21   -1    0    0  503  501  0.00000000000E+00  0.00000000000E+00  0.11103896632E+03  0.11103896632E+03  0.00000000000E+00 0. -1.
         21   -1    0    0  504  502 -0.00000000000E+00 -0.00000000000E+00 -0.10204428641E+04  0.10204428641E+04  0.00000000000E+00 0. -1.
         25    1    1    2    0    0  0.38289749047E+02  0.21965586528E+03 -0.50640216493E+03  0.56725916183E+03  0.12500000000E+03 0.  0.
         21    1    1    2  503  502  0.11393671733E+02  0.51727294275E+02 -0.23567400639E+03  0.24155282242E+03  0.00000000000E+00 0.  1.
         21    1    1    2  504  501 -0.49683420781E+02 -0.27138315955E+03 -0.16732772644E+03  0.32266984617E+03  0.00000000000E+00 0. -1.
<mgrwt>
<rscale>  4 0.28786276E+03</rscale>
<asrwt>0</asrwt>
<pdfrwt beam="1">  1       21 0.17082918E-01 0.28786276E+03</pdfrwt>
<pdfrwt beam="2">  1       21 0.15699121E+00 0.28786276E+03</pdfrwt>
<totfact> 0.76866800E+03</totfact>
</mgrwt>
</event>
<event>
 5    0  0.1257040E+001  0.2330778E+03  0.7546771E-02  0.1124492E+00
         21   -1    0    0  504  501  0.00000000000E+00  0.00000000000E+00  0.40350487000E+02  0.40350487000E+02  0.00000000000E+00 0. -1.
         21   -1    0    0  503  502 -0.00000000000E+00 -0.00000000000E+00 -0.20074786061E+04  0.20074786061E+04  0.00000000000E+00 0. -1.
         25    1    1    2    0    0 -0.12634688637E+03  0.18352013907E+03 -0.11835979277E+04  0.12108559913E+04  0.12500000000E+03 0.  0.
         21    1    1    2  503  501  0.48934651042E+02 -0.10222610430E+02 -0.45357982095E+03  0.45632636984E+03  0.00000000000E+00 0. -1.
         21    1    1    2  504  502  0.77412235325E+02 -0.17329752864E+03 -0.32995037042E+03  0.38064673196E+03  0.00000000000E+00 0. -1.
<mgrwt>
<rscale>  4 0.23307781E+03</rscale>
<asrwt>0</asrwt>
<pdfrwt beam="1">  1       21 0.62077687E-02 0.23307781E+03</pdfrwt>
<pdfrwt beam="2">  1       21 0.30884279E+00 0.23307781E+03</pdfrwt>
<totfact> 0.54053163E+03</totfact>
</mgrwt>
</event>
<event>
 5    0  0.1257040E+001  0.2082332E+03  0.7546771E-02  0.1142973E+00
         21   -1    0    0  502  501  0.00000000000E+00  0.00000000000E+00  0.23493185649E+03  0.23493185649E+03  0.00000000000E+00 0.  1.
         21   -1    0    0  504  502 -0.00000000000E+00 -0.00000000000E+00 -0.90623297325E+03  0.90623297325E+03  0.00000000000E+00 0.  1.
         25    1    1    2    0    0  0.68975564508E+02  0.19748981932E+03  0.72270049087E+02  0.25418067831E+03  0.12500000000E+03 0.  0.
         21    1    1    2  503  501  0.22090571533E+01 -0.49286174378E+02  0.53708384970E+02  0.72928715431E+02  0.00000000000E+00 0.  1.
         21    1    1    2  504  503 -0.71184621661E+02 -0.14820364494E+03 -0.79727955082E+03  0.81405543600E+03  0.00000000000E+00 0.  1.
<mgrwt>
<rscale>  4 0.20823316E+03</rscale>
<asrwt>0</asrwt>
<pdfrwt beam="1">  1       21 0.36143363E-01 0.20823316E+03</pdfrwt>
<pdfrwt beam="2">  1       21 0.13942046E+00 0.20823316E+03</pdfrwt>
<totfact> 0.26330255E+03</totfact>
</mgrwt>
</event>
<event>
 5    0  0.1257040E+001  0.2694781E+03  0.7546771E-02  0.1101579E+00
         21   -1    0    0  502  501  0.00000000000E+00  0.00000000000E+00  0.39554239520E+03  0.39554239520E+03  0.00000000000E+00 0. -1.
         21   -1    0    0  504  502 -0.00000000000E+00 -0.00000000000E+00 -0.54425103978E+03  0.54425103978E+03  0.00000000000E+00 0. -1.
         25    1    1    2    0    0 -0.68591272345E+02  0.21317367091E+03  0.27894292853E+03  0.37892206849E+03  0.12500000000E+03 0.  0.
         21    1    1    2  503  501  0.94884604440E+01  0.19527007189E+02  0.34104228123E+02  0.40428124706E+02  0.00000000000E+00 0. -1.
         21    1    1    2  504  503  0.59102811901E+02 -0.23270067810E+03 -0.46175580123E+03  0.52044324179E+03  0.00000000000E+00 0. -1.
<mgrwt>
<rscale>  4 0.26947811E+03</rscale>
<asrwt>0</asrwt>
<pdfrwt beam="1">  1       21 0.60852676E-01 0.26947811E+03</pdfrwt>
<pdfrwt beam="2">  1       21 0.83730929E-01 0.26947811E+03</pdfrwt>
<totfact> 0.29465269E+03</totfact>
</mgrwt>
</event>
<event>
 5    0  0.1257040E+001  0.2825277E+03  0.7546771E-02  0.1094316E+00
         21   -1    0    0  503  501  0.00000000000E+00  0.00000000000E+00  0.12694117122E+03  0.12694117122E+03  0.00000000000E+00 0.  1.
         21   -1    0    0  504  502 -0.00000000000E+00 -0.00000000000E+00 -0.94709234205E+03  0.94709234205E+03  0.00000000000E+00 0.  1.
         25    1    1    2    0    0 -0.14770526285E+02  0.25403437623E+03 -0.67419019349E+03  0.73137476697E+03  0.12500000000E+03 0.  0.
         21    1    1    2  503  502 -0.32179143102E+02 -0.25168434569E+03 -0.15118679762E+03  0.29536071995E+03  0.00000000000E+00 0.  1.
         21    1    1    2  504  501  0.46949669388E+02 -0.23500305427E+01  0.52258202744E+01  0.47298026351E+02  0.00000000000E+00 0.  1.
<mgrwt>
<rscale>  4 0.28252769E+03</rscale>
<asrwt>0</asrwt>
<pdfrwt beam="1">  1       21 0.19529411E-01 0.28252769E+03</pdfrwt>
<pdfrwt beam="2">  1       21 0.14570652E+00 0.28252769E+03</pdfrwt>
<totfact> 0.73319619E+03</totfact>
</mgrwt>
</event>
<event>
 5    0  0.1257040E+001  0.2495275E+03  0.7546771E-02  0.1113604E+00
         21   -1    0    0  502  501  0.00000000000E+00  0.00000000000E+00  0.72460873255E+03  0.72460873255E+03  0.00000000000E+00 0.  1.
         21   -1    0    0  504  502 -0.00000000000E+00 -0.00000000000E+00 -0.17111365497E+03  0.17111365497E+03  0.00000000000E+00 0.  1.
         25    1    1    2    0    0 -0.20826108463E+01 -0.22933289218E+03  0.51454482445E+03  0.57704357641E+03  0.12500000000E+03 0.  0.
         21    1    1    2  503  501 -0.17279925333E+02  0.16179283925E+02  0.94611797124E+02  0.97528237977E+02  0.00000000000E+00 0. -1.
         21    1    1    2  504  503  0.19362536179E+02  0.21315360826E+03 -0.55661543999E+02  0.22115057314E+03  0.00000000000E+00 0.  1.
<mgrwt>
<rscale>  4 0.24952754E+03</rscale>
<asrwt>0</asrwt>
<pdfrwt beam="1">  1       21 0.11147826E+00 0.24952754E+03</pdfrwt>
<pdfrwt beam="2">  1       21 0.26325178E-01 0.24952754E+03</pdfrwt>
<totfact> 0.83535129E+03</totfact>
</mgrwt>
</event>
<event>
 5    0  0.1257040E+001  0.3713561E+03  0.7546771E-02  0.1054176E+00
         21   -1    0    0  504  501  0.00000000000E+00  0.00000000000E+00  0.34618906463E+03  0.34618906463E+03  0.00000000000E+00 0.  1.
         21   -1    0    0  503  502 -0.00000000000E+00 -0.00000000000E+00 -0.14173927872E+04  0.14173927872E+04  0.00000000000E+00 0. -1.
         25    1    1    2    0    0  0.43125545420E+03  0.14822899557E+03 -0.36742699387E+02  0.47426588309E+03  0.12500000000E+03 0.  0.
         21    1    1    2  503  501 -0.32633856699E+03 -0.86113336401E+02 -0.11001942871E+04  0.11507996509E+04  0.00000000000E+00 0. -1.
         21    1    1    2  504  502 -0.10491688721E+03 -0.62115659171E+02  0.65733263929E+02  0.13851631789E+03  0.00000000000E+00 0.  1.
<mgrwt>
<rscale>  4 0.37135613E+03</rscale>
<asrwt>0</asrwt>
<pdfrwt beam="1">  1       21 0.53259856E-01 0.37135613E+03</pdfrwt>
<pdfrwt beam="2">  1       21 0.21806043E+00 0.37135613E+03</pdfrwt>
<totfact> 0.29278510E+02</totfact>
</mgrwt>
</event>
<event>
 5    0  0.1257040E+001  0.2941489E+03  0.7546771E-02  0.1088203E+00
         21   -1    0    0  502  501  0.00000000000E+00  0.00000000000E+00  0.27795370256E+03  0.27795370256E+03  0.00000000000E+00 0.  1.
         21   -1    0    0  504  502 -0.00000000000E+00 -0.00000000000E+00 -0.38954630546E+03  0.38954630546E+03  0.00000000000E+00 0.  1.
         25    1    1    2    0    0 -0.26835877412E+03 -0.93718554102E+02 -0.14149744828E+02  0.31084532216E+03  0.12500000000E+03 0.  0.
         21    1    1    2  503  501  0.22852829722E+02  0.16604623409E+02  0.51926771989E+02  0.59113069570E+02  0.00000000000E+00 0.  1.
         21    1    1    2  504  503  0.24550594439E+03  0.77113930693E+02 -0.14936963006E+03  0.29754161629E+03  0.00000000000E+00 0.  1.
<mgrwt>
<rscale>  4 0.29414892E+03</rscale>
<asrwt>0</asrwt>
<pdfrwt beam="1">  1       21 0.42762108E-01 0.29414892E+03</pdfrwt>
<pdfrwt beam="2">  1       21 0.59930201E-01 0.29414892E+03</pdfrwt>
<totfact> 0.12931563E+04</totfact>
</mgrwt>
</event>
<event>
 5    0  0.1257040E+001  0.2233300E+03  0.7546771E-02  0.1131424E+00
         21   -1    0    0  503  501  0.00000000000E+00  0.00000000000E+00  0.43141661837E+03  0.43141661837E+03  0.00000000000E+00 0.  1.
         21   -1    0    0  504  502 -0.00000000000E+00 -0.00000000000E+00 -0.55762088613E+03  0.55762088613E+03  0.00000000000E+00 0. -1.
         25    1    1    2    0    0 -0.50824497373E+02  0.19796602958E+03 -0.46217905122E+03  0.52058443483E+03  0.12500000000E+03 0.  0.
         21    1    1    2  503  502  0.10069762565E+02 -0.18290062683E+02 -0.42591777288E+02  0.47434017367E+02  0.00000000000E+00 0.  1.
         21    1    1    2  504  501  0.40754734808E+02 -0.17967596690E+03  0.37856656074E+03  0.42101905230E+03  0.00000000000E+00 0.  1.
<mgrwt>
<rscale>  4 0.22333001E+03</rscale>
<asrwt>0</asrwt>
<pdfrwt beam="1">  1       21 0.66371788E-01 0.22333001E+03</pdfrwt>
<pdfrwt beam="2">  1       21 0.85787828E-01 0.22333001E+03</pdfrwt>
<totfact> 0.23808936E+03</totfact>
</mgrwt>
</event>
<event>
 5    0  0.1257040E+001  0.2367504E+03  0.7546771E-02  0.1121977E+00
         21   -1    0    0  503  501  0.00000000000E+00  0.00000000000E+00  0.80647622145E+03  0.80647622145E+03  0.00000000000E+00 0.  1.
         21   -1    0    0  504  502 -0.00000000000E+00 -0.00000000000E+00 -0.98252082163E+02  0.98252082163E+02  0.00000000000E+00 0.  1.
         25    1    1    2    0    0  0.10286865530E+03 -0.20363870157E+03  0.53332560278E+03  0.59339015799E+03  0.12500000000E+03 0.  0.
         21    1    1    2  503  502 -0.53057805398E+02  0.18701429390E+03  0.96632845336E+02  0.21708842354E+03  0.00000000000E+00 0.  1.
         21    1    1    2  504  501 -0.49810849902E+02  0.16624407672E+02  0.78265691177E+02  0.94249722089E+02  0.00000000000E+00 0.  1.
<mgrwt>
<rscale>  4 0.23675037E+03</rscale>
<asrwt>0</asrwt>
<pdfrwt beam="1">  1       21 0.12407326E+00 0.23675037E+03</pdfrwt>
<pdfrwt beam="2">  1       21 0.15115705E-01 0.23675037E+03</pdfrwt>
<totfact> 0.18299953E+04</totfact>
</mgrwt>
</event>
<event>
 5    0  0.1257040E+001  0.2514805E+03  0.7546771E-02  0.1112373E+00
         21   -1    0    0  502  501  0.00000000000E+00  0.00000000000E+00  0.47575310541E+03  0.47575310541E+03  0.00000000000E+00 0.  1.
         21   -1    0    0  504  502 -0.00000000000E+00 -0.00000000000E+00 -0.44084739698E+03  0.44084739698E+03  0.00000000000E+00 0. -1.
         25    1    1    2    0    0  0.16149697418E+03  0.16527659592E+03  0.32473119986E+03  0.41769962652E+03  0.12500000000E+03 0.  0.
         21    1    1    2  503  501 -0.10834955150E+03 -0.16192520599E+03  0.93179460432E+01  0.19505440719E+03  0.00000000000E+00 0.  1.
         21    1    1    2  504  503 -0.53147422683E+02 -0.33513899284E+01 -0.29914343747E+03  0.30384646869E+03  0.00000000000E+00 0. -1.
<mgrwt>
<rscale>  4 0.25148047E+03</rscale>
<asrwt>0</asrwt>
<pdfrwt beam="1">  1       21 0.73192786E-01 0.25148047E+03</pdfrwt>
<pdfrwt beam="2">  1       21 0.67822676E-01 0.25148047E+03</pdfrwt>
<totfact> 0.31899695E+03</totfact>
</mgrwt>
</event>
<event>
 5    0  0.1257040E+001  0.2357907E+03  0.7546771E-02  0.1122629E+00
         21   -1    0    0  503  501  0.00000000000E+00  0.00000000000E+00  0.10411663215E+04  0.10411663215E+04  0.00000000000E+00 0.  1.
         21   -1    0    0  504  502 -0.00000000000E+00 -0.00000000000E+00 -0.35019883556E+03  0.35019883556E+03  0.00000000000E+00 0.  1.
         25    1    1    2    0    0 -0.18113309098E+03 -0.14641322986E+03 -0.24924887181E+03  0.36331257978E+03  0.12500000000E+03 0.  0.
         21    1    1    2  503  502  0.42758288088E+01  0.55233610832E+02 -0.10801414087E+02  0.56442050138E+02  0.00000000000E+00 0.  1.
         21    1    1    2  504  501  0.17685726217E+03  0.91179619033E+02  0.95101777180E+03  0.97161052711E+03  0.00000000000E+00 0.  1.
<mgrwt>
<rscale>  4 0.23579068E+03</rscale>
<asrwt>0</asrwt>
<pdfrwt beam="1">  1       21 0.16017943E+00 0.23579068E+03</pdfrwt>
<pdfrwt beam="2">  1       21 0.53876744E-01 0.23579068E+03</pdfrwt>
<totfact> 0.78280774E+02</totfact>
</mgrwt>
</event>
<event>
 5    0  0.1257040E+001  0.2629825E+03  0.7546771E-02  0.1105364E+00
         21   -1    0    0  503  501  0.00000000000E+00  0.00000000000E+00  0.57627032112E+03  0.57627032112E+03  0.00000000000E+00 0.  1.
         21   -1    0    0  504  502 -0.00000000000E+00 -0.00000000000E+00 -0.21120425824E+03  0.21120425824E+03  0.00000000000E+00 0. -1.
         25    1    1    2    0    0  0.74505780221E+02 -0.22721399091E+03 -0.24730254660E+02  0.27094998514E+03  0.12500000000E+03 0.  0.
         21    1    1    2  503  502  0.23769467859E+02  0.19124185972E+02 -0.26789926236E+02  0.40600766484E+02  0.00000000000E+00 0.  1.
         21    1    1    2  504  501 -0.98275248080E+02  0.20808980493E+03  0.41658624378E+03  0.47592382774E+03  0.00000000000E+00 0.  1.
<mgrwt>
<rscale>  4 0.26298253E+03</rscale>
<asrwt>0</asrwt>
<pdfrwt beam="1">  1       21 0.88656972E-01 0.26298253E+03</pdfrwt>
<pdfrwt beam="2">  1       21 0.32492963E-01 0.26298253E+03</pdfrwt>
<totfact> 0.94910705E+03</totfact>
</mgrwt>
</event>
<event>
 5    0  0.1257040E+001  0.3374135E+03  0.7546771E-02  0.1067903E+00
         21   -1    0    0  502  501  0.00000000000E+00  0.00000000000E+00  0.85863641126E+03  0.85863641126E+03  0.00000000000E+00 0. -1.
         21   -1    0    0  504  502 -0.00000000000E+00 -0.00000000000E+00 -0.34362093864E+03  0.34362093864E+03  0.00000000000E+00 0.  1.
         25    1    1    2    0    0  0.14741637749E+03 -0.30102982514E+03  0.69405954794E+03  0.78082917470E+03  0.12500000000E+03 0.  0.
         21    1    1    2  503  501  0.24760914098E+01  0.28510828831E+02  0.33997239404E+02  0.44438841978E+02  0.00000000000E+00 0. -1.
         21    1    1    2  504  503 -0.14989246890E+03  0.27251899631E+03 -0.21304131473E+03  0.37698933322E+03  0.00000000000E+00 0.  1.
<mgrwt>
<rscale>  4 0.33741347E+03</rscale>
<asrwt>0</asrwt>
<pdfrwt beam="1">  1       21 0.13209791E+00 0.33741347E+03</pdfrwt>
<pdfrwt beam="2">  1       21 0.52864760E-01 0.33741347E+03</pdfrwt>
<totfact> 0.12632808E+03</totfact>
</mgrwt>
</event>
<event>
 5    0  0.1257040E+001  0.2385103E+03  0.7546771E-02  0.1120789E+00
         21   -1    0    0  502  501  0.00000000000E+00  0.00000000000E+00  0.18783631809E+04  0.18783631809E+04  0.00000000000E+00 0.  1.
         21   -1    0    0  504  502 -0.00000000000E+00 -0.00000000000E+00 -0.14022419707E+03  0.14022419707E+03  0.00000000000E+00 0.  1.
         25    1    1    2    0    0 -0.19481394303E+03 -0.94506237992E+02  0.96903035130E+01  0.25020552233E+03  0.12500000000E+03 0.  0.
         21    1    1    2  503  501  0.17509483668E+03  0.10173115997E+03  0.17346925111E+04  0.17464723126E+04  0.00000000000E+00 0.  1.
         21    1    1    2  504  503  0.19719106349E+02 -0.72249219791E+01 -0.62438307732E+01  0.21909543025E+02  0.00000000000E+00 0.  1.
<mgrwt>
<rscale>  4 0.23851033E+03</rscale>
<asrwt>0</asrwt>
<pdfrwt beam="1">  1       21 0.28897893E+00 0.23851033E+03</pdfrwt>
<pdfrwt beam="2">  1       21 0.21572955E-01 0.23851033E+03</pdfrwt>
<totfact> 0.74769592E+02</totfact>
</mgrwt>
</event>
<event>
 5    0  0.1257040E+001  0.2434116E+03  0.7546771E-02  0.1117541E+00
         21   -1    0    0  504  501  0.00000000000E+00  0.00000000000E+00  0.42705283655E+02  0.42705283655E+02  0.00000000000E+00 0. -1.
         21   -1    0    0  501  502 -0.00000000000E+00 -0.00000000000E+00 -0.18436998586E+04  0.18436998586E+04  0.00000000000E+00 0. -1.
         25    1    1    2    0    0  0.20548855424E+03 -0.14213031126E+02 -0.13342619629E+04  0.13558420047E+04  0.12500000000E+03 0.  0.
         21    1    1    2  503  502  0.11053377056E+02  0.28229709181E+02 -0.28787995135E+02  0.41807203789E+02  0.00000000000E+00 0.  1.
         21    1    1    2  504  503 -0.21654193130E+03 -0.14016678055E+02 -0.43794461695E+03  0.48875593377E+03  0.00000000000E+00 0. -1.
<mgrwt>
<rscale>  4 0.24341159E+03</rscale>
<asrwt>0</asrwt>
<pdfrwt beam="1">  1       21 0.65700460E-02 0.24341159E+03</pdfrwt>
<pdfrwt beam="2">  1       21 0.28364603E+00 0.24341159E+03</pdfrwt>
<totfact> 0.68092865E+03</totfact>
</mgrwt>
</event>
<event>
 5    0  0.1257040E+001  0.2486255E+03  0.7546771E-02  0.1114177E+00
         21   -1    0    0  504  501  0.00000000000E+00  0.00000000000E+00  0.12110214453E+03  0.12110214453E+03  0.00000000000E+00 0.  1.
         21   -1    0    0  503  502 -0.00000000000E+00 -0.00000000000E+00 -0.53929017918E+03  0.53929017918E+03  0.00000000000E+00 0.  1.
         25    1    1    2    0    0 -0.52890451087E+02 -0.22455973007E+03 -0.22368045270E+03  0.34479329620E+03  0.12500000000E+03 0.  0.
         21    1    1    2  503  501  0.33166287613E+02  0.20120138965E+03 -0.19872867746E+03  0.28473687692E+03  0.00000000000E+00 0.  1.
         21    1    1    2  504  502  0.19724163474E+02  0.23358340418E+02  0.42210955104E+01  0.30862150592E+02  0.00000000000E+00 0. -1.
<mgrwt>
<rscale>  4 0.24862553E+03</rscale>
<asrwt>0</asrwt>
<pdfrwt beam="1">  1       21 0.18631099E-01 0.24862553E+03</pdfrwt>
<pdfrwt beam="2">  1       21 0.82967722E-01 0.24862553E+03</pdfrwt>
<totfact> 0.32426840E+04</totfact>
</mgrwt>
</event>
<event>
 5    0  0.1257040E+001  0.2095109E+03  0.7546771E-02  0.1141954E+00
         21   -1    0    0  503  501  0.00000000000E+00  0.00000000000E+00  0.23921835173E+03  0.23921835173E+03  0.00000000000E+00 0. -1.
         21   -1    0    0  504  502 -0.00000000000E+00 -0.00000000000E+00 -0.51678375837E+03  0.51678375837E+03  0.00000000000E+00 0. -1.
         25    1    1    2    0    0  0.18058386042E+03 -0.15394981660E+03 -0.30923472814E+03  0.40934361332E+03  0.12500000000E+03 0.  0.
         21    1    1    2  503  502 -0.62190945225E+02  0.44700182600E+02 -0.10870964333E+03  0.13297972231E+03  0.00000000000E+00 0. -1.
         21    1    1    2  504  501 -0.11839291520E+03  0.10924963400E+03  0.14037896482E+03  0.21367877448E+03  0.00000000000E+00 0. -1.
<mgrwt>
<rscale>  4 0.20951085E+03</rscale>
<asrwt>0</asrwt>
<pdfrwt beam="1">  1       21 0.36802824E-01 0.20951085E+03</pdfrwt>
<pdfrwt beam="2">  1       21 0.79505193E-01 0.20951085E+03</pdfrwt>
<totfact> 0.98168531E+03</totfact>
</mgrwt>
</event>
<event>
 5    0  0.1257040E+001  0.3854593E+03  0.7546771E-02  0.1048934E+00
         21   -1    0    0  504  501  0.00000000000E+00  0.00000000000E+00  0.23185323011E+04  0.23185323011E+04  0.00000000000E+00 0.  1.
         21   -1    0    0  503  502 -0.00000000000E+00 -0.00000000000E+00 -0.12839214782E+03  0.12839214782E+03  0.00000000000E+00 0.  1.
         25    1    1    2    0    0 -0.35300812105E+03  0.10967391742E+03  0.32809345168E+03  0.50981704044E+03  0.12500000000E+03 0.  0.
         21    1    1    2  503  501 -0.65529765892E+01 -0.51465057352E+02  0.14318953609E+02  0.53820312735E+02  0.00000000000E+00 0.  1.
         21    1    1    2  504  502  0.35956109764E+03 -0.58208860067E+02  0.18477277480E+04  0.18832870958E+04  0.00000000000E+00 0.  1.
<mgrwt>
<rscale>  4 0.38545929E+03</rscale>
<asrwt>0</asrwt>
<pdfrwt beam="1">  1       21 0.35669725E+00 0.38545929E+03</pdfrwt>
<pdfrwt beam="2">  1       21 0.19752640E-01 0.38545929E+03</pdfrwt>
<totfact> 0.30587389E+02</totfact>
</mgrwt>
</event>
<event>
 5    0  0.1257040E+001  0.3775556E+03  0.7546771E-02  0.1051841E+00
         21   -1    0    0  502  501  0.00000000000E+00  0.00000000000E+00  0.53162528461E+03  0.53162528461E+03  0.00000000000E+00 0.  1.
         21   -1    0    0  504  502 -0.00000000000E+00 -0.00000000000E+00 -0.32225628767E+03  0.32225628767E+03  0.00000000000E+00 0.  1.
         25    1    1    2    0    0  0.12900431289E+03 -0.34452931865E+03 -0.29279279134E+02  0.38964707151E+03  0.12500000000E+03 0.  0.
         21    1    1    2  503  501 -0.27669211956E+02  0.20419497934E+02  0.84644166920E+02  0.91362881849E+02  0.00000000000E+00 0.  1.
         21    1    1    2  504  503 -0.10133510094E+03  0.32410982071E+03  0.15400410915E+03  0.37287161893E+03  0.00000000000E+00 0.  1.
<mgrwt>
<rscale>  4 0.37755560E+03</rscale>
<asrwt>0</asrwt>
<pdfrwt beam="1">  1       21 0.81788505E-01 0.37755560E+03</pdfrwt>
<pdfrwt beam="2">  1       21 0.49577890E-01 0.37755560E+03</pdfrwt>
<totfact> 0.45723856E+03</totfact>
</mgrwt>
</event>
<event>
 5    0  0.1257040E+001  0.2452130E+03  0.7546771E-02  0.1116368E+00
         21   -1    0    0  503  501  0.00000000000E+00  0.00000000000E+00  0.22916974263E+03  0.22916974263E+03  0.00000000000E+00 0. -1.
         21   -1    0    0  504  502 -0.00000000000E+00 -0.00000000000E+00 -0.51290658003E+03  0.51290658003E+03  0.00000000000E+00 0. -1.
         25    1    1    2    0    0  0.20382645241E+03 -0.31803083325E+02  0.86742747423E+02  0.25633174411E+03  0.12500000000E+03 0.  0.
         21    1    1    2  503  502 -0.21205182095E+03 -0.14268798909E+01 -0.39173586621E+03  0.44544921105E+03  0.00000000000E+00 0. -1.
         21    1    1    2  504  501  0.82253685427E+01  0.33229963216E+02  0.21256281386E+02  0.40295367493E+02  0.00000000000E+00 0.  1.
<mgrwt>
<rscale>  4 0.24521301E+03</rscale>
<asrwt>0</asrwt>
<pdfrwt beam="1">  1       21 0.35256884E-01 0.24521301E+03</pdfrwt>
<pdfrwt beam="2">  1       21 0.78908704E-01 0.24521301E+03</pdfrwt>
<totfact> 0.10646270E+04</totfact>
</mgrwt>
</event>
<event>
 5    0  0.1257040E+001  0.2034207E+03  0.7546771E-02  0.1146885E+00
         21   -1    0    0  502  501  0.00000000000E+00  0.00000000000E+00  0.23948647777E+03  0.23948647777E+03  0.00000000000E+00 0.  1.
         21   -1    0    0  504  502 -0.00000000000E+00 -0.00000000000E+00 -0.16286191079E+04  0.16286191079E+04  0.00000000000E+00 0.  1.
         25    1    1    2    0    0  0.15186479740E+03 -0.25011376417E+03 -0.11682019485E+04  0.12107603413E+04  0.12500000000E+03 0.  0.
         21    1    1    2  503  501 -0.11625117534E+03  0.10613064904E+03  0.17450330200E+03  0.23500947395E+03  0.00000000000E+00 0.  1.
         21    1    1    2  504  503 -0.35613622056E+02  0.14398311513E+03 -0.39543398364E+03  0.42233577037E+03  0.00000000000E+00 0. -1.
<mgrwt>
<rscale>  4 0.20342072E+03</rscale>
<asrwt>0</asrwt>
<pdfrwt beam="1">  1       21 0.36844072E-01 0.20342072E+03</pdfrwt>
<pdfrwt beam="2">  1       21 0.25055680E+00 0.20342072E+03</pdfrwt>
<totfact> 0.46231498E+02</totfact>
</mgrwt>
</event>
<event>
 5    0  0.1257040E+001  0.2954702E+03  0.7546771E-02  0.1087527E+00
         21   -1    0    0  503  501  0.00000000000E+00  0.00000000000E+00  0.91084011802E+02  0.91084011802E+02  0.00000000000E+00 0. -1.
         21   -1    0    0  504  502 -0.00000000000E+00 -0.00000000000E+00 -0.11972939808E+04  0.11972939808E+04  0.00000000000E+00 0. -1.
         25    1    1    2    0    0 -0.22040033368E+03  0.12613661531E+03 -0.45454626472E+03  0.53546620769E+03  0.12500000000E+03 0.  0.
         21    1    1    2  503  502 -0.56037973239E+02 -0.55703878537E+02 -0.23517181436E+03  0.24809062618E+03  0.00000000000E+00 0. -1.
         21    1    1    2  504  501  0.27643830692E+03 -0.70432736773E+02 -0.41649188996E+03  0.50482115877E+03  0.00000000000E+00 0. -1.
<mgrwt>
<rscale>  4 0.29547019E+03</rscale>
<asrwt>0</asrwt>
<pdfrwt beam="1">  1       21 0.14012926E-01 0.29547019E+03</pdfrwt>
<pdfrwt beam="2">  1       21 0.18419906E+00 0.29547019E+03</pdfrwt>
<totfact> 0.70419254E+03</totfact>
</mgrwt>
</event>
<event>
 5    0  0.1257040E+001  0.2381787E+03  0.7546771E-02  0.1121012E+00
         21   -1    0    0  502  501  0.00000000000E+00  0.00000000000E+00  0.67312397114E+03  0.67312397114E+03  0.00000000000E+00 0. -1.
         21   -1    0    0  504  502 -0.00000000000E+00 -0.00000000000E+00 -0.65106947162E+03  0.65106947162E+03  0.00000000000E+00 0.  1.
         25    1    1    2    0    0  0.93744178091E+02 -0.18437195352E+03  0.57355878052E+03  0.62239510192E+03  0.12500000000E+03 0.  0.
         21    1    1    2  503  501  0.68645492361E+02  0.62188806752E+02  0.20412246697E+02  0.94848885718E+02  0.00000000000E+00 0. -1.
         21    1    1    2  504  503 -0.16238967045E+03  0.12218314677E+03 -0.57191652770E+03  0.60694945513E+03  0.00000000000E+00 0.  1.
<mgrwt>
<rscale>  4 0.23817867E+03</rscale>
<asrwt>0</asrwt>
<pdfrwt beam="1">  1       21 0.10355753E+00 0.23817867E+03</pdfrwt>
<pdfrwt beam="2">  1       21 0.10016453E+00 0.23817867E+03</pdfrwt>
<totfact> 0.59024781E+02</totfact>
</mgrwt>
</event>
<event>
 5    0  0.1257040E+001  0.3096936E+03  0.7546771E-02  0.1080493E+00
         21   -1    0    0  503  501  0.00000000000E+00  0.00000000000E+00  0.14951443475E+03  0.14951443475E+03  0.00000000000E+00 0. -1.
         21   -1    0    0  504  502 -0.00000000000E+00 -0.00000000000E+00 -0.14352503401E+04  0.14352503401E+04  0.00000000000E+00 0.  1.
         25    1    1    2    0    0 -0.10775711315E+03 -0.27652941480E+03 -0.21821545747E+03  0.38900269737E+03  0.12500000000E+03 0.  0.
         21    1    1    2  503  502  0.85365477412E+02  0.26740193054E+03 -0.11110542432E+04  0.11459636070E+04  0.00000000000E+00 0.  1.
         21    1    1    2  504  501  0.22391635734E+02  0.91274842548E+01  0.43533795368E+02  0.49798470447E+02  0.00000000000E+00 0.  1.
<mgrwt>
<rscale>  4 0.30969362E+03</rscale>
<asrwt>0</asrwt>
<pdfrwt beam="1">  1       21 0.23002221E-01 0.30969362E+03</pdfrwt>
<pdfrwt beam="2">  1       21 0.22080774E+00 0.30969362E+03</pdfrwt>
<totfact> 0.15939125E+03</totfact>
</mgrwt>
</event>
<event>
 5    0  0.1257040E+001  0.2724975E+03  0.7546771E-02  0.1099859E+00
         21   -1    0    0  502  501  0.00000000000E+00  0.00000000000E+00  0.33369979118E+03  0.33369979118E+03  0.00000000000E+00 0. -1.
         21   -1    0    0  504  502 -0.00000000000E+00 -0.00000000000E+00 -0.13059114050E+04  0.13059114050E+04  0.00000000000E+00 0.  1.
         25    1    1    2    0    0 -0.10022510356E+03 -0.36891458484E+03 -0.21282032197E+03  0.45503904419E+03  0.12500000000E+03 0.  0.
         21    1    1    2  503  501  0.80342125451E+02  0.20276323887E+03  0.14690190872E+03  0.26295999496E+03  0.00000000000E+00 0. -1.
         21    1    1    2  504  503  0.19882978112E+02  0.16615134596E+03 -0.90629320056E+03  0.92161215702E+03  0.00000000000E+00 0.  1.
<mgrwt>
<rscale>  4 0.27249750E+03</rscale>
<asrwt>0</asrwt>
<pdfrwt beam="1">  1       21 0.51338429E-01 0.27249750E+03</pdfrwt>
<pdfrwt beam="2">  1       21 0.20090945E+00 0.27249750E+03</pdfrwt>
<totfact> 0.43958674E+02</totfact>
</mgrwt>
</event>
<event>
 5    0  0.1257040E+001  0.4096341E+03  0.7546771E-02  0.1040494E+00
         21   -1    0    0  504  501  0.00000000000E+00  0.00000000000E+00  0.31657715081E+03  0.31657715081E+03  0.00000000000E+00 0.  1.
         21   -1    0    0  503  502 -0.00000000000E+00 -0.00000000000E+00 -0.96492643182E+03  0.96492643182E+03  0.00000000000E+00 0.  1.
         25    1    1    2    0    0 -0.31928366469E+03  0.28230481997E+03 -0.65902350084E+03  0.79471695878E+03  0.12500000000E+03 0.  0.
         21    1    1    2  503  501  0.65778578227E+02  0.46945475056E+01 -0.69229232249E+02  0.95611436177E+02  0.00000000000E+00 0.  1.
         21    1    1    2  504  502  0.25350508647E+03 -0.28699936747E+03  0.79903452072E+02  0.39117518767E+03  0.00000000000E+00 0.  1.
<mgrwt>
<rscale>  4 0.40963407E+03</rscale>
<asrwt>0</asrwt>
<pdfrwt beam="1">  1       21 0.48704178E-01 0.40963407E+03</pdfrwt>
<pdfrwt beam="2">  1       21 0.14845022E+00 0.40963407E+03</pdfrwt>
<totfact> 0.10643465E+03</totfact>
</mgrwt>
</event>
<event>
 5    0  0.1257040E+001  0.2477959E+03  0.7546771E-02  0.1114706E+00
         21   -1    0    0  504  501  0.00000000000E+00  0.00000000000E+00  0.15261037790E+03  0.15261037790E+03  0.00000000000E+00 0. -1.
         21   -1    0    0  501  502 -0.00000000000E+00 -0.00000000000E+00 -0.62428563050E+03  0.62428563050E+03  0.00000000000E+00 0. -1.
         25    1    1    2    0    0  0.18013399063E+03  0.17111892829E+03 -0.31454440885E+03  0.41987275136E+03  0.12500000000E+03 0.  0.
         21    1    1    2  503  502 -0.12784905897E+03  0.13481804062E+02 -0.57429553574E+02  0.14080232435E+03  0.00000000000E+00 0. -1.
         21    1    1    2  504  503 -0.52284931663E+02 -0.18460073235E+03 -0.99701290178E+02  0.21622093268E+03  0.00000000000E+00 0. -1.
<mgrwt>
<rscale>  4 0.24779588E+03</rscale>
<asrwt>0</asrwt>
<pdfrwt beam="1">  1       21 0.23478520E-01 0.24779588E+03</pdfrwt>
<pdfrwt beam="2">  1       21 0.96043942E-01 0.24779588E+03</pdfrwt>
<totfact> 0.14914281E+04</totfact>
</mgrwt>
</event>
<event>
 5    0  0.1257040E+001  0.1762102E+03  0.7546771E-02  0.1171522E+00
         21   -1    0    0  502  501  0.00000000000E+00  0.00000000000E+00  0.23632375528E+03  0.23632375528E+03  0.00000000000E+00 0. -1.
         21   -1    0    0  504  502 -0.00000000000E+00 -0.00000000000E+00 -0.69592273680E+03  0.69592273680E+03  0.00000000000E+00 0. -1.
         25    1    1    2    0    0 -0.14754725290E+03 -0.16890670662E+03 -0.19240630371E+03  0.32085020350E+03  0.12500000000E+03 0.  0.
         21    1    1    2  503  501  0.86189795421E+02  0.78093657830E+02  0.14442685153E+03  0.18543574539E+03  0.00000000000E+00 0. -1.
         21    1    1    2  504  503  0.61357457475E+02  0.90813048786E+02 -0.41161952934E+03  0.42596054318E+03  0.00000000000E+00 0. -1.
<mgrwt>
<rscale>  4 0.17621021E+03</rscale>
<asrwt>0</asrwt>
<pdfrwt beam="1">  1       21 0.36357501E-01 0.17621021E+03</pdfrwt>
<pdfrwt beam="2">  1       21 0.10706503E+00 0.17621021E+03</pdfrwt>
<totfact> 0.51549181E+03</totfact>
</mgrwt>
</event>
<event>
 5    0  0.1257040E+001  0.2316899E+03  0.7546771E-02  0.1125456E+00
         21   -1    0    0  504  501  0.00000000000E+00  0.00000000000E+00  0.59359163076E+03  0.59359163076E+03  0.00000000000E+00 0. -1.
         21   -1    0    0  503  502 -0.00000000000E+00 -0.00000000000E+00 -0.22980303362E+03  0.22980303362E+03  0.00000000000E+00 0. -1.
         25    1    1    2    0    0  0.10126043484E+03 -0.21285167572E+03  0.38701208628E+03  0.47006687444E+03  0.12500000000E+03 0.  0.
         21    1    1    2  503  501 -0.57078446541E+02  0.18183180809E+03 -0.13204300963E+03  0.23185364324E+03  0.00000000000E+00 0. -1.
         21    1    1    2  504  502 -0.44181988302E+02  0.31019867631E+02  0.10881952048E+03  0.12147414670E+03  0.00000000000E+00 0. -1.
<mgrwt>
<rscale>  4 0.23168994E+03</rscale>
<asrwt>0</asrwt>
<pdfrwt beam="1">  1       21 0.91321788E-01 0.23168994E+03</pdfrwt>
<pdfrwt beam="2">  1       21 0.35354313E-01 0.23168994E+03</pdfrwt>
<totfact> 0.76256695E+03</totfact>
</mgrwt>
</event>
<event>
 5    0  0.1257040E+001  0.2672066E+03  0.7546771E-02  0.1102889E+00
         21   -1    0    0  502  501  0.00000000000E+00  0.00000000000E+00  0.63444738278E+03  0.63444738278E+03  0.00000000000E+00 0. -1.
         21   -1    0    0  504  502 -0.00000000000E+00 -0.00000000000E+00 -0.46581849225E+03  0.46581849225E+03  0.00000000000E+00 0.  1.
         25    1    1    2    0    0  0.19610445733E+02  0.22451138334E+03  0.45209585421E+03  0.52038984639E+03  0.12500000000E+03 0.  0.
         21    1    1    2  503  501  0.14360950553E+02  0.12646791440E+03  0.26140604282E+00  0.12728094361E+03  0.00000000000E+00 0. -1.
         21    1    1    2  504  503 -0.33971396286E+02 -0.35097929774E+03 -0.28372836972E+03  0.45259508503E+03  0.00000000000E+00 0.  1.
<mgrwt>
<rscale>  4 0.26720664E+03</rscale>
<asrwt>0</asrwt>
<pdfrwt beam="1">  1       21 0.97607290E-01 0.26720664E+03</pdfrwt>
<pdfrwt beam="2">  1       21 0.71664383E-01 0.26720664E+03</pdfrwt>
<totfact> 0.14383081E+03</totfact>
</mgrwt>
</event>
<event>
 5    0  0.1257040E+001  0.3019336E+03  0.7546771E-02  0.1084278E+00
         21   -1    0    0  503  501  0.00000000000E+00  0.00000000000E+00  0.14021655631E+03  0.14021655631E+03  0.00000000000E+00 0.  1.
         21   -1    0    0  504  502 -0.00000000000E+00 -0.00000000000E+00 -0.18493936584E+04  0.18493936584E+04  0.00000000000E+00 0.  1.
         25    1    1    2    0    0 -0.25491821558E+03  0.34659304802E+02 -0.42311024568E+02  0.28913627728E+03  0.12500000000E+03 0.  0.
         21    1    1    2  503  502  0.27252377644E+03 -0.46690273484E+02 -0.16507485061E+04  0.16737442519E+04  0.00000000000E+00 0.  1.
         21    1    1    2  504  501 -0.17605560866E+02  0.12030968682E+02 -0.16117571438E+02  0.26729685555E+02  0.00000000000E+00 0.  1.
<mgrwt>
<rscale>  4 0.30193365E+03</rscale>
<asrwt>0</asrwt>
<pdfrwt beam="1">  1       21 0.21571778E-01 0.30193365E+03</pdfrwt>
<pdfrwt beam="2">  1       21 0.28452210E+00 0.30193365E+03</pdfrwt>
<totfact> 0.74733928E+02</totfact>
</mgrwt>
</event>
<event>
 5    0  0.1257040E+001  0.2255604E+03  0.7546771E-02  0.1129804E+00
         21   -1    0    0  504  501  0.00000000000E+00  0.00000000000E+00  0.19207098917E+03  0.19207098917E+03  0.00000000000E+00 0. -1.
         21   -1    0    0  501  502 -0.00000000000E+00 -0.00000000000E+00 -0.35136743958E+03  0.35136743958E+03  0.00000000000E+00 0.  1.
         25    1    1    2    0    0  0.14764935845E+03 -0.16858298430E+03 -0.45175551506E+02  0.26055016043E+03  0.12500000000E+03 0.  0.
         21    1    1    2  503  502  0.12175502562E+01  0.77950471019E+02 -0.69063852816E+01  0.78265295747E+02  0.00000000000E+00 0. -1.
         21    1    1    2  504  503 -0.14886690870E+03  0.90632513286E+02 -0.10721451363E+03  0.20462297257E+03  0.00000000000E+00 0.  1.
<mgrwt>
<rscale>  4 0.22556043E+03</rscale>
<asrwt>0</asrwt>
<pdfrwt beam="1">  1       21 0.29549383E-01 0.22556043E+03</pdfrwt>
<pdfrwt beam="2">  1       21 0.54056529E-01 0.22556043E+03</pdfrwt>
<totfact> 0.34915132E+04</totfact>
</mgrwt>
</event>
<event>
 5    0  0.1257040E+001  0.3009502E+03  0.7546771E-02  0.1084767E+00
         21   -1    0    0  503  501  0.00000000000E+00  0.00000000000E+00  0.13463933896E+04  0.13463933896E+04  0.00000000000E+00 0. -1.
         21   -1    0    0  504  502 -0.00000000000E+00 -0.00000000000E+00 -0.15029053957E+03  0.15029053957E+03  0.00000000000E+00 0. -1.
         25    1    1    2    0    0  0.18575748180E+03  0.20478635400E+03  0.11685932577E+04  0.12073435695E+04  0.12500000000E+03 0.  0.
         21    1    1    2  503  502 -0.17112672458E+03 -0.19023523884E+03  0.11709634610E+01  0.25588116991E+03  0.00000000000E+00 0. -1.
         21    1    1    2  504  501 -0.14630757225E+02 -0.14551115166E+02  0.26338628859E+02  0.33459189765E+02  0.00000000000E+00 0. -1.
<mgrwt>
<rscale>  4 0.30095019E+03</rscale>
<asrwt>0</asrwt>
<pdfrwt beam="1">  1       21 0.20713744E+00 0.30095019E+03</pdfrwt>
<pdfrwt beam="2">  1       21 0.23121622E-01 0.30095019E+03</pdfrwt>
<totfact> 0.19392922E+03</totfact>
</mgrwt>
</event>
<event>
 5    0  0.1257040E+001  0.3279376E+03  0.7546771E-02  0.1072053E+00
         21   -1    0    0  502  501  0.00000000000E+00  0.00000000000E+00  0.90425244991E+03  0.90425244991E+03  0.00000000000E+00 0. -1.
         21   -1    0    0  504  502 -0.00000000000E+00 -0.00000000000E+00 -0.71816236710E+03  0.71816236710E+03  0.00000000000E+00 0. -1.
         25    1    1    2    0    0 -0.11708816654E+03 -0.26707092393E+03  0.79985346906E+03  0.86048073141E+03  0.12500000000E+03 0.  0.
         21    1    1    2  503  501  0.23903811670E+02 -0.21990690902E+02  0.33683382593E+02  0.46792659271E+02  0.00000000000E+00 0. -1.
         21    1    1    2  504  503  0.93184354873E+02  0.28906161484E+03 -0.64744676885E+03  0.71514142633E+03  0.00000000000E+00 0. -1.
<mgrwt>
<rscale>  4 0.32793756E+03</rscale>
<asrwt>0</asrwt>
<pdfrwt beam="1">  1       21 0.13911576E+00 0.32793756E+03</pdfrwt>
<pdfrwt beam="2">  1       21 0.11048652E+00 0.32793756E+03</pdfrwt>
<totfact> 0.20660925E+02</totfact>
</mgrwt>
</event>
<event>
 5    0  0.1257040E+001  0.4857668E+03  0.7546771E-02  0.1017562E+00
         21   -1    0    0  502  501  0.00000000000E+00  0.00000000000E+00  0.58562278536E+03  0.58562278536E+03  0.00000000000E+00 0.  1.
         21   -1    0    0  504  502 -0.00000000000E+00 -0.00000000000E+00 -0.74922429123E+03  0.74922429123E+03  0.00000000000E+00 0.  1.
         25    1    1    2    0    0  0.50109868960E+02 -0.48858660881E+03  0.26587210723E+03  0.57231184740E+03  0.12500000000E+03 0.  0.
         21    1    1    2  503  501 -0.38990946323E+02  0.23802603421E+02  0.67816192607E+02  0.81767315013E+02  0.00000000000E+00 0. -1.
         21    1    1    2  504  503 -0.11118922637E+02  0.46478400539E+03 -0.49728980570E+03  0.68076791417E+03  0.00000000000E+00 0.  1.
<mgrwt>
<rscale>  4 0.48576683E+03</rscale>
<asrwt>0</asrwt>
<pdfrwt beam="1">  1       21 0.90095813E-01 0.48576683E+03</pdfrwt>
<pdfrwt beam="2">  1       21 0.11526528E+00 0.48576683E+03</pdfrwt>
<totfact> 0.50338354E+02</totfact>
</mgrwt>
</event>
<event>
 5    0  0.1257040E+001  0.2100906E+03  0.7546771E-02  0.1141494E+00
         21   -1    0    0  502  501  0.00000000000E+00  0.00000000000E+00  0.50253064126E+03  0.50253064126E+03  0.00000000000E+00 0.  1.
         21   -1    0    0  504  502 -0.00000000000E+00 -0.00000000000E+00 -0.16193567907E+03  0.16193567907E+03  0.00000000000E+00 0. -1.
         25    1    1    2    0    0  0.18660661319E+03  0.88520955689E+02  0.34142809008E+03  0.41815801843E+03  0.12500000000E+03 0.  0.
         21    1    1    2  503  501 -0.29130226129E+02 -0.45056290999E+02  0.51896101125E+02  0.74644790474E+02  0.00000000000E+00 0. -1.
         21    1    1    2  504  503 -0.15747638706E+03 -0.43464664690E+02 -0.52729229021E+02  0.17166351142E+03  0.00000000000E+00 0. -1.
<mgrwt>
<rscale>  4 0.21009060E+03</rscale>
<asrwt>0</asrwt>
<pdfrwt beam="1">  1       21 0.77312406E-01 0.21009060E+03</pdfrwt>
<pdfrwt beam="2">  1       21 0.24913182E-01 0.21009060E+03</pdfrwt>
<totfact> 0.22418195E+04</totfact>
</mgrwt>
</event>
<event>
 5    0  0.1257040E+001  0.2186971E+03  0.7546771E-02  0.1134858E+00
         21   -1    0    0  503  501  0.00000000000E+00  0.00000000000E+00  0.15061387821E+04  0.15061387821E+04  0.00000000000E+00 0. -1.
         21   -1    0    0  504  502 -0.00000000000E+00 -0.00000000000E+00 -0.17951014845E+03  0.17951014845E+03  0.00000000000E+00 0. -1.
         25    1    1    2    0    0  0.18802225031E+03  0.13130755756E+03  0.14869063308E+02  0.26161064644E+03  0.12500000000E+03 0.  0.
         21    1    1    2  503  502 -0.47224042238E+02 -0.23848477291E+02 -0.36449113289E+02  0.64244827761E+02  0.00000000000E+00 0.  1.
         21    1    1    2  504  501 -0.14079820808E+03 -0.10745908027E+03  0.13482086836E+04  0.13597934564E+04  0.00000000000E+00 0. -1.
<mgrwt>
<rscale>  4 0.21869713E+03</rscale>
<asrwt>0</asrwt>
<pdfrwt beam="1">  1       21 0.23171365E+00 0.21869713E+03</pdfrwt>
<pdfrwt beam="2">  1       21 0.27616947E-01 0.21869713E+03</pdfrwt>
<totfact> 0.10375008E+03</totfact>
</mgrwt>
</event>
<event>
 5    0  0.1257040E+001  0.2600246E+03  0.7546771E-02  0.1107128E+00
         21   -1    0    0  504  501  0.00000000000E+00  0.00000000000E+00  0.14624422390E+03  0.14624422390E+03  0.00000000000E+00 0. -1.
         21   -1    0    0  503  502 -0.00000000000E+00 -0.00000000000E+00 -0.73706017427E+03  0.73706017427E+03  0.00000000000E+00 0. -1.
         25    1    1    2    0    0  0.23432541287E+03 -0.88502891325E+02 -0.10159574957E+03  0.29780506581E+03  0.12500000000E+03 0.  0.
         21    1    1    2  503  501 -0.42654249270E+02  0.21590230567E+02 -0.31312307971E+03  0.31675161576E+03  0.00000000000E+00 0. -1.
         21    1    1    2  504  502 -0.19167116360E+03  0.66912660758E+02 -0.17609712109E+03  0.26874771661E+03  0.00000000000E+00 0. -1.
<mgrwt>
<rscale>  4 0.26002457E+03</rscale>
<asrwt>0</asrwt>
<pdfrwt beam="1">  1       21 0.22499112E-01 0.26002457E+03</pdfrwt>
<pdfrwt beam="2">  1       21 0.11339387E+00 0.26002457E+03</pdfrwt>
<totfact> 0.10762157E+04</totfact>
</mgrwt>
</event>
<event>
 5    0  0.1257040E+001  0.4422036E+03  0.7546771E-02  0.1030073E+00
         21   -1    0    0  502  501  0.00000000000E+00  0.00000000000E+00  0.33490661037E+03  0.33490661037E+03  0.00000000000E+00 0.  1.
         21   -1    0    0  504  502 -0.00000000000E+00 -0.00000000000E+00 -0.85717426517E+03  0.85717426517E+03  0.00000000000E+00 0.  1.
         25    1    1    2    0    0 -0.30445950794E+02  0.42307455453E+03  0.80465664760E+02  0.44946496839E+03  0.12500000000E+03 0.  0.
         21    1    1    2  503  501  0.46887185325E+02 -0.37034691761E+03 -0.48038742547E+03  0.60838090542E+03  0.00000000000E+00 0.  1.
         21    1    1    2  504  503 -0.16441234531E+02 -0.52727636916E+02 -0.12234589410E+03  0.13423500173E+03  0.00000000000E+00 0. -1.
<mgrwt>
<rscale>  4 0.44220361E+03</rscale>
<asrwt>0</asrwt>
<pdfrwt beam="1">  1       21 0.51524094E-01 0.44220361E+03</pdfrwt>
<pdfrwt beam="2">  1       21 0.13187296E+00 0.44220361E+03</pdfrwt>
<totfact> 0.12743614E+03</totfact>
</mgrwt>
</event>
<event>
 5    0  0.1257040E+001  0.2229438E+03  0.7546771E-02  0.1131707E+00
         21   -1    0    0  504  501  0.00000000000E+00  0.00000000000E+00  0.12776842296E+03  0.12776842296E+03  0.00000000000E+00 0.  1.
         21   -1    0    0  503  502 -0.00000000000E+00 -0.00000000000E+00 -0.15294012424E+04  0.15294012424E+04  0.00000000000E+00 0.  1.
         25    1    1    2    0    0  0.21433440986E+03  0.17092971656E+02 -0.12191985900E+04  0.12443076833E+04  0.12500000000E+03 0.  0.
         21    1    1    2  503  501 -0.12122134203E+03 -0.85979456107E+02 -0.24094831662E+03  0.28309569392E+03  0.00000000000E+00 0.  1.
         21    1    1    2  504  502 -0.93113067834E+02  0.68886484451E+02  0.58514087146E+02  0.12976628813E+03  0.00000000000E+00 0.  1.
<mgrwt>
<rscale>  4 0.22294375E+03</rscale>
<asrwt>0</asrwt>
<pdfrwt beam="1">  1       21 0.19656680E-01 0.22294375E+03</pdfrwt>
<pdfrwt beam="2">  1       21 0.23529251E+00 0.22294375E+03</pdfrwt>
<totfact> 0.18764615E+03</totfact>
</mgrwt>
</event>
<event>
 5    0  0.1257040E+001  0.3784833E+03  0.7546771E-02  0.1051496E+00
         21   -1    0    0  502  501  0.00000000000E+00  0.00000000000E+00  0.10553718701E+04  0.10553718701E+04  0.00000000000E+00 0.  1.
         21   -1    0    0  504  502 -0.00000000000E+00 -0.00000000000E+00 -0.51046103697E+03  0.51046103697E+03  0.00000000000E+00 0.  1.
         25    1    1    2    0    0  0.98367436257E+01 -0.35573304378E+03  0.93074905466E+03  0.10042716578E+04  0.12500000000E+03 0.  0.
         21    1    1    2  503  501 -0.75814696290E+01 -0.19012616469E+02  0.39485737946E+01  0.20845850948E+02  0.00000000000E+00 0. -1.
         21    1    1    2  504  503 -0.22552739968E+01  0.37474566025E+03 -0.38978679533E+03  0.54071539829E+03  0.00000000000E+00 0.  1.
<mgrwt>
<rscale>  4 0.37848332E+03</rscale>
<asrwt>0</asrwt>
<pdfrwt beam="1">  1       21 0.16236490E+00 0.37848332E+03</pdfrwt>
<pdfrwt beam="2">  1       21 0.78532468E-01 0.37848332E+03</pdfrwt>
<totfact> 0.29625502E+02</totfact>
</mgrwt>
</event>
<event>
 5    0  0.1257040E+001  0.2393372E+03  0.7546771E-02  0.1120235E+00
         21   -1    0    0  503  501  0.00000000000E+00  0.00000000000E+00  0.62687865653E+03  0.62687865653E+03  0.00000000000E+00 0. -1.
         21   -1    0    0  504  502 -0.00000000000E+00 -0.00000000000E+00 -0.12352675780E+03  0.12352675780E+03  0.00000000000E+00 0. -1.
         25    1    1    2    0    0  0.13675400312E+03 -0.14746565627E+03  0.27044459666E+03  0.35946217744E+03  0.12500000000E+03 0.  0.
         21    1    1    2  503  502  0.30621576496E+02  0.23840948177E+02 -0.34630129670E+02  0.52012668054E+02  0.00000000000E+00 0. -1.
         21    1    1    2  504  501 -0.16737557962E+03  0.12362470810E+03  0.26753743175E+03  0.33893056883E+03  0.00000000000E+00 0. -1.
<mgrwt>
<rscale>  4 0.23933721E+03</rscale>
<asrwt>0</asrwt>
<pdfrwt beam="1">  1       21 0.96442869E-01 0.23933721E+03</pdfrwt>
<pdfrwt beam="2">  1       21 0.19004117E-01 0.23933721E+03</pdfrwt>
<totfact> 0.22111297E+04</totfact>
</mgrwt>
</event>
