<event>
 5    0  0.1911311E+001  0.2697510E+03  0.7546771E-02  0.1101552E+00
         21   -1    0    0  503  501  0.00000000000E+00  0.00000000000E+00  0.13164011975E+03  0.13164011975E+03  0.00000000000E+00 0.  1.
         21   -1    0    0  504  502 -0.00000000000E+00 -0.00000000000E+00 -0.55161160674E+03  0.55161160674E+03  0.00000000000E+00 0.  1.
         25    1    1    2    0    0  0.19277371893E+03  0.13961108672E+03 -0.19743102894E+03  0.33355205506E+03  0.12500000000E+03 0.  0.
         21    1    1    2  503  502 -0.12017649651E+03 -0.20744187437E+02 -0.14784136061E+03  0.19165014880E+03  0.00000000000E+00 0.  1.
         21    1    1    2  504  501 -0.72597222418E+02 -0.11886689928E+03 -0.74699097440E+02  0.15804952263E+03  0.00000000000E+00 0.  1.
<mgrwt>
<rscale>  4 0.26952437E+03</rscale>
<asrwt>0</asrwt>
<pdfrwt beam="1">  1       21 0.20252326E-01 0.26975101E+03</pdfrwt>
<pdfrwt beam="2">  1       21 0.84863323E-01 0.26975101E+03</pdfrwt>
<totfact> 0.26081922E+04</totfact>
</mgrwt>
</event>
<event>
 5    0  0.1911311E+001  0.2150235E+03  0.7546771E-02  0.1137649E+00
         21   -1    0    0  502  501  0.00000000000E+00  0.00000000000E+00  0.35161038660E+03  0.35161038660E+03  0.00000000000E+00 0. -1.
         21   -1    0    0  504  502 -0.00000000000E+00 -0.00000000000E+00 -0.24376198536E+03  0.24376198536E+03  0.00000000000E+00 0. -1.
         25    1    1    2    0    0 -0.21965994961E+03  0.51267949945E+02  0.15628373205E+02  0.25835661827E+03  0.12500000000E+03 0.  0.
         21    1    1    2  503  501  0.16028304865E+03 -0.21316421151E+02  0.17004312766E+03  0.23464805723E+03  0.00000000000E+00 0. -1.
         21    1    1    2  504  503  0.59376900957E+02 -0.29951528794E+02 -0.77823099627E+02  0.10236769647E+03  0.00000000000E+00 0. -1.
<mgrwt>
<rscale>  4 0.21502352E+03</rscale>
<asrwt>0</asrwt>
<pdfrwt beam="1">  1       21 0.54093906E-01 0.21502352E+03</pdfrwt>
<pdfrwt beam="2">  1       21 0.37501844E-01 0.21502352E+03</pdfrwt>
<totfact> 0.21869371E+04</totfact>
</mgrwt>
</event>
<event>
 5    0  0.1911311E+001  0.2553743E+03  0.7546771E-02  0.1109955E+00
         21   -1    0    0  504  501  0.00000000000E+00  0.00000000000E+00  0.10827663664E+04  0.10827663664E+04  0.00000000000E+00 0. -1.
         21   -1    0    0  503  502 -0.00000000000E+00 -0.00000000000E+00 -0.64786359353E+02  0.64786359353E+02  0.00000000000E+00 0. -1.
         25    1    1    2    0    0 -0.14619978883E+03 -0.15795784260E+03  0.58313696271E+03  0.63403373378E+03  0.12500000000E+03 0.  0.
         21    1    1    2  503  501 -0.13221462949E+01 -0.20205153906E+02 -0.81173959120E+00  0.20264630180E+02  0.00000000000E+00 0.  1.
         21    1    1    2  504  502  0.14752193512E+03  0.17816299651E+03  0.43565478393E+03  0.49325436179E+03  0.00000000000E+00 0. -1.
<mgrwt>
<rscale>  4 0.25537429E+03</rscale>
<asrwt>0</asrwt>
<pdfrwt beam="1">  1       21 0.16657943E+00 0.25537429E+03</pdfrwt>
<pdfrwt beam="2">  1       21 0.99671330E-02 0.25537429E+03</pdfrwt>
<totfact> 0.17691155E+04</totfact>
</mgrwt>
</event>
