<LesHouchesEvents version="3.0">
  <!--
  <scalesfunctionalform>
    muR  H_T/2 := sum_i mT(i)/2, i=final state
    muF1 H_T/2 := sum_i mT(i)/2, i=final state
    muF2 H_T/2 := sum_i mT(i)/2, i=final state
    QES  H_T/2 := sum_i mT(i)/2, i=final state
  </scalesfunctionalform>
HERWIG6   
  -->
  <header>
       98
  </header>
  <init>
   2212   2212 0.65000000D+04 0.65000000D+04 -1 -1   247000   247000 -3   1
 0.25800625D-01 0.62186482D-03 0.57005756D-03     66
  </init>
  <event>
  5     66 0.57005756E-03 0.20663524E+02 0.75467711E-02 0.11701036E+00
        2 -1    0    0  502    0 0.00000000E+00 0.00000000E+00 0.36788873E+03 0.36788887E+03 0.32000000E+00 0.0000E+00 0.9000E+01
       -2 -1    0    0    0  501 0.00000000E+00 0.00000000E+00 -.50232594E+02 0.50233613E+02 0.32000000E+00 0.0000E+00 0.9000E+01
       25  1    1    2    0    0 0.67757819E+01 0.30446181E+01 0.13996382E+03 0.18780322E+03 0.12500000E+03 0.0000E+00 0.9000E+01
       23  1    1    2    0    0 0.13460210E+02 0.11261769E+01 0.58125958E+02 0.10897855E+03 0.91188000E+02 0.0000E+00 0.9000E+01
       21  1    1    2  502  501 -.20235992E+02 -.41707950E+01 0.11956636E+03 0.12134071E+03 0.75000000E+00 0.0000E+00 0.9000E+01
#aMCatNLO 1  0  0  2  2 0.10018066D+03 0.00000000D+00  -5  6  0 0.00000000D+00 0.00000000D+00 0.00000000D+00 0.00000000D+00 0.00000000D+00
  <mgrwgt>
 0.1293289193D+00    5    4    0
 0.135942073265010D+03 0.000000000000000D+00 0.000000000000000D+00 0.135942073265010D+03
 0.135942073265010D+03 0.000000000000000D+00 0.000000000000000D+00 -.135942073265010D+03
 0.125290227267563D+03 0.677697395151809D+01 0.304486378240556D+01 -.417641920363866D+01
 0.996841982734474D+02 0.134611582813650D+02 0.112637239645758D+01 -.379370075832097D+02
 0.469097209890099D+02 -.202381322328831D+02 -.417123617886314D+01 0.421134267868484D+02
 0.000000000000000D+00 -.000000000000000D+00 0.000000000000000D+00 -.000000000000000D+00
 0.181883547632633D+03 0.000000000000000D+00 0.000000000000000D+00 0.181883547632633D+03
 0.212676362643012D+03 0.000000000000000D+00 0.000000000000000D+00 -.212676362643012D+03
 0.134500189152925D+03 0.395814240510551D+02 -.296844955304716D+02 -.417641920363866D+01
 0.109454032677021D+03 0.398696176681641D+02 -.252216368994602D+02 -.379370075832097D+02
 0.457993853156468D+02 -.853149850309493D+01 -.158510729243019D+02 0.421134267868484D+02
 0.104806303130052D+03 -.709195432161243D+02 0.707572053542338D+02 -.307928150103789D+02
 0.135942073265010D+03 0.000000000000000D+00 0.000000000000000D+00 0.135942073265010D+03
 0.135942073265010D+03 0.000000000000000D+00 0.000000000000000D+00 -.135942073265010D+03
 0.125290227267563D+03 0.677697395151809D+01 0.304486378240556D+01 -.417641920363866D+01
 0.996841982734474D+02 0.134611582813650D+02 0.112637239645758D+01 -.379370075832097D+02
 0.000000000000000D+00 -.000000000000000D+00 0.000000000000000D+00 -.000000000000000D+00
 0.469097209890099D+02 -.202381322328831D+02 -.417123617886314D+01 0.421134267868484D+02
 0.181883547632633D+03 0.000000000000000D+00 0.000000000000000D+00 0.181883547632633D+03
 0.212676362643012D+03 0.000000000000000D+00 0.000000000000000D+00 -.212676362643012D+03
 0.134500189152925D+03 0.395814240510551D+02 -.296844955304716D+02 -.417641920363866D+01
 0.109454032677021D+03 0.398696176681641D+02 -.252216368994602D+02 -.379370075832097D+02
 0.104806303130052D+03 -.709195432161243D+02 0.707572053542338D+02 -.307928150103789D+02
 0.457993853156468D+02 -.853149850309493D+01 -.158510729243019D+02 0.421134267868484D+02
0.921847011794D-04 0.000000000000D+00 0.000000000000D+00 0.387505891636D-04 0.000000000000D+00  6 2 -2 25 23 21 21 2 0.56598355D-01 0.77281805D-02 0.14169000D+05 0.14169000D+05 0.14169000D+05 0.12506542D+01  1  2  2  2  6  2       -2 0.118766186894D+00 0.100000000000D+01
0.120628778828D-04 0.486472033188D-05 -.354013525318D-06 0.387505891636D-04 0.000000000000D+00  6 2 -2 25 23 21 21 4 0.56598355D-01 0.77281805D-02 0.14169000D+05 0.14169000D+05 0.14169000D+05 0.12506542D+01  1  2  3  2  6  2       -2 0.243085686674D-01 0.100000000000D+01
0.208893129992D-05 0.000000000000D+00 0.000000000000D+00 0.387505891636D-04 0.000000000000D+00  6 2 -2 25 23 21 21 4 0.56598355D-01 0.77281805D-02 0.14169000D+05 0.14169000D+05 0.14169000D+05 0.12506542D+01  1  2 15  2  6  2       -2 0.420952035153D-02 0.100000000000D+01
-.338029378239D-04 0.000000000000D+00 -.494403074379D-04 0.387505891636D-04 0.000000000000D+00  6 2 -2 25 23 21 21 4 0.56598355D-01 0.16076386D-01 0.14169000D+05 0.14169000D+05 0.14169000D+05 0.12506542D+01  1  2  5  2  6  2       -2 -.213581733712D-01 0.100000000000D+01
0.369197236526D-06 0.000000000000D+00 -.391600737876D-05 0.387505891636D-04 0.000000000000D+00  6 2 21 25 23 2 21 4 0.56598355D-01 0.16076386D-01 0.14169000D+05 0.14169000D+05 0.14169000D+05 0.12506542D+01  3  4  5  5  5  2       -2 0.340281674798D-02 0.100000000000D+01
  </mgrwgt>
  </event>
  <event>
  5     66 0.57005756E-03 0.38530017E+02 0.75467711E-02 0.11808425E+00
        2 -1    0    0  502    0 0.00000000E+00 0.00000000E+00 0.11663929E+04 0.11663929E+04 0.32000000E+00 0.0000E+00 0.9000E+01
       -2 -1    0    0    0  501 0.00000000E+00 0.00000000E+00 -.27529096E+02 0.27530956E+02 0.32000000E+00 0.0000E+00 0.9000E+01
       25  1    1    2    0    0 0.11142864E+03 -.35991141E+02 0.69569122E+03 0.71646561E+03 0.12500000E+03 0.0000E+00 0.9000E+01
       23  1    1    2    0    0 -.72904082E+02 0.35757437E+02 0.22582233E+03 0.25671886E+03 0.91188000E+02 0.0000E+00 0.9000E+01
       21  1    1    2  502  501 -.38524556E+02 0.23370374E+00 0.21735023E+03 0.22073939E+03 0.75000000E+00 0.0000E+00 0.9000E+01
#aMCatNLO 1  0  0  2  2 0.23206523D+01 0.00000000D+00  -5  6  0 0.00000000D+00 0.00000000D+00 0.00000000D+00 0.00000000D+00 0.00000000D+00
  <mgrwgt>
 0.9493361867D-01    8    4    0
 0.179195084269302D+03 0.000000000000000D+00 0.000000000000000D+00 0.179195084269302D+03
 0.179195084269302D+03 0.000000000000000D+00 0.000000000000000D+00 -.179195084269302D+03
 0.176088389182468D+03 0.111431305831429D+03 -.359911568603894D+02 0.408634496026668D+02
 0.137620169160769D+03 -.729019979917495D+02 0.357574242991439D+02 -.634883053179136D+02
 0.446816101953672D+02 -.385293078396799D+02 0.233732561245579D+00 0.226248557152467D+02
 0.000000000000000D+00 0.000000000000000D+00 0.000000000000000D+00 0.000000000000000D+00
 0.184672756654154D+03 0.000000000000000D+00 0.000000000000000D+00 0.184672756654154D+03
 0.179444799534822D+03 0.000000000000000D+00 0.000000000000000D+00 -.179444799534822D+03
 0.175371581418605D+03 0.110293440070102D+03 -.359962099857128D+02 0.408634496026668D+02
 0.138094077244869D+03 -.737946339307970D+02 0.357534602100382D+02 -.634883053179136D+02
 0.449320231542394D+02 -.388194355744608D+02 0.232444138785335D+00 0.226248557152467D+02
 0.571987437126308D+01 0.232062943515561D+01 0.103056368892714D-01 0.522795711933159D+01
 0.179195084269302D+03 0.000000000000000D+00 0.000000000000000D+00 0.179195084269302D+03
 0.179195084269302D+03 0.000000000000000D+00 0.000000000000000D+00 -.179195084269302D+03
 0.176088389182468D+03 0.111431305831429D+03 -.359911568603894D+02 0.408634496026668D+02
 0.137620169160769D+03 -.729019979917495D+02 0.357574242991439D+02 -.634883053179136D+02
 0.000000000000000D+00 0.000000000000000D+00 0.000000000000000D+00 0.000000000000000D+00
 0.446816101953672D+02 -.385293078396799D+02 0.233732561245579D+00 0.226248557152467D+02
 0.184672756654154D+03 0.000000000000000D+00 0.000000000000000D+00 0.184672756654154D+03
 0.179444799534822D+03 0.000000000000000D+00 0.000000000000000D+00 -.179444799534822D+03
 0.175371581418605D+03 0.110293440070102D+03 -.359962099857128D+02 0.408634496026668D+02
 0.138094077244869D+03 -.737946339307970D+02 0.357534602100382D+02 -.634883053179136D+02
 0.571987437126308D+01 0.232062943515561D+01 0.103056368892714D-01 0.522795711933159D+01
 0.449320231542394D+02 -.388194355744608D+02 0.232444138785335D+00 0.226248557152467D+02
0.102828009624D-03 0.000000000000D+00 0.000000000000D+00 0.649229003729D-05 0.000000000000D+00  6 2 -2 25 23 21 21 2 0.17944520D+00 0.42353921D-02 0.27541381D+05 0.27541381D+05 0.27541381D+05 0.12188153D+01  1  2  2  2  6  2       -2 0.792795215776D-01 0.100000000000D+01
0.971449029499D-05 0.542638314930D-05 -.394886632192D-06 0.649229003729D-05 0.000000000000D+00  6 2 -2 25 23 21 21 4 0.17944520D+00 0.42353921D-02 0.27541381D+05 0.27541381D+05 0.27541381D+05 0.12188153D+01  1  2  3  2  6  2       -2 0.111261632758D-01 0.100000000000D+01
0.287872650909D-05 0.000000000000D+00 0.000000000000D+00 0.649229003729D-05 0.000000000000D+00  6 2 -2 25 23 21 21 4 0.17944520D+00 0.42353921D-02 0.27541381D+05 0.27541381D+05 0.27541381D+05 0.12188153D+01  1  2 15  2  6  2       -2 0.329705215550D-02 0.100000000000D+01
-.315289646632D-04 0.000000000000D+00 0.000000000000D+00 0.649229003729D-05 0.000000000000D+00  6 2 -2 25 23 21 21 4 0.17944520D+00 0.42353921D-02 0.27541381D+05 0.27541381D+05 0.27541381D+05 0.12188153D+01  1  2  4  2  6  2       -2 -.361106345376D-01 0.100000000000D+01
0.142105769611D-07 0.000000000000D+00 0.000000000000D+00 0.649229003729D-05 0.000000000000D+00  6 2 -2 25 23 21 21 4 0.17944520D+00 0.43967307D-02 0.27541381D+05 0.27541381D+05 0.27541381D+05 0.12188153D+01  1  2  5  2  6  2       -2 0.153888226736D-04 0.100000000000D+01
-.142006519354D-07 0.000000000000D+00 0.000000000000D+00 0.649229003729D-05 0.000000000000D+00  6 2 -2 25 23 21 21 4 0.17944520D+00 0.42353921D-02 0.27541381D+05 0.27541381D+05 0.27541381D+05 0.12188153D+01  1  2  6  2  6  2       -2 -.162642369552D-04 0.100000000000D+01
0.323475268839D-04 0.000000000000D+00 0.000000000000D+00 0.649229003729D-05 0.271523955289D-05  6 2 -2 25 23 21 21 4 0.18493052D+00 0.42412942D-02 0.27942394D+05 0.27942394D+05 0.27942394D+05 0.12181504D+01  1  2 11  2  6  2       -2 0.352366760225D-01 0.100000000000D+01
0.105572361600D-06 0.000000000000D+00 0.000000000000D+00 0.648520833764D-05 0.370216021904D-08  6 2 21 25 23 2 21 4 0.18493052D+00 0.42412942D-02 0.27942394D+05 0.27942394D+05 0.27942394D+05 0.12181504D+01  3  4 11  5  5  2       -2 0.210571559109D-02 0.100000000000D+01
  </mgrwgt>
  </event>
  <event>
  6     66 -.57005756E-03 0.99245816E+01 0.75467711E-02 0.12361837E+00
        2 -1    0    0  502    0 0.00000000E+00 0.00000000E+00 0.75190258E+02 0.75190939E+02 0.32000000E+00 0.0000E+00 0.9000E+01
       -2 -1    0    0    0  501 -.00000000E+00 -.00000000E+00 -.37733955E+03 0.37733969E+03 0.32000000E+00 0.0000E+00 0.9000E+01
       25  1    1    2    0    0 -.19642981E+02 0.27083483E+02 -.15496717E+02 0.13032463E+03 0.12500000E+03 0.0000E+00 0.9000E+01
       23  1    1    2    0    0 0.25092356E+02 -.68794536E+01 -.27979075E+03 0.29542354E+03 0.91188000E+02 0.0000E+00 0.9000E+01
       21  1    1    2  502  503 0.84074773E+00 -.14681204E+02 0.16551959E+01 0.14817111E+02 0.75000000E+00 0.0000E+00 0.9000E+01
       21  1    1    2  503  501 -.62901222E+01 -.55228254E+01 -.85170235E+01 0.11965343E+02 0.75000000E+00 0.0000E+00 0.9000E+01
#aMCatNLO 2  0  0  5  1 0.67555867D+01 0.00000000D+00  -5  6  0 0.00000000D+00 0.00000000D+00 0.00000000D+00 0.00000000D+00 0.00000000D+00
  <mgrwgt>
 -.1327028344D+00    3    2    0
 0.168441215932029D+03 0.000000000000000D+00 0.000000000000000D+00 0.168441215932029D+03
 0.168441215932029D+03 -.000000000000000D+00 -.000000000000000D+00 -.168441215932029D+03
 0.160697917971346D+03 -.192148693974744D+02 0.286707444793693D+02 0.949083665719840D+02
 0.146707090726093D+03 0.254815482099499D+02 -.543648793952118D+01 -.111932365404388D+03
 0.294774231666188D+02 -.626667881247548D+01 -.232342565398481D+02 0.170239988324045D+02
 0.000000000000000D+00 -.000000000000000D+00 0.000000000000000D+00 0.000000000000000D+00
 0.168441215932029D+03 0.000000000000000D+00 0.000000000000000D+00 0.168441215932029D+03
 0.168441215932029D+03 -.000000000000000D+00 -.000000000000000D+00 -.168441215932029D+03
 0.161173833619291D+03 -.196511190162164D+02 0.270533110891205D+02 0.960934780516589D+02
 0.145880291860283D+03 0.250849892280845D+02 -.690676484273501D+01 -.110855077123582D+03
 0.210141973825599D+02 0.111301526797573D+01 -.142774969707465D+02 0.153789066222786D+02
 0.881410900192378D+01 -.654688547984380D+01 -.586904927563899D+01 -.617307550355260D+00
-.896914229109D-04 0.000000000000D+00 0.000000000000D+00 0.119187438965D-04 0.000000000000D+00  6 2 -2 25 23 21 21 4 0.11567795D-01 0.58052302D-01 0.15293710D+05 0.15293710D+05 0.15293710D+05 0.12468636D+01  1  2 13  3  6  5       21 -.317677676956D-01 0.100000000000D+01
-.971632399707D-04 0.000000000000D+00 0.000000000000D+00 0.119187438965D-04 0.000000000000D+00  6 2 -2 25 23 21 21 4 0.11567795D-01 0.58052302D-01 0.15293710D+05 0.15293710D+05 0.15293710D+05 0.12468636D+01  1  2 13  3  6  5       21 -.344142074656D-01 0.100000000000D+01
-.188065921164D-03 0.000000000000D+00 0.000000000000D+00 0.119092785992D-04 0.000000000000D+00  6 2 -2 25 23 21 21 4 0.11567795D-01 0.58052302D-01 0.15447908D+05 0.15447908D+05 0.15447908D+05 0.12463684D+01  1  2  8  3  6  5       21 -.665208592486D-01 0.100000000000D+01
  </mgrwgt>
  </event>
  <event>
  5     66 0.57005756E-03 0.47349339E+02 0.75467711E-02 0.10664353E+00
        2 -1    0    0  502    0 0.00000000E+00 0.00000000E+00 0.97834882E+03 0.97834887E+03 0.32000000E+00 0.0000E+00 0.9000E+01
       -2 -1    0    0    0  501 0.00000000E+00 0.00000000E+00 -.17027515E+03 0.17027545E+03 0.32000000E+00 0.0000E+00 0.9000E+01
       25  1    1    2    0    0 -.30647641E+03 0.78623901E+01 0.62864011E+03 0.71049490E+03 0.12500000E+03 0.0000E+00 0.9000E+01
       23  1    1    2    0    0 0.26210474E+03 -.24382079E+02 0.28611758E+02 0.28004868E+03 0.91188000E+02 0.0000E+00 0.9000E+01
       21  1    1    2  502  501 0.44371670E+02 0.16519689E+02 0.15082179E+03 0.15808074E+03 0.75000000E+00 0.0000E+00 0.9000E+01
#aMCatNLO 1  0  0  1  2 0.22840441D+02 0.00000000D+00  -5  6  0 0.00000000D+00 0.00000000D+00 0.00000000D+00 0.00000000D+00 0.00000000D+00
  <mgrwgt>
 0.3186155388D+00    7    4    0
 0.408152784289997D+03 0.000000000000000D+00 0.000000000000000D+00 0.408152784289997D+03
 0.408152784289997D+03 0.000000000000000D+00 0.000000000000000D+00 -.408152784289997D+03
 0.377437551306029D+03 -.306477487917979D+03 0.786198839962277D+01 0.181228705435371D+03
 0.365733658272222D+03 0.262103693403831D+03 -.243824683931569D+02 -.236966256222927D+03
 0.731343590017439D+02 0.443737945141475D+02 0.165204799935341D+02 0.557375507875562D+02
 0.000000000000000D+00 -.000000000000000D+00 0.000000000000000D+00 0.000000000000000D+00
 0.429481912838506D+03 0.000000000000000D+00 0.000000000000000D+00 0.429481912838506D+03
 0.414473373425821D+03 0.000000000000000D+00 0.000000000000000D+00 -.414473373425821D+03
 0.369863186416531D+03 -.297187661272617D+03 0.307033869817720D+01 0.181228705435371D+03
 0.372707324169892D+03 0.271283382876136D+03 -.291173098491378D+02 -.236966256222927D+03
 0.740545361943113D+02 0.462035255066000D+02 0.155767131937426D+02 0.557375507875562D+02
 0.273302394835917D+02 -.202992471101189D+02 0.104702579572180D+02 0.150085394126849D+02
 0.408152784289997D+03 0.000000000000000D+00 0.000000000000000D+00 0.408152784289997D+03
 0.408152784289997D+03 0.000000000000000D+00 0.000000000000000D+00 -.408152784289997D+03
 0.377437551306029D+03 -.306477487917979D+03 0.786198839962277D+01 0.181228705435371D+03
 0.365733658272222D+03 0.262103693403831D+03 -.243824683931569D+02 -.236966256222927D+03
 0.000000000000000D+00 -.000000000000000D+00 0.000000000000000D+00 0.000000000000000D+00
 0.731343590017439D+02 0.443737945141475D+02 0.165204799935341D+02 0.557375507875562D+02
 0.429481912838506D+03 0.000000000000000D+00 0.000000000000000D+00 0.429481912838506D+03
 0.414473373425821D+03 0.000000000000000D+00 0.000000000000000D+00 -.414473373425821D+03
 0.369863186416531D+03 -.297187661272617D+03 0.307033869817720D+01 0.181228705435371D+03
 0.372707324169892D+03 0.271283382876136D+03 -.291173098491378D+02 -.236966256222927D+03
 0.273302394835917D+02 -.202992471101189D+02 0.104702579572180D+02 0.150085394126849D+02
 0.740545361943113D+02 0.462035255066000D+02 0.155767131937426D+02 0.557375507875562D+02
0.213567146809D-02 0.000000000000D+00 0.000000000000D+00 0.220226488057D-05 0.000000000000D+00  6 2 -2 25 23 21 21 2 0.15051523D+00 0.26196204D-01 0.10791672D+06 0.10791672D+06 0.10791672D+06 0.11605442D+01  1  2  2  1  6  1        2 0.101976064587D+00 0.100000000000D+01
0.385480599746D-03 0.112702479697D-03 -.820154077269D-05 0.220226488057D-05 0.000000000000D+00  6 2 -2 25 23 21 21 4 0.15051523D+00 0.26196204D-01 0.10791672D+06 0.10791672D+06 0.10791672D+06 0.11605442D+01  1  2  3  1  6  1        2 0.247907534772D-01 0.100000000000D+01
0.427530113624D-04 0.000000000000D+00 0.000000000000D+00 0.220226488057D-05 0.000000000000D+00  6 2 -2 25 23 21 21 4 0.15051523D+00 0.26196204D-01 0.10791672D+06 0.10791672D+06 0.10791672D+06 0.11605442D+01  1  2 15  1  6  1        2 0.274950118318D-02 0.100000000000D+01
-.191320116031D-02 0.000000000000D+00 0.000000000000D+00 0.220226488057D-05 0.000000000000D+00  6 2 -2 25 23 21 21 4 0.15051523D+00 0.26196204D-01 0.10791672D+06 0.10791672D+06 0.10791672D+06 0.11605442D+01  1  2  4  1  6  1        2 -.123040428880D+00 0.100000000000D+01
-.586707073526D-01 0.000000000000D+00 -.881286810812D-02 0.220226488057D-05 0.000000000000D+00  6 2 -2 25 23 21 21 4 0.15981318D+00 0.26196204D-01 0.10791672D+06 0.10791672D+06 0.10791672D+06 0.11605442D+01  1  2  5  1  6  1        2 -.346265385094D+01 0.100000000000D+01
0.591085512415D-01 0.000000000000D+00 0.879705965848D-02 0.220226488057D-05 0.000000000000D+00  6 2 -2 25 23 21 21 4 0.15051523D+00 0.26196204D-01 0.10791672D+06 0.10791672D+06 0.10791672D+06 0.11605442D+01  1  2  6  1  6  1        2 0.380134700214D+01 0.100000000000D+01
-.592999954746D-03 0.000000000000D+00 -.907267965445D-04 0.220226488057D-05 0.000000000000D+00  6 21 -2 25 23 -2 21 4 0.15981318D+00 0.26196204D-01 0.10791672D+06 0.10791672D+06 0.10791672D+06 0.11605442D+01  3  4  5  4  5  1        2 -.265535027267D-01 0.100000000000D+01
  </mgrwgt>
  </event>
  <event>
  5     66 0.57005756E-03 0.50646090E+02 0.75467711E-02 0.11778959E+00
        2 -1    0    0  502    0 0.00000000E+00 0.00000000E+00 0.17647316E+04 0.17647316E+04 0.32000000E+00 0.0000E+00 0.9000E+01
       -2 -1    0    0    0  501 0.00000000E+00 0.00000000E+00 -.24568753E+02 0.24570836E+02 0.32000000E+00 0.0000E+00 0.9000E+01
       25  1    1    2    0    0 -.49024453E+02 0.49122600E+02 0.45485416E+03 0.47679527E+03 0.12500000E+03 0.0000E+00 0.9000E+01
       23  1    1    2    0    0 -.98482911E+00 -.41119785E+02 0.17913199E+03 0.20517146E+03 0.91188000E+02 0.0000E+00 0.9000E+01
       21  1    1    2  502  501 0.50009283E+02 -.80028152E+01 0.11061767E+04 0.11073358E+04 0.75000000E+00 0.0000E+00 0.9000E+01
#aMCatNLO 1  0  0  5  2 0.46141381D+02 0.00000000D+00  -5  6  0 0.00000000D+00 0.00000000D+00 0.00000000D+00 0.00000000D+00 0.00000000D+00
  <mgrwgt>
 0.3528670200D-01   15    2    0
 0.208228588070808D+03 0.000000000000000D+00 0.000000000000000D+00 0.208228588070808D+03
 0.208228588070808D+03 -.000000000000000D+00 -.000000000000000D+00 -.208228588070808D+03
 0.147940222291750D+03 -.490247256143625D+02 0.491226435379129D+02 -.380112028488454D+02
 0.133015188401554D+03 -.985073788822234D+00 -.411197456529504D+02 -.876697504762515D+02
 0.135501765448311D+03 0.500097994031847D+02 -.800289788496255D+01 0.125680953325097D+03
 0.000000000000000D+00 0.000000000000000D+00 -.000000000000000D+00 0.000000000000000D+00
 0.208228588070808D+03 0.000000000000000D+00 0.000000000000000D+00 0.208228588070808D+03
 0.208228588070808D+03 -.000000000000000D+00 -.000000000000000D+00 -.208228588070808D+03
 0.143738583254070D+03 -.445143386386231D+02 0.484008616707733D+02 -.266760297079603D+02
 0.126830371912847D+03 0.303305851514346D+01 -.417627536813901D+02 -.775716756074165D+02
 0.799621489210622D+02 0.160085569075444D+02 0.411591254824685D+02 0.666603161958481D+02
 0.659260720536362D+02 0.254727232159352D+02 -.477972334718518D+02 0.375873891195288D+02
0.558061143238D-04 0.000000000000D+00 0.000000000000D+00 0.769994370915D-05 0.000000000000D+00  6 2 -2 25 23 21 21 2 0.27149733D+00 0.37799706D-02 0.21558313D+05 0.21558313D+05 0.21558313D+05 0.12302548D+01  1  2  2  3  6  5       21 0.249602096069D-01 0.100000000000D+01
0.127140831056D-05 0.294496956133D-05 -.214310173091D-06 0.769994370915D-05 0.000000000000D+00  6 2 -2 25 23 21 21 4 0.27149733D+00 0.37799706D-02 0.21558313D+05 0.21558313D+05 0.21558313D+05 0.12302548D+01  1  2  3  3  6  5       21 0.860679824733D-03 0.100000000000D+01
0.191191017192D-05 0.000000000000D+00 0.000000000000D+00 0.769994370915D-05 0.000000000000D+00  6 2 -2 25 23 21 21 4 0.27149733D+00 0.37799706D-02 0.21558313D+05 0.21558313D+05 0.21558313D+05 0.12302548D+01  1  2 15  3  6  5       21 0.129426754412D-02 0.100000000000D+01
0.181649405277D-04 0.000000000000D+00 0.000000000000D+00 0.753033336030D-05 0.000000000000D+00  6 2 -2 25 23 21 21 4 0.27149733D+00 0.37799706D-02 0.28884323D+05 0.28884323D+05 0.28884323D+05 0.12166296D+01  1  2 12  3  6  5       21 0.117663611204D-01 0.100000000000D+01
-.230811955405D-04 0.000000000000D+00 0.000000000000D+00 0.769994370915D-05 0.000000000000D+00  6 2 -2 25 23 21 21 4 0.27149733D+00 0.37799706D-02 0.21558313D+05 0.21558313D+05 0.21558313D+05 0.12302548D+01  1  2  4  3  6  5       21 -.156248147565D-01 0.100000000000D+01
-.257565835581D-04 0.000000000000D+00 0.000000000000D+00 0.769994370915D-05 0.000000000000D+00  6 2 -2 25 23 21 21 4 0.27149733D+00 0.37799706D-02 0.21558313D+05 0.21558313D+05 0.21558313D+05 0.12302548D+01  1  2  5  3  6  5       21 -.174359186096D-01 0.100000000000D+01
0.469614682459D-04 0.000000000000D+00 -.000000000000D+00 0.769994370915D-05 0.000000000000D+00  6 2 -2 25 23 21 21 4 0.27149733D+00 0.37799706D-02 0.21558313D+05 0.21558313D+05 0.21558313D+05 0.12302548D+01  1  2  6  3  6  5       21 0.317905647804D-01 0.100000000000D+01
0.558251069701D-06 0.000000000000D+00 0.000000000000D+00 0.753033336030D-05 0.000000000000D+00  6 2 -2 25 23 1 -1 4 0.27149733D+00 0.37799706D-02 0.28884323D+05 0.28884323D+05 0.28884323D+05 0.12166296D+01  1  2 12  6  6  5       21 0.361607772507D-03 0.100000000000D+01
0.558251069701D-06 0.000000000000D+00 0.000000000000D+00 0.753033336030D-05 0.000000000000D+00  6 2 -2 25 23 3 -3 4 0.27149733D+00 0.37799706D-02 0.28884323D+05 0.28884323D+05 0.28884323D+05 0.12166296D+01  1  2 12  6  6  5       21 0.361607772507D-03 0.100000000000D+01
-.139267255363D-05 0.000000000000D+00 0.000000000000D+00 0.769994370915D-05 0.000000000000D+00  6 2 -2 25 23 1 -1 4 0.27149733D+00 0.37799706D-02 0.21558313D+05 0.21558313D+05 0.21558313D+05 0.12302548D+01  1  2  5  6  6  5       21 -.942769651115D-03 0.100000000000D+01
-.139267255363D-05 0.000000000000D+00 0.000000000000D+00 0.769994370915D-05 0.000000000000D+00  6 2 -2 25 23 3 -3 4 0.27149733D+00 0.37799706D-02 0.21558313D+05 0.21558313D+05 0.21558313D+05 0.12302548D+01  1  2  5  6  6  5       21 -.942769651115D-03 0.100000000000D+01
0.558251069701D-06 0.000000000000D+00 0.000000000000D+00 0.753033336030D-05 0.000000000000D+00  6 2 -2 25 23 2 -2 4 0.27149733D+00 0.37799706D-02 0.28884323D+05 0.28884323D+05 0.28884323D+05 0.12166296D+01  1  2 12  7  6  5       21 0.361607772507D-03 0.100000000000D+01
-.139267255363D-05 0.000000000000D+00 0.000000000000D+00 0.769994370915D-05 0.000000000000D+00  6 2 -2 25 23 2 -2 4 0.27149733D+00 0.37799706D-02 0.21558313D+05 0.21558313D+05 0.21558313D+05 0.12302548D+01  1  2  5  7  6  5       21 -.942769651115D-03 0.100000000000D+01
0.558251069701D-06 0.000000000000D+00 0.000000000000D+00 0.753033336030D-05 0.000000000000D+00  6 2 -2 25 23 4 -4 4 0.27149733D+00 0.37799706D-02 0.28884323D+05 0.28884323D+05 0.28884323D+05 0.12166296D+01  1  2 12  8  6  5       21 0.361607772507D-03 0.100000000000D+01
-.139267255363D-05 0.000000000000D+00 0.000000000000D+00 0.769994370915D-05 0.000000000000D+00  6 2 -2 25 23 4 -4 4 0.27149733D+00 0.37799706D-02 0.21558313D+05 0.21558313D+05 0.21558313D+05 0.12302548D+01  1  2  5  8  6  5       21 -.942769651115D-03 0.100000000000D+01
  </mgrwgt>
  </event>
  <event>
  6     66 0.57005756E-03 0.75753963E+02 0.75467711E-02 0.11508525E+00
        2 -1    0    0  502    0 0.00000000E+00 0.00000000E+00 0.24186953E+04 0.24186953E+04 0.32000000E+00 0.0000E+00 0.9000E+01
       -2 -1    0    0    0  503 0.00000000E+00 0.00000000E+00 -.17126801E+02 0.17129791E+02 0.32000000E+00 0.0000E+00 0.9000E+01
       25  1    1    2    0    0 -.79724166E+02 0.87280801E+02 0.12054023E+04 0.12176180E+04 0.12500000E+03 0.0000E+00 0.9000E+01
       23  1    1    2    0    0 0.17271939E+02 -.42335500E+02 0.55875022E+03 0.56798563E+03 0.91188000E+02 0.0000E+00 0.9000E+01
       21  1    1    2  502  501 0.87850908E+02 -.25960686E+02 0.54156961E+03 0.54926309E+03 0.75000000E+00 0.0000E+00 0.9000E+01
       21  1    1    2  501  503 -.25398682E+02 -.18984616E+02 0.95846372E+02 0.10095840E+03 0.75000000E+00 0.0000E+00 0.9000E+01
#aMCatNLO 2  0  0  2  1 0.31709757D+02 0.00000000D+00  -5  6  0 0.00000000D+00 0.00000000D+00 0.00000000D+00 0.00000000D+00 0.00000000D+00
  <mgrwgt>
 0.1436767549D-01    1    2    0
 0.183195617734469D+03 0.000000000000000D+00 0.000000000000000D+00 0.183195617734469D+03
 0.183195617734469D+03 0.000000000000000D+00 0.000000000000000D+00 -.183195617734469D+03
 0.174734638901888D+03 -.917586277223409D+02 0.782870770947115D+02 0.189388972924147D+02
 0.104295464610427D+03 0.101024442287797D+02 -.476934820237801D+02 -.136222240238744D+02
 0.873611319566240D+02 0.816561834935613D+02 -.305935950709314D+02 -.531667326854022D+01
 0.000000000000000D+00 -.000000000000000D+00 -.000000000000000D+00 -.000000000000000D+00
 0.191675266634045D+03 0.000000000000000D+00 0.000000000000000D+00 0.191675266634045D+03
 0.216129605957194D+03 0.000000000000000D+00 0.000000000000000D+00 -.216129605957194D+03
 0.173083458111113D+03 -.797255337657171D+02 0.872813892351643D+02 0.189388972924147D+02
 0.102914403650069D+03 0.172710643636457D+02 -.423351920160944D+02 -.136222240238744D+02
 0.917629927376469D+02 0.878531509338828D+02 -.259615810865485D+02 -.531667326854022D+01
 0.400440180924101D+02 -.253986815318114D+02 -.189846161325214D+02 -.244543393231487D+02
0.299195212418D-04 0.000000000000D+00 0.000000000000D+00 0.166322588247D-05 0.384408365655D-08  6 2 -2 25 23 21 21 4 0.37210055D+00 0.26350770D-02 0.39476058D+05 0.39476058D+05 0.39476058D+05 0.12025822D+01  1  2  1  2  6  2       -2 0.143676754918D-01 0.100000000000D+01
  </mgrwgt>
  </event>
  <event>
  6     66 -.57005756E-03 0.10595335E+02 0.75467711E-02 0.12219924E+00
        2 -1    0    0  502    0 0.00000000E+00 0.00000000E+00 0.65793360E+03 0.65793368E+03 0.32000000E+00 0.0000E+00 0.9000E+01
       -2 -1    0    0    0  501 0.00000000E+00 0.00000000E+00 -.36989646E+02 0.36991030E+02 0.32000000E+00 0.0000E+00 0.9000E+01
       25  1    1    2    0    0 -.18204028E+02 0.43860178E+02 0.13431592E+03 0.18952801E+03 0.12500000E+03 0.0000E+00 0.9000E+01
       23  1    1    2    0    0 0.20141626E+02 -.57819314E+02 0.42760858E+03 0.44148964E+03 0.91188000E+02 0.0000E+00 0.9000E+01
        2  1    1    2  502    0 0.22671112E+01 0.31303602E+01 0.12846347E+00 0.38804447E+01 0.32000000E+00 0.0000E+00 0.9000E+01
       -2  1    1    2    0  501 -.42047092E+01 0.10828776E+02 0.58890995E+02 0.60026608E+02 0.32000000E+00 0.0000E+00 0.9000E+01
#aMCatNLO 2  0  0  5  2 0.79701557D+01 0.00000000D+00  -5  6  0 0.00000000D+00 0.00000000D+00 0.00000000D+00 0.00000000D+00 0.00000000D+00
  <mgrwgt>
 -.6394046405D-02    2    2    0
 0.156003971554106D+03 0.000000000000000D+00 0.000000000000000D+00 0.156003971554106D+03
 0.156003971554106D+03 -.000000000000000D+00 -.000000000000000D+00 -.156003971554106D+03
 0.154197695236987D+03 -.175313264753169D+02 0.390137969883958D+02 -.795141839734451D+02
 0.133574607028195D+03 0.207204272990203D+02 -.619891989851844D+02 0.724908780499866D+02
 0.242356408430286D+02 -.318910082370345D+01 0.229754019967887D+02 0.702330592345848D+01
 0.000000000000000D+00 0.000000000000000D+00 -.000000000000000D+00 0.000000000000000D+00
 0.156003971554106D+03 0.000000000000000D+00 0.000000000000000D+00 0.156003971554106D+03
 0.156003971554106D+03 -.000000000000000D+00 -.000000000000000D+00 -.156003971554106D+03
 0.154794628516534D+03 -.181798151272905D+02 0.436857369153836D+02 -.780860277493302D+02
 0.132350839166939D+03 0.201623240036578D+02 -.579684269006581D+02 0.737199800435917D+02
 0.797206400425674D+01 0.220155593312561D+01 0.268343267334966D+01 -.717677818027595D+01
 0.168904114204814D+02 -.418406480949290D+01 0.115992573119249D+02 0.115428258860145D+02
-.187358245726D-05 0.000000000000D+00 0.000000000000D+00 0.166993637865D-04 0.000000000000D+00  6 2 -2 25 23 2 -2 4 0.10122067D+00 0.56908272D-02 0.16819046D+05 0.16819046D+05 0.16819046D+05 0.12421950D+01  1  2 13  7  6  5       21 -.311006634468D-02 0.100000000000D+01
-.197835246873D-05 0.000000000000D+00 0.000000000000D+00 0.166993637865D-04 0.000000000000D+00  6 2 -2 25 23 2 -2 4 0.10122067D+00 0.56908272D-02 0.16819046D+05 0.16819046D+05 0.16819046D+05 0.12421950D+01  1  2 13  7  6  5       21 -.328398006027D-02 0.100000000000D+01
  </mgrwgt>
  </event>
  <event>
  6     66 -.57005756E-03 0.87899564E+01 0.75467711E-02 0.11256060E+00
        2 -1    0    0  502    0 0.00000000E+00 0.00000000E+00 0.96441603E+03 0.96441608E+03 0.32000000E+00 0.0000E+00 0.9000E+01
       -2 -1    0    0    0  501 0.00000000E+00 0.00000000E+00 -.56993080E+02 0.56993978E+02 0.32000000E+00 0.0000E+00 0.9000E+01
       25  1    1    2    0    0 0.17774617E+03 0.70537216E+02 0.39696913E+03 0.45801603E+03 0.12500000E+03 0.0000E+00 0.9000E+01
       23  1    1    2    0    0 -.17228587E+03 -.60674508E+02 0.42994842E+03 0.47595662E+03 0.91188000E+02 0.0000E+00 0.9000E+01
       21  1    1    2  502  503 0.10601692E+02 -.13378376E+02 0.48967299E+02 0.51862662E+02 0.75000000E+00 0.0000E+00 0.9000E+01
       21  1    1    2  503  501 -.16061991E+02 0.35156689E+01 0.31538106E+02 0.35574740E+02 0.75000000E+00 0.0000E+00 0.9000E+01
#aMCatNLO 2  0  0  5  2 0.16110259D+02 0.00000000D+00  -5  6  0 0.00000000D+00 0.00000000D+00 0.00000000D+00 0.00000000D+00 0.00000000D+00
  <mgrwgt>
 -.1292480116D+00    3    2    0
 0.234447276794346D+03 0.000000000000000D+00 0.000000000000000D+00 0.234447276794346D+03
 0.234447276794346D+03 -.000000000000000D+00 -.000000000000000D+00 -.234447276794346D+03
 0.236424075483025D+03 0.182465782761596D+03 0.790620573113106D+02 -.269587218336468D+02
 0.198905481228935D+03 -.168196951726343D+03 -.532888700166781D+02 0.108729426203719D+02
 0.335649968767322D+02 -.142688310352535D+02 -.257731872946325D+02 0.160857792132748D+02
 0.000000000000000D+00 0.000000000000000D+00 0.000000000000000D+00 -.000000000000000D+00
 0.234447276794346D+03 0.000000000000000D+00 0.000000000000000D+00 0.234447276794346D+03
 0.234447276794346D+03 -.000000000000000D+00 -.000000000000000D+00 -.234447276794346D+03
 0.229458901705747D+03 0.177729445690907D+03 0.705070115537566D+02 -.216192744598198D+02
 0.204762570126139D+03 -.172300789062111D+03 -.607014581971773D+02 0.154993497273918D+02
 0.175334374950163D+02 0.115534206173348D+02 -.120191260278476D+02 0.542959592946862D+01
 0.171396442617901D+02 -.169820772461302D+02 0.221357267126832D+01 0.690328802959361D+00
-.125891722188D-03 0.000000000000D+00 0.000000000000D+00 0.954548890327D-05 0.000000000000D+00  6 2 -2 25 23 21 21 4 0.14837177D+00 0.87682393D-02 0.54384708D+05 0.54384708D+05 0.54384708D+05 0.11886831D+01  1  2 13  3  6  5       21 -.566710881503D-01 0.100000000000D+01
-.139095395807D-03 0.000000000000D+00 0.000000000000D+00 0.954548890327D-05 0.000000000000D+00  6 2 -2 25 23 21 21 4 0.14837177D+00 0.87682393D-02 0.54384708D+05 0.54384708D+05 0.54384708D+05 0.11886831D+01  1  2 13  3  6  5       21 -.626148193074D-01 0.100000000000D+01
-.220848606122D-04 0.000000000000D+00 0.000000000000D+00 0.955569471262D-05 0.000000000000D+00  6 2 -2 25 23 21 21 4 0.14837177D+00 0.87682393D-02 0.53580566D+05 0.53580566D+05 0.53580566D+05 0.11893184D+01  1  2  8  3  6  5       21 -.996210410477D-02 0.100000000000D+01
  </mgrwgt>
  </event>
  <event>
  5     66 0.57005756E-03 0.26826868E+02 0.75467711E-02 0.12389824E+00
        2 -1    0    0  502    0 0.00000000E+00 0.00000000E+00 0.13053435E+04 0.13053435E+04 0.32000000E+00 0.0000E+00 0.9000E+01
       -2 -1    0    0    0  501 0.00000000E+00 0.00000000E+00 -.17094419E+02 0.17097414E+02 0.32000000E+00 0.0000E+00 0.9000E+01
       25  1    1    2    0    0 -.47052181E+01 0.11025732E+02 0.29925003E+03 0.32452933E+03 0.12500000E+03 0.0000E+00 0.9000E+01
       23  1    1    2    0    0 0.45355409E+01 0.15791953E+02 0.90503080E+03 0.90976149E+03 0.91188000E+02 0.0000E+00 0.9000E+01
       21  1    1    2  502  501 0.16967720E+00 -.26817686E+02 0.83968204E+02 0.88150093E+02 0.75000000E+00 0.0000E+00 0.9000E+01
#aMCatNLO 1  0  0  5  1 0.69743117D+01 0.00000000D+00  -5  6  0 0.00000000D+00 0.00000000D+00 0.00000000D+00 0.00000000D+00 0.00000000D+00
  <mgrwgt>
 0.5097305359D+00   11    2    0
 0.149385724176029D+03 0.000000000000000D+00 0.000000000000000D+00 0.149385724176029D+03
 0.149385724176029D+03 -.000000000000000D+00 -.000000000000000D+00 -.149385724176029D+03
 0.146139069543669D+03 -.470524768158507D+01 0.110304006139497D+02 -.747517127137565D+02
 0.124513729841333D+03 0.453551577411595D+01 0.157959307474463D+02 0.831765306050040D+02
 0.281186489670560D+02 0.169731907469113D+00 -.268263313613961D+02 -.842481789124750D+01
 0.000000000000000D+00 -.000000000000000D+00 0.000000000000000D+00 0.000000000000000D+00
 0.149385724176029D+03 0.000000000000000D+00 0.000000000000000D+00 0.149385724176029D+03
 0.149385724176029D+03 -.000000000000000D+00 -.000000000000000D+00 -.149385724176029D+03
 0.147348643273751D+03 -.464240818876342D+01 0.109854347434707D+01 -.778708156054567D+02
 0.121988773800608D+03 0.458829512954254D+01 0.745409037796820D+01 0.805567729853750D+02
 0.186051868491462D+02 0.900439179297525D+00 -.185272076700336D+02 0.144387081398501D+01
 0.108288444285526D+02 -.846326120076637D+00 0.997457381771832D+01 -.412982819390329D+01
0.112933746086D-03 0.000000000000D+00 0.000000000000D+00 0.125702570819D-04 0.000000000000D+00  6 2 -2 25 23 21 21 2 0.20082230D+00 0.26301441D-02 0.15013339D+05 0.15013339D+05 0.15013339D+05 0.12477785D+01  1  2  2  3  6  5       21 0.152986747757D+00 0.100000000000D+01
0.131570900230D-04 0.595967751384D-05 -.433695321108D-06 0.125702570819D-04 0.000000000000D+00  6 2 -2 25 23 21 21 4 0.20082230D+00 0.26301441D-02 0.15013339D+05 0.15013339D+05 0.15013339D+05 0.12477785D+01  1  2  3  3  6  5       21 0.277501247627D-01 0.100000000000D+01
0.556046907084D-05 0.000000000000D+00 0.000000000000D+00 0.125702570819D-04 0.000000000000D+00  6 2 -2 25 23 21 21 4 0.20082230D+00 0.26301441D-02 0.15013339D+05 0.15013339D+05 0.15013339D+05 0.12477785D+01  1  2 15  3  6  5       21 0.117277992463D-01 0.100000000000D+01
0.178430871356D-03 0.000000000000D+00 0.000000000000D+00 0.125686318059D-04 0.000000000000D+00  6 2 -2 25 23 21 21 4 0.20082230D+00 0.26301441D-02 0.15037826D+05 0.15037826D+05 0.15037826D+05 0.12476979D+01  1  2 12  3  6  5       21 0.376252235872D+00 0.100000000000D+01
-.342650442188D-04 0.000000000000D+00 0.000000000000D+00 0.125702570819D-04 0.000000000000D+00  6 2 -2 25 23 21 21 4 0.20082230D+00 0.26301441D-02 0.15013339D+05 0.15013339D+05 0.15013339D+05 0.12477785D+01  1  2  4  3  6  5       21 -.722697230477D-01 0.100000000000D+01
0.232460497577D-05 0.000000000000D+00 0.000000000000D+00 0.125702570819D-04 0.000000000000D+00  6 2 -2 25 23 21 21 4 0.20082230D+00 0.26301441D-02 0.15013339D+05 0.15013339D+05 0.15013339D+05 0.12477785D+01  1  2  5  3  6  5       21 0.490291378937D-02 0.100000000000D+01
-.311096782526D-05 0.000000000000D+00 0.000000000000D+00 0.125702570819D-04 0.000000000000D+00  6 2 -2 25 23 21 21 4 0.20082230D+00 0.26301441D-02 0.15013339D+05 0.15013339D+05 0.15013339D+05 0.12477785D+01  1  2  6  3  6  5       21 -.656146192913D-02 0.100000000000D+01
0.177148191815D-05 0.000000000000D+00 0.000000000000D+00 0.125686318059D-04 0.000000000000D+00  6 2 -2 25 23 1 -1 4 0.20082230D+00 0.26301441D-02 0.15037826D+05 0.15037826D+05 0.15037826D+05 0.12476979D+01  1  2 12  6  6  5       21 0.373547485054D-02 0.100000000000D+01
0.177148191815D-05 0.000000000000D+00 0.000000000000D+00 0.125686318059D-04 0.000000000000D+00  6 2 -2 25 23 3 -3 4 0.20082230D+00 0.26301441D-02 0.15037826D+05 0.15037826D+05 0.15037826D+05 0.12476979D+01  1  2 12  6  6  5       21 0.373547485054D-02 0.100000000000D+01
0.177148191815D-05 0.000000000000D+00 0.000000000000D+00 0.125686318059D-04 0.000000000000D+00  6 2 -2 25 23 2 -2 4 0.20082230D+00 0.26301441D-02 0.15037826D+05 0.15037826D+05 0.15037826D+05 0.12476979D+01  1  2 12  7  6  5       21 0.373547485054D-02 0.100000000000D+01
0.177148191815D-05 0.000000000000D+00 0.000000000000D+00 0.125686318059D-04 0.000000000000D+00  6 2 -2 25 23 4 -4 4 0.20082230D+00 0.26301441D-02 0.15037826D+05 0.15037826D+05 0.15037826D+05 0.12476979D+01  1  2 12  8  6  5       21 0.373547485054D-02 0.100000000000D+01
  </mgrwgt>
  </event>
  <event>
  5     66 0.57005756E-03 0.21717528E+02 0.75467711E-02 0.10936765E+00
        2 -1    0    0  502    0 0.00000000E+00 0.00000000E+00 0.10770662E+04 0.10770663E+04 0.32000000E+00 0.0000E+00 0.9000E+01
       -2 -1    0    0    0  501 0.00000000E+00 0.00000000E+00 -.91379257E+02 0.91379817E+02 0.32000000E+00 0.0000E+00 0.9000E+01
       25  1    1    2    0    0 -.78205406E+01 0.13148780E+03 0.67898318E+03 0.70284662E+03 0.12500000E+03 0.0000E+00 0.9000E+01
       23  1    1    2    0    0 -.68254760E+00 -.15147139E+03 0.36381138E+03 0.40449724E+03 0.91188000E+02 0.0000E+00 0.9000E+01
       21  1    1    2  502  501 0.85030882E+01 0.19983597E+02 -.57107578E+02 0.61102248E+02 0.75000000E+00 0.0000E+00 0.9000E+01
#aMCatNLO 1  0  0  5  2 0.86076236D+01 0.00000000D+00  -5  6  0 0.00000000D+00 0.00000000D+00 0.00000000D+00 0.00000000D+00 0.00000000D+00
  <mgrwgt>
 0.9580551755D+00    4    2    0
 0.313722596891221D+03 0.000000000000000D+00 0.000000000000000D+00 0.313722596891221D+03
 0.313722596891221D+03 -.000000000000000D+00 -.000000000000000D+00 -.313722596891221D+03
 0.242210329106504D+03 -.782056286155671D+01 0.131487742929715D+03 0.160283048952965D+03
 0.181735658929036D+03 -.682564321765666D+00 -.151471432110097D+03 0.420539860516677D+02
 0.203499205746902D+03 0.850312718332248D+01 0.199836891803828D+02 -.202337035004633D+03
 0.000000000000000D+00 -.000000000000000D+00 0.000000000000000D+00 0.000000000000000D+00
 0.313722596891221D+03 0.000000000000000D+00 0.000000000000000D+00 0.313722596891221D+03
 0.313722596891221D+03 -.000000000000000D+00 -.000000000000000D+00 -.313722596891221D+03
 0.215526612386596D+03 -.572357915432659D+01 0.136415985177320D+03 0.110384058072744D+03
 0.173569937039155D+03 0.945161077461733D+00 -.147646020852816D+03 0.332127936848777D+01
 0.116313943139996D+03 0.105562279194390D+03 -.914321888998716D+01 -.479785382060528D+02
 0.122034701216696D+03 -.100783861117525D+03 0.203732545654832D+02 -.657267992351794D+02
0.553645260973D-02 0.000000000000D+00 0.000000000000D+00 0.293057490552D-04 0.000000000000D+00  6 2 -2 25 23 21 21 2 0.16570255D+00 0.14058394D-01 0.36121145D+05 0.36121145D+05 0.36121145D+05 0.12065249D+01  1  2  2  3  6  5       21 0.729141828593D+00 0.100000000000D+01
0.190602242755D-02 0.292166631041D-03 -.212614358028D-04 0.293057490552D-04 0.000000000000D+00  6 2 -2 25 23 21 21 4 0.16570255D+00 0.14058394D-01 0.36121145D+05 0.36121145D+05 0.36121145D+05 0.12065249D+01  1  2  3  3  6  5       21 0.365410500717D+00 0.100000000000D+01
0.105530674726D-03 0.000000000000D+00 0.000000000000D+00 0.293057490552D-04 0.000000000000D+00  6 2 -2 25 23 21 21 4 0.16570255D+00 0.14058394D-01 0.36121145D+05 0.36121145D+05 0.36121145D+05 0.12065249D+01  1  2 15  3  6  5       21 0.202316699610D-01 0.100000000000D+01
-.817515240045D-03 0.000000000000D+00 0.000000000000D+00 0.293057490552D-04 0.000000000000D+00  6 2 -2 25 23 21 21 4 0.16570255D+00 0.14058394D-01 0.36121145D+05 0.36121145D+05 0.36121145D+05 0.12065249D+01  1  2  4  3  6  5       21 -.156728823801D+00 0.100000000000D+01
  </mgrwgt>
  </event>
  <event>
  5     66 0.57005756E-03 0.34234357E+02 0.75467711E-02 0.11039465E+00
        2 -1    0    0  502    0 0.00000000E+00 0.00000000E+00 0.85421682E+03 0.85421688E+03 0.32000000E+00 0.0000E+00 0.9000E+01
       -2 -1    0    0    0  501 0.00000000E+00 0.00000000E+00 -.12986776E+03 0.12986816E+03 0.32000000E+00 0.0000E+00 0.9000E+01
       25  1    1    2    0    0 -.37378769E+02 -.21980783E+03 0.61811298E+03 0.66888064E+03 0.12500000E+03 0.0000E+00 0.9000E+01
       23  1    1    2    0    0 0.33003515E+01 0.22306001E+03 0.12970866E+03 0.27369006E+03 0.91188000E+02 0.0000E+00 0.9000E+01
       21  1    1    2  502  501 0.34078417E+02 -.32521851E+01 -.23472583E+02 0.41514334E+02 0.75000000E+00 0.0000E+00 0.9000E+01
#aMCatNLO 1  0  0  5  1 0.42222624D+01 0.00000000D+00  -5  6  0 0.00000000D+00 0.00000000D+00 0.00000000D+00 0.00000000D+00 0.00000000D+00
  <mgrwgt>
 0.6198970271D+00   25    2    0
 0.333069737800861D+03 0.000000000000000D+00 0.000000000000000D+00 0.333069737800861D+03
 0.333069737800861D+03 -.000000000000000D+00 -.000000000000000D+00 -.333069737800861D+03
 0.316009567931521D+03 -.373793715548988D+02 -.219807770662344D+03 0.185807356051579D+03
 0.263277680573568D+03 0.329984928976836D+01 0.223060061231889D+03 -.105986819096001D+03
 0.868522270966325D+02 0.340795222651304D+02 -.325229056954510D+01 -.798205369555778D+02
 0.000000000000000D+00 0.000000000000000D+00 -.000000000000000D+00 0.000000000000000D+00
 0.333069737800861D+03 0.000000000000000D+00 0.000000000000000D+00 0.333069737800861D+03
 0.333069737800861D+03 -.000000000000000D+00 -.000000000000000D+00 -.333069737800861D+03
 0.315900187221331D+03 -.373028025091046D+02 -.219815077830080D+03 0.185628017201054D+03
 0.263333530795489D+03 0.336365922090214D+01 0.223053971697075D+03 -.106136273742887D+03
 0.438976938825337D+02 0.135470123191006D+02 -.110461274145704D+00 -.417549252632272D+02
 0.430080637023674D+02 0.203921309691018D+02 -.312843259284960D+01 -.377368181949391D+02
0.277231709818D-03 0.000000000000D+00 0.000000000000D+00 0.510760719761D-05 0.000000000000D+00  6 2 -2 25 23 21 21 2 0.13141801D+00 0.19979691D-01 0.70450070D+05 0.70450070D+05 0.70450070D+05 0.11778098D+01  1  2  2  3  6  5       21 0.264841606563D-01 0.100000000000D+01
0.498082441219D-04 0.146299192614D-04 -.106464276249D-05 0.510760719761D-05 0.000000000000D+00  6 2 -2 25 23 21 21 4 0.13141801D+00 0.19979691D-01 0.70450070D+05 0.70450070D+05 0.70450070D+05 0.11778098D+01  1  2  3  3  6  5       21 0.660077416629D-02 0.100000000000D+01
0.552489011726D-05 0.000000000000D+00 0.000000000000D+00 0.510760719761D-05 0.000000000000D+00  6 2 -2 25 23 21 21 4 0.13141801D+00 0.19979691D-01 0.70450070D+05 0.70450070D+05 0.70450070D+05 0.11778098D+01  1  2 15  3  6  5       21 0.732179031816D-03 0.100000000000D+01
0.453863317451D-03 0.000000000000D+00 0.000000000000D+00 0.510769631999D-05 0.000000000000D+00  6 2 -2 25 23 21 21 4 0.13141801D+00 0.19979691D-01 0.70432594D+05 0.70432594D+05 0.70432594D+05 0.11778201D+01  1  2 12  3  6  5       21 0.601498540363D-01 0.100000000000D+01
0.447184929293D-03 0.000000000000D+00 0.000000000000D+00 0.510769631999D-05 0.000000000000D+00  6 2 -2 25 23 21 21 4 0.13141801D+00 0.19979691D-01 0.70432594D+05 0.70432594D+05 0.70432594D+05 0.11778201D+01  1  2 12  3  6  5       21 0.592647768392D-01 0.100000000000D+01
-.987996276713D-02 0.000000000000D+00 0.000000000000D+00 0.510760719761D-05 0.000000000000D+00  6 2 -2 25 23 21 21 4 0.13141801D+00 0.19979691D-01 0.70450070D+05 0.70450070D+05 0.70450070D+05 0.11778098D+01  1  2  4  3  6  5       21 -.130932949248D+01 0.100000000000D+01
-.618524854608D-02 0.000000000000D+00 0.000000000000D+00 0.510760719761D-05 0.000000000000D+00  6 2 -2 25 23 21 21 4 0.13141801D+00 0.19979691D-01 0.70450070D+05 0.70450070D+05 0.70450070D+05 0.11778098D+01  1  2  5  3  6  5       21 -.819692192223D+00 0.100000000000D+01
0.131679650624D-01 0.000000000000D+00 -.000000000000D+00 0.510760719761D-05 0.000000000000D+00  6 2 -2 25 23 21 21 4 0.13141801D+00 0.19979691D-01 0.70450070D+05 0.70450070D+05 0.70450070D+05 0.11778098D+01  1  2  6  3  6  5       21 0.174506781234D+01 0.100000000000D+01
0.637658246897D-02 0.000000000000D+00 0.000000000000D+00 0.510760719761D-05 0.179325170547D-05  6 2 -2 25 23 21 21 4 0.13141801D+00 0.19979691D-01 0.70432594D+05 0.70432594D+05 0.70432594D+05 0.11778201D+01  1  2 11  3  6  5       21 0.845079322368D+00 0.100000000000D+01
0.350684430173D-05 0.000000000000D+00 0.000000000000D+00 0.510769631999D-05 0.000000000000D+00  6 2 -2 25 23 1 -1 4 0.13141801D+00 0.19979691D-01 0.70432594D+05 0.70432594D+05 0.70432594D+05 0.11778201D+01  1  2 12  6  6  5       21 0.464757041970D-03 0.100000000000D+01
0.350684430173D-05 0.000000000000D+00 0.000000000000D+00 0.510769631999D-05 0.000000000000D+00  6 2 -2 25 23 3 -3 4 0.13141801D+00 0.19979691D-01 0.70432594D+05 0.70432594D+05 0.70432594D+05 0.11778201D+01  1  2 12  6  6  5       21 0.464757041970D-03 0.100000000000D+01
0.345517667879D-05 0.000000000000D+00 0.000000000000D+00 0.510769631999D-05 0.000000000000D+00  6 2 -2 25 23 1 -1 4 0.13141801D+00 0.19979691D-01 0.70432594D+05 0.70432594D+05 0.70432594D+05 0.11778201D+01  1  2 12  6  6  5       21 0.457909606060D-03 0.100000000000D+01
0.345517667879D-05 0.000000000000D+00 0.000000000000D+00 0.510769631999D-05 0.000000000000D+00  6 2 -2 25 23 3 -3 4 0.13141801D+00 0.19979691D-01 0.70432594D+05 0.70432594D+05 0.70432594D+05 0.11778201D+01  1  2 12  6  6  5       21 0.457909606060D-03 0.100000000000D+01
-.328662444735D-04 0.000000000000D+00 0.000000000000D+00 0.510760719761D-05 0.000000000000D+00  6 2 -2 25 23 1 -1 4 0.13141801D+00 0.19979691D-01 0.70450070D+05 0.70450070D+05 0.70450070D+05 0.11778098D+01  1  2  5  6  6  5       21 -.435555722327D-02 0.100000000000D+01
-.328662444735D-04 0.000000000000D+00 0.000000000000D+00 0.510760719761D-05 0.000000000000D+00  6 2 -2 25 23 3 -3 4 0.13141801D+00 0.19979691D-01 0.70450070D+05 0.70450070D+05 0.70450070D+05 0.11778098D+01  1  2  5  6  6  5       21 -.435555722327D-02 0.100000000000D+01
0.365116872746D-04 0.000000000000D+00 0.000000000000D+00 0.510760719761D-05 0.103361610769D-07  6 2 -2 25 23 1 -1 4 0.13141801D+00 0.19979691D-01 0.70432594D+05 0.70432594D+05 0.70432594D+05 0.11778201D+01  1  2 11  6  6  5       21 0.483884150964D-02 0.100000000000D+01
0.365116872746D-04 0.000000000000D+00 0.000000000000D+00 0.510760719761D-05 0.103361610769D-07  6 2 -2 25 23 3 -3 4 0.13141801D+00 0.19979691D-01 0.70432594D+05 0.70432594D+05 0.70432594D+05 0.11778201D+01  1  2 11  6  6  5       21 0.483884150964D-02 0.100000000000D+01
0.350684430173D-05 0.000000000000D+00 0.000000000000D+00 0.510769631999D-05 0.000000000000D+00  6 2 -2 25 23 2 -2 4 0.13141801D+00 0.19979691D-01 0.70432594D+05 0.70432594D+05 0.70432594D+05 0.11778201D+01  1  2 12  7  6  5       21 0.464757041970D-03 0.100000000000D+01
0.345517667879D-05 0.000000000000D+00 0.000000000000D+00 0.510769631999D-05 0.000000000000D+00  6 2 -2 25 23 2 -2 4 0.13141801D+00 0.19979691D-01 0.70432594D+05 0.70432594D+05 0.70432594D+05 0.11778201D+01  1  2 12  7  6  5       21 0.457909606060D-03 0.100000000000D+01
-.328662444735D-04 0.000000000000D+00 0.000000000000D+00 0.510760719761D-05 0.000000000000D+00  6 2 -2 25 23 2 -2 4 0.13141801D+00 0.19979691D-01 0.70450070D+05 0.70450070D+05 0.70450070D+05 0.11778098D+01  1  2  5  7  6  5       21 -.435555722327D-02 0.100000000000D+01
0.358533872208D-04 0.000000000000D+00 0.000000000000D+00 0.510760719761D-05 0.101796290589D-07  6 2 -2 25 23 2 -2 4 0.13141801D+00 0.19979691D-01 0.70432594D+05 0.70432594D+05 0.70432594D+05 0.11778201D+01  1  2 11  7  6  5       21 0.475159794837D-02 0.100000000000D+01
0.350684430173D-05 0.000000000000D+00 0.000000000000D+00 0.510769631999D-05 0.000000000000D+00  6 2 -2 25 23 4 -4 4 0.13141801D+00 0.19979691D-01 0.70432594D+05 0.70432594D+05 0.70432594D+05 0.11778201D+01  1  2 12  8  6  5       21 0.464757041970D-03 0.100000000000D+01
0.345517667879D-05 0.000000000000D+00 0.000000000000D+00 0.510769631999D-05 0.000000000000D+00  6 2 -2 25 23 4 -4 4 0.13141801D+00 0.19979691D-01 0.70432594D+05 0.70432594D+05 0.70432594D+05 0.11778201D+01  1  2 12  8  6  5       21 0.457909606060D-03 0.100000000000D+01
-.328662444735D-04 0.000000000000D+00 0.000000000000D+00 0.510760719761D-05 0.000000000000D+00  6 2 -2 25 23 4 -4 4 0.13141801D+00 0.19979691D-01 0.70450070D+05 0.70450070D+05 0.70450070D+05 0.11778098D+01  1  2  5  8  6  5       21 -.435555722327D-02 0.100000000000D+01
0.365363779830D-04 0.000000000000D+00 0.000000000000D+00 0.510760719761D-05 0.103431508152D-07  6 2 -2 25 23 4 -4 4 0.13141801D+00 0.19979691D-01 0.70432594D+05 0.70432594D+05 0.70432594D+05 0.11778201D+01  1  2 11  8  6  5       21 0.484211373379D-02 0.100000000000D+01
  </mgrwgt>
  </event>
  <event>
  5     66 0.57005756E-03 0.21507368E+02 0.75467711E-02 0.12044428E+00
        2 -1    0    0  502    0 0.00000000E+00 0.00000000E+00 0.50202450E+03 0.50202460E+03 0.32000000E+00 0.0000E+00 0.9000E+01
       -2 -1    0    0    0  501 0.00000000E+00 0.00000000E+00 -.47468193E+02 0.47469271E+02 0.32000000E+00 0.0000E+00 0.9000E+01
       25  1    1    2    0    0 -.39515772E+02 -.59561701E+02 0.14312859E+03 0.20302681E+03 0.12500000E+03 0.0000E+00 0.9000E+01
       23  1    1    2    0    0 0.59471822E+02 0.67561537E+02 0.24261189E+03 0.27436698E+03 0.91188000E+02 0.0000E+00 0.9000E+01
       21  1    1    2  502  501 -.19956050E+02 -.79998354E+01 0.68815833E+02 0.72100088E+02 0.75000000E+00 0.0000E+00 0.9000E+01
#aMCatNLO 1  0  0  5  2 0.49869577D+01 0.00000000D+00  -5  6  0 0.00000000D+00 0.00000000D+00 0.00000000D+00 0.00000000D+00 0.00000000D+00
  <mgrwgt>
 0.2072203706D+00   20    2    0
 0.154371370962411D+03 0.000000000000000D+00 0.000000000000000D+00 0.154371370962411D+03
 0.154371370962411D+03 -.000000000000000D+00 -.000000000000000D+00 -.154371370962411D+03
 0.150616579271369D+03 -.395120155031363D+02 -.595601955141049D+02 -.441784754446124D+02
 0.131121140875493D+03 0.594750926606932D+02 0.675628477149368D+02 0.278473912986656D+02
 0.270050217779591D+02 -.199630771575569D+02 -.800265220083189D+01 0.163310841459469D+02
 0.000000000000000D+00 0.000000000000000D+00 0.000000000000000D+00 0.000000000000000D+00
 0.154371370962411D+03 0.000000000000000D+00 0.000000000000000D+00 0.154371370962411D+03
 0.154371370962411D+03 -.000000000000000D+00 -.000000000000000D+00 -.154371370962411D+03
 0.150840783373521D+03 -.407045337499594D+02 -.600382434972466D+02 -.432029186363739D+02
 0.130624042768656D+03 0.584396695919874D+02 0.671477748965445D+02 0.286944341231876D+02
 0.596132574702110D+01 -.575192422804085D+01 0.114386519296536D+01 -.106974050932724D+01
 0.213165900356235D+02 -.119832116139871D+02 -.825339659226326D+01 0.155782250225135D+02
0.142560403291D-03 0.000000000000D+00 0.000000000000D+00 0.238858283359D-04 0.000000000000D+00  6 2 -2 25 23 21 21 2 0.77234629D-01 0.73028897D-02 0.21554499D+05 0.21554499D+05 0.21554499D+05 0.12302632D+01  1  2  2  3  6  5       21 0.140594151329D+00 0.100000000000D+01
0.308557596821D-04 0.752311916768D-05 -.547469485652D-06 0.238858283359D-04 0.000000000000D+00  6 2 -2 25 23 21 21 4 0.77234629D-01 0.73028897D-02 0.21554499D+05 0.21554499D+05 0.21554499D+05 0.12302632D+01  1  2  3  3  6  5       21 0.460575290482D-01 0.100000000000D+01
0.110436121568D-05 0.000000000000D+00 0.000000000000D+00 0.238858283359D-04 0.000000000000D+00  6 2 -2 25 23 21 21 4 0.77234629D-01 0.73028897D-02 0.21554499D+05 0.21554499D+05 0.21554499D+05 0.12302632D+01  1  2 15  3  6  5       21 0.164844908358D-02 0.100000000000D+01
0.481910354722D-05 0.000000000000D+00 0.000000000000D+00 0.239016539056D-04 0.000000000000D+00  6 2 -2 25 23 21 21 4 0.77234629D-01 0.73028897D-02 0.21370035D+05 0.21370035D+05 0.21370035D+05 0.12306707D+01  1  2 12  3  6  5       21 0.720113224265D-02 0.100000000000D+01
0.538526696904D-05 0.000000000000D+00 0.000000000000D+00 0.239016539056D-04 0.000000000000D+00  6 2 -2 25 23 21 21 4 0.77234629D-01 0.73028897D-02 0.21370035D+05 0.21370035D+05 0.21370035D+05 0.12306707D+01  1  2 12  3  6  5       21 0.804714387770D-02 0.100000000000D+01
-.138696699352D-03 0.000000000000D+00 0.000000000000D+00 0.238858283359D-04 0.000000000000D+00  6 2 -2 25 23 21 21 4 0.77234629D-01 0.73028897D-02 0.21554499D+05 0.21554499D+05 0.21554499D+05 0.12302632D+01  1  2  4  3  6  5       21 -.207028682006D+00 0.100000000000D+01
-.188926191561D-04 0.000000000000D+00 0.000000000000D+00 0.238858283359D-04 0.000000000000D+00  6 2 -2 25 23 21 21 4 0.77234629D-01 0.73028897D-02 0.21554499D+05 0.21554499D+05 0.21554499D+05 0.12302632D+01  1  2  5  3  6  5       21 -.282004839467D-01 0.100000000000D+01
0.167367668640D-03 0.000000000000D+00 -.000000000000D+00 0.238858283359D-04 0.000000000000D+00  6 2 -2 25 23 21 21 4 0.77234629D-01 0.73028897D-02 0.21554499D+05 0.21554499D+05 0.21554499D+05 0.12302632D+01  1  2  6  3  6  5       21 0.249825035569D+00 0.100000000000D+01
0.899295735718D-06 0.000000000000D+00 0.000000000000D+00 0.239016539056D-04 0.000000000000D+00  6 2 -2 25 23 1 -1 4 0.77234629D-01 0.73028897D-02 0.21370035D+05 0.21370035D+05 0.21370035D+05 0.12306707D+01  1  2 12  6  6  5       21 0.134380750584D-02 0.100000000000D+01
0.899295735718D-06 0.000000000000D+00 0.000000000000D+00 0.239016539056D-04 0.000000000000D+00  6 2 -2 25 23 3 -3 4 0.77234629D-01 0.73028897D-02 0.21370035D+05 0.21370035D+05 0.21370035D+05 0.12306707D+01  1  2 12  6  6  5       21 0.134380750584D-02 0.100000000000D+01
0.958739336473D-06 0.000000000000D+00 0.000000000000D+00 0.239016539056D-04 0.000000000000D+00  6 2 -2 25 23 1 -1 4 0.77234629D-01 0.73028897D-02 0.21370035D+05 0.21370035D+05 0.21370035D+05 0.12306707D+01  1  2 12  6  6  5       21 0.143263341004D-02 0.100000000000D+01
0.958739336473D-06 0.000000000000D+00 0.000000000000D+00 0.239016539056D-04 0.000000000000D+00  6 2 -2 25 23 3 -3 4 0.77234629D-01 0.73028897D-02 0.21370035D+05 0.21370035D+05 0.21370035D+05 0.12306707D+01  1  2 12  6  6  5       21 0.143263341004D-02 0.100000000000D+01
-.368963644231D-05 0.000000000000D+00 0.000000000000D+00 0.238858283359D-04 0.000000000000D+00  6 2 -2 25 23 1 -1 4 0.77234629D-01 0.73028897D-02 0.21554499D+05 0.21554499D+05 0.21554499D+05 0.12302632D+01  1  2  5  6  6  5       21 -.550741707124D-02 0.100000000000D+01
-.368963644231D-05 0.000000000000D+00 0.000000000000D+00 0.238858283359D-04 0.000000000000D+00  6 2 -2 25 23 3 -3 4 0.77234629D-01 0.73028897D-02 0.21554499D+05 0.21554499D+05 0.21554499D+05 0.12302632D+01  1  2  5  6  6  5       21 -.550741707124D-02 0.100000000000D+01
0.899295735718D-06 0.000000000000D+00 0.000000000000D+00 0.239016539056D-04 0.000000000000D+00  6 2 -2 25 23 2 -2 4 0.77234629D-01 0.73028897D-02 0.21370035D+05 0.21370035D+05 0.21370035D+05 0.12306707D+01  1  2 12  7  6  5       21 0.134380750584D-02 0.100000000000D+01
0.958739336473D-06 0.000000000000D+00 0.000000000000D+00 0.239016539056D-04 0.000000000000D+00  6 2 -2 25 23 2 -2 4 0.77234629D-01 0.73028897D-02 0.21370035D+05 0.21370035D+05 0.21370035D+05 0.12306707D+01  1  2 12  7  6  5       21 0.143263341004D-02 0.100000000000D+01
-.368963644231D-05 0.000000000000D+00 0.000000000000D+00 0.238858283359D-04 0.000000000000D+00  6 2 -2 25 23 2 -2 4 0.77234629D-01 0.73028897D-02 0.21554499D+05 0.21554499D+05 0.21554499D+05 0.12302632D+01  1  2  5  7  6  5       21 -.550741707124D-02 0.100000000000D+01
0.899295735718D-06 0.000000000000D+00 0.000000000000D+00 0.239016539056D-04 0.000000000000D+00  6 2 -2 25 23 4 -4 4 0.77234629D-01 0.73028897D-02 0.21370035D+05 0.21370035D+05 0.21370035D+05 0.12306707D+01  1  2 12  8  6  5       21 0.134380750584D-02 0.100000000000D+01
0.958739336473D-06 0.000000000000D+00 0.000000000000D+00 0.239016539056D-04 0.000000000000D+00  6 2 -2 25 23 4 -4 4 0.77234629D-01 0.73028897D-02 0.21370035D+05 0.21370035D+05 0.21370035D+05 0.12306707D+01  1  2 12  8  6  5       21 0.143263341004D-02 0.100000000000D+01
-.368963644231D-05 0.000000000000D+00 0.000000000000D+00 0.238858283359D-04 0.000000000000D+00  6 2 -2 25 23 4 -4 4 0.77234629D-01 0.73028897D-02 0.21554499D+05 0.21554499D+05 0.21554499D+05 0.12302632D+01  1  2  5  8  6  5       21 -.550741707124D-02 0.100000000000D+01
  </mgrwgt>
  </event>
  <event>
  5     66 0.57005756E-03 0.24746002E+02 0.75467711E-02 0.12073877E+00
        2 -1    0    0  502    0 0.00000000E+00 0.00000000E+00 0.90463968E+03 0.90463974E+03 0.32000000E+00 0.0000E+00 0.9000E+01
       -2 -1    0    0    0  501 0.00000000E+00 0.00000000E+00 -.29174147E+02 0.29175902E+02 0.32000000E+00 0.0000E+00 0.9000E+01
       25  1    1    2    0    0 -.55886295E+02 0.44688353E+02 0.52436016E+03 0.54378203E+03 0.12500000E+03 0.0000E+00 0.9000E+01
       23  1    1    2    0    0 0.41082326E+02 -.64512218E+02 0.17162250E+03 0.20885190E+03 0.91188000E+02 0.0000E+00 0.9000E+01
       21  1    1    2  502  501 0.14803968E+02 0.19823866E+02 0.17948288E+03 0.18118170E+03 0.75000000E+00 0.0000E+00 0.9000E+01
#aMCatNLO 1  0  0  5  2 0.31951216D+01 0.00000000D+00  -5  6  0 0.00000000D+00 0.00000000D+00 0.00000000D+00 0.00000000D+00 0.00000000D+00
  <mgrwgt>
 0.9162593274D-01   25    2    0
 0.162459031173939D+03 0.000000000000000D+00 0.000000000000000D+00 0.162459031173939D+03
 0.162459031173939D+03 -.000000000000000D+00 -.000000000000000D+00 -.162459031173939D+03
 0.149984506122532D+03 -.558876902918896D+02 0.446864836616817D+02 0.418334355344142D+02
 0.137819731334946D+03 0.410810438447802D+02 -.645139355959812D+02 -.694933590480231D+02
 0.371138248904010D+02 0.148066464471095D+02 0.198274519342995D+02 0.276599235136089D+02
 0.000000000000000D+00 0.000000000000000D+00 0.000000000000000D+00 0.000000000000000D+00
 0.162459031173939D+03 0.000000000000000D+00 0.000000000000000D+00 0.162459031173939D+03
 0.162459031173939D+03 -.000000000000000D+00 -.000000000000000D+00 -.162459031173939D+03
 0.150270649065503D+03 -.553745246413602D+02 0.453736593369131D+02 0.427920673687164D+02
 0.137226157731358D+03 0.415511243751203D+02 -.638844548317944D+02 -.686152134422041D+02
 0.341635605356183D+02 0.110114612463281D+02 0.200852810231734D+02 0.253471512385834D+02
 0.325769501539958D+01 0.281193901991178D+01 -.157448552829213D+01 0.475994834904250D+00
0.542971857816D-04 0.000000000000D+00 0.000000000000D+00 0.166103623385D-04 0.000000000000D+00  6 2 -2 25 23 21 21 2 0.13917548D+00 0.44884696D-02 0.20706483D+05 0.20706483D+05 0.20706483D+05 0.12321697D+01  1  2  2  3  6  5       21 0.557755818912D-01 0.100000000000D+01
0.785499763074D-05 0.286534121450D-05 -.208515490179D-06 0.166103623385D-04 0.000000000000D+00  6 2 -2 25 23 21 21 4 0.13917548D+00 0.44884696D-02 0.20706483D+05 0.20706483D+05 0.20706483D+05 0.12321697D+01  1  2  3  3  6  5       21 0.122505026849D-01 0.100000000000D+01
0.364698861096D-06 0.000000000000D+00 0.000000000000D+00 0.166103623385D-04 0.000000000000D+00  6 2 -2 25 23 21 21 4 0.13917548D+00 0.44884696D-02 0.20706483D+05 0.20706483D+05 0.20706483D+05 0.12321697D+01  1  2 15  3  6  5       21 0.568777304216D-03 0.100000000000D+01
0.160000344846D-06 0.000000000000D+00 0.000000000000D+00 0.165994861563D-04 0.000000000000D+00  6 2 -2 25 23 21 21 4 0.13917548D+00 0.44884696D-02 0.20882780D+05 0.20882780D+05 0.20882780D+05 0.12317662D+01  1  2 12  3  6  5       21 0.249255689265D-03 0.100000000000D+01
0.249870336338D-06 0.000000000000D+00 0.000000000000D+00 0.165994861563D-04 0.000000000000D+00  6 2 -2 25 23 21 21 4 0.13917548D+00 0.44884696D-02 0.20882780D+05 0.20882780D+05 0.20882780D+05 0.12317662D+01  1  2 12  3  6  5       21 0.389259179226D-03 0.100000000000D+01
-.172901915997D-03 0.000000000000D+00 0.000000000000D+00 0.166103623385D-04 0.000000000000D+00  6 2 -2 25 23 21 21 4 0.13917548D+00 0.44884696D-02 0.20706483D+05 0.20706483D+05 0.20706483D+05 0.12321697D+01  1  2  4  3  6  5       21 -.269654490774D+00 0.100000000000D+01
-.211637938073D-03 0.000000000000D+00 0.000000000000D+00 0.166103623385D-04 0.000000000000D+00  6 2 -2 25 23 21 21 4 0.13917548D+00 0.44884696D-02 0.20706483D+05 0.20706483D+05 0.20706483D+05 0.12321697D+01  1  2  5  3  6  5       21 -.330066443106D+00 0.100000000000D+01
0.247457712989D-03 0.000000000000D+00 -.000000000000D+00 0.166103623385D-04 0.000000000000D+00  6 2 -2 25 23 21 21 4 0.13917548D+00 0.44884696D-02 0.20706483D+05 0.20706483D+05 0.20706483D+05 0.12321697D+01  1  2  6  3  6  5       21 0.385930272660D+00 0.100000000000D+01
0.152979110568D-03 0.000000000000D+00 0.000000000000D+00 0.166103623385D-04 0.693096042719D-05  6 2 -2 25 23 21 21 4 0.13917548D+00 0.44884696D-02 0.20882780D+05 0.20882780D+05 0.20882780D+05 0.12317662D+01  1  2 11  3  6  5       21 0.238317696655D+00 0.100000000000D+01
0.173447983744D-07 0.000000000000D+00 0.000000000000D+00 0.165994861563D-04 0.000000000000D+00  6 2 -2 25 23 1 -1 4 0.13917548D+00 0.44884696D-02 0.20882780D+05 0.20882780D+05 0.20882780D+05 0.12317662D+01  1  2 12  6  6  5       21 0.270205022252D-04 0.100000000000D+01
0.173447983744D-07 0.000000000000D+00 0.000000000000D+00 0.165994861563D-04 0.000000000000D+00  6 2 -2 25 23 3 -3 4 0.13917548D+00 0.44884696D-02 0.20882780D+05 0.20882780D+05 0.20882780D+05 0.12317662D+01  1  2 12  6  6  5       21 0.270205022252D-04 0.100000000000D+01
0.193810902415D-07 0.000000000000D+00 0.000000000000D+00 0.165994861563D-04 0.000000000000D+00  6 2 -2 25 23 1 -1 4 0.13917548D+00 0.44884696D-02 0.20882780D+05 0.20882780D+05 0.20882780D+05 0.12317662D+01  1  2 12  6  6  5       21 0.301927287187D-04 0.100000000000D+01
0.193810902415D-07 0.000000000000D+00 0.000000000000D+00 0.165994861563D-04 0.000000000000D+00  6 2 -2 25 23 3 -3 4 0.13917548D+00 0.44884696D-02 0.20882780D+05 0.20882780D+05 0.20882780D+05 0.12317662D+01  1  2 12  6  6  5       21 0.301927287187D-04 0.100000000000D+01
-.168695163103D-05 0.000000000000D+00 0.000000000000D+00 0.166103623385D-04 0.000000000000D+00  6 2 -2 25 23 1 -1 4 0.13917548D+00 0.44884696D-02 0.20706483D+05 0.20706483D+05 0.20706483D+05 0.12321697D+01  1  2  5  6  6  5       21 -.263093720161D-02 0.100000000000D+01
-.168695163103D-05 0.000000000000D+00 0.000000000000D+00 0.166103623385D-04 0.000000000000D+00  6 2 -2 25 23 3 -3 4 0.13917548D+00 0.44884696D-02 0.20706483D+05 0.20706483D+05 0.20706483D+05 0.12321697D+01  1  2  5  6  6  5       21 -.263093720161D-02 0.100000000000D+01
0.132182639364D-05 0.000000000000D+00 0.000000000000D+00 0.166103623385D-04 0.999053442690D-07  6 2 -2 25 23 1 -1 4 0.13917548D+00 0.44884696D-02 0.20882780D+05 0.20882780D+05 0.20882780D+05 0.12317662D+01  1  2 11  6  6  5       21 0.205920024204D-02 0.100000000000D+01
0.132182639364D-05 0.000000000000D+00 0.000000000000D+00 0.166103623385D-04 0.999053442690D-07  6 2 -2 25 23 3 -3 4 0.13917548D+00 0.44884696D-02 0.20882780D+05 0.20882780D+05 0.20882780D+05 0.12317662D+01  1  2 11  6  6  5       21 0.205920024204D-02 0.100000000000D+01
0.173447983744D-07 0.000000000000D+00 0.000000000000D+00 0.165994861563D-04 0.000000000000D+00  6 2 -2 25 23 2 -2 4 0.13917548D+00 0.44884696D-02 0.20882780D+05 0.20882780D+05 0.20882780D+05 0.12317662D+01  1  2 12  7  6  5       21 0.270205022252D-04 0.100000000000D+01
0.193810902415D-07 0.000000000000D+00 0.000000000000D+00 0.165994861563D-04 0.000000000000D+00  6 2 -2 25 23 2 -2 4 0.13917548D+00 0.44884696D-02 0.20882780D+05 0.20882780D+05 0.20882780D+05 0.12317662D+01  1  2 12  7  6  5       21 0.301927287187D-04 0.100000000000D+01
-.168695163103D-05 0.000000000000D+00 0.000000000000D+00 0.166103623385D-04 0.000000000000D+00  6 2 -2 25 23 2 -2 4 0.13917548D+00 0.44884696D-02 0.20706483D+05 0.20706483D+05 0.20706483D+05 0.12321697D+01  1  2  5  7  6  5       21 -.263093720161D-02 0.100000000000D+01
0.127202210852D-05 0.000000000000D+00 0.000000000000D+00 0.166103623385D-04 0.104336654664D-06  6 2 -2 25 23 2 -2 4 0.13917548D+00 0.44884696D-02 0.20882780D+05 0.20882780D+05 0.20882780D+05 0.12317662D+01  1  2 11  7  6  5       21 0.198161290042D-02 0.100000000000D+01
0.173447983744D-07 0.000000000000D+00 0.000000000000D+00 0.165994861563D-04 0.000000000000D+00  6 2 -2 25 23 4 -4 4 0.13917548D+00 0.44884696D-02 0.20882780D+05 0.20882780D+05 0.20882780D+05 0.12317662D+01  1  2 12  8  6  5       21 0.270205022252D-04 0.100000000000D+01
0.193810902415D-07 0.000000000000D+00 0.000000000000D+00 0.165994861563D-04 0.000000000000D+00  6 2 -2 25 23 4 -4 4 0.13917548D+00 0.44884696D-02 0.20882780D+05 0.20882780D+05 0.20882780D+05 0.12317662D+01  1  2 12  8  6  5       21 0.301927287187D-04 0.100000000000D+01
-.168695163103D-05 0.000000000000D+00 0.000000000000D+00 0.166103623385D-04 0.000000000000D+00  6 2 -2 25 23 4 -4 4 0.13917548D+00 0.44884696D-02 0.20706483D+05 0.20706483D+05 0.20706483D+05 0.12321697D+01  1  2  5  8  6  5       21 -.263093720161D-02 0.100000000000D+01
0.132259849263D-05 0.000000000000D+00 0.000000000000D+00 0.166103623385D-04 0.999637005069D-07  6 2 -2 25 23 4 -4 4 0.13917548D+00 0.44884696D-02 0.20882780D+05 0.20882780D+05 0.20882780D+05 0.12317662D+01  1  2 11  8  6  5       21 0.206040305236D-02 0.100000000000D+01
  </mgrwgt>
  </event>
  <event>
  5     66 0.57005756E-03 0.12045187E+03 0.75467711E-02 0.10977694E+00
        2 -1    0    0  502    0 0.00000000E+00 0.00000000E+00 0.14377192E+04 0.14377192E+04 0.32000000E+00 0.0000E+00 0.9000E+01
       -2 -1    0    0    0  501 0.00000000E+00 0.00000000E+00 -.92977904E+02 0.92978454E+02 0.32000000E+00 0.0000E+00 0.9000E+01
       25  1    1    2    0    0 -.12489003E+03 0.86891943E+01 0.26963163E+03 0.32248913E+03 0.12500000E+03 0.0000E+00 0.9000E+01
       23  1    1    2    0    0 0.16968409E+03 -.12830040E+03 0.15335113E+03 0.27764276E+03 0.91188000E+02 0.0000E+00 0.9000E+01
       21  1    1    2  502  501 -.44794067E+02 0.11961120E+03 0.92175852E+03 0.93056579E+03 0.75000000E+00 0.0000E+00 0.9000E+01
#aMCatNLO 1  0  0  1  5 0.15205044D+02 0.00000000D+00  -5  6  0 0.00000000D+00 0.00000000D+00 0.00000000D+00 0.00000000D+00 0.00000000D+00
  <mgrwgt>
 0.3639368753D-01    9    4    0
 0.365618058611434D+03 0.000000000000000D+00 0.000000000000000D+00 0.365618058611434D+03
 0.365618058611434D+03 0.000000000000000D+00 0.000000000000000D+00 -.365618058611434D+03
 0.179215122778672D+03 -.124889977677052D+03 0.868906536621220D+01 -.286365823984213D+02
 0.299178082659464D+03 0.169684173839466D+03 -.128300611013857D+03 -.189574545131149D+03
 0.252842911784732D+03 -.447941961624142D+02 0.119611545647644D+03 0.218211127529571D+03
 0.000000000000000D+00 0.000000000000000D+00 -.000000000000000D+00 0.000000000000000D+00
 0.403386405548888D+03 0.000000000000000D+00 0.000000000000000D+00 0.403386405548888D+03
 0.367230639254374D+03 0.000000000000000D+00 0.000000000000000D+00 -.367230639254374D+03
 0.181339646174637D+03 -.127730299339232D+03 0.111348127057056D+02 -.286365823984213D+02
 0.294828254133276D+03 0.165004804126059D+03 -.124271294130681D+03 -.189574545131149D+03
 0.255226283766962D+03 -.487965837780352D+02 0.123057926032257D+03 0.218211127529571D+03
 0.392228607283870D+02 0.115220789912080D+02 -.992144460728128D+01 0.361557662945132D+02
 0.365618058611434D+03 0.000000000000000D+00 0.000000000000000D+00 0.365618058611434D+03
 0.365618058611434D+03 0.000000000000000D+00 0.000000000000000D+00 -.365618058611434D+03
 0.179215122778672D+03 -.124889977677052D+03 0.868906536621220D+01 -.286365823984213D+02
 0.299178082659464D+03 0.169684173839466D+03 -.128300611013857D+03 -.189574545131149D+03
 0.000000000000000D+00 0.000000000000000D+00 -.000000000000000D+00 0.000000000000000D+00
 0.252842911784732D+03 -.447941961624142D+02 0.119611545647644D+03 0.218211127529571D+03
 0.403386405548888D+03 0.000000000000000D+00 0.000000000000000D+00 0.403386405548888D+03
 0.367230639254374D+03 0.000000000000000D+00 0.000000000000000D+00 -.367230639254374D+03
 0.181339646174637D+03 -.127730299339232D+03 0.111348127057056D+02 -.286365823984213D+02
 0.294828254133276D+03 0.165004804126059D+03 -.124271294130681D+03 -.189574545131149D+03
 0.392228607283870D+02 0.115220789912080D+02 -.992144460728128D+01 0.361557662945132D+02
 0.255226283766962D+03 -.487965837780352D+02 0.123057926032257D+03 0.218211127529571D+03
0.365756652058D-04 0.000000000000D+00 0.000000000000D+00 0.721531831142D-06 0.000000000000D+00  6 2 -2 25 23 21 21 2 0.22118761D+00 0.14304338D-01 0.71847137D+05 0.71847137D+05 0.71847137D+05 0.11769973D+01  1  2  2  1  6  1        2 0.277944227395D-02 0.100000000000D+01
-.121775515988D-05 0.193015088081D-05 -.140460184984D-06 0.721531831142D-06 0.000000000000D+00  6 2 -2 25 23 21 21 4 0.22118761D+00 0.14304338D-01 0.71847137D+05 0.71847137D+05 0.71847137D+05 0.11769973D+01  1  2  3  1  6  1        2 -.128196555558D-03 0.100000000000D+01
0.129456365972D-05 0.000000000000D+00 0.000000000000D+00 0.721531831142D-06 0.000000000000D+00  6 2 -2 25 23 21 21 4 0.22118761D+00 0.14304338D-01 0.71847137D+05 0.71847137D+05 0.71847137D+05 0.11769973D+01  1  2 15  1  6  1        2 0.136282405195D-03 0.100000000000D+01
0.687420968419D-03 0.000000000000D+00 0.000000000000D+00 0.718497917121D-06 0.000000000000D+00  6 2 -2 25 23 21 21 4 0.25434944D+00 0.14304338D-01 0.76299678D+05 0.76299678D+05 0.76299678D+05 0.11745202D+01  1  2 12  1  6  1        2 0.549847478183D-01 0.100000000000D+01
-.419002297113D-03 0.000000000000D+00 0.000000000000D+00 0.721531831142D-06 0.000000000000D+00  6 2 -2 25 23 21 21 4 0.22118761D+00 0.14304338D-01 0.71847137D+05 0.71847137D+05 0.71847137D+05 0.11769973D+01  1  2  4  1  6  1        2 -.441095657243D-01 0.100000000000D+01
-.127105475184D-02 0.000000000000D+00 -.848921094144D-04 0.721531831142D-06 0.000000000000D+00  6 2 -2 25 23 21 21 4 0.24444304D+00 0.14304338D-01 0.71847137D+05 0.71847137D+05 0.71847137D+05 0.11769973D+01  1  2  5  1  6  1        2 -.111053354725D+00 0.100000000000D+01
0.127359437296D-02 0.000000000000D+00 0.844696539787D-04 0.721531831142D-06 0.000000000000D+00  6 2 -2 25 23 21 21 4 0.22118761D+00 0.14304338D-01 0.71847137D+05 0.71847137D+05 0.71847137D+05 0.11769973D+01  1  2  6  1  6  1        2 0.134074908628D+00 0.100000000000D+01
0.148064967961D-04 0.000000000000D+00 0.000000000000D+00 0.718497917121D-06 0.000000000000D+00  6 21 -2 25 23 -2 21 4 0.25434944D+00 0.14304338D-01 0.76299678D+05 0.76299678D+05 0.76299678D+05 0.11745202D+01  3  4 12  4  5  1        2 0.485735801109D-03 0.100000000000D+01
-.203601172572D-04 0.000000000000D+00 -.137849818997D-05 0.721531831142D-06 0.000000000000D+00  6 21 -2 25 23 -2 21 4 0.24444304D+00 0.14304338D-01 0.71847137D+05 0.71847137D+05 0.71847137D+05 0.11769973D+01  3  4  5  4  5  1        2 -.776312391201D-03 0.100000000000D+01
  </mgrwgt>
  </event>
  <event>
  5     66 0.57005756E-03 0.23551835E+02 0.75467711E-02 0.11321319E+00
        2 -1    0    0  502    0 0.00000000E+00 0.00000000E+00 0.78111076E+03 0.78111083E+03 0.32000000E+00 0.0000E+00 0.9000E+01
       -2 -1    0    0    0  501 0.00000000E+00 0.00000000E+00 -.88199502E+02 0.88200082E+02 0.32000000E+00 0.0000E+00 0.9000E+01
       25  1    1    2    0    0 0.74728945E+02 0.10413028E+03 0.34923924E+02 0.18240672E+03 0.12500000E+03 0.0000E+00 0.9000E+01
       23  1    1    2    0    0 -.72913033E+02 -.12760772E+03 0.55869100E+03 0.58485120E+03 0.91188000E+02 0.0000E+00 0.9000E+01
       21  1    1    2  502  501 -.18159121E+01 0.23477441E+02 0.99296331E+02 0.10205298E+03 0.75000000E+00 0.0000E+00 0.9000E+01
#aMCatNLO 1  0  0  2  2 0.69343816D+02 0.00000000D+00  -5  6  0 0.00000000D+00 0.00000000D+00 0.00000000D+00 0.00000000D+00 0.00000000D+00
  <mgrwgt>
 0.1466708375D+00    4    2    0
 0.262476400407603D+03 0.000000000000000D+00 0.000000000000000D+00 0.262476400407603D+03
 0.262476400407603D+03 0.000000000000000D+00 0.000000000000000D+00 -.262476400407603D+03
 0.255965075844147D+03 0.747291182213231D+02 0.104128045532463D+03 -.182937227144595D+03
 0.231056799393657D+03 -.729128767333880D+02 -.127609745124683D+03 0.153203976964424D+03
 0.379309255774017D+02 -.181624148793512D+01 0.234816995922206D+02 0.297332501801703D+02
 0.000000000000000D+00 -.000000000000000D+00 -.000000000000000D+00 0.000000000000000D+00
 0.341902462334897D+03 0.000000000000000D+00 0.000000000000000D+00 0.341902462334897D+03
 0.277339750449624D+03 0.000000000000000D+00 0.000000000000000D+00 -.277339750449624D+03
 0.273222894714063D+03 0.906222276482996D+02 0.131709274451873D+03 -.182937227144595D+03
 0.214989198594137D+03 -.595167712852481D+02 -.104361868257583D+03 0.153203976964424D+03
 0.405535527443358D+02 0.540883903578915D+00 0.275723034676808D+02 0.297332501801703D+02
 0.904765667319844D+02 -.316463402666305D+02 -.549197096619704D+02 0.645627118852727D+02
0.523366737907D-03 0.000000000000D+00 0.000000000000D+00 0.844912430035D-05 0.000000000000D+00  6 2 -2 25 23 21 21 2 0.12017094D+00 0.13569204D-01 0.35258440D+05 0.35258440D+05 0.35258440D+05 0.12076050D+01  1  2  2  2  6  2       -2 0.112581519564D+00 0.100000000000D+01
0.107432140557D-03 0.276188215436D-04 -.200986607919D-05 0.844912430035D-05 0.000000000000D+00  6 2 -2 25 23 21 21 4 0.12017094D+00 0.13569204D-01 0.35258440D+05 0.35258440D+05 0.35258440D+05 0.12076050D+01  1  2  3  2  6  2       -2 0.337011712285D-01 0.100000000000D+01
0.129873298489D-04 0.000000000000D+00 0.000000000000D+00 0.844912430035D-05 0.000000000000D+00  6 2 -2 25 23 21 21 4 0.12017094D+00 0.13569204D-01 0.35258440D+05 0.35258440D+05 0.35258440D+05 0.12076050D+01  1  2 15  2  6  2       -2 0.407409016305D-02 0.100000000000D+01
-.117500011138D-04 0.000000000000D+00 0.000000000000D+00 0.844912430035D-05 0.000000000000D+00  6 2 -2 25 23 21 21 4 0.12017094D+00 0.13569204D-01 0.35258440D+05 0.35258440D+05 0.35258440D+05 0.12076050D+01  1  2  4  2  6  2       -2 -.368594349343D-02 0.100000000000D+01
  </mgrwgt>
  </event>
  <event>
  5     66 0.57005756E-03 0.79416055E+02 0.75467711E-02 0.11563534E+00
        2 -1    0    0  502    0 0.00000000E+00 0.00000000E+00 0.66031381E+03 0.66031389E+03 0.32000000E+00 0.0000E+00 0.9000E+01
       -2 -1    0    0    0  501 0.00000000E+00 0.00000000E+00 -.59191059E+02 0.59191924E+02 0.32000000E+00 0.0000E+00 0.9000E+01
       25  1    1    2    0    0 0.44298071E+02 0.12882761E+02 0.11565115E+03 0.17643263E+03 0.12500000E+03 0.0000E+00 0.9000E+01
       23  1    1    2    0    0 -.15677428E+02 -.86959914E+02 0.42411498E+03 0.44271501E+03 0.91188000E+02 0.0000E+00 0.9000E+01
       21  1    1    2  502  501 -.28620643E+02 0.74077153E+02 0.61356615E+02 0.10035817E+03 0.75000000E+00 0.0000E+00 0.9000E+01
#aMCatNLO 1  0  0  1  2 0.43428392D+02 0.00000000D+00  -5  6  0 0.00000000D+00 0.00000000D+00 0.00000000D+00 0.00000000D+00 0.00000000D+00
  <mgrwgt>
 0.3460541581D-01    7    4    0
 0.197699299016197D+03 0.000000000000000D+00 0.000000000000000D+00 0.197699299016197D+03
 0.197699299016197D+03 0.000000000000000D+00 0.000000000000000D+00 -.197699299016197D+03
 0.145229885100260D+03 0.442984413205338D+02 0.128818025178354D+02 -.577791206812401D+02
 0.160828110973034D+03 -.156770178715908D+02 -.869609758866904D+02 0.987038485503121D+02
 0.893406019590991D+02 -.286214234489429D+02 0.740791733688550D+02 -.409247278690720D+02
 0.000000000000000D+00 -.000000000000000D+00 -.000000000000000D+00 0.000000000000000D+00
 0.224730038635749D+03 0.000000000000000D+00 0.000000000000000D+00 0.224730038635749D+03
 0.217134062902479D+03 0.000000000000000D+00 0.000000000000000D+00 -.217134062902479D+03
 0.151048182903058D+03 0.585113546896146D+02 0.207014043969093D+02 -.577791206812401D+02
 0.155682576551812D+03 -.493514710200950D+00 -.786073789309801D+02 0.987038485503121D+02
 0.910456558310580D+02 -.199680179767718D+02 0.788400681926974D+02 -.409247278690720D+02
 0.440876862523007D+02 -.380498220026419D+02 -.209340936586266D+02 0.759597573326961D+01
 0.197699299016197D+03 0.000000000000000D+00 0.000000000000000D+00 0.197699299016197D+03
 0.197699299016197D+03 0.000000000000000D+00 0.000000000000000D+00 -.197699299016197D+03
 0.145229885100260D+03 0.442984413205338D+02 0.128818025178354D+02 -.577791206812401D+02
 0.160828110973034D+03 -.156770178715908D+02 -.869609758866904D+02 0.987038485503121D+02
 0.000000000000000D+00 -.000000000000000D+00 -.000000000000000D+00 0.000000000000000D+00
 0.893406019590991D+02 -.286214234489429D+02 0.740791733688550D+02 -.409247278690720D+02
 0.224730038635749D+03 0.000000000000000D+00 0.000000000000000D+00 0.224730038635749D+03
 0.217134062902479D+03 0.000000000000000D+00 0.000000000000000D+00 -.217134062902479D+03
 0.151048182903058D+03 0.585113546896146D+02 0.207014043969093D+02 -.577791206812401D+02
 0.155682576551812D+03 -.493514710200950D+00 -.786073789309801D+02 0.987038485503121D+02
 0.440876862523007D+02 -.380498220026419D+02 -.209340936586266D+02 0.759597573326961D+01
 0.910456558310580D+02 -.199680179767718D+02 0.788400681926974D+02 -.409247278690720D+02
0.418760192640D-04 0.000000000000D+00 0.000000000000D+00 0.146486116159D-05 0.000000000000D+00  6 2 -2 25 23 21 21 2 0.10158681D+00 0.91063893D-02 0.28837954D+05 0.28837954D+05 0.28837954D+05 0.12167032D+01  1  2  2  1  6  1        2 0.211425530640D-01 0.100000000000D+01
-.206303943330D-05 0.220985824899D-05 -.160814940183D-06 0.146486116159D-05 0.000000000000D+00  6 2 -2 25 23 21 21 4 0.10158681D+00 0.91063893D-02 0.28837954D+05 0.28837954D+05 0.28837954D+05 0.12167032D+01  1  2  3  1  6  1        2 -.154194495155D-02 0.100000000000D+01
0.165487925172D-05 0.000000000000D+00 0.000000000000D+00 0.146486116159D-05 0.000000000000D+00  6 2 -2 25 23 21 21 4 0.10158681D+00 0.91063893D-02 0.28837954D+05 0.28837954D+05 0.28837954D+05 0.12167032D+01  1  2 15  1  6  1        2 0.123688023914D-02 0.100000000000D+01
-.296534413186D-04 0.000000000000D+00 0.000000000000D+00 0.146486116159D-05 0.000000000000D+00  6 2 -2 25 23 21 21 4 0.10158681D+00 0.91063893D-02 0.28837954D+05 0.28837954D+05 0.28837954D+05 0.12167032D+01  1  2  4  1  6  1        2 -.221634028895D-01 0.100000000000D+01
-.201918311912D-03 0.000000000000D+00 -.597039009800D-04 0.146486116159D-05 0.000000000000D+00  6 2 -2 25 23 21 21 4 0.12408937D+00 0.91063893D-02 0.28837954D+05 0.28837954D+05 0.28837954D+05 0.12167032D+01  1  2  5  1  6  1        2 -.118329721337D+00 0.100000000000D+01
0.210805939042D-03 0.000000000000D+00 0.585283856950D-04 0.146486116159D-05 0.000000000000D+00  6 2 -2 25 23 21 21 4 0.10158681D+00 0.91063893D-02 0.28837954D+05 0.28837954D+05 0.28837954D+05 0.12167032D+01  1  2  6  1  6  1        2 0.157559350643D+00 0.100000000000D+01
-.509210722765D-05 0.000000000000D+00 -.170911400129D-05 0.146486116159D-05 0.000000000000D+00  6 21 -2 25 23 -2 21 4 0.12408937D+00 0.91063893D-02 0.28837954D+05 0.28837954D+05 0.28837954D+05 0.12167032D+01  3  4  5  4  5  1        2 -.329829895399D-02 0.100000000000D+01
  </mgrwgt>
  </event>
  <event>
  6     66 0.57005756E-03 0.98147701E+02 0.75467711E-02 0.10771987E+00
        2 -1    0    0  502    0 0.00000000E+00 0.00000000E+00 0.10864813E+04 0.10864814E+04 0.32000000E+00 0.0000E+00 0.9000E+01
       21 -1    0    0  503  501 0.00000000E+00 0.00000000E+00 -.14256850E+03 0.14257047E+03 0.75000000E+00 0.0000E+00 0.9000E+01
       25  1    1    2    0    0 -.24226690E+03 -.77819039E+02 0.48431046E+03 0.56118684E+03 0.12500000E+03 0.0000E+00 0.9000E+01
       23  1    1    2    0    0 0.10883958E+03 0.74632128E+02 0.36877424E+03 0.40215134E+03 0.91188000E+02 0.0000E+00 0.9000E+01
        2  1    1    2  503    0 0.11337717E+03 0.60617291E+02 -.28578850E+02 0.13170304E+03 0.32000000E+00 0.0000E+00 0.9000E+01
       21  1    1    2  502  501 0.20050152E+02 -.57430380E+02 0.11940698E+03 0.13401062E+03 0.75000000E+00 0.0000E+00 0.9000E+01
#aMCatNLO 2  0  0  2  2 0.37001148D+01 0.00000000D+00  -5  6  0 0.00000000D+00 0.00000000D+00 0.00000000D+00 0.00000000D+00 0.00000000D+00
  <mgrwgt>
 0.2572662734D-01    1    2    0
 0.245919445604498D+03 0.000000000000000D+00 0.000000000000000D+00 0.245919445604498D+03
 0.245919445604498D+03 0.000000000000000D+00 0.000000000000000D+00 -.245919445604498D+03
 0.229029080107166D+03 -.184012909182288D+03 -.466710032834480D+02 -.281138087338226D+02
 0.202371780093054D+03 0.150211881966503D+03 0.967540576132471D+02 0.267231900319758D+02
 0.000000000000000D+00 0.000000000000000D+00 0.000000000000000D+00 -.000000000000000D+00
 0.604380310087760D+02 0.338010272157850D+02 -.500830543297991D+02 0.139061870184676D+01
 0.266846051611959D+03 0.000000000000000D+00 0.000000000000000D+00 0.266846051611959D+03
 0.580481399629789D+03 0.000000000000000D+00 0.000000000000000D+00 -.580481399629789D+03
 0.284894422143089D+03 -.242268259949609D+03 -.778173229281989D+02 -.281138087338226D+02
 0.162620397116045D+03 0.108838511771244D+03 0.746337168049132D+02 0.267231900319758D+02
 0.338963080569734D+03 0.113377169178621D+03 0.606172910323502D+02 -.313635348017830D+03
 0.608495514128792D+02 0.200525789997444D+02 -.574336849090646D+02 0.139061870184676D+01
0.253523179110D-04 0.000000000000D+00 0.000000000000D+00 0.228165519135D-05 0.150071797634D-09  6 2 21 25 23 2 21 4 0.16715108D+00 0.21933765D-01 0.10027094D+06 0.10027094D+06 0.10027094D+06 0.11634637D+01  1  2  1  5  5  2       -2 0.257266273438D-01 0.100000000000D+01
  </mgrwgt>
  </event>
  <event>
  5     66 0.57005756E-03 0.28615569E+02 0.75467711E-02 0.11693779E+00
        2 -1    0    0  502    0 0.00000000E+00 0.00000000E+00 0.12377170E+03 0.12377211E+03 0.32000000E+00 0.0000E+00 0.9000E+01
       -2 -1    0    0    0  501 -.00000000E+00 -.00000000E+00 -.46613771E+03 0.46613782E+03 0.32000000E+00 0.0000E+00 0.9000E+01
       25  1    1    2    0    0 -.29072254E+02 -.13194160E+03 -.29491052E+03 0.34763630E+03 0.12500000E+03 0.0000E+00 0.9000E+01
       23  1    1    2    0    0 0.37660569E+02 0.10464567E+03 -.10495394E+03 0.17804386E+03 0.91188000E+02 0.0000E+00 0.9000E+01
       21  1    1    2  502  501 -.85883155E+01 0.27295926E+02 0.57498458E+02 0.64229759E+02 0.75000000E+00 0.0000E+00 0.9000E+01
#aMCatNLO 1  0  0  5  1 0.13041507D+01 0.00000000D+00  -5  6  0 0.00000000D+00 0.00000000D+00 0.00000000D+00 0.00000000D+00 0.00000000D+00
  <mgrwgt>
 0.1517111307D+00   25    2    0
 0.240197436419956D+03 0.000000000000000D+00 0.000000000000000D+00 0.240197436419956D+03
 0.240197436419956D+03 -.000000000000000D+00 -.000000000000000D+00 -.240197436419956D+03
 0.216711496256740D+03 -.290721780742076D+02 -.131941840964771D+03 -.114389823300344D+03
 0.143834036846931D+03 0.376606197673754D+02 0.104645513964986D+03 -.199322287398747D+01
 0.119849339736240D+03 -.858844169316777D+01 0.272963269997850D+02 0.116383046174331D+03
 0.000000000000000D+00 0.000000000000000D+00 0.000000000000000D+00 0.000000000000000D+00
 0.240197436419956D+03 0.000000000000000D+00 0.000000000000000D+00 0.240197436419956D+03
 0.240197436419956D+03 -.000000000000000D+00 -.000000000000000D+00 -.240197436419956D+03
 0.216688472264690D+03 -.290747496999170D+02 -.131933667661768D+03 -.114354974879132D+03
 0.143837218283278D+03 0.376589128387892D+02 0.104650939033062D+03 -.197009207150129D+01
 0.119010843625108D+02 -.166925224710734D+01 0.169632087771314D+01 0.116606990107350D+02
 0.107968097929432D+03 -.691491089176480D+01 0.255864077509922D+02 0.104664367939898D+03
0.950861089033D-04 0.000000000000D+00 0.000000000000D+00 0.135018741168D-04 0.000000000000D+00  6 2 -2 25 23 21 21 2 0.19041840D-01 0.71713533D-01 0.31772680D+05 0.31772680D+05 0.31772680D+05 0.12122903D+01  1  2  2  3  6  5       21 0.741186789158D-02 0.100000000000D+01
0.164416397894D-04 0.501783182397D-05 -.365155694936D-06 0.135018741168D-04 0.000000000000D+00  6 2 -2 25 23 21 21 4 0.19041840D-01 0.71713533D-01 0.31772680D+05 0.31772680D+05 0.31772680D+05 0.12122903D+01  1  2  3  3  6  5       21 0.188351460066D-02 0.100000000000D+01
0.364808157942D-05 0.000000000000D+00 0.000000000000D+00 0.135018741168D-04 0.000000000000D+00  6 2 -2 25 23 21 21 4 0.19041840D-01 0.71713533D-01 0.31772680D+05 0.31772680D+05 0.31772680D+05 0.12122903D+01  1  2 15  3  6  5       21 0.417915427369D-03 0.100000000000D+01
0.136970554926D-07 0.000000000000D+00 0.000000000000D+00 0.135003656679D-04 0.000000000000D+00  6 2 -2 25 23 21 21 4 0.19041840D-01 0.71713533D-01 0.31820240D+05 0.31820240D+05 0.31820240D+05 0.12122226D+01  1  2 12  3  6  5       21 0.156876922529D-05 0.100000000000D+01
0.145369033908D-07 0.000000000000D+00 0.000000000000D+00 0.135003656679D-04 0.000000000000D+00  6 2 -2 25 23 21 21 4 0.19041840D-01 0.71713533D-01 0.31820240D+05 0.31820240D+05 0.31820240D+05 0.12122226D+01  1  2 12  3  6  5       21 0.166495979248D-05 0.100000000000D+01
-.363979226868D-02 0.000000000000D+00 0.000000000000D+00 0.135018741168D-04 0.000000000000D+00  6 2 -2 25 23 21 21 4 0.19041840D-01 0.71713533D-01 0.31772680D+05 0.31772680D+05 0.31772680D+05 0.12122903D+01  1  2  4  3  6  5       21 -.416965823923D+00 0.100000000000D+01
-.395110409889D-03 0.000000000000D+00 0.000000000000D+00 0.135018741168D-04 0.000000000000D+00  6 2 -2 25 23 21 21 4 0.19041840D-01 0.71713533D-01 0.31772680D+05 0.31772680D+05 0.31772680D+05 0.12122903D+01  1  2  5  3  6  5       21 -.452628956375D-01 0.100000000000D+01
0.478876963030D-02 0.000000000000D+00 -.000000000000D+00 0.135018741168D-04 0.000000000000D+00  6 2 -2 25 23 21 21 4 0.19041840D-01 0.71713533D-01 0.31772680D+05 0.31772680D+05 0.31772680D+05 0.12122903D+01  1  2  6  3  6  5       21 0.548589899389D+00 0.100000000000D+01
0.448441802959D-03 0.000000000000D+00 0.000000000000D+00 0.135018741168D-04 0.697287669682D-04  6 2 -2 25 23 21 21 4 0.19041840D-01 0.71713533D-01 0.31820240D+05 0.31820240D+05 0.31820240D+05 0.12122226D+01  1  2 11  3  6  5       21 0.513615280449D-01 0.100000000000D+01
0.113468098954D-07 0.000000000000D+00 0.000000000000D+00 0.135003656679D-04 0.000000000000D+00  6 2 -2 25 23 1 -1 4 0.19041840D-01 0.71713533D-01 0.31820240D+05 0.31820240D+05 0.31820240D+05 0.12122226D+01  1  2 12  6  6  5       21 0.129958779672D-05 0.100000000000D+01
0.113468098954D-07 0.000000000000D+00 0.000000000000D+00 0.135003656679D-04 0.000000000000D+00  6 2 -2 25 23 3 -3 4 0.19041840D-01 0.71713533D-01 0.31820240D+05 0.31820240D+05 0.31820240D+05 0.12122226D+01  1  2 12  6  6  5       21 0.129958779672D-05 0.100000000000D+01
0.115422426543D-07 0.000000000000D+00 0.000000000000D+00 0.135003656679D-04 0.000000000000D+00  6 2 -2 25 23 1 -1 4 0.19041840D-01 0.71713533D-01 0.31820240D+05 0.31820240D+05 0.31820240D+05 0.12122226D+01  1  2 12  6  6  5       21 0.132197135922D-05 0.100000000000D+01
0.115422426543D-07 0.000000000000D+00 0.000000000000D+00 0.135003656679D-04 0.000000000000D+00  6 2 -2 25 23 3 -3 4 0.19041840D-01 0.71713533D-01 0.31820240D+05 0.31820240D+05 0.31820240D+05 0.12122226D+01  1  2 12  6  6  5       21 0.132197135922D-05 0.100000000000D+01
-.315506291285D-03 0.000000000000D+00 0.000000000000D+00 0.135018741168D-04 0.000000000000D+00  6 2 -2 25 23 1 -1 4 0.19041840D-01 0.71713533D-01 0.31772680D+05 0.31772680D+05 0.31772680D+05 0.12122903D+01  1  2  5  6  6  5       21 -.361436397979D-01 0.100000000000D+01
-.315506291285D-03 0.000000000000D+00 0.000000000000D+00 0.135018741168D-04 0.000000000000D+00  6 2 -2 25 23 3 -3 4 0.19041840D-01 0.71713533D-01 0.31772680D+05 0.31772680D+05 0.31772680D+05 0.12122903D+01  1  2  5  6  6  5       21 -.361436397979D-01 0.100000000000D+01
0.327139174445D-03 0.000000000000D+00 0.000000000000D+00 0.135018741168D-04 0.947182997077D-06  6 2 -2 25 23 1 -1 4 0.19041840D-01 0.71713533D-01 0.31820240D+05 0.31820240D+05 0.31820240D+05 0.12122226D+01  1  2 11  6  6  5       21 0.374683354049D-01 0.100000000000D+01
0.327139174445D-03 0.000000000000D+00 0.000000000000D+00 0.135018741168D-04 0.947182997077D-06  6 2 -2 25 23 3 -3 4 0.19041840D-01 0.71713533D-01 0.31820240D+05 0.31820240D+05 0.31820240D+05 0.12122226D+01  1  2 11  6  6  5       21 0.374683354049D-01 0.100000000000D+01
0.113468098954D-07 0.000000000000D+00 0.000000000000D+00 0.135003656679D-04 0.000000000000D+00  6 2 -2 25 23 2 -2 4 0.19041840D-01 0.71713533D-01 0.31820240D+05 0.31820240D+05 0.31820240D+05 0.12122226D+01  1  2 12  7  6  5       21 0.129958779672D-05 0.100000000000D+01
0.115422426543D-07 0.000000000000D+00 0.000000000000D+00 0.135003656679D-04 0.000000000000D+00  6 2 -2 25 23 2 -2 4 0.19041840D-01 0.71713533D-01 0.31820240D+05 0.31820240D+05 0.31820240D+05 0.12122226D+01  1  2 12  7  6  5       21 0.132197135922D-05 0.100000000000D+01
-.315506291285D-03 0.000000000000D+00 0.000000000000D+00 0.135018741168D-04 0.000000000000D+00  6 2 -2 25 23 2 -2 4 0.19041840D-01 0.71713533D-01 0.31772680D+05 0.31772680D+05 0.31772680D+05 0.12122903D+01  1  2  5  7  6  5       21 -.361436397979D-01 0.100000000000D+01
0.318000805199D-03 0.000000000000D+00 0.000000000000D+00 0.135018741168D-04 0.982486789541D-06  6 2 -2 25 23 2 -2 4 0.19041840D-01 0.71713533D-01 0.31820240D+05 0.31820240D+05 0.31820240D+05 0.12122226D+01  1  2 11  7  6  5       21 0.364216876455D-01 0.100000000000D+01
0.113468098954D-07 0.000000000000D+00 0.000000000000D+00 0.135003656679D-04 0.000000000000D+00  6 2 -2 25 23 4 -4 4 0.19041840D-01 0.71713533D-01 0.31820240D+05 0.31820240D+05 0.31820240D+05 0.12122226D+01  1  2 12  8  6  5       21 0.129958779672D-05 0.100000000000D+01
0.115422426543D-07 0.000000000000D+00 0.000000000000D+00 0.135003656679D-04 0.000000000000D+00  6 2 -2 25 23 4 -4 4 0.19041840D-01 0.71713533D-01 0.31820240D+05 0.31820240D+05 0.31820240D+05 0.12122226D+01  1  2 12  8  6  5       21 0.132197135922D-05 0.100000000000D+01
-.315506291285D-03 0.000000000000D+00 0.000000000000D+00 0.135018741168D-04 0.000000000000D+00  6 2 -2 25 23 4 -4 4 0.19041840D-01 0.71713533D-01 0.31772680D+05 0.31772680D+05 0.31772680D+05 0.12122903D+01  1  2  5  8  6  5       21 -.361436397979D-01 0.100000000000D+01
0.327220113630D-03 0.000000000000D+00 0.000000000000D+00 0.135018741168D-04 0.947417344492D-06  6 2 -2 25 23 4 -4 4 0.19041840D-01 0.71713533D-01 0.31820240D+05 0.31820240D+05 0.31820240D+05 0.12122226D+01  1  2 11  8  6  5       21 0.374776056384D-01 0.100000000000D+01
  </mgrwgt>
  </event>
  <event>
  5     66 0.57005756E-03 0.28846849E+02 0.75467711E-02 0.10837957E+00
        2 -1    0    0  502    0 0.00000000E+00 0.00000000E+00 0.15409307E+04 0.15409307E+04 0.32000000E+00 0.0000E+00 0.9000E+01
       -2 -1    0    0    0  501 0.00000000E+00 0.00000000E+00 -.87990539E+02 0.87991121E+02 0.32000000E+00 0.0000E+00 0.9000E+01
       25  1    1    2    0    0 0.19261697E+03 0.16156247E+03 0.58516906E+03 0.64903895E+03 0.12500000E+03 0.0000E+00 0.9000E+01
       23  1    1    2    0    0 -.21996948E+03 -.17072548E+03 0.89406037E+03 0.94084693E+03 0.91188000E+02 0.0000E+00 0.9000E+01
       21  1    1    2  502  501 0.27352513E+02 0.91630127E+01 -.26289253E+02 0.39035985E+02 0.75000000E+00 0.0000E+00 0.9000E+01
#aMCatNLO 1  0  0  5  1 0.63577829D+01 0.00000000D+00  -5  6  0 0.00000000D+00 0.00000000D+00 0.00000000D+00 0.00000000D+00 0.00000000D+00
  <mgrwgt>
 0.1168447647D+01   25    2    0
 0.368222521436714D+03 0.000000000000000D+00 0.000000000000000D+00 0.368222521436714D+03
 0.368222521436714D+03 -.000000000000000D+00 -.000000000000000D+00 -.368222521436714D+03
 0.281104517473547D+03 0.192616814656120D+03 0.161562417678017D+03 0.138238073554063D+02
 0.317131978495450D+03 -.219969654869302D+03 -.170725539979259D+03 0.121340765515591D+03
 0.138208546904432D+03 0.273528402131814D+02 0.916312230124194D+01 -.135164572870997D+03
 0.000000000000000D+00 0.000000000000000D+00 0.000000000000000D+00 -.000000000000000D+00
 0.368222521436714D+03 0.000000000000000D+00 0.000000000000000D+00 0.368222521436714D+03
 0.368222521436714D+03 -.000000000000000D+00 -.000000000000000D+00 -.368222521436714D+03
 0.281140079383771D+03 0.192672621062749D+03 0.161581112662711D+03 0.135480389504963D+02
 0.316958087840744D+03 -.219906717335925D+03 -.170704456087744D+03 0.121029758514118D+03
 0.100433899735475D+03 0.228961356063651D+02 0.107714925822963D+01 -.977833060386377D+02
 0.379129759134387D+02 0.433796066681121D+01 0.804619416680355D+01 -.367944914259768D+02
0.835732927655D-03 0.000000000000D+00 0.000000000000D+00 0.947171561721D-05 0.000000000000D+00  6 2 -2 25 23 21 21 2 0.23706631D+00 0.13537053D-01 0.90785138D+05 0.90785138D+05 0.90785138D+05 0.11674483D+01  1  2  2  3  6  5       21 0.599617637994D-01 0.100000000000D+01
0.244077130849D-03 0.441028382494D-04 -.320943449573D-05 0.947171561721D-05 0.000000000000D+00  6 2 -2 25 23 21 21 4 0.23706631D+00 0.13537053D-01 0.90785138D+05 0.90785138D+05 0.90785138D+05 0.11674483D+01  1  2  3  3  6  5       21 0.238676308269D-01 0.100000000000D+01
0.173928326139D-04 0.000000000000D+00 0.000000000000D+00 0.947171561721D-05 0.000000000000D+00  6 2 -2 25 23 21 21 4 0.23706631D+00 0.13537053D-01 0.90785138D+05 0.90785138D+05 0.90785138D+05 0.11674483D+01  1  2 15  3  6  5       21 0.170079722922D-02 0.100000000000D+01
0.125259723464D-01 0.000000000000D+00 0.000000000000D+00 0.946478191709D-05 0.000000000000D+00  6 2 -2 25 23 21 21 4 0.23706631D+00 0.13537053D-01 0.91753449D+05 0.91753449D+05 0.91753449D+05 0.11670209D+01  1  2 12  3  6  5       21 0.122284722935D+01 0.100000000000D+01
0.105307991171D-01 0.000000000000D+00 0.000000000000D+00 0.946478191709D-05 0.000000000000D+00  6 2 -2 25 23 21 21 4 0.23706631D+00 0.13537053D-01 0.91753449D+05 0.91753449D+05 0.91753449D+05 0.11670209D+01  1  2 12  3  6  5       21 0.102806857361D+01 0.100000000000D+01
-.272399549461D-01 0.000000000000D+00 0.000000000000D+00 0.947171561721D-05 0.000000000000D+00  6 2 -2 25 23 21 21 4 0.23706631D+00 0.13537053D-01 0.90785138D+05 0.90785138D+05 0.90785138D+05 0.11674483D+01  1  2  4  3  6  5       21 -.266372021883D+01 0.100000000000D+01
-.282033698923D-01 0.000000000000D+00 0.000000000000D+00 0.947171561721D-05 0.000000000000D+00  6 2 -2 25 23 21 21 4 0.23706631D+00 0.13537053D-01 0.90785138D+05 0.90785138D+05 0.90785138D+05 0.11674483D+01  1  2  5  3  6  5       21 -.275792991471D+01 0.100000000000D+01
0.412653781999D-01 0.000000000000D+00 -.000000000000D+00 0.947171561721D-05 0.000000000000D+00  6 2 -2 25 23 21 21 4 0.23706631D+00 0.13537053D-01 0.90785138D+05 0.90785138D+05 0.90785138D+05 0.11674483D+01  1  2  6  3  6  5       21 0.403522775519D+01 0.100000000000D+01
0.262185762275D-02 0.000000000000D+00 0.000000000000D+00 0.947171561721D-05 0.957375367222D-06  6 2 -2 25 23 21 21 4 0.23706631D+00 0.13537053D-01 0.91753449D+05 0.91753449D+05 0.91753449D+05 0.11670209D+01  1  2 11  3  6  5       21 0.255958678581D+00 0.100000000000D+01
0.332720308930D-03 0.000000000000D+00 0.000000000000D+00 0.946478191709D-05 0.000000000000D+00  6 2 -2 25 23 1 -1 4 0.23706631D+00 0.13537053D-01 0.91753449D+05 0.91753449D+05 0.91753449D+05 0.11670209D+01  1  2 12  6  6  5       21 0.324817983525D-01 0.100000000000D+01
0.332720308930D-03 0.000000000000D+00 0.000000000000D+00 0.946478191709D-05 0.000000000000D+00  6 2 -2 25 23 3 -3 4 0.23706631D+00 0.13537053D-01 0.91753449D+05 0.91753449D+05 0.91753449D+05 0.11670209D+01  1  2 12  6  6  5       21 0.324817983525D-01 0.100000000000D+01
0.299176231089D-03 0.000000000000D+00 0.000000000000D+00 0.946478191709D-05 0.000000000000D+00  6 2 -2 25 23 1 -1 4 0.23706631D+00 0.13537053D-01 0.91753449D+05 0.91753449D+05 0.91753449D+05 0.11670209D+01  1  2 12  6  6  5       21 0.292070599517D-01 0.100000000000D+01
0.299176231089D-03 0.000000000000D+00 0.000000000000D+00 0.946478191709D-05 0.000000000000D+00  6 2 -2 25 23 3 -3 4 0.23706631D+00 0.13537053D-01 0.91753449D+05 0.91753449D+05 0.91753449D+05 0.11670209D+01  1  2 12  6  6  5       21 0.292070599517D-01 0.100000000000D+01
-.820907094273D-03 0.000000000000D+00 0.000000000000D+00 0.947171561721D-05 0.000000000000D+00  6 2 -2 25 23 1 -1 4 0.23706631D+00 0.13537053D-01 0.90785138D+05 0.90785138D+05 0.90785138D+05 0.11674483D+01  1  2  5  6  6  5       21 -.802742452812D-01 0.100000000000D+01
-.820907094273D-03 0.000000000000D+00 0.000000000000D+00 0.947171561721D-05 0.000000000000D+00  6 2 -2 25 23 3 -3 4 0.23706631D+00 0.13537053D-01 0.90785138D+05 0.90785138D+05 0.90785138D+05 0.11674483D+01  1  2  5  6  6  5       21 -.802742452812D-01 0.100000000000D+01
0.951526124132D-04 0.000000000000D+00 0.000000000000D+00 0.947171561721D-05 0.528690744200D-07  6 2 -2 25 23 1 -1 4 0.23706631D+00 0.13537053D-01 0.91753449D+05 0.91753449D+05 0.91753449D+05 0.11670209D+01  1  2 11  6  6  5       21 0.928926755044D-02 0.100000000000D+01
0.951526124132D-04 0.000000000000D+00 0.000000000000D+00 0.947171561721D-05 0.528690744200D-07  6 2 -2 25 23 3 -3 4 0.23706631D+00 0.13537053D-01 0.91753449D+05 0.91753449D+05 0.91753449D+05 0.11670209D+01  1  2 11  6  6  5       21 0.928926755044D-02 0.100000000000D+01
0.332720308930D-03 0.000000000000D+00 0.000000000000D+00 0.946478191709D-05 0.000000000000D+00  6 2 -2 25 23 2 -2 4 0.23706631D+00 0.13537053D-01 0.91753449D+05 0.91753449D+05 0.91753449D+05 0.11670209D+01  1  2 12  7  6  5       21 0.324817983525D-01 0.100000000000D+01
0.299176231089D-03 0.000000000000D+00 0.000000000000D+00 0.946478191709D-05 0.000000000000D+00  6 2 -2 25 23 2 -2 4 0.23706631D+00 0.13537053D-01 0.91753449D+05 0.91753449D+05 0.91753449D+05 0.11670209D+01  1  2 12  7  6  5       21 0.292070599517D-01 0.100000000000D+01
-.820907094273D-03 0.000000000000D+00 0.000000000000D+00 0.947171561721D-05 0.000000000000D+00  6 2 -2 25 23 2 -2 4 0.23706631D+00 0.13537053D-01 0.90785138D+05 0.90785138D+05 0.90785138D+05 0.11674483D+01  1  2  5  7  6  5       21 -.802742452812D-01 0.100000000000D+01
0.915395229777D-04 0.000000000000D+00 0.000000000000D+00 0.947171561721D-05 0.571210946782D-07  6 2 -2 25 23 2 -2 4 0.23706631D+00 0.13537053D-01 0.91753449D+05 0.91753449D+05 0.91753449D+05 0.11670209D+01  1  2 11  7  6  5       21 0.893653993111D-02 0.100000000000D+01
0.332720308930D-03 0.000000000000D+00 0.000000000000D+00 0.946478191709D-05 0.000000000000D+00  6 2 -2 25 23 4 -4 4 0.23706631D+00 0.13537053D-01 0.91753449D+05 0.91753449D+05 0.91753449D+05 0.11670209D+01  1  2 12  8  6  5       21 0.324817983525D-01 0.100000000000D+01
0.299176231089D-03 0.000000000000D+00 0.000000000000D+00 0.946478191709D-05 0.000000000000D+00  6 2 -2 25 23 4 -4 4 0.23706631D+00 0.13537053D-01 0.91753449D+05 0.91753449D+05 0.91753449D+05 0.11670209D+01  1  2 12  8  6  5       21 0.292070599517D-01 0.100000000000D+01
-.820907094273D-03 0.000000000000D+00 0.000000000000D+00 0.947171561721D-05 0.000000000000D+00  6 2 -2 25 23 4 -4 4 0.23706631D+00 0.13537053D-01 0.90785138D+05 0.90785138D+05 0.90785138D+05 0.11674483D+01  1  2  5  8  6  5       21 -.802742452812D-01 0.100000000000D+01
0.951788029965D-04 0.000000000000D+00 0.000000000000D+00 0.947171561721D-05 0.528836265365D-07  6 2 -2 25 23 4 -4 4 0.23706631D+00 0.13537053D-01 0.91753449D+05 0.91753449D+05 0.91753449D+05 0.11670209D+01  1  2 11  8  6  5       21 0.929182440442D-02 0.100000000000D+01
  </mgrwgt>
  </event>
  <event>
  5     66 -.57005756E-03 0.26544268E+03 0.75467711E-02 0.10076122E+00
        4 -1    0    0  502    0 0.00000000E+00 0.00000000E+00 0.11818468E+04 0.11818478E+04 0.15500000E+01 0.0000E+00 0.9000E+01
       -4 -1    0    0    0  501 0.00000000E+00 0.00000000E+00 -.11017219E+04 0.11017230E+04 0.15500000E+01 0.0000E+00 0.9000E+01
       25  1    1    2    0    0 0.10830360E+03 -.36744572E+02 -.47671965E+02 0.17600412E+03 0.12500000E+03 0.0000E+00 0.9000E+01
       23  1    1    2    0    0 0.26721577E+03 -.22326211E+03 -.90734475E+03 0.97613523E+03 0.91188000E+02 0.0000E+00 0.9000E+01
       21  1    1    2  502  501 -.37551937E+03 0.26000668E+03 0.10351416E+04 0.11314314E+04 0.75000000E+00 0.0000E+00 0.9000E+01
#aMCatNLO 1  0  0  1  5 0.62173002D+02 0.00000000D+00  -5  6  0 0.00000000D+00 0.00000000D+00 0.00000000D+00 0.00000000D+00 0.00000000D+00
  <mgrwgt>
 -.7138573997D-04    9    4    0
 0.114108230241312D+04 0.000000000000000D+00 0.000000000000000D+00 0.114108230241312D+04
 0.114108230241312D+04 0.000000000000000D+00 0.000000000000000D+00 -.114108230241312D+04
 0.177786291788466D+03 0.108303603134567D+03 -.367445768107552D+02 -.538807124207024D+02
 0.100859289105659D+04 0.267215810370467D+03 -.223262134240963D+03 -.942175195305057D+03
 0.109578542198118D+04 -.375519413505034D+03 0.260006711051718D+03 0.996055907725759D+03
 0.000000000000000D+00 -.000000000000000D+00 -.000000000000000D+00 0.000000000000000D+00
 0.149032585834469D+04 0.000000000000000D+00 0.000000000000000D+00 0.149032585834469D+04
 0.114427606597662D+04 0.000000000000000D+00 0.000000000000000D+00 -.114427606597662D+04
 0.179857588645895D+03 0.112470000603746D+03 -.342216303928823D+02 -.538807124207024D+02
 0.101204362996436D+04 0.290755357243428D+03 -.209007849597979D+03 -.942175195305057D+03
 0.109111011856931D+04 -.350043020523160D+03 0.275433845618072D+03 0.996055907725759D+03
 0.351590587141749D+03 -.531823373240141D+02 -.322043656272114D+02 0.346049792368069D+03
 0.114108230241312D+04 0.000000000000000D+00 0.000000000000000D+00 0.114108230241312D+04
 0.114108230241312D+04 0.000000000000000D+00 0.000000000000000D+00 -.114108230241312D+04
 0.177786291788466D+03 0.108303603134567D+03 -.367445768107552D+02 -.538807124207024D+02
 0.100859289105659D+04 0.267215810370467D+03 -.223262134240963D+03 -.942175195305057D+03
 0.000000000000000D+00 -.000000000000000D+00 -.000000000000000D+00 0.000000000000000D+00
 0.109578542198118D+04 -.375519413505034D+03 0.260006711051718D+03 0.996055907725759D+03
 0.149032585834469D+04 0.000000000000000D+00 0.000000000000000D+00 0.149032585834469D+04
 0.114427606597662D+04 0.000000000000000D+00 0.000000000000000D+00 -.114427606597662D+04
 0.179857588645895D+03 0.112470000603746D+03 -.342216303928823D+02 -.538807124207024D+02
 0.101204362996436D+04 0.290755357243428D+03 -.209007849597979D+03 -.942175195305057D+03
 0.351590587141749D+03 -.531823373240141D+02 -.322043656272114D+02 0.346049792368069D+03
 0.109111011856931D+04 -.350043020523160D+03 0.275433845618072D+03 0.996055907725759D+03
0.279281857352D-03 0.000000000000D+00 0.000000000000D+00 0.157265579252D-06 0.000000000000D+00  6 4 -4 25 23 21 21 2 0.18182274D+00 0.16949583D+00 0.24311046D+06 0.24311046D+06 0.24311046D+06 0.11297114D+01  1  2  2  1  6  1        4 0.265274068460D-05 0.100000000000D+01
-.139787899544D-04 0.147381085192D-04 -.107251586884D-05 0.157265579252D-06 0.000000000000D+00  6 4 -4 25 23 21 21 4 0.18182274D+00 0.16949583D+00 0.24311046D+06 0.24311046D+06 0.24311046D+06 0.11297114D+01  1  2  3  1  6  1        4 -.169455890881D-06 0.100000000000D+01
0.120137147493D-04 0.000000000000D+00 0.000000000000D+00 0.157265579252D-06 0.000000000000D+00  6 4 -4 25 23 21 21 4 0.18182274D+00 0.16949583D+00 0.24311046D+06 0.24311046D+06 0.24311046D+06 0.11297114D+01  1  2 15  1  6  1        4 0.145634546501D-06 0.100000000000D+01
0.123192702989D-01 0.000000000000D+00 0.000000000000D+00 0.156027781632D-06 0.000000000000D+00  6 4 -4 25 23 21 21 4 0.24380693D+00 0.16949583D+00 0.27494049D+06 0.27494049D+06 0.27494049D+06 0.11252568D+01  1  2 12  1  6  1        4 0.589914833662D-04 0.100000000000D+01
-.177630922846D-01 0.000000000000D+00 0.000000000000D+00 0.157265579252D-06 0.000000000000D+00  6 4 -4 25 23 21 21 4 0.18182274D+00 0.16949583D+00 0.24311046D+06 0.24311046D+06 0.24311046D+06 0.11297114D+01  1  2  4  1  6  1        4 -.215330557060D-03 0.100000000000D+01
-.139398029112D-01 0.000000000000D+00 -.284145922789D-03 0.157265579252D-06 0.000000000000D+00  6 4 -4 25 23 21 21 4 0.23769555D+00 0.16949583D+00 0.24311046D+06 0.24311046D+06 0.24311046D+06 0.11297114D+01  1  2  5  1  6  1        4 -.742621322866D-04 0.100000000000D+01
0.135369441243D-01 0.000000000000D+00 0.274241373869D-03 0.157265579252D-06 0.000000000000D+00  6 4 -4 25 23 21 21 4 0.18182274D+00 0.16949583D+00 0.24311046D+06 0.24311046D+06 0.24311046D+06 0.11297114D+01  1  2  6  1  6  1        4 0.164099677718D-03 0.100000000000D+01
0.468541170990D-03 0.000000000000D+00 0.000000000000D+00 0.156027781632D-06 0.000000000000D+00  6 21 -4 25 23 -4 21 4 0.24380693D+00 0.16949583D+00 0.27494049D+06 0.27494049D+06 0.27494049D+06 0.11252568D+01  3  4 12  4  5  1        4 0.423442153339D-04 0.100000000000D+01
-.491083907079D-03 0.000000000000D+00 -.101187848462D-04 0.157265579252D-06 0.000000000000D+00  6 21 -4 25 23 -4 21 4 0.23769555D+00 0.16949583D+00 0.24311046D+06 0.24311046D+06 0.24311046D+06 0.11297114D+01  3  4  5  4  5  1        4 -.498573463851D-04 0.100000000000D+01
  </mgrwgt>
  </event>
  <event>
  5     66 -.57005756E-03 0.20987754E+02 0.75467711E-02 0.12310407E+00
        2 -1    0    0  502    0 0.00000000E+00 0.00000000E+00 0.10297898E+03 0.10297948E+03 0.32000000E+00 0.0000E+00 0.9000E+01
       -2 -1    0    0    0  501 -.00000000E+00 -.00000000E+00 -.34722071E+03 0.34722086E+03 0.32000000E+00 0.0000E+00 0.9000E+01
       25  1    1    2    0    0 0.55073252E+02 0.32270100E+01 -.17581609E+03 0.22266516E+03 0.12500000E+03 0.0000E+00 0.9000E+01
       23  1    1    2    0    0 -.34751221E+02 0.20159270E+01 -.12995090E+03 0.16252446E+03 0.91188000E+02 0.0000E+00 0.9000E+01
       21  1    1    2  502  501 -.20322031E+02 -.52429370E+01 0.61525260E+02 0.65010718E+02 0.75000000E+00 0.0000E+00 0.9000E+01
#aMCatNLO 1  0  0  5  2 0.18416276D+01 0.00000000D+00  -5  6  0 0.00000000D+00 0.00000000D+00 0.00000000D+00 0.00000000D+00 0.00000000D+00
  <mgrwgt>
 -.1471070623D+01   15    2    0
 0.189094103860322D+03 0.000000000000000D+00 0.000000000000000D+00 0.189094103860322D+03
 0.189094103860322D+03 -.000000000000000D+00 -.000000000000000D+00 -.189094103860322D+03
 0.151518428706699D+03 0.550734190147861D+02 0.322705305724688D+01 -.654930445492846D+02
 0.109546608610492D+03 -.347511003994982D+02 0.201595810800634D+01 -.497343447528080D+02
 0.117123170403453D+03 -.203223186152879D+02 -.524301116525320D+01 0.115227389302093D+03
 0.000000000000000D+00 -.000000000000000D+00 0.000000000000000D+00 0.000000000000000D+00
 0.189094103860322D+03 0.000000000000000D+00 0.000000000000000D+00 0.189094103860322D+03
 0.189094103860322D+03 -.000000000000000D+00 -.000000000000000D+00 -.189094103860322D+03
 0.151433403083738D+03 0.550432389565807D+02 0.321926682059078D+01 -.653219238527818D+02
 0.109497316649158D+03 -.347729215529628D+02 0.201032840829443D+01 -.496106189815076D+02
 0.113000807007239D+03 -.185057698022620D+02 -.653037151065533D+01 0.111283750459111D+03
 0.425668098050891D+01 -.176454760135583D+01 0.130077628177012D+01 0.364879237517840D+01
0.150300344035D-03 0.000000000000D+00 0.000000000000D+00 0.485118301260D-04 0.000000000000D+00  6 2 -2 25 23 21 21 2 0.15842970D-01 0.53418621D-01 0.16285151D+05 0.16285151D+05 0.16285151D+05 0.12437731D+01  1  2  2  3  6  5       21 0.278252968719D-01 0.100000000000D+01
0.311634458185D-04 0.793156706225D-05 -.577192896085D-06 0.485118301260D-04 0.000000000000D+00  6 2 -2 25 23 21 21 4 0.15842970D-01 0.53418621D-01 0.16285151D+05 0.16285151D+05 0.16285151D+05 0.12437731D+01  1  2  3  3  6  5       21 0.892498711307D-02 0.100000000000D+01
0.286469598306D-05 0.000000000000D+00 0.000000000000D+00 0.485118301260D-04 0.000000000000D+00  6 2 -2 25 23 21 21 4 0.15842970D-01 0.53418621D-01 0.16285151D+05 0.16285151D+05 0.16285151D+05 0.12437731D+01  1  2 15  3  6  5       21 0.820428359578D-03 0.100000000000D+01
0.375213733358D-06 0.000000000000D+00 0.000000000000D+00 0.484871962686D-04 0.000000000000D+00  6 2 -2 25 23 21 21 4 0.15842970D-01 0.53418621D-01 0.16390466D+05 0.16390466D+05 0.16390466D+05 0.12434572D+01  1  2 12  3  6  5       21 0.107362879615D-03 0.100000000000D+01
-.557561658715D-02 0.000000000000D+00 0.000000000000D+00 0.485118301260D-04 0.000000000000D+00  6 2 -2 25 23 21 21 4 0.15842970D-01 0.53418621D-01 0.16285151D+05 0.16285151D+05 0.16285151D+05 0.12437731D+01  1  2  4  3  6  5       21 -.159681655480D+01 0.100000000000D+01
-.126947053622D-01 0.000000000000D+00 0.000000000000D+00 0.485118301260D-04 0.000000000000D+00  6 2 -2 25 23 21 21 4 0.15842970D-01 0.53418621D-01 0.16285151D+05 0.16285151D+05 0.16285151D+05 0.12437731D+01  1  2  5  3  6  5       21 -.363567246131D+01 0.100000000000D+01
0.131556306369D-01 0.000000000000D+00 -.000000000000D+00 0.485118301260D-04 0.000000000000D+00  6 2 -2 25 23 21 21 4 0.15842970D-01 0.53418621D-01 0.16285151D+05 0.16285151D+05 0.16285151D+05 0.12437731D+01  1  2  6  3  6  5       21 0.376767815031D+01 0.100000000000D+01
0.136073984382D-07 0.000000000000D+00 0.000000000000D+00 0.484871962686D-04 0.000000000000D+00  6 2 -2 25 23 1 -1 4 0.15842970D-01 0.53418621D-01 0.16390466D+05 0.16390466D+05 0.16390466D+05 0.12434572D+01  1  2 12  6  6  5       21 0.389359277261D-05 0.100000000000D+01
0.136073984382D-07 0.000000000000D+00 0.000000000000D+00 0.484871962686D-04 0.000000000000D+00  6 2 -2 25 23 3 -3 4 0.15842970D-01 0.53418621D-01 0.16390466D+05 0.16390466D+05 0.16390466D+05 0.12434572D+01  1  2 12  6  6  5       21 0.389359277261D-05 0.100000000000D+01
-.383681121619D-04 0.000000000000D+00 0.000000000000D+00 0.485118301260D-04 0.000000000000D+00  6 2 -2 25 23 1 -1 4 0.15842970D-01 0.53418621D-01 0.16285151D+05 0.16285151D+05 0.16285151D+05 0.12437731D+01  1  2  5  6  6  5       21 -.109883518207D-01 0.100000000000D+01
-.383681121619D-04 0.000000000000D+00 0.000000000000D+00 0.485118301260D-04 0.000000000000D+00  6 2 -2 25 23 3 -3 4 0.15842970D-01 0.53418621D-01 0.16285151D+05 0.16285151D+05 0.16285151D+05 0.12437731D+01  1  2  5  6  6  5       21 -.109883518207D-01 0.100000000000D+01
0.136073984382D-07 0.000000000000D+00 0.000000000000D+00 0.484871962686D-04 0.000000000000D+00  6 2 -2 25 23 2 -2 4 0.15842970D-01 0.53418621D-01 0.16390466D+05 0.16390466D+05 0.16390466D+05 0.12434572D+01  1  2 12  7  6  5       21 0.389359277261D-05 0.100000000000D+01
-.383681121619D-04 0.000000000000D+00 0.000000000000D+00 0.485118301260D-04 0.000000000000D+00  6 2 -2 25 23 2 -2 4 0.15842970D-01 0.53418621D-01 0.16285151D+05 0.16285151D+05 0.16285151D+05 0.12437731D+01  1  2  5  7  6  5       21 -.109883518207D-01 0.100000000000D+01
0.136073984382D-07 0.000000000000D+00 0.000000000000D+00 0.484871962686D-04 0.000000000000D+00  6 2 -2 25 23 4 -4 4 0.15842970D-01 0.53418621D-01 0.16390466D+05 0.16390466D+05 0.16390466D+05 0.12434572D+01  1  2 12  8  6  5       21 0.389359277261D-05 0.100000000000D+01
-.383681121619D-04 0.000000000000D+00 0.000000000000D+00 0.485118301260D-04 0.000000000000D+00  6 2 -2 25 23 4 -4 4 0.15842970D-01 0.53418621D-01 0.16285151D+05 0.16285151D+05 0.16285151D+05 0.12437731D+01  1  2  5  8  6  5       21 -.109883518207D-01 0.100000000000D+01
  </mgrwgt>
  </event>
  <event>
  6     66 -.57005756E-03 0.17120773E+02 0.75467711E-02 0.10558243E+00
        2 -1    0    0  502    0 0.00000000E+00 0.00000000E+00 0.11940580E+04 0.11940581E+04 0.32000000E+00 0.0000E+00 0.9000E+01
       -2 -1    0    0    0  501 0.00000000E+00 0.00000000E+00 -.14008645E+03 0.14008681E+03 0.32000000E+00 0.0000E+00 0.9000E+01
       25  1    1    2    0    0 0.32758608E+03 -.19276897E+02 0.78722428E+03 0.86199264E+03 0.12500000E+03 0.0000E+00 0.9000E+01
       23  1    1    2    0    0 -.31544336E+03 0.34755860E+02 0.20658527E+03 0.38949352E+03 0.91188000E+02 0.0000E+00 0.9000E+01
       21  1    1    2  503  501 -.53613699E+01 0.24278231E+00 0.64702580E+02 0.64929112E+02 0.75000000E+00 0.0000E+00 0.9000E+01
       21  1    1    2  502  503 -.67813559E+01 -.15721745E+02 -.45405448E+01 0.17729611E+02 0.75000000E+00 0.0000E+00 0.9000E+01
#aMCatNLO 2  0  0  5  1 0.20548035D+02 0.00000000D+00  -5  6  0 0.00000000D+00 0.00000000D+00 0.00000000D+00 0.00000000D+00 0.00000000D+00
  <mgrwgt>
 -.2878627496D+00    3    2    0
 0.408988533419357D+03 0.000000000000000D+00 0.000000000000000D+00 0.408988533419357D+03
 0.408988533419357D+03 -.000000000000000D+00 -.000000000000000D+00 -.408988533419357D+03
 0.402762987486810D+03 0.337710963768729D+03 -.637018682521726D+01 0.180287963434913D+03
 0.359642029374384D+03 -.306154900230802D+03 0.465963398669547D+02 -.158508978055491D+03
 0.555720499775207D+02 -.315560635379271D+02 -.402261530417375D+02 -.217789853794222D+02
 0.000000000000000D+00 0.000000000000000D+00 0.000000000000000D+00 0.000000000000000D+00
 0.408988533419357D+03 0.000000000000000D+00 0.000000000000000D+00 0.408988533419357D+03
 0.408988533419357D+03 -.000000000000000D+00 -.000000000000000D+00 -.408988533419357D+03
 0.391892424591220D+03 0.327866790541586D+03 -.189190656905577D+02 0.173493830049779D+03
 0.368812780929746D+03 -.315178981904174D+03 0.350928742962911D+02 -.164737110490035D+03
 0.216352385395930D+02 -.426561908978242D+01 0.123775588053125D+01 0.211744185475347D+02
 0.356366227781553D+02 -.842218954762905D+01 -.174115644862646D+02 -.299311381072787D+02
-.233885750838D-02 0.000000000000D+00 0.000000000000D+00 0.214751648240D-05 0.000000000000D+00  6 2 -2 25 23 21 21 4 0.18370127D+00 0.21551793D-01 0.12431136D+06 0.12431136D+06 0.12431136D+06 0.11549883D+01  1  2 13  3  6  5       21 -.154318913839D+00 0.100000000000D+01
-.199302045824D-02 0.000000000000D+00 0.000000000000D+00 0.214751648240D-05 0.000000000000D+00  6 2 -2 25 23 21 21 4 0.18370127D+00 0.21551793D-01 0.12431136D+06 0.12431136D+06 0.12431136D+06 0.11549883D+01  1  2 13  3  6  5       21 -.131500423293D+00 0.100000000000D+01
-.313534807616D-04 0.000000000000D+00 0.000000000000D+00 0.213590969356D-05 0.000000000000D+00  6 2 -2 25 23 21 21 4 0.18370127D+00 0.21551793D-01 0.13473022D+06 0.13473022D+06 0.13473022D+06 0.11518628D+01  1  2  8  3  6  5       21 -.204341245392D-02 0.100000000000D+01
  </mgrwgt>
  </event>
  <event>
  5     66 0.57005756E-03 0.20992147E+02 0.75467711E-02 0.11655688E+00
        2 -1    0    0  502    0 0.00000000E+00 0.00000000E+00 0.10391778E+04 0.10391778E+04 0.32000000E+00 0.0000E+00 0.9000E+01
       -2 -1    0    0    0  501 0.00000000E+00 0.00000000E+00 -.35174625E+02 0.35176081E+02 0.32000000E+00 0.0000E+00 0.9000E+01
       25  1    1    2    0    0 0.10524745E+03 -.63736132E+02 0.37822781E+03 0.41691797E+03 0.12500000E+03 0.0000E+00 0.9000E+01
       23  1    1    2    0    0 -.10803774E+03 0.42931932E+02 0.33784886E+03 0.36874437E+03 0.91188000E+02 0.0000E+00 0.9000E+01
       21  1    1    2  502  501 0.27902817E+01 0.20804200E+02 0.28792650E+03 0.28869158E+03 0.75000000E+00 0.0000E+00 0.9000E+01
#aMCatNLO 1  0  0  2  1 0.20502630D+02 0.00000000D+00  -5  6  0 0.00000000D+00 0.00000000D+00 0.00000000D+00 0.00000000D+00 0.00000000D+00
  <mgrwgt>
 0.1408340866D+00    4    2    0
 0.191189691098646D+03 0.000000000000000D+00 0.000000000000000D+00 0.191189691098646D+03
 0.191189691098646D+03 0.000000000000000D+00 0.000000000000000D+00 -.191189691098646D+03
 0.178293579053695D+03 0.105247332914789D+03 -.637370303025722D+02 -.320029719605672D+02
 0.148963742823893D+03 -.108037835705251D+03 0.429311815663285D+02 -.189653641553999D+02
 0.551220603197054D+02 0.279050279046254D+01 0.208058487362437D+02 0.509683361159672D+02
 0.000000000000000D+00 0.000000000000000D+00 0.000000000000000D+00 0.000000000000000D+00
 0.217381057769768D+03 0.000000000000000D+00 0.000000000000000D+00 0.217381057769768D+03
 0.195519212335820D+03 0.000000000000000D+00 0.000000000000000D+00 -.195519212335820D+03
 0.173749753607188D+03 0.960262816236433D+02 -.657171203095985D+02 -.320029719605672D+02
 0.154358158441203D+03 -.115982729273190D+03 0.412251283339958D+02 -.189653641553999D+02
 0.548207363346782D+02 -.892227233809311D-01 0.201874685176654D+02 0.509683361159672D+02
 0.299716217225201D+02 0.200456703729274D+02 0.430452345793729D+01 0.218618454339483D+02
0.179762727479D-03 0.000000000000D+00 0.000000000000D+00 0.240720536094D-04 0.000000000000D+00  6 2 -2 25 23 21 21 2 0.15987362D+00 0.54115966D-02 0.29608348D+05 0.29608348D+05 0.29608348D+05 0.12154978D+01  1  2  2  2  6  2       -2 0.112974353503D+00 0.100000000000D+01
0.384428262242D-04 0.948633975154D-05 -.690336206133D-06 0.240720536094D-04 0.000000000000D+00  6 2 -2 25 23 21 21 4 0.15987362D+00 0.54115966D-02 0.29608348D+05 0.29608348D+05 0.29608348D+05 0.12154978D+01  1  2  3  2  6  2       -2 0.356947136622D-01 0.100000000000D+01
0.289212974724D-05 0.000000000000D+00 0.000000000000D+00 0.240720536094D-04 0.000000000000D+00  6 2 -2 25 23 21 21 4 0.15987362D+00 0.54115966D-02 0.29608348D+05 0.29608348D+05 0.29608348D+05 0.12154978D+01  1  2 15  2  6  2       -2 0.268538381126D-02 0.100000000000D+01
-.113303203097D-04 0.000000000000D+00 0.000000000000D+00 0.240720536094D-04 0.000000000000D+00  6 2 -2 25 23 21 21 4 0.15987362D+00 0.54115966D-02 0.29608348D+05 0.29608348D+05 0.29608348D+05 0.12154978D+01  1  2  4  2  6  2       -2 -.105203643665D-01 0.100000000000D+01
  </mgrwgt>
  </event>
  <event>
  5     66 0.57005756E-03 0.81062515E+02 0.75467711E-02 0.10601369E+00
        2 -1    0    0  502    0 0.00000000E+00 0.00000000E+00 0.10630756E+04 0.10630757E+04 0.32000000E+00 0.0000E+00 0.9000E+01
       -2 -1    0    0    0  501 0.00000000E+00 0.00000000E+00 -.20141460E+03 0.20141485E+03 0.32000000E+00 0.0000E+00 0.9000E+01
       25  1    1    2    0    0 -.13569223E+03 0.21628884E+03 0.21569503E+03 0.35685094E+03 0.12500000E+03 0.0000E+00 0.9000E+01
       23  1    1    2    0    0 0.21383514E+03 -.23784718E+03 0.72298917E+03 0.79581740E+03 0.91188000E+02 0.0000E+00 0.9000E+01
       21  1    1    2  502  501 -.78142906E+02 0.21558341E+02 -.77023160E+02 0.11182220E+03 0.75000000E+00 0.0000E+00 0.9000E+01
#aMCatNLO 1  0  0  5  1 0.19510904D+02 0.00000000D+00  -5  6  0 0.00000000D+00 0.00000000D+00 0.00000000D+00 0.00000000D+00 0.00000000D+00
  <mgrwgt>
 0.1781672156D+00   15    2    0
 0.462730099061867D+03 0.000000000000000D+00 0.000000000000000D+00 0.462730099061867D+03
 0.462730099061867D+03 -.000000000000000D+00 -.000000000000000D+00 -.462730099061867D+03
 0.286753009455327D+03 -.135692095939772D+03 0.216288800929456D+03 -.375379557735441D+02
 0.414207317517898D+03 0.213835332309326D+03 -.237847233549010D+03 0.246891868417362D+03
 0.224499871150509D+03 -.781432363695535D+02 0.215584326195541D+02 -.209353912643817D+03
 0.000000000000000D+00 0.000000000000000D+00 0.000000000000000D+00 -.000000000000000D+00
 0.462730099061867D+03 0.000000000000000D+00 0.000000000000000D+00 0.462730099061867D+03
 0.462730099061867D+03 -.000000000000000D+00 -.000000000000000D+00 -.462730099061867D+03
 0.287541807121541D+03 -.136449482304070D+03 0.216497751360233D+03 -.395670731497281D+02
 0.411737428630621D+03 0.212746067230939D+03 -.237546723243983D+03 0.243973613214977D+03
 0.191407064300065D+03 -.664799465493487D+02 0.376842078742065D+02 -.175490687638001D+03
 0.347738980715066D+02 -.981663837752038D+01 -.166352359904561D+02 -.289158524272475D+02
0.201425381274D-02 0.000000000000D+00 0.000000000000D+00 0.106388545296D-05 0.000000000000D+00  6 2 -2 25 23 21 21 2 0.16355012D+00 0.30986885D-01 0.12177724D+06 0.12177724D+06 0.12177724D+06 0.11557923D+01  1  2  2  3  6  5       21 0.622357680698D-01 0.100000000000D+01
0.150587060407D-03 0.106295093991D-03 -.773526500615D-05 0.106388545296D-05 0.000000000000D+00  6 2 -2 25 23 21 21 4 0.16355012D+00 0.30986885D-01 0.12177724D+06 0.12177724D+06 0.12177724D+06 0.11557923D+01  1  2  3  3  6  5       21 0.621545724217D-02 0.100000000000D+01
0.505320423342D-04 0.000000000000D+00 0.000000000000D+00 0.106388545296D-05 0.000000000000D+00  6 2 -2 25 23 21 21 4 0.16355012D+00 0.30986885D-01 0.12177724D+06 0.12177724D+06 0.12177724D+06 0.11557923D+01  1  2 15  3  6  5       21 0.208570210242D-02 0.100000000000D+01
0.801442833990D-02 0.000000000000D+00 0.000000000000D+00 0.106097983012D-05 0.000000000000D+00  6 2 -2 25 23 21 21 4 0.16355012D+00 0.30986885D-01 0.12681057D+06 0.12681057D+06 0.12681057D+06 0.11542129D+01  1  2 12  3  6  5       21 0.328711993461D+00 0.100000000000D+01
-.765956575053D-02 0.000000000000D+00 0.000000000000D+00 0.106388545296D-05 0.000000000000D+00  6 2 -2 25 23 21 21 4 0.16355012D+00 0.30986885D-01 0.12177724D+06 0.12177724D+06 0.12177724D+06 0.11557923D+01  1  2  4  3  6  5       21 -.316147372075D+00 0.100000000000D+01
-.159435234486D-01 0.000000000000D+00 0.000000000000D+00 0.106388545296D-05 0.000000000000D+00  6 2 -2 25 23 21 21 4 0.16355012D+00 0.30986885D-01 0.12177724D+06 0.12177724D+06 0.12177724D+06 0.11557923D+01  1  2  5  3  6  5       21 -.658066423616D+00 0.100000000000D+01
0.187771201425D-01 0.000000000000D+00 -.000000000000D+00 0.106388545296D-05 0.000000000000D+00  6 2 -2 25 23 21 21 4 0.16355012D+00 0.30986885D-01 0.12177724D+06 0.12177724D+06 0.12177724D+06 0.11557923D+01  1  2  6  3  6  5       21 0.775022681640D+00 0.100000000000D+01
0.929193790265D-04 0.000000000000D+00 0.000000000000D+00 0.106097983012D-05 0.000000000000D+00  6 2 -2 25 23 1 -1 4 0.16355012D+00 0.30986885D-01 0.12681057D+06 0.12681057D+06 0.12681057D+06 0.11542129D+01  1  2 12  6  6  5       21 0.381109082465D-02 0.100000000000D+01
0.929193790265D-04 0.000000000000D+00 0.000000000000D+00 0.106097983012D-05 0.000000000000D+00  6 2 -2 25 23 3 -3 4 0.16355012D+00 0.30986885D-01 0.12681057D+06 0.12681057D+06 0.12681057D+06 0.11542129D+01  1  2 12  6  6  5       21 0.381109082465D-02 0.100000000000D+01
-.224924869813D-03 0.000000000000D+00 0.000000000000D+00 0.106388545296D-05 0.000000000000D+00  6 2 -2 25 23 1 -1 4 0.16355012D+00 0.30986885D-01 0.12177724D+06 0.12177724D+06 0.12177724D+06 0.11557923D+01  1  2  5  6  6  5       21 -.928373863763D-02 0.100000000000D+01
-.224924869813D-03 0.000000000000D+00 0.000000000000D+00 0.106388545296D-05 0.000000000000D+00  6 2 -2 25 23 3 -3 4 0.16355012D+00 0.30986885D-01 0.12177724D+06 0.12177724D+06 0.12177724D+06 0.11557923D+01  1  2  5  6  6  5       21 -.928373863763D-02 0.100000000000D+01
0.929193790265D-04 0.000000000000D+00 0.000000000000D+00 0.106097983012D-05 0.000000000000D+00  6 2 -2 25 23 2 -2 4 0.16355012D+00 0.30986885D-01 0.12681057D+06 0.12681057D+06 0.12681057D+06 0.11542129D+01  1  2 12  7  6  5       21 0.381109082465D-02 0.100000000000D+01
-.224924869813D-03 0.000000000000D+00 0.000000000000D+00 0.106388545296D-05 0.000000000000D+00  6 2 -2 25 23 2 -2 4 0.16355012D+00 0.30986885D-01 0.12177724D+06 0.12177724D+06 0.12177724D+06 0.11557923D+01  1  2  5  7  6  5       21 -.928373863763D-02 0.100000000000D+01
0.929193790265D-04 0.000000000000D+00 0.000000000000D+00 0.106097983012D-05 0.000000000000D+00  6 2 -2 25 23 4 -4 4 0.16355012D+00 0.30986885D-01 0.12681057D+06 0.12681057D+06 0.12681057D+06 0.11542129D+01  1  2 12  8  6  5       21 0.381109082465D-02 0.100000000000D+01
-.224924869813D-03 0.000000000000D+00 0.000000000000D+00 0.106388545296D-05 0.000000000000D+00  6 2 -2 25 23 4 -4 4 0.16355012D+00 0.30986885D-01 0.12177724D+06 0.12177724D+06 0.12177724D+06 0.11557923D+01  1  2  5  8  6  5       21 -.928373863763D-02 0.100000000000D+01
  </mgrwgt>
  </event>
  <event>
  5     66 0.57005756E-03 0.77492344E+02 0.75467711E-02 0.10817608E+00
        2 -1    0    0  502    0 0.00000000E+00 0.00000000E+00 0.54890158E+03 0.54890167E+03 0.32000000E+00 0.0000E+00 0.9000E+01
       -2 -1    0    0    0  501 0.00000000E+00 0.00000000E+00 -.10760586E+03 0.10760634E+03 0.32000000E+00 0.0000E+00 0.9000E+01
       25  1    1    2    0    0 -.19146259E+03 -.74346374E+01 0.29586710E+03 0.37399938E+03 0.12500000E+03 0.0000E+00 0.9000E+01
       23  1    1    2    0    0 0.12724052E+03 -.35926978E+02 0.12154392E+03 0.20141766E+03 0.91188000E+02 0.0000E+00 0.9000E+01
       21  1    1    2  502  501 0.64222075E+02 0.43361616E+02 0.23884702E+02 0.81090975E+02 0.75000000E+00 0.0000E+00 0.9000E+01
#aMCatNLO 1  0  0  1  5 0.13156407D+03 0.00000000D+00  -5  6  0 0.00000000D+00 0.00000000D+00 0.00000000D+00 0.00000000D+00 0.00000000D+00
  <mgrwgt>
 0.9315176226D-01    3    2    0
 0.243033361166022D+03 0.000000000000000D+00 0.000000000000000D+00 0.243033361166022D+03
 0.243033361166022D+03 0.000000000000000D+00 0.000000000000000D+00 -.243033361166022D+03
 0.236529784872263D+03 -.191463730659682D+03 -.743540654330779D+01 0.600640799740712D+02
 0.161696370474914D+03 0.127239737427573D+03 -.359275042501774D+02 -.187010304121606D+02
 0.878405669848663D+02 0.642239932321087D+02 0.433629107934852D+02 -.413630495619106D+02
 0.000000000000000D+00 0.000000000000000D+00 0.000000000000000D+00 -.000000000000000D+00
 0.264657827077717D+03 0.000000000000000D+00 0.000000000000000D+00 0.264657827077717D+03
 0.587768868981467D+03 0.000000000000000D+00 0.000000000000000D+00 -.587768868981467D+03
 0.279319831240578D+03 -.234759885370899D+03 -.606190617031932D+02 0.600640799740712D+02
 0.153313124532794D+03 0.100800443095768D+03 -.684047143348213D+02 -.187010304121606D+02
 0.709243526038289D+02 0.508985776332291D+02 0.269943830847332D+02 -.413630495619106D+02
 0.348869387681983D+03 0.830608646419022D+02 0.102029392953281D+03 -.323111041903749D+03
0.387098682317D-03 0.000000000000D+00 0.000000000000D+00 0.146012525430D-05 0.000000000000D+00  6 2 -2 25 23 21 21 2 0.84446441D-01 0.16554792D-01 0.54494245D+05 0.54494245D+05 0.54494245D+05 0.11885974D+01  1  2  2  1  6  1        2 0.885634341500D-01 0.100000000000D+01
0.671177837691D-05 0.204277586868D-04 -.148656086552D-05 0.146012525430D-05 0.000000000000D+00  6 2 -2 25 23 21 21 4 0.84446441D-01 0.16554792D-01 0.54494245D+05 0.54494245D+05 0.54494245D+05 0.11885974D+01  1  2  3  1  6  1        2 0.216940133188D-02 0.100000000000D+01
0.748376991671D-05 0.000000000000D+00 0.000000000000D+00 0.146012525430D-05 0.000000000000D+00  6 2 -2 25 23 21 21 4 0.84446441D-01 0.16554792D-01 0.54494245D+05 0.54494245D+05 0.54494245D+05 0.11885974D+01  1  2 15  1  6  1        2 0.241892677516D-02 0.100000000000D+01
  </mgrwgt>
  </event>
  <event>
  6     66 0.57005756E-03 0.18860313E+02 0.75467711E-02 0.12233969E+00
        2 -1    0    0  503    0 0.00000000E+00 0.00000000E+00 0.75057329E+01 0.75125513E+01 0.32000000E+00 0.0000E+00 0.9000E+01
       -2 -1    0    0    0  501 0.00000000E+00 0.00000000E+00 -.24608130E+04 0.24608130E+04 0.32000000E+00 0.0000E+00 0.9000E+01
       25  1    1    2    0    0 0.26265940E+02 -.23493386E+01 -.14365651E+04 0.14422343E+04 0.12500000E+03 0.0000E+00 0.9000E+01
       23  1    1    2    0    0 -.91509622E+01 -.10439200E+02 -.67632409E+03 0.68258497E+03 0.91188000E+02 0.0000E+00 0.9000E+01
       21  1    1    2  502  501 -.10686262E+02 -.14216167E+02 -.11186211E+03 0.11326954E+03 0.75000000E+00 0.0000E+00 0.9000E+01
       21  1    1    2  503  502 -.64287154E+01 0.27004706E+02 -.22855598E+03 0.23023679E+03 0.75000000E+00 0.0000E+00 0.9000E+01
#aMCatNLO 2  0  0  1  2 0.12409375D+02 0.00000000D+00  -5  6  0 0.00000000D+00 0.00000000D+00 0.00000000D+00 0.00000000D+00 0.00000000D+00
  <mgrwgt>
 0.6669523862D-02    1    2    0
 0.121194585045095D+03 0.000000000000000D+00 0.000000000000000D+00 0.121194585045095D+03
 0.121194585045095D+03 0.000000000000000D+00 0.000000000000000D+00 -.121194585045095D+03
 0.130436970802578D+03 0.228217043332816D+02 0.121467608235578D+02 -.268408152814351D+02
 0.941030591750948D+02 -.116388597088181D+02 0.318388535272751D-01 0.201164194894929D+02
 0.178491401125174D+02 -.111828446244636D+02 -.121785996770850D+02 0.672439579194217D+01
 0.000000000000000D+00 -.000000000000000D+00 0.000000000000000D+00 0.000000000000000D+00
 0.137354657964088D+03 0.000000000000000D+00 0.000000000000000D+00 0.137354657964088D+03
 0.134522373111482D+03 0.000000000000000D+00 0.000000000000000D+00 -.134522373111482D+03
 0.130541579606105D+03 0.262713043383667D+02 -.234375968177489D+01 -.268408152814351D+02
 0.944059280037034D+02 -.914715837124747D+01 -.104348962090910D+02 0.201164194894929D+02
 0.190260407277799D+02 -.106954305292630D+02 -.142260497961366D+02 0.672439579194217D+01
 0.279034827379820D+02 -.642871543785618D+01 0.270047056870026D+02 0.283228485260554D+01
0.192873991255D-03 0.000000000000D+00 0.000000000000D+00 0.453228756271D-04 0.137811638480D-06  6 2 -2 25 23 21 21 4 0.11552114D-02 0.37857309D+00 0.17628890D+05 0.17628890D+05 0.17628890D+05 0.12399056D+01  1  2  1  1  6  1        2 0.666952386181D-02 0.100000000000D+01
  </mgrwgt>
  </event>
  <event>
  5     66 0.57005756E-03 0.33861663E+02 0.75467711E-02 0.11725477E+00
        2 -1    0    0  502    0 0.00000000E+00 0.00000000E+00 0.34821947E+04 0.34821947E+04 0.32000000E+00 0.0000E+00 0.9000E+01
       -2 -1    0    0    0  501 0.00000000E+00 0.00000000E+00 -.94210892E+01 0.94265222E+01 0.32000000E+00 0.0000E+00 0.9000E+01
       25  1    1    2    0    0 -.11884144E+03 0.23605117E+01 0.14379758E+04 0.14482846E+04 0.12500000E+03 0.0000E+00 0.9000E+01
       23  1    1    2    0    0 0.85503686E+02 0.35605519E+01 0.97360620E+03 0.98160473E+03 0.91188000E+02 0.0000E+00 0.9000E+01
       21  1    1    2  502  501 0.33337756E+02 -.59210636E+01 0.10611916E+04 0.10617319E+04 0.75000000E+00 0.0000E+00 0.9000E+01
#aMCatNLO 1  0  0  1  2 0.18335079D+02 0.00000000D+00  -5  6  0 0.00000000D+00 0.00000000D+00 0.00000000D+00 0.00000000D+00 0.00000000D+00
  <mgrwgt>
 0.1890355574D+00    7    4    0
 0.181150703349022D+03 0.000000000000000D+00 0.000000000000000D+00 0.181150703349022D+03
 0.181150703349022D+03 0.000000000000000D+00 0.000000000000000D+00 -.181150703349022D+03
 0.174156730804938D+03 -.118842676380750D+03 0.236073108533575D+01 -.240085839662975D+02
 0.127733088181390D+03 0.855027798302878D+02 0.356071276171882D+01 -.260208846559161D+02
 0.604115877117165D+02 0.333398965504625D+02 -.592144384705457D+01 0.500294686222136D+02
 0.000000000000000D+00 -.000000000000000D+00 -.000000000000000D+00 0.000000000000000D+00
 0.237554820698331D+03 0.000000000000000D+00 0.000000000000000D+00 0.237554820698331D+03
 0.182878705580649D+03 0.000000000000000D+00 0.000000000000000D+00 -.182878705580649D+03
 0.173093172166262D+03 -.116794826351382D+03 0.108996644013877D+02 -.240085839662975D+02
 0.129080903779771D+03 0.870172987300196D+02 0.987581186821827D+01 -.260208846559161D+02
 0.605909780805930D+02 0.340534895732142D+02 -.294597047317889D+01 0.500294686222136D+02
 0.576684722523545D+02 -.427596195185198D+01 -.178295057964271D+02 0.546761151176824D+02
 0.181150703349022D+03 0.000000000000000D+00 0.000000000000000D+00 0.181150703349022D+03
 0.181150703349022D+03 0.000000000000000D+00 0.000000000000000D+00 -.181150703349022D+03
 0.174156730804938D+03 -.118842676380750D+03 0.236073108533575D+01 -.240085839662975D+02
 0.127733088181390D+03 0.855027798302878D+02 0.356071276171882D+01 -.260208846559161D+02
 0.000000000000000D+00 -.000000000000000D+00 -.000000000000000D+00 0.000000000000000D+00
 0.604115877117165D+02 0.333398965504625D+02 -.592144384705457D+01 0.500294686222136D+02
 0.237554820698331D+03 0.000000000000000D+00 0.000000000000000D+00 0.237554820698331D+03
 0.182878705580649D+03 0.000000000000000D+00 0.000000000000000D+00 -.182878705580649D+03
 0.173093172166262D+03 -.116794826351382D+03 0.108996644013877D+02 -.240085839662975D+02
 0.129080903779771D+03 0.870172987300196D+02 0.987581186821827D+01 -.260208846559161D+02
 0.576684722523545D+02 -.427596195185198D+01 -.178295057964271D+02 0.546761151176824D+02
 0.605909780805930D+02 0.340534895732142D+02 -.294597047317889D+01 0.500294686222136D+02
0.145836289607D-03 0.000000000000D+00 0.000000000000D+00 0.100291736932D-04 0.000000000000D+00  6 2 -2 25 23 21 21 2 0.53572268D+00 0.14498174D-02 0.27458180D+05 0.27458180D+05 0.27458180D+05 0.12189546D+01  1  2  2  1  6  1        2 0.287051249244D-01 0.100000000000D+01
0.147164078135D-04 0.769599243801D-05 -.560049751668D-06 0.100291736932D-04 0.000000000000D+00  6 2 -2 25 23 21 21 4 0.53572268D+00 0.14498174D-02 0.27458180D+05 0.27458180D+05 0.27458180D+05 0.12189546D+01  1  2  3  1  6  1        2 0.430398491218D-02 0.100000000000D+01
0.251215720084D-05 0.000000000000D+00 0.000000000000D+00 0.100291736932D-04 0.000000000000D+00  6 2 -2 25 23 21 21 4 0.53572268D+00 0.14498174D-02 0.27458180D+05 0.27458180D+05 0.27458180D+05 0.12189546D+01  1  2 15  1  6  1        2 0.734709640186D-03 0.100000000000D+01
-.675598532745D-03 0.000000000000D+00 0.000000000000D+00 0.100291736932D-04 0.000000000000D+00  6 2 -2 25 23 21 21 4 0.53572268D+00 0.14498174D-02 0.27458180D+05 0.27458180D+05 0.27458180D+05 0.12189546D+01  1  2  4  1  6  1        2 -.197586661669D+00 0.100000000000D+01
-.138305247231D-02 0.000000000000D+00 -.831189126975D-04 0.100291736932D-04 0.000000000000D+00  6 2 -2 25 23 21 21 4 0.70340019D+00 0.14498174D-02 0.27458180D+05 0.27458180D+05 0.27458180D+05 0.12189546D+01  1  2  5  1  6  1        2 -.581008963508D-01 0.100000000000D+01
0.140540759028D-02 0.000000000000D+00 0.831793194145D-04 0.100291736932D-04 0.000000000000D+00  6 2 -2 25 23 21 21 4 0.53572268D+00 0.14498174D-02 0.27458180D+05 0.27458180D+05 0.27458180D+05 0.12189546D+01  1  2  6  1  6  1        2 0.411027822871D+00 0.100000000000D+01
-.482348235416D-04 0.000000000000D+00 -.299497056995D-05 0.100291736932D-04 0.000000000000D+00  6 21 -2 25 23 -2 21 4 0.70340019D+00 0.14498174D-02 0.27458180D+05 0.27458180D+05 0.27458180D+05 0.12189546D+01  3  4  5  4  5  1        2 -.485268834631D-04 0.100000000000D+01
  </mgrwgt>
  </event>
  <event>
  5     66 0.57005756E-03 0.66278929E+02 0.75467711E-02 0.11440142E+00
        2 -1    0    0  502    0 0.00000000E+00 0.00000000E+00 0.16542213E+03 0.16542244E+03 0.32000000E+00 0.0000E+00 0.9000E+01
       -2 -1    0    0    0  501 0.00000000E+00 0.00000000E+00 -.25614775E+03 0.25614795E+03 0.32000000E+00 0.0000E+00 0.9000E+01
       25  1    1    2    0    0 0.22587668E+02 -.98472669E+02 -.27306795E+02 0.16302678E+03 0.12500000E+03 0.0000E+00 0.9000E+01
       23  1    1    2    0    0 0.34682061E+02 0.13183065E+03 -.90064980E+02 0.18710723E+03 0.91188000E+02 0.0000E+00 0.9000E+01
       21  1    1    2  502  501 -.57269729E+02 -.33357979E+02 0.26646146E+02 0.71436379E+02 0.75000000E+00 0.0000E+00 0.9000E+01
#aMCatNLO 1  0  0  2  5 0.21951817D+02 0.00000000D+00  -5  6  0 0.00000000D+00 0.00000000D+00 0.00000000D+00 0.00000000D+00 0.00000000D+00
  <mgrwgt>
 0.1059273124D-01    9    4    0
 0.205846092160162D+03 0.000000000000000D+00 0.000000000000000D+00 0.205846092160162D+03
 0.205846092160162D+03 0.000000000000000D+00 0.000000000000000D+00 -.205846092160162D+03
 0.160920546304488D+03 0.225886763528439D+02 -.984720816097624D+02 0.796386005663505D+01
 0.171749809290539D+03 0.346831372641817D+02 0.131831274312608D+03 -.509935363547599D+02
 0.790218287252981D+02 -.572718136170256D+02 -.333591927028459D+02 0.430296762981249D+02
 0.000000000000000D+00 0.000000000000000D+00 0.000000000000000D+00 -.000000000000000D+00
 0.207486365597658D+03 0.000000000000000D+00 0.000000000000000D+00 0.207486365597658D+03
 0.295517762881652D+03 0.000000000000000D+00 0.000000000000000D+00 -.295517762881652D+03
 0.164239777293669D+03 0.167842624431121D+02 -.104902668758774D+03 0.796386005663505D+01
 0.165536587154668D+03 0.286622616867872D+02 0.125160873869787D+03 -.509935363547599D+02
 0.825006502988280D+02 -.601551399515776D+02 -.365535688382709D+02 0.430296762981249D+02
 0.907271137321454D+02 0.147086158216783D+02 0.162953637272575D+02 -.880313972839935D+02
 0.205846092160162D+03 0.000000000000000D+00 0.000000000000000D+00 0.205846092160162D+03
 0.205846092160162D+03 0.000000000000000D+00 0.000000000000000D+00 -.205846092160162D+03
 0.160920546304488D+03 0.225886763528439D+02 -.984720816097624D+02 0.796386005663505D+01
 0.171749809290539D+03 0.346831372641817D+02 0.131831274312608D+03 -.509935363547599D+02
 0.000000000000000D+00 0.000000000000000D+00 0.000000000000000D+00 -.000000000000000D+00
 0.790218287252981D+02 -.572718136170256D+02 -.333591927028459D+02 0.430296762981249D+02
 0.207486365597658D+03 0.000000000000000D+00 0.000000000000000D+00 0.207486365597658D+03
 0.295517762881652D+03 0.000000000000000D+00 0.000000000000000D+00 -.295517762881652D+03
 0.164239777293669D+03 0.167842624431121D+02 -.104902668758774D+03 0.796386005663505D+01
 0.165536587154668D+03 0.286622616867872D+02 0.125160873869787D+03 -.509935363547599D+02
 0.907271137321454D+02 0.147086158216783D+02 0.162953637272575D+02 -.880313972839935D+02
 0.825006502988280D+02 -.601551399515776D+02 -.365535688382709D+02 0.430296762981249D+02
0.128756556583D-04 0.000000000000D+00 0.000000000000D+00 0.233045231708D-05 0.000000000000D+00  6 2 -2 25 23 21 21 2 0.25449597D-01 0.39407386D-01 0.38221685D+05 0.38221685D+05 0.38221685D+05 0.12040111D+01  1  2  2  2  6  2       -2 0.239229798988D-02 0.100000000000D+01
0.137156819883D-06 0.679467016389D-06 -.494459079658D-07 0.233045231708D-05 0.000000000000D+00  6 2 -2 25 23 21 21 4 0.25449597D-01 0.39407386D-01 0.38221685D+05 0.38221685D+05 0.38221685D+05 0.12040111D+01  1  2  3  2  6  2       -2 0.369423299883D-04 0.100000000000D+01
0.211130046799D-06 0.000000000000D+00 0.000000000000D+00 0.233045231708D-05 0.000000000000D+00  6 2 -2 25 23 21 21 4 0.25449597D-01 0.39407386D-01 0.38221685D+05 0.38221685D+05 0.38221685D+05 0.12040111D+01  1  2 15  2  6  2       -2 0.568665551298D-04 0.100000000000D+01
0.219738994516D-03 0.000000000000D+00 0.000000000000D+00 0.231110963327D-05 0.000000000000D+00  6 2 -2 25 23 21 21 4 0.25449597D-01 0.57111978D-01 0.42823200D+05 0.42823200D+05 0.42823200D+05 0.11990040D+01  1  2 12  2  6  2       -2 0.280284966961D-01 0.100000000000D+01
-.180119918925D-03 0.000000000000D+00 0.000000000000D+00 0.233045231708D-05 0.000000000000D+00  6 2 -2 25 23 21 21 4 0.25449597D-01 0.39407386D-01 0.38221685D+05 0.38221685D+05 0.38221685D+05 0.12040111D+01  1  2  4  2  6  2       -2 -.485141715015D-01 0.100000000000D+01
-.235711473787D-03 0.000000000000D+00 -.945760745128D-05 0.233045231708D-05 0.000000000000D+00  6 2 -2 25 23 21 21 4 0.25449597D-01 0.56781885D-01 0.38221685D+05 0.38221685D+05 0.38221685D+05 0.12040111D+01  1  2  5  2  6  2       -2 -.309144819236D-01 0.100000000000D+01
0.224612636400D-03 0.000000000000D+00 0.885996794405D-05 0.233045231708D-05 0.000000000000D+00  6 2 -2 25 23 21 21 4 0.25449597D-01 0.39407386D-01 0.38221685D+05 0.38221685D+05 0.38221685D+05 0.12040111D+01  1  2  6  2  6  2       -2 0.604980061548D-01 0.100000000000D+01
0.990215135123D-05 0.000000000000D+00 0.000000000000D+00 0.231110963327D-05 0.000000000000D+00  6 2 21 25 23 2 21 4 0.25449597D-01 0.57111978D-01 0.42823200D+05 0.42823200D+05 0.42823200D+05 0.11990040D+01  3  4 12  5  5  2       -2 0.152024207309D-01 0.100000000000D+01
-.102169820221D-04 0.000000000000D+00 -.421355957622D-06 0.233045231708D-05 0.000000000000D+00  6 2 21 25 23 2 21 4 0.25449597D-01 0.56781885D-01 0.38221685D+05 0.38221685D+05 0.38221685D+05 0.12040111D+01  3  4  5  5  5  2       -2 -.161936457924D-01 0.100000000000D+01
  </mgrwgt>
  </event>
  <event>
  5     66 0.57005756E-03 0.24746660E+02 0.75467711E-02 0.11743266E+00
        2 -1    0    0  502    0 0.00000000E+00 0.00000000E+00 0.12789393E+04 0.12789393E+04 0.32000000E+00 0.0000E+00 0.9000E+01
       -2 -1    0    0    0  501 0.00000000E+00 0.00000000E+00 -.39053992E+02 0.39055303E+02 0.32000000E+00 0.0000E+00 0.9000E+01
       25  1    1    2    0    0 -.10928811E+03 -.46852541E+02 0.26151609E+03 0.31329653E+03 0.12500000E+03 0.0000E+00 0.9000E+01
       23  1    1    2    0    0 0.11488832E+03 0.22748430E+02 0.41431996E+03 0.44010578E+03 0.91188000E+02 0.0000E+00 0.9000E+01
       21  1    1    2  502  501 -.56002090E+01 0.24104111E+02 0.56404928E+03 0.56459235E+03 0.75000000E+00 0.0000E+00 0.9000E+01
#aMCatNLO 1  0  0  5  2 0.36862321D+01 0.00000000D+00  -5  6  0 0.00000000D+00 0.00000000D+00 0.00000000D+00 0.00000000D+00 0.00000000D+00
  <mgrwgt>
 0.2294001862D+00   14    2    0
 0.223491779524568D+03 0.000000000000000D+00 0.000000000000000D+00 0.223491779524568D+03
 0.223491779524568D+03 -.000000000000000D+00 -.000000000000000D+00 -.223491779524568D+03
 0.198381961109057D+03 -.109288040542728D+03 -.468528412494143D+02 -.979353764206959D+02
 0.148434608152749D+03 0.114888371366020D+03 0.227482057207779D+02 0.873392700207638D+00
 0.100166989787330D+03 -.560033082329204D+01 0.241046355286364D+02 0.970619837204883D+02
 0.000000000000000D+00 0.000000000000000D+00 0.000000000000000D+00 0.000000000000000D+00
 0.223491779524568D+03 0.000000000000000D+00 0.000000000000000D+00 0.223491779524568D+03
 0.223491779524568D+03 -.000000000000000D+00 -.000000000000000D+00 -.223491779524568D+03
 0.197395529250139D+03 -.109398193314214D+03 -.463787277563185D+02 -.960262666109310D+02
 0.148440940882621D+03 0.114805744977939D+03 0.231038416702609D+02 0.230542973300702D+01
 0.373805781160878D+01 -.343948674725664D+01 0.984774614248657D+00 -.108315561093913D+01
 0.974090311047673D+02 -.196806491646823D+01 0.222901114718089D+02 0.948039924888631D+02
0.506824538760D-03 0.000000000000D+00 0.000000000000D+00 0.178244272382D-04 0.000000000000D+00  6 2 -2 25 23 21 21 2 0.19676000D+00 0.60084103D-02 0.29877355D+05 0.29877355D+05 0.29877355D+05 0.12150852D+01  1  2  2  3  6  5       21 0.198455090311D+00 0.100000000000D+01
0.968950477956D-04 0.267458657115D-04 -.194633967880D-05 0.178244272382D-04 0.000000000000D+00  6 2 -2 25 23 21 21 4 0.19676000D+00 0.60084103D-02 0.29877355D+05 0.29877355D+05 0.29877355D+05 0.12150852D+01  1  2  3  3  6  5       21 0.560169718676D-01 0.100000000000D+01
0.205723214044D-04 0.000000000000D+00 0.000000000000D+00 0.178244272382D-04 0.000000000000D+00  6 2 -2 25 23 21 21 4 0.19676000D+00 0.60084103D-02 0.29877355D+05 0.29877355D+05 0.29877355D+05 0.12150852D+01  1  2 15  3  6  5       21 0.118932719017D-01 0.100000000000D+01
0.227885219404D-06 0.000000000000D+00 0.000000000000D+00 0.178156180625D-04 0.000000000000D+00  6 2 -2 25 23 21 21 4 0.19676000D+00 0.60084103D-02 0.30074826D+05 0.30074826D+05 0.30074826D+05 0.12147849D+01  1  2 12  3  6  5       21 0.131619393879D-03 0.100000000000D+01
-.838941070667D-04 0.000000000000D+00 0.000000000000D+00 0.178244272382D-04 0.000000000000D+00  6 2 -2 25 23 21 21 4 0.19676000D+00 0.60084103D-02 0.29877355D+05 0.29877355D+05 0.29877355D+05 0.12150852D+01  1  2  4  3  6  5       21 -.485008670962D-01 0.100000000000D+01
0.215941990249D-05 0.000000000000D+00 0.000000000000D+00 0.178244272382D-04 0.687798644103D-05  6 2 -2 25 23 21 21 4 0.19676000D+00 0.60084103D-02 0.30074826D+05 0.30074826D+05 0.30074826D+05 0.12147849D+01  1  2 11  3  6  5       21 0.124721357287D-02 0.100000000000D+01
0.478951331644D-06 0.000000000000D+00 0.000000000000D+00 0.178156180625D-04 0.000000000000D+00  6 2 -2 25 23 1 -1 4 0.19676000D+00 0.60084103D-02 0.30074826D+05 0.30074826D+05 0.30074826D+05 0.12147849D+01  1  2 12  6  6  5       21 0.276627348335D-03 0.100000000000D+01
0.478951331644D-06 0.000000000000D+00 0.000000000000D+00 0.178156180625D-04 0.000000000000D+00  6 2 -2 25 23 3 -3 4 0.19676000D+00 0.60084103D-02 0.30074826D+05 0.30074826D+05 0.30074826D+05 0.12147849D+01  1  2 12  6  6  5       21 0.276627348335D-03 0.100000000000D+01
0.400814426549D-05 0.000000000000D+00 0.000000000000D+00 0.178156180625D-04 0.801227983676D-08  6 2 -2 25 23 1 -1 4 0.19676000D+00 0.60084103D-02 0.30074826D+05 0.30074826D+05 0.30074826D+05 0.12147849D+01  1  2 11  6  6  5       21 0.231497909423D-02 0.100000000000D+01
0.400814426549D-05 0.000000000000D+00 0.000000000000D+00 0.178156180625D-04 0.801227983676D-08  6 2 -2 25 23 3 -3 4 0.19676000D+00 0.60084103D-02 0.30074826D+05 0.30074826D+05 0.30074826D+05 0.12147849D+01  1  2 11  6  6  5       21 0.231497909423D-02 0.100000000000D+01
0.478951331644D-06 0.000000000000D+00 0.000000000000D+00 0.178156180625D-04 0.000000000000D+00  6 2 -2 25 23 2 -2 4 0.19676000D+00 0.60084103D-02 0.30074826D+05 0.30074826D+05 0.30074826D+05 0.12147849D+01  1  2 12  7  6  5       21 0.276627348335D-03 0.100000000000D+01
0.364667559363D-05 0.000000000000D+00 0.000000000000D+00 0.178156180625D-04 0.918705273973D-08  6 2 -2 25 23 2 -2 4 0.19676000D+00 0.60084103D-02 0.30074826D+05 0.30074826D+05 0.30074826D+05 0.12147849D+01  1  2 11  7  6  5       21 0.210620606533D-02 0.100000000000D+01
0.478951331644D-06 0.000000000000D+00 0.000000000000D+00 0.178156180625D-04 0.000000000000D+00  6 2 -2 25 23 4 -4 4 0.19676000D+00 0.60084103D-02 0.30074826D+05 0.30074826D+05 0.30074826D+05 0.12147849D+01  1  2 12  8  6  5       21 0.276627348335D-03 0.100000000000D+01
0.400681720356D-05 0.000000000000D+00 0.000000000000D+00 0.178156180625D-04 0.800962704014D-08  6 2 -2 25 23 4 -4 4 0.19676000D+00 0.60084103D-02 0.30074826D+05 0.30074826D+05 0.30074826D+05 0.12147849D+01  1  2 11  8  6  5       21 0.231421262465D-02 0.100000000000D+01
  </mgrwgt>
  </event>
  <event>
  5     66 0.57005756E-03 0.43022261E+02 0.75467711E-02 0.10714447E+00
        2 -1    0    0  502    0 0.00000000E+00 0.00000000E+00 0.57317494E+03 0.57317503E+03 0.32000000E+00 0.0000E+00 0.9000E+01
       -2 -1    0    0    0  501 0.00000000E+00 0.00000000E+00 -.18022626E+03 0.18022654E+03 0.32000000E+00 0.0000E+00 0.9000E+01
       25  1    1    2    0    0 0.23281201E+03 0.14281073E+03 0.26274268E+03 0.39906773E+03 0.12500000E+03 0.0000E+00 0.9000E+01
       23  1    1    2    0    0 -.19559637E+03 -.16439039E+03 0.14651005E+03 0.30832221E+03 0.91188000E+02 0.0000E+00 0.9000E+01
       21  1    1    2  502  501 -.37215636E+02 0.21579658E+02 -.16304045E+02 0.46011625E+02 0.75000000E+00 0.0000E+00 0.9000E+01
#aMCatNLO 1  0  0  2  2 0.41431378D+02 0.00000000D+00  -5  6  0 0.00000000D+00 0.00000000D+00 0.00000000D+00 0.00000000D+00 0.00000000D+00
  <mgrwgt>
 0.1668293883D+00    7    4    0
 0.321405216498590D+03 0.000000000000000D+00 0.000000000000000D+00 0.321405216498590D+03
 0.321405216498590D+03 0.000000000000000D+00 0.000000000000000D+00 -.321405216498590D+03
 0.307111466496761D+03 0.232813231991827D+03 0.142810023795288D+03 0.639980387738589D+02
 0.271805165124619D+03 -.195595286241633D+03 -.164391021332711D+03 -.167592526582577D+02
 0.638938013757998D+02 -.372179457501941D+02 0.215809975374230D+02 -.472387861156011D+02
 0.000000000000000D+00 0.000000000000000D+00 -.000000000000000D+00 -.000000000000000D+00
 0.332597244851063D+03 0.000000000000000D+00 0.000000000000000D+00 0.332597244851063D+03
 0.362845029950259D+03 0.000000000000000D+00 0.000000000000000D+00 -.362845029950259D+03
 0.301079350932428D+03 0.217015528076735D+03 0.154377094041077D+03 0.639980387738589D+02
 0.276281303872971D+03 -.209831784901201D+03 -.153967064728993D+03 -.167592526582577D+02
 0.667835928989897D+02 -.406122797716695D+02 0.240663270685436D+02 -.472387861156011D+02
 0.512980270969339D+02 0.334285365961356D+02 -.244763563806271D+02 -.302477850991956D+02
 0.321405216498590D+03 0.000000000000000D+00 0.000000000000000D+00 0.321405216498590D+03
 0.321405216498590D+03 0.000000000000000D+00 0.000000000000000D+00 -.321405216498590D+03
 0.307111466496761D+03 0.232813231991827D+03 0.142810023795288D+03 0.639980387738589D+02
 0.271805165124619D+03 -.195595286241633D+03 -.164391021332711D+03 -.167592526582577D+02
 0.000000000000000D+00 0.000000000000000D+00 -.000000000000000D+00 -.000000000000000D+00
 0.638938013757998D+02 -.372179457501941D+02 0.215809975374230D+02 -.472387861156011D+02
 0.332597244851063D+03 0.000000000000000D+00 0.000000000000000D+00 0.332597244851063D+03
 0.362845029950259D+03 0.000000000000000D+00 0.000000000000000D+00 -.362845029950259D+03
 0.301079350932428D+03 0.217015528076735D+03 0.154377094041077D+03 0.639980387738589D+02
 0.276281303872971D+03 -.209831784901201D+03 -.153967064728993D+03 -.167592526582577D+02
 0.512980270969339D+02 0.334285365961356D+02 -.244763563806271D+02 -.302477850991956D+02
 0.667835928989897D+02 -.406122797716695D+02 0.240663270685436D+02 -.472387861156011D+02
0.160599534275D-02 0.000000000000D+00 0.000000000000D+00 0.397813734128D-05 0.000000000000D+00  6 2 -2 25 23 21 21 2 0.88180788D-01 0.27727145D-01 0.94457732D+05 0.94457732D+05 0.94457732D+05 0.11658533D+01  1  2  2  2  6  2       -2 0.137612697475D+00 0.100000000000D+01
0.337329630735D-03 0.847507026312D-04 -.616744498446D-05 0.397813734128D-05 0.000000000000D+00  6 2 -2 25 23 21 21 4 0.88180788D-01 0.27727145D-01 0.94457732D+05 0.94457732D+05 0.94457732D+05 0.11658533D+01  1  2  3  2  6  2       -2 0.392876910873D-01 0.100000000000D+01
0.374525663814D-04 0.000000000000D+00 0.000000000000D+00 0.397813734128D-05 0.000000000000D+00  6 2 -2 25 23 21 21 4 0.88180788D-01 0.27727145D-01 0.94457732D+05 0.94457732D+05 0.94457732D+05 0.11658533D+01  1  2 15  2  6  2       -2 0.436197927592D-02 0.100000000000D+01
-.836269895092D-03 0.000000000000D+00 0.000000000000D+00 0.397813734128D-05 0.000000000000D+00  6 2 -2 25 23 21 21 4 0.88180788D-01 0.27727145D-01 0.94457732D+05 0.94457732D+05 0.94457732D+05 0.11658533D+01  1  2  4  2  6  2       -2 -.973976499853D-01 0.100000000000D+01
-.129612883703D-01 0.000000000000D+00 -.246567805234D-02 0.397813734128D-05 0.000000000000D+00  6 2 -2 25 23 21 21 4 0.88180788D-01 0.32255947D-01 0.94457732D+05 0.94457732D+05 0.94457732D+05 0.11658533D+01  1  2  5  2  6  2       -2 -.114501274459D+01 0.100000000000D+01
0.132107953159D-01 0.000000000000D+00 0.243772645495D-02 0.397813734128D-05 0.000000000000D+00  6 2 -2 25 23 21 21 4 0.88180788D-01 0.27727145D-01 0.94457732D+05 0.94457732D+05 0.94457732D+05 0.11658533D+01  1  2  6  2  6  2       -2 0.153861860358D+01 0.100000000000D+01
-.280337051665D-03 0.000000000000D+00 -.566355924174D-04 0.397813734128D-05 0.000000000000D+00  6 2 21 25 23 2 21 4 0.88180788D-01 0.32255947D-01 0.94457732D+05 0.94457732D+05 0.94457732D+05 0.11658533D+01  3  4  5  5  5  2       -2 -.310641188577D+00 0.100000000000D+01
  </mgrwgt>
  </event>
  <event>
  5     66 0.57005756E-03 0.32446587E+02 0.75467711E-02 0.11315369E+00
        4 -1    0    0  502    0 0.00000000E+00 0.00000000E+00 0.74696413E+03 0.74696574E+03 0.15500000E+01 0.0000E+00 0.9000E+01
       -4 -1    0    0    0  501 0.00000000E+00 0.00000000E+00 -.77829127E+02 0.77844560E+02 0.15500000E+01 0.0000E+00 0.9000E+01
       25  1    1    2    0    0 -.17865766E+03 -.67537462E+02 0.48167158E+03 0.53302193E+03 0.12500000E+03 0.0000E+00 0.9000E+01
       23  1    1    2    0    0 0.15559808E+03 0.44722450E+02 0.13341449E+03 0.22874776E+03 0.91188000E+02 0.0000E+00 0.9000E+01
       21  1    1    2  502  501 0.23059577E+02 0.22815011E+02 0.54048924E+02 0.63040602E+02 0.75000000E+00 0.0000E+00 0.9000E+01
#aMCatNLO 1  0  0  5  1 0.63289045D+01 0.00000000D+00  -5  6  0 0.00000000D+00 0.00000000D+00 0.00000000D+00 0.00000000D+00 0.00000000D+00
  <mgrwgt>
 0.6418370187D-02   25    2    0
 0.241127754555153D+03 0.000000000000000D+00 0.000000000000000D+00 0.241127754555153D+03
 0.241127754555153D+03 -.000000000000000D+00 -.000000000000000D+00 -.241127754555153D+03
 0.243315068442380D+03 -.178660694644793D+03 -.675404673980602D+02 0.842369514157043D+02
 0.206115041188845D+03 0.155595506118532D+03 0.447199042632207D+02 -.892094585718668D+02
 0.328253994790806D+02 0.230651885262605D+02 0.228205631348395D+02 0.497250715616254D+01
 0.000000000000000D+00 0.000000000000000D+00 0.000000000000000D+00 0.000000000000000D+00
 0.241127754555153D+03 0.000000000000000D+00 0.000000000000000D+00 0.241127754555153D+03
 0.241127754555153D+03 -.000000000000000D+00 -.000000000000000D+00 -.241127754555153D+03
 0.241784756782685D+03 -.177015836088341D+03 -.659130539263413D+02 0.845915581397515D+02
 0.207349473245265D+03 0.156997466311035D+03 0.461069955089362D+02 -.889072170756857D+02
 0.712716532118411D+01 -.209731852129058D+01 0.623787941769268D+01 0.273616536526339D+01
 0.259941137611713D+02 0.221156882985967D+02 0.135681789997124D+02 0.157949357067080D+01
0.492623279094D-03 0.000000000000D+00 0.000000000000D+00 0.679077922955D-05 0.000000000000D+00  6 4 -4 25 23 21 21 2 0.11491887D+00 0.11975023D-01 0.49845926D+05 0.49845926D+05 0.49845926D+05 0.11924145D+01  1  2  2  3  6  5       21 0.432665654989D-02 0.100000000000D+01
0.125435668675D-03 0.259964446498D-04 -.189180310241D-05 0.679077922955D-05 0.000000000000D+00  6 4 -4 25 23 21 21 4 0.11491887D+00 0.11975023D-01 0.49845926D+05 0.49845926D+05 0.49845926D+05 0.11924145D+01  1  2  3  3  6  5       21 0.156643743763D-02 0.100000000000D+01
0.779004479046D-05 0.000000000000D+00 0.000000000000D+00 0.679077922955D-05 0.000000000000D+00  6 4 -4 25 23 21 21 4 0.11491887D+00 0.11975023D-01 0.49845926D+05 0.49845926D+05 0.49845926D+05 0.11924145D+01  1  2 15  3  6  5       21 0.972818810585D-04 0.100000000000D+01
0.360710904622D-04 0.000000000000D+00 0.000000000000D+00 0.679115541785D-05 0.000000000000D+00  6 4 -4 25 23 21 21 4 0.11491887D+00 0.11975023D-01 0.49807679D+05 0.49807679D+05 0.49807679D+05 0.11924476D+01  1  2 12  3  6  5       21 0.450484316263D-03 0.100000000000D+01
0.366953557667D-04 0.000000000000D+00 0.000000000000D+00 0.679115541785D-05 0.000000000000D+00  6 4 -4 25 23 21 21 4 0.11491887D+00 0.11975023D-01 0.49807679D+05 0.49807679D+05 0.49807679D+05 0.11924476D+01  1  2 12  3  6  5       21 0.458280635289D-03 0.100000000000D+01
-.541416187873D-03 0.000000000000D+00 0.000000000000D+00 0.679077922955D-05 0.000000000000D+00  6 4 -4 25 23 21 21 4 0.11491887D+00 0.11975023D-01 0.49845926D+05 0.49845926D+05 0.49845926D+05 0.11924145D+01  1  2  4  3  6  5       21 -.676119157317D-02 0.100000000000D+01
-.533143015718D-04 0.000000000000D+00 0.000000000000D+00 0.679077922955D-05 0.000000000000D+00  6 4 -4 25 23 21 21 4 0.11491887D+00 0.11975023D-01 0.49845926D+05 0.49845926D+05 0.49845926D+05 0.11924145D+01  1  2  5  3  6  5       21 -.665787640987D-03 0.100000000000D+01
0.550887885106D-03 0.000000000000D+00 -.000000000000D+00 0.679077922955D-05 0.000000000000D+00  6 4 -4 25 23 21 21 4 0.11491887D+00 0.11975023D-01 0.49845926D+05 0.49845926D+05 0.49845926D+05 0.11924145D+01  1  2  6  3  6  5       21 0.687947388711D-02 0.100000000000D+01
0.892481350899D-05 0.000000000000D+00 0.000000000000D+00 0.679077922955D-05 0.971738987520D-06  6 4 -4 25 23 21 21 4 0.11491887D+00 0.11975023D-01 0.49807679D+05 0.49807679D+05 0.49807679D+05 0.11924476D+01  1  2 11  3  6  5       21 0.111460132196D-03 0.100000000000D+01
0.646046263431D-05 0.000000000000D+00 0.000000000000D+00 0.679115541785D-05 0.000000000000D+00  6 4 -4 25 23 1 -1 4 0.11491887D+00 0.11975023D-01 0.49807679D+05 0.49807679D+05 0.49807679D+05 0.11924476D+01  1  2 12  6  6  5       21 0.806833687384D-04 0.100000000000D+01
0.646046263431D-05 0.000000000000D+00 0.000000000000D+00 0.679115541785D-05 0.000000000000D+00  6 4 -4 25 23 3 -3 4 0.11491887D+00 0.11975023D-01 0.49807679D+05 0.49807679D+05 0.49807679D+05 0.11924476D+01  1  2 12  6  6  5       21 0.806833687384D-04 0.100000000000D+01
0.652050857876D-05 0.000000000000D+00 0.000000000000D+00 0.679115541785D-05 0.000000000000D+00  6 4 -4 25 23 1 -1 4 0.11491887D+00 0.11975023D-01 0.49807679D+05 0.49807679D+05 0.49807679D+05 0.11924476D+01  1  2 12  6  6  5       21 0.814332699995D-04 0.100000000000D+01
0.652050857876D-05 0.000000000000D+00 0.000000000000D+00 0.679115541785D-05 0.000000000000D+00  6 4 -4 25 23 3 -3 4 0.11491887D+00 0.11975023D-01 0.49807679D+05 0.49807679D+05 0.49807679D+05 0.11924476D+01  1  2 12  6  6  5       21 0.814332699995D-04 0.100000000000D+01
-.162915374858D-04 0.000000000000D+00 0.000000000000D+00 0.679077922955D-05 0.000000000000D+00  6 4 -4 25 23 1 -1 4 0.11491887D+00 0.11975023D-01 0.49845926D+05 0.49845926D+05 0.49845926D+05 0.11924145D+01  1  2  5  6  6  5       21 -.203448305444D-03 0.100000000000D+01
-.162915374858D-04 0.000000000000D+00 0.000000000000D+00 0.679077922955D-05 0.000000000000D+00  6 4 -4 25 23 3 -3 4 0.11491887D+00 0.11975023D-01 0.49845926D+05 0.49845926D+05 0.49845926D+05 0.11924145D+01  1  2  5  6  6  5       21 -.203448305444D-03 0.100000000000D+01
0.242878130562D-05 0.000000000000D+00 0.000000000000D+00 0.679077922955D-05 0.323592168318D-07  6 4 -4 25 23 1 -1 4 0.11491887D+00 0.11975023D-01 0.49807679D+05 0.49807679D+05 0.49807679D+05 0.11924476D+01  1  2 11  6  6  5       21 0.303325425373D-04 0.100000000000D+01
0.242878130562D-05 0.000000000000D+00 0.000000000000D+00 0.679077922955D-05 0.323592168318D-07  6 4 -4 25 23 3 -3 4 0.11491887D+00 0.11975023D-01 0.49807679D+05 0.49807679D+05 0.49807679D+05 0.11924476D+01  1  2 11  6  6  5       21 0.303325425373D-04 0.100000000000D+01
0.646046263431D-05 0.000000000000D+00 0.000000000000D+00 0.679115541785D-05 0.000000000000D+00  6 4 -4 25 23 4 -4 4 0.11491887D+00 0.11975023D-01 0.49807679D+05 0.49807679D+05 0.49807679D+05 0.11924476D+01  1  2 12  7  6  5       21 0.806833687384D-04 0.100000000000D+01
0.652050857876D-05 0.000000000000D+00 0.000000000000D+00 0.679115541785D-05 0.000000000000D+00  6 4 -4 25 23 4 -4 4 0.11491887D+00 0.11975023D-01 0.49807679D+05 0.49807679D+05 0.49807679D+05 0.11924476D+01  1  2 12  7  6  5       21 0.814332699995D-04 0.100000000000D+01
-.162915374858D-04 0.000000000000D+00 0.000000000000D+00 0.679077922955D-05 0.000000000000D+00  6 4 -4 25 23 4 -4 4 0.11491887D+00 0.11975023D-01 0.49845926D+05 0.49845926D+05 0.49845926D+05 0.11924145D+01  1  2  5  7  6  5       21 -.203448305444D-03 0.100000000000D+01
0.236947249228D-05 0.000000000000D+00 0.000000000000D+00 0.679077922955D-05 0.332301131520D-07  6 4 -4 25 23 4 -4 4 0.11491887D+00 0.11975023D-01 0.49807679D+05 0.49807679D+05 0.49807679D+05 0.11924476D+01  1  2 11  7  6  5       21 0.295918471527D-04 0.100000000000D+01
0.646046263431D-05 0.000000000000D+00 0.000000000000D+00 0.679115541785D-05 0.000000000000D+00  6 4 -4 25 23 2 -2 4 0.11491887D+00 0.11975023D-01 0.49807679D+05 0.49807679D+05 0.49807679D+05 0.11924476D+01  1  2 12  8  6  5       21 0.806833687384D-04 0.100000000000D+01
0.652050857876D-05 0.000000000000D+00 0.000000000000D+00 0.679115541785D-05 0.000000000000D+00  6 4 -4 25 23 2 -2 4 0.11491887D+00 0.11975023D-01 0.49807679D+05 0.49807679D+05 0.49807679D+05 0.11924476D+01  1  2 12  8  6  5       21 0.814332699995D-04 0.100000000000D+01
-.162915374858D-04 0.000000000000D+00 0.000000000000D+00 0.679077922955D-05 0.000000000000D+00  6 4 -4 25 23 2 -2 4 0.11491887D+00 0.11975023D-01 0.49845926D+05 0.49845926D+05 0.49845926D+05 0.11924145D+01  1  2  5  8  6  5       21 -.203448305444D-03 0.100000000000D+01
0.242972247268D-05 0.000000000000D+00 0.000000000000D+00 0.679077922955D-05 0.323717562190D-07  6 4 -4 25 23 2 -2 4 0.11491887D+00 0.11975023D-01 0.49807679D+05 0.49807679D+05 0.49807679D+05 0.11924476D+01  1  2 11  8  6  5       21 0.303442965762D-04 0.100000000000D+01
  </mgrwgt>
  </event>
  <event>
  5     66 0.57005756E-03 0.62865672E+02 0.75467711E-02 0.10537962E+00
        2 -1    0    0  502    0 0.00000000E+00 0.00000000E+00 0.37483191E+03 0.37483204E+03 0.32000000E+00 0.0000E+00 0.9000E+01
       -2 -1    0    0    0  501 0.00000000E+00 0.00000000E+00 -.73220617E+02 0.73221317E+02 0.32000000E+00 0.0000E+00 0.9000E+01
       25  1    1    2    0    0 0.54567868E+01 -.27512043E+02 0.10088375E+03 0.16306201E+03 0.12500000E+03 0.0000E+00 0.9000E+01
       23  1    1    2    0    0 -.42891549E+01 0.90364210E+02 0.87304963E+02 0.15531096E+03 0.91188000E+02 0.0000E+00 0.9000E+01
       21  1    1    2  502  501 -.11676319E+01 -.62852168E+02 0.11342258E+03 0.12968039E+03 0.75000000E+00 0.0000E+00 0.9000E+01
#aMCatNLO 1  0  0  1  5 0.72814262D+01 0.00000000D+00  -5  6  0 0.00000000D+00 0.00000000D+00 0.00000000D+00 0.00000000D+00 0.00000000D+00
  <mgrwgt>
 0.5180061778D-01    5    4    0
 0.165667168701542D+03 0.000000000000000D+00 0.000000000000000D+00 0.165667168701542D+03
 0.165667168701542D+03 0.000000000000000D+00 0.000000000000000D+00 -.165667168701542D+03
 0.128669835238820D+03 0.545681130246925D+01 -.275107224268349D+02 -.120129039931220D+02
 0.130550271772178D+03 -.428913002292194D+01 0.903655495947144D+02 -.233193680420628D+02
 0.721142303920864D+02 -.116768127954731D+01 -.628548271678795D+02 0.353322720351849D+02
 0.000000000000000D+00 -.000000000000000D+00 0.000000000000000D+00 0.000000000000000D+00
 0.385930130063428D+03 0.000000000000000D+00 0.000000000000000D+00 0.385930130063428D+03
 0.366759985001857D+03 0.000000000000000D+00 0.000000000000000D+00 -.366759985001857D+03
 0.199878827109971D+03 0.166726477056114D+02 -.154610020642241D+03 -.120129039931220D+02
 0.942448109875265D+02 0.338481652258872D+01 0.340340201883720D+01 -.233193680420628D+02
 0.154904019146960D+03 0.658215866548517D+01 -.150677008491726D+03 0.353322720351849D+02
 0.303662457820828D+03 -.266396228936853D+02 0.301883627115130D+03 0.191701450615708D+02
 0.165667168701542D+03 0.000000000000000D+00 0.000000000000000D+00 0.165667168701542D+03
 0.165667168701542D+03 0.000000000000000D+00 0.000000000000000D+00 -.165667168701542D+03
 0.128669835238820D+03 0.545681130246925D+01 -.275107224268349D+02 -.120129039931220D+02
 0.130550271772178D+03 -.428913002292194D+01 0.903655495947144D+02 -.233193680420628D+02
 0.000000000000000D+00 -.000000000000000D+00 0.000000000000000D+00 0.000000000000000D+00
 0.721142303920864D+02 -.116768127954731D+01 -.628548271678795D+02 0.353322720351849D+02
 0.385930130063428D+03 0.000000000000000D+00 0.000000000000000D+00 0.385930130063428D+03
 0.366759985001857D+03 0.000000000000000D+00 0.000000000000000D+00 -.366759985001857D+03
 0.199878827109971D+03 0.166726477056114D+02 -.154610020642241D+03 -.120129039931220D+02
 0.942448109875265D+02 0.338481652258872D+01 0.340340201883720D+01 -.233193680420628D+02
 0.303662457820828D+03 -.266396228936853D+02 0.301883627115130D+03 0.191701450615708D+02
 0.154904019146960D+03 0.658215866548517D+01 -.150677008491726D+03 0.353322720351849D+02
0.604157201855D-04 0.000000000000D+00 0.000000000000D+00 0.351621346056D-05 0.000000000000D+00  6 2 -2 25 23 21 21 2 0.57666511D-01 0.11264775D-01 0.25507954D+05 0.25507954D+05 0.25507954D+05 0.12223622D+01  1  2  2  1  6  1        2 0.411635288944D-01 0.100000000000D+01
-.888177550428D-06 0.318822514573D-05 -.232012273337D-06 0.351621346056D-05 0.000000000000D+00  6 2 -2 25 23 21 21 4 0.57666511D-01 0.11264775D-01 0.25507954D+05 0.25507954D+05 0.25507954D+05 0.12223622D+01  1  2  3  1  6  1        2 -.904195298551D-03 0.100000000000D+01
0.232017344290D-05 0.000000000000D+00 0.000000000000D+00 0.351621346056D-05 0.000000000000D+00  6 2 -2 25 23 21 21 4 0.57666511D-01 0.11264775D-01 0.25507954D+05 0.25507954D+05 0.25507954D+05 0.12223622D+01  1  2 15  1  6  1        2 0.236201637599D-02 0.100000000000D+01
0.548591542701D-04 0.000000000000D+00 -.468284934140D-04 0.351621346056D-05 0.000000000000D+00  6 2 -2 25 23 21 21 4 0.24264857D+00 0.11264775D-01 0.25507954D+05 0.25507954D+05 0.25507954D+05 0.12223622D+01  1  2  5  1  6  1        2 0.847998223224D-02 0.100000000000D+01
0.961242586234D-05 0.000000000000D+00 -.808006430108D-05 0.351621346056D-05 0.000000000000D+00  6 21 -2 25 23 -2 21 4 0.24264857D+00 0.11264775D-01 0.25507954D+05 0.25507954D+05 0.25507954D+05 0.12223622D+01  3  4  5  4  5  1        2 0.699285573384D-03 0.100000000000D+01
  </mgrwgt>
  </event>
  <event>
  5     66 -.57005756E-03 0.24554604E+02 0.75467711E-02 0.10756944E+00
        2 -1    0    0  502    0 0.00000000E+00 0.00000000E+00 0.27488669E+03 0.27488688E+03 0.32000000E+00 0.0000E+00 0.9000E+01
       -2 -1    0    0    0  501 -.00000000E+00 -.00000000E+00 -.52436454E+03 0.52436463E+03 0.32000000E+00 0.0000E+00 0.9000E+01
       25  1    1    2    0    0 -.21840377E+03 0.18241930E+03 0.18788799E+01 0.31081432E+03 0.12500000E+03 0.0000E+00 0.9000E+01
       23  1    1    2    0    0 0.20674117E+03 -.20402705E+03 -.79250735E+02 0.31458684E+03 0.91188000E+02 0.0000E+00 0.9000E+01
       21  1    1    2  502  501 0.11662599E+02 0.21607746E+02 -.17210599E+03 0.17385035E+03 0.75000000E+00 0.0000E+00 0.9000E+01
#aMCatNLO 1  0  0  5  2 0.80236781D+01 0.00000000D+00  -5  6  0 0.00000000D+00 0.00000000D+00 0.00000000D+00 0.00000000D+00 0.00000000D+00
  <mgrwgt>
 -.1690852515D+00    1    2    0
 0.379658984755167D+03 0.000000000000000D+00 0.000000000000000D+00 0.379658984755167D+03
 0.379658984755167D+03 -.000000000000000D+00 -.000000000000000D+00 -.379658984755167D+03
 0.327778036072249D+03 -.218403858282548D+03 0.182419139874464D+03 0.104098285414017D+03
 0.305093243058950D+03 0.206741088694207D+03 -.204027202827198D+03 0.199413732794691D+02
 0.126446690379134D+03 0.116627695883407D+02 0.216080629527335D+02 -.124039658693486D+03
 0.000000000000000D+00 0.000000000000000D+00 0.000000000000000D+00 0.000000000000000D+00
 0.379658984755167D+03 0.000000000000000D+00 0.000000000000000D+00 0.379658984755167D+03
 0.379658984755167D+03 -.000000000000000D+00 -.000000000000000D+00 -.379658984755167D+03
 0.322474633552484D+03 -.216424778221941D+03 0.186085857819474D+03 0.830497331481725D+02
 0.303422310345232D+03 0.208593139527010D+03 -.200595836831004D+03 0.243843336533054D+00
 0.953167364513413D+02 -.154571226622653D+02 -.140442429866704D+02 -.930006282004024D+02
 0.381042891612765D+02 0.232887613571964D+02 0.285542219982005D+02 0.970705171569675D+01
-.548010691101D-02 0.000000000000D+00 0.000000000000D+00 0.127494853407D-04 0.000000000000D+00  6 2 -2 25 23 21 21 4 0.42290282D-01 0.80671489D-01 0.10233731D+06 0.10233731D+06 0.10233731D+06 0.11626510D+01  1  2 14  3  6  5       21 -.169085251518D+00 0.100000000000D+01
  </mgrwgt>
  </event>
  <event>
  6     66 0.57005756E-03 0.75228685E+02 0.75467711E-02 0.10719245E+00
        2 -1    0    0  502    0 0.00000000E+00 0.00000000E+00 0.77107167E+03 0.77107174E+03 0.32000000E+00 0.0000E+00 0.9000E+01
       21 -1    0    0  503  501 0.00000000E+00 0.00000000E+00 -.18791639E+03 0.18791789E+03 0.75000000E+00 0.0000E+00 0.9000E+01
       25  1    1    2    0    0 0.22857946E+03 0.14204094E+03 0.31955743E+03 0.43608044E+03 0.12500000E+03 0.0000E+00 0.9000E+01
       23  1    1    2    0    0 -.19358407E+03 -.16500719E+02 0.19207006E+03 0.28801602E+03 0.91188000E+02 0.0000E+00 0.9000E+01
        2  1    1    2  503    0 -.53434968E+02 -.82768732E+02 -.45808357E+02 0.10864836E+03 0.32000000E+00 0.0000E+00 0.9000E+01
       21  1    1    2  502  501 0.18439579E+02 -.42771493E+02 0.11733614E+03 0.12624481E+03 0.75000000E+00 0.0000E+00 0.9000E+01
#aMCatNLO 2  0  0  2  2 0.98518824D+02 0.00000000D+00  -5  6  0 0.00000000D+00 0.00000000D+00 0.00000000D+00 0.00000000D+00 0.00000000D+00
  <mgrwgt>
 0.1555498493D-01    1    2    0
 0.281859474208058D+03 0.000000000000000D+00 0.000000000000000D+00 0.281859474208058D+03
 0.281859474208058D+03 0.000000000000000D+00 0.000000000000000D+00 -.281859474208058D+03
 0.258740105090334D+03 0.202448948873315D+03 0.101568024169343D+03 -.444989309790716D+01
 0.240930002440107D+03 -.215118701247833D+03 -.498549537884023D+02 -.311519291215072D+02
 0.000000000000000D+00 -.000000000000000D+00 -.000000000000000D+00 -.000000000000000D+00
 0.640488408856748D+02 0.126697523745179D+02 -.517130703809404D+02 0.356018222194144D+02
 0.298286113941991D+03 0.000000000000000D+00 0.000000000000000D+00 0.298286113941991D+03
 0.485767308513672D+03 0.000000000000000D+00 0.000000000000000D+00 -.485767308513672D+03
 0.296764752529104D+03 0.228579102199384D+03 0.142042637376251D+03 -.444989309790716D+01
 0.216870568224350D+03 -.193584417721516D+03 -.164991680209268D+02 -.311519291215072D+02
 0.211790361005581D+03 -.534349676448629D+02 -.827687315937744D+02 -.187481194571681D+03
 0.586277406966287D+02 0.184402831669949D+02 -.427747377615502D+02 0.356018222194144D+02
0.165565653824D-04 0.000000000000D+00 0.000000000000D+00 0.278934362233D-05 0.191959827324D-09  6 2 21 25 23 2 21 4 0.11862648D+00 0.28910323D-01 0.10773231D+06 0.10773231D+06 0.10773231D+06 0.11606119D+01  1  2  1  5  5  2       -2 0.155549849330D-01 0.100000000000D+01
  </mgrwgt>
  </event>
  <event>
  6     66 0.57005756E-03 0.39843011E+02 0.75467711E-02 0.10074758E+00
        2 -1    0    0  502    0 0.00000000E+00 0.00000000E+00 0.11332541E+04 0.11332542E+04 0.32000000E+00 0.0000E+00 0.9000E+01
       -2 -1    0    0    0  501 0.00000000E+00 0.00000000E+00 -.27035774E+03 0.27035793E+03 0.32000000E+00 0.0000E+00 0.9000E+01
       25  1    1    2    0    0 0.68279133E+02 -.50331476E+03 0.53986872E+03 0.75171206E+03 0.12500000E+03 0.0000E+00 0.9000E+01
       23  1    1    2    0    0 -.51390561E+02 0.46908064E+03 0.35324614E+03 0.59646938E+03 0.91188000E+02 0.0000E+00 0.9000E+01
       21  1    1    2  503  501 -.20178466E+02 0.36708740E+02 -.25177232E+02 0.48879010E+02 0.75000000E+00 0.0000E+00 0.9000E+01
       21  1    1    2  502  503 0.32898938E+01 -.24746175E+01 -.50412567E+01 0.65516336E+01 0.75000000E+00 0.0000E+00 0.9000E+01
#aMCatNLO 2  0  0  5  2 0.85264910D+01 0.00000000D+00  -5  6  0 0.00000000D+00 0.00000000D+00 0.00000000D+00 0.00000000D+00 0.00000000D+00
  <mgrwgt>
 0.5786398657D-01    4    2    0
 0.553519814170928D+03 0.000000000000000D+00 0.000000000000000D+00 0.553519814170928D+03
 0.553519814170928D+03 -.000000000000000D+00 -.000000000000000D+00 -.553519814170928D+03
 0.533303229253024D+03 0.686246127533407D+02 -.504015067738843D+03 0.100233768503271D+03
 0.480219019295891D+03 -.510789461021639D+02 0.468448976961068D+03 -.155419560779259D+02
 0.935173797929403D+02 -.175456666511767D+02 0.355660907777749D+02 -.846918124253455D+02
 0.000000000000000D+00 0.000000000000000D+00 0.000000000000000D+00 -.000000000000000D+00
 0.553519814170928D+03 0.000000000000000D+00 0.000000000000000D+00 0.553519814170928D+03
 0.553519814170928D+03 -.000000000000000D+00 -.000000000000000D+00 -.553519814170928D+03
 0.532276267215178D+03 0.682759202999019D+02 -.503308247775881D+03 0.985506522986904D+02
 0.480925933458411D+03 -.513934641581110D+02 0.469086523424902D+03 -.170601146482566D+02
 0.814658441603834D+02 -.202195957093384D+02 0.367347525191211D+02 -.698456131154542D+02
 0.123715835078836D+02 0.333713956754750D+01 -.251302816814190D+01 -.116449245349797D+02
-.793422232321D-02 0.000000000000D+00 0.000000000000D+00 0.406512566374D-05 0.000000000000D+00  6 2 -2 25 23 21 21 4 0.17434680D+00 0.41593517D-01 0.27552315D+06 0.27552315D+06 0.27552315D+06 0.11251806D+01  1  2 13  3  6  5       21 -.149744629291D+00 0.100000000000D+01
-.587984521552D-02 0.000000000000D+00 0.000000000000D+00 0.406512566374D-05 0.000000000000D+00  6 2 -2 25 23 21 21 4 0.17434680D+00 0.41593517D-01 0.27552315D+06 0.27552315D+06 0.27552315D+06 0.11251806D+01  1  2 13  3  6  5       21 -.110971838981D+00 0.100000000000D+01
-.958692320621D-01 0.000000000000D+00 0.000000000000D+00 0.406829808485D-05 0.000000000000D+00  6 2 -2 25 23 21 21 4 0.17434680D+00 0.41593517D-01 0.27218398D+06 0.27218398D+06 0.27218398D+06 0.11256196D+01  1  2  8  3  6  5       21 -.181280748915D+01 0.100000000000D+01
0.112931634909D+00 0.000000000000D+00 0.000000000000D+00 0.406829808485D-05 0.351270094205D-06  6 2 -2 25 23 21 21 4 0.17434680D+00 0.41593517D-01 0.27552315D+06 0.27552315D+06 0.27552315D+06 0.11251806D+01  1  2  1  3  6  5       21 0.213138794399D+01 0.100000000000D+01
  </mgrwgt>
  </event>
  <event>
  6     66 0.57005756E-03 0.11226671E+02 0.75467711E-02 0.12111490E+00
        2 -1    0    0  503    0 0.00000000E+00 0.00000000E+00 0.98677361E+03 0.98677366E+03 0.32000000E+00 0.0000E+00 0.9000E+01
       -2 -1    0    0    0  501 0.00000000E+00 0.00000000E+00 -.24237500E+02 0.24239613E+02 0.32000000E+00 0.0000E+00 0.9000E+01
       25  1    1    2    0    0 -.15466808E+02 -.51901595E+02 0.40369247E+03 0.42605822E+03 0.12500000E+03 0.0000E+00 0.9000E+01
       23  1    1    2    0    0 0.22078882E+02 0.54262295E+02 0.23798756E+03 0.26150565E+03 0.91188000E+02 0.0000E+00 0.9000E+01
       21  1    1    2  502  501 -.39765564E+01 0.17836908E+02 0.10034280E+03 0.10199612E+03 0.75000000E+00 0.0000E+00 0.9000E+01
       21  1    1    2  503  502 -.26355175E+01 -.20197607E+02 0.22051328E+03 0.22145328E+03 0.75000000E+00 0.0000E+00 0.9000E+01
#aMCatNLO 2  0  0  1  5 0.11781026D+02 0.00000000D+00  -5  6  0 0.00000000D+00 0.00000000D+00 0.00000000D+00 0.00000000D+00 0.00000000D+00
  <mgrwgt>
 0.7921734428D-01    1    2    0
 0.134528997928886D+03 0.000000000000000D+00 0.000000000000000D+00 0.134528997928886D+03
 0.134528997928886D+03 0.000000000000000D+00 0.000000000000000D+00 -.134528997928886D+03
 0.141006964608005D+03 -.168229565980925D+02 -.623103454584496D+02 0.961108985029781D+01
 0.106771818745634D+03 0.210161048906130D+02 0.461056571381467D+02 -.227499813041020D+02
 0.212792125041336D+02 -.419314829252044D+01 0.162046883203029D+02 0.131388914538042D+02
 0.000000000000000D+00 -.000000000000000D+00 -.000000000000000D+00 0.000000000000000D+00
 0.173841664051276D+03 0.000000000000000D+00 0.000000000000000D+00 0.173841664051276D+03
 0.137578434164527D+03 0.000000000000000D+00 0.000000000000000D+00 -.137578434164527D+03
 0.136568161193323D+03 -.154654259755091D+02 -.519067452554205D+02 0.961108985029781D+01
 0.110744256350302D+03 0.220799060219083D+02 0.542582258400334D+02 -.227499813041020D+02
 0.225154802522695D+02 -.397896254243992D+01 0.178461267349907D+02 0.131388914538042D+02
 0.415922004199085D+02 -.263551750395929D+01 -.201976073196036D+02 0.362632298867497D+02
0.431168650423D-04 0.000000000000D+00 0.000000000000D+00 0.438162218128D-04 0.238190961672D-06  6 2 -2 25 23 21 21 4 0.15180782D+00 0.37289226D-02 0.20059769D+05 0.20059769D+05 0.20059769D+05 0.12336834D+01  1  2  1  1  6  1        2 0.792173442791D-01 0.100000000000D+01
  </mgrwgt>
  </event>
  <event>
  5     66 -.57005756E-03 0.20576809E+02 0.75467711E-02 0.12279690E+00
        2 -1    0    0  502    0 0.00000000E+00 0.00000000E+00 0.36272133E+03 0.36272147E+03 0.32000000E+00 0.0000E+00 0.9000E+01
       -2 -1    0    0    0  501 0.00000000E+00 0.00000000E+00 -.58993452E+02 0.58994320E+02 0.32000000E+00 0.0000E+00 0.9000E+01
       25  1    1    2    0    0 -.47678489E+02 -.37717817E+02 0.20441558E+03 0.24719750E+03 0.12500000E+03 0.0000E+00 0.9000E+01
       23  1    1    2    0    0 0.30306431E+02 0.26699695E+02 0.32947161E+02 0.10503390E+03 0.91188000E+02 0.0000E+00 0.9000E+01
       21  1    1    2  502  501 0.17372058E+02 0.11018122E+02 0.66365132E+02 0.69484391E+02 0.75000000E+00 0.0000E+00 0.9000E+01
#aMCatNLO 1  0  0  5  1 0.14228371D+01 0.00000000D+00  -5  6  0 0.00000000D+00 0.00000000D+00 0.00000000D+00 0.00000000D+00 0.00000000D+00
  <mgrwgt>
 -.1710868683D+01   20    2    0
 0.146281906097054D+03 0.000000000000000D+00 0.000000000000000D+00 0.146281906097054D+03
 0.146281906097054D+03 -.000000000000000D+00 -.000000000000000D+00 -.146281906097054D+03
 0.144106945713825D+03 -.476809529963718D+02 -.377193797899121D+02 0.380208746952162D+02
 0.117197214132273D+03 0.303044277274652D+02 0.266984245817471D+02 -.615529970133823D+02
 0.312596523480102D+02 0.173765252689066D+02 0.110209552081650D+02 0.235321223181661D+02
 0.000000000000000D+00 0.000000000000000D+00 0.000000000000000D+00 0.000000000000000D+00
 0.146281906097054D+03 0.000000000000000D+00 0.000000000000000D+00 0.146281906097054D+03
 0.146281906097054D+03 -.000000000000000D+00 -.000000000000000D+00 -.146281906097054D+03
 0.144087377072791D+03 -.475391490112100D+02 -.376294414768937D+02 0.382129124399546D+02
 0.117161852303847D+03 0.304197424542027D+02 0.267715622441134D+02 -.613968322904196D+02
 0.289755231287815D+02 0.149443833589171D+02 0.101963204918063D+02 0.226336341544315D+02
 0.233905968868871D+01 0.217502319809015D+01 0.661558740974034D+00 0.550285696033520D+00
0.780525184489D-04 0.000000000000D+00 0.000000000000D+00 0.268979009668D-04 0.000000000000D+00  6 2 -2 25 23 21 21 2 0.55803359D-01 0.90759933D-02 0.16810333D+05 0.16810333D+05 0.16810333D+05 0.12422203D+01  1  2  2  3  6  5       21 0.790022168142D-01 0.100000000000D+01
0.128649501618D-04 0.411894456016D-05 -.299742222544D-06 0.268979009668D-04 0.000000000000D+00  6 2 -2 25 23 21 21 4 0.55803359D-01 0.90759933D-02 0.16810333D+05 0.16810333D+05 0.16810333D+05 0.12422203D+01  1  2  3  3  6  5       21 0.200935994454D-01 0.100000000000D+01
0.214231544814D-05 0.000000000000D+00 0.000000000000D+00 0.268979009668D-04 0.000000000000D+00  6 2 -2 25 23 21 21 4 0.55803359D-01 0.90759933D-02 0.16810333D+05 0.16810333D+05 0.16810333D+05 0.12422203D+01  1  2 15  3  6  5       21 0.334605482022D-02 0.100000000000D+01
0.328314461315D-08 0.000000000000D+00 0.000000000000D+00 0.269016581143D-04 0.000000000000D+00  6 2 -2 25 23 21 21 4 0.55803359D-01 0.90759933D-02 0.16780493D+05 0.16780493D+05 0.16780493D+05 0.12423071D+01  1  2 12  3  6  5       21 0.512903909428D-05 0.100000000000D+01
0.359738748087D-08 0.000000000000D+00 0.000000000000D+00 0.269016581143D-04 0.000000000000D+00  6 2 -2 25 23 21 21 4 0.55803359D-01 0.90759933D-02 0.16780493D+05 0.16780493D+05 0.16780493D+05 0.12423071D+01  1  2 12  3  6  5       21 0.561995988625D-05 0.100000000000D+01
-.132257221557D-02 0.000000000000D+00 0.000000000000D+00 0.268979009668D-04 0.000000000000D+00  6 2 -2 25 23 21 21 4 0.55803359D-01 0.90759933D-02 0.16810333D+05 0.16810333D+05 0.16810333D+05 0.12422203D+01  1  2  4  3  6  5       21 -.206570845618D+01 0.100000000000D+01
-.138168315954D-02 0.000000000000D+00 0.000000000000D+00 0.268979009668D-04 0.000000000000D+00  6 2 -2 25 23 21 21 4 0.55803359D-01 0.90759933D-02 0.16810333D+05 0.16810333D+05 0.16810333D+05 0.12422203D+01  1  2  5  3  6  5       21 -.215803307585D+01 0.100000000000D+01
0.157187469994D-02 0.000000000000D+00 -.000000000000D+00 0.268979009668D-04 0.000000000000D+00  6 2 -2 25 23 21 21 4 0.55803359D-01 0.90759933D-02 0.16810333D+05 0.16810333D+05 0.16810333D+05 0.12422203D+01  1  2  6  3  6  5       21 0.245509078558D+01 0.100000000000D+01
0.534309158401D-09 0.000000000000D+00 0.000000000000D+00 0.269016581143D-04 0.000000000000D+00  6 2 -2 25 23 1 -1 4 0.55803359D-01 0.90759933D-02 0.16780493D+05 0.16780493D+05 0.16780493D+05 0.12423071D+01  1  2 12  6  6  5       21 0.834715763324D-06 0.100000000000D+01
0.534309158401D-09 0.000000000000D+00 0.000000000000D+00 0.269016581143D-04 0.000000000000D+00  6 2 -2 25 23 3 -3 4 0.55803359D-01 0.90759933D-02 0.16780493D+05 0.16780493D+05 0.16780493D+05 0.12423071D+01  1  2 12  6  6  5       21 0.834715763324D-06 0.100000000000D+01
0.546707123338D-09 0.000000000000D+00 0.000000000000D+00 0.269016581143D-04 0.000000000000D+00  6 2 -2 25 23 1 -1 4 0.55803359D-01 0.90759933D-02 0.16780493D+05 0.16780493D+05 0.16780493D+05 0.12423071D+01  1  2 12  6  6  5       21 0.854084281725D-06 0.100000000000D+01
0.546707123338D-09 0.000000000000D+00 0.000000000000D+00 0.269016581143D-04 0.000000000000D+00  6 2 -2 25 23 3 -3 4 0.55803359D-01 0.90759933D-02 0.16780493D+05 0.16780493D+05 0.16780493D+05 0.12423071D+01  1  2 12  6  6  5       21 0.854084281725D-06 0.100000000000D+01
-.715117508161D-05 0.000000000000D+00 0.000000000000D+00 0.268979009668D-04 0.000000000000D+00  6 2 -2 25 23 1 -1 4 0.55803359D-01 0.90759933D-02 0.16810333D+05 0.16810333D+05 0.16810333D+05 0.12422203D+01  1  2  5  6  6  5       21 -.111693279684D-01 0.100000000000D+01
-.715117508161D-05 0.000000000000D+00 0.000000000000D+00 0.268979009668D-04 0.000000000000D+00  6 2 -2 25 23 3 -3 4 0.55803359D-01 0.90759933D-02 0.16810333D+05 0.16810333D+05 0.16810333D+05 0.12422203D+01  1  2  5  6  6  5       21 -.111693279684D-01 0.100000000000D+01
0.534309158401D-09 0.000000000000D+00 0.000000000000D+00 0.269016581143D-04 0.000000000000D+00  6 2 -2 25 23 2 -2 4 0.55803359D-01 0.90759933D-02 0.16780493D+05 0.16780493D+05 0.16780493D+05 0.12423071D+01  1  2 12  7  6  5       21 0.834715763324D-06 0.100000000000D+01
0.546707123338D-09 0.000000000000D+00 0.000000000000D+00 0.269016581143D-04 0.000000000000D+00  6 2 -2 25 23 2 -2 4 0.55803359D-01 0.90759933D-02 0.16780493D+05 0.16780493D+05 0.16780493D+05 0.12423071D+01  1  2 12  7  6  5       21 0.854084281725D-06 0.100000000000D+01
-.715117508161D-05 0.000000000000D+00 0.000000000000D+00 0.268979009668D-04 0.000000000000D+00  6 2 -2 25 23 2 -2 4 0.55803359D-01 0.90759933D-02 0.16810333D+05 0.16810333D+05 0.16810333D+05 0.12422203D+01  1  2  5  7  6  5       21 -.111693279684D-01 0.100000000000D+01
0.534309158401D-09 0.000000000000D+00 0.000000000000D+00 0.269016581143D-04 0.000000000000D+00  6 2 -2 25 23 4 -4 4 0.55803359D-01 0.90759933D-02 0.16780493D+05 0.16780493D+05 0.16780493D+05 0.12423071D+01  1  2 12  8  6  5       21 0.834715763324D-06 0.100000000000D+01
0.546707123338D-09 0.000000000000D+00 0.000000000000D+00 0.269016581143D-04 0.000000000000D+00  6 2 -2 25 23 4 -4 4 0.55803359D-01 0.90759933D-02 0.16780493D+05 0.16780493D+05 0.16780493D+05 0.12423071D+01  1  2 12  8  6  5       21 0.854084281725D-06 0.100000000000D+01
-.715117508161D-05 0.000000000000D+00 0.000000000000D+00 0.268979009668D-04 0.000000000000D+00  6 2 -2 25 23 4 -4 4 0.55803359D-01 0.90759933D-02 0.16810333D+05 0.16810333D+05 0.16810333D+05 0.12422203D+01  1  2  5  8  6  5       21 -.111693279684D-01 0.100000000000D+01
  </mgrwgt>
  </event>
  <event>
  5     66 -.57005756E-03 0.37070659E+02 0.75467711E-02 0.12147820E+00
        2 -1    0    0  502    0 0.00000000E+00 0.00000000E+00 0.11404220E+04 0.11404221E+04 0.32000000E+00 0.0000E+00 0.9000E+01
       -2 -1    0    0    0  501 0.00000000E+00 0.00000000E+00 -.17435097E+02 0.17438033E+02 0.32000000E+00 0.0000E+00 0.9000E+01
       25  1    1    2    0    0 0.42020473E+02 -.10733293E+02 0.71110064E+03 0.72330495E+03 0.12500000E+03 0.0000E+00 0.9000E+01
       23  1    1    2    0    0 -.78758927E+01 -.36941732E+01 0.35519744E+03 0.36681896E+03 0.91188000E+02 0.0000E+00 0.9000E+01
       21  1    1    2  502  501 -.34144581E+02 0.14427466E+02 0.56688831E+02 0.67736181E+02 0.75000000E+00 0.0000E+00 0.9000E+01
#aMCatNLO 1  0  0  2  2 0.15785797D+02 0.00000000D+00  -5  6  0 0.00000000D+00 0.00000000D+00 0.00000000D+00 0.00000000D+00 0.00000000D+00
  <mgrwgt>
 -.2023331774D-01    7    4    0
 0.141014518259379D+03 0.000000000000000D+00 0.000000000000000D+00 0.141014518259379D+03
 0.141014518259379D+03 0.000000000000000D+00 0.000000000000000D+00 -.141014518259379D+03
 0.138033757680589D+03 0.420221878717598D+02 -.107340172104269D+02 0.393349063863182D+02
 0.916321451011818D+02 -.787475466611239D+01 -.369465408444643D+01 -.235296451075020D+01
 0.523631337369866D+02 -.341474332056474D+02 0.144286712948734D+02 -.369819418755680D+02
 0.000000000000000D+00 0.000000000000000D+00 -.000000000000000D+00 -.000000000000000D+00
 0.143489977486710D+03 0.000000000000000D+00 0.000000000000000D+00 0.143489977486710D+03
 0.168864956994340D+03 0.000000000000000D+00 0.000000000000000D+00 -.168864956994340D+03
 0.136429868553408D+03 0.377042986677058D+02 -.438862564549346D+01 0.393349063863182D+02
 0.918525674918381D+02 -.107613545062635D+02 0.547373770236826D+00 -.235296451075020D+01
 0.541880381966976D+02 -.358237068936570D+02 0.168920538454098D+02 -.369819418755680D+02
 0.298844602391062D+02 0.888076273221470D+01 -.130508019701531D+02 -.253749795076306D+02
 0.141014518259379D+03 0.000000000000000D+00 0.000000000000000D+00 0.141014518259379D+03
 0.141014518259379D+03 0.000000000000000D+00 0.000000000000000D+00 -.141014518259379D+03
 0.138033757680589D+03 0.420221878717598D+02 -.107340172104269D+02 0.393349063863182D+02
 0.916321451011818D+02 -.787475466611239D+01 -.369465408444643D+01 -.235296451075020D+01
 0.000000000000000D+00 0.000000000000000D+00 -.000000000000000D+00 -.000000000000000D+00
 0.523631337369866D+02 -.341474332056474D+02 0.144286712948734D+02 -.369819418755680D+02
 0.143489977486710D+03 0.000000000000000D+00 0.000000000000000D+00 0.143489977486710D+03
 0.168864956994340D+03 0.000000000000000D+00 0.000000000000000D+00 -.168864956994340D+03
 0.136429868553408D+03 0.377042986677058D+02 -.438862564549346D+01 0.393349063863182D+02
 0.918525674918381D+02 -.107613545062635D+02 0.547373770236826D+00 -.235296451075020D+01
 0.298844602391062D+02 0.888076273221470D+01 -.130508019701531D+02 -.253749795076306D+02
 0.541880381966976D+02 -.358237068936570D+02 0.168920538454098D+02 -.369819418755680D+02
0.266295396095D-05 0.000000000000D+00 0.000000000000D+00 0.116355848568D-04 0.000000000000D+00  6 2 -2 25 23 21 21 2 0.17544977D+00 0.26825519D-02 0.17028051D+05 0.17028051D+05 0.17028051D+05 0.12415925D+01  1  2  2  2  6  2       -2 0.428727838383D-02 0.100000000000D+01
0.102995867669D-06 0.140527941307D-06 -.102264443819D-07 0.116355848568D-04 0.000000000000D+00  6 2 -2 25 23 21 21 4 0.17544977D+00 0.26825519D-02 0.17028051D+05 0.17028051D+05 0.17028051D+05 0.12415925D+01  1  2  3  2  6  2       -2 0.255620696565D-03 0.100000000000D+01
0.140015110252D-06 0.000000000000D+00 0.000000000000D+00 0.116355848568D-04 0.000000000000D+00  6 2 -2 25 23 21 21 4 0.17544977D+00 0.26825519D-02 0.17028051D+05 0.17028051D+05 0.17028051D+05 0.12415925D+01  1  2 15  2  6  2       -2 0.347497048397D-03 0.100000000000D+01
-.662822949212D-05 0.000000000000D+00 0.000000000000D+00 0.116355848568D-04 0.000000000000D+00  6 2 -2 25 23 21 21 4 0.17544977D+00 0.26825519D-02 0.17028051D+05 0.17028051D+05 0.17028051D+05 0.12415925D+01  1  2  4  2  6  2       -2 -.164502972606D-01 0.100000000000D+01
-.267243543165D-04 0.000000000000D+00 -.330853293454D-05 0.116355848568D-04 0.000000000000D+00  6 2 -2 25 23 21 21 4 0.17544977D+00 0.32690118D-02 0.17028051D+05 0.17028051D+05 0.17028051D+05 0.12415925D+01  1  2  5  2  6  2       -2 -.496204685398D-01 0.100000000000D+01
0.269143520942D-04 0.000000000000D+00 0.324489980383D-05 0.116355848568D-04 0.000000000000D+00  6 2 -2 25 23 21 21 4 0.17544977D+00 0.26825519D-02 0.17028051D+05 0.17028051D+05 0.17028051D+05 0.12415925D+01  1  2  6  2  6  2       -2 0.667974898956D-01 0.100000000000D+01
-.720702748960D-06 0.000000000000D+00 -.938495635605D-07 0.116355848568D-04 0.000000000000D+00  6 2 21 25 23 2 21 4 0.17544977D+00 0.32690118D-02 0.17028051D+05 0.17028051D+05 0.17028051D+05 0.12415925D+01  3  4  5  5  5  2       -2 -.258504379598D-01 0.100000000000D+01
  </mgrwgt>
  </event>
  <event>
  5     66 -.57005756E-03 0.28839257E+02 0.75467711E-02 0.11511976E+00
        2 -1    0    0  502    0 0.00000000E+00 0.00000000E+00 0.32842489E+03 0.32842505E+03 0.32000000E+00 0.0000E+00 0.9000E+01
       -2 -1    0    0    0  501 0.00000000E+00 0.00000000E+00 -.12299826E+03 0.12299868E+03 0.32000000E+00 0.0000E+00 0.9000E+01
       25  1    1    2    0    0 0.10303204E+03 0.84326809E+02 0.12162538E+03 0.21941820E+03 0.12500000E+03 0.0000E+00 0.9000E+01
       23  1    1    2    0    0 -.12436776E+03 -.10371895E+03 0.81917335E+02 0.20310259E+03 0.91188000E+02 0.0000E+00 0.9000E+01
       21  1    1    2  502  501 0.21335718E+02 0.19392144E+02 0.18839194E+01 0.28902936E+02 0.75000000E+00 0.0000E+00 0.9000E+01
#aMCatNLO 1  0  0  5  1 0.28015380D+01 0.00000000D+00  -5  6  0 0.00000000D+00 0.00000000D+00 0.00000000D+00 0.00000000D+00 0.00000000D+00
  <mgrwgt>
 -.4502975656D+00   25    2    0
 0.200987111695323D+03 0.000000000000000D+00 0.000000000000000D+00 0.200987111695323D+03
 0.200987111695323D+03 -.000000000000000D+00 -.000000000000000D+00 -.200987111695323D+03
 0.184251833754444D+03 0.103029268612150D+03 0.843242874376627D+02 0.244565451209089D+02
 0.186227378306314D+03 -.124370563945247D+03 -.103721500693474D+03 -.117982288788555D+02
 0.314950113298874D+02 0.213412953330978D+02 0.193972132558109D+02 -.126583162420534D+02
 0.000000000000000D+00 0.000000000000000D+00 0.000000000000000D+00 -.000000000000000D+00
 0.200987111695323D+03 0.000000000000000D+00 0.000000000000000D+00 0.200987111695323D+03
 0.200987111695323D+03 -.000000000000000D+00 -.000000000000000D+00 -.200987111695323D+03
 0.184491819937079D+03 0.103296689422468D+03 0.845673475896271D+02 0.242979278892050D+02
 0.185920824726612D+03 -.124100674082691D+03 -.103476196407212D+03 -.119583105973005D+02
 0.591100376818242D+01 0.400326156304420D+01 0.432764612458650D+01 0.430512979677844D+00
 0.256505749587716D+02 0.168007230971790D+02 0.145812026929981D+02 -.127701302715823D+02
0.250619661367D-03 0.000000000000D+00 0.000000000000D+00 0.109261629664D-04 0.000000000000D+00  6 2 -2 25 23 21 21 2 0.50526950D-01 0.18922853D-01 0.39464611D+05 0.39464611D+05 0.39464611D+05 0.12025950D+01  1  2  2  3  6  5       21 0.820306892649D-01 0.100000000000D+01
0.611890155122D-04 0.132255628822D-04 -.962445489322D-06 0.109261629664D-04 0.000000000000D+00  6 2 -2 25 23 21 21 4 0.50526950D-01 0.18922853D-01 0.39464611D+05 0.39464611D+05 0.39464611D+05 0.12025950D+01  1  2  3  3  6  5       21 0.289649961233D-01 0.100000000000D+01
0.195310259718D-05 0.000000000000D+00 0.000000000000D+00 0.109261629664D-04 0.000000000000D+00  6 2 -2 25 23 21 21 4 0.50526950D-01 0.18922853D-01 0.39464611D+05 0.39464611D+05 0.39464611D+05 0.12025950D+01  1  2 15  3  6  5       21 0.924538639528D-03 0.100000000000D+01
0.585914784815D-06 0.000000000000D+00 0.000000000000D+00 0.109292061331D-04 0.000000000000D+00  6 2 -2 25 23 21 21 4 0.50526950D-01 0.18922853D-01 0.39315303D+05 0.39315303D+05 0.39315303D+05 0.12027625D+01  1  2 12  3  6  5       21 0.277492656142D-03 0.100000000000D+01
0.579081912995D-06 0.000000000000D+00 0.000000000000D+00 0.109292061331D-04 0.000000000000D+00  6 2 -2 25 23 21 21 4 0.50526950D-01 0.18922853D-01 0.39315303D+05 0.39315303D+05 0.39315303D+05 0.12027625D+01  1  2 12  3  6  5       21 0.274256568234D-03 0.100000000000D+01
-.233511959390D-02 0.000000000000D+00 0.000000000000D+00 0.109261629664D-04 0.000000000000D+00  6 2 -2 25 23 21 21 4 0.50526950D-01 0.18922853D-01 0.39464611D+05 0.39464611D+05 0.39464611D+05 0.12025950D+01  1  2  4  3  6  5       21 -.110537372466D+01 0.100000000000D+01
-.106462368666D-03 0.000000000000D+00 0.000000000000D+00 0.109261629664D-04 0.000000000000D+00  6 2 -2 25 23 21 21 4 0.50526950D-01 0.18922853D-01 0.39464611D+05 0.39464611D+05 0.39464611D+05 0.12025950D+01  1  2  5  3  6  5       21 -.503960076799D-01 0.100000000000D+01
0.113929630090D-02 0.000000000000D+00 -.000000000000D+00 0.109261629664D-04 0.000000000000D+00  6 2 -2 25 23 21 21 4 0.50526950D-01 0.18922853D-01 0.39464611D+05 0.39464611D+05 0.39464611D+05 0.12025950D+01  1  2  6  3  6  5       21 0.539307793444D+00 0.100000000000D+01
0.123596004073D-03 0.000000000000D+00 0.000000000000D+00 0.109261629664D-04 0.994462113420D-05  6 2 -2 25 23 21 21 4 0.50526950D-01 0.18922853D-01 0.39315303D+05 0.39315303D+05 0.39315303D+05 0.12027625D+01  1  2 11  3  6  5       21 0.585357877078D-01 0.100000000000D+01
0.150005983072D-06 0.000000000000D+00 0.000000000000D+00 0.109292061331D-04 0.000000000000D+00  6 2 -2 25 23 1 -1 4 0.50526950D-01 0.18922853D-01 0.39315303D+05 0.39315303D+05 0.39315303D+05 0.12027625D+01  1  2 12  6  6  5       21 0.710437076492D-04 0.100000000000D+01
0.150005983072D-06 0.000000000000D+00 0.000000000000D+00 0.109292061331D-04 0.000000000000D+00  6 2 -2 25 23 3 -3 4 0.50526950D-01 0.18922853D-01 0.39315303D+05 0.39315303D+05 0.39315303D+05 0.12027625D+01  1  2 12  6  6  5       21 0.710437076492D-04 0.100000000000D+01
0.149038369784D-06 0.000000000000D+00 0.000000000000D+00 0.109292061331D-04 0.000000000000D+00  6 2 -2 25 23 1 -1 4 0.50526950D-01 0.18922853D-01 0.39315303D+05 0.39315303D+05 0.39315303D+05 0.12027625D+01  1  2 12  6  6  5       21 0.705854403579D-04 0.100000000000D+01
0.149038369784D-06 0.000000000000D+00 0.000000000000D+00 0.109292061331D-04 0.000000000000D+00  6 2 -2 25 23 3 -3 4 0.50526950D-01 0.18922853D-01 0.39315303D+05 0.39315303D+05 0.39315303D+05 0.12027625D+01  1  2 12  6  6  5       21 0.705854403579D-04 0.100000000000D+01
-.165857377018D-04 0.000000000000D+00 0.000000000000D+00 0.109261629664D-04 0.000000000000D+00  6 2 -2 25 23 1 -1 4 0.50526950D-01 0.18922853D-01 0.39464611D+05 0.39464611D+05 0.39464611D+05 0.12025950D+01  1  2  5  6  6  5       21 -.785117760459D-02 0.100000000000D+01
-.165857377018D-04 0.000000000000D+00 0.000000000000D+00 0.109261629664D-04 0.000000000000D+00  6 2 -2 25 23 3 -3 4 0.50526950D-01 0.18922853D-01 0.39464611D+05 0.39464611D+05 0.39464611D+05 0.12025950D+01  1  2  5  6  6  5       21 -.785117760459D-02 0.100000000000D+01
0.137641388155D-04 0.000000000000D+00 0.000000000000D+00 0.109261629664D-04 0.102188770917D-06  6 2 -2 25 23 1 -1 4 0.50526950D-01 0.18922853D-01 0.39315303D+05 0.39315303D+05 0.39315303D+05 0.12027625D+01  1  2 11  6  6  5       21 0.651877634495D-02 0.100000000000D+01
0.137641388155D-04 0.000000000000D+00 0.000000000000D+00 0.109261629664D-04 0.102188770917D-06  6 2 -2 25 23 3 -3 4 0.50526950D-01 0.18922853D-01 0.39315303D+05 0.39315303D+05 0.39315303D+05 0.12027625D+01  1  2 11  6  6  5       21 0.651877634495D-02 0.100000000000D+01
0.150005983072D-06 0.000000000000D+00 0.000000000000D+00 0.109292061331D-04 0.000000000000D+00  6 2 -2 25 23 2 -2 4 0.50526950D-01 0.18922853D-01 0.39315303D+05 0.39315303D+05 0.39315303D+05 0.12027625D+01  1  2 12  7  6  5       21 0.710437076492D-04 0.100000000000D+01
0.149038369784D-06 0.000000000000D+00 0.000000000000D+00 0.109292061331D-04 0.000000000000D+00  6 2 -2 25 23 2 -2 4 0.50526950D-01 0.18922853D-01 0.39315303D+05 0.39315303D+05 0.39315303D+05 0.12027625D+01  1  2 12  7  6  5       21 0.705854403579D-04 0.100000000000D+01
-.165857377018D-04 0.000000000000D+00 0.000000000000D+00 0.109261629664D-04 0.000000000000D+00  6 2 -2 25 23 2 -2 4 0.50526950D-01 0.18922853D-01 0.39464611D+05 0.39464611D+05 0.39464611D+05 0.12025950D+01  1  2  5  7  6  5       21 -.785117760459D-02 0.100000000000D+01
0.135968665777D-04 0.000000000000D+00 0.000000000000D+00 0.109261629664D-04 0.101435184928D-06  6 2 -2 25 23 2 -2 4 0.50526950D-01 0.18922853D-01 0.39315303D+05 0.39315303D+05 0.39315303D+05 0.12027625D+01  1  2 11  7  6  5       21 0.643955523847D-02 0.100000000000D+01
0.150005983072D-06 0.000000000000D+00 0.000000000000D+00 0.109292061331D-04 0.000000000000D+00  6 2 -2 25 23 4 -4 4 0.50526950D-01 0.18922853D-01 0.39315303D+05 0.39315303D+05 0.39315303D+05 0.12027625D+01  1  2 12  8  6  5       21 0.710437076492D-04 0.100000000000D+01
0.149038369784D-06 0.000000000000D+00 0.000000000000D+00 0.109292061331D-04 0.000000000000D+00  6 2 -2 25 23 4 -4 4 0.50526950D-01 0.18922853D-01 0.39315303D+05 0.39315303D+05 0.39315303D+05 0.12027625D+01  1  2 12  8  6  5       21 0.705854403579D-04 0.100000000000D+01
-.165857377018D-04 0.000000000000D+00 0.000000000000D+00 0.109261629664D-04 0.000000000000D+00  6 2 -2 25 23 4 -4 4 0.50526950D-01 0.18922853D-01 0.39464611D+05 0.39464611D+05 0.39464611D+05 0.12025950D+01  1  2  5  8  6  5       21 -.785117760459D-02 0.100000000000D+01
0.137618624245D-04 0.000000000000D+00 0.000000000000D+00 0.109261629664D-04 0.102171870362D-06  6 2 -2 25 23 4 -4 4 0.50526950D-01 0.18922853D-01 0.39315303D+05 0.39315303D+05 0.39315303D+05 0.12027625D+01  1  2 11  8  6  5       21 0.651769823294D-02 0.100000000000D+01
  </mgrwgt>
  </event>
  <event>
  5     66 0.57005756E-03 0.20525045E+02 0.75467711E-02 0.11654018E+00
        2 -1    0    0  502    0 0.00000000E+00 0.00000000E+00 0.14299420E+03 0.14299456E+03 0.32000000E+00 0.0000E+00 0.9000E+01
       -2 -1    0    0    0  501 0.00000000E+00 0.00000000E+00 -.22145598E+03 0.22145622E+03 0.32000000E+00 0.0000E+00 0.9000E+01
       25  1    1    2    0    0 -.68516737E+02 -.71209336E+02 0.27208145E+02 0.16164961E+03 0.12500000E+03 0.0000E+00 0.9000E+01
       23  1    1    2    0    0 0.82487615E+02 0.86228198E+02 -.10298421E+03 0.18210027E+03 0.91188000E+02 0.0000E+00 0.9000E+01
       21  1    1    2  502  501 -.13970878E+02 -.15018862E+02 -.26857210E+01 0.20700900E+02 0.75000000E+00 0.0000E+00 0.9000E+01
#aMCatNLO 1  0  0  1  5 0.45242687D+02 0.00000000D+00  -5  6  0 0.00000000D+00 0.00000000D+00 0.00000000D+00 0.00000000D+00 0.00000000D+00
  <mgrwgt>
 0.1821325244D+00    4    2    0
 0.177952322056449D+03 0.000000000000000D+00 0.000000000000000D+00 0.177952322056449D+03
 0.177952322056449D+03 0.000000000000000D+00 0.000000000000000D+00 -.177952322056449D+03
 0.171525450532991D+03 -.685122724134614D+02 -.712045362340173D+02 0.634977379832366D+02
 0.163774092209201D+03 0.824918773768386D+02 0.862327804746030D+02 -.653123240545864D+02
 0.206051013707070D+02 -.139796049633772D+02 -.150282442405857D+02 0.181458607134976D+01
 0.000000000000000D+00 0.000000000000000D+00 0.000000000000000D+00 -.000000000000000D+00
 0.182080587230115D+03 0.000000000000000D+00 0.000000000000000D+00 0.182080587230115D+03
 0.263230072404531D+03 0.000000000000000D+00 0.000000000000000D+00 -.263230072404531D+03
 0.180059366993918D+03 -.714872998989000D+02 -.874870211312933D+02 0.634977379832366D+02
 0.155097606994941D+03 0.797936605535589D+02 0.714652951691182D+02 -.653123240545864D+02
 0.223288097587363D+02 -.143429015544130D+02 -.170165859569986D+02 0.181458607134976D+01
 0.878248758870505D+02 0.603654089975407D+01 0.330383119191737D+02 -.811494851744163D+02
0.442287311203D-03 0.000000000000D+00 0.000000000000D+00 0.205740985454D-04 0.000000000000D+00  6 2 -2 25 23 21 21 2 0.21999153D-01 0.34070197D-01 0.27233540D+05 0.27233540D+05 0.27233540D+05 0.12193331D+01  1  2  2  1  6  1        2 0.129544418066D+00 0.100000000000D+01
0.137946047714D-03 0.233401426464D-04 -.169849973194D-05 0.205740985454D-04 0.000000000000D+00  6 2 -2 25 23 21 21 4 0.21999153D-01 0.34070197D-01 0.27233540D+05 0.27233540D+05 0.27233540D+05 0.12193331D+01  1  2  3  1  6  1        2 0.600714672384D-01 0.100000000000D+01
0.521437288289D-05 0.000000000000D+00 0.000000000000D+00 0.205740985454D-04 0.000000000000D+00  6 2 -2 25 23 21 21 4 0.21999153D-01 0.34070197D-01 0.27233540D+05 0.27233540D+05 0.27233540D+05 0.12193331D+01  1  2 15  1  6  1        2 0.227070680889D-02 0.100000000000D+01
-.223989050641D-04 0.000000000000D+00 0.000000000000D+00 0.205740985454D-04 0.000000000000D+00  6 2 -2 25 23 21 21 4 0.21999153D-01 0.34070197D-01 0.27233540D+05 0.27233540D+05 0.27233540D+05 0.12193331D+01  1  2  4  1  6  1        2 -.975406772454D-02 0.100000000000D+01
  </mgrwgt>
  </event>
  <event>
  5     66 0.57005756E-03 0.28449164E+02 0.75467711E-02 0.11555985E+00
        2 -1    0    0  502    0 0.00000000E+00 0.00000000E+00 0.75455002E+03 0.75455009E+03 0.32000000E+00 0.0000E+00 0.9000E+01
       -2 -1    0    0    0  501 0.00000000E+00 0.00000000E+00 -.69031035E+02 0.69031777E+02 0.32000000E+00 0.0000E+00 0.9000E+01
       25  1    1    2    0    0 -.92039380E+02 -.59085434E+02 0.24040433E+03 0.29220126E+03 0.12500000E+03 0.0000E+00 0.9000E+01
       23  1    1    2    0    0 0.65797134E+02 0.70070668E+02 0.60393543E+02 0.14560835E+03 0.91188000E+02 0.0000E+00 0.9000E+01
       21  1    1    2  502  501 0.26242245E+02 -.10985234E+02 0.38472111E+03 0.38577225E+03 0.75000000E+00 0.0000E+00 0.9000E+01
#aMCatNLO 1  0  0  5  2 0.43332259D+01 0.00000000D+00  -5  6  0 0.00000000D+00 0.00000000D+00 0.00000000D+00 0.00000000D+00 0.00000000D+00
  <mgrwgt>
 0.5981583019D-01    4    2    0
 0.228227304288416D+03 0.000000000000000D+00 0.000000000000000D+00 0.228227304288416D+03
 0.228227304288416D+03 -.000000000000000D+00 -.000000000000000D+00 -.228227304288416D+03
 0.166172000949047D+03 -.920395717384284D+02 -.590853534569641D+02 -.507662688034211D+01
 0.172020859253613D+03 0.657969354631950D+02 0.700707514619922D+02 -.109712249760704D+03
 0.118261748374174D+03 0.262426362752334D+02 -.109853980050281D+02 0.114788876641046D+03
 0.000000000000000D+00 0.000000000000000D+00 0.000000000000000D+00 -.000000000000000D+00
 0.228227304288416D+03 0.000000000000000D+00 0.000000000000000D+00 0.228227304288416D+03
 0.228227304288416D+03 -.000000000000000D+00 -.000000000000000D+00 -.228227304288416D+03
 0.164994566401889D+03 -.881083292954276D+02 -.607310060673835D+02 0.121191646972573D+02
 0.162450192313306D+03 0.697674050803216D+02 0.684086780119948D+02 -.923448731638073D+02
 0.747034934505372D+02 -.147342628041828D+02 0.327931485311083D+02 0.654837601451566D+02
 0.543063564111006D+02 0.330751870192889D+02 -.404708204757196D+02 0.147419483213933D+02
0.247442132817D-03 0.000000000000D+00 0.000000000000D+00 0.146760666628D-04 0.000000000000D+00  6 2 -2 25 23 21 21 2 0.11608468D+00 0.10620222D-01 0.26738236D+05 0.26738236D+05 0.26738236D+05 0.12201801D+01  1  2  2  3  6  5       21 0.839088412393D-01 0.100000000000D+01
0.383456148934D-04 0.130578800938D-04 -.950242943029D-06 0.146760666628D-04 0.000000000000D+00  6 2 -2 25 23 21 21 4 0.11608468D+00 0.10620222D-01 0.26738236D+05 0.26738236D+05 0.26738236D+05 0.12201801D+01  1  2  3  3  6  5       21 0.193596581297D-01 0.100000000000D+01
0.870799084562D-05 0.000000000000D+00 0.000000000000D+00 0.146760666628D-04 0.000000000000D+00  6 2 -2 25 23 21 21 4 0.11608468D+00 0.10620222D-01 0.26738236D+05 0.26738236D+05 0.26738236D+05 0.12201801D+01  1  2 15  3  6  5       21 0.439642775939D-02 0.100000000000D+01
-.947745581050D-04 0.000000000000D+00 0.000000000000D+00 0.146760666628D-04 0.000000000000D+00  6 2 -2 25 23 21 21 4 0.11608468D+00 0.10620222D-01 0.26738236D+05 0.26738236D+05 0.26738236D+05 0.12201801D+01  1  2  4  3  6  5       21 -.478490969413D-01 0.100000000000D+01
  </mgrwgt>
  </event>
  <event>
  5     66 -.57005756E-03 0.33444267E+02 0.75467711E-02 0.11986030E+00
        2 -1    0    0  502    0 0.00000000E+00 0.00000000E+00 0.43915465E+03 0.43915477E+03 0.32000000E+00 0.0000E+00 0.9000E+01
       -2 -1    0    0    0  501 0.00000000E+00 0.00000000E+00 -.65248953E+02 0.65249737E+02 0.32000000E+00 0.0000E+00 0.9000E+01
       25  1    1    2    0    0 -.60578045E+02 0.37871198E+01 0.25993673E+03 0.29474760E+03 0.12500000E+03 0.0000E+00 0.9000E+01
       23  1    1    2    0    0 0.94004402E+02 -.46577672E+01 0.55539604E+02 0.14233208E+03 0.91188000E+02 0.0000E+00 0.9000E+01
       21  1    1    2  502  501 -.33426356E+02 0.87064742E+00 0.58429361E+02 0.67324825E+02 0.75000000E+00 0.0000E+00 0.9000E+01
#aMCatNLO 1  0  0  5  2 0.26029957D+01 0.00000000D+00  -5  6  0 0.00000000D+00 0.00000000D+00 0.00000000D+00 0.00000000D+00 0.00000000D+00
  <mgrwgt>
 -.5309934451D-01   25    2    0
 0.169276721340363D+03 0.000000000000000D+00 0.000000000000000D+00 0.169276721340363D+03
 0.169276721340363D+03 -.000000000000000D+00 -.000000000000000D+00 -.169276721340363D+03
 0.152057449149493D+03 -.605747451357720D+02 0.378703379006142D+01 0.617480887854833D+02
 0.150721456322106D+03 0.940076729957657D+02 -.465785236947699D+01 -.744484243022100D+02
 0.357745372091272D+02 -.334329278599937D+02 0.870818579415566D+00 0.127003355167266D+02
 0.000000000000000D+00 0.000000000000000D+00 0.000000000000000D+00 0.000000000000000D+00
 0.169276721340363D+03 0.000000000000000D+00 0.000000000000000D+00 0.169276721340363D+03
 0.169276721340363D+03 -.000000000000000D+00 -.000000000000000D+00 -.169276721340363D+03
 0.152154337080314D+03 -.607497089979779D+02 0.379159102724308D+01 0.618145531933456D+02
 0.150580764960456D+03 0.938343825359181D+02 -.465333871896147D+01 -.743825955781709D+02
 0.127115915122417D+02 -.125515054947857D+02 -.567285265923703D-01 0.201023641961066D+01
 0.231067491277148D+02 -.205331680431545D+02 0.918476218310756D+00 0.105578059652146D+02
0.155655695630D-04 0.000000000000D+00 0.000000000000D+00 0.810186027716D-05 0.000000000000D+00  6 2 -2 25 23 21 21 2 0.67562323D-01 0.10038370D-01 0.23020612D+05 0.23020612D+05 0.23020612D+05 0.12271571D+01  1  2  2  3  6  5       21 0.107932030138D-01 0.100000000000D+01
0.179631959863D-05 0.821417673018D-06 -.597758856307D-07 0.810186027716D-05 0.000000000000D+00  6 2 -2 25 23 21 21 4 0.67562323D-01 0.10038370D-01 0.23020612D+05 0.23020612D+05 0.23020612D+05 0.12271571D+01  1  2  3  3  6  5       21 0.187572533056D-02 0.100000000000D+01
0.316984834114D-06 0.000000000000D+00 0.000000000000D+00 0.810186027716D-05 0.000000000000D+00  6 2 -2 25 23 21 21 4 0.67562323D-01 0.10038370D-01 0.23020612D+05 0.23020612D+05 0.23020612D+05 0.12271571D+01  1  2 15  3  6  5       21 0.330997047077D-03 0.100000000000D+01
0.209429557953D-06 0.000000000000D+00 0.000000000000D+00 0.810344455947D-05 0.000000000000D+00  6 2 -2 25 23 21 21 4 0.67562323D-01 0.10038370D-01 0.22961953D+05 0.22961953D+05 0.22961953D+05 0.12272770D+01  1  2 12  3  6  5       21 0.218759037516D-03 0.100000000000D+01
0.209966474219D-06 0.000000000000D+00 0.000000000000D+00 0.810344455947D-05 0.000000000000D+00  6 2 -2 25 23 21 21 4 0.67562323D-01 0.10038370D-01 0.22961953D+05 0.22961953D+05 0.22961953D+05 0.12272770D+01  1  2 12  3  6  5       21 0.219319871845D-03 0.100000000000D+01
-.315754912761D-03 0.000000000000D+00 0.000000000000D+00 0.810186027716D-05 0.000000000000D+00  6 2 -2 25 23 21 21 4 0.67562323D-01 0.10038370D-01 0.23020612D+05 0.23020612D+05 0.23020612D+05 0.12271571D+01  1  2  4  3  6  5       21 -.329712757445D+00 0.100000000000D+01
-.660817929117D-04 0.000000000000D+00 0.000000000000D+00 0.810186027716D-05 0.000000000000D+00  6 2 -2 25 23 21 21 4 0.67562323D-01 0.10038370D-01 0.23020612D+05 0.23020612D+05 0.23020612D+05 0.12271571D+01  1  2  5  3  6  5       21 -.690029173808D-01 0.100000000000D+01
0.249541019017D-03 0.000000000000D+00 -.000000000000D+00 0.810186027716D-05 0.000000000000D+00  6 2 -2 25 23 21 21 4 0.67562323D-01 0.10038370D-01 0.23020612D+05 0.23020612D+05 0.23020612D+05 0.12271571D+01  1  2  6  3  6  5       21 0.260571899757D+00 0.100000000000D+01
0.693965474306D-04 0.000000000000D+00 0.000000000000D+00 0.810186027716D-05 0.730080658496D-05  6 2 -2 25 23 21 21 4 0.67562323D-01 0.10038370D-01 0.22961953D+05 0.22961953D+05 0.22961953D+05 0.12272770D+01  1  2 11  3  6  5       21 0.724879624025D-01 0.100000000000D+01
0.939003187201D-08 0.000000000000D+00 0.000000000000D+00 0.810344455947D-05 0.000000000000D+00  6 2 -2 25 23 1 -1 4 0.67562323D-01 0.10038370D-01 0.22961953D+05 0.22961953D+05 0.22961953D+05 0.12272770D+01  1  2 12  6  6  5       21 0.980833056540D-05 0.100000000000D+01
0.939003187201D-08 0.000000000000D+00 0.000000000000D+00 0.810344455947D-05 0.000000000000D+00  6 2 -2 25 23 3 -3 4 0.67562323D-01 0.10038370D-01 0.22961953D+05 0.22961953D+05 0.22961953D+05 0.12272770D+01  1  2 12  6  6  5       21 0.980833056540D-05 0.100000000000D+01
0.941594425869D-08 0.000000000000D+00 0.000000000000D+00 0.810344455947D-05 0.000000000000D+00  6 2 -2 25 23 1 -1 4 0.67562323D-01 0.10038370D-01 0.22961953D+05 0.22961953D+05 0.22961953D+05 0.12272770D+01  1  2 12  6  6  5       21 0.983539727377D-05 0.100000000000D+01
0.941594425869D-08 0.000000000000D+00 0.000000000000D+00 0.810344455947D-05 0.000000000000D+00  6 2 -2 25 23 3 -3 4 0.67562323D-01 0.10038370D-01 0.22961953D+05 0.22961953D+05 0.22961953D+05 0.12272770D+01  1  2 12  6  6  5       21 0.983539727377D-05 0.100000000000D+01
-.954239240650D-06 0.000000000000D+00 0.000000000000D+00 0.810186027716D-05 0.000000000000D+00  6 2 -2 25 23 1 -1 4 0.67562323D-01 0.10038370D-01 0.23020612D+05 0.23020612D+05 0.23020612D+05 0.12271571D+01  1  2  5  6  6  5       21 -.996421080343D-03 0.100000000000D+01
-.954239240650D-06 0.000000000000D+00 0.000000000000D+00 0.810186027716D-05 0.000000000000D+00  6 2 -2 25 23 3 -3 4 0.67562323D-01 0.10038370D-01 0.23020612D+05 0.23020612D+05 0.23020612D+05 0.12271571D+01  1  2  5  6  6  5       21 -.996421080343D-03 0.100000000000D+01
0.721127890161D-06 0.000000000000D+00 0.000000000000D+00 0.810186027716D-05 0.344885900848D-07  6 2 -2 25 23 1 -1 4 0.67562323D-01 0.10038370D-01 0.22961953D+05 0.22961953D+05 0.22961953D+05 0.12272770D+01  1  2 11  6  6  5       21 0.753252046749D-03 0.100000000000D+01
0.721127890161D-06 0.000000000000D+00 0.000000000000D+00 0.810186027716D-05 0.344885900848D-07  6 2 -2 25 23 3 -3 4 0.67562323D-01 0.10038370D-01 0.22961953D+05 0.22961953D+05 0.22961953D+05 0.12272770D+01  1  2 11  6  6  5       21 0.753252046749D-03 0.100000000000D+01
0.939003187201D-08 0.000000000000D+00 0.000000000000D+00 0.810344455947D-05 0.000000000000D+00  6 2 -2 25 23 2 -2 4 0.67562323D-01 0.10038370D-01 0.22961953D+05 0.22961953D+05 0.22961953D+05 0.12272770D+01  1  2 12  7  6  5       21 0.980833056540D-05 0.100000000000D+01
0.941594425869D-08 0.000000000000D+00 0.000000000000D+00 0.810344455947D-05 0.000000000000D+00  6 2 -2 25 23 2 -2 4 0.67562323D-01 0.10038370D-01 0.22961953D+05 0.22961953D+05 0.22961953D+05 0.12272770D+01  1  2 12  7  6  5       21 0.983539727377D-05 0.100000000000D+01
-.954239240650D-06 0.000000000000D+00 0.000000000000D+00 0.810186027716D-05 0.000000000000D+00  6 2 -2 25 23 2 -2 4 0.67562323D-01 0.10038370D-01 0.23020612D+05 0.23020612D+05 0.23020612D+05 0.12271571D+01  1  2  5  7  6  5       21 -.996421080343D-03 0.100000000000D+01
0.733304102800D-06 0.000000000000D+00 0.000000000000D+00 0.810186027716D-05 0.351015616529D-07  6 2 -2 25 23 2 -2 4 0.67562323D-01 0.10038370D-01 0.22961953D+05 0.22961953D+05 0.22961953D+05 0.12272770D+01  1  2 11  7  6  5       21 0.765970674355D-03 0.100000000000D+01
0.939003187201D-08 0.000000000000D+00 0.000000000000D+00 0.810344455947D-05 0.000000000000D+00  6 2 -2 25 23 4 -4 4 0.67562323D-01 0.10038370D-01 0.22961953D+05 0.22961953D+05 0.22961953D+05 0.12272770D+01  1  2 12  8  6  5       21 0.980833056540D-05 0.100000000000D+01
0.941594425869D-08 0.000000000000D+00 0.000000000000D+00 0.810344455947D-05 0.000000000000D+00  6 2 -2 25 23 4 -4 4 0.67562323D-01 0.10038370D-01 0.22961953D+05 0.22961953D+05 0.22961953D+05 0.12272770D+01  1  2 12  8  6  5       21 0.983539727377D-05 0.100000000000D+01
-.954239240650D-06 0.000000000000D+00 0.000000000000D+00 0.810186027716D-05 0.000000000000D+00  6 2 -2 25 23 4 -4 4 0.67562323D-01 0.10038370D-01 0.23020612D+05 0.23020612D+05 0.23020612D+05 0.12271571D+01  1  2  5  8  6  5       21 -.996421080343D-03 0.100000000000D+01
0.720980886706D-06 0.000000000000D+00 0.000000000000D+00 0.810186027716D-05 0.344815595123D-07  6 2 -2 25 23 4 -4 4 0.67562323D-01 0.10038370D-01 0.22961953D+05 0.22961953D+05 0.22961953D+05 0.12272770D+01  1  2 11  8  6  5       21 0.753098494715D-03 0.100000000000D+01
  </mgrwgt>
  </event>
  <event>
  6     66 0.57005756E-03 0.70021478E+02 0.75467711E-02 0.10679725E+00
        2 -1    0    0  502    0 0.00000000E+00 0.00000000E+00 0.39945023E+03 0.39945036E+03 0.32000000E+00 0.0000E+00 0.9000E+01
       -2 -1    0    0    0  503 0.00000000E+00 0.00000000E+00 -.34870139E+03 0.34870153E+03 0.32000000E+00 0.0000E+00 0.9000E+01
       25  1    1    2    0    0 -.77270525E+02 -.23605112E+03 0.12023722E+02 0.27831715E+03 0.12500000E+03 0.0000E+00 0.9000E+01
       23  1    1    2    0    0 0.16290360E+03 0.24487452E+03 0.13021554E+03 0.33432387E+03 0.91188000E+02 0.0000E+00 0.9000E+01
       21  1    1    2  502  501 -.74764055E+02 -.14654709E+02 -.47423088E+02 0.89743725E+02 0.75000000E+00 0.0000E+00 0.9000E+01
       21  1    1    2  501  503 -.10869019E+02 0.58313083E+01 -.44067327E+02 0.45767145E+02 0.75000000E+00 0.0000E+00 0.9000E+01
#aMCatNLO 2  0  0  2  5 0.12334494D+02 0.00000000D+00  -5  6  0 0.00000000D+00 0.00000000D+00 0.00000000D+00 0.00000000D+00 0.00000000D+00
  <mgrwgt>
 0.2811185577D+00    2    2    0
 0.347923155509359D+03 0.000000000000000D+00 0.000000000000000D+00 0.347923155509359D+03
 0.347923155509359D+03 0.000000000000000D+00 0.000000000000000D+00 -.347923155509359D+03
 0.278522313656769D+03 -.816254567589786D+02 -.233714028724403D+03 -.257821021450342D+02
 0.319230535199047D+03 0.157915238910243D+03 0.247551548709960D+03 0.858713649052531D+02
 0.980934621629019D+02 -.762897821512643D+02 -.138375199855566D+02 -.600892627602189D+02
 0.000000000000000D+00 -.000000000000000D+00 0.000000000000000D+00 -.000000000000000D+00
 0.348717091904144D+03 0.000000000000000D+00 0.000000000000000D+00 0.348717091904144D+03
 0.399426376492998D+03 0.000000000000000D+00 0.000000000000000D+00 -.399426376492998D+03
 0.279249651797785D+03 -.772696400639856D+02 -.236050956283912D+03 -.257821021450342D+02
 0.319672773440042D+03 0.162904635779604D+03 0.244874700746467D+03 0.858713649052531D+02
 0.970331971183946D+02 -.747659767024856D+02 -.146550527694029D+02 -.600892627602189D+02
 0.521878460409202D+02 -.108690190131329D+02 0.583130830684841D+01 -.507092845888544D+02
-.168339789660D-01 0.000000000000D+00 0.000000000000D+00 0.119852980912D-05 0.000000000000D+00  6 2 -2 25 23 21 21 4 0.61313516D-01 0.54661553D-01 0.11373874D+06 0.11373874D+06 0.11373874D+06 0.11584705D+01  1  2 13  2  6  2       -2 -.782021842585D+00 0.100000000000D+01
0.220804637584D-01 0.000000000000D+00 0.000000000000D+00 0.120150498939D-05 0.422803027227D-07  6 2 -2 25 23 21 21 4 0.61453429D-01 0.53645975D-01 0.11373874D+06 0.11373874D+06 0.11373874D+06 0.11584705D+01  1  2  1  2  6  2       -2 0.106314040024D+01 0.100000000000D+01
  </mgrwgt>
  </event>
  <event>
  5     66 0.57005756E-03 0.36558121E+02 0.75467711E-02 0.12006975E+00
        2 -1    0    0  502    0 0.00000000E+00 0.00000000E+00 0.13791454E+04 0.13791455E+04 0.32000000E+00 0.0000E+00 0.9000E+01
       -2 -1    0    0    0  501 0.00000000E+00 0.00000000E+00 -.20443976E+02 0.20446480E+02 0.32000000E+00 0.0000E+00 0.9000E+01
       25  1    1    2    0    0 -.42125053E+02 0.44877690E+02 0.93535169E+03 0.94567241E+03 0.12500000E+03 0.0000E+00 0.9000E+01
       23  1    1    2    0    0 0.68958065E+02 -.20058094E+02 0.23556840E+03 0.26261238E+03 0.91188000E+02 0.0000E+00 0.9000E+01
       21  1    1    2  502  501 -.26833012E+02 -.24819595E+02 0.18778135E+03 0.19130713E+03 0.75000000E+00 0.0000E+00 0.9000E+01
#aMCatNLO 1  0  0  1  5 0.77350561D+01 0.00000000D+00  -5  6  0 0.00000000D+00 0.00000000D+00 0.00000000D+00 0.00000000D+00 0.00000000D+00
  <mgrwgt>
 0.1107253372D+00   11    4    0
 0.167919606949479D+03 0.000000000000000D+00 0.000000000000000D+00 0.167919606949479D+03
 0.167919606949479D+03 0.000000000000000D+00 0.000000000000000D+00 -.167919606949479D+03
 0.156895510451829D+03 -.421225529764019D+02 0.448800025726829D+02 0.721295854678668D+02
 0.141387475171293D+03 0.689603184998212D+02 -.200560103649126D+02 -.807304014108610D+02
 0.375562282758364D+02 -.268377655234193D+02 -.248239922077703D+02 0.860081594299418D+01
 0.000000000000000D+00 0.000000000000000D+00 0.000000000000000D+00 0.000000000000000D+00
 0.219582910554483D+03 0.000000000000000D+00 0.000000000000000D+00 0.219582910554483D+03
 0.168253913452373D+03 0.000000000000000D+00 0.000000000000000D+00 -.168253913452373D+03
 0.156981757121802D+03 -.448343772373803D+02 0.424908647478313D+02 0.721295854678668D+02
 0.140538573108520D+03 0.665245451052168D+02 -.222019452743219D+02 -.807304014108610D+02
 0.384079488490789D+02 -.274940777823002D+02 -.254022083057561D+02 0.860081594299418D+01
 0.519085449274554D+02 0.580390991446370D+01 0.511328883224671D+01 0.513289971021104D+02
 0.167919606949479D+03 0.000000000000000D+00 0.000000000000000D+00 0.167919606949479D+03
 0.167919606949479D+03 0.000000000000000D+00 0.000000000000000D+00 -.167919606949479D+03
 0.156895510451829D+03 -.421225529764019D+02 0.448800025726829D+02 0.721295854678668D+02
 0.141387475171293D+03 0.689603184998212D+02 -.200560103649126D+02 -.807304014108610D+02
 0.000000000000000D+00 0.000000000000000D+00 0.000000000000000D+00 0.000000000000000D+00
 0.375562282758364D+02 -.268377655234193D+02 -.248239922077703D+02 0.860081594299418D+01
 0.219582910554483D+03 0.000000000000000D+00 0.000000000000000D+00 0.219582910554483D+03
 0.168253913452373D+03 0.000000000000000D+00 0.000000000000000D+00 -.168253913452373D+03
 0.156981757121802D+03 -.448343772373803D+02 0.424908647478313D+02 0.721295854678668D+02
 0.140538573108520D+03 0.665245451052168D+02 -.222019452743219D+02 -.807304014108610D+02
 0.519085449274554D+02 0.580390991446370D+01 0.511328883224671D+01 0.513289971021104D+02
 0.384079488490789D+02 -.274940777823002D+02 -.254022083057561D+02 0.860081594299418D+01
0.637239643183D-05 0.000000000000D+00 0.000000000000D+00 0.654409681478D-05 0.000000000000D+00  6 2 -2 25 23 21 21 2 0.21217641D+00 0.31454226D-02 0.21310728D+05 0.21310728D+05 0.21310728D+05 0.12308025D+01  1  2  2  1  6  1        2 0.594001374447D-02 0.100000000000D+01
0.543820382083D-06 0.336280598495D-06 -.244716801887D-07 0.654409681478D-05 0.000000000000D+00  6 2 -2 25 23 21 21 4 0.21217641D+00 0.31454226D-02 0.21310728D+05 0.21310728D+05 0.21310728D+05 0.12308025D+01  1  2  3  1  6  1        2 0.767921620399D-03 0.100000000000D+01
0.169256445588D-06 0.000000000000D+00 0.000000000000D+00 0.654409681478D-05 0.000000000000D+00  6 2 -2 25 23 21 21 4 0.21217641D+00 0.31454226D-02 0.21310728D+05 0.21310728D+05 0.21310728D+05 0.12308025D+01  1  2 15  1  6  1        2 0.239004804235D-03 0.100000000000D+01
0.406753029616D-03 0.000000000000D+00 0.000000000000D+00 0.651803097170D-05 0.000000000000D+00  6 2 -2 25 23 21 21 4 0.28013192D+00 0.31454226D-02 0.22445274D+05 0.22445274D+05 0.22445274D+05 0.12283489D+01  1  2 12  1  6  1        2 0.336222663672D+00 0.100000000000D+01
-.327479976117D-03 0.000000000000D+00 0.000000000000D+00 0.654409681478D-05 0.000000000000D+00  6 2 -2 25 23 21 21 4 0.21217641D+00 0.31454226D-02 0.21310728D+05 0.21310728D+05 0.21310728D+05 0.12308025D+01  1  2  4  1  6  1        2 -.462430173994D+00 0.100000000000D+01
-.438047861798D-03 0.000000000000D+00 -.622580893142D-05 0.654409681478D-05 0.000000000000D+00  6 2 -2 25 23 21 21 4 0.27763077D+00 0.31454226D-02 0.21310728D+05 0.21310728D+05 0.21310728D+05 0.12308025D+01  1  2  5  1  6  1        2 -.371983719021D+00 0.100000000000D+01
0.424503257647D-03 0.000000000000D+00 0.600735216322D-05 0.654409681478D-05 0.000000000000D+00  6 2 -2 25 23 21 21 4 0.21217641D+00 0.31454226D-02 0.21310728D+05 0.21310728D+05 0.21310728D+05 0.12308025D+01  1  2  6  1  6  1        2 0.599435475788D+00 0.100000000000D+01
0.346668579213D-05 0.000000000000D+00 0.000000000000D+00 0.654409681478D-05 0.393009201630D-06  6 2 -2 25 23 21 21 4 0.27745607D+00 0.31516847D-02 0.22445274D+05 0.22445274D+05 0.22445274D+05 0.12283489D+01  1  2 11  1  6  1        2 0.291646143828D-02 0.100000000000D+01
0.148725822363D-04 0.000000000000D+00 0.000000000000D+00 0.651803097170D-05 0.000000000000D+00  6 21 -2 25 23 -2 21 4 0.28013192D+00 0.31454226D-02 0.22445274D+05 0.22445274D+05 0.22445274D+05 0.12283489D+01  3  4 12  4  5  1        2 0.474201509279D-02 0.100000000000D+01
-.155209239897D-04 0.000000000000D+00 -.222261824807D-06 0.654409681478D-05 0.000000000000D+00  6 21 -2 25 23 -2 21 4 0.27763077D+00 0.31454226D-02 0.21310728D+05 0.21310728D+05 0.21310728D+05 0.12308025D+01  3  4  5  4  5  1        2 -.517165911758D-02 0.100000000000D+01
0.143768242842D-06 0.000000000000D+00 0.000000000000D+00 0.654409681478D-05 0.325772965358D-07  6 21 -2 25 23 -2 21 4 0.27745607D+00 0.31516847D-02 0.22445274D+05 0.22445274D+05 0.22445274D+05 0.12283489D+01  3  4 11  4  5  1        2 0.473331966912D-04 0.100000000000D+01
  </mgrwgt>
  </event>
  <event>
  5     66 -.57005756E-03 0.43434962E+02 0.75467711E-02 0.11711175E+00
        2 -1    0    0  502    0 0.00000000E+00 0.00000000E+00 0.18467513E+04 0.18467513E+04 0.32000000E+00 0.0000E+00 0.9000E+01
       -2 -1    0    0    0  501 0.00000000E+00 0.00000000E+00 -.12547335E+03 0.12547376E+03 0.32000000E+00 0.0000E+00 0.9000E+01
       25  1    1    2    0    0 -.10267350E+03 -.36610394E+02 -.32652662E+02 0.16903658E+03 0.12500000E+03 0.0000E+00 0.9000E+01
       23  1    1    2    0    0 0.62783169E+02 0.70808026E+02 0.15423758E+03 0.20263263E+03 0.91188000E+02 0.0000E+00 0.9000E+01
       21  1    1    2  502  501 0.39890333E+02 -.34197633E+02 0.15996930E+04 0.16005559E+04 0.75000000E+00 0.0000E+00 0.9000E+01
#aMCatNLO 1  0  0  2  5 0.49548804D+01 0.00000000D+00  -5  6  0 0.00000000D+00 0.00000000D+00 0.00000000D+00 0.00000000D+00 0.00000000D+00
  <mgrwgt>
 -.1066474304D+01   11    4    0
 0.481371473807769D+03 0.000000000000000D+00 0.000000000000000D+00 0.481371473807769D+03
 0.481371473807769D+03 0.000000000000000D+00 0.000000000000000D+00 -.481371473807769D+03
 0.404659143527789D+03 -.102673528853378D+03 -.366103704697855D+02 -.369109536164407D+03
 0.139342960965649D+03 0.627831598331018D+02 0.708080340716709D+02 -.463217721913867D+02
 0.418740843122101D+03 0.398903690202761D+02 -.341976636018854D+02 0.415431308355793D+03
 0.000000000000000D+00 0.000000000000000D+00 -.000000000000000D+00 -.000000000000000D+00
 0.482343053812884D+03 0.000000000000000D+00 0.000000000000000D+00 0.482343053812884D+03
 0.487736820581428D+03 0.000000000000000D+00 0.000000000000000D+00 -.487736820581428D+03
 0.404887466941288D+03 -.104095402190773D+03 -.350878674383424D+02 -.369109536164407D+03
 0.139390599604967D+03 0.622935971409882D+02 0.713322443956296D+02 -.463217721913867D+02
 0.418477631449564D+03 0.384198933105717D+02 -.326231184811579D+02 0.415431308355793D+03
 0.732417639849156D+01 0.338191173921337D+01 -.362125847612926D+01 -.539376676854437D+01
 0.481371473807769D+03 0.000000000000000D+00 0.000000000000000D+00 0.481371473807769D+03
 0.481371473807769D+03 0.000000000000000D+00 0.000000000000000D+00 -.481371473807769D+03
 0.404659143527789D+03 -.102673528853378D+03 -.366103704697855D+02 -.369109536164407D+03
 0.139342960965649D+03 0.627831598331018D+02 0.708080340716709D+02 -.463217721913867D+02
 0.000000000000000D+00 0.000000000000000D+00 -.000000000000000D+00 -.000000000000000D+00
 0.418740843122101D+03 0.398903690202761D+02 -.341976636018854D+02 0.415431308355793D+03
 0.482343053812884D+03 0.000000000000000D+00 0.000000000000000D+00 0.482343053812884D+03
 0.487736820581428D+03 0.000000000000000D+00 0.000000000000000D+00 -.487736820581428D+03
 0.404887466941288D+03 -.104095402190773D+03 -.350878674383424D+02 -.369109536164407D+03
 0.139390599604967D+03 0.622935971409882D+02 0.713322443956296D+02 -.463217721913867D+02
 0.732417639849156D+01 0.338191173921337D+01 -.362125847612926D+01 -.539376676854437D+01
 0.418477631449564D+03 0.384198933105717D+02 -.326231184811579D+02 0.415431308355793D+03
0.228663240097D-02 0.000000000000D+00 0.000000000000D+00 0.996000773447D-05 0.000000000000D+00  6 2 -2 25 23 21 21 2 0.28411562D+00 0.19303626D-01 0.30592402D+05 0.30592402D+05 0.30592402D+05 0.12140081D+01  1  2  2  2  6  2       -2 0.696810692982D-01 0.100000000000D+01
0.377702148562D-03 0.120668906990D-03 -.878127050385D-05 0.996000773447D-05 0.000000000000D+00  6 2 -2 25 23 21 21 4 0.28411562D+00 0.19303626D-01 0.30592402D+05 0.30592402D+05 0.30592402D+05 0.12140081D+01  1  2  3  2  6  2       -2 0.169633289248D-01 0.100000000000D+01
0.150406437671D-03 0.000000000000D+00 0.000000000000D+00 0.996000773447D-05 0.000000000000D+00  6 2 -2 25 23 21 21 4 0.28411562D+00 0.19303626D-01 0.30592402D+05 0.30592402D+05 0.30592402D+05 0.12140081D+01  1  2 15  2  6  2       -2 0.675504199361D-02 0.100000000000D+01
0.150207569836D-02 0.000000000000D+00 0.000000000000D+00 0.994550470631D-05 0.000000000000D+00  6 2 -2 25 23 21 21 4 0.28411562D+00 0.19581230D-01 0.31193696D+05 0.31193696D+05 0.31193696D+05 0.12131239D+01  1  2 12  2  6  2       -2 0.656157145115D-01 0.100000000000D+01
-.837423848984D-01 0.000000000000D+00 0.000000000000D+00 0.996000773447D-05 0.000000000000D+00  6 2 -2 25 23 21 21 4 0.28411562D+00 0.19303626D-01 0.30592402D+05 0.30592402D+05 0.30592402D+05 0.12140081D+01  1  2  4  2  6  2       -2 -.376103134542D+01 0.100000000000D+01
-.310116405378D+00 0.000000000000D+00 -.328835890003D-01 0.996000773447D-05 0.000000000000D+00  6 2 -2 25 23 21 21 4 0.28411562D+00 0.19596585D-01 0.30592402D+05 0.30592402D+05 0.30592402D+05 0.12140081D+01  1  2  5  2  6  2       -2 -.135766858342D+02 0.100000000000D+01
0.310580208283D+00 0.000000000000D+00 0.328798591149D-01 0.996000773447D-05 0.000000000000D+00  6 2 -2 25 23 21 21 4 0.28411562D+00 0.19303626D-01 0.30592402D+05 0.30592402D+05 0.30592402D+05 0.12140081D+01  1  2  6  2  6  2       -2 0.139487536692D+02 0.100000000000D+01
0.577463552874D-01 0.000000000000D+00 0.000000000000D+00 0.996000773447D-05 0.171266865629D-05  6 2 -2 25 23 21 21 4 0.28468906D+00 0.19558884D-01 0.31193696D+05 0.31193696D+05 0.31193696D+05 0.12131239D+01  1  2 11  2  6  2       -2 0.251627357136D+01 0.100000000000D+01
0.129580227340D-03 0.000000000000D+00 0.000000000000D+00 0.994550470631D-05 0.000000000000D+00  6 2 21 25 23 2 21 4 0.28411562D+00 0.19581230D-01 0.31193696D+05 0.31193696D+05 0.31193696D+05 0.12131239D+01  3  4 12  5  5  2       -2 0.787105816349D-01 0.100000000000D+01
-.853626331126D-03 0.000000000000D+00 -.908064587011D-04 0.996000773447D-05 0.000000000000D+00  6 2 21 25 23 2 21 4 0.28411562D+00 0.19596585D-01 0.30592402D+05 0.30592402D+05 0.30592402D+05 0.12140081D+01  3  4  5  5  5  2       -2 -.519812442195D+00 0.100000000000D+01
0.145706832218D-03 0.000000000000D+00 0.000000000000D+00 0.996000773447D-05 0.832857931978D-08  6 2 21 25 23 2 21 4 0.28468906D+00 0.19558884D-01 0.31193696D+05 0.31193696D+05 0.31193696D+05 0.12131239D+01  3  4 11  5  5  2       -2 0.883023406430D-01 0.100000000000D+01
  </mgrwgt>
  </event>
  <event>
  5     66 0.57005756E-03 0.33767330E+02 0.75467711E-02 0.12130195E+00
        2 -1    0    0  502    0 0.00000000E+00 0.00000000E+00 0.41277230E+02 0.41278470E+02 0.32000000E+00 0.0000E+00 0.9000E+01
       -2 -1    0    0    0  501 0.00000000E+00 0.00000000E+00 -.49003376E+03 0.49003386E+03 0.32000000E+00 0.0000E+00 0.9000E+01
       25  1    1    2    0    0 -.58940735E+02 -.24366356E+01 -.32323512E+03 0.35154785E+03 0.12500000E+03 0.0000E+00 0.9000E+01
       23  1    1    2    0    0 0.25361467E+02 -.10570006E+01 -.87360323E+02 0.12880760E+03 0.91188000E+02 0.0000E+00 0.9000E+01
       21  1    1    2  502  501 0.33579268E+02 0.34936363E+01 -.38161087E+02 0.50956882E+02 0.75000000E+00 0.0000E+00 0.9000E+01
#aMCatNLO 1  0  0  2  5 0.13481513D+02 0.00000000D+00  -5  6  0 0.00000000D+00 0.00000000D+00 0.00000000D+00 0.00000000D+00 0.00000000D+00
  <mgrwgt>
 0.1226487560D+00    9    4    0
 0.142223743601884D+03 0.000000000000000D+00 0.000000000000000D+00 0.142223743601884D+03
 0.142223743601884D+03 0.000000000000000D+00 0.000000000000000D+00 -.142223743601884D+03
 0.146699828175743D+03 -.589447179045648D+02 -.243705001033159D+01 -.491469287462692D+02
 0.102772129144679D+03 0.253586766218615D+02 -.105729094294703D+01 0.400334715054845D+02
 0.349755298833460D+02 0.335860412827034D+02 0.349434095327863D+01 0.911345724078472D+01
 0.000000000000000D+00 -.000000000000000D+00 -.000000000000000D+00 -.000000000000000D+00
 0.144908386671563D+03 0.000000000000000D+00 0.000000000000000D+00 0.144908386671563D+03
 0.160378618515603D+03 0.000000000000000D+00 0.000000000000000D+00 -.160378618515603D+03
 0.146691968581907D+03 -.588028067591234D+02 0.451031689502342D+01 -.491469287462692D+02
 0.102861939333902D+03 0.254581400919451D+02 0.381201807574267D+01 0.400334715054845D+02
 0.352128811795551D+02 0.336199908270353D+02 0.515636644119861D+01 0.911345724078472D+01
 0.205202160918020D+02 -.275324159857058D+00 -.134787014119647D+02 -.154702318440400D+02
 0.142223743601884D+03 0.000000000000000D+00 0.000000000000000D+00 0.142223743601884D+03
 0.142223743601884D+03 0.000000000000000D+00 0.000000000000000D+00 -.142223743601884D+03
 0.146699828175743D+03 -.589447179045648D+02 -.243705001033159D+01 -.491469287462692D+02
 0.102772129144679D+03 0.253586766218615D+02 -.105729094294703D+01 0.400334715054845D+02
 0.000000000000000D+00 -.000000000000000D+00 -.000000000000000D+00 -.000000000000000D+00
 0.349755298833460D+02 0.335860412827034D+02 0.349434095327863D+01 0.911345724078472D+01
 0.144908386671563D+03 0.000000000000000D+00 0.000000000000000D+00 0.144908386671563D+03
 0.160378618515603D+03 0.000000000000000D+00 0.000000000000000D+00 -.160378618515603D+03
 0.146691968581907D+03 -.588028067591234D+02 0.451031689502342D+01 -.491469287462692D+02
 0.102861939333902D+03 0.254581400919451D+02 0.381201807574267D+01 0.400334715054845D+02
 0.205202160918020D+02 -.275324159857058D+00 -.134787014119647D+02 -.154702318440400D+02
 0.352128811795551D+02 0.336199908270353D+02 0.515636644119861D+01 0.911345724078472D+01
0.127860293957D-03 0.000000000000D+00 0.000000000000D+00 0.107210616005D-04 0.000000000000D+00  6 2 -2 25 23 21 21 2 0.63504465D-02 0.75389912D-01 0.17774750D+05 0.17774750D+05 0.17774750D+05 0.12395058D+01  1  2  2  2  6  2       -2 0.352358395135D-01 0.100000000000D+01
0.108347419815D-04 0.674737308572D-05 -.491017195183D-06 0.107210616005D-04 0.000000000000D+00  6 2 -2 25 23 21 21 4 0.63504465D-02 0.75389912D-01 0.17774750D+05 0.17774750D+05 0.17774750D+05 0.12395058D+01  1  2  3  2  6  2       -2 0.458737913519D-02 0.100000000000D+01
0.528868987470D-05 0.000000000000D+00 0.000000000000D+00 0.107210616005D-04 0.000000000000D+00  6 2 -2 25 23 21 21 4 0.63504465D-02 0.75389912D-01 0.17774750D+05 0.17774750D+05 0.17774750D+05 0.12395058D+01  1  2 15  2  6  2       -2 0.223920658426D-02 0.100000000000D+01
0.585391332073D-03 0.000000000000D+00 0.000000000000D+00 0.106369791381D-04 0.000000000000D+00  6 2 -2 25 23 21 21 4 0.63504465D-02 0.89535771D-01 0.19664512D+05 0.19664512D+05 0.19664512D+05 0.12346357D+01  1  2 12  2  6  2       -2 0.167550703338D+00 0.100000000000D+01
-.449771471731D-03 0.000000000000D+00 0.000000000000D+00 0.107210616005D-04 0.000000000000D+00  6 2 -2 25 23 21 21 4 0.63504465D-02 0.75389912D-01 0.17774750D+05 0.17774750D+05 0.17774750D+05 0.12395058D+01  1  2  4  2  6  2       -2 -.190431139804D+00 0.100000000000D+01
-.146646074089D-02 0.000000000000D+00 -.211391388060D-03 0.107210616005D-04 0.000000000000D+00  6 2 -2 25 23 21 21 4 0.63504465D-02 0.86027485D-01 0.17774750D+05 0.17774750D+05 0.17774750D+05 0.12395058D+01  1  2  5  2  6  2       -2 -.465024408814D+00 0.100000000000D+01
0.148325162553D-02 0.000000000000D+00 0.209563204958D-03 0.107210616005D-04 0.000000000000D+00  6 2 -2 25 23 21 21 4 0.63504465D-02 0.75389912D-01 0.17774750D+05 0.17774750D+05 0.17774750D+05 0.12395058D+01  1  2  6  2  6  2       -2 0.628001808518D+00 0.100000000000D+01
0.148947846263D-04 0.000000000000D+00 0.000000000000D+00 0.106369791381D-04 0.000000000000D+00  6 2 21 25 23 2 21 4 0.63504465D-02 0.89535771D-01 0.19664512D+05 0.19664512D+05 0.19664512D+05 0.12346357D+01  3  4 12  5  5  2       -2 0.510721166860D-01 0.100000000000D+01
-.289620295479D-04 0.000000000000D+00 -.434269419699D-05 0.107210616005D-04 0.000000000000D+00  6 2 21 25 23 2 21 4 0.63504465D-02 0.86027485D-01 0.17774750D+05 0.17774750D+05 0.17774750D+05 0.12395058D+01  3  4  5  5  5  2       -2 -.110582749129D+00 0.100000000000D+01
  </mgrwgt>
  </event>
  <event>
  6     66 0.57005756E-03 0.14372290E+02 0.75467711E-02 0.11832349E+00
        2 -1    0    0  502    0 0.00000000E+00 0.00000000E+00 0.34897178E+03 0.34897192E+03 0.32000000E+00 0.0000E+00 0.9000E+01
       21 -1    0    0  503  501 0.00000000E+00 0.00000000E+00 -.11206337E+03 0.11206588E+03 0.75000000E+00 0.0000E+00 0.9000E+01
       25  1    1    2    0    0 0.88376984E+02 0.27753739E+02 0.17653450E+03 0.23530871E+03 0.12500000E+03 0.0000E+00 0.9000E+01
       23  1    1    2    0    0 -.97730736E+02 -.40964606E+02 0.80986771E+02 0.16156579E+03 0.91188000E+02 0.0000E+00 0.9000E+01
        2  1    1    2  503    0 0.20333769E+02 0.55475580E+01 -.37245962E+02 0.42797215E+02 0.32000000E+00 0.0000E+00 0.9000E+01
       21  1    1    2  502  501 -.10980017E+02 0.76633084E+01 0.16633104E+02 0.21366088E+02 0.75000000E+00 0.0000E+00 0.9000E+01
#aMCatNLO 2  0  0  2  5 0.27873076D+02 0.00000000D+00  -5  6  0 0.00000000D+00 0.00000000D+00 0.00000000D+00 0.00000000D+00 0.00000000D+00
  <mgrwgt>
 0.1324657508D+00    1    2    0
 0.157575642718892D+03 0.000000000000000D+00 0.000000000000000D+00 0.157575642718892D+03
 0.157575642718892D+03 0.000000000000000D+00 0.000000000000000D+00 -.157575642718892D+03
 0.164904905487961D+03 0.988021950823966D+02 0.305891231320812D+02 0.295137196385670D+02
 0.136935016563230D+03 -.886822238636402D+02 -.385033142836842D+02 -.329985662861758D+02
 0.000000000000000D+00 0.000000000000000D+00 0.000000000000000D+00 -.000000000000000D+00
 0.133113633865927D+02 -.101199712187564D+02 0.791419115160307D+01 0.348484664760877D+01
 0.159193543934829D+03 0.000000000000000D+00 0.000000000000000D+00 0.159193543934829D+03
 0.245659617673051D+03 0.000000000000000D+00 0.000000000000000D+00 -.245659617673051D+03
 0.158360047146302D+03 0.883851964712216D+02 0.277471066963506D+02 0.295137196385670D+02
 0.143640517905462D+03 -.977235842990128D+02 -.409700223939385D+02 -.329985662861758D+02
 0.889978620548695D+02 0.203337685261792D+02 0.554755803555041D+01 -.864660737382214D+02
 0.138547345012464D+02 -.109953806983879D+02 0.767535766203746D+01 0.348484664760877D+01
0.170687151657D-04 0.000000000000D+00 0.000000000000D+00 0.622669934360D-04 0.614157204175D-07  6 2 21 25 23 2 21 4 0.53688074D-01 0.17240692D-01 0.27203637D+05 0.27203637D+05 0.27203637D+05 0.12193838D+01  1  2  1  5  5  2       -2 0.132465750837D+00 0.100000000000D+01
  </mgrwgt>
  </event>
  <event>
  5     66 -.57005756E-03 0.61031163E+02 0.75467711E-02 0.11890863E+00
        2 -1    0    0  502    0 0.00000000E+00 0.00000000E+00 0.66383032E+03 0.66383040E+03 0.32000000E+00 0.0000E+00 0.9000E+01
       -2 -1    0    0    0  501 0.00000000E+00 0.00000000E+00 -.46257287E+02 0.46258394E+02 0.32000000E+00 0.0000E+00 0.9000E+01
       25  1    1    2    0    0 0.40797794E+02 -.72412945E+02 0.18792770E+03 0.24052009E+03 0.12500000E+03 0.0000E+00 0.9000E+01
       23  1    1    2    0    0 0.21389322E+01 0.29041661E+02 0.11771692E+03 0.15172514E+03 0.91188000E+02 0.0000E+00 0.9000E+01
       21  1    1    2  502  501 -.42936726E+02 0.43371284E+02 0.31192841E+03 0.31784356E+03 0.75000000E+00 0.0000E+00 0.9000E+01
#aMCatNLO 1  0  0  1  5 0.13149881D+02 0.00000000D+00  -5  6  0 0.00000000D+00 0.00000000D+00 0.00000000D+00 0.00000000D+00 0.00000000D+00
  <mgrwgt>
 -.1202034143D+00    9    4    0
 0.175235298662522D+03 0.000000000000000D+00 0.000000000000000D+00 0.175235298662522D+03
 0.175235298662522D+03 0.000000000000000D+00 0.000000000000000D+00 -.175235298662522D+03
 0.156166580114554D+03 0.407983989074444D+02 -.724135556661378D+02 -.430670215716335D+02
 0.999785829732543D+02 0.213931935807517D+01 0.290412696175888D+02 -.288529665896347D+02
 0.943254342372365D+02 -.429377182655195D+02 0.433722860485489D+02 0.719199881612681D+02
 0.000000000000000D+00 -.000000000000000D+00 0.000000000000000D+00 0.000000000000000D+00
 0.343716499769982D+03 0.000000000000000D+00 0.000000000000000D+00 0.343716499769982D+03
 0.175615376725275D+03 0.000000000000000D+00 0.000000000000000D+00 -.175615376725275D+03
 0.158293505065117D+03 0.465892537467283D+02 -.735289523526043D+02 -.430670215716335D+02
 0.999216604017831D+02 0.582052834541282D+01 0.283322191542940D+02 -.288529665896347D+02
 0.925020410551740D+02 -.394972473110259D+02 0.427096049748508D+02 0.719199881612681D+02
 0.168614669973182D+03 -.129125347811152D+02 0.248712822345944D+01 0.168101123044707D+03
 0.175235298662522D+03 0.000000000000000D+00 0.000000000000000D+00 0.175235298662522D+03
 0.175235298662522D+03 0.000000000000000D+00 0.000000000000000D+00 -.175235298662522D+03
 0.156166580114554D+03 0.407983989074444D+02 -.724135556661378D+02 -.430670215716335D+02
 0.999785829732543D+02 0.213931935807517D+01 0.290412696175888D+02 -.288529665896347D+02
 0.000000000000000D+00 -.000000000000000D+00 0.000000000000000D+00 0.000000000000000D+00
 0.943254342372365D+02 -.429377182655195D+02 0.433722860485489D+02 0.719199881612681D+02
 0.343716499769982D+03 0.000000000000000D+00 0.000000000000000D+00 0.343716499769982D+03
 0.175615376725275D+03 0.000000000000000D+00 0.000000000000000D+00 -.175615376725275D+03
 0.158293505065117D+03 0.465892537467283D+02 -.735289523526043D+02 -.430670215716335D+02
 0.999216604017831D+02 0.582052834541282D+01 0.283322191542940D+02 -.288529665896347D+02
 0.168614669973182D+03 -.129125347811152D+02 0.248712822345944D+01 0.168101123044707D+03
 0.925020410551740D+02 -.394972473110259D+02 0.427096049748508D+02 0.719199881612681D+02
0.348917644047D-05 0.000000000000D+00 0.000000000000D+00 0.450905241009D-05 0.000000000000D+00  6 2 -2 25 23 21 21 2 0.10212783D+00 0.71165968D-02 0.23541781D+05 0.23541781D+05 0.23541781D+05 0.12261059D+01  1  2  2  1  6  1        2 0.259624658341D-02 0.100000000000D+01
-.648736736432D-07 0.184128899419D-06 -.133993562526D-07 0.450905241009D-05 0.000000000000D+00  6 2 -2 25 23 21 21 4 0.10212783D+00 0.71165968D-02 0.23541781D+05 0.23541781D+05 0.23541781D+05 0.12261059D+01  1  2  3  1  6  1        2 -.725683850284D-04 0.100000000000D+01
0.121096062297D-06 0.000000000000D+00 0.000000000000D+00 0.450905241009D-05 0.000000000000D+00  6 2 -2 25 23 21 21 4 0.10212783D+00 0.71165968D-02 0.23541781D+05 0.23541781D+05 0.23541781D+05 0.12261059D+01  1  2 15  1  6  1        2 0.135459350160D-03 0.100000000000D+01
0.364895285130D-03 0.000000000000D+00 0.000000000000D+00 0.448180109400D-05 0.000000000000D+00  6 2 -2 25 23 21 21 4 0.20244848D+00 0.71165968D-02 0.25489844D+05 0.25489844D+05 0.25489844D+05 0.12223952D+01  1  2 12  1  6  1        2 0.159089239468D+00 0.100000000000D+01
-.405636832721D-03 0.000000000000D+00 0.000000000000D+00 0.450905241009D-05 0.000000000000D+00  6 2 -2 25 23 21 21 4 0.10212783D+00 0.71165968D-02 0.23541781D+05 0.23541781D+05 0.23541781D+05 0.12261059D+01  1  2  4  1  6  1        2 -.453749698536D+00 0.100000000000D+01
-.373302451952D-03 0.000000000000D+00 -.222732986886D-05 0.450905241009D-05 0.000000000000D+00  6 2 -2 25 23 21 21 4 0.20043824D+00 0.71165968D-02 0.23541781D+05 0.23541781D+05 0.23541781D+05 0.12261059D+01  1  2  5  1  6  1        2 -.167417404826D+00 0.100000000000D+01
0.303566225257D-03 0.000000000000D+00 0.180194197373D-05 0.450905241009D-05 0.000000000000D+00  6 2 -2 25 23 21 21 4 0.10212783D+00 0.71165968D-02 0.23541781D+05 0.23541781D+05 0.23541781D+05 0.12261059D+01  1  2  6  1  6  1        2 0.339572425592D+00 0.100000000000D+01
0.270280714493D-04 0.000000000000D+00 0.000000000000D+00 0.448180109400D-05 0.000000000000D+00  6 21 -2 25 23 -2 21 4 0.20244848D+00 0.71165968D-02 0.25489844D+05 0.25489844D+05 0.25489844D+05 0.12223952D+01  3  4 12  4  5  1        2 0.706866172038D-02 0.100000000000D+01
-.271332451424D-04 0.000000000000D+00 -.162676558875D-06 0.450905241009D-05 0.000000000000D+00  6 21 -2 25 23 -2 21 4 0.20043824D+00 0.71165968D-02 0.23541781D+05 0.23541781D+05 0.23541781D+05 0.12261059D+01  3  4  5  4  5  1        2 -.742577530318D-02 0.100000000000D+01
  </mgrwgt>
  </event>
  <event>
  6     66 0.57005756E-03 0.22363947E+02 0.75467711E-02 0.12278525E+00
        2 -1    0    0  502    0 0.00000000E+00 0.00000000E+00 0.22417932E+04 0.22417933E+04 0.32000000E+00 0.0000E+00 0.9000E+01
       21 -1    0    0  503  501 0.00000000E+00 0.00000000E+00 -.34419377E+02 0.34427547E+02 0.75000000E+00 0.0000E+00 0.9000E+01
       25  1    1    2    0    0 0.26692252E+02 -.61891107E+01 0.13494862E+04 0.13555401E+04 0.12500000E+03 0.0000E+00 0.9000E+01
       23  1    1    2    0    0 -.38922724E+02 -.15994032E+02 0.82624887E+03 0.83233000E+03 0.91188000E+02 0.0000E+00 0.9000E+01
        2  1    1    2  503    0 0.16883058E+02 0.18795987E+02 -.22541388E+02 0.33860646E+02 0.32000000E+00 0.0000E+00 0.9000E+01
       21  1    1    2  502  501 -.46525851E+01 0.33871556E+01 0.54180162E+02 0.54490107E+02 0.75000000E+00 0.0000E+00 0.9000E+01
#aMCatNLO 2  0  0  2  5 0.11648991D+02 0.00000000D+00  -5  6  0 0.00000000D+00 0.00000000D+00 0.00000000D+00 0.00000000D+00 0.00000000D+00
  <mgrwgt>
 0.1707953722D+01    1    2    0
 0.117280382631011D+03 0.000000000000000D+00 0.000000000000000D+00 0.117280382631011D+03
 0.656358517807192D+03 0.000000000000000D+00 0.000000000000000D+00 -.656358517807192D+03
 0.130902573855266D+03 0.360290775270298D+02 0.416476965947241D+01 0.139658192802370D+02
 0.978852272635971D+02 -.317566615407690D+02 -.804656929396781D+01 -.138936511698134D+02
 0.539078135176181D+03 0.000000000000000D+00 0.000000000000000D+00 -.539078135176181D+03
 0.577296414315798D+01 -.427241598626081D+01 0.388179963449541D+01 -.721681104235712D-01
 0.118257267319596D+03 0.000000000000000D+00 0.000000000000000D+00 0.118257267319596D+03
 0.652563602440648D+03 0.000000000000000D+00 0.000000000000000D+00 -.652563602440648D+03
 0.128732737838510D+03 0.267120951896140D+02 -.620787031206173D+01 0.139658192802370D+02
 0.101381974263320D+03 -.389073414114727D+02 -.160074546068703D+02 -.138936511698134D+02
 0.534903343149373D+03 0.168830576508303D+02 0.187959869718170D+02 -.534306335121052D+03
 0.580281450904121D+01 -.468781142897154D+01 0.341933794711504D+01 -.721681104235712D-01
0.397580503654D-03 0.000000000000D+00 0.000000000000D+00 0.434570048863D-03 0.347853161621D-05  6 2 21 25 23 2 21 4 0.34489176D+00 0.52959168D-02 0.16830637D+05 0.16830637D+05 0.16830637D+05 0.12421614D+01  1  2  1  5  5  2       -2 0.170795372223D+01 0.100000000000D+01
  </mgrwgt>
  </event>
  <event>
  5     66 -.57005756E-03 0.25539110E+02 0.75467711E-02 0.11541647E+00
        2 -1    0    0  502    0 0.00000000E+00 0.00000000E+00 0.91057197E+03 0.91057202E+03 0.32000000E+00 0.0000E+00 0.9000E+01
       -2 -1    0    0    0  501 0.00000000E+00 0.00000000E+00 -.37198485E+02 0.37199861E+02 0.32000000E+00 0.0000E+00 0.9000E+01
       25  1    1    2    0    0 -.36407429E+02 -.12173028E+03 0.37681964E+03 0.41684746E+03 0.12500000E+03 0.0000E+00 0.9000E+01
       23  1    1    2    0    0 0.61453622E+02 0.11677930E+03 0.39782452E+03 0.42894470E+03 0.91188000E+02 0.0000E+00 0.9000E+01
       21  1    1    2  502  501 -.25046193E+02 0.49509807E+01 0.98729316E+02 0.10197973E+03 0.75000000E+00 0.0000E+00 0.9000E+01
#aMCatNLO 1  0  0  1  5 0.24804610D+02 0.00000000D+00  -5  6  0 0.00000000D+00 0.00000000D+00 0.00000000D+00 0.00000000D+00 0.00000000D+00
  <mgrwgt>
 -.3317472955D-01    9    4    0
 0.184045038693218D+03 0.000000000000000D+00 0.000000000000000D+00 0.184045038693218D+03
 0.184045038693218D+03 0.000000000000000D+00 0.000000000000000D+00 -.184045038693218D+03
 0.179227844905100D+03 -.364031511723158D+02 -.121731124560817D+03 -.188139386416219D+02
 0.160538544580525D+03 0.614574533734324D+02 0.116778540948893D+03 0.656709606548902D+01
 0.283236879008113D+02 -.250543022011166D+02 0.495258361192459D+01 0.122468425761329D+02
 0.000000000000000D+00 -.000000000000000D+00 -.000000000000000D+00 0.000000000000000D+00
 0.307076880784948D+03 0.000000000000000D+00 0.000000000000000D+00 0.307076880784948D+03
 0.185716922946778D+03 0.000000000000000D+00 0.000000000000000D+00 -.185716922946778D+03
 0.172092548083463D+03 -.280561692899963D+02 -.113356659193095D+03 -.188139386416219D+02
 0.169399912565245D+03 0.692964242360370D+02 0.124643322606862D+03 0.656709606548902D+01
 0.274324283685644D+02 -.237295988772645D+02 0.628164868772224D+01 0.122468425761329D+02
 0.123868914714454D+03 -.175106560687762D+02 -.175683121014899D+02 0.121359957838170D+03
 0.184045038693218D+03 0.000000000000000D+00 0.000000000000000D+00 0.184045038693218D+03
 0.184045038693218D+03 0.000000000000000D+00 0.000000000000000D+00 -.184045038693218D+03
 0.179227844905100D+03 -.364031511723158D+02 -.121731124560817D+03 -.188139386416219D+02
 0.160538544580525D+03 0.614574533734324D+02 0.116778540948893D+03 0.656709606548902D+01
 0.000000000000000D+00 -.000000000000000D+00 -.000000000000000D+00 0.000000000000000D+00
 0.283236879008113D+02 -.250543022011166D+02 0.495258361192459D+01 0.122468425761329D+02
 0.307076880784948D+03 0.000000000000000D+00 0.000000000000000D+00 0.307076880784948D+03
 0.185716922946778D+03 0.000000000000000D+00 0.000000000000000D+00 -.185716922946778D+03
 0.172092548083463D+03 -.280561692899963D+02 -.113356659193095D+03 -.188139386416219D+02
 0.169399912565245D+03 0.692964242360370D+02 0.124643322606862D+03 0.656709606548902D+01
 0.123868914714454D+03 -.175106560687762D+02 -.175683121014899D+02 0.121359957838170D+03
 0.274324283685644D+02 -.237295988772645D+02 0.628164868772224D+01 0.122468425761329D+02
0.246041025834D-04 0.000000000000D+00 0.000000000000D+00 0.149042937491D-04 0.000000000000D+00  6 2 -2 25 23 21 21 2 0.14008811D+00 0.57229540D-02 0.33156935D+05 0.33156935D+05 0.33156935D+05 0.12103641D+01  1  2  2  1  6  1        2 0.169122086164D-01 0.100000000000D+01
0.622607259804D-05 0.129839416469D-05 -.944862323294D-07 0.149042937491D-04 0.000000000000D+00  6 2 -2 25 23 21 21 4 0.14008811D+00 0.57229540D-02 0.33156935D+05 0.33156935D+05 0.33156935D+05 0.12103641D+01  1  2  3  1  6  1        2 0.626958879349D-02 0.100000000000D+01
0.474769223119D-07 0.000000000000D+00 0.000000000000D+00 0.149042937491D-04 0.000000000000D+00  6 2 -2 25 23 21 21 4 0.14008811D+00 0.57229540D-02 0.33156935D+05 0.33156935D+05 0.33156935D+05 0.12103641D+01  1  2 15  1  6  1        2 0.478087551003D-04 0.100000000000D+01
0.420464957212D-03 0.000000000000D+00 0.000000000000D+00 0.147556036189D-04 0.000000000000D+00  6 2 -2 25 23 21 21 4 0.25020563D+00 0.57229540D-02 0.37963635D+05 0.37963635D+05 0.37963635D+05 0.12043115D+01  1  2 12  1  6  1        2 0.165048997010D+00 0.100000000000D+01
-.448894015216D-03 0.000000000000D+00 0.000000000000D+00 0.149042937491D-04 0.000000000000D+00  6 2 -2 25 23 21 21 4 0.14008811D+00 0.57229540D-02 0.33156935D+05 0.33156935D+05 0.33156935D+05 0.12103641D+01  1  2  4  1  6  1        2 -.452031492236D+00 0.100000000000D+01
-.514287598551D-03 0.000000000000D+00 -.168457108087D-04 0.149042937491D-04 0.000000000000D+00  6 2 -2 25 23 21 21 4 0.23437302D+00 0.57229540D-02 0.33156935D+05 0.33156935D+05 0.33156935D+05 0.12103641D+01  1  2  5  1  6  1        2 -.233280700646D+00 0.100000000000D+01
0.462371197472D-03 0.000000000000D+00 0.148371048948D-04 0.149042937491D-04 0.000000000000D+00  6 2 -2 25 23 21 21 4 0.14008811D+00 0.57229540D-02 0.33156935D+05 0.33156935D+05 0.33156935D+05 0.12103641D+01  1  2  6  1  6  1        2 0.465602871225D+00 0.100000000000D+01
0.267950385733D-04 0.000000000000D+00 0.000000000000D+00 0.147556036189D-04 0.000000000000D+00  6 21 -2 25 23 -2 21 4 0.25020563D+00 0.57229540D-02 0.37963635D+05 0.37963635D+05 0.37963635D+05 0.12043115D+01  3  4 12  4  5  1        2 0.462336239008D-02 0.100000000000D+01
-.288880829548D-04 0.000000000000D+00 -.971939478383D-06 0.149042937491D-04 0.000000000000D+00  6 21 -2 25 23 -2 21 4 0.23437302D+00 0.57229540D-02 0.33156935D+05 0.33156935D+05 0.33156935D+05 0.12103641D+01  3  4  5  4  5  1        2 -.636737346079D-02 0.100000000000D+01
  </mgrwgt>
  </event>
  <event>
  5     66 0.57005756E-03 0.44622451E+02 0.75467711E-02 0.11667868E+00
        2 -1    0    0  502    0 0.00000000E+00 0.00000000E+00 0.71192166E+03 0.71192173E+03 0.32000000E+00 0.0000E+00 0.9000E+01
       -2 -1    0    0    0  501 0.00000000E+00 0.00000000E+00 -.50351457E+02 0.50352474E+02 0.32000000E+00 0.0000E+00 0.9000E+01
       25  1    1    2    0    0 -.11473543E+03 -.67891930E+02 0.35817218E+03 0.40210178E+03 0.12500000E+03 0.0000E+00 0.9000E+01
       23  1    1    2    0    0 0.10887660E+03 0.23660768E+02 0.19059157E+03 0.23886051E+03 0.91188000E+02 0.0000E+00 0.9000E+01
       21  1    1    2  502  501 0.58588266E+01 0.44231161E+02 0.11280646E+03 0.12131192E+03 0.75000000E+00 0.0000E+00 0.9000E+01
#aMCatNLO 1  0  0  5  2 0.14782209D+02 0.00000000D+00  -5  6  0 0.00000000D+00 0.00000000D+00 0.00000000D+00 0.00000000D+00 0.00000000D+00
  <mgrwgt>
 0.8604257899D-01   20    2    0
 0.189332268682312D+03 0.000000000000000D+00 0.000000000000000D+00 0.189332268682312D+03
 0.189332268682312D+03 -.000000000000000D+00 -.000000000000000D+00 -.189332268682312D+03
 0.183688193796172D+03 -.114735788165826D+03 -.678946478214449D+02 0.185031957042224D+02
 0.147854761903299D+03 0.108876311732056D+03 0.236585804806279D+02 -.336452015411835D+02
 0.471215816651538D+02 0.585947643376983D+01 0.442360673408169D+02 0.151420058369611D+02
 0.000000000000000D+00 0.000000000000000D+00 0.000000000000000D+00 0.000000000000000D+00
 0.189332268682312D+03 0.000000000000000D+00 0.000000000000000D+00 0.189332268682312D+03
 0.189332268682312D+03 -.000000000000000D+00 -.000000000000000D+00 -.189332268682312D+03
 0.181715609937845D+03 -.114090645918421D+03 -.630241519293322D+02 0.201703664465731D+02
 0.148622665275787D+03 0.109399760343484D+03 0.276103513062841D+02 -.322925103887943D+02
 0.280269843551723D+02 0.501425342788504D+00 0.273646893808397D+02 -.603607486375394D+01
 0.202992777958199D+02 0.418946023214835D+01 0.804911124220842D+01 0.181582188059751D+02
0.630576857649D-04 0.000000000000D+00 0.000000000000D+00 0.494086567013D-05 0.000000000000D+00  6 2 -2 25 23 21 21 2 0.10952649D+00 0.77464618D-02 0.34475603D+05 0.34475603D+05 0.34475603D+05 0.12086108D+01  1  2  2  3  6  5       21 0.370709435781D-01 0.100000000000D+01
0.622066201296D-05 0.332764549971D-05 -.242158116807D-06 0.494086567013D-05 0.000000000000D+00  6 2 -2 25 23 21 21 4 0.10952649D+00 0.77464618D-02 0.34475603D+05 0.34475603D+05 0.34475603D+05 0.12086108D+01  1  2  3  3  6  5       21 0.534201583278D-02 0.100000000000D+01
0.959419363052D-06 0.000000000000D+00 0.000000000000D+00 0.494086567013D-05 0.000000000000D+00  6 2 -2 25 23 21 21 4 0.10952649D+00 0.77464618D-02 0.34475603D+05 0.34475603D+05 0.34475603D+05 0.12086108D+01  1  2 15  3  6  5       21 0.823904821870D-03 0.100000000000D+01
0.250134052799D-04 0.000000000000D+00 0.000000000000D+00 0.495942652525D-05 0.000000000000D+00  6 2 -2 25 23 21 21 4 0.10952649D+00 0.77464618D-02 0.32780572D+05 0.32780572D+05 0.32780572D+05 0.12108788D+01  1  2 12  3  6  5       21 0.216230551814D-01 0.100000000000D+01
0.262067252078D-04 0.000000000000D+00 0.000000000000D+00 0.495942652525D-05 0.000000000000D+00  6 2 -2 25 23 21 21 4 0.10952649D+00 0.77464618D-02 0.32780572D+05 0.32780572D+05 0.32780572D+05 0.12108788D+01  1  2 12  3  6  5       21 0.226546309449D-01 0.100000000000D+01
-.436043746076D-04 0.000000000000D+00 0.000000000000D+00 0.494086567013D-05 0.000000000000D+00  6 2 -2 25 23 21 21 4 0.10952649D+00 0.77464618D-02 0.34475603D+05 0.34475603D+05 0.34475603D+05 0.12086108D+01  1  2  4  3  6  5       21 -.374454132128D-01 0.100000000000D+01
-.428648929128D-04 0.000000000000D+00 0.000000000000D+00 0.494086567013D-05 0.000000000000D+00  6 2 -2 25 23 21 21 4 0.10952649D+00 0.77464618D-02 0.34475603D+05 0.34475603D+05 0.34475603D+05 0.12086108D+01  1  2  5  3  6  5       21 -.368103806530D-01 0.100000000000D+01
0.797618413247D-04 0.000000000000D+00 -.000000000000D+00 0.494086567013D-05 0.000000000000D+00  6 2 -2 25 23 21 21 4 0.10952649D+00 0.77464618D-02 0.34475603D+05 0.34475603D+05 0.34475603D+05 0.12086108D+01  1  2  6  3  6  5       21 0.684957675439D-01 0.100000000000D+01
0.685683901950D-06 0.000000000000D+00 0.000000000000D+00 0.495942652525D-05 0.000000000000D+00  6 2 -2 25 23 1 -1 4 0.10952649D+00 0.77464618D-02 0.32780572D+05 0.32780572D+05 0.32780572D+05 0.12108788D+01  1  2 12  6  6  5       21 0.592745397235D-03 0.100000000000D+01
0.685683901950D-06 0.000000000000D+00 0.000000000000D+00 0.495942652525D-05 0.000000000000D+00  6 2 -2 25 23 3 -3 4 0.10952649D+00 0.77464618D-02 0.32780572D+05 0.32780572D+05 0.32780572D+05 0.12108788D+01  1  2 12  6  6  5       21 0.592745397235D-03 0.100000000000D+01
0.716778392378D-06 0.000000000000D+00 0.000000000000D+00 0.495942652525D-05 0.000000000000D+00  6 2 -2 25 23 1 -1 4 0.10952649D+00 0.77464618D-02 0.32780572D+05 0.32780572D+05 0.32780572D+05 0.12108788D+01  1  2 12  6  6  5       21 0.619625299224D-03 0.100000000000D+01
0.716778392378D-06 0.000000000000D+00 0.000000000000D+00 0.495942652525D-05 0.000000000000D+00  6 2 -2 25 23 3 -3 4 0.10952649D+00 0.77464618D-02 0.32780572D+05 0.32780572D+05 0.32780572D+05 0.12108788D+01  1  2 12  6  6  5       21 0.619625299224D-03 0.100000000000D+01
-.163442644130D-06 0.000000000000D+00 0.000000000000D+00 0.494086567013D-05 0.000000000000D+00  6 2 -2 25 23 1 -1 4 0.10952649D+00 0.77464618D-02 0.34475603D+05 0.34475603D+05 0.34475603D+05 0.12086108D+01  1  2  5  6  6  5       21 -.140356957326D-03 0.100000000000D+01
-.163442644130D-06 0.000000000000D+00 0.000000000000D+00 0.494086567013D-05 0.000000000000D+00  6 2 -2 25 23 3 -3 4 0.10952649D+00 0.77464618D-02 0.34475603D+05 0.34475603D+05 0.34475603D+05 0.12086108D+01  1  2  5  6  6  5       21 -.140356957326D-03 0.100000000000D+01
0.685683901950D-06 0.000000000000D+00 0.000000000000D+00 0.495942652525D-05 0.000000000000D+00  6 2 -2 25 23 2 -2 4 0.10952649D+00 0.77464618D-02 0.32780572D+05 0.32780572D+05 0.32780572D+05 0.12108788D+01  1  2 12  7  6  5       21 0.592745397235D-03 0.100000000000D+01
0.716778392378D-06 0.000000000000D+00 0.000000000000D+00 0.495942652525D-05 0.000000000000D+00  6 2 -2 25 23 2 -2 4 0.10952649D+00 0.77464618D-02 0.32780572D+05 0.32780572D+05 0.32780572D+05 0.12108788D+01  1  2 12  7  6  5       21 0.619625299224D-03 0.100000000000D+01
-.163442644130D-06 0.000000000000D+00 0.000000000000D+00 0.494086567013D-05 0.000000000000D+00  6 2 -2 25 23 2 -2 4 0.10952649D+00 0.77464618D-02 0.34475603D+05 0.34475603D+05 0.34475603D+05 0.12086108D+01  1  2  5  7  6  5       21 -.140356957326D-03 0.100000000000D+01
0.685683901950D-06 0.000000000000D+00 0.000000000000D+00 0.495942652525D-05 0.000000000000D+00  6 2 -2 25 23 4 -4 4 0.10952649D+00 0.77464618D-02 0.32780572D+05 0.32780572D+05 0.32780572D+05 0.12108788D+01  1  2 12  8  6  5       21 0.592745397235D-03 0.100000000000D+01
0.716778392378D-06 0.000000000000D+00 0.000000000000D+00 0.495942652525D-05 0.000000000000D+00  6 2 -2 25 23 4 -4 4 0.10952649D+00 0.77464618D-02 0.32780572D+05 0.32780572D+05 0.32780572D+05 0.12108788D+01  1  2 12  8  6  5       21 0.619625299224D-03 0.100000000000D+01
-.163442644130D-06 0.000000000000D+00 0.000000000000D+00 0.494086567013D-05 0.000000000000D+00  6 2 -2 25 23 4 -4 4 0.10952649D+00 0.77464618D-02 0.34475603D+05 0.34475603D+05 0.34475603D+05 0.12086108D+01  1  2  5  8  6  5       21 -.140356957326D-03 0.100000000000D+01
  </mgrwgt>
  </event>
  <event>
  5     66 -.57005756E-03 0.25195662E+02 0.75467711E-02 0.11598342E+00
        2 -1    0    0  502    0 0.00000000E+00 0.00000000E+00 0.13453608E+04 0.13453609E+04 0.32000000E+00 0.0000E+00 0.9000E+01
       -2 -1    0    0    0  501 0.00000000E+00 0.00000000E+00 -.15596599E+02 0.15599881E+02 0.32000000E+00 0.0000E+00 0.9000E+01
       25  1    1    2    0    0 -.44598186E+02 -.10189394E+02 0.82826697E+03 0.83889451E+03 0.12500000E+03 0.0000E+00 0.9000E+01
       23  1    1    2    0    0 0.68693017E+02 0.17522843E+02 0.35215527E+03 0.37061350E+03 0.91188000E+02 0.0000E+00 0.9000E+01
       21  1    1    2  502  501 -.24094831E+02 -.73334488E+01 0.14934200E+03 0.15145275E+03 0.75000000E+00 0.0000E+00 0.9000E+01
#aMCatNLO 1  0  0  2  1 0.88818182D+02 0.00000000D+00  -5  6  0 0.00000000D+00 0.00000000D+00 0.00000000D+00 0.00000000D+00 0.00000000D+00
  <mgrwgt>
 -.6977406382D-01    5    4    0
 0.144863084081988D+03 0.000000000000000D+00 0.000000000000000D+00 0.144863084081988D+03
 0.144863084081988D+03 0.000000000000000D+00 0.000000000000000D+00 -.144863084081988D+03
 0.139104182829897D+03 -.445933680727176D+02 -.101879275892044D+02 0.404055854572303D+02
 0.124627375672838D+03 0.686973331382755D+02 0.175241564325740D+02 -.468007669180132D+02
 0.259946096612407D+02 -.241039650655579D+02 -.733622884336958D+01 0.639518146078288D+01
 0.000000000000000D+00 -.000000000000000D+00 0.000000000000000D+00 -.000000000000000D+00
 0.158841897716553D+03 0.000000000000000D+00 0.000000000000000D+00 0.158841897716553D+03
 0.420768494748408D+03 0.000000000000000D+00 0.000000000000000D+00 -.420768494748408D+03
 0.137352513962771D+03 -.136357564802097D+02 -.377116414514669D+02 0.404055854572303D+02
 0.142521339612370D+03 0.986126372751811D+02 -.907286539213351D+01 -.468007669180132D+02
 0.231606691891447D+02 -.185995585960236D+02 -.122300724202983D+02 0.639518146078288D+01
 0.276575869700676D+03 -.663773221989479D+02 0.590145792638988D+02 -.261926597031855D+03
 0.144863084081988D+03 0.000000000000000D+00 0.000000000000000D+00 0.144863084081988D+03
 0.144863084081988D+03 0.000000000000000D+00 0.000000000000000D+00 -.144863084081988D+03
 0.139104182829897D+03 -.445933680727176D+02 -.101879275892044D+02 0.404055854572303D+02
 0.124627375672838D+03 0.686973331382755D+02 0.175241564325740D+02 -.468007669180132D+02
 0.000000000000000D+00 -.000000000000000D+00 0.000000000000000D+00 -.000000000000000D+00
 0.259946096612407D+02 -.241039650655579D+02 -.733622884336958D+01 0.639518146078288D+01
 0.158841897716553D+03 0.000000000000000D+00 0.000000000000000D+00 0.158841897716553D+03
 0.420768494748408D+03 0.000000000000000D+00 0.000000000000000D+00 -.420768494748408D+03
 0.137352513962771D+03 -.136357564802097D+02 -.377116414514669D+02 0.404055854572303D+02
 0.142521339612370D+03 0.986126372751811D+02 -.907286539213351D+01 -.468007669180132D+02
 0.276575869700676D+03 -.663773221989479D+02 0.590145792638988D+02 -.261926597031855D+03
 0.231606691891447D+02 -.185995585960236D+02 -.122300724202983D+02 0.639518146078288D+01
0.345366789383D-04 0.000000000000D+00 0.000000000000D+00 0.179377369654D-04 0.000000000000D+00  6 2 -2 25 23 21 21 2 0.20697885D+00 0.23997322D-02 0.18742759D+05 0.18742759D+05 0.18742759D+05 0.12369424D+01  1  2  2  2  6  2       -2 0.502838174709D-01 0.100000000000D+01
0.605576484372D-05 0.182255061932D-05 -.132629940839D-06 0.179377369654D-04 0.000000000000D+00  6 2 -2 25 23 21 21 4 0.20697885D+00 0.23997322D-02 0.18742759D+05 0.18742759D+05 0.18742759D+05 0.12369424D+01  1  2  3  2  6  2       -2 0.134901132113D-01 0.100000000000D+01
0.969129666290D-06 0.000000000000D+00 0.000000000000D+00 0.179377369654D-04 0.000000000000D+00  6 2 -2 25 23 21 21 4 0.20697885D+00 0.23997322D-02 0.18742759D+05 0.18742759D+05 0.18742759D+05 0.12369424D+01  1  2 15  2  6  2       -2 0.215887988587D-02 0.100000000000D+01
-.111675363087D-03 0.000000000000D+00 -.192713184512D-04 0.179377369654D-04 0.000000000000D+00  6 2 -2 25 23 21 21 4 0.20697885D+00 0.76566976D-02 0.18742759D+05 0.18742759D+05 0.18742759D+05 0.12369424D+01  1  2  5  2  6  2       -2 -.439649382792D-01 0.100000000000D+01
-.140737533978D-04 0.000000000000D+00 -.257355713322D-05 0.179377369654D-04 0.000000000000D+00  6 2 21 25 23 2 21 4 0.20697885D+00 0.76566976D-02 0.18742759D+05 0.18742759D+05 0.18742759D+05 0.12369424D+01  3  4  5  5  5  2       -2 -.917419361103D-01 0.100000000000D+01
  </mgrwgt>
  </event>
  <event>
  5     66 0.57005756E-03 0.50982422E+02 0.75467711E-02 0.12134339E+00
        2 -1    0    0  502    0 0.00000000E+00 0.00000000E+00 0.42041161E+03 0.42041173E+03 0.32000000E+00 0.0000E+00 0.9000E+01
       -2 -1    0    0    0  501 0.00000000E+00 0.00000000E+00 -.83524084E+02 0.83524697E+02 0.32000000E+00 0.0000E+00 0.9000E+01
       25  1    1    2    0    0 0.62550264E+01 0.13578398E+02 0.14482615E+01 0.12589915E+03 0.12500000E+03 0.0000E+00 0.9000E+01
       23  1    1    2    0    0 -.40422800E+02 0.24526696E+02 0.12666174E+03 0.16307670E+03 0.91188000E+02 0.0000E+00 0.9000E+01
       21  1    1    2  502  501 0.34167773E+02 -.38105094E+02 0.20877753E+03 0.21496058E+03 0.75000000E+00 0.0000E+00 0.9000E+01
#aMCatNLO 1  0  0  5  2 0.51414504D+00 0.00000000D+00  -5  6  0 0.00000000D+00 0.00000000D+00 0.00000000D+00 0.00000000D+00 0.00000000D+00
  <mgrwgt>
 0.1463625718D-01   25    2    0
 0.187389113928761D+03 0.000000000000000D+00 0.000000000000000D+00 0.187389113928761D+03
 0.187389113928761D+03 -.000000000000000D+00 -.000000000000000D+00 -.187389113928761D+03
 0.167986122161045D+03 0.625460720701846D+01 0.135788657278324D+02 -.111224239862258D+03
 0.105421105217749D+03 -.404230627040036D+02 0.245269893190718D+02 0.237225816028092D+02
 0.101371000478729D+03 0.341684554969851D+02 -.381058550469042D+02 0.875016582594484D+02
 0.000000000000000D+00 0.000000000000000D+00 0.000000000000000D+00 0.000000000000000D+00
 0.187389113928761D+03 0.000000000000000D+00 0.000000000000000D+00 0.187389113928761D+03
 0.187389113928761D+03 -.000000000000000D+00 -.000000000000000D+00 -.187389113928761D+03
 0.167976306298261D+03 0.626022142344264D+01 0.135726045575761D+02 -.111209862471187D+03
 0.105420870932080D+03 -.404195393561970D+02 0.245230599585302D+02 0.237316045092069D+02
 0.976718199313006D+02 0.325158393925164D+02 -.370304693926806D+02 0.843282214555141D+02
 0.370923069588081D+01 0.164347854023798D+01 -.106519512342570D+01 0.315003650646652D+01
0.456677773380D-05 0.000000000000D+00 0.000000000000D+00 0.525912716991D-05 0.000000000000D+00  6 2 -2 25 23 21 21 2 0.64678766D-01 0.12849916D-01 0.19570556D+05 0.19570556D+05 0.19570556D+05 0.12348652D+01  1  2  2  3  6  5       21 0.226036210589D-02 0.100000000000D+01
-.435231410938D-07 0.240995481990D-06 -.175376289580D-07 0.525912716991D-05 0.000000000000D+00  6 2 -2 25 23 21 21 4 0.64678766D-01 0.12849916D-01 0.19570556D+05 0.19570556D+05 0.19570556D+05 0.12348652D+01  1  2  3  3  6  5       21 -.328494031615D-04 0.100000000000D+01
0.242904825822D-06 0.000000000000D+00 0.000000000000D+00 0.525912716991D-05 0.000000000000D+00  6 2 -2 25 23 21 21 4 0.64678766D-01 0.12849916D-01 0.19570556D+05 0.19570556D+05 0.19570556D+05 0.12348652D+01  1  2 15  3  6  5       21 0.183334160926D-03 0.100000000000D+01
0.543731572933D-15 0.000000000000D+00 0.000000000000D+00 0.525896812190D-05 0.000000000000D+00  6 2 -2 25 23 21 21 4 0.64678766D-01 0.12849916D-01 0.19578181D+05 0.19578181D+05 0.19578181D+05 0.12348465D+01  1  2 12  3  6  5       21 0.410363847400D-12 0.100000000000D+01
0.554088421151D-15 0.000000000000D+00 0.000000000000D+00 0.525896812190D-05 0.000000000000D+00  6 2 -2 25 23 21 21 4 0.64678766D-01 0.12849916D-01 0.19578181D+05 0.19578181D+05 0.19578181D+05 0.12348465D+01  1  2 12  3  6  5       21 0.418180344166D-12 0.100000000000D+01
-.380779745883D-02 0.000000000000D+00 0.000000000000D+00 0.525912716991D-05 0.000000000000D+00  6 2 -2 25 23 21 21 4 0.64678766D-01 0.12849916D-01 0.19570556D+05 0.19570556D+05 0.19570556D+05 0.12348652D+01  1  2  4  3  6  5       21 -.287396246546D+01 0.100000000000D+01
-.388920967808D-02 0.000000000000D+00 0.000000000000D+00 0.525912716991D-05 0.000000000000D+00  6 2 -2 25 23 21 21 4 0.64678766D-01 0.12849916D-01 0.19570556D+05 0.19570556D+05 0.19570556D+05 0.12348652D+01  1  2  5  3  6  5       21 -.293540892234D+01 0.100000000000D+01
0.403287020709D-02 0.000000000000D+00 -.000000000000D+00 0.525912716991D-05 0.000000000000D+00  6 2 -2 25 23 21 21 4 0.64678766D-01 0.12849916D-01 0.19570556D+05 0.19570556D+05 0.19570556D+05 0.12348652D+01  1  2  6  3  6  5       21 0.304383773784D+01 0.100000000000D+01
0.368067458748D-02 0.000000000000D+00 0.000000000000D+00 0.525912716991D-05 0.160539045670D-03  6 2 -2 25 23 21 21 4 0.64678766D-01 0.12849916D-01 0.19578181D+05 0.19578181D+05 0.19578181D+05 0.12348465D+01  1  2 11  3  6  5       21 0.277787029470D+01 0.100000000000D+01
0.298032654410D-16 0.000000000000D+00 0.000000000000D+00 0.525896812190D-05 0.000000000000D+00  6 2 -2 25 23 1 -1 4 0.64678766D-01 0.12849916D-01 0.19578181D+05 0.19578181D+05 0.19578181D+05 0.12348465D+01  1  2 12  6  6  5       21 0.224930522343D-13 0.100000000000D+01
0.298032654410D-16 0.000000000000D+00 0.000000000000D+00 0.525896812190D-05 0.000000000000D+00  6 2 -2 25 23 3 -3 4 0.64678766D-01 0.12849916D-01 0.19578181D+05 0.19578181D+05 0.19578181D+05 0.12348465D+01  1  2 12  6  6  5       21 0.224930522343D-13 0.100000000000D+01
0.298525138322D-16 0.000000000000D+00 0.000000000000D+00 0.525896812190D-05 0.000000000000D+00  6 2 -2 25 23 1 -1 4 0.64678766D-01 0.12849916D-01 0.19578181D+05 0.19578181D+05 0.19578181D+05 0.12348465D+01  1  2 12  6  6  5       21 0.225302208673D-13 0.100000000000D+01
0.298525138322D-16 0.000000000000D+00 0.000000000000D+00 0.525896812190D-05 0.000000000000D+00  6 2 -2 25 23 3 -3 4 0.64678766D-01 0.12849916D-01 0.19578181D+05 0.19578181D+05 0.19578181D+05 0.12348465D+01  1  2 12  6  6  5       21 0.225302208673D-13 0.100000000000D+01
-.120762004717D-04 0.000000000000D+00 0.000000000000D+00 0.525912716991D-05 0.000000000000D+00  6 2 -2 25 23 1 -1 4 0.64678766D-01 0.12849916D-01 0.19570556D+05 0.19570556D+05 0.19570556D+05 0.12348652D+01  1  2  5  6  6  5       21 -.911459899230D-02 0.100000000000D+01
-.120762004717D-04 0.000000000000D+00 0.000000000000D+00 0.525912716991D-05 0.000000000000D+00  6 2 -2 25 23 3 -3 4 0.64678766D-01 0.12849916D-01 0.19570556D+05 0.19570556D+05 0.19570556D+05 0.12348652D+01  1  2  5  6  6  5       21 -.911459899230D-02 0.100000000000D+01
0.120389556841D-04 0.000000000000D+00 0.000000000000D+00 0.525912716991D-05 0.104205514423D-05  6 2 -2 25 23 1 -1 4 0.64678766D-01 0.12849916D-01 0.19578181D+05 0.19578181D+05 0.19578181D+05 0.12348465D+01  1  2 11  6  6  5       21 0.908601306074D-02 0.100000000000D+01
0.120389556841D-04 0.000000000000D+00 0.000000000000D+00 0.525912716991D-05 0.104205514423D-05  6 2 -2 25 23 3 -3 4 0.64678766D-01 0.12849916D-01 0.19578181D+05 0.19578181D+05 0.19578181D+05 0.12348465D+01  1  2 11  6  6  5       21 0.908601306074D-02 0.100000000000D+01
0.298032654410D-16 0.000000000000D+00 0.000000000000D+00 0.525896812190D-05 0.000000000000D+00  6 2 -2 25 23 2 -2 4 0.64678766D-01 0.12849916D-01 0.19578181D+05 0.19578181D+05 0.19578181D+05 0.12348465D+01  1  2 12  7  6  5       21 0.224930522343D-13 0.100000000000D+01
0.298525138322D-16 0.000000000000D+00 0.000000000000D+00 0.525896812190D-05 0.000000000000D+00  6 2 -2 25 23 2 -2 4 0.64678766D-01 0.12849916D-01 0.19578181D+05 0.19578181D+05 0.19578181D+05 0.12348465D+01  1  2 12  7  6  5       21 0.225302208673D-13 0.100000000000D+01
-.120762004717D-04 0.000000000000D+00 0.000000000000D+00 0.525912716991D-05 0.000000000000D+00  6 2 -2 25 23 2 -2 4 0.64678766D-01 0.12849916D-01 0.19570556D+05 0.19570556D+05 0.19570556D+05 0.12348652D+01  1  2  5  7  6  5       21 -.911459899230D-02 0.100000000000D+01
0.120435162881D-04 0.000000000000D+00 0.000000000000D+00 0.525912716991D-05 0.104267620726D-05  6 2 -2 25 23 2 -2 4 0.64678766D-01 0.12849916D-01 0.19578181D+05 0.19578181D+05 0.19578181D+05 0.12348465D+01  1  2 11  7  6  5       21 0.908945502937D-02 0.100000000000D+01
0.298032654410D-16 0.000000000000D+00 0.000000000000D+00 0.525896812190D-05 0.000000000000D+00  6 2 -2 25 23 4 -4 4 0.64678766D-01 0.12849916D-01 0.19578181D+05 0.19578181D+05 0.19578181D+05 0.12348465D+01  1  2 12  8  6  5       21 0.224930522343D-13 0.100000000000D+01
0.298525138322D-16 0.000000000000D+00 0.000000000000D+00 0.525896812190D-05 0.000000000000D+00  6 2 -2 25 23 4 -4 4 0.64678766D-01 0.12849916D-01 0.19578181D+05 0.19578181D+05 0.19578181D+05 0.12348465D+01  1  2 12  8  6  5       21 0.225302208673D-13 0.100000000000D+01
-.120762004717D-04 0.000000000000D+00 0.000000000000D+00 0.525912716991D-05 0.000000000000D+00  6 2 -2 25 23 4 -4 4 0.64678766D-01 0.12849916D-01 0.19570556D+05 0.19570556D+05 0.19570556D+05 0.12348652D+01  1  2  5  8  6  5       21 -.911459899230D-02 0.100000000000D+01
0.120385149016D-04 0.000000000000D+00 0.000000000000D+00 0.525912716991D-05 0.104201699144D-05  6 2 -2 25 23 4 -4 4 0.64678766D-01 0.12849916D-01 0.19578181D+05 0.19578181D+05 0.19578181D+05 0.12348465D+01  1  2 11  8  6  5       21 0.908568039436D-02 0.100000000000D+01
  </mgrwgt>
  </event>
  <event>
  6     66 0.57005756E-03 0.44685219E+02 0.75467711E-02 0.12046262E+00
        2 -1    0    0  502    0 0.00000000E+00 0.00000000E+00 0.68802160E+03 0.68802167E+03 0.32000000E+00 0.0000E+00 0.9000E+01
       -2 -1    0    0    0  503 0.00000000E+00 0.00000000E+00 -.34923150E+02 0.34924616E+02 0.32000000E+00 0.0000E+00 0.9000E+01
       25  1    1    2    0    0 0.23214937E+02 -.12271541E+02 0.38980209E+03 0.41019531E+03 0.12500000E+03 0.0000E+00 0.9000E+01
       23  1    1    2    0    0 -.15931467E+02 0.51240685E+02 0.16748931E+03 0.19810942E+03 0.91188000E+02 0.0000E+00 0.9000E+01
       21  1    1    2  502  501 -.88781765E+01 -.48922136E+02 0.62696579E+02 0.80022628E+02 0.75000000E+00 0.0000E+00 0.9000E+01
       21  1    1    2  501  503 0.15947061E+01 0.99529912E+01 0.33110464E+02 0.34618932E+02 0.75000000E+00 0.0000E+00 0.9000E+01
#aMCatNLO 2  0  0  2  1 0.10079937D+02 0.00000000D+00  -5  6  0 0.00000000D+00 0.00000000D+00 0.00000000D+00 0.00000000D+00 0.00000000D+00
  <mgrwgt>
 0.1941980819D-01    2    2    0
 0.149422090642054D+03 0.000000000000000D+00 0.000000000000000D+00 0.149422090642054D+03
 0.149422090642054D+03 0.000000000000000D+00 0.000000000000000D+00 -.149422090642054D+03
 0.135826675529018D+03 0.239404853899060D+02 -.774350031036120D+01 0.468057384035788D+02
 0.110450723236197D+03 -.153464128210005D+02 0.548919226866732D+02 -.252086365495395D+02
 0.525667825188919D+02 -.859407256890549D+01 -.471484223763120D+02 -.215971018540393D+02
 0.000000000000000D+00 0.000000000000000D+00 0.000000000000000D+00 0.000000000000000D+00
 0.157233796489201D+03 0.000000000000000D+00 0.000000000000000D+00 0.157233796489201D+03
 0.152794519598754D+03 0.000000000000000D+00 0.000000000000000D+00 -.152794519598754D+03
 0.136034062840651D+03 0.232153336786566D+02 -.122693678573357D+02 0.468057384035788D+02
 0.108767254389320D+03 -.159311470954863D+02 0.512424382609390D+02 -.252086365495395D+02
 0.542128125500194D+02 -.887889268142003D+01 -.489260615709217D+02 -.215971018540393D+02
 0.110141863079651D+02 0.159470609824973D+01 0.995299116731837D+01 0.443927689044652D+01
-.211395440509D-05 0.000000000000D+00 0.000000000000D+00 0.585488426031D-05 0.000000000000D+00  6 2 -2 25 23 21 21 4 0.10058244D+00 0.52538870D-02 0.20017733D+05 0.20017733D+05 0.20017733D+05 0.12337837D+01  1  2  8  2  6  2       -2 -.389997077026D-02 0.100000000000D+01
0.140069687273D-04 0.000000000000D+00 0.000000000000D+00 0.585488426031D-05 0.125858688563D-06  6 2 -2 25 23 21 21 4 0.10584084D+00 0.53724663D-02 0.21511939D+05 0.21511939D+05 0.21511939D+05 0.12303568D+01  1  2  1  2  6  2       -2 0.233197789651D-01 0.100000000000D+01
  </mgrwgt>
  </event>
  <event>
  5     66 0.57005756E-03 0.27913708E+02 0.75467711E-02 0.10506083E+00
        2 -1    0    0  502    0 0.00000000E+00 0.00000000E+00 0.22573524E+04 0.22573524E+04 0.32000000E+00 0.0000E+00 0.9000E+01
       -2 -1    0    0    0  501 0.00000000E+00 0.00000000E+00 -.38783450E+02 0.38784770E+02 0.32000000E+00 0.0000E+00 0.9000E+01
       25  1    1    2    0    0 -.79709162E+02 0.23369166E+03 0.10894414E+04 0.11240431E+04 0.12500000E+03 0.0000E+00 0.9000E+01
       23  1    1    2    0    0 0.10732369E+03 -.23773278E+03 0.10868893E+04 0.11214628E+04 0.91188000E+02 0.0000E+00 0.9000E+01
       21  1    1    2  502  501 -.27614525E+02 0.40411221E+01 0.42238229E+02 0.50631247E+02 0.75000000E+00 0.0000E+00 0.9000E+01
#aMCatNLO 1  0  0  1  5 0.69719441D+01 0.00000000D+00  -5  6  0 0.00000000D+00 0.00000000D+00 0.00000000D+00 0.00000000D+00 0.00000000D+00
  <mgrwgt>
 0.1031947210D+01    7    4    0
 0.295887570832296D+03 0.000000000000000D+00 0.000000000000000D+00 0.295887570832296D+03
 0.295887570832296D+03 0.000000000000000D+00 0.000000000000000D+00 -.295887570832296D+03
 0.277057560681573D+03 -.797066565945672D+02 0.233691294175769D+03 0.130812786757797D+02
 0.276615974113165D+03 0.107326188228599D+03 -.237733148957060D+03 0.128524315930702D+02
 0.381016068698551D+02 -.276195316340320D+02 0.404185478129139D+01 -.259337102688499D+02
 0.000000000000000D+00 0.000000000000000D+00 -.000000000000000D+00 0.000000000000000D+00
 0.443520821521900D+03 0.000000000000000D+00 0.000000000000000D+00 0.443520821521900D+03
 0.351633781481618D+03 0.000000000000000D+00 0.000000000000000D+00 -.351633781481618D+03
 0.339612584947047D+03 -.146311565984673D+03 0.279523726473683D+03 0.130812786757797D+02
 0.226746630171551D+03 0.529593263229121D+02 -.200322010043138D+03 0.128524315930702D+02
 0.461162891187567D+02 -.367156835575677D+02 0.103011346305471D+02 -.259337102688499D+02
 0.182679098766163D+03 0.130067923219328D+03 -.895028510610920D+02 0.918870400402818D+02
 0.295887570832296D+03 0.000000000000000D+00 0.000000000000000D+00 0.295887570832296D+03
 0.295887570832296D+03 0.000000000000000D+00 0.000000000000000D+00 -.295887570832296D+03
 0.277057560681573D+03 -.797066565945672D+02 0.233691294175769D+03 0.130812786757797D+02
 0.276615974113165D+03 0.107326188228599D+03 -.237733148957060D+03 0.128524315930702D+02
 0.000000000000000D+00 0.000000000000000D+00 -.000000000000000D+00 0.000000000000000D+00
 0.381016068698551D+02 -.276195316340320D+02 0.404185478129139D+01 -.259337102688499D+02
 0.443520821521900D+03 0.000000000000000D+00 0.000000000000000D+00 0.443520821521900D+03
 0.351633781481618D+03 0.000000000000000D+00 0.000000000000000D+00 -.351633781481618D+03
 0.339612584947047D+03 -.146311565984673D+03 0.279523726473683D+03 0.130812786757797D+02
 0.226746630171551D+03 0.529593263229121D+02 -.200322010043138D+03 0.128524315930702D+02
 0.182679098766163D+03 0.130067923219328D+03 -.895028510610920D+02 0.918870400402818D+02
 0.461162891187567D+02 -.367156835575677D+02 0.103011346305471D+02 -.259337102688499D+02
0.306027637110D-02 0.000000000000D+00 0.000000000000D+00 0.967724932469D-05 0.000000000000D+00  6 2 -2 25 23 21 21 2 0.34728508D+00 0.59667879D-02 0.84384298D+05 0.84384298D+05 0.84384298D+05 0.11704068D+01  1  2  2  1  6  1        2 0.338659857095D+00 0.100000000000D+01
0.106348244190D-02 0.161495220934D-03 -.117522670543D-04 0.967724932469D-05 0.000000000000D+00  6 2 -2 25 23 21 21 4 0.34728508D+00 0.59667879D-02 0.84384298D+05 0.84384298D+05 0.84384298D+05 0.11704068D+01  1  2  3  1  6  1        2 0.161215608963D+00 0.100000000000D+01
0.569247879290D-04 0.000000000000D+00 0.000000000000D+00 0.967724932469D-05 0.000000000000D+00  6 2 -2 25 23 21 21 4 0.34728508D+00 0.59667879D-02 0.84384298D+05 0.84384298D+05 0.84384298D+05 0.11704068D+01  1  2 15  1  6  1        2 0.862935201327D-02 0.100000000000D+01
-.474472713440D-03 0.000000000000D+00 0.000000000000D+00 0.967724932469D-05 0.000000000000D+00  6 2 -2 25 23 21 21 4 0.34728508D+00 0.59667879D-02 0.84384298D+05 0.84384298D+05 0.84384298D+05 0.11704068D+01  1  2  4  1  6  1        2 -.719263472720D-01 0.100000000000D+01
-.421781797881D-02 0.000000000000D+00 -.171616755300D-02 0.967724932469D-05 0.000000000000D+00  6 2 -2 25 23 21 21 4 0.54442302D+00 0.59667879D-02 0.84384298D+05 0.84384298D+05 0.84384298D+05 0.11704068D+01  1  2  5  1  6  1        2 -.112214481496D+00 0.100000000000D+01
0.466941528765D-02 0.000000000000D+00 0.155622627777D-02 0.967724932469D-05 0.000000000000D+00  6 2 -2 25 23 21 21 4 0.34728508D+00 0.59667879D-02 0.84384298D+05 0.84384298D+05 0.84384298D+05 0.11704068D+01  1  2  6  1  6  1        2 0.707846786598D+00 0.100000000000D+01
-.150810808389D-03 0.000000000000D+00 -.891178974943D-04 0.967724932469D-05 0.000000000000D+00  6 21 -2 25 23 -2 21 4 0.54442302D+00 0.59667879D-02 0.84384298D+05 0.84384298D+05 0.84384298D+05 0.11704068D+01  3  4  5  4  5  1        2 -.263565667595D-03 0.100000000000D+01
  </mgrwgt>
  </event>
  <event>
  5     66 0.57005756E-03 0.22456709E+02 0.75467711E-02 0.11990130E+00
        2 -1    0    0  502    0 0.00000000E+00 0.00000000E+00 0.40028215E+04 0.40028215E+04 0.32000000E+00 0.0000E+00 0.9000E+01
       -2 -1    0    0    0  501 0.00000000E+00 0.00000000E+00 -.54776083E+01 0.54869475E+01 0.32000000E+00 0.0000E+00 0.9000E+01
       25  1    1    2    0    0 0.37197225E+02 0.67347300E+02 0.19911656E+04 0.19965683E+04 0.12500000E+03 0.0000E+00 0.9000E+01
       23  1    1    2    0    0 -.21171736E+02 -.83064640E+02 0.15679983E+04 0.15729850E+04 0.91188000E+02 0.0000E+00 0.9000E+01
       21  1    1    2  502  501 -.16025489E+02 0.15717340E+02 0.43817995E+03 0.43875515E+03 0.75000000E+00 0.0000E+00 0.9000E+01
#aMCatNLO 1  0  0  2  1 0.79313724D+01 0.00000000D+00  -5  6  0 0.00000000D+00 0.00000000D+00 0.00000000D+00 0.00000000D+00 0.00000000D+00
  <mgrwgt>
 0.1261232133D+00    6    4    0
 0.148137203256745D+03 0.000000000000000D+00 0.000000000000000D+00 0.148137203256745D+03
 0.148137203256745D+03 0.000000000000000D+00 0.000000000000000D+00 -.148137203256745D+03
 0.146781129533304D+03 0.372011048165283D+02 0.673434942162077D+02 0.794716461305288D+00
 0.125496083548108D+03 -.211684180475325D+02 -.830678938389249D+02 -.925411975520888D+01
 0.239971934320776D+02 -.160326867689958D+02 0.157243996227172D+02 0.845940329390359D+01
 0.000000000000000D+00 -.000000000000000D+00 0.000000000000000D+00 0.000000000000000D+00
 0.164520113207779D+03 0.000000000000000D+00 0.000000000000000D+00 0.164520113207779D+03
 0.149153338424557D+03 0.000000000000000D+00 0.000000000000000D+00 -.149153338424557D+03
 0.146677846139662D+03 0.404851897448148D+02 0.651897874305684D+02 0.794716461305288D+00
 0.126286665086481D+03 -.183507297212607D+02 -.849157371805629D+02 -.925411975520888D+01
 0.234160391185562D+02 -.155020876211462D+02 0.153764320731160D+02 0.845940329390359D+01
 0.172929012876372D+02 -.663237240240783D+01 0.434951767687847D+01 0.153667747832219D+02
 0.148137203256745D+03 0.000000000000000D+00 0.000000000000000D+00 0.148137203256745D+03
 0.148137203256745D+03 0.000000000000000D+00 0.000000000000000D+00 -.148137203256745D+03
 0.146781129533304D+03 0.372011048165283D+02 0.673434942162077D+02 0.794716461305288D+00
 0.125496083548108D+03 -.211684180475325D+02 -.830678938389249D+02 -.925411975520888D+01
 0.000000000000000D+00 -.000000000000000D+00 0.000000000000000D+00 0.000000000000000D+00
 0.239971934320776D+02 -.160326867689958D+02 0.157243996227172D+02 0.845940329390359D+01
 0.164520113207779D+03 0.000000000000000D+00 0.000000000000000D+00 0.164520113207779D+03
 0.149153338424557D+03 0.000000000000000D+00 0.000000000000000D+00 -.149153338424557D+03
 0.146677846139662D+03 0.404851897448148D+02 0.651897874305684D+02 0.794716461305288D+00
 0.126286665086481D+03 -.183507297212607D+02 -.849157371805629D+02 -.925411975520888D+01
 0.172929012876372D+02 -.663237240240783D+01 0.434951767687847D+01 0.153667747832219D+02
 0.234160391185562D+02 -.155020876211462D+02 0.153764320731160D+02 0.845940329390359D+01
0.516931582519D-03 0.000000000000D+00 0.000000000000D+00 0.236512452039D-04 0.000000000000D+00  6 2 -2 25 23 21 21 2 0.61581941D+00 0.84342835D-03 0.21666383D+05 0.21666383D+05 0.21666383D+05 0.12300179D+01  1  2  2  2  6  2       -2 0.985277008090D-01 0.100000000000D+01
0.119825745953D-03 0.272792290640D-04 -.198515338808D-05 0.236512452039D-04 0.000000000000D+00  6 2 -2 25 23 21 21 4 0.61581941D+00 0.84342835D-03 0.21666383D+05 0.21666383D+05 0.21666383D+05 0.12300179D+01  1  2  3  2  6  2       -2 0.345539976852D-01 0.100000000000D+01
0.736580734560D-05 0.000000000000D+00 0.000000000000D+00 0.236512452039D-04 0.000000000000D+00  6 2 -2 25 23 21 21 4 0.61581941D+00 0.84342835D-03 0.21666383D+05 0.21666383D+05 0.21666383D+05 0.12300179D+01  1  2 15  2  6  2       -2 0.212406847914D-02 0.100000000000D+01
-.315573046206D-04 0.000000000000D+00 0.000000000000D+00 0.236512452039D-04 0.000000000000D+00  6 2 -2 25 23 21 21 4 0.61581941D+00 0.84342835D-03 0.21666383D+05 0.21666383D+05 0.21666383D+05 0.12300179D+01  1  2  4  2  6  2       -2 -.910013972486D-02 0.100000000000D+01
0.135857257437D-06 0.000000000000D+00 0.000000000000D+00 0.236512452039D-04 0.344654343612D-05  6 2 -2 25 23 21 21 4 0.68392461D+00 0.84921378D-03 0.22859747D+05 0.22859747D+05 0.22859747D+05 0.12274869D+01  1  2 11  2  6  2       -2 0.167002180718D-04 0.100000000000D+01
0.302382255172D-09 0.000000000000D+00 0.000000000000D+00 0.235540109506D-04 0.129087927896D-07  6 2 21 25 23 2 21 4 0.68392461D+00 0.84921378D-03 0.22859747D+05 0.22859747D+05 0.22859747D+05 0.12274869D+01  3  4 11  5  5  2       -2 0.885789643895D-06 0.100000000000D+01
  </mgrwgt>
  </event>
  <event>
  5     66 0.57005756E-03 0.26526484E+02 0.75467711E-02 0.88821279E-01
        2 -1    0    0  502    0 0.00000000E+00 0.00000000E+00 0.19789533E+04 0.19789534E+04 0.32000000E+00 0.0000E+00 0.9000E+01
       -2 -1    0    0    0  501 0.00000000E+00 0.00000000E+00 -.94405083E+02 0.94405625E+02 0.32000000E+00 0.0000E+00 0.9000E+01
       25  1    1    2    0    0 -.46962926E+02 -.80586246E+02 -.16650038E+02 0.15684987E+03 0.12500000E+03 0.0000E+00 0.9000E+01
       23  1    1    2    0    0 0.69184220E+02 0.95072937E+02 0.73001146E+03 0.74502168E+03 0.91188000E+02 0.0000E+00 0.9000E+01
       21  1    1    2  502  501 -.22221294E+02 -.14486691E+02 0.11711868E+04 0.11714874E+04 0.75000000E+00 0.0000E+00 0.9000E+01
#aMCatNLO 1  0  0  2  1 0.14484221D+03 0.00000000D+00  -5  6  0 0.00000000D+00 0.00000000D+00 0.00000000D+00 0.00000000D+00 0.00000000D+00
  <mgrwgt>
 0.2599834075D+00    5    4    0
 0.432231238397270D+03 0.000000000000000D+00 0.000000000000000D+00 0.432231238397270D+03
 0.432231238397270D+03 0.000000000000000D+00 0.000000000000000D+00 -.432231238397270D+03
 0.412492520019307D+03 -.469628803671984D+02 -.805862164608870D+02 -.381870958120689D+03
 0.195445669096062D+03 0.691842410248638D+02 0.950729510062426D+02 0.126721872639200D+03
 0.256524287679171D+03 -.222213606576653D+02 -.144867345453555D+02 0.255149085481490D+03
 0.000000000000000D+00 -.000000000000000D+00 0.000000000000000D+00 -.000000000000000D+00
 0.960776641914085D+03 0.000000000000000D+00 0.000000000000000D+00 0.960776641914085D+03
 0.608213291631911D+04 0.000000000000000D+00 0.000000000000000D+00 -.608213291631911D+04
 0.850983785684207D+03 0.487542809731389D+03 -.570109624125600D+03 -.381870958120689D+03
 0.364613867980653D+03 0.306113899309830D+03 -.121917468083777D+03 0.126721872639200D+03
 0.496875020476775D+03 0.296499469569117D+03 -.306385043200524D+03 0.255149085481490D+03
 0.533043688409156D+04 -.109015617861034D+04 0.998412135409902D+03 -.512135627440502D+04
 0.432231238397270D+03 0.000000000000000D+00 0.000000000000000D+00 0.432231238397270D+03
 0.432231238397270D+03 0.000000000000000D+00 0.000000000000000D+00 -.432231238397270D+03
 0.412492520019307D+03 -.469628803671984D+02 -.805862164608870D+02 -.381870958120689D+03
 0.195445669096062D+03 0.691842410248638D+02 0.950729510062426D+02 0.126721872639200D+03
 0.000000000000000D+00 -.000000000000000D+00 0.000000000000000D+00 -.000000000000000D+00
 0.256524287679171D+03 -.222213606576653D+02 -.144867345453555D+02 0.255149085481490D+03
 0.960776641914085D+03 0.000000000000000D+00 0.000000000000000D+00 0.960776641914085D+03
 0.608213291631911D+04 0.000000000000000D+00 0.000000000000000D+00 -.608213291631911D+04
 0.850983785684207D+03 0.487542809731389D+03 -.570109624125600D+03 -.381870958120689D+03
 0.364613867980653D+03 0.306113899309830D+03 -.121917468083777D+03 0.126721872639200D+03
 0.533043688409156D+04 -.109015617861034D+04 0.998412135409902D+03 -.512135627440502D+04
 0.496875020476775D+03 0.296499469569117D+03 -.306385043200524D+03 0.255149085481490D+03
0.448330779983D-02 0.000000000000D+00 0.000000000000D+00 0.602410053745D-05 0.000000000000D+00  6 2 -2 25 23 21 21 2 0.30445441D+00 0.14523903D-01 0.27437802D+05 0.27437802D+05 0.27437802D+05 0.12189888D+01  1  2  2  2  6  2       -2 0.189598396753D+00 0.100000000000D+01
0.958771628291D-03 0.236590652558D-03 -.172170824334D-04 0.602410053745D-05 0.000000000000D+00  6 2 -2 25 23 21 21 4 0.30445441D+00 0.14523903D-01 0.27437802D+05 0.27437802D+05 0.27437802D+05 0.12189888D+01  1  2  3  2  6  2       -2 0.602491234457D-01 0.100000000000D+01
0.139346678408D-03 0.000000000000D+00 0.000000000000D+00 0.602410053745D-05 0.000000000000D+00  6 2 -2 25 23 21 21 4 0.30445441D+00 0.14523903D-01 0.27437802D+05 0.27437802D+05 0.27437802D+05 0.12189888D+01  1  2 15  2  6  2       -2 0.875653281913D-02 0.100000000000D+01
0.362184573662D-01 0.000000000000D+00 -.149507485778D-01 0.602410053745D-05 0.000000000000D+00  6 2 -2 25 23 21 21 4 0.30445441D+00 0.43290899D+00 0.27437802D+05 0.27437802D+05 0.27437802D+05 0.12189888D+01  1  2  5  2  6  2       -2 0.388252996454D-03 0.100000000000D+01
0.789009004806D-02 0.000000000000D+00 -.506136280692D-02 0.602410053745D-05 0.000000000000D+00  6 2 21 25 23 2 21 4 0.30445441D+00 0.43290899D+00 0.27437802D+05 0.27437802D+05 0.27437802D+05 0.12189888D+01  3  4  5  5  5  2       -2 0.991101507041D-03 0.100000000000D+01
  </mgrwgt>
  </event>
  <event>
  6     66 0.57005756E-03 0.19703506E+02 0.75467711E-02 0.11679922E+00
        4 -1    0    0  502    0 0.00000000E+00 0.00000000E+00 0.37386160E+03 0.37386482E+03 0.15500000E+01 0.0000E+00 0.9000E+01
       -4 -1    0    0    0  503 0.00000000E+00 0.00000000E+00 -.54005127E+03 0.54005349E+03 0.15500000E+01 0.0000E+00 0.9000E+01
       25  1    1    2    0    0 -.13050664E+03 0.16316769E+02 0.20504209E+03 0.27379824E+03 0.12500000E+03 0.0000E+00 0.9000E+01
       23  1    1    2    0    0 0.10413870E+03 -.32258853E+02 0.74528437E+02 0.16048440E+03 0.91188000E+02 0.0000E+00 0.9000E+01
       21  1    1    2  502  501 0.10313627E+02 -.34120867E+01 0.14808086E+02 0.18380836E+02 0.75000000E+00 0.0000E+00 0.9000E+01
       21  1    1    2  501  503 0.16054314E+02 0.19354170E+02 -.46056827E+03 0.46125484E+03 0.75000000E+00 0.0000E+00 0.9000E+01
#aMCatNLO 2  0  0  2  2 0.96556125D+02 0.00000000D+00  -5  6  0 0.00000000D+00 0.00000000D+00 0.00000000D+00 0.00000000D+00 0.00000000D+00
  <mgrwgt>
 0.1768307598D-01    1    2    0
 0.171473853561380D+03 0.000000000000000D+00 0.000000000000000D+00 0.171473853561380D+03
 0.171473853561380D+03 0.000000000000000D+00 0.000000000000000D+00 -.171473853561380D+03
 0.180207083438547D+03 -.121984113423428D+03 0.266077969153670D+02 0.355175187342552D+02
 0.150900893349964D+03 0.111103350988276D+03 -.238486326423784D+02 -.392825201595076D+02
 0.118397303342480D+02 0.108807624351523D+02 -.275916427298867D+01 0.376500142525234D+01
 0.000000000000000D+00 0.000000000000000D+00 0.000000000000000D+00 -.000000000000000D+00
 0.172092058030917D+03 0.000000000000000D+00 0.000000000000000D+00 0.172092058030917D+03
 0.117324756806459D+04 0.000000000000000D+00 0.000000000000000D+00 -.117324756806459D+04
 0.184899662113690D+03 -.130518477349162D+03 0.163192519183578D+02 0.355175187342552D+02
 0.147450836772124D+03 0.104129384405208D+03 -.322560511239344D+02 -.392825201595076D+02
 0.115178694228024D+02 0.103347789407724D+02 -.341737100033648D+01 0.376500142525234D+01
 0.100147125778689D+04 0.160543140031824D+02 0.193541702059131D+02 -.100115551003367D+04
0.123343444792D-01 0.000000000000D+00 0.000000000000D+00 0.730613018402D-04 0.168931034386D-05  6 4 -4 25 23 21 21 4 0.57517541D-01 0.83085161D-01 0.32329731D+05 0.32329731D+05 0.32329731D+05 0.12115041D+01  1  2  1  2  6  2       -4 0.176830759781D-01 0.100000000000D+01
  </mgrwgt>
  </event>
  <event>
  5     66 0.57005756E-03 0.70969077E+02 0.75467711E-02 0.11616933E+00
        2 -1    0    0  502    0 0.00000000E+00 0.00000000E+00 0.18495475E+04 0.18495475E+04 0.32000000E+00 0.0000E+00 0.9000E+01
       -2 -1    0    0    0  501 0.00000000E+00 0.00000000E+00 -.23071107E+02 0.23073326E+02 0.32000000E+00 0.0000E+00 0.9000E+01
       25  1    1    2    0    0 0.11427080E+03 0.79321095E+02 0.57028188E+03 0.60016337E+03 0.12500000E+03 0.0000E+00 0.9000E+01
       23  1    1    2    0    0 -.63169303E+02 -.30076522E+02 0.50482935E+03 0.51774790E+03 0.91188000E+02 0.0000E+00 0.9000E+01
       21  1    1    2  502  501 -.51101492E+02 -.49244574E+02 0.75136515E+03 0.75470957E+03 0.75000000E+00 0.0000E+00 0.9000E+01
#aMCatNLO 1  0  0  1  5 0.31026951D+03 0.00000000D+00  -5  6  0 0.00000000D+00 0.00000000D+00 0.00000000D+00 0.00000000D+00 0.00000000D+00
  <mgrwgt>
 0.4353397690D-02    1    2    0
 0.206574954319420D+03 0.000000000000000D+00 0.000000000000000D+00 0.206574954319420D+03
 0.206574954319420D+03 0.000000000000000D+00 0.000000000000000D+00 -.206574954319420D+03
 0.199134668042852D+03 0.114271501074959D+03 0.793217754655560D+02 -.684083035574221D+02
 0.114937650718909D+03 -.631688958703401D+02 -.300761292679932D+02 -.727496775951710D+00
 0.990775898770797D+02 -.511026052046189D+02 -.492456461975628D+02 0.691358003333738D+02
 0.000000000000000D+00 0.000000000000000D+00 -.000000000000000D+00 0.000000000000000D+00
 0.271999174098430D+03 0.000000000000000D+00 0.000000000000000D+00 0.271999174098430D+03
 0.242329241639592D+03 0.000000000000000D+00 0.000000000000000D+00 -.242329241639592D+03
 0.208606545331532D+03 0.964358172994977D+02 0.117949683769521D+03 -.684083035574221D+02
 0.117294026611812D+03 -.733273263248857D+02 -.807535121819037D+01 -.727496775951710D+00
 0.963454561401913D+02 -.596509283489882D+02 -.307319829856336D+02 0.691358003333738D+02
 0.920823876544868D+02 0.365424373743762D+02 -.791423495656972D+02 0.296699324588375D+02
0.695900519297D-05 0.000000000000D+00 0.000000000000D+00 0.229578683960D-05 0.000000000000D+00  6 2 -2 25 23 21 21 4 0.28454594D+00 0.35495739D-02 0.34767379D+05 0.34767379D+05 0.34767379D+05 0.12082330D+01  1  2 14  1  6  1        2 0.435339769003D-02 0.100000000000D+01
  </mgrwgt>
  </event>
  <event>
  5     66 0.57005756E-03 0.25537934E+02 0.75467711E-02 0.12036794E+00
        2 -1    0    0  502    0 0.00000000E+00 0.00000000E+00 0.26763262E+03 0.26763281E+03 0.32000000E+00 0.0000E+00 0.9000E+01
       -2 -1    0    0    0  501 0.00000000E+00 0.00000000E+00 -.10688906E+03 0.10688954E+03 0.32000000E+00 0.0000E+00 0.9000E+01
       25  1    1    2    0    0 0.45263071E+01 0.45569194E+02 0.19545253E+02 0.13455131E+03 0.12500000E+03 0.0000E+00 0.9000E+01
       23  1    1    2    0    0 0.38062605E+01 -.21429517E+02 -.27335471E+01 0.93789314E+02 0.91188000E+02 0.0000E+00 0.9000E+01
       21  1    1    2  502  501 -.83325676E+01 -.24139676E+02 0.14393185E+03 0.14618172E+03 0.75000000E+00 0.0000E+00 0.9000E+01
#aMCatNLO 1  0  0  1  1 0.43685854D+02 0.00000000D+00  -5  6  0 0.00000000D+00 0.00000000D+00 0.00000000D+00 0.00000000D+00 0.00000000D+00
  <mgrwgt>
 0.1002792585D+00    7    4    0
 0.169136407828980D+03 0.000000000000000D+00 0.000000000000000D+00 0.169136407828980D+03
 0.169136407828980D+03 0.000000000000000D+00 0.000000000000000D+00 -.169136407828980D+03
 0.139682696585378D+03 0.452641790116755D+01 0.455695149347803D+02 -.422987774640781D+02
 0.105139149903999D+03 0.380634391077968D+01 -.214292757684850D+02 -.475950352936804D+02
 0.934509691685835D+02 -.833276181194723D+01 -.241402391662954D+02 0.898938127577585D+02
 0.000000000000000D+00 0.000000000000000D+00 -.000000000000000D+00 0.000000000000000D+00
 0.194745987474855D+03 0.000000000000000D+00 0.000000000000000D+00 0.194745987474855D+03
 0.190252397651664D+03 0.000000000000000D+00 0.000000000000000D+00 -.190252397651664D+03
 0.145590198919019D+03 -.490332324788873D+01 0.613047866601832D+02 -.422987774640781D+02
 0.103385766782021D+03 -.308648053369121D+01 -.992732000163940D+01 -.475950352936804D+02
 0.921060649773305D+02 -.144663792286625D+02 -.139051611099547D+02 0.898938127577585D+02
 0.439163544481485D+02 0.224561830102425D+02 -.374723055485891D+02 0.449358982319099D+01
 0.169136407828980D+03 0.000000000000000D+00 0.000000000000000D+00 0.169136407828980D+03
 0.169136407828980D+03 0.000000000000000D+00 0.000000000000000D+00 -.169136407828980D+03
 0.139682696585378D+03 0.452641790116755D+01 0.455695149347803D+02 -.422987774640781D+02
 0.105139149903999D+03 0.380634391077968D+01 -.214292757684850D+02 -.475950352936804D+02
 0.000000000000000D+00 0.000000000000000D+00 -.000000000000000D+00 0.000000000000000D+00
 0.934509691685835D+02 -.833276181194723D+01 -.241402391662954D+02 0.898938127577585D+02
 0.194745987474855D+03 0.000000000000000D+00 0.000000000000000D+00 0.194745987474855D+03
 0.190252397651664D+03 0.000000000000000D+00 0.000000000000000D+00 -.190252397651664D+03
 0.145590198919019D+03 -.490332324788873D+01 0.613047866601832D+02 -.422987774640781D+02
 0.103385766782021D+03 -.308648053369121D+01 -.992732000163940D+01 -.475950352936804D+02
 0.439163544481485D+02 0.224561830102425D+02 -.374723055485891D+02 0.449358982319099D+01
 0.921060649773305D+02 -.144663792286625D+02 -.139051611099547D+02 0.898938127577585D+02
0.121482364767D-03 0.000000000000D+00 0.000000000000D+00 0.302536849181D-04 0.000000000000D+00  6 2 -2 25 23 21 21 2 0.41174300D-01 0.16444522D-01 0.15927906D+05 0.15927906D+05 0.15927906D+05 0.12448617D+01  1  2  2  1  6  1        2 0.657511557084D-01 0.100000000000D+01
0.153857280297D-04 0.641080051555D-05 -.466524267746D-06 0.302536849181D-04 0.000000000000D+00  6 2 -2 25 23 21 21 4 0.41174300D-01 0.16444522D-01 0.15927906D+05 0.15927906D+05 0.15927906D+05 0.12448617D+01  1  2  3  1  6  1        2 0.129047749565D-01 0.100000000000D+01
0.440481216883D-05 0.000000000000D+00 0.000000000000D+00 0.302536849181D-04 0.000000000000D+00  6 2 -2 25 23 21 21 4 0.41174300D-01 0.16444522D-01 0.15927906D+05 0.15927906D+05 0.15927906D+05 0.12448617D+01  1  2 15  1  6  1        2 0.369453493879D-02 0.100000000000D+01
-.752848257113D-04 0.000000000000D+00 0.000000000000D+00 0.302536849181D-04 0.000000000000D+00  6 2 -2 25 23 21 21 4 0.41174300D-01 0.16444522D-01 0.15927906D+05 0.15927906D+05 0.15927906D+05 0.12448617D+01  1  2  4  1  6  1        2 -.631451258964D-01 0.100000000000D+01
-.399381866712D-03 0.000000000000D+00 -.154683191595D-03 0.302536849181D-04 0.000000000000D+00  6 2 -2 25 23 21 21 4 0.52717136D-01 0.16444522D-01 0.15927906D+05 0.15927906D+05 0.15927906D+05 0.12448617D+01  1  2  5  1  6  1        2 -.257947267366D+00 0.100000000000D+01
0.429046192252D-03 0.000000000000D+00 0.150077111296D-03 0.302536849181D-04 0.000000000000D+00  6 2 -2 25 23 21 21 4 0.41174300D-01 0.16444522D-01 0.15927906D+05 0.15927906D+05 0.15927906D+05 0.12448617D+01  1  2  6  1  6  1        2 0.359862370261D+00 0.100000000000D+01
-.108578861654D-04 0.000000000000D+00 -.519048155902D-05 0.302536849181D-04 0.000000000000D+00  6 21 -2 25 23 -2 21 4 0.52717136D-01 0.16444522D-01 0.15927906D+05 0.15927906D+05 0.15927906D+05 0.12448617D+01  3  4  5  4  5  1        2 -.208411840753D-01 0.100000000000D+01
  </mgrwgt>
  </event>
  <event>
  5     66 0.57005756E-03 0.68099104E+02 0.75467711E-02 0.11171177E+00
        2 -1    0    0  502    0 0.00000000E+00 0.00000000E+00 0.42173095E+04 0.42173095E+04 0.32000000E+00 0.0000E+00 0.9000E+01
       -2 -1    0    0    0  501 0.00000000E+00 0.00000000E+00 -.18979032E+02 0.18981729E+02 0.32000000E+00 0.0000E+00 0.9000E+01
       25  1    1    2    0    0 -.13754298E+03 -.30257070E+02 0.61261061E+03 0.64089806E+03 0.12500000E+03 0.0000E+00 0.9000E+01
       23  1    1    2    0    0 0.11705624E+03 -.34686803E+02 0.13392653E+04 0.13479066E+04 0.91188000E+02 0.0000E+00 0.9000E+01
       21  1    1    2  502  501 0.20486741E+02 0.64943873E+02 0.22464546E+04 0.22474866E+04 0.75000000E+00 0.0000E+00 0.9000E+01
#aMCatNLO 1  0  0  5  5 0.69153023D+02 0.00000000D+00  -5  6  0 0.00000000D+00 0.00000000D+00 0.00000000D+00 0.00000000D+00 0.00000000D+00
  <mgrwgt>
 0.8998823960D-02    4    2    0
 0.282924356404973D+03 0.000000000000000D+00 0.000000000000000D+00 0.282924356404973D+03
 0.282924356404973D+03 -.000000000000000D+00 -.000000000000000D+00 -.282924356404973D+03
 0.252875661623496D+03 -.137543083175472D+03 -.302573949672121D+02 -.168782376336821D+03
 0.154540350416094D+03 0.117056177381847D+03 -.346870021560541D+02 0.257319214382523D+02
 0.158432700770355D+03 0.204869057936244D+02 0.649443971232661D+02 0.143050454898569D+03
 0.000000000000000D+00 0.000000000000000D+00 -.000000000000000D+00 0.000000000000000D+00
 0.282924356404973D+03 0.000000000000000D+00 0.000000000000000D+00 0.282924356404973D+03
 0.282924356404973D+03 -.000000000000000D+00 -.000000000000000D+00 -.282924356404973D+03
 0.228712931665144D+03 -.132981889736901D+03 -.157982101095968D+02 -.136933701732629D+03
 0.159764350455177D+03 0.120033001499579D+03 -.252503380928931D+02 0.465176881364631D+02
 0.105103121646600D+03 -.166344490015849D+02 0.918253527361536D+02 0.483535508639718D+02
 0.722683090430239D+02 0.295833372389073D+02 -.507768045336637D+02 0.420624627321939D+02
0.591552926239D-03 0.000000000000D+00 0.000000000000D+00 0.207096461207D-05 0.000000000000D+00  6 2 -2 25 23 21 21 2 0.64881706D+00 0.29200595D-02 0.41776642D+05 0.41776642D+05 0.41776642D+05 0.12000884D+01  1  2  2  3  6  5       21 0.116476531766D-01 0.100000000000D+01
0.643288897611D-05 0.312171055592D-04 -.227171899622D-05 0.207096461207D-05 0.000000000000D+00  6 2 -2 25 23 21 21 4 0.64881706D+00 0.29200595D-02 0.41776642D+05 0.41776642D+05 0.41776642D+05 0.12000884D+01  1  2  3  3  6  5       21 0.182422050025D-03 0.100000000000D+01
0.160891587745D-04 0.000000000000D+00 0.000000000000D+00 0.207096461207D-05 0.000000000000D+00  6 2 -2 25 23 21 21 4 0.64881706D+00 0.29200595D-02 0.41776642D+05 0.41776642D+05 0.41776642D+05 0.12000884D+01  1  2 15  3  6  5       21 0.456251823670D-03 0.100000000000D+01
-.115929748554D-03 0.000000000000D+00 0.000000000000D+00 0.207096461207D-05 0.000000000000D+00  6 2 -2 25 23 21 21 4 0.64881706D+00 0.29200595D-02 0.41776642D+05 0.41776642D+05 0.41776642D+05 0.12000884D+01  1  2  4  3  6  5       21 -.328750309054D-02 0.100000000000D+01
  </mgrwgt>
  </event>
  <event>
  5     66 0.57005756E-03 0.75581132E+02 0.75467711E-02 0.11941948E+00
        4 -1    0    0  502    0 0.00000000E+00 0.00000000E+00 0.35737525E+03 0.35737862E+03 0.15500000E+01 0.0000E+00 0.9000E+01
       -4 -1    0    0    0  501 0.00000000E+00 0.00000000E+00 -.12364851E+03 0.12365822E+03 0.15500000E+01 0.0000E+00 0.9000E+01
       25  1    1    2    0    0 0.51532802E+02 0.85013871E+01 -.16012841E+02 0.13641596E+03 0.12500000E+03 0.0000E+00 0.9000E+01
       23  1    1    2    0    0 0.19087178E+02 -.35426940E+02 0.24989372E+03 0.26903812E+03 0.91188000E+02 0.0000E+00 0.9000E+01
       21  1    1    2  502  501 -.70619980E+02 0.26925553E+02 -.15413020E+00 0.75582758E+02 0.75000000E+00 0.0000E+00 0.9000E+01
#aMCatNLO 1  0  0  5  1 0.12053810D+02 0.00000000D+00  -5  6  0 0.00000000D+00 0.00000000D+00 0.00000000D+00 0.00000000D+00 0.00000000D+00
  <mgrwgt>
 0.2929082541D-02   20    2    0
 0.210219080575185D+03 0.000000000000000D+00 0.000000000000000D+00 0.210219080575185D+03
 0.210219080575185D+03 -.000000000000000D+00 -.000000000000000D+00 -.210219080575185D+03
 0.164979577969045D+03 0.515338421001011D+02 0.850099052937947D+01 -.941554959907567D+02
 0.168896902570364D+03 0.190882430484727D+02 -.354273462371484D+02 0.136350483936724D+03
 0.865616806109611D+02 -.706220851485739D+02 0.269263557077690D+02 -.421949879459671D+02
 0.000000000000000D+00 -.000000000000000D+00 0.000000000000000D+00 0.000000000000000D+00
 0.210219080575185D+03 0.000000000000000D+00 0.000000000000000D+00 0.210219080575185D+03
 0.210219080575185D+03 -.000000000000000D+00 -.000000000000000D+00 -.210219080575185D+03
 0.165065818197223D+03 0.499756599446883D+02 0.909508466984384D+01 -.950864721454107D+02
 0.167831179709972D+03 0.174985111657372D+02 -.348212230100522D+02 0.135400657582996D+03
 0.213350588881774D+02 -.761447253533710D+01 0.131440118488581D+02 -.149813049594378D+02
 0.662061043549979D+02 -.598596985750884D+02 0.125821264913502D+02 -.253328804781472D+02
0.112842220893D-03 0.000000000000D+00 0.000000000000D+00 0.114713516857D-05 0.000000000000D+00  6 4 -4 25 23 21 21 2 0.54981814D-01 0.19023853D-01 0.24137880D+05 0.24137880D+05 0.24137880D+05 0.12249350D+01  1  2  2  3  6  5       21 0.228118444325D-02 0.100000000000D+01
-.694085347676D-05 0.595484759675D-05 -.433343840270D-06 0.114713516857D-05 0.000000000000D+00  6 4 -4 25 23 21 21 4 0.54981814D-01 0.19023853D-01 0.24137880D+05 0.24137880D+05 0.24137880D+05 0.12249350D+01  1  2  3  3  6  5       21 -.210536678112D-03 0.100000000000D+01
0.434695285402D-05 0.000000000000D+00 0.000000000000D+00 0.114713516857D-05 0.000000000000D+00  6 4 -4 25 23 21 21 4 0.54981814D-01 0.19023853D-01 0.24137880D+05 0.24137880D+05 0.24137880D+05 0.12249350D+01  1  2 15  3  6  5       21 0.131855976626D-03 0.100000000000D+01
0.236862476423D-04 0.000000000000D+00 0.000000000000D+00 0.114729083939D-05 0.000000000000D+00  6 4 -4 25 23 21 21 4 0.54981814D-01 0.19023853D-01 0.24095015D+05 0.24095015D+05 0.24095015D+05 0.12250181D+01  1  2 12  3  6  5       21 0.718566464006D-03 0.100000000000D+01
0.222014506710D-04 0.000000000000D+00 0.000000000000D+00 0.114729083939D-05 0.000000000000D+00  6 4 -4 25 23 21 21 4 0.54981814D-01 0.19023853D-01 0.24095015D+05 0.24095015D+05 0.24095015D+05 0.12250181D+01  1  2 12  3  6  5       21 0.673522380809D-03 0.100000000000D+01
-.177128545375D-03 0.000000000000D+00 0.000000000000D+00 0.114713516857D-05 0.000000000000D+00  6 4 -4 25 23 21 21 4 0.54981814D-01 0.19023853D-01 0.24137880D+05 0.24137880D+05 0.24137880D+05 0.12249350D+01  1  2  4  3  6  5       21 -.537283428713D-02 0.100000000000D+01
-.394475885040D-04 0.000000000000D+00 0.000000000000D+00 0.114713516857D-05 0.000000000000D+00  6 4 -4 25 23 21 21 4 0.54981814D-01 0.19023853D-01 0.24137880D+05 0.24137880D+05 0.24137880D+05 0.12249350D+01  1  2  5  3  6  5       21 -.119656239264D-02 0.100000000000D+01
0.195248677268D-03 0.000000000000D+00 -.000000000000D+00 0.114713516857D-05 0.000000000000D+00  6 4 -4 25 23 21 21 4 0.54981814D-01 0.19023853D-01 0.24137880D+05 0.24137880D+05 0.24137880D+05 0.12249350D+01  1  2  6  3  6  5       21 0.592247164636D-02 0.100000000000D+01
0.376128231605D-05 0.000000000000D+00 0.000000000000D+00 0.114729083939D-05 0.000000000000D+00  6 4 -4 25 23 1 -1 4 0.54981814D-01 0.19023853D-01 0.24095015D+05 0.24095015D+05 0.24095015D+05 0.12250181D+01  1  2 12  6  6  5       21 0.114105508597D-03 0.100000000000D+01
0.376128231605D-05 0.000000000000D+00 0.000000000000D+00 0.114729083939D-05 0.000000000000D+00  6 4 -4 25 23 3 -3 4 0.54981814D-01 0.19023853D-01 0.24095015D+05 0.24095015D+05 0.24095015D+05 0.12250181D+01  1  2 12  6  6  5       21 0.114105508597D-03 0.100000000000D+01
0.359894585321D-05 0.000000000000D+00 0.000000000000D+00 0.114729083939D-05 0.000000000000D+00  6 4 -4 25 23 1 -1 4 0.54981814D-01 0.19023853D-01 0.24095015D+05 0.24095015D+05 0.24095015D+05 0.12250181D+01  1  2 12  6  6  5       21 0.109180729465D-03 0.100000000000D+01
0.359894585321D-05 0.000000000000D+00 0.000000000000D+00 0.114729083939D-05 0.000000000000D+00  6 4 -4 25 23 3 -3 4 0.54981814D-01 0.19023853D-01 0.24095015D+05 0.24095015D+05 0.24095015D+05 0.12250181D+01  1  2 12  6  6  5       21 0.109180729465D-03 0.100000000000D+01
-.751434874961D-05 0.000000000000D+00 0.000000000000D+00 0.114713516857D-05 0.000000000000D+00  6 4 -4 25 23 1 -1 4 0.54981814D-01 0.19023853D-01 0.24137880D+05 0.24137880D+05 0.24137880D+05 0.12249350D+01  1  2  5  6  6  5       21 -.227932491186D-03 0.100000000000D+01
-.751434874961D-05 0.000000000000D+00 0.000000000000D+00 0.114713516857D-05 0.000000000000D+00  6 4 -4 25 23 3 -3 4 0.54981814D-01 0.19023853D-01 0.24137880D+05 0.24137880D+05 0.24137880D+05 0.12249350D+01  1  2  5  6  6  5       21 -.227932491186D-03 0.100000000000D+01
0.376128231605D-05 0.000000000000D+00 0.000000000000D+00 0.114729083939D-05 0.000000000000D+00  6 4 -4 25 23 4 -4 4 0.54981814D-01 0.19023853D-01 0.24095015D+05 0.24095015D+05 0.24095015D+05 0.12250181D+01  1  2 12  7  6  5       21 0.114105508597D-03 0.100000000000D+01
0.359894585321D-05 0.000000000000D+00 0.000000000000D+00 0.114729083939D-05 0.000000000000D+00  6 4 -4 25 23 4 -4 4 0.54981814D-01 0.19023853D-01 0.24095015D+05 0.24095015D+05 0.24095015D+05 0.12250181D+01  1  2 12  7  6  5       21 0.109180729465D-03 0.100000000000D+01
-.751434874961D-05 0.000000000000D+00 0.000000000000D+00 0.114713516857D-05 0.000000000000D+00  6 4 -4 25 23 4 -4 4 0.54981814D-01 0.19023853D-01 0.24137880D+05 0.24137880D+05 0.24137880D+05 0.12249350D+01  1  2  5  7  6  5       21 -.227932491186D-03 0.100000000000D+01
0.376128231605D-05 0.000000000000D+00 0.000000000000D+00 0.114729083939D-05 0.000000000000D+00  6 4 -4 25 23 2 -2 4 0.54981814D-01 0.19023853D-01 0.24095015D+05 0.24095015D+05 0.24095015D+05 0.12250181D+01  1  2 12  8  6  5       21 0.114105508597D-03 0.100000000000D+01
0.359894585321D-05 0.000000000000D+00 0.000000000000D+00 0.114729083939D-05 0.000000000000D+00  6 4 -4 25 23 2 -2 4 0.54981814D-01 0.19023853D-01 0.24095015D+05 0.24095015D+05 0.24095015D+05 0.12250181D+01  1  2 12  8  6  5       21 0.109180729465D-03 0.100000000000D+01
-.751434874961D-05 0.000000000000D+00 0.000000000000D+00 0.114713516857D-05 0.000000000000D+00  6 4 -4 25 23 2 -2 4 0.54981814D-01 0.19023853D-01 0.24137880D+05 0.24137880D+05 0.24137880D+05 0.12249350D+01  1  2  5  8  6  5       21 -.227932491186D-03 0.100000000000D+01
  </mgrwgt>
  </event>
  <event>
  5     66 0.57005756E-03 0.21647410E+02 0.75467711E-02 0.10511596E+00
        2 -1    0    0  502    0 0.00000000E+00 0.00000000E+00 0.10306710E+04 0.10306711E+04 0.32000000E+00 0.0000E+00 0.9000E+01
       -2 -1    0    0    0  501 0.00000000E+00 0.00000000E+00 -.37436380E+02 0.37437748E+02 0.32000000E+00 0.0000E+00 0.9000E+01
       25  1    1    2    0    0 0.17355610E+02 -.49328812E+02 0.66661948E+03 0.68025074E+03 0.12500000E+03 0.0000E+00 0.9000E+01
       23  1    1    2    0    0 -.81882916E+01 0.68936919E+02 0.78764089E+02 0.13906250E+03 0.91188000E+02 0.0000E+00 0.9000E+01
       21  1    1    2  502  501 -.91673189E+01 -.19608106E+02 0.24785109E+03 0.24879558E+03 0.75000000E+00 0.0000E+00 0.9000E+01
#aMCatNLO 1  0  0  1  1 0.52462178D+02 0.00000000D+00  -5  6  0 0.00000000D+00 0.00000000D+00 0.00000000D+00 0.00000000D+00 0.00000000D+00
  <mgrwgt>
 0.1152608009D+00    5    4    0
 0.196431538456266D+03 0.000000000000000D+00 0.000000000000000D+00 0.196431538456266D+03
 0.196431538456266D+03 0.000000000000000D+00 0.000000000000000D+00 -.196431538456266D+03
 0.164107302755267D+03 0.173560447556427D+02 -.493278831960845D+02 0.925836619898041D+02
 0.178951684160148D+03 -.818781803445015D+01 0.689379313865117D+02 -.137437168086863D+03
 0.498040899971172D+02 -.916822672119251D+01 -.196100481904272D+02 0.448535060970587D+02
 0.000000000000000D+00 -.000000000000000D+00 -.000000000000000D+00 0.000000000000000D+00
 0.772476925923755D+03 0.000000000000000D+00 0.000000000000000D+00 0.772476925923755D+03
 0.310754930842029D+03 0.000000000000000D+00 0.000000000000000D+00 -.310754930842029D+03
 0.216555771205815D+03 0.150449572703745D+03 -.803701737981901D+01 0.925836619898041D+02
 0.244995385451989D+03 0.140039354543123D+03 0.114923851119676D+03 -.137437168086863D+03
 0.529026257941314D+02 0.267417421822212D+02 -.846935840395388D+01 0.448535060970587D+02
 0.568778074313849D+03 -.317230669429089D+03 -.984174753359026D+02 0.461721995081726D+03
 0.196431538456266D+03 0.000000000000000D+00 0.000000000000000D+00 0.196431538456266D+03
 0.196431538456266D+03 0.000000000000000D+00 0.000000000000000D+00 -.196431538456266D+03
 0.164107302755267D+03 0.173560447556427D+02 -.493278831960845D+02 0.925836619898041D+02
 0.178951684160148D+03 -.818781803445015D+01 0.689379313865117D+02 -.137437168086863D+03
 0.000000000000000D+00 -.000000000000000D+00 -.000000000000000D+00 0.000000000000000D+00
 0.498040899971172D+02 -.916822672119251D+01 -.196100481904272D+02 0.448535060970587D+02
 0.772476925923755D+03 0.000000000000000D+00 0.000000000000000D+00 0.772476925923755D+03
 0.310754930842029D+03 0.000000000000000D+00 0.000000000000000D+00 -.310754930842029D+03
 0.216555771205815D+03 0.150449572703745D+03 -.803701737981901D+01 0.925836619898041D+02
 0.244995385451989D+03 0.140039354543123D+03 0.114923851119676D+03 -.137437168086863D+03
 0.568778074313849D+03 -.317230669429089D+03 -.984174753359026D+02 0.461721995081726D+03
 0.529026257941314D+02 0.267417421822212D+02 -.846935840395388D+01 0.448535060970587D+02
0.156107463335D-03 0.000000000000D+00 0.000000000000D+00 0.134928383522D-04 0.000000000000D+00  6 2 -2 25 23 21 21 2 0.15856488D+00 0.57595521D-02 0.18462205D+05 0.18462205D+05 0.18462205D+05 0.12376698D+01  1  2  2  1  6  1        2 0.929952614563D-01 0.100000000000D+01
0.178115466521D-04 0.823801716692D-05 -.599493763245D-06 0.134928383522D-04 0.000000000000D+00  6 2 -2 25 23 21 21 4 0.15856488D+00 0.57595521D-02 0.18462205D+05 0.18462205D+05 0.18462205D+05 0.12376698D+01  1  2  3  1  6  1        2 0.162535543216D-01 0.100000000000D+01
0.609837800320D-05 0.000000000000D+00 0.000000000000D+00 0.134928383522D-04 0.000000000000D+00  6 2 -2 25 23 21 21 4 0.15856488D+00 0.57595521D-02 0.18462205D+05 0.18462205D+05 0.18462205D+05 0.12376698D+01  1  2 15  1  6  1        2 0.556494728308D-02 0.100000000000D+01
0.498859563028D-04 0.000000000000D+00 -.108687089625D-03 0.134928383522D-04 0.000000000000D+00  6 2 -2 25 23 21 21 4 0.67401930D+00 0.57595521D-02 0.18462205D+05 0.18462205D+05 0.18462205D+05 0.12376698D+01  1  2  5  1  6  1        2 0.444641267058D-03 0.100000000000D+01
0.882746759913D-05 0.000000000000D+00 -.189076167958D-04 0.134928383522D-04 0.000000000000D+00  6 21 -2 25 23 -2 21 4 0.67401930D+00 0.57595521D-02 0.18462205D+05 0.18462205D+05 0.18462205D+05 0.12376698D+01  3  4  5  4  5  1        2 0.239659553228D-05 0.100000000000D+01
  </mgrwgt>
  </event>
  <event>
  6     66 -.57005756E-03 0.22603371E+02 0.75467711E-02 0.11407678E+00
        2 -1    0    0  502    0 0.00000000E+00 0.00000000E+00 0.92164646E+03 0.92164651E+03 0.32000000E+00 0.0000E+00 0.9000E+01
       -2 -1    0    0    0  501 0.00000000E+00 0.00000000E+00 -.21825047E+03 0.21825071E+03 0.32000000E+00 0.0000E+00 0.9000E+01
       25  1    1    2    0    0 -.11207227E+03 0.44540491E+02 0.99565670E+02 0.20020582E+03 0.12500000E+03 0.0000E+00 0.9000E+01
       23  1    1    2    0    0 0.14699874E+03 -.44840258E+02 -.10993522E+03 0.20981011E+03 0.91188000E+02 0.0000E+00 0.9000E+01
        3  1    1    2  502    0 -.24136240E+02 0.29677583E+02 0.68875207E+03 0.68981373E+03 0.50000000E+00 0.0000E+00 0.9000E+01
       -3  1    1    2    0  501 -.10790230E+02 -.29377816E+02 0.25013473E+02 0.40067555E+02 0.50000000E+00 0.0000E+00 0.9000E+01
#aMCatNLO 2  0  0  5  2 0.31317980D+02 0.00000000D+00  -5  6  0 0.00000000D+00 0.00000000D+00 0.00000000D+00 0.00000000D+00 0.00000000D+00
  <mgrwgt>
 -.6449194830D-03    2    2    0
 0.448497423630663D+03 0.000000000000000D+00 0.000000000000000D+00 0.448497423630663D+03
 0.448497423630663D+03 -.000000000000000D+00 -.000000000000000D+00 -.448497423630663D+03
 0.177117471717843D+03 -.111420859066786D+03 0.445349004205792D+02 -.367101293523965D+02
 0.364349043457756D+03 0.148320469702201D+03 -.448516021797955D+02 -.316898005947979D+03
 0.355528332085726D+03 -.368996106354154D+02 0.316701759216367D+00 0.353608135300376D+03
 0.000000000000000D+00 0.000000000000000D+00 0.000000000000000D+00 -.000000000000000D+00
 0.448497423630663D+03 0.000000000000000D+00 0.000000000000000D+00 0.448497423630663D+03
 0.448497423630663D+03 -.000000000000000D+00 -.000000000000000D+00 -.448497423630663D+03
 0.176343289383774D+03 -.112073307691041D+03 0.445405002527601D+02 -.304577289224370D+02
 0.352815627259982D+03 0.146996664758999D+03 -.448402402345839D+02 -.304212013076883D+03
 0.336483752402333D+03 -.241145356372011D+02 0.297274700625500D+02 0.334299390255856D+03
 0.313521782152365D+02 -.108088214307569D+02 -.294277300807262D+02 0.370351743464324D+00
-.137303511711D-04 0.000000000000D+00 0.000000000000D+00 0.113777418047D-04 0.000000000000D+00  6 2 -2 25 23 3 -3 4 0.14179179D+00 0.33577018D-01 0.44525656D+05 0.44525656D+05 0.44525656D+05 0.11973016D+01  1  2 13  6  6  5       21 -.701387364935D-03 0.100000000000D+01
0.110541462265D-05 0.000000000000D+00 0.000000000000D+00 0.113777418047D-04 0.266119448279D-10  6 2 -2 25 23 3 -3 4 0.14179179D+00 0.33577018D-01 0.44525656D+05 0.44525656D+05 0.44525656D+05 0.11973016D+01  1  2  1  6  6  5       21 0.564678819700D-04 0.100000000000D+01
  </mgrwgt>
  </event>
  <event>
  5     66 0.57005756E-03 0.21516352E+02 0.75467711E-02 0.12098631E+00
        2 -1    0    0  502    0 0.00000000E+00 0.00000000E+00 0.43355966E+03 0.43355978E+03 0.32000000E+00 0.0000E+00 0.9000E+01
       -2 -1    0    0    0  501 0.00000000E+00 0.00000000E+00 -.46988880E+02 0.46989970E+02 0.32000000E+00 0.0000E+00 0.9000E+01
       25  1    1    2    0    0 -.36998806E+02 -.25827010E+02 0.91627482E+02 0.16142039E+03 0.12500000E+03 0.0000E+00 0.9000E+01
       23  1    1    2    0    0 0.41176471E+02 0.47285251E+01 0.23583330E+03 0.25622346E+03 0.91188000E+02 0.0000E+00 0.9000E+01
       21  1    1    2  502  501 -.41776652E+01 0.21098485E+02 0.59109993E+02 0.62905904E+02 0.75000000E+00 0.0000E+00 0.9000E+01
#aMCatNLO 1  0  0  1  2 0.29208061D+02 0.00000000D+00  -5  6  0 0.00000000D+00 0.00000000D+00 0.00000000D+00 0.00000000D+00 0.00000000D+00
  <mgrwgt>
 0.2278921856D+00    7    4    0
 0.142733223768911D+03 0.000000000000000D+00 0.000000000000000D+00 0.142733223768911D+03
 0.142733223768911D+03 0.000000000000000D+00 0.000000000000000D+00 -.142733223768911D+03
 0.147655083015739D+03 -.369978961357468D+02 -.258316063832239D+02 -.643498821566545D+02
 0.111962656377660D+03 0.411771615722525D+02 0.472503981866420D+01 0.500249981779762D+02
 0.258487081444229D+02 -.417926543650569D+01 0.211065665645597D+02 0.143248839786783D+02
 0.000000000000000D+00 -.000000000000000D+00 0.000000000000000D+00 0.000000000000000D+00
 0.158846752097929D+03 0.000000000000000D+00 0.000000000000000D+00 0.158846752097929D+03
 0.157356118538568D+03 0.000000000000000D+00 0.000000000000000D+00 -.157356118538568D+03
 0.149492612871855D+03 -.314251284711273D+02 -.399323837286495D+02 -.643498821566545D+02
 0.113646094482273D+03 0.454082734706366D+02 -.598094514128286D+01 0.500249981779762D+02
 0.238180898990443D+02 -.324780431473909D+01 0.187496899326235D+02 0.143248839786783D+02
 0.292460733833254D+02 -.107353406847701D+02 0.271636389373088D+02 0.149063355936091D+01
 0.142733223768911D+03 0.000000000000000D+00 0.000000000000000D+00 0.142733223768911D+03
 0.142733223768911D+03 0.000000000000000D+00 0.000000000000000D+00 -.142733223768911D+03
 0.147655083015739D+03 -.369978961357468D+02 -.258316063832239D+02 -.643498821566545D+02
 0.111962656377660D+03 0.411771615722525D+02 0.472503981866420D+01 0.500249981779762D+02
 0.000000000000000D+00 -.000000000000000D+00 0.000000000000000D+00 0.000000000000000D+00
 0.258487081444229D+02 -.417926543650569D+01 0.211065665645597D+02 0.143248839786783D+02
 0.158846752097929D+03 0.000000000000000D+00 0.000000000000000D+00 0.158846752097929D+03
 0.157356118538568D+03 0.000000000000000D+00 0.000000000000000D+00 -.157356118538568D+03
 0.149492612871855D+03 -.314251284711273D+02 -.399323837286495D+02 -.643498821566545D+02
 0.113646094482273D+03 0.454082734706366D+02 -.598094514128286D+01 0.500249981779762D+02
 0.292460733833254D+02 -.107353406847701D+02 0.271636389373088D+02 0.149063355936091D+01
 0.238180898990443D+02 -.324780431473909D+01 0.187496899326235D+02 0.143248839786783D+02
0.699994494189D-04 0.000000000000D+00 0.000000000000D+00 0.237462224221D-04 0.000000000000D+00  6 2 -2 25 23 21 21 2 0.66701579D-01 0.72291514D-02 0.16202366D+05 0.16202366D+05 0.16202366D+05 0.12440229D+01  1  2  2  1  6  1        2 0.833615509853D-01 0.100000000000D+01
0.122280975774D-04 0.369397243200D-05 -.268816317047D-06 0.237462224221D-04 0.000000000000D+00  6 2 -2 25 23 21 21 4 0.66701579D-01 0.72291514D-02 0.16202366D+05 0.16202366D+05 0.16202366D+05 0.12440229D+01  1  2  3  1  6  1        2 0.225365189990D-01 0.100000000000D+01
0.260819634266D-05 0.000000000000D+00 0.000000000000D+00 0.237462224221D-04 0.000000000000D+00  6 2 -2 25 23 21 21 4 0.66701579D-01 0.72291514D-02 0.16202366D+05 0.16202366D+05 0.16202366D+05 0.12440229D+01  1  2 15  1  6  1        2 0.480693468935D-02 0.100000000000D+01
-.743215451632D-05 0.000000000000D+00 0.000000000000D+00 0.237462224221D-04 0.000000000000D+00  6 2 -2 25 23 21 21 4 0.66701579D-01 0.72291514D-02 0.16202366D+05 0.16202366D+05 0.16202366D+05 0.12440229D+01  1  2  4  1  6  1        2 -.136975429252D-01 0.100000000000D+01
-.370190818846D-03 0.000000000000D+00 -.108190681603D-03 0.237462224221D-04 0.000000000000D+00  6 2 -2 25 23 21 21 4 0.80699026D-01 0.72291514D-02 0.16202366D+05 0.16202366D+05 0.16202366D+05 0.12440229D+01  1  2  5  1  6  1        2 -.554534082242D+00 0.100000000000D+01
0.385714873145D-03 0.000000000000D+00 0.106256843333D-03 0.237462224221D-04 0.000000000000D+00  6 2 -2 25 23 21 21 4 0.66701579D-01 0.72291514D-02 0.16202366D+05 0.16202366D+05 0.16202366D+05 0.12440229D+01  1  2  6  1  6  1        2 0.710876774724D+00 0.100000000000D+01
-.905821635470D-05 0.000000000000D+00 -.298210375753D-05 0.237462224221D-04 0.000000000000D+00  6 21 -2 25 23 -2 21 4 0.80699026D-01 0.72291514D-02 0.16202366D+05 0.16202366D+05 0.16202366D+05 0.12440229D+01  3  4  5  4  5  1        2 -.254579686800D-01 0.100000000000D+01
  </mgrwgt>
  </event>
  <event>
  5     66 0.57005756E-03 0.23469499E+02 0.75467711E-02 0.12063326E+00
        2 -1    0    0  502    0 0.00000000E+00 0.00000000E+00 0.21491003E+04 0.21491003E+04 0.32000000E+00 0.0000E+00 0.9000E+01
       -2 -1    0    0    0  501 0.00000000E+00 0.00000000E+00 -.80252453E+01 0.80316226E+01 0.32000000E+00 0.0000E+00 0.9000E+01
       25  1    1    2    0    0 -.21620262E+02 0.32559092E+02 0.12782358E+04 0.12849277E+04 0.12500000E+03 0.0000E+00 0.9000E+01
       23  1    1    2    0    0 -.45940510E+00 -.24625325E+02 0.51617572E+03 0.52474683E+03 0.91188000E+02 0.0000E+00 0.9000E+01
       21  1    1    2  502  501 0.22079667E+02 -.79337666E+01 0.34666357E+03 0.34745741E+03 0.75000000E+00 0.0000E+00 0.9000E+01
#aMCatNLO 1  0  0  1  2 0.38637305D+02 0.00000000D+00  -5  6  0 0.00000000D+00 0.00000000D+00 0.00000000D+00 0.00000000D+00 0.00000000D+00
  <mgrwgt>
 0.4280714860D+00    7    4    0
 0.131354333653690D+03 0.000000000000000D+00 0.000000000000000D+00 0.131354333653690D+03
 0.131354333653690D+03 0.000000000000000D+00 0.000000000000000D+00 -.131354333653690D+03
 0.133075274697790D+03 -.216243615964399D+02 0.325605648286851D+02 0.235844300222753D+02
 0.101927915076027D+03 -.462545497681495D+00 -.246241965674240D+02 -.383077475560393D+02
 0.277054775335627D+02 0.220869070941214D+02 -.793636826126114D+01 0.147233175337640D+02
 0.000000000000000D+00 0.000000000000000D+00 0.000000000000000D+00 0.000000000000000D+00
 0.158072735334348D+03 0.000000000000000D+00 0.000000000000000D+00 0.158072735334348D+03
 0.147515619684840D+03 0.000000000000000D+00 0.000000000000000D+00 -.147515619684840D+03
 0.131528766134950D+03 -.298678472140487D+02 0.150500061230876D+02 0.235844300222753D+02
 0.106329978250900D+03 -.695062082333085D+01 -.384059667003690D+02 -.383077475560393D+02
 0.276759712624700D+02 0.203615510670719D+02 -.116013164884009D+02 0.147233175337640D+02
 0.400536393708682D+02 0.164569169703076D+02 0.349572770656823D+02 0.105571156495079D+02
 0.131354333653690D+03 0.000000000000000D+00 0.000000000000000D+00 0.131354333653690D+03
 0.131354333653690D+03 0.000000000000000D+00 0.000000000000000D+00 -.131354333653690D+03
 0.133075274697790D+03 -.216243615964399D+02 0.325605648286851D+02 0.235844300222753D+02
 0.101927915076027D+03 -.462545497681495D+00 -.246241965674240D+02 -.383077475560393D+02
 0.000000000000000D+00 0.000000000000000D+00 0.000000000000000D+00 0.000000000000000D+00
 0.277054775335627D+02 0.220869070941214D+02 -.793636826126114D+01 0.147233175337640D+02
 0.158072735334348D+03 0.000000000000000D+00 0.000000000000000D+00 0.158072735334348D+03
 0.147515619684840D+03 0.000000000000000D+00 0.000000000000000D+00 -.147515619684840D+03
 0.131528766134950D+03 -.298678472140487D+02 0.150500061230876D+02 0.235844300222753D+02
 0.106329978250900D+03 -.695062082333085D+01 -.384059667003690D+02 -.383077475560393D+02
 0.400536393708682D+02 0.164569169703076D+02 0.349572770656823D+02 0.105571156495079D+02
 0.276759712624700D+02 0.203615510670719D+02 -.116013164884009D+02 0.147233175337640D+02
0.790307328384D-04 0.000000000000D+00 0.000000000000D+00 0.250785083979D-04 0.000000000000D+00  6 2 -2 25 23 21 21 2 0.33063131D+00 0.12351455D-02 0.15487003D+05 0.15487003D+05 0.15487003D+05 0.12462437D+01  1  2  2  1  6  1        2 0.117226024164D+00 0.100000000000D+01
0.118180293999D-04 0.417056635172D-05 -.303498823369D-06 0.250785083979D-04 0.000000000000D+00  6 2 -2 25 23 21 21 4 0.33063131D+00 0.12351455D-02 0.15487003D+05 0.15487003D+05 0.15487003D+05 0.12462437D+01  1  2  3  1  6  1        2 0.272257009859D-01 0.100000000000D+01
0.210841125906D-05 0.000000000000D+00 0.000000000000D+00 0.250785083979D-04 0.000000000000D+00  6 2 -2 25 23 21 21 4 0.33063131D+00 0.12351455D-02 0.15487003D+05 0.15487003D+05 0.15487003D+05 0.12462437D+01  1  2 15  1  6  1        2 0.485723740839D-02 0.100000000000D+01
-.151376441609D-04 0.000000000000D+00 0.000000000000D+00 0.250785083979D-04 0.000000000000D+00  6 2 -2 25 23 21 21 4 0.33063131D+00 0.12351455D-02 0.15487003D+05 0.15487003D+05 0.15487003D+05 0.12462437D+01  1  2  4  1  6  1        2 -.348732398281D-01 0.100000000000D+01
-.253583799840D-03 0.000000000000D+00 -.744674162095D-04 0.250785083979D-04 0.000000000000D+00  6 2 -2 25 23 21 21 4 0.41628111D+00 0.12351455D-02 0.15487003D+05 0.15487003D+05 0.15487003D+05 0.12462437D+01  1  2  5  1  6  1        2 -.296704689178D+00 0.100000000000D+01
0.265592934246D-03 0.000000000000D+00 0.725343972494D-04 0.250785083979D-04 0.000000000000D+00  6 2 -2 25 23 21 21 4 0.33063131D+00 0.12351455D-02 0.15487003D+05 0.15487003D+05 0.15487003D+05 0.12462437D+01  1  2  6  1  6  1        2 0.611857829007D+00 0.100000000000D+01
-.698625350545D-05 0.000000000000D+00 -.237164678201D-05 0.250785083979D-04 0.000000000000D+00  6 21 -2 25 23 -2 21 4 0.41628111D+00 0.12351455D-02 0.15487003D+05 0.15487003D+05 0.15487003D+05 0.12462437D+01  3  4  5  4  5  1        2 -.151737659293D-02 0.100000000000D+01
  </mgrwgt>
  </event>
  <event>
  5     66 -.57005756E-03 0.21015319E+02 0.75467711E-02 0.12304205E+00
        2 -1    0    0  502    0 0.00000000E+00 0.00000000E+00 0.48664705E+03 0.48664715E+03 0.32000000E+00 0.0000E+00 0.9000E+01
       -2 -1    0    0    0  501 0.00000000E+00 0.00000000E+00 -.34346092E+02 0.34347582E+02 0.32000000E+00 0.0000E+00 0.9000E+01
       25  1    1    2    0    0 -.48106099E+02 -.35998759E+01 0.20140884E+03 0.24190427E+03 0.12500000E+03 0.0000E+00 0.9000E+01
       23  1    1    2    0    0 0.37657865E+02 0.21820661E+02 0.20157546E+03 0.22548209E+03 0.91188000E+02 0.0000E+00 0.9000E+01
       21  1    1    2  502  501 0.10448233E+02 -.18220785E+02 0.49316658E+02 0.53608375E+02 0.75000000E+00 0.0000E+00 0.9000E+01
#aMCatNLO 1  0  0  5  2 0.49636005D+01 0.00000000D+00  -5  6  0 0.00000000D+00 0.00000000D+00 0.00000000D+00 0.00000000D+00 0.00000000D+00
  <mgrwgt>
 -.1543555360D+01   20    2    0
 0.129285884584198D+03 0.000000000000000D+00 0.000000000000000D+00 0.129285884584198D+03
 0.129285884584198D+03 -.000000000000000D+00 -.000000000000000D+00 -.129285884584198D+03
 0.135102757351557D+03 -.481093473846081D+02 -.359421012396310D+01 -.173299564859664D+02
 0.101720975582721D+03 0.376554189226373D+02 0.218249265733220D+02 0.117323286405664D+02
 0.217480362341184D+02 0.104539284619707D+02 -.182307164493589D+02 0.559762784540003D+01
 0.000000000000000D+00 0.000000000000000D+00 0.000000000000000D+00 0.000000000000000D+00
 0.129285884584198D+03 0.000000000000000D+00 0.000000000000000D+00 0.129285884584198D+03
 0.129285884584198D+03 -.000000000000000D+00 -.000000000000000D+00 -.129285884584198D+03
 0.134869985530953D+03 -.474778224686700D+02 -.469553310651985D+01 -.169918021292212D+02
 0.101753288782531D+03 0.381313894459088D+02 0.209948765419312D+02 0.119871903286243D+02
 0.131341174302848D+02 0.659142200407797D+01 -.112377107229361D+02 -.166494875124595D+01
 0.881437742462640D+01 0.275501101868320D+01 -.506163271247528D+01 0.666956055184282D+01
0.158261248631D-03 0.000000000000D+00 0.000000000000D+00 0.318558143056D-04 0.000000000000D+00  6 2 -2 25 23 21 21 2 0.74868900D-01 0.52841369D-02 0.16389646D+05 0.16389646D+05 0.16389646D+05 0.12434597D+01  1  2  2  3  6  5       21 0.267415564993D+00 0.100000000000D+01
0.337427414146D-04 0.835167553958D-05 -.607764865886D-06 0.318558143056D-04 0.000000000000D+00  6 2 -2 25 23 21 21 4 0.74868900D-01 0.52841369D-02 0.16389646D+05 0.16389646D+05 0.16389646D+05 0.12434597D+01  1  2  3  3  6  5       21 0.881568118370D-01 0.100000000000D+01
0.741069449883D-05 0.000000000000D+00 0.000000000000D+00 0.318558143056D-04 0.000000000000D+00  6 2 -2 25 23 21 21 4 0.74868900D-01 0.52841369D-02 0.16389646D+05 0.16389646D+05 0.16389646D+05 0.12434597D+01  1  2 15  3  6  5       21 0.193612958855D-01 0.100000000000D+01
0.347614456988D-04 0.000000000000D+00 0.000000000000D+00 0.319034103669D-04 0.000000000000D+00  6 2 -2 25 23 21 21 4 0.74868900D-01 0.52841369D-02 0.16082179D+05 0.16082179D+05 0.16082179D+05 0.12443883D+01  1  2 12  3  6  5       21 0.910260448480D-01 0.100000000000D+01
0.351913907111D-04 0.000000000000D+00 0.000000000000D+00 0.319034103669D-04 0.000000000000D+00  6 2 -2 25 23 21 21 4 0.74868900D-01 0.52841369D-02 0.16082179D+05 0.16082179D+05 0.16082179D+05 0.12443883D+01  1  2 12  3  6  5       21 0.921518954329D-01 0.100000000000D+01
-.101977719051D-02 0.000000000000D+00 0.000000000000D+00 0.318558143056D-04 0.000000000000D+00  6 2 -2 25 23 21 21 4 0.74868900D-01 0.52841369D-02 0.16389646D+05 0.16389646D+05 0.16389646D+05 0.12434597D+01  1  2  4  3  6  5       21 -.266428577320D+01 0.100000000000D+01
-.214222345955D-03 0.000000000000D+00 0.000000000000D+00 0.318558143056D-04 0.000000000000D+00  6 2 -2 25 23 21 21 4 0.74868900D-01 0.52841369D-02 0.16389646D+05 0.16389646D+05 0.16389646D+05 0.12434597D+01  1  2  5  3  6  5       21 -.559680638024D+00 0.100000000000D+01
0.422353149468D-03 0.000000000000D+00 -.000000000000D+00 0.318558143056D-04 0.000000000000D+00  6 2 -2 25 23 21 21 4 0.74868900D-01 0.52841369D-02 0.16389646D+05 0.16389646D+05 0.16389646D+05 0.12434597D+01  1  2  6  3  6  5       21 0.110344641738D+01 0.100000000000D+01
0.109423641657D-05 0.000000000000D+00 0.000000000000D+00 0.319034103669D-04 0.000000000000D+00  6 2 -2 25 23 1 -1 4 0.74868900D-01 0.52841369D-02 0.16082179D+05 0.16082179D+05 0.16082179D+05 0.12443883D+01  1  2 12  6  6  5       21 0.286535876535D-02 0.100000000000D+01
0.109423641657D-05 0.000000000000D+00 0.000000000000D+00 0.319034103669D-04 0.000000000000D+00  6 2 -2 25 23 3 -3 4 0.74868900D-01 0.52841369D-02 0.16082179D+05 0.16082179D+05 0.16082179D+05 0.12443883D+01  1  2 12  6  6  5       21 0.286535876535D-02 0.100000000000D+01
0.110693577256D-05 0.000000000000D+00 0.000000000000D+00 0.319034103669D-04 0.000000000000D+00  6 2 -2 25 23 1 -1 4 0.74868900D-01 0.52841369D-02 0.16082179D+05 0.16082179D+05 0.16082179D+05 0.12443883D+01  1  2 12  6  6  5       21 0.289861319780D-02 0.100000000000D+01
0.110693577256D-05 0.000000000000D+00 0.000000000000D+00 0.319034103669D-04 0.000000000000D+00  6 2 -2 25 23 3 -3 4 0.74868900D-01 0.52841369D-02 0.16082179D+05 0.16082179D+05 0.16082179D+05 0.12443883D+01  1  2 12  6  6  5       21 0.289861319780D-02 0.100000000000D+01
-.402170399486D-06 0.000000000000D+00 0.000000000000D+00 0.318558143056D-04 0.000000000000D+00  6 2 -2 25 23 1 -1 4 0.74868900D-01 0.52841369D-02 0.16389646D+05 0.16389646D+05 0.16389646D+05 0.12434597D+01  1  2  5  6  6  5       21 -.105071665038D-02 0.100000000000D+01
-.402170399486D-06 0.000000000000D+00 0.000000000000D+00 0.318558143056D-04 0.000000000000D+00  6 2 -2 25 23 3 -3 4 0.74868900D-01 0.52841369D-02 0.16389646D+05 0.16389646D+05 0.16389646D+05 0.12434597D+01  1  2  5  6  6  5       21 -.105071665038D-02 0.100000000000D+01
0.109423641657D-05 0.000000000000D+00 0.000000000000D+00 0.319034103669D-04 0.000000000000D+00  6 2 -2 25 23 2 -2 4 0.74868900D-01 0.52841369D-02 0.16082179D+05 0.16082179D+05 0.16082179D+05 0.12443883D+01  1  2 12  7  6  5       21 0.286535876535D-02 0.100000000000D+01
0.110693577256D-05 0.000000000000D+00 0.000000000000D+00 0.319034103669D-04 0.000000000000D+00  6 2 -2 25 23 2 -2 4 0.74868900D-01 0.52841369D-02 0.16082179D+05 0.16082179D+05 0.16082179D+05 0.12443883D+01  1  2 12  7  6  5       21 0.289861319780D-02 0.100000000000D+01
-.402170399486D-06 0.000000000000D+00 0.000000000000D+00 0.318558143056D-04 0.000000000000D+00  6 2 -2 25 23 2 -2 4 0.74868900D-01 0.52841369D-02 0.16389646D+05 0.16389646D+05 0.16389646D+05 0.12434597D+01  1  2  5  7  6  5       21 -.105071665038D-02 0.100000000000D+01
0.109423641657D-05 0.000000000000D+00 0.000000000000D+00 0.319034103669D-04 0.000000000000D+00  6 2 -2 25 23 4 -4 4 0.74868900D-01 0.52841369D-02 0.16082179D+05 0.16082179D+05 0.16082179D+05 0.12443883D+01  1  2 12  8  6  5       21 0.286535876535D-02 0.100000000000D+01
0.110693577256D-05 0.000000000000D+00 0.000000000000D+00 0.319034103669D-04 0.000000000000D+00  6 2 -2 25 23 4 -4 4 0.74868900D-01 0.52841369D-02 0.16082179D+05 0.16082179D+05 0.16082179D+05 0.12443883D+01  1  2 12  8  6  5       21 0.289861319780D-02 0.100000000000D+01
-.402170399486D-06 0.000000000000D+00 0.000000000000D+00 0.318558143056D-04 0.000000000000D+00  6 2 -2 25 23 4 -4 4 0.74868900D-01 0.52841369D-02 0.16389646D+05 0.16389646D+05 0.16389646D+05 0.12434597D+01  1  2  5  8  6  5       21 -.105071665038D-02 0.100000000000D+01
  </mgrwgt>
  </event>
  <event>
  5     66 0.57005756E-03 0.25491854E+02 0.75467711E-02 0.11872392E+00
        2 -1    0    0  502    0 0.00000000E+00 0.00000000E+00 0.13563103E+04 0.13563103E+04 0.32000000E+00 0.0000E+00 0.9000E+01
       -2 -1    0    0    0  501 0.00000000E+00 0.00000000E+00 -.19523989E+02 0.19526611E+02 0.32000000E+00 0.0000E+00 0.9000E+01
       25  1    1    2    0    0 0.27299062E+02 0.99593651E+02 0.74425731E+03 0.76171391E+03 0.12500000E+03 0.0000E+00 0.9000E+01
       23  1    1    2    0    0 -.18230578E+01 -.10016829E+03 0.51442811E+03 0.53196667E+03 0.91188000E+02 0.0000E+00 0.9000E+01
       21  1    1    2  502  501 -.25476005E+02 0.57463525E+00 0.78100881E+02 0.82156358E+02 0.75000000E+00 0.0000E+00 0.9000E+01
#aMCatNLO 1  0  0  5  2 0.79553357D+00 0.00000000D+00  -5  6  0 0.00000000D+00 0.00000000D+00 0.00000000D+00 0.00000000D+00 0.00000000D+00
  <mgrwgt>
 0.1193285323D+00   23    2    0
 0.162734190006445D+03 0.000000000000000D+00 0.000000000000000D+00 0.162734190006445D+03
 0.162734190006445D+03 -.000000000000000D+00 -.000000000000000D+00 -.162734190006445D+03
 0.163092529711448D+03 0.273041727941333D+02 0.995935353211902D+02 0.176006567472471D+02
 0.135862421454919D+03 -.181880057391157D+01 -.100168381864762D+03 -.103118116091102D+02
 0.265134288465232D+02 -.254853722202218D+02 0.574846543571499D+00 -.728884513813685D+01
 0.000000000000000D+00 -.000000000000000D+00 0.000000000000000D+00 0.000000000000000D+00
 0.162734190006445D+03 0.000000000000000D+00 0.000000000000000D+00 0.162734190006445D+03
 0.162734190006445D+03 -.000000000000000D+00 -.000000000000000D+00 -.162734190006445D+03
 0.163040259630773D+03 0.270194630349510D+02 0.995999572176245D+02 0.175192294356871D+02
 0.135867025534526D+03 -.205601691015040D+01 -.100163031227157D+03 -.103796557482556D+02
 0.257247791734008D+02 -.245015001917407D+02 0.791077892082040D+00 -.779839391432800D+01
 0.836315674190113D+00 -.461945933059927D+00 -.228003882549285D+00 0.658820226896464D+00
0.658948238031D-04 0.000000000000D+00 0.000000000000D+00 0.166061760608D-04 0.000000000000D+00  6 2 -2 25 23 21 21 2 0.20866333D+00 0.30038952D-02 0.26098793D+05 0.26098793D+05 0.26098793D+05 0.12212999D+01  1  2  2  3  6  5       21 0.667936089481D-01 0.100000000000D+01
0.148484358251D-04 0.347736538731D-05 -.253053473910D-06 0.166061760608D-04 0.000000000000D+00  6 2 -2 25 23 21 21 4 0.20866333D+00 0.30038952D-02 0.26098793D+05 0.26098793D+05 0.26098793D+05 0.12212999D+01  1  2  3  3  6  5       21 0.224496190536D-01 0.100000000000D+01
0.907671417919D-06 0.000000000000D+00 0.000000000000D+00 0.166061760608D-04 0.000000000000D+00  6 2 -2 25 23 21 21 4 0.20866333D+00 0.30038952D-02 0.26098793D+05 0.26098793D+05 0.26098793D+05 0.12212999D+01  1  2 15  3  6  5       21 0.137232485618D-02 0.100000000000D+01
-.219705557158D-02 0.000000000000D+00 0.000000000000D+00 0.166061760608D-04 0.000000000000D+00  6 2 -2 25 23 21 21 4 0.20866333D+00 0.30038952D-02 0.26098793D+05 0.26098793D+05 0.26098793D+05 0.12212999D+01  1  2  4  3  6  5       21 -.332176811097D+01 0.100000000000D+01
-.944760767982D-03 0.000000000000D+00 0.000000000000D+00 0.166061760608D-04 0.000000000000D+00  6 2 -2 25 23 21 21 4 0.20866333D+00 0.30038952D-02 0.26098793D+05 0.26098793D+05 0.26098793D+05 0.12212999D+01  1  2  5  3  6  5       21 -.142840091629D+01 0.100000000000D+01
0.100766239664D-02 0.000000000000D+00 -.000000000000D+00 0.166061760608D-04 0.000000000000D+00  6 2 -2 25 23 21 21 4 0.20866333D+00 0.30038952D-02 0.26098793D+05 0.26098793D+05 0.26098793D+05 0.12212999D+01  1  2  6  3  6  5       21 0.152350302791D+01 0.100000000000D+01
0.215211828719D-02 0.000000000000D+00 0.000000000000D+00 0.166061760608D-04 0.473128984570D-03  6 2 -2 25 23 21 21 4 0.20866333D+00 0.30038952D-02 0.26016990D+05 0.26016990D+05 0.26016990D+05 0.12214454D+01  1  2 11  3  6  5       21 0.325521104049D+01 0.100000000000D+01
0.132631281018D-11 0.000000000000D+00 0.000000000000D+00 0.166101319853D-04 0.000000000000D+00  6 2 -2 25 23 1 -1 4 0.20866333D+00 0.30038952D-02 0.26016990D+05 0.26016990D+05 0.26016990D+05 0.12214454D+01  1  2 12  6  6  5       21 0.200612955549D-08 0.100000000000D+01
0.132631281018D-11 0.000000000000D+00 0.000000000000D+00 0.166101319853D-04 0.000000000000D+00  6 2 -2 25 23 3 -3 4 0.20866333D+00 0.30038952D-02 0.26016990D+05 0.26016990D+05 0.26016990D+05 0.12214454D+01  1  2 12  6  6  5       21 0.200612955549D-08 0.100000000000D+01
0.132073994679D-11 0.000000000000D+00 0.000000000000D+00 0.166101319853D-04 0.000000000000D+00  6 2 -2 25 23 1 -1 4 0.20866333D+00 0.30038952D-02 0.26016990D+05 0.26016990D+05 0.26016990D+05 0.12214454D+01  1  2 12  6  6  5       21 0.199770025746D-08 0.100000000000D+01
0.132073994679D-11 0.000000000000D+00 0.000000000000D+00 0.166101319853D-04 0.000000000000D+00  6 2 -2 25 23 3 -3 4 0.20866333D+00 0.30038952D-02 0.26016990D+05 0.26016990D+05 0.26016990D+05 0.12214454D+01  1  2 12  6  6  5       21 0.199770025746D-08 0.100000000000D+01
-.227522649161D-05 0.000000000000D+00 0.000000000000D+00 0.166061760608D-04 0.000000000000D+00  6 2 -2 25 23 1 -1 4 0.20866333D+00 0.30038952D-02 0.26098793D+05 0.26098793D+05 0.26098793D+05 0.12212999D+01  1  2  5  6  6  5       21 -.343995614076D-02 0.100000000000D+01
-.227522649161D-05 0.000000000000D+00 0.000000000000D+00 0.166061760608D-04 0.000000000000D+00  6 2 -2 25 23 3 -3 4 0.20866333D+00 0.30038952D-02 0.26098793D+05 0.26098793D+05 0.26098793D+05 0.12212999D+01  1  2  5  6  6  5       21 -.343995614076D-02 0.100000000000D+01
0.229480336117D-05 0.000000000000D+00 0.000000000000D+00 0.166061760608D-04 0.715107838768D-06  6 2 -2 25 23 1 -1 4 0.20866333D+00 0.30038952D-02 0.26016990D+05 0.26016990D+05 0.26016990D+05 0.12214454D+01  1  2 11  6  6  5       21 0.347103097516D-02 0.100000000000D+01
0.229480336117D-05 0.000000000000D+00 0.000000000000D+00 0.166061760608D-04 0.715107838768D-06  6 2 -2 25 23 3 -3 4 0.20866333D+00 0.30038952D-02 0.26016990D+05 0.26016990D+05 0.26016990D+05 0.12214454D+01  1  2 11  6  6  5       21 0.347103097516D-02 0.100000000000D+01
0.132631281018D-11 0.000000000000D+00 0.000000000000D+00 0.166101319853D-04 0.000000000000D+00  6 2 -2 25 23 2 -2 4 0.20866333D+00 0.30038952D-02 0.26016990D+05 0.26016990D+05 0.26016990D+05 0.12214454D+01  1  2 12  7  6  5       21 0.200612955549D-08 0.100000000000D+01
0.132073994679D-11 0.000000000000D+00 0.000000000000D+00 0.166101319853D-04 0.000000000000D+00  6 2 -2 25 23 2 -2 4 0.20866333D+00 0.30038952D-02 0.26016990D+05 0.26016990D+05 0.26016990D+05 0.12214454D+01  1  2 12  7  6  5       21 0.199770025746D-08 0.100000000000D+01
-.227522649161D-05 0.000000000000D+00 0.000000000000D+00 0.166061760608D-04 0.000000000000D+00  6 2 -2 25 23 2 -2 4 0.20866333D+00 0.30038952D-02 0.26098793D+05 0.26098793D+05 0.26098793D+05 0.12212999D+01  1  2  5  7  6  5       21 -.343995614076D-02 0.100000000000D+01
0.232352718740D-05 0.000000000000D+00 0.000000000000D+00 0.166061760608D-04 0.735826222323D-06  6 2 -2 25 23 2 -2 4 0.20866333D+00 0.30038952D-02 0.26016990D+05 0.26016990D+05 0.26016990D+05 0.12214454D+01  1  2 11  7  6  5       21 0.351447752585D-02 0.100000000000D+01
0.132631281018D-11 0.000000000000D+00 0.000000000000D+00 0.166101319853D-04 0.000000000000D+00  6 2 -2 25 23 4 -4 4 0.20866333D+00 0.30038952D-02 0.26016990D+05 0.26016990D+05 0.26016990D+05 0.12214454D+01  1  2 12  8  6  5       21 0.200612955549D-08 0.100000000000D+01
0.132073994679D-11 0.000000000000D+00 0.000000000000D+00 0.166101319853D-04 0.000000000000D+00  6 2 -2 25 23 4 -4 4 0.20866333D+00 0.30038952D-02 0.26016990D+05 0.26016990D+05 0.26016990D+05 0.12214454D+01  1  2 12  8  6  5       21 0.199770025746D-08 0.100000000000D+01
-.227522649161D-05 0.000000000000D+00 0.000000000000D+00 0.166061760608D-04 0.000000000000D+00  6 2 -2 25 23 4 -4 4 0.20866333D+00 0.30038952D-02 0.26098793D+05 0.26098793D+05 0.26098793D+05 0.12212999D+01  1  2  5  8  6  5       21 -.343995614076D-02 0.100000000000D+01
0.229491997004D-05 0.000000000000D+00 0.000000000000D+00 0.166061760608D-04 0.715144176484D-06  6 2 -2 25 23 4 -4 4 0.20866333D+00 0.30038952D-02 0.26016990D+05 0.26016990D+05 0.26016990D+05 0.12214454D+01  1  2 11  8  6  5       21 0.347120735323D-02 0.100000000000D+01
  </mgrwgt>
  </event>
  <event>
  5     66 0.57005756E-03 0.61035025E+02 0.75467711E-02 0.11842073E+00
        2 -1    0    0  502    0 0.00000000E+00 0.00000000E+00 0.97162408E+02 0.97162935E+02 0.32000000E+00 0.0000E+00 0.9000E+01
       -2 -1    0    0    0  501 -.00000000E+00 -.00000000E+00 -.35005539E+03 0.35005554E+03 0.32000000E+00 0.0000E+00 0.9000E+01
       25  1    1    2    0    0 -.79009244E+02 0.16739146E+02 -.20053154E+03 0.24972096E+03 0.12500000E+03 0.0000E+00 0.9000E+01
       23  1    1    2    0    0 0.62520326E+02 0.42024480E+02 -.65293337E+02 0.13510485E+03 0.91188000E+02 0.0000E+00 0.9000E+01
       21  1    1    2  502  501 0.16488918E+02 -.58763626E+02 0.12931896E+02 0.62392664E+02 0.75000000E+00 0.0000E+00 0.9000E+01
#aMCatNLO 1  0  0  5  2 0.26168236D+01 0.00000000D+00  -5  6  0 0.00000000D+00 0.00000000D+00 0.00000000D+00 0.00000000D+00 0.00000000D+00
  <mgrwgt>
 0.3452744584D-01   11    2    0
 0.184424442950665D+03 0.000000000000000D+00 0.000000000000000D+00 0.184424442950665D+03
 0.184424442950665D+03 -.000000000000000D+00 -.000000000000000D+00 -.184424442950665D+03
 0.165290082563235D+03 -.790095349813378D+02 0.167401828215357D+02 -.719240645048317D+02
 0.119043822744481D+03 0.625201162927935D+02 0.420252267863204D+02 0.134646114653634D+02
 0.845149805936145D+02 0.164894186885443D+02 -.587654096078561D+02 0.584594530394684D+02
 0.000000000000000D+00 0.000000000000000D+00 0.000000000000000D+00 -.000000000000000D+00
 0.184424442950665D+03 0.000000000000000D+00 0.000000000000000D+00 0.184424442950665D+03
 0.184424442950665D+03 -.000000000000000D+00 -.000000000000000D+00 -.184424442950665D+03
 0.162701666295276D+03 -.778893481954700D+02 0.127480326704472D+02 -.679526991073741D+02
 0.118846807580640D+03 0.633325816718752D+02 0.391297420093401D+02 0.163450211736579D+02
 0.807054076263961D+02 0.131756070525790D+02 -.563419080876336D+02 0.562614929768437D+02
 0.659500439901789D+01 0.138115947101582D+01 0.446413340784622D+01 -.465381504312752D+01
0.137973371638D-03 0.000000000000D+00 0.000000000000D+00 0.334789540134D-05 0.000000000000D+00  6 2 -2 25 23 21 21 2 0.14948115D-01 0.53854727D-01 0.26918325D+05 0.26918325D+05 0.26918325D+05 0.12198702D+01  1  2  2  3  6  5       21 0.261113834955D-01 0.100000000000D+01
-.158158831266D-05 0.728105485703D-05 -.529854076314D-06 0.334789540134D-05 0.000000000000D+00  6 2 -2 25 23 21 21 4 0.14948115D-01 0.53854727D-01 0.26918325D+05 0.26918325D+05 0.26918325D+05 0.12198702D+01  1  2  3  3  6  5       21 -.445405188752D-03 0.100000000000D+01
0.528250933365D-05 0.000000000000D+00 0.000000000000D+00 0.334789540134D-05 0.000000000000D+00  6 2 -2 25 23 21 21 4 0.14948115D-01 0.53854727D-01 0.26918325D+05 0.26918325D+05 0.26918325D+05 0.12198702D+01  1  2 15  3  6  5       21 0.148765456093D-02 0.100000000000D+01
-.118533618033D-03 0.000000000000D+00 0.000000000000D+00 0.334789540134D-05 0.000000000000D+00  6 2 -2 25 23 21 21 4 0.14948115D-01 0.53854727D-01 0.26918325D+05 0.26918325D+05 0.26918325D+05 0.12198702D+01  1  2  4  3  6  5       21 -.333813092134D-01 0.100000000000D+01
0.231583763929D-06 0.000000000000D+00 0.000000000000D+00 0.334789540134D-05 0.000000000000D+00  6 2 -2 25 23 21 21 4 0.14948115D-01 0.53854727D-01 0.26918325D+05 0.26918325D+05 0.26918325D+05 0.12198702D+01  1  2  5  3  6  5       21 0.652183689391D-04 0.100000000000D+01
-.250479166607D-06 0.000000000000D+00 0.000000000000D+00 0.334789540134D-05 0.000000000000D+00  6 2 -2 25 23 21 21 4 0.14948115D-01 0.53854727D-01 0.26918325D+05 0.26918325D+05 0.26918325D+05 0.12198702D+01  1  2  6  3  6  5       21 -.705396717895D-04 0.100000000000D+01
0.139456267711D-03 0.000000000000D+00 0.000000000000D+00 0.334789540134D-05 0.522278700761D-06  6 2 -2 25 23 21 21 4 0.14948115D-01 0.53854727D-01 0.26909815D+05 0.26909815D+05 0.26909815D+05 0.12198848D+01  1  2 11  3  6  5       21 0.392751922877D-01 0.100000000000D+01
0.159919800885D-05 0.000000000000D+00 0.000000000000D+00 0.334797551674D-05 0.188348904524D-08  6 2 -2 25 23 1 -1 4 0.14948115D-01 0.53854727D-01 0.26909815D+05 0.26909815D+05 0.26909815D+05 0.12198848D+01  1  2 11  6  6  5       21 0.450383552739D-03 0.100000000000D+01
0.159919800885D-05 0.000000000000D+00 0.000000000000D+00 0.334797551674D-05 0.188348904524D-08  6 2 -2 25 23 3 -3 4 0.14948115D-01 0.53854727D-01 0.26909815D+05 0.26909815D+05 0.26909815D+05 0.12198848D+01  1  2 11  6  6  5       21 0.450383552739D-03 0.100000000000D+01
0.464727084057D-06 0.000000000000D+00 0.000000000000D+00 0.334797551674D-05 0.326786709061D-08  6 2 -2 25 23 2 -2 4 0.14948115D-01 0.53854727D-01 0.26909815D+05 0.26909815D+05 0.26909815D+05 0.12198848D+01  1  2 11  7  6  5       21 0.130881500611D-03 0.100000000000D+01
0.161062802877D-05 0.000000000000D+00 0.000000000000D+00 0.334797551674D-05 0.189695099128D-08  6 2 -2 25 23 4 -4 4 0.14948115D-01 0.53854727D-01 0.26909815D+05 0.26909815D+05 0.26909815D+05 0.12198848D+01  1  2 11  8  6  5       21 0.453602599381D-03 0.100000000000D+01
  </mgrwgt>
  </event>
  <event>
  5     66 0.57005756E-03 0.26137605E+02 0.75467711E-02 0.12173274E+00
        4 -1    0    0  502    0 0.00000000E+00 0.00000000E+00 0.74499516E+03 0.74499678E+03 0.15500000E+01 0.0000E+00 0.9000E+01
       -4 -1    0    0    0  501 0.00000000E+00 0.00000000E+00 -.52872214E+02 0.52894929E+02 0.15500000E+01 0.0000E+00 0.9000E+01
       25  1    1    2    0    0 0.32661559E+02 -.56856228E+02 0.35791929E+03 0.38474748E+03 0.12500000E+03 0.0000E+00 0.9000E+01
       23  1    1    2    0    0 -.34838367E+02 0.30810256E+02 0.28407109E+02 0.10623182E+03 0.91188000E+02 0.0000E+00 0.9000E+01
       21  1    1    2  502  501 0.21768086E+01 0.26045972E+02 0.30579655E+03 0.30691241E+03 0.75000000E+00 0.0000E+00 0.9000E+01
#aMCatNLO 1  0  0  2  5 0.54371726D+01 0.00000000D+00  -5  6  0 0.00000000D+00 0.00000000D+00 0.00000000D+00 0.00000000D+00 0.00000000D+00
  <mgrwgt>
 0.1632186723D-02   11    4    0
 0.198492440588139D+03 0.000000000000000D+00 0.000000000000000D+00 0.198492440588139D+03
 0.198492440588139D+03 0.000000000000000D+00 0.000000000000000D+00 -.198492440588139D+03
 0.149281686234018D+03 0.326615257183274D+02 -.568566207870350D+02 0.485857104023611D+02
 0.163987739232285D+03 -.348384032861472D+02 0.308098239860015D+02 -.128116227219424D+03
 0.837154557099749D+02 0.217687756781973D+01 0.260467968010336D+02 0.795305168170631D+02
 0.000000000000000D+00 0.000000000000000D+00 0.000000000000000D+00 -.000000000000000D+00
 0.198560865510433D+03 0.000000000000000D+00 0.000000000000000D+00 0.198560865510433D+03
 0.346893045095314D+03 0.000000000000000D+00 0.000000000000000D+00 -.346893045095314D+03
 0.150070740785756D+03 0.326448524586174D+02 -.589064478019059D+02 0.485857104023611D+02
 0.163585037716257D+03 -.348566483561417D+02 0.285667570624751D+02 -.128116227219424D+03
 0.833663351503151D+02 0.216757148629044D+01 0.249026979473576D+02 0.795305168170631D+02
 0.148431796953419D+03 0.442244112339230D-01 0.543699279207316D+01 -.148332179584881D+03
 0.198492440588139D+03 0.000000000000000D+00 0.000000000000000D+00 0.198492440588139D+03
 0.198492440588139D+03 0.000000000000000D+00 0.000000000000000D+00 -.198492440588139D+03
 0.149281686234018D+03 0.326615257183274D+02 -.568566207870350D+02 0.485857104023611D+02
 0.163987739232285D+03 -.348384032861472D+02 0.308098239860015D+02 -.128116227219424D+03
 0.000000000000000D+00 0.000000000000000D+00 0.000000000000000D+00 -.000000000000000D+00
 0.837154557099749D+02 0.217687756781973D+01 0.260467968010336D+02 0.795305168170631D+02
 0.198560865510433D+03 0.000000000000000D+00 0.000000000000000D+00 0.198560865510433D+03
 0.346893045095314D+03 0.000000000000000D+00 0.000000000000000D+00 -.346893045095314D+03
 0.150070740785756D+03 0.326448524586174D+02 -.589064478019059D+02 0.485857104023611D+02
 0.163585037716257D+03 -.348566483561417D+02 0.285667570624751D+02 -.128116227219424D+03
 0.148431796953419D+03 0.442244112339230D-01 0.543699279207316D+01 -.148332179584881D+03
 0.833663351503151D+02 0.216757148629044D+01 0.249026979473576D+02 0.795305168170631D+02
0.562184686767D-05 0.000000000000D+00 0.000000000000D+00 0.132897049874D-04 0.000000000000D+00  6 4 -4 25 23 21 21 2 0.11461651D+00 0.81360581D-02 0.18178419D+05 0.18178419D+05 0.18178419D+05 0.12384183D+01  1  2  2  2  6  2       -4 0.961780691704D-04 0.100000000000D+01
0.532743038831D-06 0.296673009838D-06 -.215893722381D-07 0.132897049874D-04 0.000000000000D+00  6 4 -4 25 23 21 21 4 0.11461651D+00 0.81360581D-02 0.18178419D+05 0.18178419D+05 0.18178419D+05 0.12384183D+01  1  2  3  2  6  2       -4 0.139781441861D-04 0.100000000000D+01
0.155536859349D-06 0.000000000000D+00 0.000000000000D+00 0.132897049874D-04 0.000000000000D+00  6 4 -4 25 23 21 21 4 0.11461651D+00 0.81360581D-02 0.18178419D+05 0.18178419D+05 0.18178419D+05 0.12384183D+01  1  2 15  2  6  2       -4 0.408098555543D-05 0.100000000000D+01
0.163383882628D-02 0.000000000000D+00 0.000000000000D+00 0.132555551355D-04 0.000000000000D+00  6 4 -4 25 23 21 21 4 0.11461651D+00 0.14221893D-01 0.18788048D+05 0.18788048D+05 0.18788048D+05 0.12368261D+01  1  2 12  2  6  2       -4 0.165813969069D-01 0.100000000000D+01
-.245956021930D-02 0.000000000000D+00 0.000000000000D+00 0.132897049874D-04 0.000000000000D+00  6 4 -4 25 23 21 21 4 0.11461651D+00 0.81360581D-02 0.18178419D+05 0.18178419D+05 0.18178419D+05 0.12384183D+01  1  2  4  2  6  2       -4 -.645340903093D-01 0.100000000000D+01
-.282527622923D-02 0.000000000000D+00 -.331359146049D-05 0.132897049874D-04 0.000000000000D+00  6 4 -4 25 23 21 21 4 0.11461651D+00 0.14220703D-01 0.18178419D+05 0.18178419D+05 0.18178419D+05 0.12384183D+01  1  2  5  2  6  2       -4 -.287603751472D-01 0.100000000000D+01
0.243758336480D-02 0.000000000000D+00 0.285655765095D-05 0.132897049874D-04 0.000000000000D+00  6 4 -4 25 23 21 21 4 0.11461651D+00 0.81360581D-02 0.18178419D+05 0.18178419D+05 0.18178419D+05 0.12384183D+01  1  2  6  2  6  2       -4 0.639574602672D-01 0.100000000000D+01
0.128070466383D-02 0.000000000000D+00 0.000000000000D+00 0.132897049874D-04 0.229985240347D-05  6 4 -4 25 23 21 21 4 0.11465602D+00 0.14218889D-01 0.18788048D+05 0.18788048D+05 0.18788048D+05 0.12368261D+01  1  2 11  2  6  2       -4 0.129916784746D-01 0.100000000000D+01
0.100819655275D-03 0.000000000000D+00 0.000000000000D+00 0.132555551355D-04 0.000000000000D+00  6 4 21 25 23 4 21 4 0.11461651D+00 0.14221893D-01 0.18788048D+05 0.18788048D+05 0.18788048D+05 0.12368261D+01  3  4 12  5  5  2       -4 0.263115444642D-01 0.100000000000D+01
-.174150054935D-03 0.000000000000D+00 -.204446744885D-06 0.132897049874D-04 0.000000000000D+00  6 4 21 25 23 4 21 4 0.11461651D+00 0.14220703D-01 0.18178419D+05 0.18178419D+05 0.18178419D+05 0.12384183D+01  3  4  5  5  5  2       -4 -.456652611704D-01 0.100000000000D+01
0.791053718347D-04 0.000000000000D+00 0.000000000000D+00 0.132897049874D-04 0.284106282904D-06  6 4 21 25 23 4 21 4 0.11465602D+00 0.14218889D-01 0.18788048D+05 0.18788048D+05 0.18788048D+05 0.12368261D+01  3  4 11  5  5  2       -4 0.206355960380D-01 0.100000000000D+01
  </mgrwgt>
  </event>
  <event>
  6     66 -.57005756E-03 0.59597111E+02 0.75467711E-02 0.11903884E+00
        2 -1    0    0  502    0 0.00000000E+00 0.00000000E+00 0.10121999E+04 0.10121999E+04 0.32000000E+00 0.0000E+00 0.9000E+01
       -2 -1    0    0    0  501 0.00000000E+00 0.00000000E+00 -.55989310E+02 0.55990225E+02 0.32000000E+00 0.0000E+00 0.9000E+01
       25  1    1    2    0    0 -.89258757E+02 -.25057707E+02 0.20028539E+03 0.25364197E+03 0.12500000E+03 0.0000E+00 0.9000E+01
       23  1    1    2    0    0 0.32023842E+02 -.31051565E+01 0.57388248E+02 0.11244479E+03 0.91188000E+02 0.0000E+00 0.9000E+01
        2  1    1    2  502    0 0.13038125E+01 0.31751586E+01 0.16894199E+03 0.16897716E+03 0.32000000E+00 0.0000E+00 0.9000E+01
       -2  1    1    2    0  501 0.55931102E+02 0.24987705E+02 0.52959493E+03 0.53312622E+03 0.32000000E+00 0.0000E+00 0.9000E+01
#aMCatNLO 2  0  0  5  1 0.12664274D+02 0.00000000D+00  -5  6  0 0.00000000D+00 0.00000000D+00 0.00000000D+00 0.00000000D+00 0.00000000D+00
  <mgrwgt>
 -.2162464059D-02    3    2    0
 0.238060681434148D+03 0.000000000000000D+00 0.000000000000000D+00 0.238060681434148D+03
 0.238060681434148D+03 -.000000000000000D+00 -.000000000000000D+00 -.238060681434148D+03
 0.167328171825147D+03 -.895805729904877D+02 -.252160587360303D+02 -.609359369408799D+02
 0.137474771968324D+03 0.317594738694695D+02 -.323524093725997D+01 -.978004632880384D+02
 0.171318419074825D+03 0.578210991210182D+02 0.284512996732903D+02 0.158736400228918D+03
 0.000000000000000D+00 0.000000000000000D+00 0.000000000000000D+00 0.000000000000000D+00
 0.238060681434148D+03 0.000000000000000D+00 0.000000000000000D+00 0.238060681434148D+03
 0.238060681434148D+03 -.000000000000000D+00 -.000000000000000D+00 -.238060681434148D+03
 0.166816098218174D+03 -.892611943757370D+02 -.250589061253804D+02 -.600591460741148D+02
 0.137021387708320D+03 0.320218401917187D+02 -.310614164700144D+01 -.970801884027759D+02
 0.395275785853465D+02 0.128027490544019D+01 0.314832325475077D+01 0.393811938070805D+02
 0.132756298356455D+03 0.559590792785781D+02 0.250167245176311D+02 0.117758140669810D+03
-.254342459287D-05 0.000000000000D+00 0.000000000000D+00 0.553091303200D-05 0.000000000000D+00  6 2 -2 25 23 2 -2 4 0.15572313D+00 0.86138143D-02 0.25125653D+05 0.25125653D+05 0.25125653D+05 0.12230643D+01  1  2 13  7  6  5       21 -.122806079936D-02 0.100000000000D+01
-.326487291937D-05 0.000000000000D+00 0.000000000000D+00 0.553091303200D-05 0.000000000000D+00  6 2 -2 25 23 2 -2 4 0.15572313D+00 0.86138143D-02 0.25125653D+05 0.25125653D+05 0.25125653D+05 0.12230643D+01  1  2 13  7  6  5       21 -.157640311351D-02 0.100000000000D+01
0.132963955646D-05 0.000000000000D+00 0.000000000000D+00 0.553124988579D-05 0.581364522655D-07  6 2 -2 25 23 2 -2 4 0.15572313D+00 0.86138143D-02 0.25125653D+05 0.25125653D+05 0.25125653D+05 0.12230643D+01  1  2  1  7  6  5       21 0.641999853721D-03 0.100000000000D+01
  </mgrwgt>
  </event>
  <event>
  5     66 0.57005756E-03 0.20188749E+02 0.75467711E-02 0.11468005E+00
        2 -1    0    0  502    0 0.00000000E+00 0.00000000E+00 0.99539697E+03 0.99539702E+03 0.32000000E+00 0.0000E+00 0.9000E+01
       -2 -1    0    0    0  501 0.00000000E+00 0.00000000E+00 -.19489382E+02 0.19492009E+02 0.32000000E+00 0.0000E+00 0.9000E+01
       25  1    1    2    0    0 0.19292139E+02 -.10048487E+02 0.49511240E+03 0.51111099E+03 0.12500000E+03 0.0000E+00 0.9000E+01
       23  1    1    2    0    0 -.36424200E+02 -.62685737E+00 0.20563525E+03 0.22787765E+03 0.91188000E+02 0.0000E+00 0.9000E+01
       21  1    1    2  502  501 0.17132061E+02 0.10675344E+02 0.27515994E+03 0.27590039E+03 0.75000000E+00 0.0000E+00 0.9000E+01
#aMCatNLO 1  0  0  1  5 0.46712076D+01 0.00000000D+00  -5  6  0 0.00000000D+00 0.00000000D+00 0.00000000D+00 0.00000000D+00 0.00000000D+00
  <mgrwgt>
 0.2370119692D+00    3    2    0
 0.139287583545676D+03 0.000000000000000D+00 0.000000000000000D+00 0.139287583545676D+03
 0.139287583545676D+03 0.000000000000000D+00 0.000000000000000D+00 -.139287583545676D+03
 0.127566562461771D+03 0.192908390182884D+02 -.100492970242623D+02 0.132326496818075D+02
 0.109808502281771D+03 -.364253192013132D+02 -.627554734424416D+00 -.491473104605279D+02
 0.412001023478097D+02 0.171344801830248D+02 0.106768517586867D+02 0.359146607787203D+02
 0.000000000000000D+00 -.000000000000000D+00 0.000000000000000D+00 -.000000000000000D+00
 0.180783318814843D+03 0.000000000000000D+00 0.000000000000000D+00 0.180783318814843D+03
 0.303976647800407D+03 0.000000000000000D+00 0.000000000000000D+00 -.303976647800407D+03
 0.150404931722433D+03 0.687960586007087D+02 -.457016716306549D+02 0.132326496818075D+02
 0.107460613186513D+03 0.226913506746872D+01 -.284942966743072D+02 -.491473104605279D+02
 0.489045816785770D+02 0.331816370370831D+02 -.879894223944808D+00 0.359146607787203D+02
 0.177989840027727D+03 -.104246830705260D+03 0.750758625289069D+02 -.123193328985564D+03
0.112016092697D-03 0.000000000000D+00 0.000000000000D+00 0.348889843116D-04 0.000000000000D+00  6 2 -2 25 23 21 21 2 0.15313820D+00 0.29985725D-02 0.15038498D+05 0.15038498D+05 0.15038498D+05 0.12476956D+01  1  2  2  1  6  1        2 0.187015895933D+00 0.100000000000D+01
0.158086038910D-04 0.591125161409D-05 -.430171290471D-06 0.348889843116D-04 0.000000000000D+00  6 2 -2 25 23 21 21 4 0.15313820D+00 0.29985725D-02 0.15038498D+05 0.15038498D+05 0.15038498D+05 0.12476956D+01  1  2  3  1  6  1        2 0.410874264943D-01 0.100000000000D+01
0.342764879429D-05 0.000000000000D+00 0.000000000000D+00 0.348889843116D-04 0.000000000000D+00  6 2 -2 25 23 21 21 4 0.15313820D+00 0.29985725D-02 0.15038498D+05 0.15038498D+05 0.15038498D+05 0.12476956D+01  1  2 15  1  6  1        2 0.890864676315D-02 0.100000000000D+01
  </mgrwgt>
  </event>
  <event>
  5     66 0.57005756E-03 0.25531921E+02 0.75467711E-02 0.12096497E+00
        2 -1    0    0  502    0 0.00000000E+00 0.00000000E+00 0.91114276E+03 0.91114282E+03 0.32000000E+00 0.0000E+00 0.9000E+01
       -2 -1    0    0    0  501 0.00000000E+00 0.00000000E+00 -.24222076E+03 0.24222097E+03 0.32000000E+00 0.0000E+00 0.9000E+01
       25  1    1    2    0    0 -.11812215E+02 -.42231491E+02 -.96269308E+02 0.16375533E+03 0.12500000E+03 0.0000E+00 0.9000E+01
       23  1    1    2    0    0 -.12659095E+02 0.34949115E+02 -.90376478E+02 0.13365946E+03 0.91188000E+02 0.0000E+00 0.9000E+01
       21  1    1    2  502  501 0.24471310E+02 0.72823755E+01 0.85556779E+03 0.85594900E+03 0.75000000E+00 0.0000E+00 0.9000E+01
#aMCatNLO 1  0  0  5  2 0.16882571D+02 0.00000000D+00  -5  6  0 0.00000000D+00 0.00000000D+00 0.00000000D+00 0.00000000D+00 0.00000000D+00
  <mgrwgt>
 0.4067373425D+00    4    2    0
 0.469784891948420D+03 0.000000000000000D+00 0.000000000000000D+00 0.469784891948420D+03
 0.469784891948420D+03 -.000000000000000D+00 -.000000000000000D+00 -.469784891948420D+03
 0.269555573253340D+03 -.118122247172083D+02 -.422314936151682D+02 -.234759833374875D+03
 0.228416171478790D+03 -.126591035733011D+02 0.349491125306651D+02 -.206099497037395D+03
 0.441598039164710D+03 0.244713282905090D+02 0.728238108450295D+01 0.440859330412270D+03
 0.000000000000000D+00 0.000000000000000D+00 -.000000000000000D+00 0.000000000000000D+00
 0.469784891948420D+03 0.000000000000000D+00 0.000000000000000D+00 0.469784891948420D+03
 0.469784891948420D+03 -.000000000000000D+00 -.000000000000000D+00 -.469784891948420D+03
 0.263426766347195D+03 -.114224401016485D+02 -.421154982724681D+02 -.227737730504906D+03
 0.223060731118226D+03 -.123289261211836D+02 0.350473694786855D+02 -.200151237558803D+03
 0.435106561068074D+03 0.296573817663053D+02 0.230990405475065D+02 0.433479634489370D+03
 0.179757253633460D+02 -.590601554347363D+01 -.160309117537240D+02 -.559066642566032D+01
0.138327790121D-01 0.000000000000D+00 0.000000000000D+00 0.185661521971D-03 0.000000000000D+00  6 2 -2 25 23 21 21 2 0.14017583D+00 0.37264753D-01 0.16444722D+05 0.16444722D+05 0.16444722D+05 0.12432954D+01  1  2  2  3  6  5       21 0.452272963929D+00 0.100000000000D+01
0.502931214961D-02 0.729975803419D-03 -.531215136606D-04 0.185661521971D-03 0.000000000000D+00  6 2 -2 25 23 21 21 4 0.14017583D+00 0.37264753D-01 0.16444722D+05 0.16444722D+05 0.16444722D+05 0.12432954D+01  1  2  3  3  6  5       21 0.254184135570D+00 0.100000000000D+01
0.639349740946D-03 0.000000000000D+00 0.000000000000D+00 0.185661521971D-03 0.000000000000D+00  6 2 -2 25 23 21 21 4 0.14017583D+00 0.37264753D-01 0.16444722D+05 0.16444722D+05 0.16444722D+05 0.12432954D+01  1  2 15  3  6  5       21 0.323130790841D-01 0.100000000000D+01
-.656963414688D-02 0.000000000000D+00 0.000000000000D+00 0.185661521971D-03 0.000000000000D+00  6 2 -2 25 23 21 21 4 0.14017583D+00 0.37264753D-01 0.16444722D+05 0.16444722D+05 0.16444722D+05 0.12432954D+01  1  2  4  3  6  5       21 -.332032836093D+00 0.100000000000D+01
  </mgrwgt>
  </event>
  <event>
  5     66 -.57005756E-03 0.34086155E+02 0.75467711E-02 0.11668471E+00
        2 -1    0    0  502    0 0.00000000E+00 0.00000000E+00 0.20556602E+03 0.20556627E+03 0.32000000E+00 0.0000E+00 0.9000E+01
       -2 -1    0    0    0  501 0.00000000E+00 0.00000000E+00 -.20761992E+03 0.20762017E+03 0.32000000E+00 0.0000E+00 0.9000E+01
       25  1    1    2    0    0 0.71114518E+02 -.36958126E+02 0.43553519E+02 0.15474200E+03 0.12500000E+03 0.0000E+00 0.9000E+01
       23  1    1    2    0    0 -.69614615E+02 0.71010052E+02 -.11747681E+03 0.17889850E+03 0.91188000E+02 0.0000E+00 0.9000E+01
       21  1    1    2  502  501 -.14999026E+01 -.34051926E+02 0.71869396E+02 0.79545936E+02 0.75000000E+00 0.0000E+00 0.9000E+01
#aMCatNLO 1  0  0  1  2 0.15469240D+03 0.00000000D+00  -5  6  0 0.00000000D+00 0.00000000D+00 0.00000000D+00 0.00000000D+00 0.00000000D+00
  <mgrwgt>
 -.1255427860D+00    5    4    0
 0.206590667144341D+03 0.000000000000000D+00 0.000000000000000D+00 0.206590667144341D+03
 0.206590667144341D+03 0.000000000000000D+00 0.000000000000000D+00 -.206590667144341D+03
 0.154959949461800D+03 0.711145426610810D+02 -.369575629358605D+02 0.443220746485409D+02
 0.178317889151061D+03 -.696145867488924D+02 0.710106989191696D+02 -.116590343502719D+03
 0.799034956758214D+02 -.149995591218860D+01 -.340531359833091D+02 0.722682688541780D+02
 0.000000000000000D+00 0.000000000000000D+00 0.000000000000000D+00 0.000000000000000D+00
 0.511909319622290D+03 0.000000000000000D+00 0.000000000000000D+00 0.511909319622290D+03
 0.208800677214085D+03 0.000000000000000D+00 0.000000000000000D+00 -.208800677214085D+03
 0.155349181583615D+03 0.637798881951608D+02 -.497599013198490D+02 0.443220746485409D+02
 0.176551748031295D+03 -.780025003124096D+02 0.563699400020663D+02 -.116590343502719D+03
 0.831528840327892D+02 -.535405520858189D+01 -.407803081476121D+02 0.722682688541780D+02
 0.305656183188675D+03 0.195766673258307D+02 0.341702694653948D+02 0.303108642408204D+03
 0.206590667144341D+03 0.000000000000000D+00 0.000000000000000D+00 0.206590667144341D+03
 0.206590667144341D+03 0.000000000000000D+00 0.000000000000000D+00 -.206590667144341D+03
 0.154959949461800D+03 0.711145426610810D+02 -.369575629358605D+02 0.443220746485409D+02
 0.178317889151061D+03 -.696145867488924D+02 0.710106989191696D+02 -.116590343502719D+03
 0.000000000000000D+00 0.000000000000000D+00 0.000000000000000D+00 0.000000000000000D+00
 0.799034956758214D+02 -.149995591218860D+01 -.340531359833091D+02 0.722682688541780D+02
 0.511909319622290D+03 0.000000000000000D+00 0.000000000000000D+00 0.511909319622290D+03
 0.208800677214085D+03 0.000000000000000D+00 0.000000000000000D+00 -.208800677214085D+03
 0.155349181583615D+03 0.637798881951608D+02 -.497599013198490D+02 0.443220746485409D+02
 0.176551748031295D+03 -.780025003124096D+02 0.563699400020663D+02 -.116590343502719D+03
 0.305656183188675D+03 0.195766673258307D+02 0.341702694653948D+02 0.303108642408204D+03
 0.831528840327892D+02 -.535405520858189D+01 -.407803081476121D+02 0.722682688541780D+02
0.284256633997D-04 0.000000000000D+00 0.000000000000D+00 0.762769742471D-05 0.000000000000D+00  6 2 -2 25 23 21 21 2 0.31625580D-01 0.31941564D-01 0.25200669D+05 0.25200669D+05 0.25200669D+05 0.12229256D+01  1  2  2  1  6  1        2 0.630838819705D-02 0.100000000000D+01
0.212894962446D-05 0.150006346952D-05 -.109162032104D-06 0.762769742471D-05 0.000000000000D+00  6 2 -2 25 23 21 21 4 0.31625580D-01 0.31941564D-01 0.25200669D+05 0.25200669D+05 0.25200669D+05 0.12229256D+01  1  2  3  1  6  1        2 0.706599357349D-03 0.100000000000D+01
0.982506552317D-06 0.000000000000D+00 0.000000000000D+00 0.762769742471D-05 0.000000000000D+00  6 2 -2 25 23 21 21 4 0.31625580D-01 0.31941564D-01 0.25200669D+05 0.25200669D+05 0.25200669D+05 0.12229256D+01  1  2 15  1  6  1        2 0.326094375593D-03 0.100000000000D+01
-.897269855045D-03 0.000000000000D+00 -.187614382444D-04 0.762769742471D-05 0.000000000000D+00  6 2 -2 25 23 21 21 4 0.78630249D-01 0.31941564D-01 0.25200669D+05 0.25200669D+05 0.25200669D+05 0.12229256D+01  1  2  5  1  6  1        2 -.111821083237D+00 0.100000000000D+01
-.887164732868D-04 0.000000000000D+00 -.187932732354D-05 0.762769742471D-05 0.000000000000D+00  6 21 -2 25 23 -2 21 4 0.78630249D-01 0.31941564D-01 0.25200669D+05 0.25200669D+05 0.25200669D+05 0.12229256D+01  3  4  5  4  5  1        2 -.210627846687D-01 0.100000000000D+01
  </mgrwgt>
  </event>
  <event>
  6     66 0.57005756E-03 0.37395941E+02 0.75467711E-02 0.12141841E+00
        2 -1    0    0  503    0 0.00000000E+00 0.00000000E+00 0.26084642E+04 0.26084642E+04 0.00000000E+00 0.0000E+00 0.9000E+01
       -2 -1    0    0    0  501 0.00000000E+00 0.00000000E+00 -.73065346E+02 0.73065346E+02 0.00000000E+00 0.0000E+00 0.9000E+01
       25  1    1    2    0    0 0.40045930E+02 0.27890753E+02 0.29633365E+02 0.13742164E+03 0.12500000E+03 0.0000E+00 0.9000E+01
       23  1    1    2    0    0 -.13409507E+02 -.53986525E+02 0.13111868E+03 0.16912043E+03 0.91188000E+02 0.0000E+00 0.9000E+01
       21  1    1    2  502  501 0.18527058E+00 -.12166826E+00 0.53082727E+00 0.57524425E+00 0.00000000E+00 0.0000E+00 0.9000E+01
       21  1    1    2  503  502 -.26821694E+02 0.26217441E+02 0.23741159E+04 0.23744122E+04 0.00000000E+00 0.0000E+00 0.9000E+01
#aMCatNLO 2  0  0  1  2 0.15469240D+03 0.00000000D+00  -5  6  0 0.00000000D+00 0.00000000D+00 0.00000000D+00 0.00000000D+00 0.00000000D+00
  <mgrwgt>
 0.3030706367D+00    1    2    0
 0.129327221533403D+03 0.000000000000000D+00 0.000000000000000D+00 0.129327221533403D+03
 0.129327221533403D+03 0.000000000000000D+00 0.000000000000000D+00 -.129327221533403D+03
 0.143366316171543D+03 0.252654837750558D+02 0.423382172835102D+02 -.499803091173477D+02
 0.114967641316508D+03 -.254162547611038D+02 -.422502713949044D+02 0.497115254931578D+02
 0.320485578753903D+00 0.150770986048075D+00 -.879458886057661D-01 0.268783624189900D+00
 0.000000000000000D+00 -.000000000000000D+00 0.000000000000000D+00 0.000000000000000D+00
 0.145548051603718D+04 0.000000000000000D+00 0.000000000000000D+00 0.145548051603718D+04
 0.130945302084524D+03 0.000000000000000D+00 0.000000000000000D+00 -.130945302084524D+03
 0.143194280234899D+03 0.400459298399906D+02 0.278907528721570D+02 -.499803091173477D+02
 0.117817005931554D+03 -.134095065670331D+02 -.539865252581386D+02 0.497115254931578D+02
 0.348386264537305D+00 0.185270579949314D+00 -.121668257531882D+00 0.268783624189900D+00
 0.132506614569072D+04 -.268216938529068D+02 0.262174406435135D+02 0.132453521395266D+04
0.641113505429D-02 0.000000000000D+00 0.000000000000D+00 0.350537096412D+00 0.349712771687D-02  6 2 -2 25 23 21 21 4 0.40130218D+00 0.11240822D-01 0.19422988D+05 0.19422988D+05 0.19422988D+05 0.12352282D+01  1  2  1  1  6  1        2 0.303070636687D+00 0.100000000000D+01
  </mgrwgt>
  </event>
  <event>
  5     66 0.57005756E-03 0.55490414E+02 0.75467711E-02 0.11751394E+00
        2 -1    0    0  502    0 0.00000000E+00 0.00000000E+00 0.37188178E+04 0.37188178E+04 0.32000000E+00 0.0000E+00 0.9000E+01
       -2 -1    0    0    0  501 0.00000000E+00 0.00000000E+00 -.95006533E+01 0.95060409E+01 0.32000000E+00 0.0000E+00 0.9000E+01
       25  1    1    2    0    0 -.23919516E+02 -.95704680E+02 0.21099908E+04 0.21159910E+04 0.12500000E+03 0.0000E+00 0.9000E+01
       23  1    1    2    0    0 0.71498470E+02 0.67153169E+02 0.13636663E+04 0.13702272E+04 0.91188000E+02 0.0000E+00 0.9000E+01
       21  1    1    2  502  501 -.47578954E+02 0.28551511E+02 0.23565997E+03 0.24210562E+03 0.75000000E+00 0.0000E+00 0.9000E+01
#aMCatNLO 1  0  0  5  1 0.83207543D+01 0.00000000D+00  -5  6  0 0.00000000D+00 0.00000000D+00 0.00000000D+00 0.00000000D+00 0.00000000D+00
  <mgrwgt>
 0.7798759712D-01   25    2    0
 0.187992731786877D+03 0.000000000000000D+00 0.000000000000000D+00 0.187992731786877D+03
 0.187992731786877D+03 -.000000000000000D+00 -.000000000000000D+00 -.187992731786877D+03
 0.166162496207266D+03 -.239184871666357D+02 -.957052967533327D+02 0.474697513248777D+02
 0.133994779176795D+03 0.714992990354737D+02 0.671526710804776D+02 0.420933567576134D+01
 0.758281881896935D+02 -.475808118688381D+02 0.285526256728551D+02 -.516790870006391D+02
 0.000000000000000D+00 0.000000000000000D+00 0.000000000000000D+00 -.000000000000000D+00
 0.187992731786877D+03 0.000000000000000D+00 0.000000000000000D+00 0.187992731786877D+03
 0.187992731786877D+03 -.000000000000000D+00 -.000000000000000D+00 -.187992731786877D+03
 0.165368736501977D+03 -.255026239464741D+02 -.947546768981269D+02 0.457491681895613D+02
 0.133668428914644D+03 0.702203391948512D+02 0.679201582280398D+02 0.282021526612955D+01
 0.928130502198906D+01 -.859642434651679D+01 0.190605557675636D+01 0.293446136524751D+01
 0.676669931351443D+02 -.361212909018603D+02 0.249284630933307D+02 -.515038448209384D+02
0.323457027825D-03 0.000000000000D+00 0.000000000000D+00 0.382909231702D-05 0.000000000000D+00  6 2 -2 25 23 21 21 2 0.57212622D+00 0.14620545D-02 0.30390358D+05 0.30390358D+05 0.30390358D+05 0.12143096D+01  1  2  2  3  6  5       21 0.432086351878D-01 0.100000000000D+01
0.585118668553D-05 0.170692963107D-04 -.124216015504D-05 0.382909231702D-05 0.000000000000D+00  6 2 -2 25 23 21 21 4 0.57212622D+00 0.14620545D-02 0.30390358D+05 0.30390358D+05 0.30390358D+05 0.12143096D+01  1  2  3  3  6  5       21 0.115254196672D-02 0.100000000000D+01
0.505692667767D-05 0.000000000000D+00 0.000000000000D+00 0.382909231702D-05 0.000000000000D+00  6 2 -2 25 23 21 21 4 0.57212622D+00 0.14620545D-02 0.30390358D+05 0.30390358D+05 0.30390358D+05 0.12143096D+01  1  2 15  3  6  5       21 0.996091994989D-03 0.100000000000D+01
0.144519555170D-04 0.000000000000D+00 0.000000000000D+00 0.383474295544D-05 0.000000000000D+00  6 2 -2 25 23 21 21 4 0.57212622D+00 0.14620545D-02 0.29798811D+05 0.29798811D+05 0.29798811D+05 0.12152052D+01  1  2 12  3  6  5       21 0.285677130742D-02 0.100000000000D+01
0.975788886819D-05 0.000000000000D+00 0.000000000000D+00 0.383474295544D-05 0.000000000000D+00  6 2 -2 25 23 21 21 4 0.57212622D+00 0.14620545D-02 0.29798811D+05 0.29798811D+05 0.29798811D+05 0.12152052D+01  1  2 12  3  6  5       21 0.192887785372D-02 0.100000000000D+01
-.715857385565D-04 0.000000000000D+00 0.000000000000D+00 0.382909231702D-05 0.000000000000D+00  6 2 -2 25 23 21 21 4 0.57212622D+00 0.14620545D-02 0.30390358D+05 0.30390358D+05 0.30390358D+05 0.12143096D+01  1  2  4  3  6  5       21 -.141006555318D-01 0.100000000000D+01
-.168104409021D-04 0.000000000000D+00 0.000000000000D+00 0.382909231702D-05 0.000000000000D+00  6 2 -2 25 23 21 21 4 0.57212622D+00 0.14620545D-02 0.30390358D+05 0.30390358D+05 0.30390358D+05 0.12143096D+01  1  2  5  3  6  5       21 -.331124943708D-02 0.100000000000D+01
0.216395628581D-03 0.000000000000D+00 -.000000000000D+00 0.382909231702D-05 0.000000000000D+00  6 2 -2 25 23 21 21 4 0.57212622D+00 0.14620545D-02 0.30390358D+05 0.30390358D+05 0.30390358D+05 0.12143096D+01  1  2  6  3  6  5       21 0.426246942302D-01 0.100000000000D+01
0.586590888063D-07 0.000000000000D+00 0.000000000000D+00 0.382909231702D-05 0.510106335134D-06  6 2 -2 25 23 21 21 4 0.57212622D+00 0.14620545D-02 0.29798811D+05 0.29798811D+05 0.29798811D+05 0.12152052D+01  1  2 11  3  6  5       21 0.115953582631D-04 0.100000000000D+01
0.659740104445D-05 0.000000000000D+00 0.000000000000D+00 0.383474295544D-05 0.000000000000D+00  6 2 -2 25 23 1 -1 4 0.57212622D+00 0.14620545D-02 0.29798811D+05 0.29798811D+05 0.29798811D+05 0.12152052D+01  1  2 12  6  6  5       21 0.130413257813D-02 0.100000000000D+01
0.659740104445D-05 0.000000000000D+00 0.000000000000D+00 0.383474295544D-05 0.000000000000D+00  6 2 -2 25 23 3 -3 4 0.57212622D+00 0.14620545D-02 0.29798811D+05 0.29798811D+05 0.29798811D+05 0.12152052D+01  1  2 12  6  6  5       21 0.130413257813D-02 0.100000000000D+01
0.569009265636D-05 0.000000000000D+00 0.000000000000D+00 0.383474295544D-05 0.000000000000D+00  6 2 -2 25 23 1 -1 4 0.57212622D+00 0.14620545D-02 0.29798811D+05 0.29798811D+05 0.29798811D+05 0.12152052D+01  1  2 12  6  6  5       21 0.112478158531D-02 0.100000000000D+01
0.569009265636D-05 0.000000000000D+00 0.000000000000D+00 0.383474295544D-05 0.000000000000D+00  6 2 -2 25 23 3 -3 4 0.57212622D+00 0.14620545D-02 0.29798811D+05 0.29798811D+05 0.29798811D+05 0.12152052D+01  1  2 12  6  6  5       21 0.112478158531D-02 0.100000000000D+01
-.901925739438D-05 0.000000000000D+00 0.000000000000D+00 0.382909231702D-05 0.000000000000D+00  6 2 -2 25 23 1 -1 4 0.57212622D+00 0.14620545D-02 0.30390358D+05 0.30390358D+05 0.30390358D+05 0.12143096D+01  1  2  5  6  6  5       21 -.177657511448D-02 0.100000000000D+01
-.901925739438D-05 0.000000000000D+00 0.000000000000D+00 0.382909231702D-05 0.000000000000D+00  6 2 -2 25 23 3 -3 4 0.57212622D+00 0.14620545D-02 0.30390358D+05 0.30390358D+05 0.30390358D+05 0.12143096D+01  1  2  5  6  6  5       21 -.177657511448D-02 0.100000000000D+01
0.145860930184D-07 0.000000000000D+00 0.000000000000D+00 0.382909231702D-05 0.301064447134D-08  6 2 -2 25 23 1 -1 4 0.57212622D+00 0.14620545D-02 0.29798811D+05 0.29798811D+05 0.29798811D+05 0.12152052D+01  1  2 11  6  6  5       21 0.288328676167D-05 0.100000000000D+01
0.145860930184D-07 0.000000000000D+00 0.000000000000D+00 0.382909231702D-05 0.301064447134D-08  6 2 -2 25 23 3 -3 4 0.57212622D+00 0.14620545D-02 0.29798811D+05 0.29798811D+05 0.29798811D+05 0.12152052D+01  1  2 11  6  6  5       21 0.288328676167D-05 0.100000000000D+01
0.659740104445D-05 0.000000000000D+00 0.000000000000D+00 0.383474295544D-05 0.000000000000D+00  6 2 -2 25 23 2 -2 4 0.57212622D+00 0.14620545D-02 0.29798811D+05 0.29798811D+05 0.29798811D+05 0.12152052D+01  1  2 12  7  6  5       21 0.130413257813D-02 0.100000000000D+01
0.569009265636D-05 0.000000000000D+00 0.000000000000D+00 0.383474295544D-05 0.000000000000D+00  6 2 -2 25 23 2 -2 4 0.57212622D+00 0.14620545D-02 0.29798811D+05 0.29798811D+05 0.29798811D+05 0.12152052D+01  1  2 12  7  6  5       21 0.112478158531D-02 0.100000000000D+01
-.901925739438D-05 0.000000000000D+00 0.000000000000D+00 0.382909231702D-05 0.000000000000D+00  6 2 -2 25 23 2 -2 4 0.57212622D+00 0.14620545D-02 0.30390358D+05 0.30390358D+05 0.30390358D+05 0.12143096D+01  1  2  5  7  6  5       21 -.177657511448D-02 0.100000000000D+01
0.116457647310D-07 0.000000000000D+00 0.000000000000D+00 0.382909231702D-05 0.303184458534D-08  6 2 -2 25 23 2 -2 4 0.57212622D+00 0.14620545D-02 0.29798811D+05 0.29798811D+05 0.29798811D+05 0.12152052D+01  1  2 11  7  6  5       21 0.230206123299D-05 0.100000000000D+01
0.659740104445D-05 0.000000000000D+00 0.000000000000D+00 0.383474295544D-05 0.000000000000D+00  6 2 -2 25 23 4 -4 4 0.57212622D+00 0.14620545D-02 0.29798811D+05 0.29798811D+05 0.29798811D+05 0.12152052D+01  1  2 12  8  6  5       21 0.130413257813D-02 0.100000000000D+01
0.569009265636D-05 0.000000000000D+00 0.000000000000D+00 0.383474295544D-05 0.000000000000D+00  6 2 -2 25 23 4 -4 4 0.57212622D+00 0.14620545D-02 0.29798811D+05 0.29798811D+05 0.29798811D+05 0.12152052D+01  1  2 12  8  6  5       21 0.112478158531D-02 0.100000000000D+01
-.901925739438D-05 0.000000000000D+00 0.000000000000D+00 0.382909231702D-05 0.000000000000D+00  6 2 -2 25 23 4 -4 4 0.57212622D+00 0.14620545D-02 0.30390358D+05 0.30390358D+05 0.30390358D+05 0.12143096D+01  1  2  5  8  6  5       21 -.177657511448D-02 0.100000000000D+01
0.145156502464D-07 0.000000000000D+00 0.000000000000D+00 0.382909231702D-05 0.299610472162D-08  6 2 -2 25 23 4 -4 4 0.57212622D+00 0.14620545D-02 0.29798811D+05 0.29798811D+05 0.29798811D+05 0.12152052D+01  1  2 11  8  6  5       21 0.286936207933D-05 0.100000000000D+01
  </mgrwgt>
  </event>
  <event>
  5     66 0.57005756E-03 0.52448815E+02 0.75467711E-02 0.10534734E+00
        2 -1    0    0  502    0 0.00000000E+00 0.00000000E+00 0.51957295E+03 0.51957305E+03 0.32000000E+00 0.0000E+00 0.9000E+01
       -2 -1    0    0    0  501 0.00000000E+00 0.00000000E+00 -.53043844E+02 0.53044809E+02 0.32000000E+00 0.0000E+00 0.9000E+01
       25  1    1    2    0    0 -.77097810E+02 -.33758008E+02 0.11473685E+03 0.18940227E+03 0.12500000E+03 0.0000E+00 0.9000E+01
       23  1    1    2    0    0 0.31205606E+02 0.83744381E+01 0.26113444E+03 0.27847867E+03 0.91188000E+02 0.0000E+00 0.9000E+01
       21  1    1    2  502  501 0.45892204E+02 0.25383570E+02 0.90657822E+02 0.10473692E+03 0.75000000E+00 0.0000E+00 0.9000E+01
#aMCatNLO 1  0  0  2  5 0.31278350D+03 0.00000000D+00  -5  6  0 0.00000000D+00 0.00000000D+00 0.00000000D+00 0.00000000D+00 0.00000000D+00
  <mgrwgt>
 0.8846336679D-01    3    2    0
 0.166013405954749D+03 0.000000000000000D+00 0.000000000000000D+00 0.166013405954749D+03
 0.166013405954749D+03 0.000000000000000D+00 0.000000000000000D+00 -.166013405954749D+03
 0.165431040675438D+03 -.771000780044529D+02 -.337592630820824D+02 -.682518816357505D+02
 0.113348749258079D+03 0.312040514276784D+02 0.837357839731368D+01 0.590667247584773D+02
 0.532470219759811D+02 0.458960265767745D+02 0.253856846847687D+02 0.918515687727316D+01
 0.000000000000000D+00 0.000000000000000D+00 0.000000000000000D+00 0.000000000000000D+00
 0.523897565528248D+03 0.000000000000000D+00 0.000000000000000D+00 0.523897565528248D+03
 0.310755977864072D+03 0.000000000000000D+00 0.000000000000000D+00 -.310755977864072D+03
 0.271017445925629D+03 -.106683727147734D+03 -.204415554719054D+03 -.682518816357505D+02
 0.142930143061119D+03 0.138327806684563D+02 -.918343653364935D+02 0.590667247584773D+02
 0.422051530463740D+02 0.394260221145858D+02 -.119371946883647D+02 0.918515687727316D+01
 0.378500801359199D+03 0.534249243646918D+02 0.308187114743912D+03 0.213141587664176D+03
0.103428389726D-03 0.000000000000D+00 0.000000000000D+00 0.367320752870D-05 0.000000000000D+00  6 2 -2 25 23 21 21 2 0.79934382D-01 0.81606731D-02 0.22482975D+05 0.22482975D+05 0.22482975D+05 0.12282697D+01  1  2  2  2  6  2       -2 0.825519484085D-01 0.100000000000D+01
0.991769319500D-06 0.545806607776D-05 -.397192249870D-06 0.367320752870D-05 0.000000000000D+00  6 2 -2 25 23 21 21 4 0.79934382D-01 0.81606731D-02 0.22482975D+05 0.22482975D+05 0.22482975D+05 0.12282697D+01  1  2  3  2  6  2       -2 0.119422381480D-02 0.100000000000D+01
0.391749752643D-05 0.000000000000D+00 0.000000000000D+00 0.367320752870D-05 0.000000000000D+00  6 2 -2 25 23 21 21 4 0.79934382D-01 0.81606731D-02 0.22482975D+05 0.22482975D+05 0.22482975D+05 0.12282697D+01  1  2 15  2  6  2       -2 0.471719456180D-02 0.100000000000D+01
  </mgrwgt>
  </event>
  <event>
  5     66 0.57005756E-03 0.38277131E+02 0.75467711E-02 0.12048115E+00
        2 -1    0    0  502    0 0.00000000E+00 0.00000000E+00 0.19056464E+03 0.19056491E+03 0.32000000E+00 0.0000E+00 0.9000E+01
       -2 -1    0    0    0  501 0.00000000E+00 0.00000000E+00 -.11566729E+03 0.11566773E+03 0.32000000E+00 0.0000E+00 0.9000E+01
       25  1    1    2    0    0 -.41946195E+02 0.20201776E+02 0.14515074E+02 0.13417631E+03 0.12500000E+03 0.0000E+00 0.9000E+01
       23  1    1    2    0    0 0.64480115E+02 -.51135208E+02 0.46446603E+02 0.13132034E+03 0.91188000E+02 0.0000E+00 0.9000E+01
       21  1    1    2  502  501 -.22533921E+02 0.30933431E+02 0.13935674E+02 0.40735982E+02 0.75000000E+00 0.0000E+00 0.9000E+01
#aMCatNLO 1  0  0  5  1 0.40251727D+01 0.00000000D+00  -5  6  0 0.00000000D+00 0.00000000D+00 0.00000000D+00 0.00000000D+00 0.00000000D+00
  <mgrwgt>
 0.2034715737D+00    9    2    0
 0.148466170751572D+03 0.000000000000000D+00 0.000000000000000D+00 0.148466170751572D+03
 0.148466170751572D+03 -.000000000000000D+00 -.000000000000000D+00 -.148466170751572D+03
 0.134716688167699D+03 -.419442538206462D+02 0.201991122711436D+02 -.188748908807419D+02
 0.123719809575368D+03 0.644818974691450D+02 -.511376544772399D+02 0.147771827731312D+02
 0.384958437600775D+02 -.225376436484987D+02 0.309385422060963D+02 0.409770810761075D+01
 0.000000000000000D+00 0.000000000000000D+00 -.000000000000000D+00 0.000000000000000D+00
 0.148466170751572D+03 0.000000000000000D+00 0.000000000000000D+00 0.148466170751572D+03
 0.148466170751572D+03 -.000000000000000D+00 -.000000000000000D+00 -.148466170751572D+03
 0.138603804575865D+03 -.488986383240229D+02 0.297457410949369D+02 -.176104713075437D+02
 0.117458398124204D+03 0.583453433698089D+02 -.427137020462169D+02 0.158929075524302D+02
 0.125548494259319D+02 0.834199008899564D+01 -.809084683208532D+01 -.475117280286216D+01
 0.283152893771442D+02 -.177886951347816D+02 0.210588077833652D+02 0.646873655797563D+01
0.261405044656D-03 0.000000000000D+00 0.000000000000D+00 0.863109400379D-05 0.000000000000D+00  6 2 -2 25 23 21 21 2 0.29317692D-01 0.17795022D-01 0.21682437D+05 0.21682437D+05 0.21682437D+05 0.12299828D+01  1  2  2  3  6  5       21 0.175870934984D+00 0.100000000000D+01
0.219893700841D-04 0.137947231951D-04 -.100386420101D-05 0.863109400379D-05 0.000000000000D+00  6 2 -2 25 23 21 21 4 0.29317692D-01 0.17795022D-01 0.21682437D+05 0.21682437D+05 0.21682437D+05 0.12299828D+01  1  2  3  3  6  5       21 0.223815935974D-01 0.100000000000D+01
0.707762133155D-05 0.000000000000D+00 0.000000000000D+00 0.863109400379D-05 0.000000000000D+00  6 2 -2 25 23 21 21 4 0.29317692D-01 0.17795022D-01 0.21682437D+05 0.21682437D+05 0.21682437D+05 0.12299828D+01  1  2 15  3  6  5       21 0.720386457974D-02 0.100000000000D+01
-.397926425007D-04 0.000000000000D+00 0.000000000000D+00 0.863109400379D-05 0.000000000000D+00  6 2 -2 25 23 21 21 4 0.29317692D-01 0.17795022D-01 0.21682437D+05 0.21682437D+05 0.21682437D+05 0.12299828D+01  1  2  4  3  6  5       21 -.405024222710D-01 0.100000000000D+01
0.212751076819D-04 0.000000000000D+00 0.000000000000D+00 0.863109400379D-05 0.270168544848D-06  6 2 -2 25 23 21 21 4 0.29317692D-01 0.17795022D-01 0.21469038D+05 0.21469038D+05 0.21469038D+05 0.12304515D+01  1  2 11  3  6  5       21 0.216814975348D-01 0.100000000000D+01
0.419149755486D-05 0.000000000000D+00 0.000000000000D+00 0.863767228833D-05 0.957779653075D-08  6 2 -2 25 23 1 -1 4 0.29317692D-01 0.17795022D-01 0.21469038D+05 0.21469038D+05 0.21469038D+05 0.12304515D+01  1  2 11  6  6  5       21 0.427156211199D-02 0.100000000000D+01
0.419149755486D-05 0.000000000000D+00 0.000000000000D+00 0.863767228833D-05 0.957779653075D-08  6 2 -2 25 23 3 -3 4 0.29317692D-01 0.17795022D-01 0.21469038D+05 0.21469038D+05 0.21469038D+05 0.12304515D+01  1  2 11  6  6  5       21 0.427156211199D-02 0.100000000000D+01
0.391373262222D-05 0.000000000000D+00 0.000000000000D+00 0.863767228833D-05 0.106795815640D-07  6 2 -2 25 23 2 -2 4 0.29317692D-01 0.17795022D-01 0.21469038D+05 0.21469038D+05 0.21469038D+05 0.12304515D+01  1  2 11  7  6  5       21 0.398849140832D-02 0.100000000000D+01
0.422380790939D-05 0.000000000000D+00 0.000000000000D+00 0.863767228833D-05 0.965162742234D-08  6 2 -2 25 23 4 -4 4 0.29317692D-01 0.17795022D-01 0.21469038D+05 0.21469038D+05 0.21469038D+05 0.12304515D+01  1  2 11  8  6  5       21 0.430448964790D-02 0.100000000000D+01
  </mgrwgt>
  </event>
  <event>
  5     66 0.57005756E-03 0.34226820E+02 0.75467711E-02 0.11912847E+00
        2 -1    0    0  502    0 0.00000000E+00 0.00000000E+00 0.19118966E+03 0.19118993E+03 0.32000000E+00 0.0000E+00 0.9000E+01
       -2 -1    0    0    0  501 0.00000000E+00 0.00000000E+00 -.16265601E+03 0.16265633E+03 0.32000000E+00 0.0000E+00 0.9000E+01
       25  1    1    2    0    0 -.87349408E+02 -.23442399E+02 0.28231792E+02 0.15684865E+03 0.12500000E+03 0.0000E+00 0.9000E+01
       23  1    1    2    0    0 0.85284322E+02 -.10719647E+02 -.51023677E+02 0.13530334E+03 0.91188000E+02 0.0000E+00 0.9000E+01
       21  1    1    2  502  501 0.20650860E+01 0.34162046E+02 0.51325534E+02 0.61694269E+02 0.75000000E+00 0.0000E+00 0.9000E+01
#aMCatNLO 1  0  0  5  2 0.54377442D+01 0.00000000D+00  -5  6  0 0.00000000D+00 0.00000000D+00 0.00000000D+00 0.00000000D+00 0.00000000D+00
  <mgrwgt>
 0.6433886399D-01   25    2    0
 0.176346963377164D+03 0.000000000000000D+00 0.000000000000000D+00 0.176346963377164D+03
 0.176346963377164D+03 -.000000000000000D+00 -.000000000000000D+00 -.176346963377164D+03
 0.155077163630776D+03 -.873494850963075D+02 -.234436657376632D+02 0.156329354235628D+02
 0.139874060804108D+03 0.852842533587698D+02 -.107207900952384D+02 -.621382517504504D+02
 0.577427023194437D+02 0.206523173753775D+01 0.341644558329016D+02 0.465053163268875D+02
 0.000000000000000D+00 0.000000000000000D+00 0.000000000000000D+00 0.000000000000000D+00
 0.176346963377164D+03 0.000000000000000D+00 0.000000000000000D+00 0.176346963377164D+03
 0.176346963377164D+03 -.000000000000000D+00 -.000000000000000D+00 -.176346963377164D+03
 0.155045199187623D+03 -.873021133923085D+02 -.226600110709314D+02 0.166996612729560D+02
 0.139423555609946D+03 0.853269165317579D+02 -.100150271230978D+02 -.611775535782994D+02
 0.514168061159153D+02 -.349734826659713D+01 0.294935347068194D+02 0.419712749003577D+02
 0.680836584084421D+01 0.547254512714774D+01 0.318150348720983D+01 0.250661740498575D+01
0.709465104879D-04 0.000000000000D+00 0.000000000000D+00 0.945284396184D-05 0.000000000000D+00  6 2 -2 25 23 21 21 2 0.29413839D-01 0.25024047D-01 0.24622000D+05 0.24622000D+05 0.24622000D+05 0.12240077D+01  1  2  2  3  6  5       21 0.263828242544D-01 0.100000000000D+01
0.599800903546D-05 0.374395021767D-05 -.272453280919D-06 0.945284396184D-05 0.000000000000D+00  6 2 -2 25 23 21 21 4 0.29413839D-01 0.25024047D-01 0.24622000D+05 0.24622000D+05 0.24622000D+05 0.12240077D+01  1  2  3  3  6  5       21 0.334168599197D-02 0.100000000000D+01
0.200597374185D-05 0.000000000000D+00 0.000000000000D+00 0.945284396184D-05 0.000000000000D+00  6 2 -2 25 23 21 21 4 0.29413839D-01 0.25024047D-01 0.24622000D+05 0.24622000D+05 0.24622000D+05 0.12240077D+01  1  2 15  3  6  5       21 0.111759324032D-02 0.100000000000D+01
0.259331523905D-04 0.000000000000D+00 0.000000000000D+00 0.944538440577D-05 0.000000000000D+00  6 2 -2 25 23 21 21 4 0.29413839D-01 0.25024047D-01 0.24878462D+05 0.24878462D+05 0.24878462D+05 0.12235246D+01  1  2 12  3  6  5       21 0.144286828016D-01 0.100000000000D+01
0.381445640274D-04 0.000000000000D+00 0.000000000000D+00 0.944538440577D-05 0.000000000000D+00  6 2 -2 25 23 21 21 4 0.29413839D-01 0.25024047D-01 0.24878462D+05 0.24878462D+05 0.24878462D+05 0.12235246D+01  1  2 12  3  6  5       21 0.212228658772D-01 0.100000000000D+01
-.178942335829D-03 0.000000000000D+00 0.000000000000D+00 0.945284396184D-05 0.000000000000D+00  6 2 -2 25 23 21 21 4 0.29413839D-01 0.25024047D-01 0.24622000D+05 0.24622000D+05 0.24622000D+05 0.12240077D+01  1  2  4  3  6  5       21 -.996945975700D-01 0.100000000000D+01
-.368691195625D-03 0.000000000000D+00 0.000000000000D+00 0.945284396184D-05 0.000000000000D+00  6 2 -2 25 23 21 21 4 0.29413839D-01 0.25024047D-01 0.24622000D+05 0.24622000D+05 0.24622000D+05 0.12240077D+01  1  2  5  3  6  5       21 -.205409861256D+00 0.100000000000D+01
0.436602573637D-03 0.000000000000D+00 -.000000000000D+00 0.945284396184D-05 0.000000000000D+00  6 2 -2 25 23 21 21 4 0.29413839D-01 0.25024047D-01 0.24622000D+05 0.24622000D+05 0.24622000D+05 0.12240077D+01  1  2  6  3  6  5       21 0.243245499591D+00 0.100000000000D+01
0.110389319001D-03 0.000000000000D+00 0.000000000000D+00 0.945284396184D-05 0.157057718049D-05  6 2 -2 25 23 21 21 4 0.29413839D-01 0.25024047D-01 0.24878462D+05 0.24878462D+05 0.24878462D+05 0.12235246D+01  1  2 11  3  6  5       21 0.614183900423D-01 0.100000000000D+01
0.874316584397D-06 0.000000000000D+00 0.000000000000D+00 0.944538440577D-05 0.000000000000D+00  6 2 -2 25 23 1 -1 4 0.29413839D-01 0.25024047D-01 0.24878462D+05 0.24878462D+05 0.24878462D+05 0.12235246D+01  1  2 12  6  6  5       21 0.486452108656D-03 0.100000000000D+01
0.874316584397D-06 0.000000000000D+00 0.000000000000D+00 0.944538440577D-05 0.000000000000D+00  6 2 -2 25 23 3 -3 4 0.29413839D-01 0.25024047D-01 0.24878462D+05 0.24878462D+05 0.24878462D+05 0.12235246D+01  1  2 12  6  6  5       21 0.486452108656D-03 0.100000000000D+01
0.101352903030D-05 0.000000000000D+00 0.000000000000D+00 0.944538440577D-05 0.000000000000D+00  6 2 -2 25 23 1 -1 4 0.29413839D-01 0.25024047D-01 0.24878462D+05 0.24878462D+05 0.24878462D+05 0.12235246D+01  1  2 12  6  6  5       21 0.563907105016D-03 0.100000000000D+01
0.101352903030D-05 0.000000000000D+00 0.000000000000D+00 0.944538440577D-05 0.000000000000D+00  6 2 -2 25 23 3 -3 4 0.29413839D-01 0.25024047D-01 0.24878462D+05 0.24878462D+05 0.24878462D+05 0.12235246D+01  1  2 12  6  6  5       21 0.563907105016D-03 0.100000000000D+01
-.392482537938D-05 0.000000000000D+00 0.000000000000D+00 0.945284396184D-05 0.000000000000D+00  6 2 -2 25 23 1 -1 4 0.29413839D-01 0.25024047D-01 0.24622000D+05 0.24622000D+05 0.24622000D+05 0.12240077D+01  1  2  5  6  6  5       21 -.218664792161D-02 0.100000000000D+01
-.392482537938D-05 0.000000000000D+00 0.000000000000D+00 0.945284396184D-05 0.000000000000D+00  6 2 -2 25 23 3 -3 4 0.29413839D-01 0.25024047D-01 0.24622000D+05 0.24622000D+05 0.24622000D+05 0.12240077D+01  1  2  5  6  6  5       21 -.218664792161D-02 0.100000000000D+01
0.127502061546D-05 0.000000000000D+00 0.000000000000D+00 0.945284396184D-05 0.304656658027D-07  6 2 -2 25 23 1 -1 4 0.29413839D-01 0.25024047D-01 0.24878462D+05 0.24878462D+05 0.24878462D+05 0.12235246D+01  1  2 11  6  6  5       21 0.709395747532D-03 0.100000000000D+01
0.127502061546D-05 0.000000000000D+00 0.000000000000D+00 0.945284396184D-05 0.304656658027D-07  6 2 -2 25 23 3 -3 4 0.29413839D-01 0.25024047D-01 0.24878462D+05 0.24878462D+05 0.24878462D+05 0.12235246D+01  1  2 11  6  6  5       21 0.709395747532D-03 0.100000000000D+01
0.874316584397D-06 0.000000000000D+00 0.000000000000D+00 0.944538440577D-05 0.000000000000D+00  6 2 -2 25 23 2 -2 4 0.29413839D-01 0.25024047D-01 0.24878462D+05 0.24878462D+05 0.24878462D+05 0.12235246D+01  1  2 12  7  6  5       21 0.486452108656D-03 0.100000000000D+01
0.101352903030D-05 0.000000000000D+00 0.000000000000D+00 0.944538440577D-05 0.000000000000D+00  6 2 -2 25 23 2 -2 4 0.29413839D-01 0.25024047D-01 0.24878462D+05 0.24878462D+05 0.24878462D+05 0.12235246D+01  1  2 12  7  6  5       21 0.563907105016D-03 0.100000000000D+01
-.392482537938D-05 0.000000000000D+00 0.000000000000D+00 0.945284396184D-05 0.000000000000D+00  6 2 -2 25 23 2 -2 4 0.29413839D-01 0.25024047D-01 0.24622000D+05 0.24622000D+05 0.24622000D+05 0.12240077D+01  1  2  5  7  6  5       21 -.218664792161D-02 0.100000000000D+01
0.126208971086D-05 0.000000000000D+00 0.000000000000D+00 0.945284396184D-05 0.321468193216D-07  6 2 -2 25 23 2 -2 4 0.29413839D-01 0.25024047D-01 0.24878462D+05 0.24878462D+05 0.24878462D+05 0.12235246D+01  1  2 11  7  6  5       21 0.702201253089D-03 0.100000000000D+01
0.874316584397D-06 0.000000000000D+00 0.000000000000D+00 0.944538440577D-05 0.000000000000D+00  6 2 -2 25 23 4 -4 4 0.29413839D-01 0.25024047D-01 0.24878462D+05 0.24878462D+05 0.24878462D+05 0.12235246D+01  1  2 12  8  6  5       21 0.486452108656D-03 0.100000000000D+01
0.101352903030D-05 0.000000000000D+00 0.000000000000D+00 0.944538440577D-05 0.000000000000D+00  6 2 -2 25 23 4 -4 4 0.29413839D-01 0.25024047D-01 0.24878462D+05 0.24878462D+05 0.24878462D+05 0.12235246D+01  1  2 12  8  6  5       21 0.563907105016D-03 0.100000000000D+01
-.392482537938D-05 0.000000000000D+00 0.000000000000D+00 0.945284396184D-05 0.000000000000D+00  6 2 -2 25 23 4 -4 4 0.29413839D-01 0.25024047D-01 0.24622000D+05 0.24622000D+05 0.24622000D+05 0.12240077D+01  1  2  5  8  6  5       21 -.218664792161D-02 0.100000000000D+01
0.127600438820D-05 0.000000000000D+00 0.000000000000D+00 0.945284396184D-05 0.304891723180D-07  6 2 -2 25 23 4 -4 4 0.29413839D-01 0.25024047D-01 0.24878462D+05 0.24878462D+05 0.24878462D+05 0.12235246D+01  1  2 11  8  6  5       21 0.709943098839D-03 0.100000000000D+01
  </mgrwgt>
  </event>
  <event>
  5     66 0.57005756E-03 0.28853477E+02 0.75467711E-02 0.11011423E+00
        2 -1    0    0  502    0 0.00000000E+00 0.00000000E+00 0.46904493E+03 0.46904504E+03 0.32000000E+00 0.0000E+00 0.9000E+01
       -2 -1    0    0    0  501 0.00000000E+00 0.00000000E+00 -.54243559E+02 0.54244503E+02 0.32000000E+00 0.0000E+00 0.9000E+01
       25  1    1    2    0    0 0.12338294E+02 -.16643807E+02 0.49399203E+02 0.13599460E+03 0.12500000E+03 0.0000E+00 0.9000E+01
       23  1    1    2    0    0 0.87032330E+01 0.36376184E+02 0.30094198E+03 0.31667065E+03 0.91188000E+02 0.0000E+00 0.9000E+01
       21  1    1    2  502  501 -.21041527E+02 -.19732377E+02 0.64460194E+02 0.70624300E+02 0.75000000E+00 0.0000E+00 0.9000E+01
#aMCatNLO 1  0  0  1  5 0.62724990D+02 0.00000000D+00  -5  6  0 0.00000000D+00 0.00000000D+00 0.00000000D+00 0.00000000D+00 0.00000000D+00
  <mgrwgt>
 0.9605098079D-01    5    4    0
 0.159508438318049D+03 0.000000000000000D+00 0.000000000000000D+00 0.159508438318049D+03
 0.159508438318049D+03 0.000000000000000D+00 0.000000000000000D+00 -.159508438318049D+03
 0.158844389963615D+03 0.123411674446908D+02 -.166411128234242D+02 -.957982733300192D+02
 0.128141268355262D+03 0.870555070786093D+01 0.363783572816081D+02 0.818887160728502D+02
 0.320312183172218D+02 -.210467181525518D+02 -.197372444581839D+02 0.139095572571690D+02
 0.000000000000000D+00 0.000000000000000D+00 -.000000000000000D+00 0.000000000000000D+00
 0.383647772955734D+03 0.000000000000000D+00 0.000000000000000D+00 0.383647772955734D+03
 0.248562026212259D+03 0.000000000000000D+00 0.000000000000000D+00 -.248562026212259D+03
 0.176626051285994D+03 -.452391137131096D+02 0.659384213514534D+02 -.957982733300192D+02
 0.169903138692714D+03 -.424509109207906D+02 0.109745084334429D+03 0.818887160728502D+02
 0.356325855943423D+02 -.326605606088987D+02 -.308109619455877D+01 0.139095572571690D+02
 0.250048023594943D+03 0.120350585242799D+03 -.172602409491324D+03 0.135085746743475D+03
 0.159508438318049D+03 0.000000000000000D+00 0.000000000000000D+00 0.159508438318049D+03
 0.159508438318049D+03 0.000000000000000D+00 0.000000000000000D+00 -.159508438318049D+03
 0.158844389963615D+03 0.123411674446908D+02 -.166411128234242D+02 -.957982733300192D+02
 0.128141268355262D+03 0.870555070786093D+01 0.363783572816081D+02 0.818887160728502D+02
 0.000000000000000D+00 0.000000000000000D+00 -.000000000000000D+00 0.000000000000000D+00
 0.320312183172218D+02 -.210467181525518D+02 -.197372444581839D+02 0.139095572571690D+02
 0.383647772955734D+03 0.000000000000000D+00 0.000000000000000D+00 0.383647772955734D+03
 0.248562026212259D+03 0.000000000000000D+00 0.000000000000000D+00 -.248562026212259D+03
 0.176626051285994D+03 -.452391137131096D+02 0.659384213514534D+02 -.957982733300192D+02
 0.169903138692714D+03 -.424509109207906D+02 0.109745084334429D+03 0.818887160728502D+02
 0.250048023594943D+03 0.120350585242799D+03 -.172602409491324D+03 0.135085746743475D+03
 0.356325855943423D+02 -.326605606088987D+02 -.308109619455877D+01 0.139095572571690D+02
0.843957797070D-04 0.000000000000D+00 0.000000000000D+00 0.981498960289D-05 0.000000000000D+00  6 2 -2 25 23 21 21 2 0.72160840D-01 0.83452439D-02 0.16144312D+05 0.16144312D+05 0.16144312D+05 0.12441990D+01  1  2  2  1  6  1        2 0.740367350470D-01 0.100000000000D+01
0.822610133405D-05 0.445368765330D-05 -.324102015994D-06 0.981498960289D-05 0.000000000000D+00  6 2 -2 25 23 21 21 4 0.72160840D-01 0.83452439D-02 0.16144312D+05 0.16144312D+05 0.16144312D+05 0.12441990D+01  1  2  3  1  6  1        2 0.111712120520D-01 0.100000000000D+01
0.239488916287D-05 0.000000000000D+00 0.000000000000D+00 0.981498960289D-05 0.000000000000D+00  6 2 -2 25 23 21 21 4 0.72160840D-01 0.83452439D-02 0.16144312D+05 0.16144312D+05 0.16144312D+05 0.12441990D+01  1  2 15  1  6  1        2 0.325230793945D-02 0.100000000000D+01
0.231652857545D-04 0.000000000000D+00 -.564600974482D-04 0.981498960289D-05 0.000000000000D+00  6 2 -2 25 23 21 21 4 0.23122145D+00 0.83452439D-02 0.16144312D+05 0.16144312D+05 0.16144312D+05 0.12441990D+01  1  2  5  1  6  1        2 0.675627884849D-02 0.100000000000D+01
0.554025215578D-05 0.000000000000D+00 -.757344377743D-05 0.981498960289D-05 0.000000000000D+00  6 21 -2 25 23 -2 21 4 0.23122145D+00 0.83452439D-02 0.16144312D+05 0.16144312D+05 0.16144312D+05 0.12441990D+01  3  4  5  4  5  1        2 0.834446906345D-03 0.100000000000D+01
  </mgrwgt>
  </event>
  <event>
  5     66 -.57005756E-03 0.23372887E+02 0.75467711E-02 0.12116670E+00
        2 -1    0    0  502    0 0.00000000E+00 0.00000000E+00 0.16488954E+04 0.16488955E+04 0.32000000E+00 0.0000E+00 0.9000E+01
       -2 -1    0    0    0  501 0.00000000E+00 0.00000000E+00 -.13895788E+02 0.13899472E+02 0.32000000E+00 0.0000E+00 0.9000E+01
       25  1    1    2    0    0 0.70566885E+02 0.26529800E+02 0.54634485E+03 0.56550969E+03 0.12500000E+03 0.0000E+00 0.9000E+01
       23  1    1    2    0    0 -.66878263E+02 -.34574908E+01 0.85206223E+03 0.85954054E+03 0.91188000E+02 0.0000E+00 0.9000E+01
       21  1    1    2  502  501 -.36886215E+01 -.23072310E+02 0.23659259E+03 0.23774472E+03 0.75000000E+00 0.0000E+00 0.9000E+01
#aMCatNLO 1  0  0  5  2 0.36024500D+01 0.00000000D+00  -5  6  0 0.00000000D+00 0.00000000D+00 0.00000000D+00 0.00000000D+00 0.00000000D+00
  <mgrwgt>
 -.2592938624D+00   20    2    0
 0.151379623983710D+03 0.000000000000000D+00 0.000000000000000D+00 0.151379623983710D+03
 0.151379623983710D+03 -.000000000000000D+00 -.000000000000000D+00 -.151379623983710D+03
 0.155415973017080D+03 0.705675619900980D+02 0.265340367790989D+02 -.533412481652329D+02
 0.119295773551382D+03 -.668777433217625D+02 -.345423887809896D+01 0.378373614987100D+02
 0.280475013989586D+02 -.368981866833556D+01 -.230797979009999D+02 0.155038866665229D+02
 0.000000000000000D+00 -.000000000000000D+00 0.000000000000000D+00 0.000000000000000D+00
 0.151379623983710D+03 0.000000000000000D+00 0.000000000000000D+00 0.151379623983710D+03
 0.151379623983710D+03 -.000000000000000D+00 -.000000000000000D+00 -.151379623983710D+03
 0.155191647447539D+03 0.704915734337431D+02 0.260587287271041D+02 -.530219593135098D+02
 0.119417683147383D+03 -.669361433408280D+02 -.381953071452817D+01 0.380827468030570D+02
 0.195294513110433D+02 0.929047651331705D+00 -.156652834360078D+02 0.116247681199027D+02
 0.862046606145573D+01 -.448447774424681D+01 -.657391457656823D+01 0.331444439055008D+01
0.531738188861D-04 0.000000000000D+00 0.000000000000D+00 0.200893898222D-04 0.000000000000D+00  6 2 -2 25 23 21 21 2 0.25367651D+00 0.21380993D-02 0.19949390D+05 0.19949390D+05 0.19949390D+05 0.12339472D+01  1  2  2  3  6  5       21 0.633502562036D-01 0.100000000000D+01
0.979633513077D-05 0.280605951475D-05 -.204201465511D-06 0.200893898222D-04 0.000000000000D+00  6 2 -2 25 23 21 21 4 0.25367651D+00 0.21380993D-02 0.19949390D+05 0.19949390D+05 0.19949390D+05 0.12339472D+01  1  2  3  3  6  5       21 0.177708137302D-01 0.100000000000D+01
0.189112747606D-05 0.000000000000D+00 0.000000000000D+00 0.200893898222D-04 0.000000000000D+00  6 2 -2 25 23 21 21 4 0.25367651D+00 0.21380993D-02 0.19949390D+05 0.19949390D+05 0.19949390D+05 0.12339472D+01  1  2 15  3  6  5       21 0.343055578116D-02 0.100000000000D+01
0.413388435062D-05 0.000000000000D+00 0.000000000000D+00 0.200871678507D-04 0.000000000000D+00  6 2 -2 25 23 21 21 4 0.25367651D+00 0.21380993D-02 0.19977878D+05 0.19977878D+05 0.19977878D+05 0.12338790D+01  1  2 12  3  6  5       21 0.749748938818D-02 0.100000000000D+01
0.421226292588D-05 0.000000000000D+00 0.000000000000D+00 0.200871678507D-04 0.000000000000D+00  6 2 -2 25 23 21 21 4 0.25367651D+00 0.21380993D-02 0.19977878D+05 0.19977878D+05 0.19977878D+05 0.12338790D+01  1  2 12  3  6  5       21 0.763964201909D-02 0.100000000000D+01
-.357732645586D-03 0.000000000000D+00 0.000000000000D+00 0.200893898222D-04 0.000000000000D+00  6 2 -2 25 23 21 21 4 0.25367651D+00 0.21380993D-02 0.19949390D+05 0.19949390D+05 0.19949390D+05 0.12339472D+01  1  2  4  3  6  5       21 -.648936579347D+00 0.100000000000D+01
-.223765699639D-03 0.000000000000D+00 0.000000000000D+00 0.200893898222D-04 0.000000000000D+00  6 2 -2 25 23 21 21 4 0.25367651D+00 0.21380993D-02 0.19949390D+05 0.19949390D+05 0.19949390D+05 0.12339472D+01  1  2  5  3  6  5       21 -.405916959189D+00 0.100000000000D+01
0.411847401509D-03 0.000000000000D+00 -.000000000000D+00 0.200893898222D-04 0.000000000000D+00  6 2 -2 25 23 21 21 4 0.25367651D+00 0.21380993D-02 0.19949390D+05 0.19949390D+05 0.19949390D+05 0.12339472D+01  1  2  6  3  6  5       21 0.747102192785D+00 0.100000000000D+01
0.125781141466D-06 0.000000000000D+00 0.000000000000D+00 0.200871678507D-04 0.000000000000D+00  6 2 -2 25 23 1 -1 4 0.25367651D+00 0.21380993D-02 0.19977878D+05 0.19977878D+05 0.19977878D+05 0.12338790D+01  1  2 12  6  6  5       21 0.228125098186D-03 0.100000000000D+01
0.125781141466D-06 0.000000000000D+00 0.000000000000D+00 0.200871678507D-04 0.000000000000D+00  6 2 -2 25 23 3 -3 4 0.25367651D+00 0.21380993D-02 0.19977878D+05 0.19977878D+05 0.19977878D+05 0.12338790D+01  1  2 12  6  6  5       21 0.228125098186D-03 0.100000000000D+01
0.127700485440D-06 0.000000000000D+00 0.000000000000D+00 0.200871678507D-04 0.000000000000D+00  6 2 -2 25 23 1 -1 4 0.25367651D+00 0.21380993D-02 0.19977878D+05 0.19977878D+05 0.19977878D+05 0.12338790D+01  1  2 12  6  6  5       21 0.231606148901D-03 0.100000000000D+01
0.127700485440D-06 0.000000000000D+00 0.000000000000D+00 0.200871678507D-04 0.000000000000D+00  6 2 -2 25 23 3 -3 4 0.25367651D+00 0.21380993D-02 0.19977878D+05 0.19977878D+05 0.19977878D+05 0.12338790D+01  1  2 12  6  6  5       21 0.231606148901D-03 0.100000000000D+01
-.731386671817D-05 0.000000000000D+00 0.000000000000D+00 0.200893898222D-04 0.000000000000D+00  6 2 -2 25 23 1 -1 4 0.25367651D+00 0.21380993D-02 0.19949390D+05 0.19949390D+05 0.19949390D+05 0.12339472D+01  1  2  5  6  6  5       21 -.132675496868D-01 0.100000000000D+01
-.731386671817D-05 0.000000000000D+00 0.000000000000D+00 0.200893898222D-04 0.000000000000D+00  6 2 -2 25 23 3 -3 4 0.25367651D+00 0.21380993D-02 0.19949390D+05 0.19949390D+05 0.19949390D+05 0.12339472D+01  1  2  5  6  6  5       21 -.132675496868D-01 0.100000000000D+01
0.125781141466D-06 0.000000000000D+00 0.000000000000D+00 0.200871678507D-04 0.000000000000D+00  6 2 -2 25 23 2 -2 4 0.25367651D+00 0.21380993D-02 0.19977878D+05 0.19977878D+05 0.19977878D+05 0.12338790D+01  1  2 12  7  6  5       21 0.228125098186D-03 0.100000000000D+01
0.127700485440D-06 0.000000000000D+00 0.000000000000D+00 0.200871678507D-04 0.000000000000D+00  6 2 -2 25 23 2 -2 4 0.25367651D+00 0.21380993D-02 0.19977878D+05 0.19977878D+05 0.19977878D+05 0.12338790D+01  1  2 12  7  6  5       21 0.231606148901D-03 0.100000000000D+01
-.731386671817D-05 0.000000000000D+00 0.000000000000D+00 0.200893898222D-04 0.000000000000D+00  6 2 -2 25 23 2 -2 4 0.25367651D+00 0.21380993D-02 0.19949390D+05 0.19949390D+05 0.19949390D+05 0.12339472D+01  1  2  5  7  6  5       21 -.132675496868D-01 0.100000000000D+01
0.125781141466D-06 0.000000000000D+00 0.000000000000D+00 0.200871678507D-04 0.000000000000D+00  6 2 -2 25 23 4 -4 4 0.25367651D+00 0.21380993D-02 0.19977878D+05 0.19977878D+05 0.19977878D+05 0.12338790D+01  1  2 12  8  6  5       21 0.228125098186D-03 0.100000000000D+01
0.127700485440D-06 0.000000000000D+00 0.000000000000D+00 0.200871678507D-04 0.000000000000D+00  6 2 -2 25 23 4 -4 4 0.25367651D+00 0.21380993D-02 0.19977878D+05 0.19977878D+05 0.19977878D+05 0.12338790D+01  1  2 12  8  6  5       21 0.231606148901D-03 0.100000000000D+01
-.731386671817D-05 0.000000000000D+00 0.000000000000D+00 0.200893898222D-04 0.000000000000D+00  6 2 -2 25 23 4 -4 4 0.25367651D+00 0.21380993D-02 0.19949390D+05 0.19949390D+05 0.19949390D+05 0.12339472D+01  1  2  5  8  6  5       21 -.132675496868D-01 0.100000000000D+01
  </mgrwgt>
  </event>
  <event>
  5     66 0.57005756E-03 0.22602285E+02 0.75467711E-02 0.11922759E+00
        2 -1    0    0  502    0 0.00000000E+00 0.00000000E+00 0.18401543E+04 0.18401543E+04 0.32000000E+00 0.0000E+00 0.9000E+01
       -2 -1    0    0    0  501 0.00000000E+00 0.00000000E+00 -.20492359E+02 0.20494857E+02 0.32000000E+00 0.0000E+00 0.9000E+01
       25  1    1    2    0    0 -.45866205E+02 -.19340309E+02 0.27965591E+03 0.31033882E+03 0.12500000E+03 0.0000E+00 0.9000E+01
       23  1    1    2    0    0 0.24446047E+02 0.26553104E+02 0.47276964E+03 0.48283440E+03 0.91188000E+02 0.0000E+00 0.9000E+01
       21  1    1    2  502  501 0.21420158E+02 -.72127946E+01 0.10672363E+04 0.10674759E+04 0.75000000E+00 0.0000E+00 0.9000E+01
#aMCatNLO 1  0  0  5  1 0.33945156D+02 0.00000000D+00  -5  6  0 0.00000000D+00 0.00000000D+00 0.00000000D+00 0.00000000D+00 0.00000000D+00
  <mgrwgt>
 0.1507669833D+00   10    2    0
 0.194194364381872D+03 0.000000000000000D+00 0.000000000000000D+00 0.194194364381872D+03
 0.194194364381872D+03 -.000000000000000D+00 -.000000000000000D+00 -.194194364381872D+03
 0.176505518603719D+03 -.458664169920534D+02 -.193402382546587D+02 -.114242833797714D+03
 0.981091873081436D+02 0.244459297221483D+02 0.265531436906796D+02 0.273648870385396D+01
 0.113774022851880D+03 0.214204872699051D+02 -.721290543602092D+01 0.111506345093860D+03
 0.000000000000000D+00 0.000000000000000D+00 -.000000000000000D+00 0.000000000000000D+00
 0.194194364381872D+03 0.000000000000000D+00 0.000000000000000D+00 0.194194364381872D+03
 0.194194364381872D+03 -.000000000000000D+00 -.000000000000000D+00 -.194194364381872D+03
 0.167590955064158D+03 -.433010837054852D+02 -.202040611068069D+02 -.100888752019437D+03
 0.988616288094681D+02 0.259144010077818D+02 0.260586663996020D+02 0.103807529949995D+02
 0.589030051076488D+02 0.834949317865449D+01 0.369370358946169D+02 0.451165751547155D+02
 0.630331397824684D+02 0.903718951904887D+01 -.427916411874119D+02 0.453914238697222D+02
0.223439765324D-03 0.000000000000D+00 0.000000000000D+00 0.321722087009D-04 0.000000000000D+00  6 2 -2 25 23 21 21 2 0.28310085D+00 0.31528649D-02 0.16284293D+05 0.16284293D+05 0.16284293D+05 0.12437756D+01  1  2  2  3  6  5       21 0.122093178988D+00 0.100000000000D+01
0.383109160651D-04 0.117912403622D-04 -.858067531885D-06 0.321722087009D-04 0.000000000000D+00  6 2 -2 25 23 21 21 4 0.28310085D+00 0.31528649D-02 0.16284293D+05 0.16284293D+05 0.16284293D+05 0.12437756D+01  1  2  3  3  6  5       21 0.323845278421D-01 0.100000000000D+01
0.109109935088D-04 0.000000000000D+00 0.000000000000D+00 0.321722087009D-04 0.000000000000D+00  6 2 -2 25 23 21 21 4 0.28310085D+00 0.31528649D-02 0.16284293D+05 0.16284293D+05 0.16284293D+05 0.12437756D+01  1  2 15  3  6  5       21 0.922315124152D-02 0.100000000000D+01
-.769168801971D-04 0.000000000000D+00 0.000000000000D+00 0.321722087009D-04 0.000000000000D+00  6 2 -2 25 23 21 21 4 0.28310085D+00 0.31528649D-02 0.16284293D+05 0.16284293D+05 0.16284293D+05 0.12437756D+01  1  2  4  3  6  5       21 -.650184622063D-01 0.100000000000D+01
-.741098765798D-04 0.000000000000D+00 0.000000000000D+00 0.321722087009D-04 0.000000000000D+00  6 2 -2 25 23 21 21 4 0.28310085D+00 0.31528649D-02 0.16284293D+05 0.16284293D+05 0.16284293D+05 0.12437756D+01  1  2  5  3  6  5       21 -.626456792992D-01 0.100000000000D+01
0.158686330837D-03 0.000000000000D+00 -.000000000000D+00 0.321722087009D-04 0.000000000000D+00  6 2 -2 25 23 21 21 4 0.28310085D+00 0.31528649D-02 0.16284293D+05 0.16284293D+05 0.16284293D+05 0.12437756D+01  1  2  6  3  6  5       21 0.134138841536D+00 0.100000000000D+01
-.574008894300D-05 0.000000000000D+00 0.000000000000D+00 0.321722087009D-04 0.000000000000D+00  6 2 -2 25 23 1 -1 4 0.28310085D+00 0.31528649D-02 0.16284293D+05 0.16284293D+05 0.16284293D+05 0.12437756D+01  1  2  5  6  6  5       21 -.485214370428D-02 0.100000000000D+01
-.574008894300D-05 0.000000000000D+00 0.000000000000D+00 0.321722087009D-04 0.000000000000D+00  6 2 -2 25 23 3 -3 4 0.28310085D+00 0.31528649D-02 0.16284293D+05 0.16284293D+05 0.16284293D+05 0.12437756D+01  1  2  5  6  6  5       21 -.485214370428D-02 0.100000000000D+01
-.574008894300D-05 0.000000000000D+00 0.000000000000D+00 0.321722087009D-04 0.000000000000D+00  6 2 -2 25 23 2 -2 4 0.28310085D+00 0.31528649D-02 0.16284293D+05 0.16284293D+05 0.16284293D+05 0.12437756D+01  1  2  5  7  6  5       21 -.485214370428D-02 0.100000000000D+01
-.574008894300D-05 0.000000000000D+00 0.000000000000D+00 0.321722087009D-04 0.000000000000D+00  6 2 -2 25 23 4 -4 4 0.28310085D+00 0.31528649D-02 0.16284293D+05 0.16284293D+05 0.16284293D+05 0.12437756D+01  1  2  5  8  6  5       21 -.485214370428D-02 0.100000000000D+01
  </mgrwgt>
  </event>
  <event>
  5     66 0.57005756E-03 0.63637070E+02 0.75467711E-02 0.11897222E+00
        2 -1    0    0  502    0 0.00000000E+00 0.00000000E+00 0.60817876E+03 0.60817885E+03 0.32000000E+00 0.0000E+00 0.9000E+01
       -2 -1    0    0    0  501 0.00000000E+00 0.00000000E+00 -.46488102E+02 0.46489203E+02 0.32000000E+00 0.0000E+00 0.9000E+01
       25  1    1    2    0    0 -.33051808E+02 -.33380067E+02 0.15067561E+03 0.20133254E+03 0.12500000E+03 0.0000E+00 0.9000E+01
       23  1    1    2    0    0 0.81247710E+01 -.25170298E+02 0.10840376E+03 0.14410476E+03 0.91188000E+02 0.0000E+00 0.9000E+01
       21  1    1    2  502  501 0.24927037E+02 0.58550365E+02 0.30261129E+03 0.30923075E+03 0.75000000E+00 0.0000E+00 0.9000E+01
#aMCatNLO 1  0  0  1  5 0.23647069D+02 0.00000000D+00  -5  6  0 0.00000000D+00 0.00000000D+00 0.00000000D+00 0.00000000D+00 0.00000000D+00
  <mgrwgt>
 0.4616955535D-01    9    4    0
 0.168147151079771D+03 0.000000000000000D+00 0.000000000000000D+00 0.168147151079771D+03
 0.168147151079771D+03 0.000000000000000D+00 0.000000000000000D+00 -.168147151079771D+03
 0.140273188875373D+03 -.330521221143312D+02 -.333808041165312D+02 -.429516781690682D+02
 0.994709301537795D+02 0.812454856994945D+01 -.251708206997491D+02 -.296586597386614D+02
 0.965501831303892D+02 0.249275735443817D+02 0.585516248162803D+02 0.726103379077297D+02
 0.000000000000000D+00 0.000000000000000D+00 -.000000000000000D+00 0.000000000000000D+00
 0.269240496382524D+03 0.000000000000000D+00 0.000000000000000D+00 0.269240496382524D+03
 0.169950876849718D+03 0.000000000000000D+00 0.000000000000000D+00 -.169950876849718D+03
 0.139139798216135D+03 -.361928870452813D+02 -.240855084524892D+02 -.429516781690682D+02
 0.978568708018931D+02 0.590646900394804D+01 -.186062716724789D+02 -.296586597386614D+02
 0.100127998595875D+03 0.227167960773824D+02 0.650945628122622D+02 0.726103379077297D+02
 0.102066705618339D+03 0.756962196395092D+01 -.224027826872940D+02 0.992896195328058D+02
 0.168147151079771D+03 0.000000000000000D+00 0.000000000000000D+00 0.168147151079771D+03
 0.168147151079771D+03 0.000000000000000D+00 0.000000000000000D+00 -.168147151079771D+03
 0.140273188875373D+03 -.330521221143312D+02 -.333808041165312D+02 -.429516781690682D+02
 0.994709301537795D+02 0.812454856994945D+01 -.251708206997491D+02 -.296586597386614D+02
 0.000000000000000D+00 0.000000000000000D+00 -.000000000000000D+00 0.000000000000000D+00
 0.965501831303892D+02 0.249275735443817D+02 0.585516248162803D+02 0.726103379077297D+02
 0.269240496382524D+03 0.000000000000000D+00 0.000000000000000D+00 0.269240496382524D+03
 0.169950876849718D+03 0.000000000000000D+00 0.000000000000000D+00 -.169950876849718D+03
 0.139139798216135D+03 -.361928870452813D+02 -.240855084524892D+02 -.429516781690682D+02
 0.978568708018931D+02 0.590646900394804D+01 -.186062716724789D+02 -.296586597386614D+02
 0.102066705618339D+03 0.756962196395092D+01 -.224027826872940D+02 0.992896195328058D+02
 0.100127998595875D+03 0.227167960773824D+02 0.650945628122622D+02 0.726103379077297D+02
0.678613734097D-05 0.000000000000D+00 0.000000000000D+00 0.489322541509D-05 0.000000000000D+00  6 2 -2 25 23 21 21 2 0.93566055D-01 0.71521069D-02 0.21333377D+05 0.21333377D+05 0.21333377D+05 0.12307521D+01  1  2  2  1  6  1        2 0.557562097882D-02 0.100000000000D+01
-.213578628366D-06 0.358114306118D-06 -.260605542203D-07 0.489322541509D-05 0.000000000000D+00  6 2 -2 25 23 21 21 4 0.93566055D-01 0.71521069D-02 0.21333377D+05 0.21333377D+05 0.21333377D+05 0.12307521D+01  1  2  3  1  6  1        2 -.265808933506D-03 0.100000000000D+01
0.163267812424D-06 0.000000000000D+00 0.000000000000D+00 0.489322541509D-05 0.000000000000D+00  6 2 -2 25 23 21 21 4 0.93566055D-01 0.71521069D-02 0.21333377D+05 0.21333377D+05 0.21333377D+05 0.12307521D+01  1  2 15  1  6  1        2 0.203194689600D-03 0.100000000000D+01
0.102999897741D-03 0.000000000000D+00 0.000000000000D+00 0.482958111851D-05 0.000000000000D+00  6 2 -2 25 23 21 21 4 0.15768666D+00 0.71521069D-02 0.25311244D+05 0.25311244D+05 0.25311244D+05 0.12227220D+01  1  2 12  1  6  1        2 0.651043865287D-01 0.100000000000D+01
-.632614385256D-04 0.000000000000D+00 0.000000000000D+00 0.489322541509D-05 0.000000000000D+00  6 2 -2 25 23 21 21 4 0.93566055D-01 0.71521069D-02 0.21333377D+05 0.21333377D+05 0.21333377D+05 0.12307521D+01  1  2  4  1  6  1        2 -.787319201137D-01 0.100000000000D+01
-.121733777460D-03 0.000000000000D+00 -.511958528811D-05 0.489322541509D-05 0.000000000000D+00  6 2 -2 25 23 21 21 4 0.15039157D+00 0.71521069D-02 0.21333377D+05 0.21333377D+05 0.21333377D+05 0.12307521D+01  1  2  5  1  6  1        2 -.841751165794D-01 0.100000000000D+01
0.111855999182D-03 0.000000000000D+00 0.459262705469D-05 0.489322541509D-05 0.000000000000D+00  6 2 -2 25 23 21 21 4 0.93566055D-01 0.71521069D-02 0.21333377D+05 0.21333377D+05 0.21333377D+05 0.12307521D+01  1  2  6  1  6  1        2 0.139210201302D+00 0.100000000000D+01
0.601066536898D-05 0.000000000000D+00 0.000000000000D+00 0.482958111851D-05 0.000000000000D+00  6 21 -2 25 23 -2 21 4 0.15768666D+00 0.71521069D-02 0.25311244D+05 0.25311244D+05 0.25311244D+05 0.12227220D+01  3  4 12  4  5  1        2 0.313786201676D-02 0.100000000000D+01
-.637148409651D-05 0.000000000000D+00 -.277097843040D-06 0.489322541509D-05 0.000000000000D+00  6 21 -2 25 23 -2 21 4 0.15039157D+00 0.71521069D-02 0.21333377D+05 0.21333377D+05 0.21333377D+05 0.12307521D+01  3  4  5  4  5  1        2 -.388886453729D-02 0.100000000000D+01
  </mgrwgt>
  </event>
  <event>
  5     66 0.57005756E-03 0.31246204E+02 0.75467711E-02 0.12115561E+00
        2 -1    0    0  502    0 0.00000000E+00 0.00000000E+00 0.40497907E+03 0.40497920E+03 0.32000000E+00 0.0000E+00 0.9000E+01
       -2 -1    0    0    0  501 0.00000000E+00 0.00000000E+00 -.64632117E+02 0.64632909E+02 0.32000000E+00 0.0000E+00 0.9000E+01
       25  1    1    2    0    0 -.27919288E+02 -.73796636E+02 0.22742986E+03 0.27124670E+03 0.12500000E+03 0.0000E+00 0.9000E+01
       23  1    1    2    0    0 0.24730322E+02 0.42717900E+02 0.27300952E+02 0.10722407E+03 0.91188000E+02 0.0000E+00 0.9000E+01
       21  1    1    2  502  501 0.31889658E+01 0.31078736E+02 0.85616139E+02 0.91141336E+02 0.75000000E+00 0.0000E+00 0.9000E+01
#aMCatNLO 1  0  0  5  1 0.67454039D+00 0.00000000D+00  -5  6  0 0.00000000D+00 0.00000000D+00 0.00000000D+00 0.00000000D+00 0.00000000D+00
  <mgrwgt>
 0.8367313039D-01   25    2    0
 0.161786496574659D+03 0.000000000000000D+00 0.000000000000000D+00 0.161786496574659D+03
 0.161786496574659D+03 -.000000000000000D+00 -.000000000000000D+00 -.161786496574659D+03
 0.154450000809109D+03 -.279195284868410D+02 -.737989773944192D+02 0.447662106341848D+02
 0.126901911726602D+03 0.247301250669148D+02 0.427159765489269D+02 -.731615344119619D+02
 0.422210806136070D+02 0.318940341992619D+01 0.310830008454922D+02 0.283953237777771D+02
 0.000000000000000D+00 0.000000000000000D+00 0.000000000000000D+00 0.000000000000000D+00
 0.161786496574659D+03 0.000000000000000D+00 0.000000000000000D+00 0.161786496574659D+03
 0.161786496574659D+03 -.000000000000000D+00 -.000000000000000D+00 -.161786496574659D+03
 0.154434919696620D+03 -.279128355255091D+02 -.737337497341503D+02 0.448257982055975D+02
 0.126892817646142D+03 0.247356243263384D+02 0.427695707365566D+02 -.731125743930141D+02
 0.135383072635263D+01 -.104693286216944D+00 0.439227744633491D+00 0.127631341753582D+01
 0.408914250802038D+02 0.328190448538771D+01 0.305249512529602D+02 0.270104627698807D+02
0.538127880352D-04 0.000000000000D+00 0.000000000000D+00 0.105302334749D-04 0.000000000000D+00  6 2 -2 25 23 21 21 2 0.62304543D-01 0.99434733D-02 0.19987696D+05 0.19987696D+05 0.19987696D+05 0.12338555D+01  1  2  2  3  6  5       21 0.416301471580D-01 0.100000000000D+01
0.480789706678D-05 0.283977884314D-05 -.206655275288D-06 0.105302334749D-04 0.000000000000D+00  6 2 -2 25 23 21 21 4 0.62304543D-01 0.99434733D-02 0.19987696D+05 0.19987696D+05 0.19987696D+05 0.12338555D+01  1  2  3  3  6  5       21 0.566247366615D-02 0.100000000000D+01
0.119861526314D-05 0.000000000000D+00 0.000000000000D+00 0.105302334749D-04 0.000000000000D+00  6 2 -2 25 23 21 21 4 0.62304543D-01 0.99434733D-02 0.19987696D+05 0.19987696D+05 0.19987696D+05 0.12338555D+01  1  2 15  3  6  5       21 0.141166236904D-02 0.100000000000D+01
0.129860962024D-12 0.000000000000D+00 0.000000000000D+00 0.105308352428D-04 0.000000000000D+00  6 2 -2 25 23 21 21 4 0.62304543D-01 0.99434733D-02 0.19972965D+05 0.19972965D+05 0.19972965D+05 0.12338907D+01  1  2 12  3  6  5       21 0.152957493039D-09 0.100000000000D+01
0.136083370362D-12 0.000000000000D+00 0.000000000000D+00 0.105308352428D-04 0.000000000000D+00  6 2 -2 25 23 21 21 4 0.62304543D-01 0.99434733D-02 0.19972965D+05 0.19972965D+05 0.19972965D+05 0.12338907D+01  1  2 12  3  6  5       21 0.160286593063D-09 0.100000000000D+01
-.187162716713D-03 0.000000000000D+00 0.000000000000D+00 0.105302334749D-04 0.000000000000D+00  6 2 -2 25 23 21 21 4 0.62304543D-01 0.99434733D-02 0.19987696D+05 0.19987696D+05 0.19987696D+05 0.12338555D+01  1  2  4  3  6  5       21 -.220429834490D+00 0.100000000000D+01
-.198306355109D-05 0.000000000000D+00 0.000000000000D+00 0.105302334749D-04 0.000000000000D+00  6 2 -2 25 23 21 21 4 0.62304543D-01 0.99434733D-02 0.19987696D+05 0.19987696D+05 0.19987696D+05 0.12338555D+01  1  2  5  3  6  5       21 -.233554191789D-02 0.100000000000D+01
0.215289009568D-03 0.000000000000D+00 -.000000000000D+00 0.105302334749D-04 0.000000000000D+00  6 2 -2 25 23 21 21 4 0.62304543D-01 0.99434733D-02 0.19987696D+05 0.19987696D+05 0.19987696D+05 0.12338555D+01  1  2  6  3  6  5       21 0.253555417339D+00 0.100000000000D+01
0.456805967162D-05 0.000000000000D+00 0.000000000000D+00 0.105302334749D-04 0.609048320480D-03  6 2 -2 25 23 21 21 4 0.62304543D-01 0.99434733D-02 0.19972965D+05 0.19972965D+05 0.19972965D+05 0.12338907D+01  1  2 11  3  6  5       21 0.538051578035D-02 0.100000000000D+01
0.625476213256D-12 0.000000000000D+00 0.000000000000D+00 0.105308352428D-04 0.000000000000D+00  6 2 -2 25 23 1 -1 4 0.62304543D-01 0.99434733D-02 0.19972965D+05 0.19972965D+05 0.19972965D+05 0.12338907D+01  1  2 12  6  6  5       21 0.736720813120D-09 0.100000000000D+01
0.625476213256D-12 0.000000000000D+00 0.000000000000D+00 0.105308352428D-04 0.000000000000D+00  6 2 -2 25 23 3 -3 4 0.62304543D-01 0.99434733D-02 0.19972965D+05 0.19972965D+05 0.19972965D+05 0.12338907D+01  1  2 12  6  6  5       21 0.736720813120D-09 0.100000000000D+01
0.628905798231D-12 0.000000000000D+00 0.000000000000D+00 0.105308352428D-04 0.000000000000D+00  6 2 -2 25 23 1 -1 4 0.62304543D-01 0.99434733D-02 0.19972965D+05 0.19972965D+05 0.19972965D+05 0.12338907D+01  1  2 12  6  6  5       21 0.740760369826D-09 0.100000000000D+01
0.628905798231D-12 0.000000000000D+00 0.000000000000D+00 0.105308352428D-04 0.000000000000D+00  6 2 -2 25 23 3 -3 4 0.62304543D-01 0.99434733D-02 0.19972965D+05 0.19972965D+05 0.19972965D+05 0.12338907D+01  1  2 12  6  6  5       21 0.740760369826D-09 0.100000000000D+01
-.944531009884D-05 0.000000000000D+00 0.000000000000D+00 0.105302334749D-04 0.000000000000D+00  6 2 -2 25 23 1 -1 4 0.62304543D-01 0.99434733D-02 0.19987696D+05 0.19987696D+05 0.19987696D+05 0.12338555D+01  1  2  5  6  6  5       21 -.111241607215D-01 0.100000000000D+01
-.944531009884D-05 0.000000000000D+00 0.000000000000D+00 0.105302334749D-04 0.000000000000D+00  6 2 -2 25 23 3 -3 4 0.62304543D-01 0.99434733D-02 0.19987696D+05 0.19987696D+05 0.19987696D+05 0.12338555D+01  1  2  5  6  6  5       21 -.111241607215D-01 0.100000000000D+01
0.100503910708D-04 0.000000000000D+00 0.000000000000D+00 0.105302334749D-04 0.948800636039D-06  6 2 -2 25 23 1 -1 4 0.62304543D-01 0.99434733D-02 0.19972965D+05 0.19972965D+05 0.19972965D+05 0.12338907D+01  1  2 11  6  6  5       21 0.118379118581D-01 0.100000000000D+01
0.100503910708D-04 0.000000000000D+00 0.000000000000D+00 0.105302334749D-04 0.948800636039D-06  6 2 -2 25 23 3 -3 4 0.62304543D-01 0.99434733D-02 0.19972965D+05 0.19972965D+05 0.19972965D+05 0.12338907D+01  1  2 11  6  6  5       21 0.118379118581D-01 0.100000000000D+01
0.625476213256D-12 0.000000000000D+00 0.000000000000D+00 0.105308352428D-04 0.000000000000D+00  6 2 -2 25 23 2 -2 4 0.62304543D-01 0.99434733D-02 0.19972965D+05 0.19972965D+05 0.19972965D+05 0.12338907D+01  1  2 12  7  6  5       21 0.736720813120D-09 0.100000000000D+01
0.628905798231D-12 0.000000000000D+00 0.000000000000D+00 0.105308352428D-04 0.000000000000D+00  6 2 -2 25 23 2 -2 4 0.62304543D-01 0.99434733D-02 0.19972965D+05 0.19972965D+05 0.19972965D+05 0.12338907D+01  1  2 12  7  6  5       21 0.740760369826D-09 0.100000000000D+01
-.944531009884D-05 0.000000000000D+00 0.000000000000D+00 0.105302334749D-04 0.000000000000D+00  6 2 -2 25 23 2 -2 4 0.62304543D-01 0.99434733D-02 0.19987696D+05 0.19987696D+05 0.19987696D+05 0.12338555D+01  1  2  5  7  6  5       21 -.111241607215D-01 0.100000000000D+01
0.660404638761D-05 0.000000000000D+00 0.000000000000D+00 0.105302334749D-04 0.930579659642D-06  6 2 -2 25 23 2 -2 4 0.62304543D-01 0.99434733D-02 0.19972965D+05 0.19972965D+05 0.19972965D+05 0.12338907D+01  1  2 11  7  6  5       21 0.777861463225D-02 0.100000000000D+01
0.625476213256D-12 0.000000000000D+00 0.000000000000D+00 0.105308352428D-04 0.000000000000D+00  6 2 -2 25 23 4 -4 4 0.62304543D-01 0.99434733D-02 0.19972965D+05 0.19972965D+05 0.19972965D+05 0.12338907D+01  1  2 12  8  6  5       21 0.736720813120D-09 0.100000000000D+01
0.628905798231D-12 0.000000000000D+00 0.000000000000D+00 0.105308352428D-04 0.000000000000D+00  6 2 -2 25 23 4 -4 4 0.62304543D-01 0.99434733D-02 0.19972965D+05 0.19972965D+05 0.19972965D+05 0.12338907D+01  1  2 12  8  6  5       21 0.740760369826D-09 0.100000000000D+01
-.944531009884D-05 0.000000000000D+00 0.000000000000D+00 0.105302334749D-04 0.000000000000D+00  6 2 -2 25 23 4 -4 4 0.62304543D-01 0.99434733D-02 0.19987696D+05 0.19987696D+05 0.19987696D+05 0.12338555D+01  1  2  5  8  6  5       21 -.111241607215D-01 0.100000000000D+01
0.100525788964D-04 0.000000000000D+00 0.000000000000D+00 0.105302334749D-04 0.949007176298D-06  6 2 -2 25 23 4 -4 4 0.62304543D-01 0.99434733D-02 0.19972965D+05 0.19972965D+05 0.19972965D+05 0.12338907D+01  1  2 11  8  6  5       21 0.118404888013D-01 0.100000000000D+01
  </mgrwgt>
  </event>
  <event>
  6     66 0.57005756E-03 0.11325300E+03 0.75467711E-02 0.11247211E+00
        2 -1    0    0  502    0 0.00000000E+00 0.00000000E+00 0.14292525E+04 0.14292525E+04 0.32000000E+00 0.0000E+00 0.9000E+01
       -2 -1    0    0    0  501 0.00000000E+00 0.00000000E+00 -.12526969E+03 0.12527010E+03 0.32000000E+00 0.0000E+00 0.9000E+01
       25  1    1    2    0    0 -.13215941E+03 0.15449590E+02 0.22076055E+02 0.18389440E+03 0.12500000E+03 0.0000E+00 0.9000E+01
       23  1    1    2    0    0 -.17925421E+02 -.76934929E+02 0.57732800E+02 0.13374839E+03 0.91188000E+02 0.0000E+00 0.9000E+01
       21  1    1    2  503  501 0.11911646E+03 0.51205989E+02 0.11255969E+04 0.11330400E+04 0.75000000E+00 0.0000E+00 0.9000E+01
       21  1    1    2  502  503 0.30968369E+02 0.10279350E+02 0.98577015E+02 0.10383976E+03 0.75000000E+00 0.0000E+00 0.9000E+01
#aMCatNLO 2  0  0  5  2 0.20577153D+02 0.00000000D+00  -5  6  0 0.00000000D+00 0.00000000D+00 0.00000000D+00 0.00000000D+00 0.00000000D+00
  <mgrwgt>
 0.5180599485D-02    3    2    0
 0.423133968321193D+03 0.000000000000000D+00 0.000000000000000D+00 0.423133968321193D+03
 0.423133968321193D+03 -.000000000000000D+00 -.000000000000000D+00 -.423133968321193D+03
 0.305863879355197D+03 -.133087831299779D+03 0.150692436373883D+02 -.244925008421617D+03
 0.157577410299393D+03 -.184040680429954D+02 -.771310167780976D+02 -.101131030959390D+03
 0.382826646987796D+03 0.151491899342775D+03 0.620617731407093D+02 0.346056039381006D+03
 0.000000000000000D+00 0.000000000000000D+00 0.000000000000000D+00 0.000000000000000D+00
 0.423133968321193D+03 0.000000000000000D+00 0.000000000000000D+00 0.423133968321193D+03
 0.423133968321193D+03 -.000000000000000D+00 -.000000000000000D+00 -.423133968321193D+03
 0.303779320902192D+03 -.132158086191729D+03 0.154501328481304D+02 -.242801172684382D+03
 0.156724937266925D+03 -.179247367390866D+02 -.769346488483833D+02 -.100036084673142D+03
 0.346857540640820D+03 0.119059491477632D+03 0.511875120014446D+02 0.321737205811806D+03
 0.389061378324499D+02 0.310233314531844D+02 0.102970039988083D+02 0.211000515457185D+02
-.470509049609D-03 0.000000000000D+00 0.000000000000D+00 0.199693919527D-05 0.000000000000D+00  6 2 -2 25 23 21 21 4 0.21988503D+00 0.19272294D-01 0.54171175D+05 0.54171175D+05 0.54171175D+05 0.11888508D+01  1  2 13  3  6  5       21 -.317842859822D-01 0.100000000000D+01
-.432158251466D-05 0.000000000000D+00 0.000000000000D+00 0.199554863645D-05 0.000000000000D+00  6 2 -2 25 23 21 21 4 0.21988503D+00 0.19272294D-01 0.54700104D+05 0.54700104D+05 0.54700104D+05 0.11884368D+01  1  2  8  3  6  5       21 -.291469442819D-03 0.100000000000D+01
0.551513164410D-03 0.000000000000D+00 0.000000000000D+00 0.199554863645D-05 0.250689574930D-07  6 2 -2 25 23 21 21 4 0.21988503D+00 0.19272294D-01 0.54171175D+05 0.54171175D+05 0.54171175D+05 0.11888508D+01  1  2  1  3  6  5       21 0.372563549100D-01 0.100000000000D+01
  </mgrwgt>
  </event>
  <event>
  6     66 -.57005756E-03 0.25970356E+02 0.75467711E-02 0.11880879E+00
        2 -1    0    0  502    0 0.00000000E+00 0.00000000E+00 0.14239391E+04 0.14239392E+04 0.32000000E+00 0.0000E+00 0.9000E+01
       -2 -1    0    0    0  501 0.00000000E+00 0.00000000E+00 -.24635865E+02 0.24637943E+02 0.32000000E+00 0.0000E+00 0.9000E+01
       25  1    1    2    0    0 0.57412993E+02 -.45571787E+02 0.35178846E+03 0.38046440E+03 0.12500000E+03 0.0000E+00 0.9000E+01
       23  1    1    2    0    0 -.45194598E+02 0.52612197E+02 0.65301520E+03 0.66298922E+03 0.91188000E+02 0.0000E+00 0.9000E+01
       21  1    1    2  502  503 0.18039883E+02 0.11726903E+02 0.33562890E+03 0.33631872E+03 0.75000000E+00 0.0000E+00 0.9000E+01
       21  1    1    2  503  501 -.30258279E+02 -.18767314E+02 0.58870721E+02 0.68804795E+02 0.75000000E+00 0.0000E+00 0.9000E+01
#aMCatNLO 2  0  0  5  2 0.45523463D+02 0.00000000D+00  -5  6  0 0.00000000D+00 0.00000000D+00 0.00000000D+00 0.00000000D+00 0.00000000D+00
  <mgrwgt>
 -.1622514620D-01    2    2    0
 0.187300571236434D+03 0.000000000000000D+00 0.000000000000000D+00 0.187300571236434D+03
 0.187300571236434D+03 -.000000000000000D+00 -.000000000000000D+00 -.187300571236434D+03
 0.174450403783006D+03 0.813377374780536D+02 -.317860136826984D+02 -.847452958940404D+02
 0.118250532389170D+03 -.276835078672015D+02 0.627023326376986D+02 0.311444688553229D+02
 0.819002063006916D+02 -.536542296108521D+02 -.309163189550002D+02 0.536008270387175D+02
 0.000000000000000D+00 0.000000000000000D+00 0.000000000000000D+00 -.000000000000000D+00
 0.187300571236434D+03 0.000000000000000D+00 0.000000000000000D+00 0.187300571236434D+03
 0.187300571236434D+03 -.000000000000000D+00 -.000000000000000D+00 -.187300571236434D+03
 0.157162775341832D+03 0.574133292067892D+02 -.455715929797769D+02 -.608446998170382D+02
 0.124464775203320D+03 -.451943321590860D+02 0.526123503026738D+02 0.486378644549278D+02
 0.462225024780483D+02 0.199834706954795D+02 0.128472933662454D+02 0.396500654155541D+02
 0.467510894496680D+02 -.322024677431827D+02 -.198880506891423D+02 -.274432300534437D+02
-.296837863539D-04 0.000000000000D+00 0.000000000000D+00 0.291402352436D-05 0.000000000000D+00  6 2 -2 25 23 21 21 4 0.21906772D+00 0.37902957D-02 0.25773234D+05 0.25773234D+05 0.25773234D+05 0.12218819D+01  1  2 13  3  6  5       21 -.293098501053D-01 0.100000000000D+01
0.132516390873D-04 0.000000000000D+00 0.000000000000D+00 0.290397175146D-05 0.470683307743D-07  6 2 -2 25 23 21 21 4 0.21906772D+00 0.37902957D-02 0.25773234D+05 0.25773234D+05 0.25773234D+05 0.12218819D+01  1  2  1  3  6  5       21 0.130847039076D-01 0.100000000000D+01
  </mgrwgt>
  </event>
  <event>
  5     66 0.57005756E-03 0.21255720E+02 0.75467711E-02 0.12248596E+00
        2 -1    0    0  502    0 0.00000000E+00 0.00000000E+00 0.12934809E+04 0.12934809E+04 0.32000000E+00 0.0000E+00 0.9000E+01
       -2 -1    0    0    0  501 0.00000000E+00 0.00000000E+00 -.54474739E+02 0.54475679E+02 0.32000000E+00 0.0000E+00 0.9000E+01
       25  1    1    2    0    0 -.56385611E+01 0.17113658E+01 0.39125023E+03 0.41077544E+03 0.12500000E+03 0.0000E+00 0.9000E+01
       23  1    1    2    0    0 0.23726731E+02 -.12874613E+02 0.61413113E+01 0.95297851E+02 0.91188000E+02 0.0000E+00 0.9000E+01
       21  1    1    2  502  501 -.18088170E+02 0.11163247E+02 0.84161461E+03 0.84188331E+03 0.75000000E+00 0.0000E+00 0.9000E+01
#aMCatNLO 1  0  0  1  5 0.26216610D+02 0.00000000D+00  -5  6  0 0.00000000D+00 0.00000000D+00 0.00000000D+00 0.00000000D+00 0.00000000D+00
  <mgrwgt>
 0.2704915194D+00    4    2    0
 0.265448099124240D+03 0.000000000000000D+00 0.000000000000000D+00 0.265448099124240D+03
 0.265448099124240D+03 0.000000000000000D+00 0.000000000000000D+00 -.265448099124240D+03
 0.129867145939257D+03 -.563851971046663D+01 0.171134021802380D+01 0.347239687325782D+02
 0.227631284380509D+03 0.237268031668907D+02 -.128746574351618D+02 -.206814004100609D+03
 0.173397767928715D+03 -.180882834564240D+02 0.111633172171379D+02 0.172090035368031D+03
 0.000000000000000D+00 -.000000000000000D+00 0.000000000000000D+00 -.000000000000000D+00
 0.268194462517545D+03 0.000000000000000D+00 0.000000000000000D+00 0.268194462517545D+03
 0.336689600444428D+03 0.000000000000000D+00 0.000000000000000D+00 -.336689600444428D+03
 0.129735614200275D+03 0.634922961826110D+00 0.415283293823282D+00 0.347239687325782D+02
 0.229184733718429D+03 0.347660120712506D+02 -.151552940625405D+02 -.206814004100609D+03
 0.172622767857581D+03 -.972650797482048D+01 0.943582282886425D+01 0.172090035368031D+03
 0.733409471856870D+02 -.256744270582562D+02 0.530418793985298D+01 -.684951379268830D+02
0.970883392667D-03 0.000000000000D+00 0.000000000000D+00 0.222461258381D-04 0.000000000000D+00  6 2 -2 25 23 21 21 2 0.19899713D+00 0.83808044D-02 0.14579876D+05 0.14579876D+05 0.14579876D+05 0.12492315D+01  1  2  2  1  6  1        2 0.236251543557D+00 0.100000000000D+01
0.200736208221D-03 0.512349242311D-04 -.372844786731D-05 0.222461258381D-04 0.000000000000D+00  6 2 -2 25 23 21 21 4 0.19899713D+00 0.83808044D-02 0.14579876D+05 0.14579876D+05 0.14579876D+05 0.12492315D+01  1  2  3  1  6  1        2 0.762288083615D-01 0.100000000000D+01
0.297676583150D-04 0.000000000000D+00 0.000000000000D+00 0.222461258381D-04 0.000000000000D+00  6 2 -2 25 23 21 21 4 0.19899713D+00 0.83808044D-02 0.14579876D+05 0.14579876D+05 0.14579876D+05 0.12492315D+01  1  2 15  1  6  1        2 0.113041545478D-01 0.100000000000D+01
-.140338441353D-03 0.000000000000D+00 0.000000000000D+00 0.222461258381D-04 0.000000000000D+00  6 2 -2 25 23 21 21 4 0.19899713D+00 0.83808044D-02 0.14579876D+05 0.14579876D+05 0.14579876D+05 0.12492315D+01  1  2  4  1  6  1        2 -.532929870823D-01 0.100000000000D+01
  </mgrwgt>
  </event>
  <event>
  5     66 -.57005756E-03 0.45871273E+02 0.75467711E-02 0.11238403E+00
        2 -1    0    0  502    0 0.00000000E+00 0.00000000E+00 0.23195783E+04 0.23195783E+04 0.32000000E+00 0.0000E+00 0.9000E+01
       -2 -1    0    0    0  501 0.00000000E+00 0.00000000E+00 -.22512923E+02 0.22515198E+02 0.32000000E+00 0.0000E+00 0.9000E+01
       25  1    1    2    0    0 0.51648804E+02 0.14022646E+03 0.61513185E+03 0.64524666E+03 0.12500000E+03 0.0000E+00 0.9000E+01
       23  1    1    2    0    0 -.63658772E+01 -.14751511E+03 0.14558368E+04 0.14661436E+04 0.91188000E+02 0.0000E+00 0.9000E+01
       21  1    1    2  502  501 -.45282927E+02 0.72886418E+01 0.22609678E+03 0.23070323E+03 0.75000000E+00 0.0000E+00 0.9000E+01
#aMCatNLO 1  0  0  2  5 0.50148651D+02 0.00000000D+00  -5  6  0 0.00000000D+00 0.00000000D+00 0.00000000D+00 0.00000000D+00 0.00000000D+00
  <mgrwgt>
 -.1529300850D+00    7    4    0
 0.228523911192229D+03 0.000000000000000D+00 0.000000000000000D+00 0.228523911192229D+03
 0.228523911192229D+03 0.000000000000000D+00 0.000000000000000D+00 -.228523911192229D+03
 0.214923055299250D+03 0.516516501231708D+02 0.140226006754404D+03 -.907507232391658D+02
 0.196245118536260D+03 -.636327878653134D+01 -.147515524826398D+03 0.916273639454284D+02
 0.458796485489497D+02 -.452883713366394D+02 0.728951807199350D+01 -.876640706262580D+00
 0.000000000000000D+00 -.000000000000000D+00 0.000000000000000D+00 -.000000000000000D+00
 0.235005847297000D+03 0.000000000000000D+00 0.000000000000000D+00 0.235005847297000D+03
 0.352922428532523D+03 0.000000000000000D+00 0.000000000000000D+00 -.352922428532523D+03
 0.214653737272107D+03 0.728279659499524D+02 0.130044686673634D+03 -.907507232391658D+02
 0.203807106093981D+03 0.133576009315446D+02 -.156997088585008D+03 0.916273639454284D+02
 0.413299776938143D+02 -.409893062558702D+02 0.522257885587081D+01 -.876640706262580D+00
 0.128137454769622D+03 -.451962606256268D+02 0.217298230555038D+02 -.117916581235523D+03
 0.228523911192229D+03 0.000000000000000D+00 0.000000000000000D+00 0.228523911192229D+03
 0.228523911192229D+03 0.000000000000000D+00 0.000000000000000D+00 -.228523911192229D+03
 0.214923055299250D+03 0.516516501231708D+02 0.140226006754404D+03 -.907507232391658D+02
 0.196245118536260D+03 -.636327878653134D+01 -.147515524826398D+03 0.916273639454284D+02
 0.000000000000000D+00 -.000000000000000D+00 0.000000000000000D+00 -.000000000000000D+00
 0.458796485489497D+02 -.452883713366394D+02 0.728951807199350D+01 -.876640706262580D+00
 0.235005847297000D+03 0.000000000000000D+00 0.000000000000000D+00 0.235005847297000D+03
 0.352922428532523D+03 0.000000000000000D+00 0.000000000000000D+00 -.352922428532523D+03
 0.214653737272107D+03 0.728279659499524D+02 0.130044686673634D+03 -.907507232391658D+02
 0.203807106093981D+03 0.133576009315446D+02 -.156997088585008D+03 0.916273639454284D+02
 0.128137454769622D+03 -.451962606256268D+02 0.217298230555038D+02 -.117916581235523D+03
 0.413299776938143D+02 -.409893062558702D+02 0.522257885587081D+01 -.876640706262580D+00
0.116170609378D-03 0.000000000000D+00 0.000000000000D+00 0.342370889983D-05 0.000000000000D+00  6 2 -2 25 23 21 21 2 0.35685838D+00 0.34637033D-02 0.42897891D+05 0.42897891D+05 0.42897891D+05 0.11989278D+01  1  2  2  2  6  2       -2 0.288344760126D-01 0.100000000000D+01
0.143837253405D-04 0.613049148263D-05 -.446125728436D-06 0.342370889983D-05 0.000000000000D+00  6 2 -2 25 23 21 21 4 0.35685838D+00 0.34637033D-02 0.42897891D+05 0.42897891D+05 0.42897891D+05 0.11989278D+01  1  2  3  2  6  2       -2 0.513184126193D-02 0.100000000000D+01
0.185311791376D-05 0.000000000000D+00 0.000000000000D+00 0.342370889983D-05 0.000000000000D+00  6 2 -2 25 23 21 21 4 0.35685838D+00 0.34637033D-02 0.42897891D+05 0.42897891D+05 0.42897891D+05 0.11989278D+01  1  2 15  2  6  2       -2 0.661157436472D-03 0.100000000000D+01
-.555241735113D-03 0.000000000000D+00 0.000000000000D+00 0.342370889983D-05 0.000000000000D+00  6 2 -2 25 23 21 21 4 0.35685838D+00 0.34637033D-02 0.42897891D+05 0.42897891D+05 0.42897891D+05 0.11989278D+01  1  2  4  2  6  2       -2 -.198099753655D+00 0.100000000000D+01
-.683620449719D-03 0.000000000000D+00 -.756620962135D-04 0.342370889983D-05 0.000000000000D+00  6 2 -2 25 23 21 21 4 0.35685838D+00 0.55193769D-02 0.42897891D+05 0.42897891D+05 0.42897891D+05 0.11989278D+01  1  2  5  2  6  2       -2 -.120815053387D+00 0.100000000000D+01
0.654110134024D-03 0.000000000000D+00 0.681320279833D-04 0.342370889983D-05 0.000000000000D+00  6 2 -2 25 23 21 21 4 0.35685838D+00 0.34637033D-02 0.42897891D+05 0.42897891D+05 0.42897891D+05 0.11989278D+01  1  2  6  2  6  2       -2 0.233374129175D+00 0.100000000000D+01
-.333376788898D-04 0.000000000000D+00 -.403755132503D-05 0.342370889983D-05 0.000000000000D+00  6 2 21 25 23 2 21 4 0.35685838D+00 0.55193769D-02 0.42897891D+05 0.42897891D+05 0.42897891D+05 0.11989278D+01  3  4  5  5  5  2       -2 -.102016881835D+00 0.100000000000D+01
  </mgrwgt>
  </event>
  <event>
  5     66 0.57005756E-03 0.36840676E+02 0.75467711E-02 0.11246773E+00
        2 -1    0    0  502    0 0.00000000E+00 0.00000000E+00 0.26610625E+03 0.26610645E+03 0.32000000E+00 0.0000E+00 0.9000E+01
       -2 -1    0    0    0  501 -.00000000E+00 -.00000000E+00 -.27022732E+03 0.27022751E+03 0.32000000E+00 0.0000E+00 0.9000E+01
       25  1    1    2    0    0 -.62181205E+02 -.18390297E+03 0.54268450E+02 0.23718531E+03 0.12500000E+03 0.0000E+00 0.9000E+01
       23  1    1    2    0    0 0.27050544E+02 0.17281209E+03 0.33557892E+02 0.20009281E+03 0.91188000E+02 0.0000E+00 0.9000E+01
       21  1    1    2  502  501 0.35130660E+02 0.11090882E+02 -.91947411E+02 0.99055842E+02 0.75000000E+00 0.0000E+00 0.9000E+01
#aMCatNLO 1  0  0  5  1 0.18325083D+02 0.00000000D+00  -5  6  0 0.00000000D+00 0.00000000D+00 0.00000000D+00 0.00000000D+00 0.00000000D+00
  <mgrwgt>
 0.7238892943D-01   15    2    0
 0.268159063898516D+03 0.000000000000000D+00 0.000000000000000D+00 0.268159063898516D+03
 0.268159063898516D+03 -.000000000000000D+00 -.000000000000000D+00 -.268159063898516D+03
 0.237609813551555D+03 -.621816572210145D+02 -.183903113534009D+03 0.560937593119798D+02
 0.200356596066363D+03 0.270501627020579D+02 0.172811968357007D+03 0.350973864221923D+02
 0.983517181791137D+02 0.351314945189567D+02 0.110911451770015D+02 -.911911457341720D+02
 0.000000000000000D+00 0.000000000000000D+00 0.000000000000000D+00 0.000000000000000D+00
 0.268159063898516D+03 0.000000000000000D+00 0.000000000000000D+00 0.268159063898516D+03
 0.268159063898516D+03 -.000000000000000D+00 -.000000000000000D+00 -.268159063898516D+03
 0.236382589083449D+03 -.610693654432276D+02 -.183551958829219D+03 0.532065732415905D+02
 0.200329325970200D+03 0.279904302128421D+02 0.173108814352605D+03 0.326567253350654D+02
 0.517511077789657D+02 0.267149684603372D+01 -.333288872990568D+01 -.515745296989301D+02
 0.478551049644170D+02 0.304074383843518D+02 0.137760332065197D+02 -.342887688777256D+02
0.442671749441D-03 0.000000000000D+00 0.000000000000D+00 0.674035582360D-05 0.000000000000D+00  6 2 -2 25 23 21 21 2 0.40939453D-01 0.41573464D-01 0.54054614D+05 0.54054614D+05 0.54054614D+05 0.11889426D+01  1  2  2  3  6  5       21 0.431864268363D-01 0.100000000000D+01
0.682470136305D-04 0.233604300096D-04 -.169997607600D-05 0.674035582360D-05 0.000000000000D+00  6 2 -2 25 23 21 21 4 0.40939453D-01 0.41573464D-01 0.54054614D+05 0.54054614D+05 0.54054614D+05 0.11889426D+01  1  2  3  3  6  5       21 0.941176140566D-02 0.100000000000D+01
0.202467516456D-05 0.000000000000D+00 0.000000000000D+00 0.674035582360D-05 0.000000000000D+00  6 2 -2 25 23 21 21 4 0.40939453D-01 0.41573464D-01 0.54054614D+05 0.54054614D+05 0.54054614D+05 0.11889426D+01  1  2 15  3  6  5       21 0.279217485998D-03 0.100000000000D+01
0.358059600894D-03 0.000000000000D+00 0.000000000000D+00 0.673905249461D-05 0.000000000000D+00  6 2 -2 25 23 21 21 4 0.40939453D-01 0.41573464D-01 0.54200559D+05 0.54200559D+05 0.54200559D+05 0.11888277D+01  1  2 12  3  6  5       21 0.493605208572D-01 0.100000000000D+01
-.834273165968D-03 0.000000000000D+00 0.000000000000D+00 0.674035582360D-05 0.000000000000D+00  6 2 -2 25 23 21 21 4 0.40939453D-01 0.41573464D-01 0.54054614D+05 0.54054614D+05 0.54054614D+05 0.11889426D+01  1  2  4  3  6  5       21 -.115052360060D+00 0.100000000000D+01
-.710022040817D-03 0.000000000000D+00 0.000000000000D+00 0.674035582360D-05 0.000000000000D+00  6 2 -2 25 23 21 21 4 0.40939453D-01 0.41573464D-01 0.54054614D+05 0.54054614D+05 0.54054614D+05 0.11889426D+01  1  2  5  3  6  5       21 -.979172228269D-01 0.100000000000D+01
0.129465099470D-02 0.000000000000D+00 -.000000000000D+00 0.674035582360D-05 0.000000000000D+00  6 2 -2 25 23 21 21 4 0.40939453D-01 0.41573464D-01 0.54054614D+05 0.54054614D+05 0.54054614D+05 0.11889426D+01  1  2  6  3  6  5       21 0.178541823555D+00 0.100000000000D+01
0.122684407231D-04 0.000000000000D+00 0.000000000000D+00 0.673905249461D-05 0.000000000000D+00  6 2 -2 25 23 1 -1 4 0.40939453D-01 0.41573464D-01 0.54200559D+05 0.54200559D+05 0.54200559D+05 0.11888277D+01  1  2 12  6  6  5       21 0.169127324805D-02 0.100000000000D+01
0.122684407231D-04 0.000000000000D+00 0.000000000000D+00 0.673905249461D-05 0.000000000000D+00  6 2 -2 25 23 3 -3 4 0.40939453D-01 0.41573464D-01 0.54200559D+05 0.54200559D+05 0.54200559D+05 0.11888277D+01  1  2 12  6  6  5       21 0.169127324805D-02 0.100000000000D+01
-.396340659687D-05 0.000000000000D+00 0.000000000000D+00 0.674035582360D-05 0.000000000000D+00  6 2 -2 25 23 1 -1 4 0.40939453D-01 0.41573464D-01 0.54054614D+05 0.54054614D+05 0.54054614D+05 0.11889426D+01  1  2  5  6  6  5       21 -.546582703902D-03 0.100000000000D+01
-.396340659687D-05 0.000000000000D+00 0.000000000000D+00 0.674035582360D-05 0.000000000000D+00  6 2 -2 25 23 3 -3 4 0.40939453D-01 0.41573464D-01 0.54054614D+05 0.54054614D+05 0.54054614D+05 0.11889426D+01  1  2  5  6  6  5       21 -.546582703902D-03 0.100000000000D+01
0.122684407231D-04 0.000000000000D+00 0.000000000000D+00 0.673905249461D-05 0.000000000000D+00  6 2 -2 25 23 2 -2 4 0.40939453D-01 0.41573464D-01 0.54200559D+05 0.54200559D+05 0.54200559D+05 0.11888277D+01  1  2 12  7  6  5       21 0.169127324805D-02 0.100000000000D+01
-.396340659687D-05 0.000000000000D+00 0.000000000000D+00 0.674035582360D-05 0.000000000000D+00  6 2 -2 25 23 2 -2 4 0.40939453D-01 0.41573464D-01 0.54054614D+05 0.54054614D+05 0.54054614D+05 0.11889426D+01  1  2  5  7  6  5       21 -.546582703902D-03 0.100000000000D+01
0.122684407231D-04 0.000000000000D+00 0.000000000000D+00 0.673905249461D-05 0.000000000000D+00  6 2 -2 25 23 4 -4 4 0.40939453D-01 0.41573464D-01 0.54200559D+05 0.54200559D+05 0.54200559D+05 0.11888277D+01  1  2 12  8  6  5       21 0.169127324805D-02 0.100000000000D+01
-.396340659687D-05 0.000000000000D+00 0.000000000000D+00 0.674035582360D-05 0.000000000000D+00  6 2 -2 25 23 4 -4 4 0.40939453D-01 0.41573464D-01 0.54054614D+05 0.54054614D+05 0.54054614D+05 0.11889426D+01  1  2  5  8  6  5       21 -.546582703902D-03 0.100000000000D+01
  </mgrwgt>
  </event>
  <event>
  6     66 -.57005756E-03 0.29537971E+02 0.75467711E-02 0.10870217E+00
        2 -1    0    0  502    0 0.00000000E+00 0.00000000E+00 0.12779812E+03 0.12779852E+03 0.32000000E+00 0.0000E+00 0.9000E+01
       -2 -1    0    0    0  501 -.00000000E+00 -.00000000E+00 -.10988097E+04 0.10988097E+04 0.32000000E+00 0.0000E+00 0.9000E+01
       25  1    1    2    0    0 -.23840565E+02 0.26290386E+03 -.55897368E+03 0.63068486E+03 0.12500000E+03 0.0000E+00 0.9000E+01
       23  1    1    2    0    0 0.36903178E+02 -.24067751E+03 -.46266425E+03 0.53071740E+03 0.91188000E+02 0.0000E+00 0.9000E+01
       21  1    1    2  503  501 -.17231613E+02 -.28472389E+02 0.38221825E+02 0.50686052E+02 0.75000000E+00 0.0000E+00 0.9000E+01
       21  1    1    2  502  503 0.41690000E+01 0.62460322E+01 0.12404533E+02 0.14519932E+02 0.75000000E+00 0.0000E+00 0.9000E+01
#aMCatNLO 2  0  0  5  2 0.13437873D+02 0.00000000D+00  -5  6  0 0.00000000D+00 0.00000000D+00 0.00000000D+00 0.00000000D+00 0.00000000D+00
  <mgrwgt>
 -.3201285369D+00    2    2    0
 0.374734679994446D+03 0.000000000000000D+00 0.000000000000000D+00 0.374734679994446D+03
 0.374734679994446D+03 -.000000000000000D+00 -.000000000000000D+00 -.374734679994446D+03
 0.308516233388697D+03 -.237452440484507D+02 0.263066054249821D+03 -.989428155595881D+02
 0.269326494298175D+03 0.369864352711321D+02 -.240535842042767D+03 -.706825401754635D+02
 0.171626632302021D+03 -.132411912226813D+02 -.225302122070537D+02 0.169625355735052D+03
 0.000000000000000D+00 0.000000000000000D+00 0.000000000000000D+00 0.000000000000000D+00
 0.374734679994446D+03 0.000000000000000D+00 0.000000000000000D+00 0.374734679994446D+03
 0.374734679994446D+03 -.000000000000000D+00 -.000000000000000D+00 -.374734679994446D+03
 0.307994683958121D+03 -.238407505623589D+02 0.262903547569771D+03 -.977193360308784D+02
 0.269163469915760D+03 0.369030153383953D+02 -.240677783107982D+03 -.696138949510340D+02
 0.132219245148770D+03 -.172459908965121D+02 -.284927085432739D+02 0.127955735102323D+03
 0.400919609662419D+02 0.418372612047566D+01 0.626694408148502D+01 0.393774958795891D+02
-.381811577543D-01 0.000000000000D+00 0.000000000000D+00 0.129931405884D-04 0.000000000000D+00  6 2 -2 25 23 21 21 4 0.19661283D-01 0.16904768D+00 0.87890842D+05 0.87890842D+05 0.87890842D+05 0.11687565D+01  1  2 13  3  6  5       21 -.466968836220D+00 0.100000000000D+01
0.120062243962D-01 0.000000000000D+00 0.000000000000D+00 0.130384178663D-04 0.242764491621D-06  6 2 -2 25 23 21 21 4 0.19661283D-01 0.16904768D+00 0.87890842D+05 0.87890842D+05 0.87890842D+05 0.11687565D+01  1  2  1  3  6  5       21 0.146840299337D+00 0.100000000000D+01
  </mgrwgt>
  </event>
  <event>
  5     66 0.57005756E-03 0.25656485E+02 0.75467711E-02 0.10789786E+00
        2 -1    0    0  502    0 0.00000000E+00 0.00000000E+00 0.12844891E+04 0.12844892E+04 0.32000000E+00 0.0000E+00 0.9000E+01
       -2 -1    0    0    0  501 0.00000000E+00 0.00000000E+00 -.51386361E+02 0.51387357E+02 0.32000000E+00 0.0000E+00 0.9000E+01
       25  1    1    2    0    0 0.10301761E+03 -.32533049E+02 0.10474228E+04 0.10603728E+04 0.12500000E+03 0.0000E+00 0.9000E+01
       23  1    1    2    0    0 -.11364232E+03 0.55885392E+02 0.19357999E+03 0.24864879E+03 0.91188000E+02 0.0000E+00 0.9000E+01
       21  1    1    2  502  501 0.10624710E+02 -.23352342E+02 -.78999765E+01 0.26854953E+02 0.75000000E+00 0.0000E+00 0.9000E+01
#aMCatNLO 1  0  0  2  5 0.91779488D+01 0.00000000D+00  -5  6  0 0.00000000D+00 0.00000000D+00 0.00000000D+00 0.00000000D+00 0.00000000D+00
  <mgrwgt>
 0.2821119040D+00    5    4    0
 0.256916161531259D+03 0.000000000000000D+00 0.000000000000000D+00 0.256916161531259D+03
 0.256916161531259D+03 0.000000000000000D+00 0.000000000000000D+00 -.256916161531259D+03
 0.243168228913370D+03 0.103017429838615D+03 -.325326549901308D+02 0.178423157301972D+03
 0.181887852154420D+03 -.113642453215592D+03 0.558856867526615D+02 -.934351232710354D+02
 0.887762419947290D+02 0.106250233769767D+02 -.233530317625307D+02 -.849880340309364D+02
 0.000000000000000D+00 -.000000000000000D+00 -.000000000000000D+00 -.000000000000000D+00
 0.361163879977179D+03 0.000000000000000D+00 0.000000000000000D+00 0.361163879977179D+03
 0.413583765124421D+03 0.000000000000000D+00 0.000000000000000D+00 -.413583765124421D+03
 0.290331796380424D+03 0.189849326010923D+03 0.281062687149698D+02 0.178423157301972D+03
 0.171527373257102D+03 -.561209673604660D+02 0.960557296278207D+02 -.934351232710354D+02
 0.941345987220227D+02 0.403953970918800D+02 -.256293618765065D+01 -.849880340309364D+02
 0.218753876742052D+03 -.174123755742337D+03 -.121599062155140D+03 -.524198851472422D+02
 0.256916161531259D+03 0.000000000000000D+00 0.000000000000000D+00 0.256916161531259D+03
 0.256916161531259D+03 0.000000000000000D+00 0.000000000000000D+00 -.256916161531259D+03
 0.243168228913370D+03 0.103017429838615D+03 -.325326549901308D+02 0.178423157301972D+03
 0.181887852154420D+03 -.113642453215592D+03 0.558856867526615D+02 -.934351232710354D+02
 0.000000000000000D+00 -.000000000000000D+00 -.000000000000000D+00 -.000000000000000D+00
 0.887762419947290D+02 0.106250233769767D+02 -.233530317625307D+02 -.849880340309364D+02
 0.361163879977179D+03 0.000000000000000D+00 0.000000000000000D+00 0.361163879977179D+03
 0.413583765124421D+03 0.000000000000000D+00 0.000000000000000D+00 -.413583765124421D+03
 0.290331796380424D+03 0.189849326010923D+03 0.281062687149698D+02 0.178423157301972D+03
 0.171527373257102D+03 -.561209673604660D+02 0.960557296278207D+02 -.934351232710354D+02
 0.218753876742052D+03 -.174123755742337D+03 -.121599062155140D+03 -.524198851472422D+02
 0.941345987220227D+02 0.403953970918800D+02 -.256293618765065D+01 -.849880340309364D+02
0.721468374293D-03 0.000000000000D+00 0.000000000000D+00 0.939896807661D-05 0.000000000000D+00  6 2 -2 25 23 21 21 2 0.19761379D+00 0.79056737D-02 0.30089427D+05 0.30089427D+05 0.30089427D+05 0.12147628D+01  1  2  2  2  6  2       -2 0.183830902673D+00 0.100000000000D+01
0.100424811806D-03 0.380729321062D-04 -.277062852427D-05 0.939896807661D-05 0.000000000000D+00  6 2 -2 25 23 21 21 4 0.19761379D+00 0.79056737D-02 0.30089427D+05 0.30089427D+05 0.30089427D+05 0.12147628D+01  1  2  3  2  6  2       -2 0.377594084093D-01 0.100000000000D+01
0.164792324788D-04 0.000000000000D+00 0.000000000000D+00 0.939896807661D-05 0.000000000000D+00  6 2 -2 25 23 21 21 4 0.19761379D+00 0.79056737D-02 0.30089427D+05 0.30089427D+05 0.30089427D+05 0.12147628D+01  1  2 15  2  6  2       -2 0.619613876540D-02 0.100000000000D+01
0.979375290112D-04 0.000000000000D+00 -.379253634335D-03 0.939896807661D-05 0.000000000000D+00  6 2 -2 25 23 21 21 4 0.19761379D+00 0.18369527D-01 0.30089427D+05 0.30089427D+05 0.30089427D+05 0.12147628D+01  1  2  5  2  6  2       -2 0.947346350873D-02 0.100000000000D+01
0.329723972210D-04 0.000000000000D+00 -.348392428957D-04 0.939896807661D-05 0.000000000000D+00  6 2 21 25 23 2 21 4 0.19761379D+00 0.18369527D-01 0.30089427D+05 0.30089427D+05 0.30089427D+05 0.12147628D+01  3  4  5  5  5  2       -2 0.448519906922D-01 0.100000000000D+01
  </mgrwgt>
  </event>
  <event>
  5     66 0.57005756E-03 0.26757045E+02 0.75467711E-02 0.12225864E+00
        2 -1    0    0  502    0 0.00000000E+00 0.00000000E+00 0.45162779E+03 0.45162790E+03 0.32000000E+00 0.0000E+00 0.9000E+01
       -2 -1    0    0    0  501 0.00000000E+00 0.00000000E+00 -.47492206E+02 0.47493284E+02 0.32000000E+00 0.0000E+00 0.9000E+01
       25  1    1    2    0    0 -.51112079E+02 0.11724130E+02 0.15939426E+03 0.20924013E+03 0.12500000E+03 0.0000E+00 0.9000E+01
       23  1    1    2    0    0 0.24753261E+02 -.71362126E+01 0.83084895E+02 0.12602381E+03 0.91188000E+02 0.0000E+00 0.9000E+01
       21  1    1    2  502  501 0.26358818E+02 -.45879175E+01 0.16165643E+03 0.16385725E+03 0.75000000E+00 0.0000E+00 0.9000E+01
#aMCatNLO 1  0  0  5  2 0.13233243D+02 0.00000000D+00  -5  6  0 0.00000000D+00 0.00000000D+00 0.00000000D+00 0.00000000D+00 0.00000000D+00
  <mgrwgt>
 0.3223617685D+00    9    2    0
 0.146455104319655D+03 0.000000000000000D+00 0.000000000000000D+00 0.146455104319655D+03
 0.146455104319655D+03 -.000000000000000D+00 -.000000000000000D+00 -.146455104319655D+03
 0.136627151914494D+03 -.511131750233776D+02 0.117243208614837D+02 -.170869037462287D+02
 0.100111471992552D+03 0.247524578386295D+02 -.713607277141141D+01 -.323024422739763D+02
 0.561715847322636D+02 0.263607171847481D+02 -.458824809007230D+01 0.493893460202050D+02
 0.000000000000000D+00 0.000000000000000D+00 0.000000000000000D+00 -.000000000000000D+00
 0.146455104319655D+03 0.000000000000000D+00 0.000000000000000D+00 0.146455104319655D+03
 0.146455104319655D+03 -.000000000000000D+00 -.000000000000000D+00 -.146455104319655D+03
 0.133649595048808D+03 -.455693007818575D+02 0.107593747933633D+02 -.669992067259055D+01
 0.990755691716821D+02 0.288381511850310D+02 -.784721331291739D+01 -.246475017424407D+02
 0.450289426188890D+02 0.171771750239966D+02 -.163926739858064D+02 0.382600388285905D+02
 0.151561017999309D+02 -.446025427170157D+00 0.134805125053604D+02 -.691261641355916D+01
0.129014337042D-03 0.000000000000D+00 0.000000000000D+00 0.223236845186D-04 0.000000000000D+00  6 2 -2 25 23 21 21 2 0.69481290D-01 0.73065849D-02 0.16521036D+05 0.16521036D+05 0.16521036D+05 0.12430688D+01  1  2  2  3  6  5       21 0.144520965945D+00 0.100000000000D+01
0.121962930952D-04 0.680827361245D-05 -.495449024495D-06 0.223236845186D-04 0.000000000000D+00  6 2 -2 25 23 21 21 4 0.69481290D-01 0.73065849D-02 0.16521036D+05 0.16521036D+05 0.16521036D+05 0.12430688D+01  1  2  3  3  6  5       21 0.211111103300D-01 0.100000000000D+01
0.418644656033D-05 0.000000000000D+00 0.000000000000D+00 0.223236845186D-04 0.000000000000D+00  6 2 -2 25 23 21 21 4 0.69481290D-01 0.73065849D-02 0.16521036D+05 0.16521036D+05 0.16521036D+05 0.12430688D+01  1  2 15  3  6  5       21 0.724650797876D-02 0.100000000000D+01
0.144495747197D-03 0.000000000000D+00 0.000000000000D+00 0.221955020374D-04 0.000000000000D+00  6 2 -2 25 23 21 21 4 0.69481290D-01 0.73065849D-02 0.17778777D+05 0.17778777D+05 0.17778777D+05 0.12394948D+01  1  2 12  3  6  5       21 0.247830582514D+00 0.100000000000D+01
-.620962523198D-04 0.000000000000D+00 0.000000000000D+00 0.223236845186D-04 0.000000000000D+00  6 2 -2 25 23 21 21 4 0.69481290D-01 0.73065849D-02 0.16521036D+05 0.16521036D+05 0.16521036D+05 0.12430688D+01  1  2  4  3  6  5       21 -.107485186160D+00 0.100000000000D+01
0.133192953930D-05 0.000000000000D+00 0.000000000000D+00 0.221955020374D-04 0.000000000000D+00  6 2 -2 25 23 1 -1 4 0.69481290D-01 0.73065849D-02 0.17778777D+05 0.17778777D+05 0.17778777D+05 0.12394948D+01  1  2 12  6  6  5       21 0.228444698197D-02 0.100000000000D+01
0.133192953930D-05 0.000000000000D+00 0.000000000000D+00 0.221955020374D-04 0.000000000000D+00  6 2 -2 25 23 3 -3 4 0.69481290D-01 0.73065849D-02 0.17778777D+05 0.17778777D+05 0.17778777D+05 0.12394948D+01  1  2 12  6  6  5       21 0.228444698197D-02 0.100000000000D+01
0.133192953930D-05 0.000000000000D+00 0.000000000000D+00 0.221955020374D-04 0.000000000000D+00  6 2 -2 25 23 2 -2 4 0.69481290D-01 0.73065849D-02 0.17778777D+05 0.17778777D+05 0.17778777D+05 0.12394948D+01  1  2 12  7  6  5       21 0.228444698197D-02 0.100000000000D+01
0.133192953930D-05 0.000000000000D+00 0.000000000000D+00 0.221955020374D-04 0.000000000000D+00  6 2 -2 25 23 4 -4 4 0.69481290D-01 0.73065849D-02 0.17778777D+05 0.17778777D+05 0.17778777D+05 0.12394948D+01  1  2 12  8  6  5       21 0.228444698197D-02 0.100000000000D+01
  </mgrwgt>
  </event>
  <event>
  6     66 0.57005756E-03 0.30707430E+02 0.75467711E-02 0.10554479E+00
        2 -1    0    0  502    0 0.00000000E+00 0.00000000E+00 0.28763674E+04 0.28763674E+04 0.32000000E+00 0.0000E+00 0.9000E+01
       21 -1    0    0  503  501 0.00000000E+00 0.00000000E+00 -.12086345E+03 0.12086578E+03 0.75000000E+00 0.0000E+00 0.9000E+01
       25  1    1    2    0    0 -.20881498E+03 -.22889210E+03 0.23387576E+04 0.23625002E+04 0.12500000E+03 0.0000E+00 0.9000E+01
       23  1    1    2    0    0 0.20147774E+03 0.20934139E+03 0.43782212E+03 0.53331094E+03 0.91188000E+02 0.0000E+00 0.9000E+01
        2  1    1    2  503    0 0.37469921E+02 -.23994042E+02 -.19113036E+02 0.48426434E+02 0.32000000E+00 0.0000E+00 0.9000E+01
       21  1    1    2  502  501 -.30132677E+02 0.43544748E+02 -.19626801E+01 0.52995641E+02 0.75000000E+00 0.0000E+00 0.9000E+01
#aMCatNLO 2  0  0  2  1 0.44493921D+02 0.00000000D+00  -5  6  0 0.00000000D+00 0.00000000D+00 0.00000000D+00 0.00000000D+00 0.00000000D+00
  <mgrwgt>
 0.2349152532D+00    1    2    0
 0.498743984265425D+03 0.000000000000000D+00 0.000000000000000D+00 0.498743984265425D+03
 0.498743984265425D+03 0.000000000000000D+00 0.000000000000000D+00 -.498743984265425D+03
 0.476264934029151D+03 -.190898248785618D+03 -.240365292683494D+03 0.342031682844667D+03
 0.361275815046278D+03 0.214987931333895D+03 0.200689980571848D+03 -.188967415900722D+03
 0.000000000000000D+00 0.000000000000000D+00 -.000000000000000D+00 -.000000000000000D+00
 0.159947219455421D+03 -.240896825482773D+02 0.396753121116463D+02 -.153064266943945D+03
 0.501796715725802D+03 0.000000000000000D+00 0.000000000000000D+00 0.501796715725802D+03
 0.692812502197764D+03 0.000000000000000D+00 0.000000000000000D+00 -.692812502197764D+03
 0.478127605908013D+03 -.208814876972475D+03 -.228892294795487D+03 0.342031682844667D+03
 0.358386673349760D+03 0.201477845404818D+03 0.209341228212561D+03 -.188967415900722D+03
 0.196129395217691D+03 0.374699207004346D+02 -.239940415448942D+02 -.191015786471962D+03
 0.161965543448102D+03 -.301328891327778D+02 0.435451081278199D+02 -.153064266943945D+03
0.172592836490D-02 0.000000000000D+00 0.000000000000D+00 0.208397455364D-05 0.441548427977D-09  6 2 21 25 23 2 21 4 0.44251813D+00 0.18594553D-01 0.13544771D+06 0.13544771D+06 0.13544771D+06 0.11516575D+01  1  2  1  5  5  2       -2 0.234915253238D+00 0.100000000000D+01
  </mgrwgt>
  </event>
  <event>
  5     66 -.57005756E-03 0.48753156E+02 0.75467711E-02 0.12135863E+00
        2 -1    0    0  502    0 0.00000000E+00 0.00000000E+00 0.46786844E+03 0.46786855E+03 0.32000000E+00 0.0000E+00 0.9000E+01
       -2 -1    0    0    0  501 0.00000000E+00 0.00000000E+00 -.62030713E+02 0.62031538E+02 0.32000000E+00 0.0000E+00 0.9000E+01
       25  1    1    2    0    0 0.42399669E+02 -.30918808E+02 0.57094734E+02 0.14710035E+03 0.12500000E+03 0.0000E+00 0.9000E+01
       23  1    1    2    0    0 0.59870674E+01 0.24992966E+02 0.29682843E+03 0.31158123E+03 0.91188000E+02 0.0000E+00 0.9000E+01
       21  1    1    2  502  501 -.48386736E+02 0.59258411E+01 0.51914566E+02 0.71218512E+02 0.75000000E+00 0.0000E+00 0.9000E+01
#aMCatNLO 1  0  0  1  5 0.54015397D+00 0.00000000D+00  -5  6  0 0.00000000D+00 0.00000000D+00 0.00000000D+00 0.00000000D+00 0.00000000D+00
  <mgrwgt>
 -.9950894532D-01   11    4    0
 0.170359798331995D+03 0.000000000000000D+00 0.000000000000000D+00 0.170359798331995D+03
 0.170359798331995D+03 0.000000000000000D+00 0.000000000000000D+00 -.170359798331995D+03
 0.160770069581487D+03 0.424023517447042D+02 -.309191361195551D+02 -.864179545081640D+02
 0.131025058346734D+03 0.598925413677757D+01 0.249926985960870D+02 0.905086096597189D+02
 0.489244687357684D+02 -.483916058814818D+02 0.592643752346807D+01 -.409065515155483D+01
 0.000000000000000D+00 -.000000000000000D+00 0.000000000000000D+00 0.000000000000000D+00
 0.172418523700990D+03 0.000000000000000D+00 0.000000000000000D+00 0.172418523700990D+03
 0.170395446552600D+03 0.000000000000000D+00 0.000000000000000D+00 -.170395446552600D+03
 0.160845050469465D+03 0.426533310377463D+02 -.309638620093506D+02 -.864179545081640D+02
 0.131027619392323D+03 0.619375259377896D+01 0.249562558468054D+02 0.905086096597189D+02
 0.488473549638432D+02 -.483153075308705D+02 0.591284073793383D+01 -.409065515155483D+01
 0.209394542795850D+01 -.531776100654836D+00 0.947654246114358D-01 0.202307714839026D+01
 0.170359798331995D+03 0.000000000000000D+00 0.000000000000000D+00 0.170359798331995D+03
 0.170359798331995D+03 0.000000000000000D+00 0.000000000000000D+00 -.170359798331995D+03
 0.160770069581487D+03 0.424023517447042D+02 -.309191361195551D+02 -.864179545081640D+02
 0.131025058346734D+03 0.598925413677757D+01 0.249926985960870D+02 0.905086096597189D+02
 0.000000000000000D+00 -.000000000000000D+00 0.000000000000000D+00 0.000000000000000D+00
 0.489244687357684D+02 -.483916058814818D+02 0.592643752346807D+01 -.409065515155483D+01
 0.172418523700990D+03 0.000000000000000D+00 0.000000000000000D+00 0.172418523700990D+03
 0.170395446552600D+03 0.000000000000000D+00 0.000000000000000D+00 -.170395446552600D+03
 0.160845050469465D+03 0.426533310377463D+02 -.309638620093506D+02 -.864179545081640D+02
 0.131027619392323D+03 0.619375259377896D+01 0.249562558468054D+02 0.905086096597189D+02
 0.209394542795850D+01 -.531776100654836D+00 0.947654246114358D-01 0.202307714839026D+01
 0.488473549638432D+02 -.483153075308705D+02 0.591284073793383D+01 -.409065515155483D+01
0.802634865655D-05 0.000000000000D+00 0.000000000000D+00 0.343720884385D-05 0.000000000000D+00  6 2 -2 25 23 21 21 2 0.71979833D-01 0.95432585D-02 0.19468987D+05 0.19468987D+05 0.19468987D+05 0.12351147D+01  1  2  2  1  6  1        2 0.567511121787D-02 0.100000000000D+01
0.599059398163D-07 0.423562055317D-06 -.308232922273D-07 0.343720884385D-05 0.000000000000D+00  6 2 -2 25 23 21 21 4 0.71979833D-01 0.95432585D-02 0.19468987D+05 0.19468987D+05 0.19468987D+05 0.12351147D+01  1  2  3  1  6  1        2 0.646161141298D-04 0.100000000000D+01
0.293418006478D-06 0.000000000000D+00 0.000000000000D+00 0.343720884385D-05 0.000000000000D+00  6 2 -2 25 23 21 21 4 0.71979833D-01 0.95432585D-02 0.19468987D+05 0.19468987D+05 0.19468987D+05 0.12351147D+01  1  2 15  1  6  1        2 0.316488339094D-03 0.100000000000D+01
0.298867748993D-13 0.000000000000D+00 0.000000000000D+00 0.343614789754D-05 0.000000000000D+00  6 2 -2 25 23 21 21 4 0.72898245D-01 0.95432585D-02 0.19546535D+05 0.19546535D+05 0.19546535D+05 0.12349241D+01  1  2 12  1  6  1        2 0.317779523798D-10 0.100000000000D+01
-.663493834700D-02 0.000000000000D+00 0.000000000000D+00 0.343720884385D-05 0.000000000000D+00  6 2 -2 25 23 21 21 4 0.71979833D-01 0.95432585D-02 0.19468987D+05 0.19468987D+05 0.19468987D+05 0.12351147D+01  1  2  4  1  6  1        2 -.715661810479D+01 0.100000000000D+01
-.644699726408D-02 0.000000000000D+00 -.174524189452D-03 0.343720884385D-05 0.000000000000D+00  6 2 -2 25 23 21 21 4 0.72857128D-01 0.95432585D-02 0.19468987D+05 0.19468987D+05 0.19468987D+05 0.12351147D+01  1  2  5  1  6  1        2 -.686274003861D+01 0.100000000000D+01
0.644865112204D-02 0.000000000000D+00 0.174511383764D-03 0.343720884385D-05 0.000000000000D+00  6 2 -2 25 23 21 21 4 0.71979833D-01 0.95432585D-02 0.19468987D+05 0.19468987D+05 0.19468987D+05 0.12351147D+01  1  2  6  1  6  1        2 0.695568382972D+01 0.100000000000D+01
0.654886110777D-02 0.000000000000D+00 0.000000000000D+00 0.343720884385D-05 0.639692225595D-04  6 2 -2 25 23 21 21 4 0.72849678D-01 0.95452555D-02 0.19546535D+05 0.19546535D+05 0.19546535D+05 0.12349241D+01  1  2 11  1  6  1        2 0.696603857450D+01 0.100000000000D+01
0.371647041043D-14 0.000000000000D+00 0.000000000000D+00 0.343614789754D-05 0.000000000000D+00  6 21 -2 25 23 -2 21 4 0.72898245D-01 0.95432585D-02 0.19546535D+05 0.19546535D+05 0.19546535D+05 0.12349241D+01  3  4 12  4  5  1        2 0.826057771412D-11 0.100000000000D+01
-.143720384602D-04 0.000000000000D+00 -.389316028466D-06 0.343720884385D-05 0.000000000000D+00  6 21 -2 25 23 -2 21 4 0.72857128D-01 0.95432585D-02 0.19468987D+05 0.19468987D+05 0.19468987D+05 0.12351147D+01  3  4  5  4  5  1        2 -.320049054094D-01 0.100000000000D+01
0.108193342238D-04 0.000000000000D+00 0.000000000000D+00 0.343720884385D-05 0.210906918522D-06  6 21 -2 25 23 -2 21 4 0.72849678D-01 0.95452555D-02 0.19546535D+05 0.19546535D+05 0.19546535D+05 0.12349241D+01  3  4 11  4  5  1        2 0.240754835602D-01 0.100000000000D+01
  </mgrwgt>
  </event>
  <event>
  5     66 0.57005756E-03 0.34153677E+02 0.75467711E-02 0.11406040E+00
        4 -1    0    0  502    0 0.00000000E+00 0.00000000E+00 0.19231587E+03 0.19232212E+03 0.15500000E+01 0.0000E+00 0.9000E+01
       -4 -1    0    0    0  501 0.00000000E+00 0.00000000E+00 -.16186352E+03 0.16187094E+03 0.15500000E+01 0.0000E+00 0.9000E+01
       25  1    1    2    0    0 -.62707789E+02 -.52912058E+02 -.51120293E+02 0.15801974E+03 0.12500000E+03 0.0000E+00 0.9000E+01
       23  1    1    2    0    0 0.94783206E+02 0.41200923E+02 0.84865286E+02 0.16186025E+03 0.91188000E+02 0.0000E+00 0.9000E+01
       21  1    1    2  502  501 -.32075416E+02 0.11711136E+02 -.32926399E+01 0.34313073E+02 0.75000000E+00 0.0000E+00 0.9000E+01
#aMCatNLO 1  0  0  1  2 0.88476422D+02 0.00000000D+00  -5  6  0 0.00000000D+00 0.00000000D+00 0.00000000D+00 0.00000000D+00 0.00000000D+00
  <mgrwgt>
 0.1383814861D-01    7    4    0
 0.176440767001331D+03 0.000000000000000D+00 0.000000000000000D+00 0.176440767001331D+03
 0.176440767001331D+03 0.000000000000000D+00 0.000000000000000D+00 -.176440767001331D+03
 0.163017335312156D+03 -.627043320052050D+02 -.529133206621179D+02 -.649461227215671D+02
 0.155140251476437D+03 0.947864958585453D+02 0.411997212926963D+02 0.712134078136578D+02
 0.347239472140687D+02 -.320821638533403D+02 0.117135993694216D+02 -.626728509209069D+01
 0.000000000000000D+00 -.000000000000000D+00 -.000000000000000D+00 0.000000000000000D+00
 0.227198945106796D+03 0.000000000000000D+00 0.000000000000000D+00 0.227198945106796D+03
 0.225106362168820D+03 0.000000000000000D+00 0.000000000000000D+00 -.225106362168820D+03
 0.148195540989901D+03 -.279213167334127D+02 -.365967154891958D+02 -.649461227215671D+02
 0.185844958044367D+03 0.132897045432034D+03 0.590772625424903D+02 0.712134078136578D+02
 0.297636436903584D+02 -.248746444025940D+02 0.150946245115793D+02 -.626728509209069D+01
 0.885011645509890D+02 -.801010842960270D+02 -.375751715648737D+02 0.209258293797627D+01
 0.176440767001331D+03 0.000000000000000D+00 0.000000000000000D+00 0.176440767001331D+03
 0.176440767001331D+03 0.000000000000000D+00 0.000000000000000D+00 -.176440767001331D+03
 0.163017335312156D+03 -.627043320052050D+02 -.529133206621179D+02 -.649461227215671D+02
 0.155140251476437D+03 0.947864958585453D+02 0.411997212926963D+02 0.712134078136578D+02
 0.000000000000000D+00 -.000000000000000D+00 -.000000000000000D+00 0.000000000000000D+00
 0.347239472140687D+02 -.320821638533403D+02 0.117135993694216D+02 -.626728509209069D+01
 0.227198945106796D+03 0.000000000000000D+00 0.000000000000000D+00 0.227198945106796D+03
 0.225106362168820D+03 0.000000000000000D+00 0.000000000000000D+00 -.225106362168820D+03
 0.148195540989901D+03 -.279213167334127D+02 -.365967154891958D+02 -.649461227215671D+02
 0.185844958044367D+03 0.132897045432034D+03 0.590772625424903D+02 0.712134078136578D+02
 0.885011645509890D+02 -.801010842960270D+02 -.375751715648737D+02 0.209258293797627D+01
 0.297636436903584D+02 -.248746444025940D+02 0.150946245115793D+02 -.626728509209069D+01
0.147096080214D-03 0.000000000000D+00 0.000000000000D+00 0.755062435448D-05 0.000000000000D+00  6 4 -4 25 23 21 21 2 0.29588109D-01 0.24903131D-01 0.25841404D+05 0.25841404D+05 0.25841404D+05 0.12217593D+01  1  2  2  1  6  1        4 0.620744984959D-02 0.100000000000D+01
0.196284178988D-04 0.776247341479D-05 -.564887679308D-06 0.755062435448D-05 0.000000000000D+00  6 4 -4 25 23 21 21 4 0.29588109D-01 0.24903131D-01 0.25841404D+05 0.25841404D+05 0.25841404D+05 0.12217593D+01  1  2  3  1  6  1        4 0.123642777707D-02 0.100000000000D+01
0.470023982277D-05 0.000000000000D+00 0.000000000000D+00 0.755062435448D-05 0.000000000000D+00  6 4 -4 25 23 21 21 4 0.29588109D-01 0.24903131D-01 0.25841404D+05 0.25841404D+05 0.25841404D+05 0.12217593D+01  1  2 15  1  6  1        4 0.296076184323D-03 0.100000000000D+01
-.112285066074D-04 0.000000000000D+00 0.000000000000D+00 0.755062435448D-05 0.000000000000D+00  6 4 -4 25 23 21 21 4 0.29588109D-01 0.24903131D-01 0.25841404D+05 0.25841404D+05 0.25841404D+05 0.12217593D+01  1  2  4  1  6  1        4 -.707302928641D-03 0.100000000000D+01
-.176540394327D-03 0.000000000000D+00 -.118298711361D-03 0.755062435448D-05 0.000000000000D+00  6 4 -4 25 23 21 21 4 0.47727922D-01 0.24903131D-01 0.25841404D+05 0.25841404D+05 0.25841404D+05 0.12217593D+01  1  2  5  1  6  1        4 -.436031154318D-02 0.100000000000D+01
0.219836366041D-03 0.000000000000D+00 0.105954449729D-03 0.755062435448D-05 0.000000000000D+00  6 4 -4 25 23 21 21 4 0.29588109D-01 0.24903131D-01 0.25841404D+05 0.25841404D+05 0.25841404D+05 0.12217593D+01  1  2  6  1  6  1        4 0.138478705102D-01 0.100000000000D+01
-.454349037771D-05 0.000000000000D+00 -.644022569047D-05 0.755062435448D-05 0.000000000000D+00  6 21 -4 25 23 -4 21 4 0.47727922D-01 0.24903131D-01 0.25841404D+05 0.25841404D+05 0.25841404D+05 0.12217593D+01  3  4  5  4  5  1        4 -.268206124152D-02 0.100000000000D+01
  </mgrwgt>
  </event>
  <event>
  6     66 0.57005756E-03 0.40869631E+02 0.75467711E-02 0.12047948E+00
        2 -1    0    0  502    0 0.00000000E+00 0.00000000E+00 0.14976035E+04 0.14976035E+04 0.32000000E+00 0.0000E+00 0.9000E+01
       -2 -1    0    0    0  501 0.00000000E+00 0.00000000E+00 -.26826401E+02 0.26828309E+02 0.32000000E+00 0.0000E+00 0.9000E+01
       25  1    1    2    0    0 -.40936346E+01 -.80658931E+02 0.12117072E+04 0.12208120E+04 0.12500000E+03 0.0000E+00 0.9000E+01
       23  1    1    2    0    0 0.36010386E+01 0.35189598E+02 0.22362869E+03 0.24408261E+03 0.91188000E+02 0.0000E+00 0.9000E+01
       21  1    1    2  502  503 0.44040729E+01 0.12652510E+02 0.42182903E+01 0.14065502E+02 0.75000000E+00 0.0000E+00 0.9000E+01
       21  1    1    2  503  501 -.39114769E+01 0.32816823E+02 0.31222866E+02 0.45471677E+02 0.75000000E+00 0.0000E+00 0.9000E+01
#aMCatNLO 2  0  0  5  2 0.71333626D+01 0.00000000D+00  -5  6  0 0.00000000D+00 0.00000000D+00 0.00000000D+00 0.00000000D+00 0.00000000D+00
  <mgrwgt>
 0.1798639263D-01    3    2    0
 0.200441492862848D+03 0.000000000000000D+00 0.000000000000000D+00 0.200441492862848D+03
 0.200441492862848D+03 -.000000000000000D+00 -.000000000000000D+00 -.200441492862848D+03
 0.197236998781681D+03 -.409657014022709D+01 -.809298966221084D+02 0.129271047161482D+03
 0.107548416431136D+03 0.359943498327346D+01 0.350415721199441D+02 -.448390769754355D+02
 0.960975705128782D+02 0.497135156953640D+00 0.458883245021643D+02 -.844319701860461D+02
 0.000000000000000D+00 0.000000000000000D+00 0.000000000000000D+00 0.000000000000000D+00
 0.200441492862848D+03 0.000000000000000D+00 0.000000000000000D+00 0.200441492862848D+03
 0.200441492862848D+03 -.000000000000000D+00 -.000000000000000D+00 -.200441492862848D+03
 0.196813053813483D+03 -.409372676413859D+01 -.806674372832228D+02 0.128788136544974D+03
 0.107705467546477D+03 0.360098820663335D+01 0.351849432265060D+02 -.451028718541132D+02
 0.376595510272059D+02 0.435139989299413D+01 0.125560018715098D+02 -.352371099771904D+02
 0.587049133385293D+02 -.385866133548889D+01 0.329264921852070D+02 -.484481547136704D+02
-.338996911894D-04 0.000000000000D+00 0.000000000000D+00 0.471485911714D-05 0.000000000000D+00  6 2 -2 25 23 21 21 4 0.23040068D+00 0.41272880D-02 0.21472914D+05 0.21472914D+05 0.21472914D+05 0.12304429D+01  1  2 13  3  6  5       21 -.276832189759D-01 0.100000000000D+01
-.321759921445D-04 0.000000000000D+00 0.000000000000D+00 0.471485911714D-05 0.000000000000D+00  6 2 -2 25 23 21 21 4 0.23040068D+00 0.41272880D-02 0.21472914D+05 0.21472914D+05 0.21472914D+05 0.12304429D+01  1  2 13  3  6  5       21 -.262756091590D-01 0.100000000000D+01
0.881010538751D-04 0.000000000000D+00 0.000000000000D+00 0.471599702719D-05 0.710929935697D-06  6 2 -2 25 23 21 21 4 0.23040068D+00 0.41272880D-02 0.21472914D+05 0.21472914D+05 0.21472914D+05 0.12304429D+01  1  2  1  3  6  5       21 0.719452207634D-01 0.100000000000D+01
  </mgrwgt>
  </event>
  <event>
  5     66 -.57005756E-03 0.20409034E+02 0.75467711E-02 0.12079508E+00
        2 -1    0    0  502    0 0.00000000E+00 0.00000000E+00 0.26801681E+03 0.26801700E+03 0.32000000E+00 0.0000E+00 0.9000E+01
       -2 -1    0    0    0  501 0.00000000E+00 0.00000000E+00 -.97895916E+02 0.97896439E+02 0.32000000E+00 0.0000E+00 0.9000E+01
       25  1    1    2    0    0 0.55334420E+02 -.69862705E+02 0.63450770E+01 0.15364881E+03 0.12500000E+03 0.0000E+00 0.9000E+01
       23  1    1    2    0    0 -.43771275E+02 0.53055129E+02 0.13274549E+03 0.17512106E+03 0.91188000E+02 0.0000E+00 0.9000E+01
       21  1    1    2  502  501 -.11563146E+02 0.16807577E+02 0.31030329E+02 0.37143570E+02 0.75000000E+00 0.0000E+00 0.9000E+01
#aMCatNLO 1  0  0  5  5 0.68186533D+00 0.00000000D+00  -5  6  0 0.00000000D+00 0.00000000D+00 0.00000000D+00 0.00000000D+00 0.00000000D+00
  <mgrwgt>
 -.2717507289D+01   12    2    0
 0.161981115678420D+03 0.000000000000000D+00 0.000000000000000D+00 0.161981115678420D+03
 0.161981115678420D+03 -.000000000000000D+00 -.000000000000000D+00 -.161981115678420D+03
 0.170217364390688D+03 0.553370176110585D+02 -.698664805216575D+02 -.735217010245433D+02
 0.128087113998952D+03 -.437693205689176D+02 0.530522882217177D+02 0.579720511967234D+02
 0.256577529672014D+02 -.115676970421410D+02 0.168141922999399D+02 0.155496498278199D+02
 0.000000000000000D+00 0.000000000000000D+00 0.000000000000000D+00 -.000000000000000D+00
 0.161981115678420D+03 0.000000000000000D+00 0.000000000000000D+00 0.161981115678420D+03
 0.161981115678420D+03 -.000000000000000D+00 -.000000000000000D+00 -.161981115678420D+03
 0.169848934849760D+03 0.550914629834187D+02 -.695095553087793D+02 -.731916190333319D+02
 0.128374886396360D+03 -.439545063140252D+02 0.533214644214491D+02 0.582209835018346D+02
 0.249986185436989D+02 -.114748544646377D+02 0.158638834416586D+02 0.155433537648160D+02
 0.739791567021086D+00 0.337897795244252D+00 0.324207445671609D+00 -.572718233318687D+00
0.224488085487D-03 0.000000000000D+00 0.000000000000D+00 0.224039879735D-04 0.000000000000D+00  6 2 -2 25 23 21 21 2 0.41233410D-01 0.15060965D-01 0.20757108D+05 0.20757108D+05 0.20757108D+05 0.12320535D+01  1  2  2  3  6  5       21 0.138232123220D+00 0.100000000000D+01
0.497593933789D-04 0.118465617371D-04 -.862093357342D-06 0.224039879735D-04 0.000000000000D+00  6 2 -2 25 23 21 21 4 0.41233410D-01 0.15060965D-01 0.20757108D+05 0.20757108D+05 0.20757108D+05 0.12320535D+01  1  2  3  3  6  5       21 0.465103780766D-01 0.100000000000D+01
0.818163271214D-05 0.000000000000D+00 0.000000000000D+00 0.224039879735D-04 0.000000000000D+00  6 2 -2 25 23 21 21 4 0.41233410D-01 0.15060965D-01 0.20757108D+05 0.20757108D+05 0.20757108D+05 0.12320535D+01  1  2 15  3  6  5       21 0.764741699778D-02 0.100000000000D+01
-.311317013397D-02 0.000000000000D+00 0.000000000000D+00 0.224039879735D-04 0.000000000000D+00  6 2 -2 25 23 21 21 4 0.41233410D-01 0.15060965D-01 0.20757108D+05 0.20757108D+05 0.20757108D+05 0.12320535D+01  1  2  4  3  6  5       21 -.290989720966D+01 0.100000000000D+01
0.319893708840D-12 0.000000000000D+00 0.000000000000D+00 0.224089919364D-04 0.000000000000D+00  6 2 -2 25 23 1 -1 4 0.41233410D-01 0.15060965D-01 0.20697208D+05 0.20697208D+05 0.20697208D+05 0.12321910D+01  1  2 12  6  6  5       21 0.299117467481D-09 0.100000000000D+01
0.319893708840D-12 0.000000000000D+00 0.000000000000D+00 0.224089919364D-04 0.000000000000D+00  6 2 -2 25 23 3 -3 4 0.41233410D-01 0.15060965D-01 0.20697208D+05 0.20697208D+05 0.20697208D+05 0.12321910D+01  1  2 12  6  6  5       21 0.299117467481D-09 0.100000000000D+01
0.327739969824D-12 0.000000000000D+00 0.000000000000D+00 0.224089919364D-04 0.000000000000D+00  6 2 -2 25 23 1 -1 4 0.41233410D-01 0.15060965D-01 0.20697208D+05 0.20697208D+05 0.20697208D+05 0.12321910D+01  1  2 12  6  6  5       21 0.306454134786D-09 0.100000000000D+01
0.327739969824D-12 0.000000000000D+00 0.000000000000D+00 0.224089919364D-04 0.000000000000D+00  6 2 -2 25 23 3 -3 4 0.41233410D-01 0.15060965D-01 0.20697208D+05 0.20697208D+05 0.20697208D+05 0.12321910D+01  1  2 12  6  6  5       21 0.306454134786D-09 0.100000000000D+01
0.319893708840D-12 0.000000000000D+00 0.000000000000D+00 0.224089919364D-04 0.000000000000D+00  6 2 -2 25 23 2 -2 4 0.41233410D-01 0.15060965D-01 0.20697208D+05 0.20697208D+05 0.20697208D+05 0.12321910D+01  1  2 12  7  6  5       21 0.299117467481D-09 0.100000000000D+01
0.327739969824D-12 0.000000000000D+00 0.000000000000D+00 0.224089919364D-04 0.000000000000D+00  6 2 -2 25 23 2 -2 4 0.41233410D-01 0.15060965D-01 0.20697208D+05 0.20697208D+05 0.20697208D+05 0.12321910D+01  1  2 12  7  6  5       21 0.306454134786D-09 0.100000000000D+01
0.319893708840D-12 0.000000000000D+00 0.000000000000D+00 0.224089919364D-04 0.000000000000D+00  6 2 -2 25 23 4 -4 4 0.41233410D-01 0.15060965D-01 0.20697208D+05 0.20697208D+05 0.20697208D+05 0.12321910D+01  1  2 12  8  6  5       21 0.299117467481D-09 0.100000000000D+01
0.327739969824D-12 0.000000000000D+00 0.000000000000D+00 0.224089919364D-04 0.000000000000D+00  6 2 -2 25 23 4 -4 4 0.41233410D-01 0.15060965D-01 0.20697208D+05 0.20697208D+05 0.20697208D+05 0.12321910D+01  1  2 12  8  6  5       21 0.306454134786D-09 0.100000000000D+01
  </mgrwgt>
  </event>
  <event>
  5     66 0.57005756E-03 0.30843876E+02 0.75467711E-02 0.11778847E+00
        2 -1    0    0  502    0 0.00000000E+00 0.00000000E+00 0.10775876E+04 0.10775877E+04 0.32000000E+00 0.0000E+00 0.9000E+01
       -2 -1    0    0    0  501 0.00000000E+00 0.00000000E+00 -.35613789E+02 0.35615226E+02 0.32000000E+00 0.0000E+00 0.9000E+01
       25  1    1    2    0    0 0.93121213E+02 -.34738618E+02 0.24826454E+03 0.29519250E+03 0.12500000E+03 0.0000E+00 0.9000E+01
       23  1    1    2    0    0 -.10712986E+03 0.72610391E+01 0.41928928E+03 0.44232147E+03 0.91188000E+02 0.0000E+00 0.9000E+01
       21  1    1    2  502  501 0.14008647E+02 0.27477579E+02 0.37442004E+03 0.37568895E+03 0.75000000E+00 0.0000E+00 0.9000E+01
#aMCatNLO 1  0  0  2  5 0.76035563D+01 0.00000000D+00  -5  6  0 0.00000000D+00 0.00000000D+00 0.00000000D+00 0.00000000D+00 0.00000000D+00
  <mgrwgt>
 0.3911684334D-01   11    4    0
 0.195902541160511D+03 0.000000000000000D+00 0.000000000000000D+00 0.195902541160511D+03
 0.195902541160511D+03 0.000000000000000D+00 0.000000000000000D+00 -.195902541160511D+03
 0.178466953123640D+03 0.931208631635782D+02 -.347393037388385D+02 -.796689335729195D+02
 0.141665083600771D+03 -.107130136389011D+03 0.726049514484103D+01 0.149720958832502D+02
 0.716730455966103D+02 0.140092732254325D+02 0.274788085939975D+02 0.646968376896692D+02
 0.000000000000000D+00 -.000000000000000D+00 -.000000000000000D+00 -.000000000000000D+00
 0.196600652234653D+03 0.000000000000000D+00 0.000000000000000D+00 0.196600652234653D+03
 0.217798124813807D+03 0.000000000000000D+00 0.000000000000000D+00 -.217798124813807D+03
 0.179191620034208D+03 0.954181155872274D+02 -.321384649854390D+02 -.796689335729195D+02
 0.140421031675341D+03 -.105318288272875D+03 0.931178247713778D+01 0.149720958832502D+02
 0.722662027858594D+02 0.149337996090317D+02 0.285255129188036D+02 0.646968376896692D+02
 0.225199225530519D+02 -.503362692338429D+01 -.569883041050239D+01 -.211974725791536D+02
 0.195902541160511D+03 0.000000000000000D+00 0.000000000000000D+00 0.195902541160511D+03
 0.195902541160511D+03 0.000000000000000D+00 0.000000000000000D+00 -.195902541160511D+03
 0.178466953123640D+03 0.931208631635782D+02 -.347393037388385D+02 -.796689335729195D+02
 0.141665083600771D+03 -.107130136389011D+03 0.726049514484103D+01 0.149720958832502D+02
 0.000000000000000D+00 -.000000000000000D+00 -.000000000000000D+00 -.000000000000000D+00
 0.716730455966103D+02 0.140092732254325D+02 0.274788085939975D+02 0.646968376896692D+02
 0.196600652234653D+03 0.000000000000000D+00 0.000000000000000D+00 0.196600652234653D+03
 0.217798124813807D+03 0.000000000000000D+00 0.000000000000000D+00 -.217798124813807D+03
 0.179191620034208D+03 0.954181155872274D+02 -.321384649854390D+02 -.796689335729195D+02
 0.140421031675341D+03 -.105318288272875D+03 0.931178247713778D+01 0.149720958832502D+02
 0.225199225530519D+02 -.503362692338429D+01 -.569883041050239D+01 -.211974725791536D+02
 0.722662027858594D+02 0.149337996090317D+02 0.285255129188036D+02 0.646968376896692D+02
0.213218349914D-04 0.000000000000D+00 0.000000000000D+00 0.111703532815D-04 0.000000000000D+00  6 2 -2 25 23 21 21 2 0.16578283D+00 0.54791587D-02 0.27458666D+05 0.27458666D+05 0.27458666D+05 0.12189538D+01  1  2  2  2  6  2       -2 0.125428085866D-01 0.100000000000D+01
0.241363712086D-05 0.112518414518D-05 -.818814605350D-07 0.111703532815D-04 0.000000000000D+00  6 2 -2 25 23 21 21 4 0.16578283D+00 0.54791587D-02 0.27458666D+05 0.27458666D+05 0.27458666D+05 0.12189538D+01  1  2  3  2  6  2       -2 0.210968056913D-02 0.100000000000D+01
0.338928339468D-06 0.000000000000D+00 0.000000000000D+00 0.111703532815D-04 0.000000000000D+00  6 2 -2 25 23 21 21 4 0.16578283D+00 0.54791587D-02 0.27458666D+05 0.27458666D+05 0.27458666D+05 0.12189538D+01  1  2 15  2  6  2       -2 0.296246078553D-03 0.100000000000D+01
0.676614430504D-03 0.000000000000D+00 0.000000000000D+00 0.111276905984D-04 0.000000000000D+00  6 2 -2 25 23 21 21 4 0.16578283D+00 0.61197997D-02 0.28887984D+05 0.28887984D+05 0.28887984D+05 0.12166238D+01  1  2 12  2  6  2       -2 0.496336209528D+00 0.100000000000D+01
-.636764964853D-03 0.000000000000D+00 0.000000000000D+00 0.111703532815D-04 0.000000000000D+00  6 2 -2 25 23 21 21 4 0.16578283D+00 0.54791587D-02 0.27458666D+05 0.27458666D+05 0.27458666D+05 0.12189538D+01  1  2  4  2  6  2       -2 -.556575245650D+00 0.100000000000D+01
-.852144030759D-03 0.000000000000D+00 -.452822218547D-04 0.111703532815D-04 0.000000000000D+00  6 2 -2 25 23 21 21 4 0.16578283D+00 0.61100517D-02 0.27458666D+05 0.27458666D+05 0.27458666D+05 0.12189538D+01  1  2  5  2  6  2       -2 -.631090261594D+00 0.100000000000D+01
0.852280182145D-03 0.000000000000D+00 0.450146278644D-04 0.111703532815D-04 0.000000000000D+00  6 2 -2 25 23 21 21 4 0.16578283D+00 0.54791587D-02 0.27458666D+05 0.27458666D+05 0.27458666D+05 0.12189538D+01  1  2  6  2  6  2       -2 0.744949986138D+00 0.100000000000D+01
0.735348608101D-05 0.000000000000D+00 0.000000000000D+00 0.111703532815D-04 0.681325337603D-06  6 2 -2 25 23 21 21 4 0.16637361D+00 0.60915518D-02 0.28887984D+05 0.28887984D+05 0.28887984D+05 0.12166238D+01  1  2 11  2  6  2       -2 0.540451341846D-02 0.100000000000D+01
0.119796467969D-04 0.000000000000D+00 0.000000000000D+00 0.111276905984D-04 0.000000000000D+00  6 2 21 25 23 2 21 4 0.16578283D+00 0.61197997D-02 0.28887984D+05 0.28887984D+05 0.28887984D+05 0.12166238D+01  3  4 12  5  5  2       -2 0.150495307761D+00 0.100000000000D+01
-.147265559955D-04 0.000000000000D+00 -.791871813445D-06 0.111703532815D-04 0.000000000000D+00  6 2 21 25 23 2 21 4 0.16578283D+00 0.61100517D-02 0.27458666D+05 0.27458666D+05 0.27458666D+05 0.12189538D+01  3  4  5  5  5  2       -2 -.187011072683D+00 0.100000000000D+01
0.131669896562D-06 0.000000000000D+00 0.000000000000D+00 0.111703532815D-04 0.242655317054D-07  6 2 21 25 23 2 21 4 0.16637361D+00 0.60915518D-02 0.28887984D+05 0.28887984D+05 0.28887984D+05 0.12166238D+01  3  4 11  5  5  2       -2 0.165867118726D-02 0.100000000000D+01
  </mgrwgt>
  </event>
</LesHouchesEvents>
