<event>
 5    0  0.1911311E+001  0.2591554E+03  0.7546771E-02  0.1107652E+00
         21   -1    0    0  503  501  0.00000000000E+00  0.00000000000E+00  0.78762987338E+02  0.78762987338E+02  0.00000000000E+00 0. -1.
         21   -1    0    0  504  502 -0.00000000000E+00 -0.00000000000E+00 -0.88329793090E+03  0.88329793090E+03  0.00000000000E+00 0. -1.
         25    1    1    2    0    0 -0.21866031176E+02 -0.22596103528E+03 -0.27963544514E+03  0.38125778020E+03  0.12500000000E+03 0.  0.
         21    1    1    2  503  502  0.43432956185E+02  0.97276690277E+02 -0.32565091489E+03  0.34263346965E+03  0.00000000000E+00 0. -1.
         21    1    1    2  504  501 -0.21566925009E+02  0.12868434500E+03 -0.19924858353E+03  0.23816966839E+03  0.00000000000E+00 0. -1.
<mgrwt>
<rscale>  4 0.25915538E+03</rscale>
<asrwt>0</asrwt>
<pdfrwt beam="1">  1       21 0.12117383E-01 0.25915538E+03</pdfrwt>
<pdfrwt beam="2">  1       21 0.13589199E+00 0.25915538E+03</pdfrwt>
<totfact> 0.21440196E+04</totfact>
</mgrwt>
</event>
<event>
 5    0  0.1911311E+001  0.3137062E+03  0.7546771E-02  0.1078583E+00
         21   -1    0    0  504  501  0.00000000000E+00  0.00000000000E+00  0.48623503497E+03  0.48623503497E+03  0.00000000000E+00 0.  1.
         21   -1    0    0  503  502 -0.00000000000E+00 -0.00000000000E+00 -0.46639870656E+03  0.46639870656E+03  0.00000000000E+00 0.  1.
         25    1    1    2    0    0 -0.30411072500E+03  0.13312750867E+02  0.31739429586E+03  0.45719219311E+03  0.12500000000E+03 0.  0.
         21    1    1    2  503  501  0.28468688797E+03  0.24754636442E+02 -0.33379713078E+03  0.43940862614E+03  0.00000000000E+00 0.  1.
         21    1    1    2  504  502  0.19423837028E+02 -0.38067387309E+02  0.36239163327E+02  0.56032922287E+02  0.00000000000E+00 0. -1.
<mgrwt>
<rscale>  4 0.31370615E+03</rscale>
<asrwt>0</asrwt>
<pdfrwt beam="1">  1       21 0.74805390E-01 0.31370615E+03</pdfrwt>
<pdfrwt beam="2">  1       21 0.71753647E-01 0.31370615E+03</pdfrwt>
<totfact> 0.25825743E+03</totfact>
</mgrwt>
</event>
<event>
 5    0  0.1911311E+001  0.3238302E+03  0.7546771E-02  0.1073900E+00
         21   -1    0    0  504  501  0.00000000000E+00  0.00000000000E+00  0.25594528426E+03  0.25594528426E+03  0.00000000000E+00 0. -1.
         21   -1    0    0  503  502 -0.00000000000E+00 -0.00000000000E+00 -0.57977059835E+03  0.57977059835E+03  0.00000000000E+00 0. -1.
         25    1    1    2    0    0 -0.19362255835E+03 -0.22822355098E+03 -0.31747148846E+03  0.45385992367E+03  0.12500000000E+03 0.  0.
         21    1    1    2  503  501  0.33916031228E+02 -0.24870278577E+02 -0.64489167879E+02  0.76991432669E+02  0.00000000000E+00 0. -1.
         21    1    1    2  504  502  0.15970652712E+03  0.25309382955E+03  0.58135342255E+02  0.30486452628E+03  0.00000000000E+00 0. -1.
<mgrwt>
<rscale>  4 0.32383025E+03</rscale>
<asrwt>0</asrwt>
<pdfrwt beam="1">  1       21 0.39376198E-01 0.32383025E+03</pdfrwt>
<pdfrwt beam="2">  1       21 0.89195477E-01 0.32383025E+03</pdfrwt>
<totfact> 0.61720311E+03</totfact>
</mgrwt>
</event>
