<event>
 5    0  0.1943430E+001  0.2344343E+03  0.7546771E-02  0.1123557E+00
         21   -1    0    0  503  501  0.00000000000E+00  0.00000000000E+00  0.50002591369E+03  0.50002591369E+03  0.00000000000E+00 0.  1.
         21   -1    0    0  504  502 -0.00000000000E+00 -0.00000000000E+00 -0.21167571928E+03  0.21167571928E+03  0.00000000000E+00 0.  1.
         25    1    1    2    0    0 -0.37664395873E+02  0.25744405363E+03  0.28402064131E+03  0.40495527179E+03  0.12500000000E+03 0.  0.
         21    1    1    2  503  502  0.42042558027E+02 -0.14624106942E+03  0.80248172674E+02  0.17202847522E+03  0.00000000000E+00 0.  1.
         21    1    1    2  504  501 -0.43781621546E+01 -0.11120298421E+03 -0.75918619568E+02  0.13471788596E+03  0.00000000000E+00 0.  1.
<mgrwt>
<rscale>  4 0.23443434E+03</rscale>
<asrwt>0</asrwt>
<pdfrwt beam="1">  1       21 0.76927063E-01 0.23443434E+03</pdfrwt>
<pdfrwt beam="2">  1       21 0.32565496E-01 0.23443434E+03</pdfrwt>
<totfact> 0.13283982E+04</totfact>
</mgrwt>
</event>
<event>
 5    0  0.1943430E+001  0.3829260E+03  0.7546771E-02  0.1057835E+00
         21   -1    0    0  504  501  0.00000000000E+00  0.00000000000E+00  0.20090115149E+03  0.20090115149E+03  0.00000000000E+00 0. -1.
         21   -1    0    0  503  502 -0.00000000000E+00 -0.00000000000E+00 -0.25543354941E+04  0.25543354941E+04  0.00000000000E+00 0.  1.
         25    1    1    2    0    0 -0.18919679556E+03  0.20469954124E+03 -0.14885273716E+03  0.33982269935E+03  0.12500000000E+03 0.  0.
         21    1    1    2  503  501 -0.95042479113E+02 -0.45660004704E+03 -0.56602640147E+03  0.73341840920E+03  0.00000000000E+00 0. -1.
         21    1    1    2  504  502  0.28423927467E+03  0.25190050580E+03 -0.16385552040E+04  0.16819955370E+04  0.00000000000E+00 0.  1.
<mgrwt>
<rscale>  4 0.36189644E+03</rscale>
<asrwt>0</asrwt>
<pdfrwt beam="1">  1       21 0.30907872E-01 0.38292597E+03</pdfrwt>
<pdfrwt beam="2">  1       21 0.39297466E+00 0.38292597E+03</pdfrwt>
<totfact> 0.76484635E+01</totfact>
</mgrwt>
</event>
<event>
 5    0  0.1943430E+001  0.3590972E+03  0.7546771E-02  0.1058942E+00
         21   -1    0    0  503  501  0.00000000000E+00  0.00000000000E+00  0.18746914104E+03  0.18746914104E+03  0.00000000000E+00 0.  1.
         21   -1    0    0  504  502 -0.00000000000E+00 -0.00000000000E+00 -0.10504697967E+04  0.10504697967E+04  0.00000000000E+00 0.  1.
         25    1    1    2    0    0 -0.21354024699E+03 -0.29233738267E+03 -0.14465999204E+03  0.40940456237E+03  0.12500000000E+03 0.  0.
         21    1    1    2  503  502 -0.54942653292E+01  0.89584644946E+02 -0.31006257450E+03  0.32279156691E+03  0.00000000000E+00 0.  1.
         21    1    1    2  504  501  0.21903451232E+03  0.20275273773E+03 -0.40827808908E+03  0.50574280842E+03  0.00000000000E+00 0.  1.
<mgrwt>
<rscale>  4 0.35909724E+03</rscale>
<asrwt>0</asrwt>
<pdfrwt beam="1">  1       21 0.28841406E-01 0.35909724E+03</pdfrwt>
<pdfrwt beam="2">  1       21 0.16161074E+00 0.35909724E+03</pdfrwt>
<totfact> 0.25148177E+03</totfact>
</mgrwt>
</event>
<event>
 5    0  0.1943430E+001  0.2805429E+03  0.7546771E-02  0.1095393E+00
         21   -1    0    0  504  501  0.00000000000E+00  0.00000000000E+00  0.97099760037E+03  0.97099760037E+03  0.00000000000E+00 0.  1.
         21   -1    0    0  501  502 -0.00000000000E+00 -0.00000000000E+00 -0.55199324525E+03  0.55199324525E+03  0.00000000000E+00 0. -1.
         25    1    1    2    0    0  0.36426480968E+03  0.80184584601E+02  0.15008841354E+03  0.42103438227E+03  0.12500000000E+03 0.  0.
         21    1    1    2  503  502 -0.13109539966E+03 -0.67671192122E+02 -0.38249395510E+03  0.40995977820E+03  0.00000000000E+00 0. -1.
         21    1    1    2  504  503 -0.23316941002E+03 -0.12513392479E+02  0.65140989667E+03  0.69199668514E+03  0.00000000000E+00 0.  1.
<mgrwt>
<rscale>  4 0.28054294E+03</rscale>
<asrwt>0</asrwt>
<pdfrwt beam="1">  1       21 0.14938425E+00 0.28054294E+03</pdfrwt>
<pdfrwt beam="2">  1       21 0.84922038E-01 0.28054294E+03</pdfrwt>
<totfact> 0.33242859E+02</totfact>
</mgrwt>
</event>
<event>
 5    0  0.1943430E+001  0.5560671E+03  0.7546771E-02  0.1000099E+00
         21   -1    0    0  504  501  0.00000000000E+00  0.00000000000E+00  0.64773333916E+03  0.64773333916E+03  0.00000000000E+00 0.  1.
         21   -1    0    0  503  502 -0.00000000000E+00 -0.00000000000E+00 -0.20870524409E+04  0.20870524409E+04  0.00000000000E+00 0. -1.
         25    1    1    2    0    0 -0.25549230957E+03 -0.47888805058E+03  0.32340759564E+03  0.64407108160E+03  0.12500000000E+03 0.  0.
         21    1    1    2  503  501  0.28447918126E+03  0.45904257997E+03 -0.28138190348E+03  0.60895342220E+03  0.00000000000E+00 0. -1.
         21    1    1    2  504  502 -0.28986871682E+02  0.19845470603E+02 -0.14813447939E+04  0.14817612762E+04  0.00000000000E+00 0. -1.
<mgrwt>
<rscale>  4 0.55606711E+03</rscale>
<asrwt>0</asrwt>
<pdfrwt beam="1">  1       21 0.99651284E-01 0.55606711E+03</pdfrwt>
<pdfrwt beam="2">  1       21 0.32108499E+00 0.55606711E+03</pdfrwt>
<totfact> 0.14686854E+01</totfact>
</mgrwt>
</event>
<event>
 5    0  0.1943430E+001  0.3004053E+03  0.7546771E-02  0.1085038E+00
         21   -1    0    0  504  501  0.00000000000E+00  0.00000000000E+00  0.99234142660E+03  0.99234142660E+03  0.00000000000E+00 0.  1.
         21   -1    0    0  503  502 -0.00000000000E+00 -0.00000000000E+00 -0.32249302376E+03  0.32249302376E+03  0.00000000000E+00 0. -1.
         25    1    1    2    0    0 -0.17546724393E+03 -0.20648696251E+03  0.87318846774E+03  0.92277230104E+03  0.12500000000E+03 0.  0.
         21    1    1    2  503  501  0.20368884140E+03  0.21815092055E+03 -0.20400078446E+03  0.36151803317E+03  0.00000000000E+00 0. -1.
         21    1    1    2  504  502 -0.28221597470E+02 -0.11663958040E+02  0.66071956268E+00  0.30544116147E+02  0.00000000000E+00 0.  1.
<mgrwt>
<rscale>  4 0.30040529E+03</rscale>
<asrwt>0</asrwt>
<pdfrwt beam="1">  1       21 0.15266791E+00 0.30040529E+03</pdfrwt>
<pdfrwt beam="2">  1       21 0.49614312E-01 0.30040529E+03</pdfrwt>
<totfact> 0.10091730E+03</totfact>
</mgrwt>
</event>
<event>
 5    0  0.1943430E+001  0.2477502E+03  0.7546771E-02  0.1114735E+00
         21   -1    0    0  503  501  0.00000000000E+00  0.00000000000E+00  0.18177304927E+03  0.18177304927E+03  0.00000000000E+00 0. -1.
         21   -1    0    0  504  502 -0.00000000000E+00 -0.00000000000E+00 -0.31645717013E+04  0.31645717013E+04  0.00000000000E+00 0. -1.
         25    1    1    2    0    0  0.20030029792E+03  0.76532125867E+02  0.84531961979E+02  0.26219845200E+03  0.12500000000E+03 0.  0.
         21    1    1    2  503  502 -0.20133143569E+03 -0.50916620143E+02 -0.12882657976E+04  0.13048967831E+04  0.00000000000E+00 0. -1.
         21    1    1    2  504  501  0.10311377725E+01 -0.25615505724E+02 -0.17790648164E+04  0.17792495155E+04  0.00000000000E+00 0. -1.
<mgrwt>
<rscale>  4 0.24775020E+03</rscale>
<asrwt>0</asrwt>
<pdfrwt beam="1">  1       21 0.27965085E-01 0.24775020E+03</pdfrwt>
<pdfrwt beam="2">  1       21 0.48685718E+00 0.24775020E+03</pdfrwt>
<totfact> 0.25905218E+01</totfact>
</mgrwt>
</event>
<event>
 5    0  0.1943430E+001  0.2392340E+03  0.7546771E-02  0.1120304E+00
         21   -1    0    0  504  501  0.00000000000E+00  0.00000000000E+00  0.47122214002E+03  0.47122214002E+03  0.00000000000E+00 0. -1.
         21   -1    0    0  503  502 -0.00000000000E+00 -0.00000000000E+00 -0.16903998406E+03  0.16903998406E+03  0.00000000000E+00 0. -1.
         25    1    1    2    0    0 -0.20017178686E+03  0.18535863061E+02  0.32690962743E+03  0.40361767427E+03  0.12500000000E+03 0.  0.
         21    1    1    2  503  501  0.21089122006E+03 -0.35615498754E+02 -0.29554863015E+02  0.21590984317E+03  0.00000000000E+00 0. -1.
         21    1    1    2  504  502 -0.10719433200E+02  0.17079635693E+02  0.48273915398E+01  0.20734606642E+02  0.00000000000E+00 0.  1.
<mgrwt>
<rscale>  4 0.23923400E+03</rscale>
<asrwt>0</asrwt>
<pdfrwt beam="1">  1       21 0.72495713E-01 0.23923400E+03</pdfrwt>
<pdfrwt beam="2">  1       21 0.26006152E-01 0.23923400E+03</pdfrwt>
<totfact> 0.23480531E+04</totfact>
</mgrwt>
</event>
<event>
 5    0  0.1943430E+001  0.3719019E+03  0.7546771E-02  0.1053968E+00
         21   -1    0    0  504  501  0.00000000000E+00  0.00000000000E+00  0.16314597143E+04  0.16314597143E+04  0.00000000000E+00 0.  1.
         21   -1    0    0  501  502 -0.00000000000E+00 -0.00000000000E+00 -0.93047743535E+03  0.93047743535E+03  0.00000000000E+00 0.  1.
         25    1    1    2    0    0  0.31136489259E+03  0.14460518852E+03  0.13798574702E+04  0.14274068779E+04  0.12500000000E+03 0.  0.
         21    1    1    2  503  502  0.21661679845E+03  0.98747226010E+02  0.34906578285E+01  0.23808829603E+03  0.00000000000E+00 0.  1.
         21    1    1    2  504  503 -0.52798169104E+03 -0.24335241453E+03 -0.68236584914E+03  0.89644197571E+03  0.00000000000E+00 0.  1.
<mgrwt>
<rscale>  4 0.37190190E+03</rscale>
<asrwt>0</asrwt>
<pdfrwt beam="1">  1       21 0.25099380E+00 0.37190190E+03</pdfrwt>
<pdfrwt beam="2">  1       21 0.14315037E+00 0.37190190E+03</pdfrwt>
<totfact> 0.17722524E+01</totfact>
</mgrwt>
</event>
<event>
 5    0  0.1943430E+001  0.2391513E+03  0.7546771E-02  0.1120359E+00
         21   -1    0    0  503  501  0.00000000000E+00  0.00000000000E+00  0.44202355189E+03  0.44202355189E+03  0.00000000000E+00 0.  1.
         21   -1    0    0  504  502 -0.00000000000E+00 -0.00000000000E+00 -0.10785733727E+04  0.10785733727E+04  0.00000000000E+00 0.  1.
         25    1    1    2    0    0  0.19952940179E+03  0.17532863463E+02  0.25539074892E+03  0.34780571892E+03  0.12500000000E+03 0.  0.
         21    1    1    2  503  502  0.11211468651E+02 -0.21744161058E+02 -0.95302238791E+03  0.95333634014E+03  0.00000000000E+00 0.  1.
         21    1    1    2  504  501 -0.21074087044E+03  0.42112975948E+01  0.61081818162E+02  0.21945486554E+03  0.00000000000E+00 0.  1.
<mgrwt>
<rscale>  4 0.23915133E+03</rscale>
<asrwt>0</asrwt>
<pdfrwt beam="1">  1       21 0.68003624E-01 0.23915133E+03</pdfrwt>
<pdfrwt beam="2">  1       21 0.16593436E+00 0.23915133E+03</pdfrwt>
<totfact> 0.42825458E+02</totfact>
</mgrwt>
</event>
<event>
 5    0  0.1943430E+001  0.2717575E+03  0.7546771E-02  0.1100278E+00
         21   -1    0    0  504  501  0.00000000000E+00  0.00000000000E+00  0.21898207570E+04  0.21898207570E+04  0.00000000000E+00 0.  1.
         21   -1    0    0  503  502 -0.00000000000E+00 -0.00000000000E+00 -0.28243554789E+03  0.28243554789E+03  0.00000000000E+00 0.  1.
         25    1    1    2    0    0  0.19371370448E+03  0.14536136429E+03  0.20754741647E+04  0.20932923670E+04  0.12500000000E+03 0.  0.
         21    1    1    2  503  501 -0.14533895731E+03 -0.16476054009E+03 -0.21605031659E+03  0.30813501485E+03  0.00000000000E+00 0.  1.
         21    1    1    2  504  502 -0.48374747175E+02  0.19399175798E+02  0.47961361016E+02  0.70828923022E+02  0.00000000000E+00 0. -1.
<mgrwt>
<rscale>  4 0.27175750E+03</rscale>
<asrwt>0</asrwt>
<pdfrwt beam="1">  1       21 0.33689549E+00 0.27175750E+03</pdfrwt>
<pdfrwt beam="2">  1       21 0.43451624E-01 0.27175750E+03</pdfrwt>
<totfact> 0.94848442E+01</totfact>
</mgrwt>
</event>
<event>
 5    0  0.1943430E+001  0.2750317E+03  0.7546771E-02  0.1098434E+00
         21   -1    0    0  504  501  0.00000000000E+00  0.00000000000E+00  0.29379014081E+03  0.29379014081E+03  0.00000000000E+00 0.  1.
         21   -1    0    0  501  502 -0.00000000000E+00 -0.00000000000E+00 -0.17978737267E+04  0.17978737267E+04  0.00000000000E+00 0.  1.
         25    1    1    2    0    0  0.17860309468E+03 -0.16830390639E+03  0.18022370573E+03  0.32913652858E+03  0.12500000000E+03 0.  0.
         21    1    1    2  503  502 -0.23580164921E+02 -0.20746520324E+02 -0.13393490955E+04  0.13397172992E+04  0.00000000000E+00 0.  1.
         21    1    1    2  504  503 -0.15502292976E+03  0.18905042671E+03 -0.34495819617E+03  0.42281003973E+03  0.00000000000E+00 0.  1.
<mgrwt>
<rscale>  4 0.27503173E+03</rscale>
<asrwt>0</asrwt>
<pdfrwt beam="1">  1       21 0.45198484E-01 0.27503173E+03</pdfrwt>
<pdfrwt beam="2">  1       21 0.27659596E+00 0.27503173E+03</pdfrwt>
<totfact> 0.19726560E+02</totfact>
</mgrwt>
</event>
<event>
 5    0  0.1943430E+001  0.3032522E+03  0.7546771E-02  0.1083626E+00
         21   -1    0    0  504  501  0.00000000000E+00  0.00000000000E+00  0.11383974591E+03  0.11383974591E+03  0.00000000000E+00 0. -1.
         21   -1    0    0  501  502 -0.00000000000E+00 -0.00000000000E+00 -0.17994314982E+04  0.17994314982E+04  0.00000000000E+00 0. -1.
         25    1    1    2    0    0  0.23415777250E+03 -0.14013845515E+03 -0.13898424949E+03  0.33077223378E+03  0.12500000000E+03 0.  0.
         21    1    1    2  503  502 -0.26835052876E+03  0.12694042318E+03 -0.13219878182E+04  0.13549087308E+04  0.00000000000E+00 0. -1.
         21    1    1    2  504  503  0.34192756261E+02  0.13198031970E+02 -0.22461968457E+03  0.22759027950E+03  0.00000000000E+00 0.  1.
<mgrwt>
<rscale>  4 0.30325221E+03</rscale>
<asrwt>0</asrwt>
<pdfrwt beam="1">  1       21 0.17513809E-01 0.30325221E+03</pdfrwt>
<pdfrwt beam="2">  1       21 0.27683559E+00 0.30325221E+03</pdfrwt>
<totfact> 0.12269408E+03</totfact>
</mgrwt>
</event>
<event>
 5    0  0.1943430E+001  0.3528757E+03  0.7546771E-02  0.1061441E+00
         21   -1    0    0  503  501  0.00000000000E+00  0.00000000000E+00  0.11598238528E+04  0.11598238528E+04  0.00000000000E+00 0.  1.
         21   -1    0    0  504  502 -0.00000000000E+00 -0.00000000000E+00 -0.29886510376E+03  0.29886510376E+03  0.00000000000E+00 0.  1.
         25    1    1    2    0    0 -0.15879354913E+03 -0.30639769842E+03  0.86542067505E+03  0.94003876816E+03  0.12500000000E+03 0.  0.
         21    1    1    2  503  502  0.27733604260E+02  0.41857179168E+02 -0.17201334405E+03  0.17919198304E+03  0.00000000000E+00 0.  1.
         21    1    1    2  504  501  0.13105994487E+03  0.26454051926E+03  0.16755141800E+03  0.33945820531E+03  0.00000000000E+00 0.  1.
<mgrwt>
<rscale>  4 0.35287571E+03</rscale>
<asrwt>0</asrwt>
<pdfrwt beam="1">  1       21 0.17843444E+00 0.35287571E+03</pdfrwt>
<pdfrwt beam="2">  1       21 0.45979247E-01 0.35287571E+03</pdfrwt>
<totfact> 0.74163130E+02</totfact>
</mgrwt>
</event>
