<event>
 5    0  0.1141006E+000  0.2968528E+03  0.7546771E-02  0.1086825E+00
         21   -1    0    0  501  502  0.00000000000E+00  0.00000000000E+00  0.81362235627E+02  0.81362235627E+02  0.00000000000E+00 0. -1.
          1   -1    0    0  503    0 -0.00000000000E+00 -0.00000000000E+00 -0.13283091910E+04  0.13283091910E+04  0.00000000000E+00 0.  1.
         25    1    1    2    0    0 -0.22300359875E+03  0.69790715890E+02 -0.38635169567E+03  0.46850184826E+03  0.12500000000E+03 0.  0.
         21    1    1    2  503  502 -0.50568936107E+02  0.29641280786E+02 -0.41305622205E+02  0.71707581548E+02  0.00000000000E+00 0.  1.
          1    1    1    2  501    0  0.27357253486E+03 -0.99431996676E+02 -0.81928963753E+03  0.86946199684E+03  0.00000000000E+00 0.  1.
<mgrwt>
<rscale>  4 0.29685279E+03</rscale>
<asrwt>0</asrwt>
<pdfrwt beam="1">  1       21 0.12517267E-01 0.29685279E+03</pdfrwt>
<pdfrwt beam="2">  1        1 0.20435526E+00 0.29685279E+03</pdfrwt>
<totfact> 0.55557813E+03</totfact>
</mgrwt>
</event>
<event>
 5    0  0.1141006E+000  0.2583170E+03  0.7546771E-02  0.1108159E+00
         21   -1    0    0  503  502  0.00000000000E+00  0.00000000000E+00  0.32826421704E+03  0.32826421704E+03  0.00000000000E+00 0. -1.
         -4   -1    0    0    0  501 -0.00000000000E+00 -0.00000000000E+00 -0.41135481297E+03  0.41135481297E+03  0.00000000000E+00 0.  1.
         25    1    1    2    0    0 -0.22059636575E+03 -0.22259725170E+02  0.20367846171E+03  0.32598798706E+03  0.12500000000E+03 0.  0.
         21    1    1    2  503  501 -0.20440463082E+02 -0.43603556904E+02 -0.43477963474E+02  0.64880012435E+02  0.00000000000E+00 0.  1.
         -4    1    1    2    0  502  0.24103682883E+03  0.65863282074E+02 -0.24329109416E+03  0.34875103051E+03  0.00000000000E+00 0.  1.
<mgrwt>
<rscale>  4 0.25831701E+03</rscale>
<asrwt>0</asrwt>
<pdfrwt beam="1">  1       21 0.50502187E-01 0.25831701E+03</pdfrwt>
<pdfrwt beam="2">  1       -4 0.63285356E-01 0.25831701E+03</pdfrwt>
<totfact> 0.36923232E+02</totfact>
</mgrwt>
</event>
<event>
 5    0  0.1141006E+000  0.2596897E+03  0.7546771E-02  0.1107330E+00
         21   -1    0    0  501  502  0.00000000000E+00  0.00000000000E+00  0.10558393049E+03  0.10558393049E+03  0.00000000000E+00 0. -1.
          1   -1    0    0  503    0 -0.00000000000E+00 -0.00000000000E+00 -0.21575761416E+04  0.21575761416E+04  0.00000000000E+00 0. -1.
         25    1    1    2    0    0 -0.13012924002E+03 -0.20087408848E+03 -0.10559166067E+03  0.28992864179E+03  0.12500000000E+03 0.  0.
         21    1    1    2  503  502  0.10585168716E+03  0.15455803439E+03 -0.66822507102E+03  0.69398667942E+03  0.00000000000E+00 0. -1.
          1    1    1    2  501    0  0.24277552853E+02  0.46316054083E+02 -0.12781754794E+04  0.12792447509E+04  0.00000000000E+00 0. -1.
<mgrwt>
<rscale>  4 0.25968968E+03</rscale>
<asrwt>0</asrwt>
<pdfrwt beam="1">  1       21 0.16243681E-01 0.25968968E+03</pdfrwt>
<pdfrwt beam="2">  1        1 0.33193480E+00 0.25968968E+03</pdfrwt>
<totfact> 0.99720856E+02</totfact>
</mgrwt>
</event>
<event>
 5    0  0.1141006E+000  0.2832676E+03  0.7546771E-02  0.1093918E+00
          1   -1    0    0  503    0 -0.00000000000E+00  0.00000000000E+00  0.89301440317E+03  0.89301440317E+03  0.00000000000E+00 0. -1.
         21   -1    0    0  501  502  0.00000000000E+00 -0.00000000000E+00 -0.80931988732E+03  0.80931988732E+03  0.00000000000E+00 0. -1.
         25    1    1    2    0    0  0.23754957586E+03  0.96184087361E+02 -0.75503819693E+03  0.80708664868E+03  0.12500000000E+03 0.  0.
         21    1    1    2  503  502 -0.39845893547E+02 -0.12579708019E+01  0.42603803010E+03  0.42789914795E+03  0.00000000000E+00 0. -1.
          1    1    1    2  501    0 -0.19770368231E+03 -0.94926116559E+02  0.41269468269E+03  0.46734849387E+03  0.00000000000E+00 0. -1.
<mgrwt>
<rscale>  4 0.28326758E+03</rscale>
<asrwt>0</asrwt>
<pdfrwt beam="1">  1       21 0.12451075E+00 0.28326758E+03</pdfrwt>
<pdfrwt beam="2">  1        1 0.13738683E+00 0.28326758E+03</pdfrwt>
<totfact> 0.97628703E+01</totfact>
</mgrwt>
</event>
<event>
 5    0  0.1141006E+000  0.2883828E+03  0.7546771E-02  0.1091197E+00
         21   -1    0    0  501  502  0.00000000000E+00  0.00000000000E+00  0.50929923318E+02  0.50929923318E+02  0.00000000000E+00 0.  1.
          2   -1    0    0  503    0 -0.00000000000E+00 -0.00000000000E+00 -0.16525757018E+04  0.16525757018E+04  0.00000000000E+00 0.  1.
         25    1    1    2    0    0 -0.10818492646E+03  0.23629569013E+03 -0.56902950238E+03  0.63793354362E+03  0.12500000000E+03 0.  0.
         21    1    1    2  503  502  0.16812585448E+02 -0.16823924928E+02 -0.66139603803E+02  0.70286233863E+02  0.00000000000E+00 0.  1.
          2    1    1    2  501    0  0.91372341012E+02 -0.21947176520E+03 -0.96647667229E+03  0.99528584763E+03  0.00000000000E+00 0.  1.
<mgrwt>
<rscale>  4 0.28838279E+03</rscale>
<asrwt>0</asrwt>
<pdfrwt beam="1">  1       21 0.78353723E-02 0.28838279E+03</pdfrwt>
<pdfrwt beam="2">  1        2 0.25424243E+00 0.28838279E+03</pdfrwt>
<totfact> 0.17688408E+04</totfact>
</mgrwt>
</event>
<event>
 5    0  0.1141006E+000  0.3770630E+03  0.7546771E-02  0.1067746E+00
         -1   -1    0    0    0  501 -0.00000000000E+00  0.00000000000E+00  0.14494078557E+04  0.14494078557E+04  0.00000000000E+00 0. -1.
         21   -1    0    0  503  502  0.00000000000E+00 -0.00000000000E+00 -0.44807352030E+03  0.44807352030E+03  0.00000000000E+00 0.  1.
         25    1    1    2    0    0 -0.18816814157E+02  0.20732286883E+03 -0.26935428105E+03  0.36264800172E+03  0.12500000000E+03 0.  0.
         21    1    1    2  503  501 -0.27626025776E+03  0.93095988354E+02  0.13055874391E+03  0.31942476216E+03  0.00000000000E+00 0.  1.
         -1    1    1    2    0  502  0.29507707192E+03 -0.30041885718E+03  0.11401298725E+04  0.12154086121E+04  0.00000000000E+00 0. -1.
<mgrwt>
<rscale>  4 0.33777833E+03</rscale>
<asrwt>0</asrwt>
<pdfrwt beam="1">  1       21 0.68934388E-01 0.37706296E+03</pdfrwt>
<pdfrwt beam="2">  1       -1 0.22298582E+00 0.37706296E+03</pdfrwt>
<totfact> 0.19272569E+01</totfact>
</mgrwt>
</event>
<event>
 5    0  0.1141006E+000  0.2920112E+03  0.7546771E-02  0.1089304E+00
          2   -1    0    0  503    0 -0.00000000000E+00  0.00000000000E+00  0.14308486431E+04  0.14308486431E+04  0.00000000000E+00 0. -1.
         21   -1    0    0  501  502  0.00000000000E+00 -0.00000000000E+00 -0.13195856350E+03  0.13195856350E+03  0.00000000000E+00 0. -1.
         25    1    1    2    0    0  0.19692096039E+03 -0.18640722882E+03  0.85344629972E+02  0.31053860543E+03  0.12500000000E+03 0.  0.
         21    1    1    2  503  502 -0.64860653305E+02 -0.10996512238E+02  0.37546799054E+03  0.38118766972E+03  0.00000000000E+00 0. -1.
          2    1    1    2  501    0 -0.13206030709E+03  0.19740374106E+03  0.83807745907E+03  0.87108093142E+03  0.00000000000E+00 0. -1.
<mgrwt>
<rscale>  4 0.29201115E+03</rscale>
<asrwt>0</asrwt>
<pdfrwt beam="1">  1       21 0.20301318E-01 0.29201115E+03</pdfrwt>
<pdfrwt beam="2">  1        2 0.22013055E+00 0.29201115E+03</pdfrwt>
<totfact> 0.41244684E+03</totfact>
</mgrwt>
</event>
<event>
 5    0  0.1141006E+000  0.2432690E+03  0.7546771E-02  0.1117634E+00
         -3   -1    0    0    0  501 -0.00000000000E+00  0.00000000000E+00  0.44031603718E+03  0.44031603718E+03  0.00000000000E+00 0.  1.
         21   -1    0    0  503  502  0.00000000000E+00 -0.00000000000E+00 -0.42304278005E+03  0.42304278005E+03  0.00000000000E+00 0. -1.
         25    1    1    2    0    0 -0.20586828321E+03 -0.23091949399E+02 -0.33248656480E+03  0.41120226645E+03  0.12500000000E+03 0.  0.
         21    1    1    2  503  501 -0.11183322711E+02 -0.41693701386E+02  0.10835109216E+02  0.44506527992E+02  0.00000000000E+00 0.  1.
         -3    1    1    2    0  502  0.21705160593E+03  0.64785650785E+02  0.33892471272E+03  0.40765002278E+03  0.00000000000E+00 0.  1.
<mgrwt>
<rscale>  4 0.24326895E+03</rscale>
<asrwt>0</asrwt>
<pdfrwt beam="1">  1       21 0.65083504E-01 0.24326895E+03</pdfrwt>
<pdfrwt beam="2">  1       -3 0.67740929E-01 0.24326895E+03</pdfrwt>
<totfact> 0.22597402E+02</totfact>
</mgrwt>
</event>
<event>
 5    0  0.1141006E+000  0.2414784E+03  0.7546771E-02  0.1118812E+00
          2   -1    0    0  503    0 -0.00000000000E+00  0.00000000000E+00  0.19308039263E+04  0.19308039263E+04  0.00000000000E+00 0. -1.
         21   -1    0    0  501  502  0.00000000000E+00 -0.00000000000E+00 -0.71320559306E+02  0.71320559306E+02  0.00000000000E+00 0.  1.
         25    1    1    2    0    0  0.16111003669E+03  0.12934601034E+03  0.16150434206E+03  0.29050901332E+03  0.12500000000E+03 0.  0.
         21    1    1    2  503  502 -0.24254245229E+02 -0.60445527282E+00  0.11548771493E+03  0.11800866950E+03  0.00000000000E+00 0. -1.
          2    1    1    2  501    0 -0.13685579146E+03 -0.12874155507E+03  0.15824913100E+04  0.15936068028E+04  0.00000000000E+00 0. -1.
<mgrwt>
<rscale>  4 0.24147843E+03</rscale>
<asrwt>0</asrwt>
<pdfrwt beam="1">  1       21 0.10972395E-01 0.24147843E+03</pdfrwt>
<pdfrwt beam="2">  1        2 0.29704672E+00 0.24147843E+03</pdfrwt>
<totfact> 0.70574031E+03</totfact>
</mgrwt>
</event>
<event>
 5    0  0.1141006E+000  0.3295523E+03  0.7546771E-02  0.1071335E+00
         21   -1    0    0  501  502  0.00000000000E+00  0.00000000000E+00  0.24747653444E+03  0.24747653444E+03  0.00000000000E+00 0.  1.
          2   -1    0    0  503    0 -0.00000000000E+00 -0.00000000000E+00 -0.91343945040E+03  0.91343945040E+03  0.00000000000E+00 0.  1.
         25    1    1    2    0    0  0.19827874468E+03  0.23165761546E+03  0.92946571805E+02  0.34240878582E+03  0.12500000000E+03 0.  0.
         21    1    1    2  503  502 -0.87735505721E+01 -0.19132475125E+02 -0.38730554588E+02  0.44080411213E+02  0.00000000000E+00 0. -1.
          2    1    1    2  501    0 -0.18950519411E+03 -0.21252514034E+03 -0.72017893319E+03  0.77442678781E+03  0.00000000000E+00 0.  1.
<mgrwt>
<rscale>  4 0.32955229E+03</rscale>
<asrwt>0</asrwt>
<pdfrwt beam="1">  1       21 0.38073313E-01 0.32955229E+03</pdfrwt>
<pdfrwt beam="2">  1        2 0.14052915E+00 0.32955229E+03</pdfrwt>
<totfact> 0.23902311E+03</totfact>
</mgrwt>
</event>
<event>
 5    0  0.1141006E+000  0.4363178E+03  0.7546771E-02  0.1031883E+00
          2   -1    0    0  503    0 -0.00000000000E+00  0.00000000000E+00  0.10126037135E+04  0.10126037135E+04  0.00000000000E+00 0.  1.
         21   -1    0    0  501  502  0.00000000000E+00 -0.00000000000E+00 -0.46869507631E+03  0.46869507631E+03  0.00000000000E+00 0.  1.
         25    1    1    2    0    0  0.31497500128E+03 -0.22056654404E+03  0.21341755935E+03  0.45719897902E+03  0.12500000000E+03 0.  0.
         21    1    1    2  503  502  0.86274303111E+01 -0.66099111472E+02  0.53971659571E+03  0.54381755100E+03  0.00000000000E+00 0.  1.
          2    1    1    2  501    0 -0.32360243159E+03  0.28666565551E+03 -0.20922551784E+03  0.48028225982E+03  0.00000000000E+00 0.  1.
<mgrwt>
<rscale>  4 0.43631783E+03</rscale>
<asrwt>0</asrwt>
<pdfrwt beam="1">  1       21 0.72106935E-01 0.43631783E+03</pdfrwt>
<pdfrwt beam="2">  1        2 0.15578519E+00 0.43631783E+03</pdfrwt>
<totfact> 0.51130187E+02</totfact>
</mgrwt>
</event>
<event>
 5    0  0.1141006E+000  0.2704284E+03  0.7546771E-02  0.1101035E+00
         21   -1    0    0  501  502  0.00000000000E+00  0.00000000000E+00  0.48779125610E+03  0.48779125610E+03  0.00000000000E+00 0. -1.
          2   -1    0    0  503    0 -0.00000000000E+00 -0.00000000000E+00 -0.46273880509E+03  0.46273880509E+03  0.00000000000E+00 0. -1.
         25    1    1    2    0    0 -0.23133428296E+03 -0.90100098435E+02  0.21077498042E+03  0.34883329913E+03  0.12500000000E+03 0.  0.
         21    1    1    2  503  502  0.73628308157E+01  0.28000970742E+02 -0.32794080189E+03  0.32921639568E+03  0.00000000000E+00 0. -1.
          2    1    1    2  501    0  0.22397145215E+03  0.62099127692E+02  0.14221827248E+03  0.27248036638E+03  0.00000000000E+00 0. -1.
<mgrwt>
<rscale>  4 0.27042844E+03</rscale>
<asrwt>0</asrwt>
<pdfrwt beam="1">  1       21 0.75044809E-01 0.27042844E+03</pdfrwt>
<pdfrwt beam="2">  1        2 0.71190585E-01 0.27042844E+03</pdfrwt>
<totfact> 0.13036928E+03</totfact>
</mgrwt>
</event>
<event>
 5    0  0.1141006E+000  0.4301444E+03  0.7546771E-02  0.1033814E+00
          2   -1    0    0  503    0 -0.00000000000E+00  0.00000000000E+00  0.21516849351E+04  0.21516849351E+04  0.00000000000E+00 0.  1.
         21   -1    0    0  501  502  0.00000000000E+00 -0.00000000000E+00 -0.15729505044E+03  0.15729505044E+03  0.00000000000E+00 0. -1.
         25    1    1    2    0    0  0.34860066517E+03 -0.21313576037E+03  0.22929151360E+03  0.48492151356E+03  0.12500000000E+03 0.  0.
         21    1    1    2  503  502  0.24917869380E+02  0.71839810113E+01  0.45710569462E+02  0.52554409503E+02  0.00000000000E+00 0.  1.
          2    1    1    2  501    0 -0.37351853455E+03  0.20595177936E+03  0.17193878016E+04  0.17715040624E+04  0.00000000000E+00 0.  1.
<mgrwt>
<rscale>  4 0.43014442E+03</rscale>
<asrwt>0</asrwt>
<pdfrwt beam="1">  1       21 0.24199240E-01 0.43014442E+03</pdfrwt>
<pdfrwt beam="2">  1        2 0.33102843E+00 0.43014442E+03</pdfrwt>
<totfact> 0.11617466E+03</totfact>
</mgrwt>
</event>
<event>
 5    0  0.1141006E+000  0.2852272E+03  0.7546771E-02  0.1092868E+00
         21   -1    0    0  503  502  0.00000000000E+00  0.00000000000E+00  0.69948115122E+03  0.69948115122E+03  0.00000000000E+00 0.  1.
         -4   -1    0    0    0  501 -0.00000000000E+00 -0.00000000000E+00 -0.11523938181E+03  0.11523938181E+03  0.00000000000E+00 0. -1.
         25    1    1    2    0    0  0.20063130535E+03  0.15682927748E+03  0.31195656160E+03  0.42165179862E+03  0.12500000000E+03 0.  0.
         21    1    1    2  503  501 -0.10470706450E+02  0.18167952180E+02  0.55837144539E+01  0.21699955002E+02  0.00000000000E+00 0.  1.
         -4    1    1    2    0  502 -0.19016059889E+03 -0.17499722966E+03  0.26670149336E+03  0.37136877941E+03  0.00000000000E+00 0. -1.
<mgrwt>
<rscale>  4 0.28522721E+03</rscale>
<asrwt>0</asrwt>
<pdfrwt beam="1">  1       21 0.10761248E+00 0.28522721E+03</pdfrwt>
<pdfrwt beam="2">  1       -4 0.17729136E-01 0.28522721E+03</pdfrwt>
<totfact> 0.80466344E+02</totfact>
</mgrwt>
</event>
<event>
 5    0  0.1141006E+000  0.3888595E+03  0.7546771E-02  0.1047707E+00
          2   -1    0    0  503    0 -0.00000000000E+00  0.00000000000E+00  0.94143935486E+03  0.94143935486E+03  0.00000000000E+00 0. -1.
         21   -1    0    0  501  502  0.00000000000E+00 -0.00000000000E+00 -0.24885349603E+03  0.24885349603E+03  0.00000000000E+00 0. -1.
         25    1    1    2    0    0 -0.26941462278E+03 -0.23729380660E+03  0.23561064937E+02  0.38088412070E+03  0.12500000000E+03 0.  0.
         21    1    1    2  503  502 -0.91484739280E+01 -0.50115599969E+02  0.44557776343E+02  0.67680598166E+02  0.00000000000E+00 0. -1.
          2    1    1    2  501    0  0.27856309671E+03  0.28740940657E+03  0.62446701755E+03  0.74172813203E+03  0.00000000000E+00 0. -1.
<mgrwt>
<rscale>  4 0.38885950E+03</rscale>
<asrwt>0</asrwt>
<pdfrwt beam="1">  1       21 0.38285154E-01 0.38885950E+03</pdfrwt>
<pdfrwt beam="2">  1        2 0.14483682E+00 0.38885950E+03</pdfrwt>
<totfact> 0.22320471E+03</totfact>
</mgrwt>
</event>
<event>
 5    0  0.1141006E+000  0.2715556E+03  0.7546771E-02  0.1100393E+00
          2   -1    0    0  503    0 -0.00000000000E+00  0.00000000000E+00  0.55874162663E+03  0.55874162663E+03  0.00000000000E+00 0.  1.
         21   -1    0    0  501  502  0.00000000000E+00 -0.00000000000E+00 -0.47435662276E+03  0.47435662276E+03  0.00000000000E+00 0.  1.
         25    1    1    2    0    0  0.11710060920E+03  0.20731613980E+03 -0.38403178126E+03  0.46882613357E+03  0.12500000000E+03 0.  0.
         21    1    1    2  503  502  0.37463530927E+02  0.16985336715E+02  0.78571762213E+02  0.88687877583E+02  0.00000000000E+00 0.  1.
          2    1    1    2  501    0 -0.15456414013E+03 -0.22430147651E+03  0.38984502291E+03  0.47558423825E+03  0.00000000000E+00 0.  1.
<mgrwt>
<rscale>  4 0.27155557E+03</rscale>
<asrwt>0</asrwt>
<pdfrwt beam="1">  1       21 0.72977942E-01 0.27155557E+03</pdfrwt>
<pdfrwt beam="2">  1        2 0.85960250E-01 0.27155557E+03</pdfrwt>
<totfact> 0.11214651E+03</totfact>
</mgrwt>
</event>
<event>
 5    0  0.1141006E+000  0.3824195E+03  0.7546771E-02  0.1050043E+00
         21   -1    0    0  501  502  0.00000000000E+00  0.00000000000E+00  0.92243641970E+03  0.92243641970E+03  0.00000000000E+00 0.  1.
          2   -1    0    0  503    0 -0.00000000000E+00 -0.00000000000E+00 -0.43811344955E+03  0.43811344955E+03  0.00000000000E+00 0. -1.
         25    1    1    2    0    0 -0.16328140254E+03  0.31132798006E+03  0.68449606165E+03  0.77958051925E+03  0.12500000000E+03 0.  0.
         21    1    1    2  503  502  0.38818313958E+02  0.10423954377E+03 -0.32458199275E+02  0.11587182006E+03  0.00000000000E+00 0.  1.
          2    1    1    2  501    0  0.12446308859E+03 -0.41556752382E+03 -0.16771489223E+03  0.46509752993E+03  0.00000000000E+00 0. -1.
<mgrwt>
<rscale>  4 0.38241946E+03</rscale>
<asrwt>0</asrwt>
<pdfrwt beam="1">  1       21 0.14191330E+00 0.38241946E+03</pdfrwt>
<pdfrwt beam="2">  1        2 0.67402069E-01 0.38241946E+03</pdfrwt>
<totfact> 0.28244158E+02</totfact>
</mgrwt>
</event>
<event>
 5    0  0.1141006E+000  0.2587554E+03  0.7546771E-02  0.1107893E+00
          2   -1    0    0  503    0 -0.00000000000E+00  0.00000000000E+00  0.72275395132E+03  0.72275395132E+03  0.00000000000E+00 0. -1.
         21   -1    0    0  501  502  0.00000000000E+00 -0.00000000000E+00 -0.12468601900E+03  0.12468601900E+03  0.00000000000E+00 0.  1.
         25    1    1    2    0    0  0.72681076707E+01 -0.22979811593E+03  0.14043788576E+03  0.29699797849E+03  0.12500000000E+03 0.  0.
         21    1    1    2  503  502  0.31919289640E+02  0.96212007125E+01  0.22609001611E+03  0.22853468870E+03  0.00000000000E+00 0. -1.
          2    1    1    2  501    0 -0.39187397311E+02  0.22017691522E+03  0.23154003045E+03  0.32190730312E+03  0.00000000000E+00 0. -1.
<mgrwt>
<rscale>  4 0.25875539E+03</rscale>
<asrwt>0</asrwt>
<pdfrwt beam="1">  1       21 0.19182465E-01 0.25875539E+03</pdfrwt>
<pdfrwt beam="2">  1        2 0.11119291E+00 0.25875539E+03</pdfrwt>
<totfact> 0.12508928E+04</totfact>
</mgrwt>
</event>
<event>
 5    0  0.1141006E+000  0.2934449E+03  0.7546771E-02  0.1088564E+00
          2   -1    0    0  503    0 -0.00000000000E+00  0.00000000000E+00  0.12103353952E+04  0.12103353952E+04  0.00000000000E+00 0.  1.
         21   -1    0    0  501  502  0.00000000000E+00 -0.00000000000E+00 -0.27249582908E+03  0.27249582908E+03  0.00000000000E+00 0.  1.
         25    1    1    2    0    0  0.14990356027E+03 -0.22006510939E+03 -0.14106646093E+03  0.32622764467E+03  0.12500000000E+03 0.  0.
         21    1    1    2  503  502 -0.10978741784E+03 -0.62527966391E+02  0.41851241378E+03  0.43716777578E+03  0.00000000000E+00 0. -1.
          2    1    1    2  501    0 -0.40116142421E+02  0.28259307578E+03  0.66039361327E+03  0.71943580382E+03  0.00000000000E+00 0.  1.
<mgrwt>
<rscale>  4 0.29344493E+03</rscale>
<asrwt>0</asrwt>
<pdfrwt beam="1">  1       21 0.41922436E-01 0.29344493E+03</pdfrwt>
<pdfrwt beam="2">  1        2 0.18620544E+00 0.29344493E+03</pdfrwt>
<totfact> 0.13148429E+03</totfact>
</mgrwt>
</event>
<event>
 5    0  0.1141006E+000  0.2441919E+03  0.7546771E-02  0.1117031E+00
         21   -1    0    0  503  502  0.00000000000E+00  0.00000000000E+00  0.44871534213E+02  0.44871534213E+02  0.00000000000E+00 0. -1.
         -1   -1    0    0    0  501 -0.00000000000E+00 -0.00000000000E+00 -0.20328983189E+04  0.20328983189E+04  0.00000000000E+00 0. -1.
         25    1    1    2    0    0 -0.17732337002E+03  0.11383937723E+03 -0.38726640484E+03  0.45826111517E+03  0.12500000000E+03 0.  0.
         21    1    1    2  503  501  0.15734225046E+02  0.20034537369E+02 -0.71172885028E+02  0.75594497740E+02  0.00000000000E+00 0.  1.
         -1    1    1    2    0  502  0.16158914497E+03 -0.13387391460E+03 -0.15295874948E+04  0.15439142402E+04  0.00000000000E+00 0. -1.
<mgrwt>
<rscale>  4 0.24419190E+03</rscale>
<asrwt>0</asrwt>
<pdfrwt beam="1">  1       21 0.69033117E-02 0.24419190E+03</pdfrwt>
<pdfrwt beam="2">  1       -1 0.31275364E+00 0.24419190E+03</pdfrwt>
<totfact> 0.46968243E+02</totfact>
</mgrwt>
</event>
<event>
 5    0  0.1141006E+000  0.3157181E+03  0.7546771E-02  0.1077637E+00
         21   -1    0    0  501  502  0.00000000000E+00  0.00000000000E+00  0.22986059628E+03  0.22986059628E+03  0.00000000000E+00 0.  1.
          2   -1    0    0  503    0 -0.00000000000E+00 -0.00000000000E+00 -0.29818937491E+04  0.29818937491E+04  0.00000000000E+00 0.  1.
         25    1    1    2    0    0 -0.21028645765E+03 -0.19958089555E+03  0.10906188571E+03  0.33402458451E+03  0.12500000000E+03 0.  0.
         21    1    1    2  503  502  0.29295118172E+02  0.37016441616E+02 -0.19816573372E+03  0.20371077271E+03  0.00000000000E+00 0.  1.
          2    1    1    2  501    0  0.18099133948E+03  0.16256445394E+03 -0.26629293048E+04  0.26740189882E+04  0.00000000000E+00 0.  1.
<mgrwt>
<rscale>  4 0.31571812E+03</rscale>
<asrwt>0</asrwt>
<pdfrwt beam="1">  1       21 0.35363170E-01 0.31571812E+03</pdfrwt>
<pdfrwt beam="2">  1        2 0.45875287E+00 0.31571812E+03</pdfrwt>
<totfact> 0.19746683E+02</totfact>
</mgrwt>
</event>
<event>
 5    0  0.1141006E+000  0.2841125E+03  0.7546771E-02  0.1093464E+00
         21   -1    0    0  501  502  0.00000000000E+00  0.00000000000E+00  0.16012409908E+03  0.16012409908E+03  0.00000000000E+00 0.  1.
          2   -1    0    0  503    0 -0.00000000000E+00 -0.00000000000E+00 -0.67594688485E+03  0.67594688485E+03  0.00000000000E+00 0.  1.
         25    1    1    2    0    0 -0.25059819887E+03 -0.47910621661E+02 -0.31703458733E+02  0.28587583710E+03  0.12500000000E+03 0.  0.
         21    1    1    2  503  502  0.29027005951E+02  0.42725405824E+01 -0.25016305475E+02  0.38556934748E+02  0.00000000000E+00 0.  1.
          2    1    1    2  501    0  0.22157119291E+03  0.43638081079E+02 -0.45910302156E+03  0.51163821207E+03  0.00000000000E+00 0.  1.
<mgrwt>
<rscale>  4 0.28411245E+03</rscale>
<asrwt>0</asrwt>
<pdfrwt beam="1">  1       21 0.24634477E-01 0.28411245E+03</pdfrwt>
<pdfrwt beam="2">  1        2 0.10399183E+00 0.28411245E+03</pdfrwt>
<totfact> 0.83987754E+03</totfact>
</mgrwt>
</event>
<event>
 5    0  0.1141006E+000  0.2541393E+03  0.7546771E-02  0.1110716E+00
         21   -1    0    0  501  502  0.00000000000E+00  0.00000000000E+00  0.64040003646E+03  0.64040003646E+03  0.00000000000E+00 0. -1.
          2   -1    0    0  503    0 -0.00000000000E+00 -0.00000000000E+00 -0.16803680926E+03  0.16803680926E+03  0.00000000000E+00 0.  1.
         25    1    1    2    0    0  0.41952235907E+01  0.22220512355E+03  0.44375802432E+03  0.51179966880E+03  0.12500000000E+03 0.  0.
         21    1    1    2  503  502 -0.65400945627E+02 -0.51866007370E+01  0.27535120496E+02  0.71150315367E+02  0.00000000000E+00 0. -1.
          2    1    1    2  501    0  0.61205722036E+02 -0.21701852281E+03  0.10700823874E+01  0.22548686155E+03  0.00000000000E+00 0.  1.
<mgrwt>
<rscale>  4 0.25413926E+03</rscale>
<asrwt>0</asrwt>
<pdfrwt beam="1">  1       21 0.98523081E-01 0.25413926E+03</pdfrwt>
<pdfrwt beam="2">  1        2 0.25851817E-01 0.25413926E+03</pdfrwt>
<totfact> 0.21137715E+03</totfact>
</mgrwt>
</event>
<event>
 5    0  0.1141006E+000  0.2835800E+03  0.7546771E-02  0.1093750E+00
         -3   -1    0    0    0  501 -0.00000000000E+00  0.00000000000E+00  0.36125277798E+03  0.36125277798E+03  0.00000000000E+00 0. -1.
         21   -1    0    0  503  502  0.00000000000E+00 -0.00000000000E+00 -0.26721608158E+03  0.26721608158E+03  0.00000000000E+00 0. -1.
         25    1    1    2    0    0 -0.34679253856E+02 -0.26400649844E+03 -0.30227879440E+02  0.29570391705E+03  0.12500000000E+03 0.  0.
         21    1    1    2  503  501 -0.28891565046E+02  0.29886297855E+02  0.74207725327E+02  0.85057038677E+02  0.00000000000E+00 0.  1.
         -3    1    1    2    0  502  0.63570818902E+02  0.23412020058E+03  0.50056850513E+02  0.24770790383E+03  0.00000000000E+00 0. -1.
<mgrwt>
<rscale>  4 0.28357996E+03</rscale>
<asrwt>0</asrwt>
<pdfrwt beam="1">  1       21 0.41110166E-01 0.28357996E+03</pdfrwt>
<pdfrwt beam="2">  1       -3 0.55577351E-01 0.28357996E+03</pdfrwt>
<totfact> 0.89766838E+02</totfact>
</mgrwt>
</event>
<event>
 5    0  0.1141006E+000  0.3869478E+03  0.7546771E-02  0.1048395E+00
         21   -1    0    0  501  502  0.00000000000E+00  0.00000000000E+00  0.14343612142E+03  0.14343612142E+03  0.00000000000E+00 0.  1.
          2   -1    0    0  503    0 -0.00000000000E+00 -0.00000000000E+00 -0.15558884809E+04  0.15558884809E+04  0.00000000000E+00 0.  1.
         25    1    1    2    0    0  0.44691446059E+01  0.36058404314E+03 -0.27097180675E+03  0.46807215841E+03  0.12500000000E+03 0.  0.
         21    1    1    2  503  502  0.14649973192E+02  0.17486207697E+02 -0.38177692284E+03  0.38245785126E+03  0.00000000000E+00 0.  1.
          2    1    1    2  501    0 -0.19119117798E+02 -0.37807025084E+03 -0.75970362985E+03  0.84879459261E+03  0.00000000000E+00 0.  1.
<mgrwt>
<rscale>  4 0.38694781E+03</rscale>
<asrwt>0</asrwt>
<pdfrwt beam="1">  1       21 0.22067096E-01 0.38694781E+03</pdfrwt>
<pdfrwt beam="2">  1        2 0.23936745E+00 0.38694781E+03</pdfrwt>
<totfact> 0.29295931E+03</totfact>
</mgrwt>
</event>
<event>
 5    0  0.1141006E+000  0.2325588E+03  0.7546771E-02  0.1124852E+00
         -1   -1    0    0    0  501 -0.00000000000E+00  0.00000000000E+00  0.37071735170E+03  0.37071735170E+03  0.00000000000E+00 0. -1.
         21   -1    0    0  503  502  0.00000000000E+00 -0.00000000000E+00 -0.31088975055E+03  0.31088975055E+03  0.00000000000E+00 0.  1.
         25    1    1    2    0    0 -0.16922015276E+03 -0.10895458334E+03 -0.13854251247E+03  0.27445507664E+03  0.12500000000E+03 0.  0.
         21    1    1    2  503  501 -0.12982106520E+02  0.46793720154E+02  0.20878353681E+03  0.21435660143E+03  0.00000000000E+00 0.  1.
         -1    1    1    2    0  502  0.18220225928E+03  0.62160863190E+02 -0.10413423178E+02  0.19279542418E+03  0.00000000000E+00 0. -1.
<mgrwt>
<rscale>  4 0.23255879E+03</rscale>
<asrwt>0</asrwt>
<pdfrwt beam="1">  1       21 0.47829192E-01 0.23255879E+03</pdfrwt>
<pdfrwt beam="2">  1       -1 0.57033439E-01 0.23255879E+03</pdfrwt>
<totfact> 0.12238695E+03</totfact>
</mgrwt>
</event>
<event>
 5    0  0.1141006E+000  0.2471824E+03  0.7546771E-02  0.1115099E+00
         21   -1    0    0  503  502  0.00000000000E+00  0.00000000000E+00  0.26829618570E+03  0.26829618570E+03  0.00000000000E+00 0. -1.
         -3   -1    0    0    0  501 -0.00000000000E+00 -0.00000000000E+00 -0.33031602903E+03  0.33031602903E+03  0.00000000000E+00 0. -1.
         25    1    1    2    0    0  0.14034040137E+03  0.16055749473E+03  0.14407072770E+03  0.28610402295E+03  0.12500000000E+03 0.  0.
         21    1    1    2  503  501  0.31347861200E+01 -0.58649798432E+02 -0.57301354892E+02  0.82055292411E+02  0.00000000000E+00 0. -1.
         -3    1    1    2    0  502 -0.14347518749E+03 -0.10190769630E+03 -0.14878921614E+03  0.23045289937E+03  0.00000000000E+00 0. -1.
<mgrwt>
<rscale>  4 0.24718240E+03</rscale>
<asrwt>0</asrwt>
<pdfrwt beam="1">  1       21 0.41276336E-01 0.24718240E+03</pdfrwt>
<pdfrwt beam="2">  1       -3 0.50817851E-01 0.24718240E+03</pdfrwt>
<totfact> 0.10730087E+03</totfact>
</mgrwt>
</event>
<event>
 5    0  0.1141006E+000  0.3146464E+03  0.7546771E-02  0.1078140E+00
         -2   -1    0    0    0  501 -0.00000000000E+00  0.00000000000E+00  0.21246498375E+04  0.21246498375E+04  0.00000000000E+00 0. -1.
         21   -1    0    0  503  502  0.00000000000E+00 -0.00000000000E+00 -0.48852072474E+02  0.48852072474E+02  0.00000000000E+00 0. -1.
         25    1    1    2    0    0 -0.13219612634E+03  0.23532370173E+03  0.10209450174E+04  0.10633939952E+04  0.12500000000E+03 0.  0.
         21    1    1    2  503  501 -0.13344723078E+02  0.32654607963E+02  0.18542432804E+03  0.18875006353E+03  0.00000000000E+00 0. -1.
         -2    1    1    2    0  502  0.14554084942E+03 -0.26797830969E+03  0.86942841965E+03  0.92135785133E+03  0.00000000000E+00 0. -1.
<mgrwt>
<rscale>  4 0.31464640E+03</rscale>
<asrwt>0</asrwt>
<pdfrwt beam="1">  1       21 0.75157051E-02 0.31464640E+03</pdfrwt>
<pdfrwt beam="2">  1       -2 0.32686913E+00 0.31464640E+03</pdfrwt>
<totfact> 0.27364192E+02</totfact>
</mgrwt>
</event>
<event>
 5    0  0.1141006E+000  0.2618004E+03  0.7546771E-02  0.1106066E+00
          1   -1    0    0  503    0 -0.00000000000E+00  0.00000000000E+00  0.21280111957E+03  0.21280111957E+03  0.00000000000E+00 0. -1.
         21   -1    0    0  501  502  0.00000000000E+00 -0.00000000000E+00 -0.60104712148E+03  0.60104712148E+03  0.00000000000E+00 0.  1.
         25    1    1    2    0    0 -0.17017306747E+03 -0.16687176944E+03 -0.36287518437E+03  0.45178364265E+03  0.12500000000E+03 0.  0.
         21    1    1    2  503  502  0.11202233670E+03 -0.58775350112E+02 -0.25476692942E+02  0.12904498279E+03  0.00000000000E+00 0. -1.
          1    1    1    2  501    0  0.58150730770E+02  0.22564711956E+03  0.10587540565E+00  0.23301961562E+03  0.00000000000E+00 0. -1.
<mgrwt>
<rscale>  4 0.26180038E+03</rscale>
<asrwt>0</asrwt>
<pdfrwt beam="1">  1       21 0.92468787E-01 0.26180038E+03</pdfrwt>
<pdfrwt beam="2">  1        1 0.32738634E-01 0.26180038E+03</pdfrwt>
<totfact> 0.14117934E+03</totfact>
</mgrwt>
</event>
<event>
 5    0  0.1141006E+000  0.2389372E+03  0.7546771E-02  0.1120503E+00
         21   -1    0    0  503  502  0.00000000000E+00  0.00000000000E+00  0.30798898021E+03  0.30798898021E+03  0.00000000000E+00 0. -1.
         -4   -1    0    0    0  501 -0.00000000000E+00 -0.00000000000E+00 -0.21689008301E+03  0.21689008301E+03  0.00000000000E+00 0.  1.
         25    1    1    2    0    0 -0.20953620252E+03  0.16854408174E+02  0.15257911636E+03  0.28826182195E+03  0.12500000000E+03 0.  0.
         21    1    1    2  503  501  0.18095080475E+02  0.88553434803E+01 -0.36711643635E+02  0.41875933708E+02  0.00000000000E+00 0.  1.
         -4    1    1    2    0  502  0.19144112204E+03 -0.25709751654E+02 -0.24768575525E+02  0.19474130757E+03  0.00000000000E+00 0.  1.
<mgrwt>
<rscale>  4 0.23893722E+03</rscale>
<asrwt>0</asrwt>
<pdfrwt beam="1">  1       21 0.47382920E-01 0.23893722E+03</pdfrwt>
<pdfrwt beam="2">  1       -4 0.33367705E-01 0.23893722E+03</pdfrwt>
<totfact> 0.15555956E+03</totfact>
</mgrwt>
</event>
<event>
 5    0  0.1141006E+000  0.4303408E+03  0.7546771E-02  0.1033752E+00
         21   -1    0    0  501  502  0.00000000000E+00  0.00000000000E+00  0.59365529281E+03  0.59365529281E+03  0.00000000000E+00 0. -1.
          1   -1    0    0  503    0 -0.00000000000E+00 -0.00000000000E+00 -0.66957917043E+03  0.66957917043E+03  0.00000000000E+00 0. -1.
         25    1    1    2    0    0 -0.37712268876E+03 -0.10126336024E+02  0.41648686049E+03  0.57568252537E+03  0.12500000000E+03 0.  0.
         21    1    1    2  503  502 -0.39998341970E+02  0.10983520852E+02  0.95070391169E+00  0.41489865372E+02  0.00000000000E+00 0.  1.
          1    1    1    2  501    0  0.41712103073E+03 -0.85718482776E+00 -0.49336144202E+03  0.64606207250E+03  0.00000000000E+00 0. -1.
<mgrwt>
<rscale>  4 0.43034078E+03</rscale>
<asrwt>0</asrwt>
<pdfrwt beam="1">  1       21 0.91331583E-01 0.43034078E+03</pdfrwt>
<pdfrwt beam="2">  1        1 0.10301218E+00 0.43034078E+03</pdfrwt>
<totfact> 0.30497574E+02</totfact>
</mgrwt>
</event>
<event>
 5    0  0.1141006E+000  0.2319791E+03  0.7546771E-02  0.1125254E+00
         21   -1    0    0  501  502  0.00000000000E+00  0.00000000000E+00  0.87121826192E+02  0.87121826192E+02  0.00000000000E+00 0. -1.
          2   -1    0    0  503    0 -0.00000000000E+00 -0.00000000000E+00 -0.10047195925E+04  0.10047195925E+04  0.00000000000E+00 0. -1.
         25    1    1    2    0    0 -0.19642030870E+03 -0.80136572682E+02 -0.37178134404E+03  0.44592507860E+03  0.12500000000E+03 0.  0.
         21    1    1    2  503  502  0.30980715238E+02 -0.10133246993E+02 -0.41551910612E+03  0.41679565132E+03  0.00000000000E+00 0. -1.
          2    1    1    2  501    0  0.16543959347E+03  0.90269819675E+02 -0.13029731618E+03  0.22912068879E+03  0.00000000000E+00 0. -1.
<mgrwt>
<rscale>  4 0.23197913E+03</rscale>
<asrwt>0</asrwt>
<pdfrwt beam="1">  1       21 0.13403357E-01 0.23197913E+03</pdfrwt>
<pdfrwt beam="2">  1        2 0.15457226E+00 0.23197913E+03</pdfrwt>
<totfact> 0.15804198E+04</totfact>
</mgrwt>
</event>
<event>
 5    0  0.1141006E+000  0.2762330E+03  0.7546771E-02  0.1097764E+00
         21   -1    0    0  503  502  0.00000000000E+00  0.00000000000E+00  0.19461553983E+03  0.19461553983E+03  0.00000000000E+00 0. -1.
         -1   -1    0    0    0  501 -0.00000000000E+00 -0.00000000000E+00 -0.47551330559E+03  0.47551330559E+03  0.00000000000E+00 0. -1.
         25    1    1    2    0    0  0.33485844129E+02 -0.22756281995E+03 -0.26481570262E+03  0.37236876230E+03  0.12500000000E+03 0.  0.
         21    1    1    2  503  501 -0.12461433740E+02 -0.24005968667E+02 -0.35429706690E+02  0.44573960769E+02  0.00000000000E+00 0. -1.
         -1    1    1    2    0  502 -0.21024410389E+02  0.25156878862E+03  0.19347643553E+02  0.25318612235E+03  0.00000000000E+00 0. -1.
<mgrwt>
<rscale>  4 0.27623303E+03</rscale>
<asrwt>0</asrwt>
<pdfrwt beam="1">  1       21 0.29940852E-01 0.27623303E+03</pdfrwt>
<pdfrwt beam="2">  1       -1 0.73155893E-01 0.27623303E+03</pdfrwt>
<totfact> 0.19100029E+03</totfact>
</mgrwt>
</event>
<event>
 5    0  0.1141006E+000  0.2757819E+03  0.7546771E-02  0.1098015E+00
         21   -1    0    0  501  502  0.00000000000E+00  0.00000000000E+00  0.10260244404E+03  0.10260244404E+03  0.00000000000E+00 0. -1.
          2   -1    0    0  503    0 -0.00000000000E+00 -0.00000000000E+00 -0.10767641071E+04  0.10767641071E+04  0.00000000000E+00 0. -1.
         25    1    1    2    0    0  0.95532817893E+02  0.21673889201E+03 -0.17706110546E+03  0.32105747409E+03  0.12500000000E+03 0.  0.
         21    1    1    2  503  502 -0.14947442970E+02  0.42229915183E+02 -0.15331732613E+03  0.15972787571E+03  0.00000000000E+00 0. -1.
          2    1    1    2  501    0 -0.80585374923E+02 -0.25896880719E+03 -0.64378323145E+03  0.69858120132E+03  0.00000000000E+00 0. -1.
<mgrwt>
<rscale>  4 0.27578194E+03</rscale>
<asrwt>0</asrwt>
<pdfrwt beam="1">  1       21 0.15784991E-01 0.27578194E+03</pdfrwt>
<pdfrwt beam="2">  1        2 0.16565602E+00 0.27578194E+03</pdfrwt>
<totfact> 0.10498975E+04</totfact>
</mgrwt>
</event>
<event>
 5    0  0.1141006E+000  0.2493437E+03  0.7546771E-02  0.1113720E+00
         21   -1    0    0  501  502  0.00000000000E+00  0.00000000000E+00  0.11080604318E+03  0.11080604318E+03  0.00000000000E+00 0. -1.
          2   -1    0    0  503    0 -0.00000000000E+00 -0.00000000000E+00 -0.16159977568E+04  0.16159977568E+04  0.00000000000E+00 0. -1.
         25    1    1    2    0    0 -0.17841910313E+03 -0.13600112982E+03 -0.68328792802E+02  0.26575083744E+03  0.12500000000E+03 0.  0.
         21    1    1    2  503  502  0.86558901279E+02 -0.15161393073E+02 -0.48040455665E+03  0.48837572552E+03  0.00000000000E+00 0. -1.
          2    1    1    2  501    0  0.91860201856E+02  0.15116252289E+03 -0.95645836420E+03  0.97267723704E+03  0.00000000000E+00 0. -1.
<mgrwt>
<rscale>  4 0.24934374E+03</rscale>
<asrwt>0</asrwt>
<pdfrwt beam="1">  1       21 0.17047084E-01 0.24934374E+03</pdfrwt>
<pdfrwt beam="2">  1        2 0.24861503E+00 0.24934374E+03</pdfrwt>
<totfact> 0.46195660E+03</totfact>
</mgrwt>
</event>
<event>
 5    0  0.1141006E+000  0.2714509E+03  0.7546771E-02  0.1100452E+00
          3   -1    0    0  503    0 -0.00000000000E+00  0.00000000000E+00  0.48171068782E+03  0.48171068782E+03  0.00000000000E+00 0. -1.
         21   -1    0    0  501  502  0.00000000000E+00 -0.00000000000E+00 -0.17083157306E+03  0.17083157306E+03  0.00000000000E+00 0.  1.
         25    1    1    2    0    0  0.15803303491E+03  0.18809191556E+03  0.12273719274E+03  0.30173237696E+03  0.12500000000E+03 0.  0.
         21    1    1    2  503  502  0.16904304478E+02 -0.25570465895E+02 -0.17835375631E+02  0.35464134839E+02  0.00000000000E+00 0. -1.
          3    1    1    2  501    0 -0.17493733939E+03 -0.16252144967E+03  0.20597729766E+03  0.31534574908E+03  0.00000000000E+00 0. -1.
<mgrwt>
<rscale>  4 0.27145094E+03</rscale>
<asrwt>0</asrwt>
<pdfrwt beam="1">  1       21 0.26281781E-01 0.27145094E+03</pdfrwt>
<pdfrwt beam="2">  1        3 0.74109336E-01 0.27145094E+03</pdfrwt>
<totfact> 0.11913364E+03</totfact>
</mgrwt>
</event>
<event>
 5    0  0.1141006E+000  0.5788818E+03  0.7546771E-02  0.9950215E-01
         21   -1    0    0  501  502  0.00000000000E+00  0.00000000000E+00  0.34383983602E+03  0.34383983602E+03  0.00000000000E+00 0.  1.
          2   -1    0    0  503    0 -0.00000000000E+00 -0.00000000000E+00 -0.99821784105E+03  0.99821784105E+03  0.00000000000E+00 0.  1.
         25    1    1    2    0    0  0.19467334859E+03 -0.53064247355E+03 -0.19580373783E+03  0.61110003366E+03  0.12500000000E+03 0.  0.
         21    1    1    2  503  502  0.49255637800E+01  0.21681583578E+02 -0.22614979405E+02  0.31714185130E+02  0.00000000000E+00 0.  1.
          2    1    1    2  501    0 -0.19959891237E+03  0.50896088997E+03 -0.43595928779E+03  0.69924345829E+03  0.00000000000E+00 0.  1.
<mgrwt>
<rscale>  4 0.57888181E+03</rscale>
<asrwt>0</asrwt>
<pdfrwt beam="1">  1       21 0.52898437E-01 0.57888181E+03</pdfrwt>
<pdfrwt beam="2">  1        2 0.15357197E+00 0.57888181E+03</pdfrwt>
<totfact> 0.10003458E+03</totfact>
</mgrwt>
</event>
<event>
 5    0  0.1141006E+000  0.2578374E+03  0.7546771E-02  0.1108450E+00
         21   -1    0    0  503  502  0.00000000000E+00  0.00000000000E+00  0.14376583317E+04  0.14376583317E+04  0.00000000000E+00 0.  1.
         -4   -1    0    0    0  501 -0.00000000000E+00 -0.00000000000E+00 -0.48598033759E+02  0.48598033759E+02  0.00000000000E+00 0. -1.
         25    1    1    2    0    0 -0.79939859569E+02 -0.22227224021E+03  0.70605798771E+03  0.75494252226E+03  0.12500000000E+03 0.  0.
         21    1    1    2  503  501 -0.13429240888E+02  0.25000309889E+02  0.24185320650E+02  0.37286589283E+02  0.00000000000E+00 0.  1.
         -4    1    1    2    0  502  0.93369100457E+02  0.19727193032E+03  0.65881698957E+03  0.69402725390E+03  0.00000000000E+00 0. -1.
<mgrwt>
<rscale>  4 0.25783738E+03</rscale>
<asrwt>0</asrwt>
<pdfrwt beam="1">  1       21 0.22117817E+00 0.25783738E+03</pdfrwt>
<pdfrwt beam="2">  1       -4 0.74766217E-02 0.25783738E+03</pdfrwt>
<totfact> 0.50405334E+02</totfact>
</mgrwt>
</event>
<event>
 5    0  0.1141006E+000  0.3688108E+03  0.7546771E-02  0.1055149E+00
         21   -1    0    0  501  502  0.00000000000E+00  0.00000000000E+00  0.18386074765E+03  0.18386074765E+03  0.00000000000E+00 0. -1.
          1   -1    0    0  503    0 -0.00000000000E+00 -0.00000000000E+00 -0.98973121084E+03  0.98973121084E+03  0.00000000000E+00 0.  1.
         25    1    1    2    0    0 -0.35599700016E+03  0.27515336969E+02 -0.15543533928E+03  0.40899401290E+03  0.12500000000E+03 0.  0.
         21    1    1    2  503  502  0.31734435172E+02  0.36389758553E+02 -0.20104378616E+03  0.20676047218E+03  0.00000000000E+00 0.  1.
          1    1    1    2  501    0  0.32426256499E+03 -0.63905095522E+02 -0.44939133775E+03  0.55783747340E+03  0.00000000000E+00 0.  1.
<mgrwt>
<rscale>  4 0.36881075E+03</rscale>
<asrwt>0</asrwt>
<pdfrwt beam="1">  1       21 0.28286269E-01 0.36881075E+03</pdfrwt>
<pdfrwt beam="2">  1        1 0.15226634E+00 0.36881075E+03</pdfrwt>
<totfact> 0.20538948E+03</totfact>
</mgrwt>
</event>
<event>
 5    0  0.1141006E+000  0.2683215E+03  0.7546771E-02  0.1102244E+00
         21   -1    0    0  501  502  0.00000000000E+00  0.00000000000E+00  0.15509365314E+03  0.15509365314E+03  0.00000000000E+00 0. -1.
          1   -1    0    0  503    0 -0.00000000000E+00 -0.00000000000E+00 -0.63005114391E+03  0.63005114391E+03  0.00000000000E+00 0. -1.
         25    1    1    2    0    0  0.16541371399E+03  0.16703129468E+03 -0.94443780748E+02  0.28249916443E+03  0.12500000000E+03 0.  0.
         21    1    1    2  503  502  0.41737756640E+02 -0.37268972139E+02 -0.17358529454E+03  0.18238111496E+03  0.00000000000E+00 0. -1.
          1    1    1    2  501    0 -0.20715147063E+03 -0.12976232254E+03 -0.20692841549E+03  0.32026451766E+03  0.00000000000E+00 0. -1.
<mgrwt>
<rscale>  4 0.26832155E+03</rscale>
<asrwt>0</asrwt>
<pdfrwt beam="1">  1       21 0.23860562E-01 0.26832155E+03</pdfrwt>
<pdfrwt beam="2">  1        1 0.96930944E-01 0.26832155E+03</pdfrwt>
<totfact> 0.59122458E+03</totfact>
</mgrwt>
</event>
<event>
 5    0  0.1141006E+000  0.3231673E+03  0.7546771E-02  0.1074201E+00
         -1   -1    0    0    0  501 -0.00000000000E+00  0.00000000000E+00  0.89108786991E+03  0.89108786991E+03  0.00000000000E+00 0. -1.
         21   -1    0    0  503  502  0.00000000000E+00 -0.00000000000E+00 -0.17221911981E+03  0.17221911981E+03  0.00000000000E+00 0. -1.
         25    1    1    2    0    0  0.28349075658E+03 -0.11832148657E+03  0.12199257456E+03  0.35337539741E+03  0.12500000000E+03 0.  0.
         21    1    1    2  503  501 -0.90344630465E+01  0.41291074032E+02  0.28215385613E+03  0.28530224824E+03  0.00000000000E+00 0. -1.
         -1    1    1    2    0  502 -0.27445629353E+03  0.77030412543E+02  0.31472231941E+03  0.42462934408E+03  0.00000000000E+00 0. -1.
<mgrwt>
<rscale>  4 0.32316734E+03</rscale>
<asrwt>0</asrwt>
<pdfrwt beam="1">  1       21 0.26495250E-01 0.32316734E+03</pdfrwt>
<pdfrwt beam="2">  1       -1 0.13709044E+00 0.32316734E+03</pdfrwt>
<totfact> 0.58230385E+02</totfact>
</mgrwt>
</event>
<event>
 5    0  0.1141006E+000  0.4527146E+03  0.7546771E-02  0.1026916E+00
          1   -1    0    0  503    0 -0.00000000000E+00  0.00000000000E+00  0.96729484122E+03  0.96729484122E+03  0.00000000000E+00 0.  1.
         21   -1    0    0  501  502  0.00000000000E+00 -0.00000000000E+00 -0.18601776808E+04  0.18601776808E+04  0.00000000000E+00 0.  1.
         25    1    1    2    0    0 -0.34032809433E+03 -0.27213935737E+03 -0.17680260308E+04  0.18252189148E+04  0.12500000000E+03 0.  0.
         21    1    1    2  503  502  0.51481882930E+01  0.27839341981E+02 -0.54870072411E+01  0.28838170072E+02  0.00000000000E+00 0. -1.
          1    1    1    2  501    0  0.33517990604E+03  0.24430001539E+03  0.88063019839E+03  0.97341543714E+03  0.00000000000E+00 0.  1.
<mgrwt>
<rscale>  4 0.45271456E+03</rscale>
<asrwt>0</asrwt>
<pdfrwt beam="1">  1       21 0.28618118E+00 0.45271456E+03</pdfrwt>
<pdfrwt beam="2">  1        1 0.14881459E+00 0.45271456E+03</pdfrwt>
<totfact> 0.61023945E+00</totfact>
</mgrwt>
</event>
<event>
 5    0  0.1141006E+000  0.2529355E+03  0.7546771E-02  0.1111464E+00
         21   -1    0    0  503  502  0.00000000000E+00  0.00000000000E+00  0.70301973304E+02  0.70301973304E+02  0.00000000000E+00 0.  1.
         -1   -1    0    0    0  501 -0.00000000000E+00 -0.00000000000E+00 -0.13906956028E+04  0.13906956028E+04  0.00000000000E+00 0.  1.
         25    1    1    2    0    0 -0.98733873180E+02 -0.20264942701E+03 -0.26811168177E+03  0.37191940240E+03  0.12500000000E+03 0.  0.
         21    1    1    2  503  501 -0.45691508911E+02  0.47853643190E+02 -0.19013397260E+03  0.20131719423E+03  0.00000000000E+00 0.  1.
         -1    1    1    2    0  502  0.14442538209E+03  0.15479578382E+03 -0.86214797513E+03  0.88776097949E+03  0.00000000000E+00 0.  1.
<mgrwt>
<rscale>  4 0.25293550E+03</rscale>
<asrwt>0</asrwt>
<pdfrwt beam="1">  1       21 0.10815689E-01 0.25293550E+03</pdfrwt>
<pdfrwt beam="2">  1       -1 0.21395315E+00 0.25293550E+03</pdfrwt>
<totfact> 0.89030441E+02</totfact>
</mgrwt>
</event>
<event>
 5    0  0.1141006E+000  0.3292936E+03  0.7546771E-02  0.1071450E+00
         21   -1    0    0  501  502  0.00000000000E+00  0.00000000000E+00  0.18081827661E+04  0.18081827661E+04  0.00000000000E+00 0.  1.
          3   -1    0    0  503    0 -0.00000000000E+00 -0.00000000000E+00 -0.11376739125E+03  0.11376739125E+03  0.00000000000E+00 0. -1.
         25    1    1    2    0    0  0.30161103827E+03  0.42895775049E+02  0.15450155985E+04  0.15797175271E+04  0.12500000000E+03 0.  0.
         21    1    1    2  503  502 -0.20035098767E+02  0.78104728241E+01  0.67561169894E+01  0.22540048472E+02  0.00000000000E+00 0.  1.
          3    1    1    2  501    0 -0.28157593950E+03 -0.50706247873E+02  0.14264365940E+03  0.31969258178E+03  0.00000000000E+00 0. -1.
<mgrwt>
<rscale>  4 0.32929359E+03</rscale>
<asrwt>0</asrwt>
<pdfrwt beam="1">  1       21 0.27818194E+00 0.32929359E+03</pdfrwt>
<pdfrwt beam="2">  1        3 0.17502677E-01 0.32929359E+03</pdfrwt>
<totfact> 0.58548624E+01</totfact>
</mgrwt>
</event>
<event>
 5    0  0.1141006E+000  0.4521830E+03  0.7546771E-02  0.1028811E+00
          2   -1    0    0  503    0 -0.00000000000E+00  0.00000000000E+00  0.10587929506E+04  0.10587929506E+04  0.00000000000E+00 0.  1.
         21   -1    0    0  501  502  0.00000000000E+00 -0.00000000000E+00 -0.44761774095E+03  0.44761774095E+03  0.00000000000E+00 0.  1.
         25    1    1    2    0    0  0.76069990278E+02  0.40366586452E+03 -0.27615358680E+03  0.51050815576E+03  0.12500000000E+03 0.  0.
         21    1    1    2  503  502 -0.11248983880E+01 -0.14577411191E+03  0.52520081593E+03  0.54505711091E+03  0.00000000000E+00 0.  1.
          2    1    1    2  501    0 -0.74945091890E+02 -0.25789175261E+03  0.36212798050E+03  0.45084542487E+03  0.00000000000E+00 0.  1.
<mgrwt>
<rscale>  4 0.44636831E+03</rscale>
<asrwt>0</asrwt>
<pdfrwt beam="1">  1       21 0.68864268E-01 0.45218300E+03</pdfrwt>
<pdfrwt beam="2">  1        2 0.16289122E+00 0.45218300E+03</pdfrwt>
<totfact> 0.52875398E+02</totfact>
</mgrwt>
</event>
<event>
 5    0  0.1141006E+000  0.4050886E+03  0.7546771E-02  0.1042032E+00
          1   -1    0    0  503    0 -0.00000000000E+00  0.00000000000E+00  0.17107843956E+04  0.17107843956E+04  0.00000000000E+00 0.  1.
         21   -1    0    0  501  502  0.00000000000E+00 -0.00000000000E+00 -0.13924579127E+03  0.13924579127E+03  0.00000000000E+00 0. -1.
         25    1    1    2    0    0  0.13484583715E+03 -0.36851267406E+03  0.31178188300E+03  0.51654422203E+03  0.12500000000E+03 0.  0.
         21    1    1    2  503  502 -0.31226288749E+02 -0.79099734526E+00  0.23488671231E+02  0.39082278107E+02  0.00000000000E+00 0.  1.
          1    1    1    2  501    0 -0.10361954840E+03  0.36930367141E+03  0.12362680501E+04  0.12944036868E+04  0.00000000000E+00 0.  1.
<mgrwt>
<rscale>  4 0.40508858E+03</rscale>
<asrwt>0</asrwt>
<pdfrwt beam="1">  1       21 0.21422431E-01 0.40508858E+03</pdfrwt>
<pdfrwt beam="2">  1        1 0.26319758E+00 0.40508858E+03</pdfrwt>
<totfact> 0.10994988E+03</totfact>
</mgrwt>
</event>
<event>
 5    0  0.1141006E+000  0.3358882E+03  0.7546771E-02  0.1068561E+00
          2   -1    0    0  503    0 -0.00000000000E+00  0.00000000000E+00  0.12911483123E+04  0.12911483123E+04  0.00000000000E+00 0. -1.
         21   -1    0    0  501  502  0.00000000000E+00 -0.00000000000E+00 -0.77392742600E+03  0.77392742600E+03  0.00000000000E+00 0. -1.
         25    1    1    2    0    0 -0.24397215580E+03  0.19409648049E+03 -0.71637224729E+03  0.79120797091E+03  0.12500000000E+03 0.  0.
         21    1    1    2  503  502  0.12333860223E+02 -0.30939313324E+02  0.99906322485E+02  0.10531210039E+03  0.00000000000E+00 0.  1.
          2    1    1    2  501    0  0.23163829558E+03 -0.16315716717E+03  0.11336868111E+04  0.11685556670E+04  0.00000000000E+00 0. -1.
<mgrwt>
<rscale>  4 0.33588816E+03</rscale>
<asrwt>0</asrwt>
<pdfrwt beam="1">  1       21 0.11906576E+00 0.33588816E+03</pdfrwt>
<pdfrwt beam="2">  1        2 0.19863820E+00 0.33588816E+03</pdfrwt>
<totfact> 0.11066822E+02</totfact>
</mgrwt>
</event>
<event>
 5    0  0.1141006E+000  0.2288186E+03  0.7546771E-02  0.1127474E+00
         21   -1    0    0  501  502  0.00000000000E+00  0.00000000000E+00  0.88940292275E+02  0.88940292275E+02  0.00000000000E+00 0.  1.
          2   -1    0    0  503    0 -0.00000000000E+00 -0.00000000000E+00 -0.14707054241E+04  0.14707054241E+04  0.00000000000E+00 0. -1.
         25    1    1    2    0    0 -0.27421881209E+02  0.19811215032E+03 -0.99265074054E+02  0.25588852768E+03  0.12500000000E+03 0.  0.
         21    1    1    2  503  502  0.54483257539E+02 -0.38583582332E+02 -0.52070862418E+03  0.52497103680E+03  0.00000000000E+00 0. -1.
          2    1    1    2  501    0 -0.27061376330E+02 -0.15952856799E+03 -0.76179143358E+03  0.77878615188E+03  0.00000000000E+00 0. -1.
<mgrwt>
<rscale>  4 0.22881861E+03</rscale>
<asrwt>0</asrwt>
<pdfrwt beam="1">  1       21 0.13683122E-01 0.22881861E+03</pdfrwt>
<pdfrwt beam="2">  1        2 0.22626237E+00 0.22881861E+03</pdfrwt>
<totfact> 0.83173389E+03</totfact>
</mgrwt>
</event>
<event>
 5    0  0.1141006E+000  0.3355265E+03  0.7546771E-02  0.1068717E+00
         21   -1    0    0  501  502  0.00000000000E+00  0.00000000000E+00  0.94297080714E+03  0.94297080714E+03  0.00000000000E+00 0. -1.
          2   -1    0    0  503    0 -0.00000000000E+00 -0.00000000000E+00 -0.12373004902E+04  0.12373004902E+04  0.00000000000E+00 0.  1.
         25    1    1    2    0    0 -0.26514805098E+03 -0.16324693087E+03  0.89064771907E+03  0.95175175800E+03  0.12500000000E+03 0.  0.
         21    1    1    2  503  502  0.32049728455E+02  0.14885450518E+02 -0.28221863709E+03  0.28442243380E+03  0.00000000000E+00 0. -1.
          2    1    1    2  501    0  0.23309832252E+03  0.14836148035E+03 -0.90275876503E+03  0.94409710552E+03  0.00000000000E+00 0.  1.
<mgrwt>
<rscale>  4 0.33552653E+03</rscale>
<asrwt>0</asrwt>
<pdfrwt beam="1">  1       21 0.14507243E+00 0.33552653E+03</pdfrwt>
<pdfrwt beam="2">  1        2 0.19035392E+00 0.33552653E+03</pdfrwt>
<totfact> 0.71248705E+01</totfact>
</mgrwt>
</event>
<event>
 5    0  0.1141006E+000  0.2608832E+03  0.7546771E-02  0.1106614E+00
         21   -1    0    0  503  502  0.00000000000E+00  0.00000000000E+00  0.31415961113E+03  0.31415961113E+03  0.00000000000E+00 0.  1.
         -2   -1    0    0    0  501 -0.00000000000E+00 -0.00000000000E+00 -0.46646474391E+03  0.46646474391E+03  0.00000000000E+00 0.  1.
         25    1    1    2    0    0 -0.24570632024E+03 -0.12185123232E+01 -0.14406190994E+03  0.31104969776E+03  0.12500000000E+03 0.  0.
         21    1    1    2  503  501  0.21199602431E+02  0.17124266220E+02 -0.18275481922E+03  0.18477550591E+03  0.00000000000E+00 0.  1.
         -2    1    1    2    0  502  0.22450671781E+03 -0.15905753897E+02  0.17451159639E+03  0.28479915137E+03  0.00000000000E+00 0.  1.
<mgrwt>
<rscale>  4 0.26088317E+03</rscale>
<asrwt>0</asrwt>
<pdfrwt beam="1">  1       21 0.48332248E-01 0.26088317E+03</pdfrwt>
<pdfrwt beam="2">  1       -2 0.71763807E-01 0.26088317E+03</pdfrwt>
<totfact> 0.58898173E+02</totfact>
</mgrwt>
</event>
<event>
 5    0  0.1141006E+000  0.7854249E+03  0.7546771E-02  0.9581357E-01
          2   -1    0    0  503    0 -0.00000000000E+00  0.00000000000E+00  0.12064031271E+04  0.12064031271E+04  0.00000000000E+00 0.  1.
         21   -1    0    0  501  502  0.00000000000E+00 -0.00000000000E+00 -0.13177779799E+04  0.13177779799E+04  0.00000000000E+00 0. -1.
         25    1    1    2    0    0  0.60126842841E+02  0.76012176419E+03 -0.10027861042E+04  0.12659404822E+04  0.12500000000E+03 0.  0.
         21    1    1    2  503  502 -0.52263444399E+02  0.17083709079E+02 -0.21710152863E+02  0.59115577250E+02  0.00000000000E+00 0. -1.
          2    1    1    2  501    0 -0.78633984425E+01 -0.77720547327E+03  0.91312140429E+03  0.11991250476E+04  0.00000000000E+00 0.  1.
<mgrwt>
<rscale>  4 0.78542487E+03</rscale>
<asrwt>0</asrwt>
<pdfrwt beam="1">  1       21 0.20273507E+00 0.78542487E+03</pdfrwt>
<pdfrwt beam="2">  1        2 0.18560048E+00 0.78542487E+03</pdfrwt>
<totfact> 0.23834632E+01</totfact>
</mgrwt>
</event>
<event>
 5    0  0.1141006E+000  0.2584812E+03  0.7546771E-02  0.1108059E+00
          3   -1    0    0  503    0 -0.00000000000E+00  0.00000000000E+00  0.21458551270E+03  0.21458551270E+03  0.00000000000E+00 0.  1.
         21   -1    0    0  501  502  0.00000000000E+00 -0.00000000000E+00 -0.57173923884E+03  0.57173923884E+03  0.00000000000E+00 0.  1.
         25    1    1    2    0    0  0.45446268275E+02  0.22281014163E+03 -0.45055745994E+03  0.51993917646E+03  0.12500000000E+03 0.  0.
         21    1    1    2  503  502  0.24366079514E+02 -0.11920336610E+02  0.68724544221E+01  0.27982689034E+02  0.00000000000E+00 0. -1.
          3    1    1    2  501    0 -0.69812347789E+02 -0.21088980502E+03  0.86531279384E+02  0.23840288605E+03  0.00000000000E+00 0.  1.
<mgrwt>
<rscale>  4 0.25848119E+03</rscale>
<asrwt>0</asrwt>
<pdfrwt beam="1">  1       21 0.87959882E-01 0.25848119E+03</pdfrwt>
<pdfrwt beam="2">  1        3 0.33013156E-01 0.25848119E+03</pdfrwt>
<totfact> 0.48333949E+02</totfact>
</mgrwt>
</event>
<event>
 5    0  0.1141006E+000  0.3688112E+03  0.7546771E-02  0.1055148E+00
          2   -1    0    0  503    0 -0.00000000000E+00  0.00000000000E+00  0.13017337151E+04  0.13017337151E+04  0.00000000000E+00 0.  1.
         21   -1    0    0  501  502  0.00000000000E+00 -0.00000000000E+00 -0.51368168164E+03  0.51368168164E+03  0.00000000000E+00 0. -1.
         25    1    1    2    0    0 -0.15991199597E+03 -0.30752276150E+03 -0.39312832310E+03  0.53881070305E+03  0.12500000000E+03 0.  0.
         21    1    1    2  503  502 -0.67410560561E+02  0.28554146923E+02  0.47715732861E+02  0.87386006569E+02  0.00000000000E+00 0.  1.
          2    1    1    2  501    0  0.22732255653E+03  0.27896861458E+03  0.11334646237E+04  0.11892186871E+04  0.00000000000E+00 0.  1.
<mgrwt>
<rscale>  4 0.36881119E+03</rscale>
<asrwt>0</asrwt>
<pdfrwt beam="1">  1       21 0.79027952E-01 0.36881119E+03</pdfrwt>
<pdfrwt beam="2">  1        2 0.20026672E+00 0.36881119E+03</pdfrwt>
<totfact> 0.28711803E+02</totfact>
</mgrwt>
</event>
<event>
 5    0  0.1141006E+000  0.4194733E+03  0.7546771E-02  0.1037502E+00
          2   -1    0    0  503    0 -0.00000000000E+00  0.00000000000E+00  0.30353209682E+04  0.30353209682E+04  0.00000000000E+00 0. -1.
         21   -1    0    0  501  502  0.00000000000E+00 -0.00000000000E+00 -0.12639844854E+03  0.12639844854E+03  0.00000000000E+00 0. -1.
         25    1    1    2    0    0  0.19381010105E+03  0.34652133871E+03  0.28497759583E+03  0.50445676086E+03  0.12500000000E+03 0.  0.
         21    1    1    2  503  502  0.19098112176E+02 -0.56829726114E+02  0.37041213990E+03  0.37523260659E+03  0.00000000000E+00 0. -1.
          2    1    1    2  501    0 -0.21290821322E+03 -0.28969161259E+03  0.22535327840E+04  0.22820300493E+04  0.00000000000E+00 0. -1.
<mgrwt>
<rscale>  4 0.41866525E+03</rscale>
<asrwt>0</asrwt>
<pdfrwt beam="1">  1       21 0.19445917E-01 0.41947331E+03</pdfrwt>
<pdfrwt beam="2">  1        2 0.46697240E+00 0.41947331E+03</pdfrwt>
<totfact> 0.56008205E+02</totfact>
</mgrwt>
</event>
<event>
 5    0  0.1141006E+000  0.2447838E+03  0.7546771E-02  0.1116646E+00
         21   -1    0    0  503  502  0.00000000000E+00  0.00000000000E+00  0.14218806980E+04  0.14218806980E+04  0.00000000000E+00 0.  1.
         -1   -1    0    0    0  501 -0.00000000000E+00 -0.00000000000E+00 -0.23015032151E+03  0.23015032151E+03  0.00000000000E+00 0.  1.
         25    1    1    2    0    0  0.19154088652E+03  0.85709244246E+02  0.13383161947E+04  0.13604224427E+04  0.12500000000E+03 0.  0.
         21    1    1    2  503  501  0.19057968154E+02 -0.12505416510E+02  0.31850040375E+01  0.23015991027E+02  0.00000000000E+00 0. -1.
         -1    1    1    2    0  502 -0.21059885468E+03 -0.73203827737E+02 -0.14977082215E+03  0.26859258582E+03  0.00000000000E+00 0.  1.
<mgrwt>
<rscale>  4 0.24478382E+03</rscale>
<asrwt>0</asrwt>
<pdfrwt beam="1">  1       21 0.21875087E+00 0.24478382E+03</pdfrwt>
<pdfrwt beam="2">  1       -1 0.35407743E-01 0.24478382E+03</pdfrwt>
<totfact> 0.68919614E+01</totfact>
</mgrwt>
</event>
<event>
 5    0  0.1141006E+000  0.2876536E+03  0.7546771E-02  0.1091581E+00
         21   -1    0    0  501  502  0.00000000000E+00  0.00000000000E+00  0.14738464744E+03  0.14738464744E+03  0.00000000000E+00 0.  1.
          2   -1    0    0  503    0 -0.00000000000E+00 -0.00000000000E+00 -0.11211004422E+04  0.11211004422E+04  0.00000000000E+00 0.  1.
         25    1    1    2    0    0  0.26570364237E+03 -0.11020832985E+03 -0.10963278347E+03  0.33224787245E+03  0.12500000000E+03 0.  0.
         21    1    1    2  503  502 -0.56590032576E+02  0.58663418151E+02 -0.54630049593E+03  0.55234777113E+03  0.00000000000E+00 0.  1.
          2    1    1    2  501    0 -0.20911360980E+03  0.51544911696E+02 -0.31778251537E+03  0.38388944606E+03  0.00000000000E+00 0.  1.
<mgrwt>
<rscale>  4 0.28765361E+03</rscale>
<asrwt>0</asrwt>
<pdfrwt beam="1">  1       21 0.22674561E-01 0.28765361E+03</pdfrwt>
<pdfrwt beam="2">  1        2 0.17247699E+00 0.28765361E+03</pdfrwt>
<totfact> 0.49972224E+03</totfact>
</mgrwt>
</event>
