<event>
 5    0  0.2396052E+000  0.4950911E+03  0.7546771E-02  0.1015068E+00
          1   -1    0    0  503    0 -0.00000000000E+00  0.00000000000E+00  0.20167101559E+04  0.20167101559E+04  0.00000000000E+00 0. -1.
         21   -1    0    0  501  502  0.00000000000E+00 -0.00000000000E+00 -0.14931491925E+03  0.14931491925E+03  0.00000000000E+00 0.  1.
         25    1    1    2    0    0  0.24917832379E+02  0.30522188544E+03  0.86725551753E+02  0.34194680734E+03  0.12500000000E+03 0.  0.
         21    1    1    2  503  502  0.80534464418E+02 -0.26919641643E+02  0.23153509534E+03  0.24661501868E+03  0.00000000000E+00 0. -1.
          1    1    1    2  501    0 -0.10545229680E+03 -0.27830224380E+03  0.15491345896E+04  0.15774632492E+04  0.00000000000E+00 0. -1.
<mgrwt>
<rscale>  4 0.49509109E+03</rscale>
<asrwt>0</asrwt>
<pdfrwt beam="1">  1       21 0.22971528E-01 0.49509109E+03</pdfrwt>
<pdfrwt beam="2">  1        1 0.31026308E+00 0.49509109E+03</pdfrwt>
<totfact> 0.58868524E+02</totfact>
</mgrwt>
</event>
<event>
 5    0  0.2396052E+000  0.4919687E+03  0.7546771E-02  0.1015897E+00
         21   -1    0    0  501  502  0.00000000000E+00  0.00000000000E+00  0.91733928136E+02  0.91733928136E+02  0.00000000000E+00 0. -1.
          2   -1    0    0  503    0 -0.00000000000E+00 -0.00000000000E+00 -0.12651137097E+04  0.12651137097E+04  0.00000000000E+00 0. -1.
         25    1    1    2    0    0  0.18420477969E+03  0.16265583064E+03 -0.26800800319E+03  0.38450176836E+03  0.12500000000E+03 0.  0.
         21    1    1    2  503  502 -0.19685199917E+03 -0.62011501593E+02 -0.33840156634E+03  0.39637325340E+03  0.00000000000E+00 0.  1.
          2    1    1    2  501    0  0.12647219480E+02 -0.10064432905E+03 -0.56697021202E+03  0.57597261606E+03  0.00000000000E+00 0. -1.
<mgrwt>
<rscale>  4 0.49196873E+03</rscale>
<asrwt>0</asrwt>
<pdfrwt beam="1">  1       21 0.14112913E-01 0.49196873E+03</pdfrwt>
<pdfrwt beam="2">  1        2 0.19463287E+00 0.49196873E+03</pdfrwt>
<totfact> 0.96415651E+03</totfact>
</mgrwt>
</event>
<event>
 5    0  0.2396052E+000  0.3558691E+03  0.7546771E-02  0.1060232E+00
          2   -1    0    0  503    0 -0.00000000000E+00  0.00000000000E+00  0.32283259323E+04  0.32283259323E+04  0.00000000000E+00 0.  1.
         21   -1    0    0  501  502  0.00000000000E+00 -0.00000000000E+00 -0.43746284833E+03  0.43746284833E+03  0.00000000000E+00 0.  1.
         25    1    1    2    0    0  0.23692793115E+03 -0.16409019001E+01 -0.36369003309E+03  0.45170009662E+03  0.12500000000E+03 0.  0.
         21    1    1    2  503  502  0.27821508738E+02 -0.45234536878E+02  0.52891009391E+01  0.53368288934E+02  0.00000000000E+00 0. -1.
          2    1    1    2  501    0 -0.26474943989E+03  0.46875438778E+02  0.31492640161E+04  0.31607203951E+04  0.00000000000E+00 0.  1.
<mgrwt>
<rscale>  4 0.35586914E+03</rscale>
<asrwt>0</asrwt>
<pdfrwt beam="1">  1       21 0.67301979E-01 0.35586914E+03</pdfrwt>
<pdfrwt beam="2">  1        2 0.49666551E+00 0.35586914E+03</pdfrwt>
<totfact> 0.35066934E+01</totfact>
</mgrwt>
</event>
<event>
 5    0  0.2396052E+000  0.8409744E+03  0.7546771E-02  0.9502531E-01
          1   -1    0    0  503    0 -0.00000000000E+00  0.00000000000E+00  0.98737843979E+03  0.98737843979E+03  0.00000000000E+00 0. -1.
         21   -1    0    0  501  502  0.00000000000E+00 -0.00000000000E+00 -0.48969924225E+03  0.48969924225E+03  0.00000000000E+00 0. -1.
         25    1    1    2    0    0 -0.88410708151E+02  0.18247439264E+03 -0.42921678820E+03  0.49088227566E+03  0.12500000000E+03 0.  0.
         21    1    1    2  503  502  0.25053723207E+02 -0.19108230428E+03  0.30341938819E+03  0.35944882972E+03  0.00000000000E+00 0.  1.
          1    1    1    2  501    0  0.63356984944E+02  0.86079116415E+01  0.62347659754E+03  0.62674657667E+03  0.00000000000E+00 0. -1.
<mgrwt>
<rscale>  4 0.84097444E+03</rscale>
<asrwt>0</asrwt>
<pdfrwt beam="1">  1       21 0.75338345E-01 0.84097444E+03</pdfrwt>
<pdfrwt beam="2">  1        1 0.15190437E+00 0.84097444E+03</pdfrwt>
<totfact> 0.23494361E+02</totfact>
</mgrwt>
</event>
<event>
 5    0  0.2396052E+000  0.4120078E+03  0.7546771E-02  0.1039699E+00
          2   -1    0    0  503    0 -0.00000000000E+00  0.00000000000E+00  0.22549438824E+04  0.22549438824E+04  0.00000000000E+00 0. -1.
         21   -1    0    0  501  502  0.00000000000E+00 -0.00000000000E+00 -0.72817662585E+02  0.72817662585E+02  0.00000000000E+00 0. -1.
         25    1    1    2    0    0  0.43715978566E+02  0.32341552999E+03  0.52050257864E+03  0.62694228299E+03  0.12500000000E+03 0.  0.
         21    1    1    2  503  502  0.88888207247E-01 -0.62152255606E+02  0.10662714476E+03  0.12341903734E+03  0.00000000000E+00 0.  1.
          2    1    1    2  501    0 -0.43804866773E+02 -0.26126327439E+03  0.15549964965E+04  0.15774002247E+04  0.00000000000E+00 0. -1.
<mgrwt>
<rscale>  4 0.41200779E+03</rscale>
<asrwt>0</asrwt>
<pdfrwt beam="1">  1       21 0.11202719E-01 0.41200779E+03</pdfrwt>
<pdfrwt beam="2">  1        2 0.34691439E+00 0.41200779E+03</pdfrwt>
<totfact> 0.43326834E+03</totfact>
</mgrwt>
</event>
<event>
 5    0  0.2396052E+000  0.4960690E+03  0.7546771E-02  0.1014810E+00
         21   -1    0    0  501  502  0.00000000000E+00  0.00000000000E+00  0.14254291669E+04  0.14254291669E+04  0.00000000000E+00 0. -1.
          1   -1    0    0  503    0 -0.00000000000E+00 -0.00000000000E+00 -0.12019989617E+03  0.12019989617E+03  0.00000000000E+00 0. -1.
         25    1    1    2    0    0 -0.18548181492E+03 -0.92348308899E+02  0.39948610441E+03  0.46706087552E+03  0.12500000000E+03 0.  0.
         21    1    1    2  503  502  0.18027527960E+03  0.69586670113E+02  0.98095923718E+03  0.99981123523E+03  0.00000000000E+00 0. -1.
          1    1    1    2  501    0  0.52065353245E+01  0.22761638786E+02 -0.75216070902E+02  0.78756952279E+02  0.00000000000E+00 0. -1.
<mgrwt>
<rscale>  4 0.49606900E+03</rscale>
<asrwt>0</asrwt>
<pdfrwt beam="1">  1       21 0.21929678E+00 0.49606900E+03</pdfrwt>
<pdfrwt beam="2">  1        1 0.18492293E-01 0.49606900E+03</pdfrwt>
<totfact> 0.26624441E+02</totfact>
</mgrwt>
</event>
<event>
 5    0  0.2396052E+000  0.1024858E+04  0.7546771E-02  0.9281694E-01
         21   -1    0    0  501  502  0.00000000000E+00  0.00000000000E+00  0.62747953873E+03  0.62747953873E+03  0.00000000000E+00 0. -1.
          2   -1    0    0  503    0 -0.00000000000E+00 -0.00000000000E+00 -0.11781971690E+04  0.11781971690E+04  0.00000000000E+00 0. -1.
         25    1    1    2    0    0  0.15302245473E+03 -0.47634281401E+03 -0.92150164097E+02  0.52386544155E+03  0.12500000000E+03 0.  0.
         21    1    1    2  503  502 -0.27680005758E+03  0.33583539180E+03  0.28157365030E+03  0.51835065622E+03  0.00000000000E+00 0. -1.
          2    1    1    2  501    0  0.12377760285E+03  0.14050742221E+03 -0.74014111645E+03  0.76346060994E+03  0.00000000000E+00 0. -1.
<mgrwt>
<rscale>  4 0.10248576E+04</rscale>
<asrwt>0</asrwt>
<pdfrwt beam="1">  1       21 0.96535315E-01 0.10248576E+04</pdfrwt>
<pdfrwt beam="2">  1        2 0.18126110E+00 0.10248576E+04</pdfrwt>
<totfact> 0.18125864E+02</totfact>
</mgrwt>
</event>
<event>
 5    0  0.2396052E+000  0.4950901E+03  0.7546771E-02  0.1015068E+00
         21   -1    0    0  501  502  0.00000000000E+00  0.00000000000E+00  0.19042612436E+03  0.19042612436E+03  0.00000000000E+00 0. -1.
          2   -1    0    0  503    0 -0.00000000000E+00 -0.00000000000E+00 -0.12847440451E+04  0.12847440451E+04  0.00000000000E+00 0. -1.
         25    1    1    2    0    0 -0.15755525149E+03 -0.20277384145E+03  0.47149760496E+02  0.28946327567E+03  0.12500000000E+03 0.  0.
         21    1    1    2  503  502 -0.34048957188E+01 -0.27105171003E+02 -0.24049383052E+03  0.24204042250E+03  0.00000000000E+00 0.  1.
          2    1    1    2  501    0  0.16096014721E+03  0.22987901245E+03 -0.90097385068E+03  0.94366647125E+03  0.00000000000E+00 0. -1.
<mgrwt>
<rscale>  4 0.49509015E+03</rscale>
<asrwt>0</asrwt>
<pdfrwt beam="1">  1       21 0.29296326E-01 0.49509015E+03</pdfrwt>
<pdfrwt beam="2">  1        2 0.19765293E+00 0.49509015E+03</pdfrwt>
<totfact> 0.23237220E+03</totfact>
</mgrwt>
</event>
<event>
 5    0  0.2396052E+000  0.5813600E+03  0.7546771E-02  0.9944851E-01
         21   -1    0    0  501  502  0.00000000000E+00  0.00000000000E+00  0.23646387163E+03  0.23646387163E+03  0.00000000000E+00 0.  1.
          2   -1    0    0  503    0 -0.00000000000E+00 -0.00000000000E+00 -0.34407430515E+04  0.34407430515E+04  0.00000000000E+00 0.  1.
         25    1    1    2    0    0  0.36786116767E+03  0.90831884282E+01 -0.43981872516E+02  0.39110580167E+03  0.12500000000E+03 0.  0.
         21    1    1    2  503  502 -0.16896850830E+03 -0.76943511304E+02 -0.85972160664E+02  0.20460174275E+03  0.00000000000E+00 0.  1.
          2    1    1    2  501    0 -0.19889265937E+03  0.67860322876E+02 -0.30743251467E+04  0.30814993788E+04  0.00000000000E+00 0.  1.
<mgrwt>
<rscale>  4 0.58135998E+03</rscale>
<asrwt>0</asrwt>
<pdfrwt beam="1">  1       21 0.36379058E-01 0.58135998E+03</pdfrwt>
<pdfrwt beam="2">  1        2 0.52934507E+00 0.58135998E+03</pdfrwt>
<totfact> 0.85214297E+01</totfact>
</mgrwt>
</event>
<event>
 5    0  0.2396052E+000  0.5222862E+03  0.7546771E-02  0.1008120E+00
         21   -1    0    0  501  502  0.00000000000E+00  0.00000000000E+00  0.10888337260E+03  0.10888337260E+03  0.00000000000E+00 0.  1.
          2   -1    0    0  503    0 -0.00000000000E+00 -0.00000000000E+00 -0.32037096104E+04  0.32037096104E+04  0.00000000000E+00 0.  1.
         25    1    1    2    0    0 -0.13307924095E+03  0.20077090325E+03 -0.10554904952E+03  0.29117802427E+03  0.12500000000E+03 0.  0.
         21    1    1    2  503  502 -0.17912571445E+02  0.97497343368E+02 -0.49448874660E+03  0.50432698985E+03  0.00000000000E+00 0. -1.
          2    1    1    2  501    0  0.15099181239E+03 -0.29826824662E+03 -0.24947884416E+04  0.25170879688E+04  0.00000000000E+00 0.  1.
<mgrwt>
<rscale>  4 0.52228620E+03</rscale>
<asrwt>0</asrwt>
<pdfrwt beam="1">  1       21 0.16751289E-01 0.52228620E+03</pdfrwt>
<pdfrwt beam="2">  1        2 0.49287839E+00 0.52228620E+03</pdfrwt>
<totfact> 0.56377142E+02</totfact>
</mgrwt>
</event>
<event>
 5    0  0.2396052E+000  0.2949162E+03  0.7546771E-02  0.1087810E+00
         21   -1    0    0  501  502  0.00000000000E+00  0.00000000000E+00  0.79049585148E+02  0.79049585148E+02  0.00000000000E+00 0. -1.
          2   -1    0    0  503    0 -0.00000000000E+00 -0.00000000000E+00 -0.77712430052E+03  0.77712430052E+03  0.00000000000E+00 0.  1.
         25    1    1    2    0    0 -0.20095944063E+03 -0.37238668063E+02 -0.30064202483E+03  0.38442429980E+03  0.12500000000E+03 0.  0.
         21    1    1    2  503  502  0.29521648887E+01  0.55043169336E+02 -0.78255013297E+02  0.95719971136E+02  0.00000000000E+00 0.  1.
          2    1    1    2  501    0  0.19800727574E+03 -0.17804501273E+02 -0.31917767724E+03  0.37602961474E+03  0.00000000000E+00 0.  1.
<mgrwt>
<rscale>  4 0.29491618E+03</rscale>
<asrwt>0</asrwt>
<pdfrwt beam="1">  1       21 0.12161475E-01 0.29491618E+03</pdfrwt>
<pdfrwt beam="2">  1        2 0.11955758E+00 0.29491618E+03</pdfrwt>
<totfact> 0.26265975E+04</totfact>
</mgrwt>
</event>
<event>
 5    0  0.2396052E+000  0.3712672E+03  0.7546771E-02  0.1054209E+00
          2   -1    0    0  503    0 -0.00000000000E+00  0.00000000000E+00  0.39584898948E+04  0.39584898948E+04  0.00000000000E+00 0. -1.
         21   -1    0    0  501  502  0.00000000000E+00 -0.00000000000E+00 -0.46307696634E+02  0.46307696634E+02  0.00000000000E+00 0. -1.
         25    1    1    2    0    0 -0.20923111693E+03  0.12878758831E+03  0.50439911375E+03  0.57481072463E+03  0.12500000000E+03 0.  0.
         21    1    1    2  503  502  0.88605749468E+02 -0.29017969222E+02  0.22764680155E+03  0.24600017812E+03  0.00000000000E+00 0.  1.
          2    1    1    2  501    0  0.12062536746E+03 -0.99769619086E+02  0.31801362829E+04  0.31839866887E+04  0.00000000000E+00 0. -1.
<mgrwt>
<rscale>  4 0.37126718E+03</rscale>
<asrwt>0</asrwt>
<pdfrwt beam="1">  1       21 0.71242641E-02 0.37126718E+03</pdfrwt>
<pdfrwt beam="2">  1        2 0.60899818E+00 0.37126718E+03</pdfrwt>
<totfact> 0.84599621E+02</totfact>
</mgrwt>
</event>
<event>
 5    0  0.2396052E+000  0.5870630E+03  0.7546771E-02  0.9932616E-01
          1   -1    0    0  503    0 -0.00000000000E+00  0.00000000000E+00  0.24658165922E+03  0.24658165922E+03  0.00000000000E+00 0. -1.
         21   -1    0    0  501  502  0.00000000000E+00 -0.00000000000E+00 -0.20129862055E+04  0.20129862055E+04  0.00000000000E+00 0.  1.
         25    1    1    2    0    0 -0.21975990418E+03 -0.23978194620E+02 -0.45663483968E+03  0.52250334555E+03  0.12500000000E+03 0.  0.
         21    1    1    2  503  502  0.24522657273E+03  0.95901106050E+01 -0.15124768478E+04  0.15322578952E+04  0.00000000000E+00 0.  1.
          1    1    1    2  501    0 -0.25466668551E+02  0.14388084015E+02  0.20270714116E+03  0.20480662403E+03  0.00000000000E+00 0. -1.
<mgrwt>
<rscale>  4 0.58706296E+03</rscale>
<asrwt>0</asrwt>
<pdfrwt beam="1">  1       21 0.30969019E+00 0.58706296E+03</pdfrwt>
<pdfrwt beam="2">  1        1 0.37935639E-01 0.58706296E+03</pdfrwt>
<totfact> 0.28080166E+01</totfact>
</mgrwt>
</event>
<event>
 5    0  0.2396052E+000  0.8525663E+03  0.7546771E-02  0.9486899E-01
          2   -1    0    0  503    0 -0.00000000000E+00  0.00000000000E+00  0.18367910247E+04  0.18367910247E+04  0.00000000000E+00 0. -1.
         21   -1    0    0  501  502  0.00000000000E+00 -0.00000000000E+00 -0.11614034834E+03  0.11614034834E+03  0.00000000000E+00 0.  1.
         25    1    1    2    0    0 -0.31921784393E+03  0.24666078136E+02  0.13726349277E+04  0.14150124000E+04  0.12500000000E+03 0.  0.
         21    1    1    2  503  502  0.27649103413E+03  0.88544322522E+00  0.11468082546E+03  0.29933220290E+03  0.00000000000E+00 0.  1.
          2    1    1    2  501    0  0.42726809797E+02 -0.25551521361E+02  0.23333492316E+03  0.23858677014E+03  0.00000000000E+00 0. -1.
<mgrwt>
<rscale>  4 0.85256628E+03</rscale>
<asrwt>0</asrwt>
<pdfrwt beam="1">  1       21 0.17867747E-01 0.85256628E+03</pdfrwt>
<pdfrwt beam="2">  1        2 0.28258321E+00 0.85256628E+03</pdfrwt>
<totfact> 0.28448936E+03</totfact>
</mgrwt>
</event>
<event>
 5    0  0.2396052E+000  0.4368121E+03  0.7546771E-02  0.1031729E+00
         21   -1    0    0  501  502  0.00000000000E+00  0.00000000000E+00  0.58658701520E+02  0.58658701520E+02  0.00000000000E+00 0.  1.
          2   -1    0    0  503    0 -0.00000000000E+00 -0.00000000000E+00 -0.16510030949E+04  0.16510030949E+04  0.00000000000E+00 0.  1.
         25    1    1    2    0    0  0.18611141329E+03 -0.77645809065E+02 -0.10173547836E+04  0.10446540506E+04  0.12500000000E+03 0.  0.
         21    1    1    2  503  502 -0.22441532853E+02  0.12449357285E+02  0.27306677206E+02  0.37473504155E+02  0.00000000000E+00 0. -1.
          2    1    1    2  501    0 -0.16366988044E+03  0.65196451779E+02 -0.60229628702E+03  0.62753424165E+03  0.00000000000E+00 0.  1.
<mgrwt>
<rscale>  4 0.43681208E+03</rscale>
<asrwt>0</asrwt>
<pdfrwt beam="1">  1       21 0.90244158E-02 0.43681208E+03</pdfrwt>
<pdfrwt beam="2">  1        2 0.25400047E+00 0.43681208E+03</pdfrwt>
<totfact> 0.13409288E+04</totfact>
</mgrwt>
</event>
<event>
 5    0  0.2396052E+000  0.4083433E+03  0.7546771E-02  0.1040928E+00
         21   -1    0    0  501  502  0.00000000000E+00  0.00000000000E+00  0.88996024678E+02  0.88996024678E+02  0.00000000000E+00 0.  1.
          2   -1    0    0  503    0 -0.00000000000E+00 -0.00000000000E+00 -0.14861061264E+04  0.14861061264E+04  0.00000000000E+00 0.  1.
         25    1    1    2    0    0  0.15595668331E+03  0.16227257355E+03 -0.33202443480E+03  0.42014295246E+03  0.12500000000E+03 0.  0.
         21    1    1    2  503  502 -0.30233903972E+02 -0.13378504415E+03 -0.74626254689E+02  0.15614610106E+03  0.00000000000E+00 0.  1.
          2    1    1    2  501    0 -0.12572277934E+03 -0.28487529405E+02 -0.99045941228E+03  0.99881309760E+03  0.00000000000E+00 0.  1.
<mgrwt>
<rscale>  4 0.40834335E+03</rscale>
<asrwt>0</asrwt>
<pdfrwt beam="1">  1       21 0.13691696E-01 0.40834335E+03</pdfrwt>
<pdfrwt beam="2">  1        2 0.22863171E+00 0.40834335E+03</pdfrwt>
<totfact> 0.77836862E+03</totfact>
</mgrwt>
</event>
<event>
 5    0  0.2396052E+000  0.3810797E+03  0.7546771E-02  0.1050535E+00
          2   -1    0    0  503    0 -0.00000000000E+00  0.00000000000E+00  0.21155434600E+04  0.21155434600E+04  0.00000000000E+00 0.  1.
         21   -1    0    0  501  502  0.00000000000E+00 -0.00000000000E+00 -0.33606520921E+02  0.33606520921E+02  0.00000000000E+00 0.  1.
         25    1    1    2    0    0 -0.24472491989E+02  0.21703609977E+03  0.12406891355E+04  0.12659534361E+04  0.12500000000E+03 0.  0.
         21    1    1    2  503  502  0.34166255451E+02 -0.72037492047E+02  0.10027976893E+03  0.12811231529E+03  0.00000000000E+00 0. -1.
          2    1    1    2  501    0 -0.96937634623E+01 -0.14499860772E+03  0.74096803459E+03  0.75508422946E+03  0.00000000000E+00 0.  1.
<mgrwt>
<rscale>  4 0.38107967E+03</rscale>
<asrwt>0</asrwt>
<pdfrwt beam="1">  1       21 0.51702357E-02 0.38107967E+03</pdfrwt>
<pdfrwt beam="2">  1        2 0.32546812E+00 0.38107967E+03</pdfrwt>
<totfact> 0.20292868E+04</totfact>
</mgrwt>
</event>
<event>
 5    0  0.2396052E+000  0.4967418E+03  0.7546771E-02  0.1014633E+00
          1   -1    0    0  503    0 -0.00000000000E+00  0.00000000000E+00  0.15185935867E+04  0.15185935867E+04  0.00000000000E+00 0. -1.
         21   -1    0    0  501  502  0.00000000000E+00 -0.00000000000E+00 -0.14164406447E+04  0.14164406447E+04  0.00000000000E+00 0. -1.
         25    1    1    2    0    0  0.11125160306E+03 -0.19979316988E+03 -0.78843983449E+03  0.83039544948E+03  0.12500000000E+03 0.  0.
         21    1    1    2  503  502 -0.13450482640E+03  0.19161899943E+03 -0.58434317649E+03  0.62949689211E+03  0.00000000000E+00 0. -1.
          1    1    1    2  501    0  0.23253223335E+02  0.81741704535E+01  0.14749359530E+04  0.14751418897E+04  0.00000000000E+00 0. -1.
<mgrwt>
<rscale>  4 0.49674184E+03</rscale>
<asrwt>0</asrwt>
<pdfrwt beam="1">  1       21 0.21791394E+00 0.49674184E+03</pdfrwt>
<pdfrwt beam="2">  1        1 0.23362978E+00 0.49674184E+03</pdfrwt>
<totfact> 0.63592357E+00</totfact>
</mgrwt>
</event>
<event>
 5    0  0.2396052E+000  0.3661201E+03  0.7546771E-02  0.1056186E+00
         21   -1    0    0  501  502  0.00000000000E+00  0.00000000000E+00  0.14368386698E+03  0.14368386698E+03  0.00000000000E+00 0. -1.
          1   -1    0    0  503    0 -0.00000000000E+00 -0.00000000000E+00 -0.85020533039E+03  0.85020533039E+03  0.00000000000E+00 0. -1.
         25    1    1    2    0    0 -0.22133328258E+03 -0.15008811806E+03 -0.10340782557E+03  0.31278274177E+03  0.12500000000E+03 0.  0.
         21    1    1    2  503  502  0.69489845569E+02  0.59751835280E+01 -0.40145071608E+02  0.80474643397E+02  0.00000000000E+00 0.  1.
          1    1    1    2  501    0  0.15184343702E+03  0.14411293453E+03 -0.56296856623E+03  0.60063181220E+03  0.00000000000E+00 0. -1.
<mgrwt>
<rscale>  4 0.36612011E+03</rscale>
<asrwt>0</asrwt>
<pdfrwt beam="1">  1       21 0.22105210E-01 0.36612011E+03</pdfrwt>
<pdfrwt beam="2">  1        1 0.13080082E+00 0.36612011E+03</pdfrwt>
<totfact> 0.42701163E+03</totfact>
</mgrwt>
</event>
<event>
 5    0  0.2396052E+000  0.4776403E+03  0.7546771E-02  0.1019786E+00
          1   -1    0    0  503    0 -0.00000000000E+00  0.00000000000E+00  0.30368103913E+03  0.30368103913E+03  0.00000000000E+00 0. -1.
         21   -1    0    0  501  502  0.00000000000E+00 -0.00000000000E+00 -0.73201952271E+03  0.73201952271E+03  0.00000000000E+00 0. -1.
         25    1    1    2    0    0 -0.97406206793E+02  0.17879537194E+03 -0.34375217990E+03  0.41862431288E+03  0.12500000000E+03 0.  0.
         21    1    1    2  503  502  0.10154663954E+02 -0.23772293068E+03 -0.29666750149E+03  0.38029845571E+03  0.00000000000E+00 0. -1.
          1    1    1    2  501    0  0.87251542839E+02  0.58927558743E+02  0.21208119782E+03  0.23677779325E+03  0.00000000000E+00 0. -1.
<mgrwt>
<rscale>  4 0.47764026E+03</rscale>
<asrwt>0</asrwt>
<pdfrwt beam="1">  1       21 0.11261839E+00 0.47764026E+03</pdfrwt>
<pdfrwt beam="2">  1        1 0.46720160E-01 0.47764026E+03</pdfrwt>
<totfact> 0.52338509E+02</totfact>
</mgrwt>
</event>
<event>
 5    0  0.2396052E+000  0.1020973E+04  0.7546771E-02  0.9285836E-01
         21   -1    0    0  501  502  0.00000000000E+00  0.00000000000E+00  0.24341375967E+03  0.24341375967E+03  0.00000000000E+00 0. -1.
          2   -1    0    0  503    0 -0.00000000000E+00 -0.00000000000E+00 -0.32934042702E+04  0.32934042702E+04  0.00000000000E+00 0. -1.
         25    1    1    2    0    0 -0.27820464315E+03  0.46292912314E+03 -0.50226138845E+03  0.74805928833E+03  0.12500000000E+03 0.  0.
         21    1    1    2  503  502  0.23125301989E+03 -0.40183125945E+03 -0.32853358071E+03  0.56822586525E+03  0.00000000000E+00 0. -1.
          2    1    1    2  501    0  0.46951623264E+02 -0.61097863691E+02 -0.22191955414E+04  0.22205328763E+04  0.00000000000E+00 0. -1.
<mgrwt>
<rscale>  4 0.10209732E+04</rscale>
<asrwt>0</asrwt>
<pdfrwt beam="1">  1       21 0.37448272E-01 0.10209732E+04</pdfrwt>
<pdfrwt beam="2">  1        2 0.50667756E+00 0.10209732E+04</pdfrwt>
<totfact> 0.90081017E+01</totfact>
</mgrwt>
</event>
<event>
 5    0  0.2396052E+000  0.1032345E+04  0.7546771E-02  0.9273764E-01
         21   -1    0    0  501  502  0.00000000000E+00  0.00000000000E+00  0.79256154861E+03  0.79256154861E+03  0.00000000000E+00 0. -1.
          4   -1    0    0  503    0 -0.00000000000E+00 -0.00000000000E+00 -0.93899805257E+03  0.93899805257E+03  0.00000000000E+00 0.  1.
         25    1    1    2    0    0  0.24699006976E+03 -0.36662559308E+03 -0.13710576784E+03  0.47941778402E+03  0.12500000000E+03 0.  0.
         21    1    1    2  503  502 -0.23242380417E+03  0.17346036622E+03  0.57094796768E+03  0.64038340484E+03  0.00000000000E+00 0. -1.
          4    1    1    2  501    0 -0.14566265596E+02  0.19316522685E+03 -0.58027870380E+03  0.61175841232E+03  0.00000000000E+00 0.  1.
<mgrwt>
<rscale>  4 0.10323447E+04</rscale>
<asrwt>0</asrwt>
<pdfrwt beam="1">  1       21 0.12193254E+00 0.10323447E+04</pdfrwt>
<pdfrwt beam="2">  1        4 0.14446124E+00 0.10323447E+04</pdfrwt>
<totfact> 0.60531971E+00</totfact>
</mgrwt>
</event>
<event>
 5    0  0.2396052E+000  0.4896671E+03  0.7546771E-02  0.1016512E+00
          2   -1    0    0  503    0 -0.00000000000E+00  0.00000000000E+00  0.23444027892E+04  0.23444027892E+04  0.00000000000E+00 0. -1.
         21   -1    0    0  501  502  0.00000000000E+00 -0.00000000000E+00 -0.83791418499E+02  0.83791418499E+02  0.00000000000E+00 0.  1.
         25    1    1    2    0    0 -0.11304203341E+03  0.18381335744E+03  0.31853570121E+03  0.40454399592E+03  0.12500000000E+03 0.  0.
         21    1    1    2  503  502  0.14566640228E+03 -0.19106834347E+03  0.31470144729E+03  0.39593283971E+03  0.00000000000E+00 0.  1.
          2    1    1    2  501    0 -0.32624368864E+02  0.72549860370E+01  0.16273742222E+04  0.16277173720E+04  0.00000000000E+00 0. -1.
<mgrwt>
<rscale>  4 0.48966711E+03</rscale>
<asrwt>0</asrwt>
<pdfrwt beam="1">  1       21 0.12890989E-01 0.48966711E+03</pdfrwt>
<pdfrwt beam="2">  1        2 0.36067730E+00 0.48966711E+03</pdfrwt>
<totfact> 0.29405470E+03</totfact>
</mgrwt>
</event>
<event>
 5    0  0.2396052E+000  0.4556513E+03  0.7546771E-02  0.1026050E+00
          2   -1    0    0  503    0 -0.00000000000E+00  0.00000000000E+00  0.24535384875E+04  0.24535384875E+04  0.00000000000E+00 0. -1.
         21   -1    0    0  501  502  0.00000000000E+00 -0.00000000000E+00 -0.32132522969E+03  0.32132522969E+03  0.00000000000E+00 0. -1.
         25    1    1    2    0    0  0.30300047392E+02  0.22538881725E+03 -0.51355875972E+02  0.26453853748E+03  0.12500000000E+03 0.  0.
         21    1    1    2  503  502  0.27728823751E+01 -0.18953970741E+03 -0.10804661889E+03  0.21819042467E+03  0.00000000000E+00 0. -1.
          2    1    1    2  501    0 -0.33072929767E+02 -0.35849109843E+02  0.22916157527E+04  0.22921347550E+04  0.00000000000E+00 0. -1.
<mgrwt>
<rscale>  4 0.45565129E+03</rscale>
<asrwt>0</asrwt>
<pdfrwt beam="1">  1       21 0.49434652E-01 0.45565129E+03</pdfrwt>
<pdfrwt beam="2">  1        2 0.37746745E+00 0.45565129E+03</pdfrwt>
<totfact> 0.18553352E+02</totfact>
</mgrwt>
</event>
<event>
 5    0  0.2396052E+000  0.4013621E+03  0.7546771E-02  0.1043309E+00
         21   -1    0    0  501  502  0.00000000000E+00  0.00000000000E+00  0.29744222171E+03  0.29744222171E+03  0.00000000000E+00 0. -1.
          1   -1    0    0  503    0 -0.00000000000E+00 -0.00000000000E+00 -0.96422320973E+03  0.96422320973E+03  0.00000000000E+00 0.  1.
         25    1    1    2    0    0  0.21588411903E+03 -0.61607284469E+02  0.16377592814E+03  0.30471128136E+03  0.12500000000E+03 0.  0.
         21    1    1    2  503  502 -0.23900096296E+02 -0.11075853594E+03 -0.31982750068E+02  0.11773514424E+03  0.00000000000E+00 0.  1.
          1    1    1    2  501    0 -0.19198402273E+03  0.17236582041E+03 -0.79857416609E+03  0.83921900584E+03  0.00000000000E+00 0.  1.
<mgrwt>
<rscale>  4 0.40136211E+03</rscale>
<asrwt>0</asrwt>
<pdfrwt beam="1">  1       21 0.45760342E-01 0.40136211E+03</pdfrwt>
<pdfrwt beam="2">  1        1 0.14834203E+00 0.40136211E+03</pdfrwt>
<totfact> 0.80350824E+02</totfact>
</mgrwt>
</event>
<event>
 5    0  0.2396052E+000  0.5041140E+03  0.7546771E-02  0.1012711E+00
         21   -1    0    0  501  502  0.00000000000E+00  0.00000000000E+00  0.15999391977E+03  0.15999391977E+03  0.00000000000E+00 0.  1.
          2   -1    0    0  503    0 -0.00000000000E+00 -0.00000000000E+00 -0.57943556397E+03  0.57943556397E+03  0.00000000000E+00 0. -1.
         25    1    1    2    0    0  0.11940485072E+03  0.20188906273E+03 -0.21005708069E+03  0.33877085054E+03  0.12500000000E+03 0.  0.
         21    1    1    2  503  502 -0.12294571013E+03 -0.17929263702E+03 -0.29574268735E+02  0.21939948655E+03  0.00000000000E+00 0.  1.
          2    1    1    2  501    0  0.35408594109E+01 -0.22596425719E+02 -0.17981029477E+03  0.18125914665E+03  0.00000000000E+00 0. -1.
<mgrwt>
<rscale>  4 0.50411402E+03</rscale>
<asrwt>0</asrwt>
<pdfrwt beam="1">  1       21 0.24614449E-01 0.50411402E+03</pdfrwt>
<pdfrwt beam="2">  1        2 0.89143933E-01 0.50411402E+03</pdfrwt>
<totfact> 0.97853772E+03</totfact>
</mgrwt>
</event>
<event>
 5    0  0.2396052E+000  0.4367837E+03  0.7546771E-02  0.1031738E+00
          2   -1    0    0  503    0 -0.00000000000E+00  0.00000000000E+00  0.14687779361E+04  0.14687779361E+04  0.00000000000E+00 0.  1.
         21   -1    0    0  501  502  0.00000000000E+00 -0.00000000000E+00 -0.69269105528E+02  0.69269105528E+02  0.00000000000E+00 0.  1.
         25    1    1    2    0    0  0.53178443061E+02 -0.26715359191E+03  0.49890587501E+03  0.58200606577E+03  0.12500000000E+03 0.  0.
         21    1    1    2  503  502 -0.88200051519E+02  0.10432994517E+03  0.25487067970E+03  0.28917650305E+03  0.00000000000E+00 0. -1.
          2    1    1    2  501    0  0.35021608458E+02  0.16282364674E+03  0.64573227585E+03  0.66686447279E+03  0.00000000000E+00 0.  1.
<mgrwt>
<rscale>  4 0.43678367E+03</rscale>
<asrwt>0</asrwt>
<pdfrwt beam="1">  1       21 0.10656787E-01 0.43678367E+03</pdfrwt>
<pdfrwt beam="2">  1        2 0.22596581E+00 0.43678367E+03</pdfrwt>
<totfact> 0.12493563E+04</totfact>
</mgrwt>
</event>
<event>
 5    0  0.2396052E+000  0.5895568E+03  0.7546771E-02  0.9927312E-01
          1   -1    0    0  503    0 -0.00000000000E+00  0.00000000000E+00  0.33841064463E+03  0.33841064463E+03  0.00000000000E+00 0.  1.
         21   -1    0    0  501  502  0.00000000000E+00 -0.00000000000E+00 -0.58364228619E+03  0.58364228619E+03  0.00000000000E+00 0. -1.
         25    1    1    2    0    0  0.13228213979E+03  0.16375335957E+03 -0.49161437597E+03  0.54920253271E+03  0.12500000000E+03 0.  0.
         21    1    1    2  503  502 -0.10616851461E+03 -0.13518685225E+03  0.59343219657E+02  0.18184844304E+03  0.00000000000E+00 0.  1.
          1    1    1    2  501    0 -0.26113625178E+02 -0.28566507322E+02  0.18703951476E+03  0.19100195507E+03  0.00000000000E+00 0.  1.
<mgrwt>
<rscale>  4 0.58955676E+03</rscale>
<asrwt>0</asrwt>
<pdfrwt beam="1">  1       21 0.89791121E-01 0.58955676E+03</pdfrwt>
<pdfrwt beam="2">  1        1 0.52063176E-01 0.58955676E+03</pdfrwt>
<totfact> 0.77358321E+02</totfact>
</mgrwt>
</event>
<event>
 5    0  0.2396052E+000  0.5487046E+03  0.7546771E-02  0.1001794E+00
          2   -1    0    0  503    0 -0.00000000000E+00  0.00000000000E+00  0.14666309419E+04  0.14666309419E+04  0.00000000000E+00 0. -1.
         21   -1    0    0  501  502  0.00000000000E+00 -0.00000000000E+00 -0.12830840533E+03  0.12830840533E+03  0.00000000000E+00 0. -1.
         25    1    1    2    0    0 -0.25259169441E+02 -0.25008603562E+03  0.29171757078E+03  0.40485206182E+03  0.12500000000E+03 0.  0.
         21    1    1    2  503  502  0.10813241155E+03  0.23955983177E+03  0.17791152611E+03  0.31738626711E+03  0.00000000000E+00 0. -1.
          2    1    1    2  501    0 -0.82873242105E+02  0.10526203854E+02  0.86869343964E+03  0.87270101827E+03  0.00000000000E+00 0. -1.
<mgrwt>
<rscale>  4 0.54870458E+03</rscale>
<asrwt>0</asrwt>
<pdfrwt beam="1">  1       21 0.19739756E-01 0.54870458E+03</pdfrwt>
<pdfrwt beam="2">  1        2 0.22563552E+00 0.54870458E+03</pdfrwt>
<totfact> 0.39208079E+03</totfact>
</mgrwt>
</event>
<event>
 5    0  0.2396052E+000  0.6509894E+03  0.7546771E-02  0.9804924E-01
          2   -1    0    0  503    0 -0.00000000000E+00  0.00000000000E+00  0.14315019028E+04  0.14315019028E+04  0.00000000000E+00 0.  1.
         21   -1    0    0  501  502  0.00000000000E+00 -0.00000000000E+00 -0.60542344720E+03  0.60542344720E+03  0.00000000000E+00 0. -1.
         25    1    1    2    0    0  0.30404951295E+03  0.10826888722E+03 -0.50282932125E+03  0.61043475046E+03  0.12500000000E+03 0.  0.
         21    1    1    2  503  502 -0.13303854731E+03 -0.56431470855E+02  0.80623451414E+02  0.16548083542E+03  0.00000000000E+00 0. -1.
          2    1    1    2  501    0 -0.17101096564E+03 -0.51837416365E+02  0.12482843254E+04  0.12610097641E+04  0.00000000000E+00 0.  1.
<mgrwt>
<rscale>  4 0.65098940E+03</rscale>
<asrwt>0</asrwt>
<pdfrwt beam="1">  1       21 0.93142069E-01 0.65098940E+03</pdfrwt>
<pdfrwt beam="2">  1        2 0.22023106E+00 0.65098940E+03</pdfrwt>
<totfact> 0.15117669E+02</totfact>
</mgrwt>
</event>
<event>
 5    0  0.2396052E+000  0.4400011E+03  0.7546771E-02  0.1030746E+00
         21   -1    0    0  501  502  0.00000000000E+00  0.00000000000E+00  0.50475486997E+03  0.50475486997E+03  0.00000000000E+00 0.  1.
          4   -1    0    0  503    0 -0.00000000000E+00 -0.00000000000E+00 -0.21110751632E+03  0.21110751632E+03  0.00000000000E+00 0.  1.
         25    1    1    2    0    0 -0.13740464156E+03  0.17912762779E+03  0.29506507912E+03  0.39198870325E+03  0.12500000000E+03 0.  0.
         21    1    1    2  503  502  0.14106566736E+03 -0.97889452195E+02  0.96204817698E+02  0.19681776928E+03  0.00000000000E+00 0.  1.
          4    1    1    2  501    0 -0.36610257920E+01 -0.81238175599E+02 -0.97622543168E+02  0.12705591375E+03  0.00000000000E+00 0.  1.
<mgrwt>
<rscale>  4 0.44000106E+03</rscale>
<asrwt>0</asrwt>
<pdfrwt beam="1">  1       21 0.77654595E-01 0.44000106E+03</pdfrwt>
<pdfrwt beam="2">  1        4 0.32478080E-01 0.44000106E+03</pdfrwt>
<totfact> 0.55292216E+02</totfact>
</mgrwt>
</event>
<event>
 5    0  0.2396052E+000  0.5037128E+03  0.7546771E-02  0.1012814E+00
         -3   -1    0    0    0  501 -0.00000000000E+00  0.00000000000E+00  0.18447967328E+03  0.18447967328E+03  0.00000000000E+00 0. -1.
         21   -1    0    0  501  502  0.00000000000E+00 -0.00000000000E+00 -0.14983422262E+04  0.14983422262E+04  0.00000000000E+00 0.  1.
         25    1    1    2    0    0 -0.75741975128E+01 -0.21684279631E+03 -0.64272736444E+03  0.68978375726E+03  0.12500000000E+03 0.  0.
         21    1    1    2  503  502 -0.18496320796E+02  0.24961883350E+03 -0.81010624632E+03  0.84789374703E+03  0.00000000000E+00 0.  1.
         -3    1    1    2    0  503  0.26070518308E+02 -0.32776037191E+02  0.13897105784E+03  0.14514439520E+03  0.00000000000E+00 0. -1.
<mgrwt>
<rscale>  4 0.50371282E+03</rscale>
<asrwt>0</asrwt>
<pdfrwt beam="1">  1       21 0.23051418E+00 0.50371282E+03</pdfrwt>
<pdfrwt beam="2">  1       -3 0.28381489E-01 0.50371282E+03</pdfrwt>
<totfact> 0.44486854E+01</totfact>
</mgrwt>
</event>
