<event>
 5    0  0.3120399E-003  0.4241471E+03  0.7546771E-02  0.1035725E+00
         21   -1    0    0  503  501  0.00000000000E+00  0.00000000000E+00  0.71272695736E+03  0.71272695736E+03  0.00000000000E+00 0. -1.
         21   -1    0    0  501  502 -0.00000000000E+00 -0.00000000000E+00 -0.40115204373E+03  0.40115204373E+03  0.00000000000E+00 0. -1.
         25    1    1    2    0    0  0.29435013956E+03  0.13486493176E+03  0.32611242072E+03  0.47624034418E+03  0.12500000000E+03 0.  0.
         21    1    1    2  503  504  0.86360555571E+02 -0.73164575319E+02  0.17460180764E+03  0.20807929227E+03  0.00000000000E+00 0. -1.
         21    1    1    2  504  502 -0.38071069513E+03 -0.61700356442E+02 -0.18913931474E+03  0.42955936464E+03  0.00000000000E+00 0. -1.
<mgrwt>
<rscale>  4 0.42414712E+03</rscale>
<asrwt>0</asrwt>
<pdfrwt beam="1">  1       21 0.10965030E+00 0.42414712E+03</pdfrwt>
<pdfrwt beam="2">  1       21 0.61715699E-01 0.42414712E+03</pdfrwt>
<totfact> 0.13871149E+03</totfact>
</mgrwt>
</event>
<event>
 5    0  0.3120399E-003  0.2623614E+03  0.7546771E-02  0.1105733E+00
         21   -1    0    0  502  501  0.00000000000E+00  0.00000000000E+00  0.10182740407E+03  0.10182740407E+03  0.00000000000E+00 0.  1.
         21   -1    0    0  504  502 -0.00000000000E+00 -0.00000000000E+00 -0.78688982202E+03  0.78688982202E+03  0.00000000000E+00 0.  1.
         25    1    1    2    0    0 -0.10055984634E+03 -0.17807663422E+03 -0.33451024897E+03  0.41151631440E+03  0.12500000000E+03 0.  0.
         21    1    1    2  503  501 -0.68139639820E+02  0.12229368905E+03 -0.10946775087E+03  0.17771309849E+03  0.00000000000E+00 0.  1.
         21    1    1    2  504  503  0.16869948616E+03  0.55782945172E+02 -0.24108441811E+03  0.29948781320E+03  0.00000000000E+00 0.  1.
<mgrwt>
<rscale>  4 0.26236139E+03</rscale>
<asrwt>0</asrwt>
<pdfrwt beam="1">  1       21 0.15665754E-01 0.26236139E+03</pdfrwt>
<pdfrwt beam="2">  1       21 0.12105998E+00 0.26236139E+03</pdfrwt>
<totfact> 0.17988459E+04</totfact>
</mgrwt>
</event>
<event>
 5    0  0.3120399E-003  0.3058427E+03  0.7546771E-02  0.1082356E+00
         21   -1    0    0  502  501  0.00000000000E+00  0.00000000000E+00  0.84388430165E+02  0.84388430165E+02  0.00000000000E+00 0. -1.
         21   -1    0    0  503  502 -0.00000000000E+00 -0.00000000000E+00 -0.17539138477E+04  0.17539138477E+04  0.00000000000E+00 0. -1.
         25    1    1    2    0    0 -0.71390312063E+02  0.20084110407E+03 -0.13440453871E+03  0.28128865204E+03  0.12500000000E+03 0.  0.
         21    1    1    2  503  504  0.35702775251E+02  0.74905423339E+01 -0.45148386098E+03  0.45295526612E+03  0.00000000000E+00 0.  1.
         21    1    1    2  504  501  0.35687536811E+02 -0.20833164640E+03 -0.10836370178E+04  0.11040583597E+04  0.00000000000E+00 0. -1.
<mgrwt>
<rscale>  4 0.30584267E+03</rscale>
<asrwt>0</asrwt>
<pdfrwt beam="1">  1       21 0.12982836E-01 0.30584267E+03</pdfrwt>
<pdfrwt beam="2">  1       21 0.26983290E+00 0.30584267E+03</pdfrwt>
<totfact> 0.23379961E+03</totfact>
</mgrwt>
</event>
<event>
 5    0  0.3120399E-003  0.3036126E+03  0.7546771E-02  0.1083449E+00
         21   -1    0    0  504  501  0.00000000000E+00  0.00000000000E+00  0.11676210004E+03  0.11676210004E+03  0.00000000000E+00 0.  1.
         21   -1    0    0  501  502 -0.00000000000E+00 -0.00000000000E+00 -0.24089478864E+04  0.24089478864E+04  0.00000000000E+00 0.  1.
         25    1    1    2    0    0  0.22076910791E+03  0.17940397547E+03 -0.14988739574E+03  0.34498698065E+03  0.12500000000E+03 0.  0.
         21    1    1    2  503  502 -0.20102108979E+03 -0.96605033143E+02 -0.20167152451E+04  0.20290101998E+04  0.00000000000E+00 0.  1.
         21    1    1    2  504  503 -0.19748018120E+02 -0.82798942324E+02 -0.12558314556E+03  0.15171280605E+03  0.00000000000E+00 0. -1.
<mgrwt>
<rscale>  4 0.30361257E+03</rscale>
<asrwt>0</asrwt>
<pdfrwt beam="1">  1       21 0.17963402E-01 0.30361257E+03</pdfrwt>
<pdfrwt beam="2">  1       21 0.37060733E+00 0.30361257E+03</pdfrwt>
<totfact> 0.32253294E+02</totfact>
</mgrwt>
</event>
<event>
 5    0  0.3120399E-003  0.5405129E+03  0.7546771E-02  0.1003714E+00
         21   -1    0    0  502  501  0.00000000000E+00  0.00000000000E+00  0.93969896688E+03  0.93969896688E+03  0.00000000000E+00 0. -1.
         21   -1    0    0  504  502 -0.00000000000E+00 -0.00000000000E+00 -0.86749248139E+03  0.86749248139E+03  0.00000000000E+00 0. -1.
         25    1    1    2    0    0 -0.35085861030E+03  0.28159193339E+03  0.78716417603E+03  0.91523123930E+03  0.12500000000E+03 0.  0.
         21    1    1    2  503  501  0.13026574758E+03  0.16137593923E+02 -0.71591874366E+02  0.14951582995E+03  0.00000000000E+00 0.  1.
         21    1    1    2  504  503  0.22059286272E+03 -0.29772952732E+03 -0.64336581617E+03  0.74244437902E+03  0.00000000000E+00 0. -1.
<mgrwt>
<rscale>  4 0.54051289E+03</rscale>
<asrwt>0</asrwt>
<pdfrwt beam="1">  1       21 0.14456907E+00 0.54051289E+03</pdfrwt>
<pdfrwt beam="2">  1       21 0.13346038E+00 0.54051289E+03</pdfrwt>
<totfact> 0.10226802E+02</totfact>
</mgrwt>
</event>
<event>
 5    0  0.3120399E-003  0.4114105E+03  0.7546771E-02  0.1039899E+00
         21   -1    0    0  504  501  0.00000000000E+00  0.00000000000E+00  0.23619410490E+03  0.23619410490E+03  0.00000000000E+00 0.  1.
         21   -1    0    0  501  502 -0.00000000000E+00 -0.00000000000E+00 -0.74369773688E+03  0.74369773688E+03  0.00000000000E+00 0.  1.
         25    1    1    2    0    0 -0.31622104313E+03 -0.48059641129E+02 -0.12942438537E+03  0.36698930332E+03  0.12500000000E+03 0.  0.
         21    1    1    2  503  502  0.32889080977E+03 -0.82761900719E+02 -0.20759491819E+03  0.39763594785E+03  0.00000000000E+00 0.  1.
         21    1    1    2  504  503 -0.12669766636E+02  0.13082154185E+03 -0.17048432842E+03  0.21526659061E+03  0.00000000000E+00 0.  1.
<mgrwt>
<rscale>  4 0.41141051E+03</rscale>
<asrwt>0</asrwt>
<pdfrwt beam="1">  1       21 0.36337556E-01 0.41141051E+03</pdfrwt>
<pdfrwt beam="2">  1       21 0.11441503E+00 0.41141051E+03</pdfrwt>
<totfact> 0.38339377E+03</totfact>
</mgrwt>
</event>
<event>
 5    0  0.3120399E-003  0.2124788E+03  0.7546771E-02  0.1139618E+00
         21   -1    0    0  503  501  0.00000000000E+00  0.00000000000E+00  0.82962580360E+03  0.82962580360E+03  0.00000000000E+00 0.  1.
         21   -1    0    0  501  502 -0.00000000000E+00 -0.00000000000E+00 -0.23083610450E+03  0.23083610450E+03  0.00000000000E+00 0.  1.
         25    1    1    2    0    0 -0.58274326756E+02 -0.27980105973E+03  0.41393159060E+03  0.51831350733E+03  0.12500000000E+03 0.  0.
         21    1    1    2  503  504  0.96409307996E+02  0.20517718129E+03  0.31455435943E+03  0.38773299502E+03  0.00000000000E+00 0.  1.
         21    1    1    2  504  502 -0.38134981240E+02  0.74623878431E+02 -0.12969625093E+03  0.15441540575E+03  0.00000000000E+00 0.  1.
<mgrwt>
<rscale>  4 0.21247883E+03</rscale>
<asrwt>0</asrwt>
<pdfrwt beam="1">  1       21 0.12763474E+00 0.21247883E+03</pdfrwt>
<pdfrwt beam="2">  1       21 0.35513247E-01 0.21247883E+03</pdfrwt>
<totfact> 0.34035784E+03</totfact>
</mgrwt>
</event>
<event>
 5    0  0.3120399E-003  0.3707987E+03  0.7546771E-02  0.1054388E+00
         21   -1    0    0  502  501  0.00000000000E+00  0.00000000000E+00  0.22666041877E+03  0.22666041877E+03  0.00000000000E+00 0.  1.
         21   -1    0    0  504  502 -0.00000000000E+00 -0.00000000000E+00 -0.65189089956E+03  0.65189089956E+03  0.00000000000E+00 0.  1.
         25    1    1    2    0    0 -0.22914223060E+03 -0.92608432459E+02 -0.61541974020E+02  0.28371622825E+03  0.12500000000E+03 0.  0.
         21    1    1    2  503  501  0.21538356535E+03  0.20207850907E+03 -0.10474212923E+03  0.31336355513E+03  0.00000000000E+00 0.  1.
         21    1    1    2  504  503  0.13758665251E+02 -0.10947007661E+03 -0.25894637754E+03  0.28147153495E+03  0.00000000000E+00 0.  1.
<mgrwt>
<rscale>  4 0.37079871E+03</rscale>
<asrwt>0</asrwt>
<pdfrwt beam="1">  1       21 0.34870834E-01 0.37079871E+03</pdfrwt>
<pdfrwt beam="2">  1       21 0.10029091E+00 0.37079871E+03</pdfrwt>
<totfact> 0.58554674E+03</totfact>
</mgrwt>
</event>
<event>
 5    0  0.3120399E-003  0.3165667E+03  0.7546771E-02  0.1077240E+00
         21   -1    0    0  502  501  0.00000000000E+00  0.00000000000E+00  0.10276288539E+03  0.10276288539E+03  0.00000000000E+00 0.  1.
         21   -1    0    0  503  502 -0.00000000000E+00 -0.00000000000E+00 -0.10357494749E+04  0.10357494749E+04  0.00000000000E+00 0.  1.
         25    1    1    2    0    0 -0.15625021238E+03 -0.19396838480E+03 -0.63334424524E+03  0.69194493723E+03  0.12500000000E+03 0.  0.
         21    1    1    2  503  504  0.19015751725E+03  0.16528624447E+03 -0.31146255206E+03  0.40060996657E+03  0.00000000000E+00 0.  1.
         21    1    1    2  504  501 -0.33907304872E+02  0.28682140329E+02  0.11820207768E+02  0.45957456514E+02  0.00000000000E+00 0. -1.
<mgrwt>
<rscale>  4 0.31656670E+03</rscale>
<asrwt>0</asrwt>
<pdfrwt beam="1">  1       21 0.15809675E-01 0.31656670E+03</pdfrwt>
<pdfrwt beam="2">  1       21 0.15934607E+00 0.31656670E+03</pdfrwt>
<totfact> 0.83945669E+03</totfact>
</mgrwt>
</event>
<event>
 5    0  0.3120399E-003  0.4268157E+03  0.7546771E-02  0.1034871E+00
         21   -1    0    0  502  501  0.00000000000E+00  0.00000000000E+00  0.33536036970E+03  0.33536036970E+03  0.00000000000E+00 0. -1.
         21   -1    0    0  503  502 -0.00000000000E+00 -0.00000000000E+00 -0.60297862918E+03  0.60297862918E+03  0.00000000000E+00 0. -1.
         25    1    1    2    0    0 -0.35051360606E+03 -0.15672041231E+03 -0.32911196537E+03  0.52092298991E+03  0.12500000000E+03 0.  0.
         21    1    1    2  503  504  0.32678217754E+03  0.12614746587E+03  0.67214844452E+01  0.35034975818E+03  0.00000000000E+00 0. -1.
         21    1    1    2  504  501  0.23731428517E+02  0.30572946440E+02  0.54772221439E+02  0.67066250789E+02  0.00000000000E+00 0.  1.
<mgrwt>
<rscale>  4 0.42681565E+03</rscale>
<asrwt>0</asrwt>
<pdfrwt beam="1">  1       21 0.51593903E-01 0.42681565E+03</pdfrwt>
<pdfrwt beam="2">  1       21 0.92765942E-01 0.42681565E+03</pdfrwt>
<totfact> 0.30670727E+03</totfact>
</mgrwt>
</event>
<event>
 5    0  0.3120399E-003  0.4107356E+03  0.7546771E-02  0.1040124E+00
         21   -1    0    0  504  501  0.00000000000E+00  0.00000000000E+00  0.41731223307E+03  0.41731223307E+03  0.00000000000E+00 0. -1.
         21   -1    0    0  501  502 -0.00000000000E+00 -0.00000000000E+00 -0.42462055487E+03  0.42462055487E+03  0.00000000000E+00 0. -1.
         25    1    1    2    0    0 -0.24300788237E+03  0.95757157330E+02  0.76169042172E+02  0.29941440690E+03  0.12500000000E+03 0.  0.
         21    1    1    2  503  502 -0.31892951733E+01  0.14297438769E+03 -0.13388006411E+03  0.19589721464E+03  0.00000000000E+00 0. -1.
         21    1    1    2  504  503  0.24619717754E+03 -0.23873154502E+03  0.50402700149E+02  0.34662116640E+03  0.00000000000E+00 0. -1.
<mgrwt>
<rscale>  4 0.41073564E+03</rscale>
<asrwt>0</asrwt>
<pdfrwt beam="1">  1       21 0.64201882E-01 0.41073564E+03</pdfrwt>
<pdfrwt beam="2">  1       21 0.65326239E-01 0.41073564E+03</pdfrwt>
<totfact> 0.42923245E+03</totfact>
</mgrwt>
</event>
<event>
 5    0  0.3120399E-003  0.4487421E+03  0.7546771E-02  0.1028098E+00
         21   -1    0    0  503  501  0.00000000000E+00  0.00000000000E+00  0.10804494419E+04  0.10804494419E+04  0.00000000000E+00 0. -1.
         21   -1    0    0  501  502 -0.00000000000E+00 -0.00000000000E+00 -0.22654853996E+03  0.22654853996E+03  0.00000000000E+00 0. -1.
         25    1    1    2    0    0  0.10701514379E+03 -0.29854000527E+03  0.58506531120E+03  0.67712982073E+03  0.12500000000E+03 0.  0.
         21    1    1    2  503  504  0.44682281505E+02  0.29096500597E+03  0.35025752368E+03  0.45753412318E+03  0.00000000000E+00 0. -1.
         21    1    1    2  504  502 -0.15169742529E+03  0.75749992987E+01 -0.81421932980E+02  0.17233403792E+03  0.00000000000E+00 0.  1.
<mgrwt>
<rscale>  4 0.44874210E+03</rscale>
<asrwt>0</asrwt>
<pdfrwt beam="1">  1       21 0.16622299E+00 0.44874210E+03</pdfrwt>
<pdfrwt beam="2">  1       21 0.34853622E-01 0.44874210E+03</pdfrwt>
<totfact> 0.15291151E+03</totfact>
</mgrwt>
</event>
<event>
 5    0  0.3120399E-003  0.3079444E+03  0.7546771E-02  0.1081335E+00
         21   -1    0    0  502  501  0.00000000000E+00  0.00000000000E+00  0.77729876663E+03  0.77729876663E+03  0.00000000000E+00 0.  1.
         21   -1    0    0  504  502 -0.00000000000E+00 -0.00000000000E+00 -0.16194053605E+03  0.16194053605E+03  0.00000000000E+00 0.  1.
         25    1    1    2    0    0  0.15418136412E+03  0.13150208134E+03  0.43619510373E+03  0.49694653531E+03  0.12500000000E+03 0.  0.
         21    1    1    2  503  501  0.88945804521E+02  0.19029872502E+02  0.11950016026E+03  0.15017916131E+03  0.00000000000E+00 0. -1.
         21    1    1    2  504  503 -0.24312716865E+03 -0.15053195384E+03  0.59662966592E+02  0.29211360606E+03  0.00000000000E+00 0.  1.
<mgrwt>
<rscale>  4 0.30794443E+03</rscale>
<asrwt>0</asrwt>
<pdfrwt beam="1">  1       21 0.11958442E+00 0.30794443E+03</pdfrwt>
<pdfrwt beam="2">  1       21 0.24913929E-01 0.30794443E+03</pdfrwt>
<totfact> 0.75732512E+03</totfact>
</mgrwt>
</event>
<event>
 5    0  0.3120399E-003  0.4162534E+03  0.7546771E-02  0.1038293E+00
         21   -1    0    0  502  501  0.00000000000E+00  0.00000000000E+00  0.71274102536E+03  0.71274102536E+03  0.00000000000E+00 0. -1.
         21   -1    0    0  503  502 -0.00000000000E+00 -0.00000000000E+00 -0.38061010936E+03  0.38061010936E+03  0.00000000000E+00 0. -1.
         25    1    1    2    0    0 -0.29563309507E+03 -0.16967982708E+03  0.47902599915E+03  0.60106661734E+03  0.12500000000E+03 0.  0.
         21    1    1    2  503  504  0.23579465791E+03 -0.34018953595E+02 -0.14707659408E+03  0.27997845350E+03  0.00000000000E+00 0.  1.
         21    1    1    2  504  501  0.59838437165E+02  0.20369878067E+03  0.18151092391E+00  0.21230606387E+03  0.00000000000E+00 0. -1.
<mgrwt>
<rscale>  4 0.41625343E+03</rscale>
<asrwt>0</asrwt>
<pdfrwt beam="1">  1       21 0.10965246E+00 0.41625343E+03</pdfrwt>
<pdfrwt beam="2">  1       21 0.58555402E-01 0.41625343E+03</pdfrwt>
<totfact> 0.15613971E+03</totfact>
</mgrwt>
</event>
<event>
 5    0  0.3120399E-003  0.2323754E+03  0.7546771E-02  0.1124979E+00
         21   -1    0    0  503  501  0.00000000000E+00  0.00000000000E+00  0.36305036502E+03  0.36305036502E+03  0.00000000000E+00 0.  1.
         21   -1    0    0  501  502 -0.00000000000E+00 -0.00000000000E+00 -0.28823961220E+03  0.28823961220E+03  0.00000000000E+00 0.  1.
         25    1    1    2    0    0 -0.13233732205E+03  0.17738754724E+03  0.15758527408E+02  0.25466220746E+03  0.12500000000E+03 0.  0.
         21    1    1    2  503  504  0.67185695807E+02 -0.11787612234E+03  0.19318648003E+03  0.23607141717E+03  0.00000000000E+00 0.  1.
         21    1    1    2  504  502  0.65151626240E+02 -0.59511424902E+02 -0.13413425462E+03  0.16055635259E+03  0.00000000000E+00 0.  1.
<mgrwt>
<rscale>  4 0.23237543E+03</rscale>
<asrwt>0</asrwt>
<pdfrwt beam="1">  1       21 0.55853903E-01 0.23237543E+03</pdfrwt>
<pdfrwt beam="2">  1       21 0.44344555E-01 0.23237543E+03</pdfrwt>
<totfact> 0.14392614E+04</totfact>
</mgrwt>
</event>
<event>
 5    0  0.3120399E-003  0.5659873E+03  0.7546771E-02  0.9978598E-01
         21   -1    0    0  504  501  0.00000000000E+00  0.00000000000E+00  0.62452443693E+03  0.62452443693E+03  0.00000000000E+00 0. -1.
         21   -1    0    0  501  502 -0.00000000000E+00 -0.00000000000E+00 -0.52519832048E+03  0.52519832048E+03  0.00000000000E+00 0. -1.
         25    1    1    2    0    0 -0.39776609168E+03 -0.31104516185E+03  0.10195265547E+03  0.53008140917E+03  0.12500000000E+03 0.  0.
         21    1    1    2  503  502  0.70494829955E+02 -0.56196778628E+02 -0.81402498793E+02  0.12146590381E+03  0.00000000000E+00 0. -1.
         21    1    1    2  504  503  0.32727126172E+03  0.36724194047E+03  0.78775959775E+02  0.49817544443E+03  0.00000000000E+00 0. -1.
<mgrwt>
<rscale>  4 0.56598731E+03</rscale>
<asrwt>0</asrwt>
<pdfrwt beam="1">  1       21 0.96080683E-01 0.56598731E+03</pdfrwt>
<pdfrwt beam="2">  1       21 0.80799742E-01 0.56598731E+03</pdfrwt>
<totfact> 0.98965753E+02</totfact>
</mgrwt>
</event>
<event>
 5    0  0.3120399E-003  0.3489638E+03  0.7546771E-02  0.1063041E+00
         21   -1    0    0  503  501  0.00000000000E+00  0.00000000000E+00  0.70269060909E+03  0.70269060909E+03  0.00000000000E+00 0. -1.
         21   -1    0    0  501  502 -0.00000000000E+00 -0.00000000000E+00 -0.32871589921E+03  0.32871589921E+03  0.00000000000E+00 0. -1.
         25    1    1    2    0    0 -0.12634206604E+03  0.19252615135E+03  0.49324469918E+02  0.26662059174E+03  0.12500000000E+03 0.  0.
         21    1    1    2  503  504  0.22998332982E+03 -0.13485937583E+03  0.49204538666E+03  0.55963206285E+03  0.00000000000E+00 0. -1.
         21    1    1    2  504  502 -0.10364126378E+03 -0.57666775521E+02 -0.16739514669E+03  0.20515385371E+03  0.00000000000E+00 0.  1.
<mgrwt>
<rscale>  4 0.34896376E+03</rscale>
<asrwt>0</asrwt>
<pdfrwt beam="1">  1       21 0.10810625E+00 0.34896376E+03</pdfrwt>
<pdfrwt beam="2">  1       21 0.50571677E-01 0.34896376E+03</pdfrwt>
<totfact> 0.22847419E+03</totfact>
</mgrwt>
</event>
<event>
 5    0  0.3120399E-003  0.3261541E+03  0.7546771E-02  0.1072851E+00
         21   -1    0    0  503  501  0.00000000000E+00  0.00000000000E+00  0.11373146874E+04  0.11373146874E+04  0.00000000000E+00 0.  1.
         21   -1    0    0  501  502 -0.00000000000E+00 -0.00000000000E+00 -0.10497801656E+03  0.10497801656E+03  0.00000000000E+00 0.  1.
         25    1    1    2    0    0 -0.22744625584E+03 -0.58266817365E+02  0.23770900935E+03  0.35673154392E+03  0.12500000000E+03 0.  0.
         21    1    1    2  503  504  0.41794829253E+01  0.12221225203E+03  0.47487318603E+03  0.49036501245E+03  0.00000000000E+00 0. -1.
         21    1    1    2  504  502  0.22326677292E+03 -0.63945434669E+02  0.31975447549E+03  0.39519614763E+03  0.00000000000E+00 0.  1.
<mgrwt>
<rscale>  4 0.32615406E+03</rscale>
<asrwt>0</asrwt>
<pdfrwt beam="1">  1       21 0.17497148E+00 0.32615406E+03</pdfrwt>
<pdfrwt beam="2">  1       21 0.16150465E-01 0.32615406E+03</pdfrwt>
<totfact> 0.61836106E+03</totfact>
</mgrwt>
</event>
<event>
 5    0  0.3120399E-003  0.3501500E+03  0.7546771E-02  0.1062554E+00
         21   -1    0    0  504  501  0.00000000000E+00  0.00000000000E+00  0.74372070629E+03  0.74372070629E+03  0.00000000000E+00 0. -1.
         21   -1    0    0  501  502 -0.00000000000E+00 -0.00000000000E+00 -0.18680218278E+03  0.18680218278E+03  0.00000000000E+00 0. -1.
         25    1    1    2    0    0 -0.17965438087E+03  0.11010062732E+03  0.39582189933E+03  0.46550813171E+03  0.12500000000E+03 0.  0.
         21    1    1    2  503  502  0.85769831644E+02  0.14266708345E+03  0.56335991530E+02  0.17573873978E+03  0.00000000000E+00 0.  1.
         21    1    1    2  504  503  0.93884549224E+02 -0.25276771077E+03  0.10476063265E+03  0.28927601757E+03  0.00000000000E+00 0. -1.
<mgrwt>
<rscale>  4 0.35014997E+03</rscale>
<asrwt>0</asrwt>
<pdfrwt beam="1">  1       21 0.11441857E+00 0.35014997E+03</pdfrwt>
<pdfrwt beam="2">  1       21 0.28738798E-01 0.35014997E+03</pdfrwt>
<totfact> 0.62798399E+03</totfact>
</mgrwt>
</event>
<event>
 5    0  0.3120399E-003  0.7495029E+03  0.7546771E-02  0.9636130E-01
         21   -1    0    0  502  501  0.00000000000E+00  0.00000000000E+00  0.11528004304E+04  0.11528004304E+04  0.00000000000E+00 0. -1.
         21   -1    0    0  503  502 -0.00000000000E+00 -0.00000000000E+00 -0.52347872324E+03  0.52347872324E+03  0.00000000000E+00 0. -1.
         25    1    1    2    0    0  0.82808530941E+02 -0.60661048599E+03  0.51014161290E+03  0.80666163893E+03  0.12500000000E+03 0.  0.
         21    1    1    2  503  504 -0.21614107382E+03  0.67634393639E+03  0.83117165401E+02  0.71488918530E+03  0.00000000000E+00 0. -1.
         21    1    1    2  504  501  0.13333254287E+03 -0.69733450392E+02  0.36062928895E+02  0.15472832945E+03  0.00000000000E+00 0.  1.
<mgrwt>
<rscale>  4 0.74950295E+03</rscale>
<asrwt>0</asrwt>
<pdfrwt beam="1">  1       21 0.17735391E+00 0.74950295E+03</pdfrwt>
<pdfrwt beam="2">  1       21 0.80535189E-01 0.74950295E+03</pdfrwt>
<totfact> 0.18583295E+02</totfact>
</mgrwt>
</event>
<event>
 5    0  0.3120399E-003  0.6786486E+03  0.7546771E-02  0.9754459E-01
         21   -1    0    0  503  501  0.00000000000E+00  0.00000000000E+00  0.27473255501E+04  0.27473255501E+04  0.00000000000E+00 0.  1.
         21   -1    0    0  501  502 -0.00000000000E+00 -0.00000000000E+00 -0.18459177074E+03  0.18459177074E+03  0.00000000000E+00 0.  1.
         25    1    1    2    0    0 -0.31536493630E+03  0.36367771692E+03  0.49267878981E+03  0.70005279427E+03  0.12500000000E+03 0.  0.
         21    1    1    2  503  504  0.27681937268E+03 -0.56419157859E+03  0.16214523595E+04  0.17389792571E+04  0.00000000000E+00 0.  1.
         21    1    1    2  504  502  0.38545563616E+02  0.20051386167E+03  0.44860262999E+03  0.49288526944E+03  0.00000000000E+00 0.  1.
<mgrwt>
<rscale>  4 0.67864859E+03</rscale>
<asrwt>0</asrwt>
<pdfrwt beam="1">  1       21 0.42266544E+00 0.67864859E+03</pdfrwt>
<pdfrwt beam="2">  1       21 0.28398736E-01 0.67864859E+03</pdfrwt>
<totfact> 0.48293081E+01</totfact>
</mgrwt>
</event>
<event>
 5    0  0.3120399E-003  0.2727245E+03  0.7546771E-02  0.1099730E+00
         21   -1    0    0  504  501  0.00000000000E+00  0.00000000000E+00  0.46509562527E+02  0.46509562527E+02  0.00000000000E+00 0.  1.
         21   -1    0    0  501  502 -0.00000000000E+00 -0.00000000000E+00 -0.17801764289E+04  0.17801764289E+04  0.00000000000E+00 0.  1.
         25    1    1    2    0    0 -0.20724339168E+03 -0.14766375939E+03 -0.80252862366E+03  0.85113547748E+03  0.12500000000E+03 0.  0.
         21    1    1    2  503  502  0.24640290481E+02  0.60180869260E+02 -0.43265054747E+03  0.43751043092E+03  0.00000000000E+00 0. -1.
         21    1    1    2  504  503  0.18260310119E+03  0.87482890134E+02 -0.49848769525E+03  0.53804008303E+03  0.00000000000E+00 0. -1.
<mgrwt>
<rscale>  4 0.27272450E+03</rscale>
<asrwt>0</asrwt>
<pdfrwt beam="1">  1       21 0.71553176E-02 0.27272450E+03</pdfrwt>
<pdfrwt beam="2">  1       21 0.27387328E+00 0.27272450E+03</pdfrwt>
<totfact> 0.65430092E+03</totfact>
</mgrwt>
</event>
<event>
 5    0  0.3120399E-003  0.2645251E+03  0.7546771E-02  0.1104455E+00
         21   -1    0    0  502  501  0.00000000000E+00  0.00000000000E+00  0.24017896589E+03  0.24017896589E+03  0.00000000000E+00 0. -1.
         21   -1    0    0  504  502 -0.00000000000E+00 -0.00000000000E+00 -0.37378495867E+03  0.37378495867E+03  0.00000000000E+00 0. -1.
         25    1    1    2    0    0 -0.12858633759E+03  0.19903592999E+03 -0.47686000782E+02  0.27211891209E+03  0.12500000000E+03 0.  0.
         21    1    1    2  503  501  0.70586569101E+02 -0.19406526089E+02  0.66752271482E+02  0.99070392854E+02  0.00000000000E+00 0. -1.
         21    1    1    2  504  503  0.57999768492E+02 -0.17962940390E+03 -0.15267226348E+03  0.24277461961E+03  0.00000000000E+00 0. -1.
<mgrwt>
<rscale>  4 0.26452515E+03</rscale>
<asrwt>0</asrwt>
<pdfrwt beam="1">  1       21 0.36950610E-01 0.26452515E+03</pdfrwt>
<pdfrwt beam="2">  1       21 0.57505378E-01 0.26452515E+03</pdfrwt>
<totfact> 0.19291169E+04</totfact>
</mgrwt>
</event>
<event>
 5    0  0.3120399E-003  0.5303643E+03  0.7546771E-02  0.1006144E+00
         21   -1    0    0  504  501  0.00000000000E+00  0.00000000000E+00  0.55694851818E+03  0.55694851818E+03  0.00000000000E+00 0. -1.
         21   -1    0    0  501  502 -0.00000000000E+00 -0.00000000000E+00 -0.76894486916E+03  0.76894486916E+03  0.00000000000E+00 0. -1.
         25    1    1    2    0    0  0.60837739997E+02  0.26030751734E+03 -0.23299325810E+03  0.37599480384E+03  0.12500000000E+03 0.  0.
         21    1    1    2  503  502 -0.33784560383E+03  0.78987625352E+02 -0.25641769664E+03  0.43142639249E+03  0.00000000000E+00 0. -1.
         21    1    1    2  504  503  0.27700786383E+03 -0.33929514269E+03  0.27741460375E+03  0.51847219101E+03  0.00000000000E+00 0. -1.
<mgrwt>
<rscale>  4 0.53036425E+03</rscale>
<asrwt>0</asrwt>
<pdfrwt beam="1">  1       21 0.85684387E-01 0.53036425E+03</pdfrwt>
<pdfrwt beam="2">  1       21 0.11829921E+00 0.53036425E+03</pdfrwt>
<totfact> 0.52167659E+02</totfact>
</mgrwt>
</event>
<event>
 5    0  0.3120399E-003  0.5439495E+03  0.7546771E-02  0.1002904E+00
         21   -1    0    0  504  501  0.00000000000E+00  0.00000000000E+00  0.25947807336E+04  0.25947807336E+04  0.00000000000E+00 0.  1.
         21   -1    0    0  501  502 -0.00000000000E+00 -0.00000000000E+00 -0.13410555304E+03  0.13410555304E+03  0.00000000000E+00 0.  1.
         25    1    1    2    0    0  0.16827894636E+03  0.35480401081E+03  0.46510796007E+03  0.62141299021E+03  0.12500000000E+03 0.  0.
         21    1    1    2  503  502  0.17306854420E+03 -0.16488099981E+00  0.35995463447E+03  0.39939965830E+03  0.00000000000E+00 0. -1.
         21    1    1    2  504  503 -0.34134749056E+03 -0.35463912981E+03  0.16356125860E+04  0.17080736381E+04  0.00000000000E+00 0.  1.
<mgrwt>
<rscale>  4 0.54394952E+03</rscale>
<asrwt>0</asrwt>
<pdfrwt beam="1">  1       21 0.39919700E+00 0.54394952E+03</pdfrwt>
<pdfrwt beam="2">  1       21 0.20631625E-01 0.54394952E+03</pdfrwt>
<totfact> 0.13740377E+02</totfact>
</mgrwt>
</event>
<event>
 5    0  0.3120399E-003  0.2955219E+03  0.7546771E-02  0.1087501E+00
         21   -1    0    0  502  501  0.00000000000E+00  0.00000000000E+00  0.15577409378E+03  0.15577409378E+03  0.00000000000E+00 0. -1.
         21   -1    0    0  503  502 -0.00000000000E+00 -0.00000000000E+00 -0.78912321688E+03  0.78912321688E+03  0.00000000000E+00 0. -1.
         25    1    1    2    0    0  0.11041854082E+03  0.25957617855E+03 -0.12052078405E+03  0.33124357505E+03  0.12500000000E+03 0.  0.
         21    1    1    2  503  504 -0.11709012970E+02 -0.20405365773E+03 -0.42047290114E+03  0.46751733317E+03  0.00000000000E+00 0. -1.
         21    1    1    2  504  501 -0.98709527847E+02 -0.55522520816E+02 -0.92355437906E+02  0.14613640243E+03  0.00000000000E+00 0. -1.
<mgrwt>
<rscale>  4 0.29552188E+03</rscale>
<asrwt>0</asrwt>
<pdfrwt beam="1">  1       21 0.23965245E-01 0.29552188E+03</pdfrwt>
<pdfrwt beam="2">  1       21 0.12140357E+00 0.29552188E+03</pdfrwt>
<totfact> 0.79040423E+03</totfact>
</mgrwt>
</event>
<event>
 5    0  0.3120399E-003  0.3800685E+03  0.7546771E-02  0.1050908E+00
         21   -1    0    0  503  501  0.00000000000E+00  0.00000000000E+00  0.74943258593E+03  0.74943258593E+03  0.00000000000E+00 0.  1.
         21   -1    0    0  501  502 -0.00000000000E+00 -0.00000000000E+00 -0.26890273760E+03  0.26890273760E+03  0.00000000000E+00 0.  1.
         25    1    1    2    0    0 -0.11936289704E+03  0.16510636808E+03 -0.64159789564E+02  0.24748554012E+03  0.12500000000E+03 0.  0.
         21    1    1    2  503  504  0.10049153354E+03 -0.32823381226E+03  0.48897921489E+03  0.59744175985E+03  0.00000000000E+00 0.  1.
         21    1    1    2  504  502  0.18871363495E+02  0.16312744418E+03  0.55710423006E+02  0.17340802356E+03  0.00000000000E+00 0.  1.
<mgrwt>
<rscale>  4 0.38006849E+03</rscale>
<asrwt>0</asrwt>
<pdfrwt beam="1">  1       21 0.11529732E+00 0.38006849E+03</pdfrwt>
<pdfrwt beam="2">  1       21 0.41369652E-01 0.38006849E+03</pdfrwt>
<totfact> 0.29224586E+03</totfact>
</mgrwt>
</event>
<event>
 5    0  0.3120399E-003  0.3434363E+03  0.7546771E-02  0.1065342E+00
         21   -1    0    0  504  501  0.00000000000E+00  0.00000000000E+00  0.27535564047E+03  0.27535564047E+03  0.00000000000E+00 0. -1.
         21   -1    0    0  501  502 -0.00000000000E+00 -0.00000000000E+00 -0.49014137742E+03  0.49014137742E+03  0.00000000000E+00 0. -1.
         25    1    1    2    0    0  0.76371554213E+02 -0.21446260216E+03 -0.70867357710E+00  0.25971585287E+03  0.12500000000E+03 0.  0.
         21    1    1    2  503  502  0.46377793854E+02 -0.24477663972E+02 -0.23075428549E+03  0.23663811204E+03  0.00000000000E+00 0. -1.
         21    1    1    2  504  503 -0.12274934807E+03  0.23894026613E+03  0.16677222114E+02  0.26914305298E+03  0.00000000000E+00 0. -1.
<mgrwt>
<rscale>  4 0.34343634E+03</rscale>
<asrwt>0</asrwt>
<pdfrwt beam="1">  1       21 0.42362407E-01 0.34343634E+03</pdfrwt>
<pdfrwt beam="2">  1       21 0.75406365E-01 0.34343634E+03</pdfrwt>
<totfact> 0.77569677E+03</totfact>
</mgrwt>
</event>
<event>
 5    0  0.3120399E-003  0.3747532E+03  0.7546771E-02  0.1052890E+00
         21   -1    0    0  502  501  0.00000000000E+00  0.00000000000E+00  0.18793694953E+04  0.18793694953E+04  0.00000000000E+00 0. -1.
         21   -1    0    0  503  502 -0.00000000000E+00 -0.00000000000E+00 -0.13359836724E+03  0.13359836724E+03  0.00000000000E+00 0. -1.
         25    1    1    2    0    0 -0.25549578513E+03  0.76494715176E+02  0.63516744697E+03  0.70013728894E+03  0.12500000000E+03 0.  0.
         21    1    1    2  503  504  0.19440706825E+03 -0.20254976614E+03  0.10850369117E+03  0.30098765248E+03  0.00000000000E+00 0. -1.
         21    1    1    2  504  501  0.61088716880E+02  0.12605505096E+03  0.10020999899E+04  0.10118429211E+04  0.00000000000E+00 0. -1.
<mgrwt>
<rscale>  4 0.37475320E+03</rscale>
<asrwt>0</asrwt>
<pdfrwt beam="1">  1       21 0.28913375E+00 0.37475320E+03</pdfrwt>
<pdfrwt beam="2">  1       21 0.20553596E-01 0.37475320E+03</pdfrwt>
<totfact> 0.72846073E+02</totfact>
</mgrwt>
</event>
<event>
 5    0  0.3120399E-003  0.2714057E+03  0.7546771E-02  0.1100478E+00
         21   -1    0    0  504  501  0.00000000000E+00  0.00000000000E+00  0.13635339633E+04  0.13635339633E+04  0.00000000000E+00 0. -1.
         21   -1    0    0  501  502 -0.00000000000E+00 -0.00000000000E+00 -0.57088730655E+02  0.57088730655E+02  0.00000000000E+00 0. -1.
         25    1    1    2    0    0 -0.20608327052E+03  0.45129837133E+02  0.37340024414E+03  0.44672111984E+03  0.12500000000E+03 0.  0.
         21    1    1    2  503  502  0.20692676870E+03 -0.77913404164E+02  0.60351471527E+03  0.64274349293E+03  0.00000000000E+00 0. -1.
         21    1    1    2  504  503 -0.84349818145E+00  0.32783567031E+02  0.32953027324E+03  0.33115808119E+03  0.00000000000E+00 0. -1.
<mgrwt>
<rscale>  4 0.27140573E+03</rscale>
<asrwt>0</asrwt>
<pdfrwt beam="1">  1       21 0.20977443E+00 0.27140573E+03</pdfrwt>
<pdfrwt beam="2">  1       21 0.87828827E-02 0.27140573E+03</pdfrwt>
<totfact> 0.11207500E+04</totfact>
</mgrwt>
</event>
<event>
 5    0  0.3120399E-003  0.5101268E+03  0.7546771E-02  0.1011169E+00
         21   -1    0    0  504  501  0.00000000000E+00  0.00000000000E+00  0.73300882875E+03  0.73300882875E+03  0.00000000000E+00 0. -1.
         21   -1    0    0  501  502 -0.00000000000E+00 -0.00000000000E+00 -0.44960167474E+03  0.44960167474E+03  0.00000000000E+00 0. -1.
         25    1    1    2    0    0 -0.10563418788E+03 -0.20108515507E+03  0.18165254357E+03  0.31656984667E+03  0.12500000000E+03 0.  0.
         21    1    1    2  503  502 -0.24880344123E+03  0.32532661949E+03 -0.12388873067E+03  0.42788898011E+03  0.00000000000E+00 0. -1.
         21    1    1    2  504  503  0.35443762911E+03 -0.12424146442E+03  0.22564334111E+03  0.43815167671E+03  0.00000000000E+00 0. -1.
<mgrwt>
<rscale>  4 0.51012681E+03</rscale>
<asrwt>0</asrwt>
<pdfrwt beam="1">  1       21 0.11277059E+00 0.51012681E+03</pdfrwt>
<pdfrwt beam="2">  1       21 0.69169489E-01 0.51012681E+03</pdfrwt>
<totfact> 0.97024811E+02</totfact>
</mgrwt>
</event>
<event>
 5    0  0.3120399E-003  0.3030348E+03  0.7546771E-02  0.1083733E+00
         21   -1    0    0  503  501  0.00000000000E+00  0.00000000000E+00  0.74598752713E+03  0.74598752713E+03  0.00000000000E+00 0.  1.
         21   -1    0    0  501  502 -0.00000000000E+00 -0.00000000000E+00 -0.17649222651E+03  0.17649222651E+03  0.00000000000E+00 0.  1.
         25    1    1    2    0    0  0.24193249920E+03 -0.11656786199E+03  0.77808977735E+02  0.30626563247E+03  0.12500000000E+03 0.  0.
         21    1    1    2  503  504 -0.23700094423E+03  0.28175611420E+02  0.46676259997E+03  0.52424291829E+03  0.00000000000E+00 0.  1.
         21    1    1    2  504  502 -0.49315549712E+01  0.88392250569E+02  0.24923722925E+02  0.91971202882E+02  0.00000000000E+00 0.  1.
<mgrwt>
<rscale>  4 0.30303482E+03</rscale>
<asrwt>0</asrwt>
<pdfrwt beam="1">  1       21 0.11476731E+00 0.30303482E+03</pdfrwt>
<pdfrwt beam="2">  1       21 0.27152651E-01 0.30303482E+03</pdfrwt>
<totfact> 0.71174127E+03</totfact>
</mgrwt>
</event>
<event>
 5    0  0.3120399E-003  0.2701930E+03  0.7546771E-02  0.1101169E+00
         21   -1    0    0  502  501  0.00000000000E+00  0.00000000000E+00  0.57486605467E+03  0.57486605467E+03  0.00000000000E+00 0. -1.
         21   -1    0    0  503  502 -0.00000000000E+00 -0.00000000000E+00 -0.20066970740E+03  0.20066970740E+03  0.00000000000E+00 0. -1.
         25    1    1    2    0    0 -0.14205192691E+03  0.19805760392E+03  0.18671377759E+03  0.33150052662E+03  0.12500000000E+03 0.  0.
         21    1    1    2  503  504  0.11512581581E+02 -0.24247675319E+03  0.47134277486E+02  0.24728355280E+03  0.00000000000E+00 0. -1.
         21    1    1    2  504  501  0.13053934533E+03  0.44419149271E+02  0.14034829219E+03  0.19675168264E+03  0.00000000000E+00 0. -1.
<mgrwt>
<rscale>  4 0.27019302E+03</rscale>
<asrwt>0</asrwt>
<pdfrwt beam="1">  1       21 0.88440931E-01 0.27019302E+03</pdfrwt>
<pdfrwt beam="2">  1       21 0.30872263E-01 0.27019302E+03</pdfrwt>
<totfact> 0.10521268E+04</totfact>
</mgrwt>
</event>
<event>
 5    0  0.3120399E-003  0.3825016E+03  0.7546771E-02  0.1050013E+00
         21   -1    0    0  502  501  0.00000000000E+00  0.00000000000E+00  0.40773445999E+03  0.40773445999E+03  0.00000000000E+00 0.  1.
         21   -1    0    0  504  502 -0.00000000000E+00 -0.00000000000E+00 -0.37136415651E+03  0.37136415651E+03  0.00000000000E+00 0.  1.
         25    1    1    2    0    0  0.28900913162E+03 -0.17558235920E+02  0.56612991278E+02  0.32041317168E+03  0.12500000000E+03 0.  0.
         21    1    1    2  503  501 -0.28000350338E+03  0.15501991872E+03 -0.50262976347E+01  0.32009123820E+03  0.00000000000E+00 0.  1.
         21    1    1    2  504  503 -0.90056282336E+01 -0.13746168280E+03 -0.15216390161E+02  0.13859420661E+03  0.00000000000E+00 0. -1.
<mgrwt>
<rscale>  4 0.38250158E+03</rscale>
<asrwt>0</asrwt>
<pdfrwt beam="1">  1       21 0.62728379E-01 0.38250158E+03</pdfrwt>
<pdfrwt beam="2">  1       21 0.57132947E-01 0.38250158E+03</pdfrwt>
<totfact> 0.61257524E+03</totfact>
</mgrwt>
</event>
<event>
 5    0  0.3120399E-003  0.2327631E+03  0.7546771E-02  0.1124710E+00
         21   -1    0    0  503  501  0.00000000000E+00  0.00000000000E+00  0.30223573943E+03  0.30223573943E+03  0.00000000000E+00 0.  1.
         21   -1    0    0  501  502 -0.00000000000E+00 -0.00000000000E+00 -0.22913363594E+03  0.22913363594E+03  0.00000000000E+00 0.  1.
         25    1    1    2    0    0  0.96633005593E+02  0.19247164669E+03 -0.78291028801E+02  0.26103210098E+03  0.12500000000E+03 0.  0.
         21    1    1    2  503  504 -0.52048906265E+02 -0.16075800716E+03  0.12010434163E+03  0.20730961962E+03  0.00000000000E+00 0.  1.
         21    1    1    2  504  502 -0.44584099328E+02 -0.31713639528E+02  0.31288790662E+02  0.63027654772E+02  0.00000000000E+00 0. -1.
<mgrwt>
<rscale>  4 0.23276308E+03</rscale>
<asrwt>0</asrwt>
<pdfrwt beam="1">  1       21 0.46497806E-01 0.23276308E+03</pdfrwt>
<pdfrwt beam="2">  1       21 0.35251329E-01 0.23276308E+03</pdfrwt>
<totfact> 0.33676988E+04</totfact>
</mgrwt>
</event>
<event>
 5    0  0.3120399E-003  0.4116887E+03  0.7546771E-02  0.1039806E+00
         21   -1    0    0  504  501  0.00000000000E+00  0.00000000000E+00  0.67947956510E+03  0.67947956510E+03  0.00000000000E+00 0. -1.
         21   -1    0    0  501  502 -0.00000000000E+00 -0.00000000000E+00 -0.25986217047E+03  0.25986217047E+03  0.00000000000E+00 0. -1.
         25    1    1    2    0    0  0.99094827155E+02  0.24680942368E+03  0.15189103196E+03  0.33080290503E+03  0.12500000000E+03 0.  0.
         21    1    1    2  503  502 -0.28318413612E+03 -0.20413510764E+03  0.12161011851E+03  0.36966663096E+03  0.00000000000E+00 0. -1.
         21    1    1    2  504  503  0.18408930896E+03 -0.42674316041E+02  0.14611624416E+03  0.23887219958E+03  0.00000000000E+00 0. -1.
<mgrwt>
<rscale>  4 0.41168871E+03</rscale>
<asrwt>0</asrwt>
<pdfrwt beam="1">  1       21 0.10453532E+00 0.41168871E+03</pdfrwt>
<pdfrwt beam="2">  1       21 0.39978796E-01 0.41168871E+03</pdfrwt>
<totfact> 0.39435540E+03</totfact>
</mgrwt>
</event>
<event>
 5    0  0.3120399E-003  0.4813320E+03  0.7546771E-02  0.1018770E+00
         21   -1    0    0  502  501  0.00000000000E+00  0.00000000000E+00  0.49515994970E+03  0.49515994970E+03  0.00000000000E+00 0.  1.
         21   -1    0    0  504  502 -0.00000000000E+00 -0.00000000000E+00 -0.46944252563E+03  0.46944252563E+03  0.00000000000E+00 0.  1.
         25    1    1    2    0    0 -0.22657477627E+03 -0.27734442042E+03  0.31162748217E+02  0.38059450030E+03  0.12500000000E+03 0.  0.
         21    1    1    2  503  501  0.31290853163E+03  0.34496362036E+03  0.35174713938E+02  0.46706413804E+03  0.00000000000E+00 0.  1.
         21    1    1    2  504  503 -0.86333755360E+02 -0.67619199944E+02 -0.40620038090E+02  0.11694383699E+03  0.00000000000E+00 0.  1.
<mgrwt>
<rscale>  4 0.48133203E+03</rscale>
<asrwt>0</asrwt>
<pdfrwt beam="1">  1       21 0.76178454E-01 0.48133203E+03</pdfrwt>
<pdfrwt beam="2">  1       21 0.72221927E-01 0.48133203E+03</pdfrwt>
<totfact> 0.22739128E+03</totfact>
</mgrwt>
</event>
<event>
 5    0  0.3120399E-003  0.3015963E+03  0.7546771E-02  0.1084445E+00
         21   -1    0    0  503  501  0.00000000000E+00  0.00000000000E+00  0.11969538798E+03  0.11969538798E+03  0.00000000000E+00 0. -1.
         21   -1    0    0  501  502 -0.00000000000E+00 -0.00000000000E+00 -0.76679211196E+03  0.76679211196E+03  0.00000000000E+00 0. -1.
         25    1    1    2    0    0 -0.19284912250E+03  0.14742957459E+03 -0.30669367837E+03  0.41062425144E+03  0.12500000000E+03 0.  0.
         21    1    1    2  503  504  0.21315522092E+03 -0.18836107168E+03 -0.27177923059E+03  0.39341961277E+03  0.00000000000E+00 0. -1.
         21    1    1    2  504  502 -0.20306098415E+02  0.40931497091E+02 -0.68623815006E+02  0.82443635734E+02  0.00000000000E+00 0.  1.
<mgrwt>
<rscale>  4 0.30159632E+03</rscale>
<asrwt>0</asrwt>
<pdfrwt beam="1">  1       21 0.18414675E-01 0.30159632E+03</pdfrwt>
<pdfrwt beam="2">  1       21 0.11796802E+00 0.30159632E+03</pdfrwt>
<totfact> 0.13958718E+04</totfact>
</mgrwt>
</event>
<event>
 5    0  0.3120399E-003  0.3611904E+03  0.7546771E-02  0.1058114E+00
         21   -1    0    0  502  501  0.00000000000E+00  0.00000000000E+00  0.76422386452E+03  0.76422386452E+03  0.00000000000E+00 0. -1.
         21   -1    0    0  503  502 -0.00000000000E+00 -0.00000000000E+00 -0.18965189403E+03  0.18965189403E+03  0.00000000000E+00 0. -1.
         25    1    1    2    0    0 -0.20206591685E+03  0.10773869360E+03  0.19311497278E+03  0.32458689678E+03  0.12500000000E+03 0.  0.
         21    1    1    2  503  504  0.86450626393E+02 -0.26632710294E+03  0.12574770338E+03  0.30694677303E+03  0.00000000000E+00 0. -1.
         21    1    1    2  504  501  0.11561529045E+03  0.15858840935E+03  0.25570929433E+03  0.32234208874E+03  0.00000000000E+00 0. -1.
<mgrwt>
<rscale>  4 0.36119042E+03</rscale>
<asrwt>0</asrwt>
<pdfrwt beam="1">  1       21 0.11757290E+00 0.36119042E+03</pdfrwt>
<pdfrwt beam="2">  1       21 0.29177215E-01 0.36119042E+03</pdfrwt>
<totfact> 0.56701000E+03</totfact>
</mgrwt>
</event>
<event>
 5    0  0.3120399E-003  0.2194739E+03  0.7546771E-02  0.1134276E+00
         21   -1    0    0  503  501  0.00000000000E+00  0.00000000000E+00  0.67879527420E+02  0.67879527420E+02  0.00000000000E+00 0.  1.
         21   -1    0    0  501  502 -0.00000000000E+00 -0.00000000000E+00 -0.11774285374E+04  0.11774285374E+04  0.00000000000E+00 0.  1.
         25    1    1    2    0    0 -0.18742226954E+03 -0.15719910329E+03 -0.48259105571E+03  0.55529973190E+03  0.12500000000E+03 0.  0.
         21    1    1    2  503  504  0.12247864315E+03  0.61195474805E+02 -0.16843599005E+03  0.21706355500E+03  0.00000000000E+00 0.  1.
         21    1    1    2  504  502  0.64943626396E+02  0.96003628489E+02 -0.45852196418E+03  0.47294477788E+03  0.00000000000E+00 0.  1.
<mgrwt>
<rscale>  4 0.21947395E+03</rscale>
<asrwt>0</asrwt>
<pdfrwt beam="1">  1       21 0.10443005E-01 0.21947395E+03</pdfrwt>
<pdfrwt beam="2">  1       21 0.18114283E+00 0.21947395E+03</pdfrwt>
<totfact> 0.13166485E+04</totfact>
</mgrwt>
</event>
