<LesHouchesEvents version="3.0">
  <!--
  <scalesfunctionalform>
    muR  H_T/2 := sum_i mT(i)/2, i=final state
    muF1 H_T/2 := sum_i mT(i)/2, i=final state
    muF2 H_T/2 := sum_i mT(i)/2, i=final state
    QES  H_T/2 := sum_i mT(i)/2, i=final state
  </scalesfunctionalform>
HERWIG6   
  -->
  <header>
       66
  </header>
  <init>
   2212   2212 0.65000000D+04 0.65000000D+04 -1 -1   247000   247000 -3   1
 0.13145610D-01 0.27908048D-03 0.48358521D-03     66
  </init>
  <event>
  6     66 -.48358521E-03 0.51226329E+02 0.75467711E-02 0.11961892E+00
       21 -1    0    0  503  502 0.00000000E+00 0.00000000E+00 0.16021387E+02 0.16038932E+02 0.75000000E+00 0.0000E+00 0.9000E+01
       -1 -1    0    0    0  501 0.00000000E+00 0.00000000E+00 -.20606671E+04 0.20606671E+04 0.32000000E+00 0.0000E+00 0.9000E+01
       25  1    1    2    0    0 0.24300454E+02 0.86190061E+01 -.37965774E+03 0.40053689E+03 0.12500000E+03 0.0000E+00 0.9000E+01
       24  1    1    2    0    0 -.72386825E+02 0.12563051E+02 -.70477446E+03 0.71314230E+03 0.80419002E+02 0.0000E+00 0.9000E+01
       -2  1    1    2    0  502 0.56508170E+02 -.11457921E+02 -.86858816E+03 0.87049983E+03 0.32000000E+00 0.0000E+00 0.9000E+01
       21  1    1    2  503  501 -.84217992E+01 -.97241357E+01 -.91625378E+02 0.92527065E+02 0.75000000E+00 0.0000E+00 0.9000E+01
#aMCatNLO 2  0  0  1  2 0.12864117D+02 0.00000000D+00  -5  6  0 0.00000000D+00 0.00000000D+00 0.00000000D+00 0.00000000D+00 0.00000000D+00
  <mgrwgt>
 -.1344794125D-01    3    2    0
 0.175008823362485D+03 0.000000000000000D+00 0.000000000000000D+00 0.175008823362485D+03
 0.175008823362485D+03 0.000000000000000D+00 0.000000000000000D+00 -.175008823362485D+03
 0.151332817634601D+03 0.206516200401895D+02 0.440614429731399D+01 0.826481589351778D+02
 0.111567512100805D+03 -.750528251962196D+02 0.948494856810687D+01 -.160375491493792D+02
 0.871173169895638D+02 0.544012051560301D+02 -.138910928654209D+02 -.666106097857986D+02
 0.000000000000000D+00 -.000000000000000D+00 -.000000000000000D+00 -.000000000000000D+00
 0.180184366295266D+03 0.000000000000000D+00 0.000000000000000D+00 0.180184366295266D+03
 0.183307371245339D+03 0.000000000000000D+00 0.000000000000000D+00 -.183307371245339D+03
 0.152054301648965D+03 0.243002977306731D+02 0.861904894874093D+01 0.826481589351778D+02
 0.110100495531851D+03 -.723869403819495D+02 0.125630824804280D+02 -.160375491493792D+02
 0.880991657319050D+02 0.565084418542146D+02 -.114579957161184D+02 -.666106097857986D+02
 0.132377746278829D+02 -.842179920293822D+01 -.972413571305056D+01 -.312300495007344D+01
-.305828971796D-04 0.000000000000D+00 0.000000000000D+00 0.162461287875D-06 0.000000000000D+00  6 21 -1 25 24 -2 21 4 0.25207184D-02 0.30265715D+00 0.23574558D+05 0.23574558D+05 0.23574558D+05 0.12260407D+01  1  2 13  1  6  1       21 -.211292024165D-01 0.100000000000D+01
-.201353667312D-05 0.000000000000D+00 0.000000000000D+00 0.163608233017D-06 0.000000000000D+00  6 21 -1 25 24 -2 21 4 0.23952025D-02 0.30265715D+00 0.21510123D+05 0.21510123D+05 0.21510123D+05 0.12303608D+01  1  2  8  1  6  1       21 -.153639279977D-02 0.100000000000D+01
0.157898280953D-04 0.000000000000D+00 0.000000000000D+00 0.163608233017D-06 0.138200806713D-07  6 21 -1 25 24 -2 21 4 0.24660359D-02 0.31700851D+00 0.23574558D+05 0.23574558D+05 0.23574558D+05 0.12260407D+01  1  2  1  1  6  1       21 0.921765396191D-02 0.100000000000D+01
  </mgrwgt>
  </event>
  <event>
  6     66 0.48358521E-03 0.44388430E+02 0.75467711E-02 0.11606519E+00
       21 -1    0    0  501  502 0.00000000E+00 0.00000000E+00 0.24181959E+02 0.24193587E+02 0.75000000E+00 0.0000E+00 0.9000E+01
       -1 -1    0    0    0  501 -.00000000E+00 -.00000000E+00 -.27240516E+04 0.27240516E+04 0.32000000E+00 0.0000E+00 0.9000E+01
       25  1    1    2    0    0 0.10616836E+03 0.28917993E+02 -.19447908E+04 0.19519078E+04 0.12500000E+03 0.0000E+00 0.9000E+01
       24  1    1    2    0    0 -.28139036E+02 0.21234906E+02 -.52231508E+03 0.52964421E+03 0.80419002E+02 0.0000E+00 0.9000E+01
       -2  1    1    2    0  503 -.69942718E+02 0.26965399E-01 -.83016734E+02 0.10855351E+03 0.32000000E+00 0.0000E+00 0.9000E+01
       21  1    1    2  503  502 -.80866087E+01 -.50179864E+02 -.14974699E+03 0.15813961E+03 0.75000000E+00 0.0000E+00 0.9000E+01
#aMCatNLO 2  0  0  5  2 0.40399541D+02 0.00000000D+00  -5  6  0 0.00000000D+00 0.00000000D+00 0.00000000D+00 0.00000000D+00 0.00000000D+00
  <mgrwgt>
 0.3431007746D-02    1    2    0
 0.256688347662019D+03 0.000000000000000D+00 0.000000000000000D+00 0.256688347662019D+03
 0.256688347662019D+03 -.000000000000000D+00 -.000000000000000D+00 -.256688347662019D+03
 0.229272542696988D+03 0.110329796418902D+03 0.315927300247198D+02 -.154175660421777D+03
 0.886625090965796D+02 -.265034304786259D+02 0.222861826271333D+02 -.139541678972708D+02
 0.195441643530470D+03 -.838263659402759D+02 -.538789126518531D+02 0.168129828319048D+03
 0.000000000000000D+00 0.000000000000000D+00 -.000000000000000D+00 0.000000000000000D+00
 0.256688347662019D+03 0.000000000000000D+00 0.000000000000000D+00 0.256688347662019D+03
 0.256688347662019D+03 -.000000000000000D+00 -.000000000000000D+00 -.256688347662019D+03
 0.221341798444621D+03 0.106160083387856D+03 0.289126710520680D+02 -.145812502503790D+03
 0.884523804157376D+02 -.281423447238335D+02 0.212327799599542D+02 -.106670115523004D+02
 0.144348928345204D+03 -.698753269784643D+02 0.174257019418590D+00 0.126309229387851D+03
 0.592335881184750D+02 -.814241168555786D+01 -.503197080314408D+02 0.301702846682392D+02
0.569873026493D-04 0.000000000000D+00 0.000000000000D+00 0.643868136750D-06 0.251560902940D-08  6 21 -1 25 24 -2 21 4 0.37211973D-02 0.41908575D+00 0.35190494D+05 0.35190494D+05 0.35190494D+05 0.12076913D+01  1  2  1  3  6  5       -2 0.343100774556D-02 0.100000000000D+01
  </mgrwgt>
  </event>
  <event>
  5     66 0.48358521E-03 0.29911260E+02 0.75467711E-02 0.11616338E+00
       21 -1    0    0  501  502 0.00000000E+00 0.00000000E+00 0.91535122E+02 0.91538195E+02 0.75000000E+00 0.0000E+00 0.9000E+01
       -1 -1    0    0    0  501 0.00000000E+00 0.00000000E+00 -.29430539E+03 0.29430556E+03 0.32000000E+00 0.0000E+00 0.9000E+01
       25  1    1    2    0    0 0.10488999E+03 -.16035343E+02 -.94049144E+02 0.18902191E+03 0.12500000E+03 0.0000E+00 0.9000E+01
       24  1    1    2    0    0 -.95771616E+02 0.44521321E+02 -.98174637E+02 0.16510550E+03 0.80419002E+02 0.0000E+00 0.9000E+01
       -2  1    1    2    0  502 -.91183758E+01 -.28485978E+02 -.10546486E+02 0.31716345E+02 0.32000000E+00 0.0000E+00 0.9000E+01
#aMCatNLO 1  0  0  1  2 0.43508652D+02 0.00000000D+00  -5  6  0 0.00000000D+00 0.00000000D+00 0.00000000D+00 0.00000000D+00 0.00000000D+00
  <mgrwgt>
 0.5389756613D-01    4    2    0
 0.164133805237259D+03 0.000000000000000D+00 0.000000000000000D+00 0.164133805237259D+03
 0.164133805237259D+03 0.000000000000000D+00 0.000000000000000D+00 -.164133805237259D+03
 0.164081312138217D+03 0.104890238397871D+03 -.160345724842167D+02 0.621348268567715D+01
 0.133421799545494D+03 -.957714155056626D+02 0.445219474898980D+02 -.134086838778472D+02
 0.307644987908071D+02 -.911882289220791D+01 -.284873750056813D+02 0.719520119217000D+01
 0.000000000000000D+00 0.000000000000000D+00 -.000000000000000D+00 -.000000000000000D+00
 0.174679738001623D+03 0.000000000000000D+00 0.000000000000000D+00 0.174679738001623D+03
 0.217514551154588D+03 0.000000000000000D+00 0.000000000000000D+00 -.217514551154588D+03
 0.152195145666288D+03 0.863618644837229D+02 -.643298998851768D+01 0.621348268567715D+01
 0.148573822535173D+03 -.112291520619818D+03 0.530828256773826D+02 -.134086838778472D+02
 0.303694120569162D+02 -.127002211628339D+02 -.266314597966778D+02 0.719520119217000D+01
 0.610559088978341D+02 0.386298772989294D+02 -.200183758921871D+02 -.428348131529645D+02
0.156190402749D-04 0.000000000000D+00 0.000000000000D+00 0.467718133074D-06 0.000000000000D+00  6 21 -1 25 24 -2 21 2 0.14082576D-01 0.45278002D-01 0.26670351D+05 0.26670351D+05 0.26670351D+05 0.12202976D+01  1  2  2  1  6  1       21 0.466040719921D-01 0.100000000000D+01
0.722322119292D-06 0.824239400008D-06 -.315303422701D-07 0.467718133074D-06 0.000000000000D+00  6 21 -1 25 24 -2 21 4 0.14082576D-01 0.45278002D-01 0.26670351D+05 0.26670351D+05 0.26670351D+05 0.12202976D+01  1  2  3  1  6  1       21 0.320945981951D-02 0.100000000000D+01
0.173904685051D-05 0.000000000000D+00 0.000000000000D+00 0.467718133074D-06 0.000000000000D+00  6 21 -1 25 24 -2 21 4 0.14082576D-01 0.45278002D-01 0.26670351D+05 0.26670351D+05 0.26670351D+05 0.12202976D+01  1  2 15  1  6  1       21 0.772702488530D-02 0.100000000000D+01
-.819892696812D-06 0.000000000000D+00 0.000000000000D+00 0.467718133074D-06 0.000000000000D+00  6 21 -1 25 24 -2 21 4 0.14082576D-01 0.45278002D-01 0.26670351D+05 0.26670351D+05 0.26670351D+05 0.12202976D+01  1  2  4  1  6  1       21 -.364299056674D-02 0.100000000000D+01
  </mgrwgt>
  </event>
  <event>
  6     66 0.48358521E-03 0.19744947E+02 0.75467711E-02 0.12175049E+00
       21 -1    0    0  501  502 0.00000000E+00 0.00000000E+00 0.50960683E+03 0.50960738E+03 0.75000000E+00 0.0000E+00 0.9000E+01
       -3 -1    0    0    0  501 0.00000000E+00 0.00000000E+00 -.56279653E+02 0.56281874E+02 0.50000000E+00 0.0000E+00 0.9000E+01
       25  1    1    2    0    0 0.33421861E+02 -.23333893E+02 0.20274260E+03 0.24164241E+03 0.12500000E+03 0.0000E+00 0.9000E+01
       24  1    1    2    0    0 -.18381299E+02 -.29397864E+02 0.96248058E+02 0.13012690E+03 0.80419002E+02 0.0000E+00 0.9000E+01
       -4  1    1    2    0  503 -.10164146E+02 0.31605352E+02 0.16613332E+03 0.16942518E+03 0.15500000E+01 0.0000E+00 0.9000E+01
       21  1    1    2  503  502 -.48764156E+01 0.21126404E+02 -.11796803E+02 0.24694766E+02 0.75000000E+00 0.0000E+00 0.9000E+01
#aMCatNLO 2  0  0  5  1 0.52076836D+02 0.00000000D+00  -5  6  0 0.00000000D+00 0.00000000D+00 0.00000000D+00 0.00000000D+00 0.00000000D+00
  <mgrwgt>
 0.1500676706D-01    1    2    0
 0.169355485476833D+03 0.000000000000000D+00 0.000000000000000D+00 0.169355485476833D+03
 0.169355485476833D+03 -.000000000000000D+00 -.000000000000000D+00 -.169355485476833D+03
 0.141814376495903D+03 0.411128657329639D+02 -.502983218927779D+02 0.163134443608762D+02
 0.951653594361301D+02 -.132268841074504D+02 -.474690883699969D+02 -.126871930846353D+02
 0.101731235021633D+03 -.278859816255134D+02 0.977674102627748D+02 -.362625127624090D+01
 0.000000000000000D+00 0.000000000000000D+00 0.000000000000000D+00 0.000000000000000D+00
 0.169355485476833D+03 0.000000000000000D+00 0.000000000000000D+00 0.169355485476833D+03
 0.169355485476833D+03 -.000000000000000D+00 -.000000000000000D+00 -.169355485476833D+03
 0.132360965003402D+03 0.334151876692492D+02 -.233104948392954D+02 0.153124498369073D+02
 0.885833150458059D+02 -.183857657671267D+02 -.293822049139304D+02 -.133580463274439D+02
 0.598946483715237D+02 -.968437875975652D+01 0.299147584076209D+02 0.509773375236459D+02
 0.578720425329339D+02 -.534504314236603D+01 0.227779413456049D+02 -.529317410331092D+02
0.973779048770D-05 0.000000000000D+00 0.000000000000D+00 0.277134659499D-06 0.231192016450D-07  6 21 -3 25 24 -4 21 4 0.78401264D-01 0.86586215D-02 0.18752914D+05 0.18752914D+05 0.18752914D+05 0.12369163D+01  1  2  1  3  6  5       -4 0.150067670555D-01 0.100000000000D+01
  </mgrwgt>
  </event>
  <event>
  5     66 0.48358521E-03 0.22122109E+02 0.75467711E-02 0.12178373E+00
       21 -1    0    0  501  502 0.00000000E+00 0.00000000E+00 0.18601258E+02 0.18616372E+02 0.75000000E+00 0.0000E+00 0.9000E+01
       -1 -1    0    0    0  501 0.00000000E+00 0.00000000E+00 -.15517689E+04 0.15517689E+04 0.32000000E+00 0.0000E+00 0.9000E+01
       25  1    1    2    0    0 -.51936343E+02 0.19513911E+02 -.91315842E+03 0.92334255E+03 0.12500000E+03 0.0000E+00 0.9000E+01
       24  1    1    2    0    0 0.48572674E+02 0.23508823E+01 -.61768866E+03 0.62479703E+03 0.80419002E+02 0.0000E+00 0.9000E+01
       -2  1    1    2    0  502 0.33636689E+01 -.21864793E+02 -.23205326E+01 0.22245690E+02 0.32000000E+00 0.0000E+00 0.9000E+01
#aMCatNLO 1  0  0  1  2 0.21529612D+02 0.00000000D+00  -5  6  0 0.00000000D+00 0.00000000D+00 0.00000000D+00 0.00000000D+00 0.00000000D+00
  <mgrwgt>
 0.5999582339D-01   23    4    0
 0.169931592793253D+03 0.000000000000000D+00 0.000000000000000D+00 0.169931592793253D+03
 0.169931592793253D+03 0.000000000000000D+00 0.000000000000000D+00 -.169931592793253D+03
 0.147055270665025D+03 -.519363519246386D+02 0.195139673670791D+02 -.540562027589855D+02
 0.100486980875850D+03 0.485726683066809D+02 0.235092117178984D+01 -.355750816497459D+02
 0.923209340456311D+02 0.336368361795769D+01 -.218648885388690D+02 0.896312844087314D+02
 0.000000000000000D+00 -.000000000000000D+00 -.000000000000000D+00 0.000000000000000D+00
 0.186960196686342D+03 0.000000000000000D+00 0.000000000000000D+00 0.186960196686342D+03
 0.177216197750229D+03 0.000000000000000D+00 0.000000000000000D+00 -.177216197750229D+03
 0.145550356540383D+03 -.447011544422102D+02 0.252911056271915D+02 -.540562027589855D+02
 0.103185828606937D+03 0.536088428070930D+02 0.637219031635615D+01 -.355750816497459D+02
 0.918082453206509D+02 0.791660690831300D+01 -.182294843360192D+02 0.896312844087314D+02
 0.236319639686003D+02 -.168242952731958D+02 -.134338116075285D+02 0.974399893611337D+01
 0.169931592793253D+03 0.000000000000000D+00 0.000000000000000D+00 0.169931592793253D+03
 0.169931592793253D+03 0.000000000000000D+00 0.000000000000000D+00 -.169931592793253D+03
 0.147055270665025D+03 -.519363519246386D+02 0.195139673670791D+02 -.540562027589855D+02
 0.100486980875850D+03 0.485726683066809D+02 0.235092117178984D+01 -.355750816497459D+02
 0.000000000000000D+00 -.000000000000000D+00 -.000000000000000D+00 0.000000000000000D+00
 0.923209340456311D+02 0.336368361795769D+01 -.218648885388690D+02 0.896312844087314D+02
 0.186960196686342D+03 0.000000000000000D+00 0.000000000000000D+00 0.186960196686342D+03
 0.177216197750229D+03 0.000000000000000D+00 0.000000000000000D+00 -.177216197750229D+03
 0.145550356540383D+03 -.447011544422102D+02 0.252911056271915D+02 -.540562027589855D+02
 0.103185828606937D+03 0.536088428070930D+02 0.637219031635615D+01 -.355750816497459D+02
 0.236319639686003D+02 -.168242952731958D+02 -.134338116075285D+02 0.974399893611337D+01
 0.918082453206509D+02 0.791660690831300D+01 -.182294843360192D+02 0.896312844087314D+02
0.948463653006D-05 0.000000000000D+00 0.000000000000D+00 0.547779834815D-05 0.000000000000D+00  6 21 -1 25 24 -2 21 2 0.28628972D-02 0.23873484D+00 0.15984627D+05 0.15984627D+05 0.15984627D+05 0.12446871D+01  1  2  2  1  6  1       21 0.909319855154D-02 0.100000000000D+01
0.185675245013D-05 0.500518020647D-06 -.191467485093D-07 0.547779834815D-05 0.000000000000D+00  6 21 -1 25 24 -2 21 4 0.28628972D-02 0.23873484D+00 0.15984627D+05 0.15984627D+05 0.15984627D+05 0.12446871D+01  1  2  3  1  6  1       21 0.275784805474D-02 0.100000000000D+01
0.987159990658D-06 0.000000000000D+00 0.000000000000D+00 0.547779834815D-05 0.000000000000D+00  6 21 -1 25 24 -2 21 4 0.28628972D-02 0.23873484D+00 0.15984627D+05 0.15984627D+05 0.15984627D+05 0.12446871D+01  1  2 15  1  6  1       21 0.146623598626D-02 0.100000000000D+01
0.219066062271D-04 0.000000000000D+00 0.000000000000D+00 0.541109097198D-05 0.000000000000D+00  6 21 -1 25 24 -2 21 4 0.32065723D-02 0.23873484D+00 0.18687336D+05 0.18687336D+05 0.18687336D+05 0.12370851D+01  1  2 12  1  6  1       21 0.263135028010D-01 0.100000000000D+01
-.537453796949D-05 0.000000000000D+00 0.000000000000D+00 0.547779834815D-05 0.000000000000D+00  6 21 -1 25 24 -2 21 4 0.28628972D-02 0.23873484D+00 0.15984627D+05 0.15984627D+05 0.15984627D+05 0.12446871D+01  1  2  4  1  6  1       21 -.798284072991D-02 0.100000000000D+01
-.101602847007D-03 0.000000000000D+00 -.236945560334D-04 0.547779834815D-05 0.000000000000D+00  6 21 -1 25 24 -2 21 4 0.32964570D-02 0.23873484D+00 0.15984627D+05 0.15984627D+05 0.15984627D+05 0.12446871D+01  1  2  5  1  6  1       21 -.119736016295D+00 0.100000000000D+01
0.100487542296D-03 0.000000000000D+00 0.227781312985D-04 0.547779834815D-05 0.000000000000D+00  6 21 -1 25 24 -2 21 4 0.28628972D-02 0.23873484D+00 0.15984627D+05 0.15984627D+05 0.15984627D+05 0.12446871D+01  1  2  6  1  6  1       21 0.149254884800D+00 0.100000000000D+01
0.645351687993D-06 0.000000000000D+00 0.000000000000D+00 0.541109097198D-05 0.000000000000D+00  6 -1 -1 25 24 -2 -1 4 0.32065723D-02 0.23873484D+00 0.18687336D+05 0.18687336D+05 0.18687336D+05 0.12370851D+01  1  2 12  4  6  1       21 0.406421083560D-04 0.100000000000D+01
-.335275629479D-05 0.000000000000D+00 -.897922574541D-06 0.547779834815D-05 0.000000000000D+00  6 -1 -1 25 24 -2 -1 4 0.32964570D-02 0.23873484D+00 0.15984627D+05 0.15984627D+05 0.15984627D+05 0.12446871D+01  1  2  5  4  6  1       21 -.207770958470D-03 0.100000000000D+01
0.645351687993D-06 0.000000000000D+00 0.000000000000D+00 0.541109097198D-05 0.000000000000D+00  6 1 -1 25 24 1 -2 4 0.32065723D-02 0.23873484D+00 0.18687336D+05 0.18687336D+05 0.18687336D+05 0.12370851D+01  3  4 12  5  5  1       21 0.439614229588D-04 0.100000000000D+01
-.335275629479D-05 0.000000000000D+00 -.897922574541D-06 0.547779834815D-05 0.000000000000D+00  6 1 -1 25 24 1 -2 4 0.32964570D-02 0.23873484D+00 0.15984627D+05 0.15984627D+05 0.15984627D+05 0.12446871D+01  3  4  5  5  5  1       21 -.225264912473D-03 0.100000000000D+01
0.645351687993D-06 0.000000000000D+00 0.000000000000D+00 0.541109097198D-05 0.000000000000D+00  6 -2 -1 25 24 -2 -2 4 0.32065723D-02 0.23873484D+00 0.18687336D+05 0.18687336D+05 0.18687336D+05 0.12370851D+01  1  2 12  6  6  1       21 0.400484491864D-04 0.100000000000D+01
-.335275629479D-05 0.000000000000D+00 -.897922574541D-06 0.547779834815D-05 0.000000000000D+00  6 -2 -1 25 24 -2 -2 4 0.32964570D-02 0.23873484D+00 0.15984627D+05 0.15984627D+05 0.15984627D+05 0.12446871D+01  1  2  5  6  6  1       21 -.204643008487D-03 0.100000000000D+01
0.645351687993D-06 0.000000000000D+00 0.000000000000D+00 0.541109097198D-05 0.000000000000D+00  6 2 -1 25 24 2 -2 4 0.32065723D-02 0.23873484D+00 0.18687336D+05 0.18687336D+05 0.18687336D+05 0.12370851D+01  3  4 12  7  5  1       21 0.462131336645D-04 0.100000000000D+01
-.335275629479D-05 0.000000000000D+00 -.897922574541D-06 0.547779834815D-05 0.000000000000D+00  6 2 -1 25 24 2 -2 4 0.32964570D-02 0.23873484D+00 0.15984627D+05 0.15984627D+05 0.15984627D+05 0.12446871D+01  3  4  5  7  5  1       21 -.237117694509D-03 0.100000000000D+01
0.645351687993D-06 0.000000000000D+00 0.000000000000D+00 0.541109097198D-05 0.000000000000D+00  6 -3 -1 25 24 -2 -3 4 0.32065723D-02 0.23873484D+00 0.18687336D+05 0.18687336D+05 0.18687336D+05 0.12370851D+01  1  2 12  8  6  1       21 0.301511927828D-04 0.100000000000D+01
0.645351687993D-06 0.000000000000D+00 0.000000000000D+00 0.541109097198D-05 0.000000000000D+00  6 -4 -1 25 24 -2 -4 4 0.32065723D-02 0.23873484D+00 0.18687336D+05 0.18687336D+05 0.18687336D+05 0.12370851D+01  1  2 12  8  6  1       21 0.271382586131D-04 0.100000000000D+01
-.335275629479D-05 0.000000000000D+00 -.897922574541D-06 0.547779834815D-05 0.000000000000D+00  6 -3 -1 25 24 -2 -3 4 0.32964570D-02 0.23873484D+00 0.15984627D+05 0.15984627D+05 0.15984627D+05 0.12446871D+01  1  2  5  8  6  1       21 -.153217692406D-03 0.100000000000D+01
-.335275629479D-05 0.000000000000D+00 -.897922574541D-06 0.547779834815D-05 0.000000000000D+00  6 -4 -1 25 24 -2 -4 4 0.32964570D-02 0.23873484D+00 0.15984627D+05 0.15984627D+05 0.15984627D+05 0.12446871D+01  1  2  5  8  6  1       21 -.137605869094D-03 0.100000000000D+01
0.645351687993D-06 0.000000000000D+00 0.000000000000D+00 0.541109097198D-05 0.000000000000D+00  6 3 -1 25 24 3 -2 4 0.32065723D-02 0.23873484D+00 0.18687336D+05 0.18687336D+05 0.18687336D+05 0.12370851D+01  3  4 12  9  5  1       21 0.301488554310D-04 0.100000000000D+01
0.645351687993D-06 0.000000000000D+00 0.000000000000D+00 0.541109097198D-05 0.000000000000D+00  6 4 -1 25 24 4 -2 4 0.32065723D-02 0.23873484D+00 0.18687336D+05 0.18687336D+05 0.18687336D+05 0.12370851D+01  3  4 12  9  5  1       21 0.271382586131D-04 0.100000000000D+01
-.335275629479D-05 0.000000000000D+00 -.897922574541D-06 0.547779834815D-05 0.000000000000D+00  6 3 -1 25 24 3 -2 4 0.32964570D-02 0.23873484D+00 0.15984627D+05 0.15984627D+05 0.15984627D+05 0.12446871D+01  3  4  5  9  5  1       21 -.153205456956D-03 0.100000000000D+01
-.335275629479D-05 0.000000000000D+00 -.897922574541D-06 0.547779834815D-05 0.000000000000D+00  6 4 -1 25 24 4 -2 4 0.32964570D-02 0.23873484D+00 0.15984627D+05 0.15984627D+05 0.15984627D+05 0.12446871D+01  3  4  5  9  5  1       21 -.137605869094D-03 0.100000000000D+01
  </mgrwgt>
  </event>
  <event>
  6     66 -.48358521E-03 0.12501816E+03 0.75467711E-02 0.10901146E+00
       21 -1    0    0  503  502 0.00000000E+00 0.00000000E+00 0.15081983E+03 0.15082169E+03 0.75000000E+00 0.0000E+00 0.9000E+01
       -1 -1    0    0    0  501 0.00000000E+00 0.00000000E+00 -.11888806E+04 0.11888806E+04 0.32000000E+00 0.0000E+00 0.9000E+01
       25  1    1    2    0    0 0.21072537E+03 -.53254423E+02 -.91167891E+03 0.94552877E+03 0.12500000E+03 0.0000E+00 0.9000E+01
       24  1    1    2    0    0 -.44930737E+02 0.12012724E+03 0.14209873E+02 0.15204756E+03 0.80419002E+02 0.0000E+00 0.9000E+01
       -2  1    1    2    0  502 -.13224903E+03 -.54241481E+02 -.14773695E+03 0.20556812E+03 0.32000000E+00 0.0000E+00 0.9000E+01
       21  1    1    2  503  501 -.33545607E+02 -.12631334E+02 0.71452577E+01 0.36557838E+02 0.75000000E+00 0.0000E+00 0.9000E+01
#aMCatNLO 2  0  0  1  2 0.35844921D+02 0.00000000D+00  -5  6  0 0.00000000D+00 0.00000000D+00 0.00000000D+00 0.00000000D+00 0.00000000D+00
  <mgrwgt>
 -.1921101651D-01    3    2    0
 0.388730321860022D+03 0.000000000000000D+00 0.000000000000000D+00 0.388730321860022D+03
 0.388730321860022D+03 0.000000000000000D+00 0.000000000000000D+00 -.388730321860022D+03
 0.350978727497668D+03 0.195420468344216D+03 -.590173604954276D+02 -.256688252298702D+03
 0.273945732601055D+03 -.567384855433652D+02 0.115681126706566D+03 0.227986117204760D+03
 0.152536183621320D+03 -.138681982800851D+03 -.566637662111386D+02 0.287021350939422D+02
 0.000000000000000D+00 -.000000000000000D+00 -.000000000000000D+00 0.000000000000000D+00
 0.455074412044921D+03 0.000000000000000D+00 0.000000000000000D+00 0.455074412044921D+03
 0.394015231092565D+03 0.000000000000000D+00 0.000000000000000D+00 -.394015231092565D+03
 0.358824650057898D+03 0.210725516285765D+03 -.532543651460436D+02 -.256688252298702D+03
 0.273668067067967D+03 -.449306304071282D+02 0.120127281628538D+03 0.227986117204760D+03
 0.145793805222134D+03 -.132249279145122D+03 -.542415822759092D+02 0.287021350939422D+02
 0.708031207894867D+02 -.335456067335149D+02 -.126313342065855D+02 0.610591809523559D+02
-.549764498868D-03 0.000000000000D+00 0.000000000000D+00 0.201344386487D-07 0.000000000000D+00  6 21 -1 25 24 -2 21 4 0.23322961D-01 0.18045065D+00 0.84360946D+05 0.84360946D+05 0.84360946D+05 0.11704181D+01  1  2 13  1  6  1       21 -.369049393670D-01 0.100000000000D+01
-.450707419279D-03 0.000000000000D+00 0.000000000000D+00 0.201344386487D-07 0.000000000000D+00  6 21 -1 25 24 -2 21 4 0.24057960D-01 0.18045065D+00 0.84360946D+05 0.84360946D+05 0.84360946D+05 0.11704181D+01  1  2 13  1  6  1       21 -.285083044878D-01 0.100000000000D+01
0.708854139485D-03 0.000000000000D+00 0.000000000000D+00 0.203350425430D-07 0.417451200211D-09  6 21 -1 25 24 -2 21 4 0.23203081D-01 0.18290394D+00 0.84360946D+05 0.84360946D+05 0.84360946D+05 0.11704181D+01  1  2  1  1  6  1       21 0.462022273413D-01 0.100000000000D+01
  </mgrwgt>
  </event>
  <event>
  5     66 0.48358521E-03 0.45112836E+02 0.75467711E-02 0.12124596E+00
       21 -1    0    0  501  502 0.00000000E+00 0.00000000E+00 0.62970546E+02 0.62975012E+02 0.75000000E+00 0.0000E+00 0.9000E+01
       -1 -1    0    0    0  501 0.00000000E+00 0.00000000E+00 -.41853445E+03 0.41853457E+03 0.32000000E+00 0.0000E+00 0.9000E+01
       25  1    1    2    0    0 -.13828523E+02 -.54678513E+01 -.17359712E+03 0.21443434E+03 0.12500000E+03 0.0000E+00 0.9000E+01
       24  1    1    2    0    0 -.26385702E+02 -.16598399E+02 -.19998558E+03 0.21779155E+03 0.80419002E+02 0.0000E+00 0.9000E+01
       -2  1    1    2    0  502 0.40214225E+02 0.22066250E+02 0.18018794E+02 0.49283695E+02 0.32000000E+00 0.0000E+00 0.9000E+01
#aMCatNLO 1  0  0  1  2 0.22524452D+02 0.00000000D+00  -5  6  0 0.00000000D+00 0.00000000D+00 0.00000000D+00 0.00000000D+00 0.00000000D+00
  <mgrwgt>
 0.3714590898D-01   23    4    0
 0.162346689060663D+03 0.000000000000000D+00 0.000000000000000D+00 0.162346689060663D+03
 0.162346689060663D+03 0.000000000000000D+00 0.000000000000000D+00 -.162346689060663D+03
 0.127897078008039D+03 -.138286170079907D+02 -.546790293274776D+01 -.226171163537459D+02
 0.103978413615359D+03 -.263857783893959D+02 -.165984408230609D+02 -.580738926250450D+02
 0.928178864979276D+02 0.402143953973866D+02 0.220663437558086D+02 0.806910089787909D+02
 0.000000000000000D+00 -.000000000000000D+00 0.000000000000000D+00 0.000000000000000D+00
 0.183754046853687D+03 0.000000000000000D+00 0.000000000000000D+00 0.183754046853687D+03
 0.168771811383109D+03 0.000000000000000D+00 0.000000000000000D+00 -.168771811383109D+03
 0.128192469294043D+03 -.104707145315854D+02 -.136798892080100D+02 -.226171163537459D+02
 0.104601321139697D+03 -.236508350258708D+02 -.232869368477966D+02 -.580738926250450D+02
 0.926799269972100D+02 0.426466835320068D+02 0.161180123437642D+02 0.806910089787909D+02
 0.270521408058461D+02 -.852513397455058D+01 0.208488137120425D+02 0.149822354705776D+02
 0.162346689060663D+03 0.000000000000000D+00 0.000000000000000D+00 0.162346689060663D+03
 0.162346689060663D+03 0.000000000000000D+00 0.000000000000000D+00 -.162346689060663D+03
 0.127897078008039D+03 -.138286170079907D+02 -.546790293274776D+01 -.226171163537459D+02
 0.103978413615359D+03 -.263857783893959D+02 -.165984408230609D+02 -.580738926250450D+02
 0.000000000000000D+00 -.000000000000000D+00 0.000000000000000D+00 0.000000000000000D+00
 0.928178864979276D+02 0.402143953973866D+02 0.220663437558086D+02 0.806910089787909D+02
 0.183754046853687D+03 0.000000000000000D+00 0.000000000000000D+00 0.183754046853687D+03
 0.168771811383109D+03 0.000000000000000D+00 0.000000000000000D+00 -.168771811383109D+03
 0.128192469294043D+03 -.104707145315854D+02 -.136798892080100D+02 -.226171163537459D+02
 0.104601321139697D+03 -.236508350258708D+02 -.232869368477966D+02 -.580738926250450D+02
 0.270521408058461D+02 -.852513397455058D+01 0.208488137120425D+02 0.149822354705776D+02
 0.926799269972100D+02 0.426466835320068D+02 0.161180123437642D+02 0.806910089787909D+02
0.198061487466D-05 0.000000000000D+00 0.000000000000D+00 0.148817819303D-05 0.000000000000D+00  6 21 -1 25 24 -2 21 2 0.96881292D-02 0.64390268D-01 0.16641175D+05 0.16641175D+05 0.16641175D+05 0.12427145D+01  1  2  2  1  6  1       21 0.617074017039D-02 0.100000000000D+01
0.661889009541D-07 0.104519918459D-06 -.399829079151D-08 0.148817819303D-05 0.000000000000D+00  6 21 -1 25 24 -2 21 4 0.96881292D-02 0.64390268D-01 0.16641175D+05 0.16641175D+05 0.16641175D+05 0.12427145D+01  1  2  3  1  6  1       21 0.318467480773D-03 0.100000000000D+01
0.208336370133D-06 0.000000000000D+00 0.000000000000D+00 0.148817819303D-05 0.000000000000D+00  6 21 -1 25 24 -2 21 4 0.96881292D-02 0.64390268D-01 0.16641175D+05 0.16641175D+05 0.16641175D+05 0.12427145D+01  1  2 15  1  6  1       21 0.100240913496D-02 0.100000000000D+01
0.502070787908D-05 0.000000000000D+00 0.000000000000D+00 0.146821409016D-05 0.000000000000D+00  6 21 -1 25 24 -2 21 4 0.11139486D-01 0.64390268D-01 0.19781868D+05 0.19781868D+05 0.19781868D+05 0.12343507D+01  1  2 12  1  6  1       21 0.184118672204D-01 0.100000000000D+01
-.189202345783D-05 0.000000000000D+00 0.000000000000D+00 0.148817819303D-05 0.000000000000D+00  6 21 -1 25 24 -2 21 4 0.96881292D-02 0.64390268D-01 0.16641175D+05 0.16641175D+05 0.16641175D+05 0.12427145D+01  1  2  4  1  6  1       21 -.910345897112D-02 0.100000000000D+01
-.204039017799D-04 0.000000000000D+00 -.439365703510D-05 0.148817819303D-05 0.000000000000D+00  6 21 -1 25 24 -2 21 4 0.11382720D-01 0.64390268D-01 0.16641175D+05 0.16641175D+05 0.16641175D+05 0.12427145D+01  1  2  5  1  6  1       21 -.739809599358D-01 0.100000000000D+01
0.198475452919D-04 0.000000000000D+00 0.417347132026D-05 0.148817819303D-05 0.000000000000D+00  6 21 -1 25 24 -2 21 4 0.96881292D-02 0.64390268D-01 0.16641175D+05 0.16641175D+05 0.16641175D+05 0.12427145D+01  1  2  6  1  6  1       21 0.954963393788D-01 0.100000000000D+01
0.188032270406D-06 0.000000000000D+00 0.000000000000D+00 0.146821409016D-05 0.000000000000D+00  6 -1 -1 25 24 -2 -1 4 0.11139486D-01 0.64390268D-01 0.19781868D+05 0.19781868D+05 0.19781868D+05 0.12343507D+01  1  2 12  4  6  1       21 0.469018691950D-04 0.100000000000D+01
-.853677050814D-06 0.000000000000D+00 -.194821233443D-06 0.148817819303D-05 0.000000000000D+00  6 -1 -1 25 24 -2 -1 4 0.11382720D-01 0.64390268D-01 0.16641175D+05 0.16641175D+05 0.16641175D+05 0.12427145D+01  1  2  5  4  6  1       21 -.210982598851D-03 0.100000000000D+01
0.188032270406D-06 0.000000000000D+00 0.000000000000D+00 0.146821409016D-05 0.000000000000D+00  6 1 -1 25 24 1 -2 4 0.11139486D-01 0.64390268D-01 0.19781868D+05 0.19781868D+05 0.19781868D+05 0.12343507D+01  3  4 12  5  5  1       21 0.601208239972D-04 0.100000000000D+01
-.853677050814D-06 0.000000000000D+00 -.194821233443D-06 0.148817819303D-05 0.000000000000D+00  6 1 -1 25 24 1 -2 4 0.11382720D-01 0.64390268D-01 0.16641175D+05 0.16641175D+05 0.16641175D+05 0.12427145D+01  3  4  5  5  5  1       21 -.271803747922D-03 0.100000000000D+01
0.188032270406D-06 0.000000000000D+00 0.000000000000D+00 0.146821409016D-05 0.000000000000D+00  6 -2 -1 25 24 -2 -2 4 0.11139486D-01 0.64390268D-01 0.19781868D+05 0.19781868D+05 0.19781868D+05 0.12343507D+01  1  2 12  6  6  1       21 0.446088665854D-04 0.100000000000D+01
-.853677050814D-06 0.000000000000D+00 -.194821233443D-06 0.148817819303D-05 0.000000000000D+00  6 -2 -1 25 24 -2 -2 4 0.11382720D-01 0.64390268D-01 0.16641175D+05 0.16641175D+05 0.16641175D+05 0.12427145D+01  1  2  5  6  6  1       21 -.200427470905D-03 0.100000000000D+01
0.188032270406D-06 0.000000000000D+00 0.000000000000D+00 0.146821409016D-05 0.000000000000D+00  6 2 -1 25 24 2 -2 4 0.11139486D-01 0.64390268D-01 0.19781868D+05 0.19781868D+05 0.19781868D+05 0.12343507D+01  3  4 12  7  5  1       21 0.690933660782D-04 0.100000000000D+01
-.853677050814D-06 0.000000000000D+00 -.194821233443D-06 0.148817819303D-05 0.000000000000D+00  6 2 -1 25 24 2 -2 4 0.11382720D-01 0.64390268D-01 0.16641175D+05 0.16641175D+05 0.16641175D+05 0.12427145D+01  3  4  5  7  5  1       21 -.313072589117D-03 0.100000000000D+01
0.188032270406D-06 0.000000000000D+00 0.000000000000D+00 0.146821409016D-05 0.000000000000D+00  6 -3 -1 25 24 -2 -3 4 0.11139486D-01 0.64390268D-01 0.19781868D+05 0.19781868D+05 0.19781868D+05 0.12343507D+01  1  2 12  8  6  1       21 0.304214412746D-04 0.100000000000D+01
0.188032270406D-06 0.000000000000D+00 0.000000000000D+00 0.146821409016D-05 0.000000000000D+00  6 -4 -1 25 24 -2 -4 4 0.11139486D-01 0.64390268D-01 0.19781868D+05 0.19781868D+05 0.19781868D+05 0.12343507D+01  1  2 12  8  6  1       21 0.264762244432D-04 0.100000000000D+01
-.853677050814D-06 0.000000000000D+00 -.194821233443D-06 0.148817819303D-05 0.000000000000D+00  6 -3 -1 25 24 -2 -3 4 0.11382720D-01 0.64390268D-01 0.16641175D+05 0.16641175D+05 0.16641175D+05 0.12427145D+01  1  2  5  8  6  1       21 -.135900511424D-03 0.100000000000D+01
-.853677050814D-06 0.000000000000D+00 -.194821233443D-06 0.148817819303D-05 0.000000000000D+00  6 -4 -1 25 24 -2 -4 4 0.11382720D-01 0.64390268D-01 0.16641175D+05 0.16641175D+05 0.16641175D+05 0.12427145D+01  1  2  5  8  6  1       21 -.117971082105D-03 0.100000000000D+01
0.188032270406D-06 0.000000000000D+00 0.000000000000D+00 0.146821409016D-05 0.000000000000D+00  6 3 -1 25 24 3 -2 4 0.11139486D-01 0.64390268D-01 0.19781868D+05 0.19781868D+05 0.19781868D+05 0.12343507D+01  3  4 12  9  5  1       21 0.304175435231D-04 0.100000000000D+01
0.188032270406D-06 0.000000000000D+00 0.000000000000D+00 0.146821409016D-05 0.000000000000D+00  6 4 -1 25 24 4 -2 4 0.11139486D-01 0.64390268D-01 0.19781868D+05 0.19781868D+05 0.19781868D+05 0.12343507D+01  3  4 12  9  5  1       21 0.264762244432D-04 0.100000000000D+01
-.853677050814D-06 0.000000000000D+00 -.194821233443D-06 0.148817819303D-05 0.000000000000D+00  6 3 -1 25 24 3 -2 4 0.11382720D-01 0.64390268D-01 0.16641175D+05 0.16641175D+05 0.16641175D+05 0.12427145D+01  3  4  5  9  5  1       21 -.135882771921D-03 0.100000000000D+01
-.853677050814D-06 0.000000000000D+00 -.194821233443D-06 0.148817819303D-05 0.000000000000D+00  6 4 -1 25 24 4 -2 4 0.11382720D-01 0.64390268D-01 0.16641175D+05 0.16641175D+05 0.16641175D+05 0.12427145D+01  3  4  5  9  5  1       21 -.117971082105D-03 0.100000000000D+01
  </mgrwgt>
  </event>
  <event>
  5     66 0.48358521E-03 0.50838445E+02 0.75467711E-02 0.12131936E+00
       21 -1    0    0  501  502 0.00000000E+00 0.00000000E+00 0.11128734E+03 0.11128987E+03 0.75000000E+00 0.0000E+00 0.9000E+01
       -3 -1    0    0    0  501 0.00000000E+00 0.00000000E+00 -.17130258E+03 0.17130331E+03 0.50000000E+00 0.0000E+00 0.9000E+01
       25  1    1    2    0    0 -.26082106E+02 0.21940722E+02 -.43790004E+01 0.12963737E+03 0.12500000E+03 0.0000E+00 0.9000E+01
       24  1    1    2    0    0 0.17474145E+02 0.31300100E+02 -.28381016E+02 0.92508054E+02 0.80419002E+02 0.0000E+00 0.9000E+01
       -4  1    1    2    0  502 0.86079612E+01 -.53240822E+02 -.27255216E+02 0.60447758E+02 0.15500000E+01 0.0000E+00 0.9000E+01
#aMCatNLO 1  0  0  1  2 0.85097513D+01 0.00000000D+00  -5  6  0 0.00000000D+00 0.00000000D+00 0.00000000D+00 0.00000000D+00 0.00000000D+00
  <mgrwgt>
 0.2135308184D-01   32    4    0
 0.138073419714828D+03 0.000000000000000D+00 0.000000000000000D+00 0.138073419714828D+03
 0.138073419714828D+03 0.000000000000000D+00 0.000000000000000D+00 -.138073419714828D+03
 0.131714340026763D+03 -.260836833269030D+02 0.219504776540258D+02 0.236956823819813D+02
 0.885014061138339D+02 0.174730850203528D+02 0.313066548462172D+02 -.893686701067951D+01
 0.559310932890586D+02 0.861059830655020D+01 -.532571325002429D+02 -.147588153713018D+02
 0.000000000000000D+00 0.000000000000000D+00 -.000000000000000D+00 0.000000000000000D+00
 0.143519568087263D+03 0.000000000000000D+00 0.000000000000000D+00 0.143519568087263D+03
 0.141503634786525D+03 0.000000000000000D+00 0.000000000000000D+00 -.141503634786525D+03
 0.132657378155219D+03 -.301255685769931D+02 0.224487134014807D+02 0.236956823819813D+02
 0.881270407118606D+02 0.147726754648963D+02 0.316395293565134D+02 -.893686701067951D+01
 0.554935078568140D+02 0.690706717634565D+01 -.530471413566420D+02 -.147588153713018D+02
 0.874527614989525D+01 0.844582593575114D+01 -.104110140135210D+01 0.201593330073761D+01
 0.138073419714828D+03 0.000000000000000D+00 0.000000000000000D+00 0.138073419714828D+03
 0.138073419714828D+03 0.000000000000000D+00 0.000000000000000D+00 -.138073419714828D+03
 0.131714340026763D+03 -.260836833269030D+02 0.219504776540258D+02 0.236956823819813D+02
 0.885014061138339D+02 0.174730850203528D+02 0.313066548462172D+02 -.893686701067951D+01
 0.000000000000000D+00 0.000000000000000D+00 -.000000000000000D+00 0.000000000000000D+00
 0.559310932890586D+02 0.861059830655020D+01 -.532571325002429D+02 -.147588153713018D+02
 0.143519568087263D+03 0.000000000000000D+00 0.000000000000000D+00 0.143519568087263D+03
 0.141503634786525D+03 0.000000000000000D+00 0.000000000000000D+00 -.141503634786525D+03
 0.132657378155219D+03 -.301255685769931D+02 0.224487134014807D+02 0.236956823819813D+02
 0.881270407118606D+02 0.147726754648963D+02 0.316395293565134D+02 -.893686701067951D+01
 0.874527614989525D+01 0.844582593575114D+01 -.104110140135210D+01 0.201593330073761D+01
 0.554935078568140D+02 0.690706717634565D+01 -.530471413566420D+02 -.147588153713018D+02
0.860392950779D-06 0.000000000000D+00 0.000000000000D+00 0.361252276884D-06 0.000000000000D+00  6 21 -3 25 24 -4 21 2 0.17121380D-01 0.26354493D-01 0.18436630D+05 0.18436630D+05 0.18436630D+05 0.12377367D+01  1  2  2  1  6  1       21 0.267090417999D-02 0.100000000000D+01
-.620268804162D-07 0.454041834221D-07 -.173688547742D-08 0.361252276884D-06 0.000000000000D+00  6 21 -3 25 24 -4 21 4 0.17121380D-01 0.26354493D-01 0.18436630D+05 0.18436630D+05 0.18436630D+05 0.12377367D+01  1  2  3  1  6  1       21 -.294983639275D-03 0.100000000000D+01
0.984788022402D-07 0.000000000000D+00 0.000000000000D+00 0.361252276884D-06 0.000000000000D+00  6 21 -3 25 24 -4 21 4 0.17121380D-01 0.26354493D-01 0.18436630D+05 0.18436630D+05 0.18436630D+05 0.12377367D+01  1  2 15  1  6  1       21 0.468339456722D-03 0.100000000000D+01
0.251095516109D-05 0.000000000000D+00 0.000000000000D+00 0.359495970473D-06 0.000000000000D+00  6 21 -3 25 24 -4 21 4 0.18002530D-01 0.26354493D-01 0.19628196D+05 0.19628196D+05 0.19628196D+05 0.12347243D+01  1  2 12  1  6  1       21 0.108114483340D-01 0.100000000000D+01
-.123402009792D-05 0.000000000000D+00 0.000000000000D+00 0.361252276884D-06 0.000000000000D+00  6 21 -3 25 24 -4 21 4 0.17121380D-01 0.26354493D-01 0.18436630D+05 0.18436630D+05 0.18436630D+05 0.12377367D+01  1  2  4  1  6  1       21 -.586867720864D-02 0.100000000000D+01
-.274178866266D-04 0.000000000000D+00 -.448076697010D-05 0.361252276884D-06 0.000000000000D+00  6 21 -3 25 24 -4 21 4 0.18219026D-01 0.26354493D-01 0.18436630D+05 0.18436630D+05 0.18436630D+05 0.12377367D+01  1  2  5  1  6  1       21 -.116378263486D+00 0.100000000000D+01
0.274798716712D-04 0.000000000000D+00 0.444635320919D-05 0.361252276884D-06 0.000000000000D+00  6 21 -3 25 24 -4 21 4 0.17121380D-01 0.26354493D-01 0.18436630D+05 0.18436630D+05 0.18436630D+05 0.12377367D+01  1  2  6  1  6  1       21 0.130687090790D+00 0.100000000000D+01
0.198453872537D-08 0.000000000000D+00 0.000000000000D+00 0.361252276884D-06 0.847025496141D-07  6 21 -3 25 24 -4 21 4 0.17796714D-01 0.27009229D-01 0.19628196D+05 0.19628196D+05 0.19628196D+05 0.12347243D+01  1  2 11  1  6  1       21 0.834524301469D-05 0.100000000000D+01
0.421501975275D-07 0.000000000000D+00 0.000000000000D+00 0.359495970473D-06 0.000000000000D+00  6 -3 -3 25 24 -4 -3 4 0.18002530D-01 0.26354493D-01 0.19628196D+05 0.19628196D+05 0.19628196D+05 0.12347243D+01  1  2 12  4  6  1       21 0.838038907269D-05 0.100000000000D+01
-.356041151264D-06 0.000000000000D+00 -.676510691901D-07 0.361252276884D-06 0.000000000000D+00  6 -3 -3 25 24 -4 -3 4 0.18219026D-01 0.26354493D-01 0.18436630D+05 0.18436630D+05 0.18436630D+05 0.12377367D+01  1  2  5  4  6  1       21 -.696793648483D-04 0.100000000000D+01
0.100528177211D-09 0.000000000000D+00 0.000000000000D+00 0.361252276884D-06 0.122643918165D-08  6 -3 -3 25 24 -4 -3 4 0.17796714D-01 0.27009229D-01 0.19628196D+05 0.19628196D+05 0.19628196D+05 0.12347243D+01  1  2 11  4  6  1       21 0.194996165481D-07 0.100000000000D+01
0.421501975275D-07 0.000000000000D+00 0.000000000000D+00 0.359495970473D-06 0.000000000000D+00  6 3 -3 25 24 3 -4 4 0.18002530D-01 0.26354493D-01 0.19628196D+05 0.19628196D+05 0.19628196D+05 0.12347243D+01  3  4 12  5  5  1       21 0.837948607306D-05 0.100000000000D+01
-.356041151264D-06 0.000000000000D+00 -.676510691901D-07 0.361252276884D-06 0.000000000000D+00  6 3 -3 25 24 3 -4 4 0.18219026D-01 0.26354493D-01 0.18436630D+05 0.18436630D+05 0.18436630D+05 0.12377367D+01  3  4  5  5  5  1       21 -.696718788971D-04 0.100000000000D+01
0.905817369683D-10 0.000000000000D+00 0.000000000000D+00 0.361252276884D-06 0.734229327809D-09  6 3 -3 25 24 3 -4 4 0.17796714D-01 0.27009229D-01 0.19628196D+05 0.19628196D+05 0.19628196D+05 0.12347243D+01  3  4 11  5  5  1       21 0.175683739997D-07 0.100000000000D+01
0.421501975275D-07 0.000000000000D+00 0.000000000000D+00 0.359495970473D-06 0.000000000000D+00  6 -4 -3 25 24 -4 -4 4 0.18002530D-01 0.26354493D-01 0.19628196D+05 0.19628196D+05 0.19628196D+05 0.12347243D+01  1  2 12  6  6  1       21 0.717048717219D-05 0.100000000000D+01
-.356041151264D-06 0.000000000000D+00 -.676510691901D-07 0.361252276884D-06 0.000000000000D+00  6 -4 -3 25 24 -4 -4 4 0.18219026D-01 0.26354493D-01 0.18436630D+05 0.18436630D+05 0.18436630D+05 0.12377367D+01  1  2  5  6  6  1       21 -.595522748541D-04 0.100000000000D+01
0.904015187688D-10 0.000000000000D+00 0.000000000000D+00 0.361252276884D-06 0.377246139663D-09  6 -4 -3 25 24 -4 -4 4 0.17796714D-01 0.27009229D-01 0.19628196D+05 0.19628196D+05 0.19628196D+05 0.12347243D+01  1  2 11  6  6  1       21 0.150101270597D-07 0.100000000000D+01
0.421501975275D-07 0.000000000000D+00 0.000000000000D+00 0.359495970473D-06 0.000000000000D+00  6 4 -3 25 24 4 -4 4 0.18002530D-01 0.26354493D-01 0.19628196D+05 0.19628196D+05 0.19628196D+05 0.12347243D+01  3  4 12  7  5  1       21 0.717048717219D-05 0.100000000000D+01
-.356041151264D-06 0.000000000000D+00 -.676510691901D-07 0.361252276884D-06 0.000000000000D+00  6 4 -3 25 24 4 -4 4 0.18219026D-01 0.26354493D-01 0.18436630D+05 0.18436630D+05 0.18436630D+05 0.12377367D+01  3  4  5  7  5  1       21 -.595522748541D-04 0.100000000000D+01
0.379824309906D-09 0.000000000000D+00 0.000000000000D+00 0.361252276884D-06 0.145650016317D-07  6 4 -3 25 24 4 -4 4 0.17796714D-01 0.27009229D-01 0.19628196D+05 0.19628196D+05 0.19628196D+05 0.12347243D+01  3  4 11  7  5  1       21 0.630654355115D-07 0.100000000000D+01
0.421501975275D-07 0.000000000000D+00 0.000000000000D+00 0.359495970473D-06 0.000000000000D+00  6 -1 -3 25 24 -4 -1 4 0.18002530D-01 0.26354493D-01 0.19628196D+05 0.19628196D+05 0.19628196D+05 0.12347243D+01  1  2 12  8  6  1       21 0.138254169553D-04 0.100000000000D+01
0.421501975275D-07 0.000000000000D+00 0.000000000000D+00 0.359495970473D-06 0.000000000000D+00  6 -2 -3 25 24 -4 -2 4 0.18002530D-01 0.26354493D-01 0.19628196D+05 0.19628196D+05 0.19628196D+05 0.12347243D+01  1  2 12  8  6  1       21 0.127539377211D-04 0.100000000000D+01
-.356041151264D-06 0.000000000000D+00 -.676510691901D-07 0.361252276884D-06 0.000000000000D+00  6 -1 -3 25 24 -4 -1 4 0.18219026D-01 0.26354493D-01 0.18436630D+05 0.18436630D+05 0.18436630D+05 0.12377367D+01  1  2  5  8  6  1       21 -.115331881257D-03 0.100000000000D+01
-.356041151264D-06 0.000000000000D+00 -.676510691901D-07 0.361252276884D-06 0.000000000000D+00  6 -2 -3 25 24 -4 -2 4 0.18219026D-01 0.26354493D-01 0.18436630D+05 0.18436630D+05 0.18436630D+05 0.12377367D+01  1  2  5  8  6  1       21 -.106286922957D-03 0.100000000000D+01
0.901027952047D-10 0.000000000000D+00 0.000000000000D+00 0.361252276884D-06 0.730347164574D-09  6 -1 -3 25 24 -4 -1 4 0.17796714D-01 0.27009229D-01 0.19628196D+05 0.19628196D+05 0.19628196D+05 0.12347243D+01  1  2 11  8  6  1       21 0.287831963213D-07 0.100000000000D+01
0.901027952047D-10 0.000000000000D+00 0.000000000000D+00 0.361252276884D-06 0.730347164574D-09  6 -2 -3 25 24 -4 -2 4 0.17796714D-01 0.27009229D-01 0.19628196D+05 0.19628196D+05 0.19628196D+05 0.12347243D+01  1  2 11  8  6  1       21 0.265763773157D-07 0.100000000000D+01
0.421501975275D-07 0.000000000000D+00 0.000000000000D+00 0.359495970473D-06 0.000000000000D+00  6 1 -3 25 24 1 -4 4 0.18002530D-01 0.26354493D-01 0.19628196D+05 0.19628196D+05 0.19628196D+05 0.12347243D+01  3  4 12  9  5  1       21 0.201009462367D-04 0.100000000000D+01
0.421501975275D-07 0.000000000000D+00 0.000000000000D+00 0.359495970473D-06 0.000000000000D+00  6 2 -3 25 24 2 -4 4 0.18002530D-01 0.26354493D-01 0.19628196D+05 0.19628196D+05 0.19628196D+05 0.12347243D+01  3  4 12  9  5  1       21 0.244731937643D-04 0.100000000000D+01
-.356041151264D-06 0.000000000000D+00 -.676510691901D-07 0.361252276884D-06 0.000000000000D+00  6 1 -3 25 24 1 -4 4 0.18219026D-01 0.26354493D-01 0.18436630D+05 0.18436630D+05 0.18436630D+05 0.12377367D+01  3  4  5  9  5  1       21 -.168318036760D-03 0.100000000000D+01
-.356041151264D-06 0.000000000000D+00 -.676510691901D-07 0.361252276884D-06 0.000000000000D+00  6 2 -3 25 24 2 -4 4 0.18219026D-01 0.26354493D-01 0.18436630D+05 0.18436630D+05 0.18436630D+05 0.12377367D+01  3  4  5  9  5  1       21 -.205246433911D-03 0.100000000000D+01
0.901027952047D-10 0.000000000000D+00 0.000000000000D+00 0.361252276884D-06 0.730347164574D-09  6 1 -3 25 24 1 -4 4 0.17796714D-01 0.27009229D-01 0.19628196D+05 0.19628196D+05 0.19628196D+05 0.12347243D+01  3  4 11  9  5  1       21 0.416997228856D-07 0.100000000000D+01
0.901027952047D-10 0.000000000000D+00 0.000000000000D+00 0.361252276884D-06 0.730347164574D-09  6 2 -3 25 24 2 -4 4 0.17796714D-01 0.27009229D-01 0.19628196D+05 0.19628196D+05 0.19628196D+05 0.12347243D+01  3  4 11  9  5  1       21 0.506917631359D-07 0.100000000000D+01
  </mgrwgt>
  </event>
  <event>
  5     66 0.48358521E-03 0.28489082E+02 0.75467711E-02 0.12379408E+00
       21 -1    0    0  501  502 0.00000000E+00 0.00000000E+00 0.23642851E+03 0.23642970E+03 0.75000000E+00 0.0000E+00 0.9000E+01
       -1 -1    0    0    0  501 0.00000000E+00 0.00000000E+00 -.11693889E+03 0.11693933E+03 0.32000000E+00 0.0000E+00 0.9000E+01
       25  1    1    2    0    0 -.19168795E+02 -.56376747E+01 -.12944203E+02 0.12724692E+03 0.12500000E+03 0.0000E+00 0.9000E+01
       24  1    1    2    0    0 0.21893926E+02 -.22720667E+02 -.42583551E+01 0.86492325E+02 0.80419002E+02 0.0000E+00 0.9000E+01
       -2  1    1    2    0  502 -.27251311E+01 0.28358342E+02 0.13669218E+03 0.13962978E+03 0.32000000E+00 0.0000E+00 0.9000E+01
#aMCatNLO 1  0  0  1  2 0.48093264D+01 0.00000000D+00  -5  6  0 0.00000000D+00 0.00000000D+00 0.00000000D+00 0.00000000D+00 0.00000000D+00
  <mgrwgt>
 0.6774278604D-01   32    4    0
 0.166276802172406D+03 0.000000000000000D+00 0.000000000000000D+00 0.166276802172406D+03
 0.166276802172406D+03 0.000000000000000D+00 0.000000000000000D+00 -.166276802172406D+03
 0.139862709011338D+03 -.191687892459434D+02 -.563773668394962D+01 -.594756321186864D+02
 0.934362424563437D+02 0.218939303263325D+02 -.227207086631837D+02 -.356025373070310D+02
 0.992546528771311D+02 -.272514108038909D+01 0.283584453471333D+02 0.950781694257173D+02
 0.000000000000000D+00 0.000000000000000D+00 0.000000000000000D+00 0.000000000000000D+00
 0.169118822013718D+03 0.000000000000000D+00 0.000000000000000D+00 0.169118822013718D+03
 0.168341324278323D+03 0.000000000000000D+00 0.000000000000000D+00 -.168341324278323D+03
 0.140159993451786D+03 -.211875175218772D+02 -.579327625335118D+01 -.594756321186864D+02
 0.931555644976463D+02 0.205487602617545D+02 -.228243517215936D+02 -.356025373070310D+02
 0.992728203552229D+02 -.415635726478625D+01 0.282481725819992D+02 0.950781694257173D+02
 0.487176798738550D+01 0.479511452490895D+01 0.369455392945581D+00 0.777497735395348D+00
 0.166276802172406D+03 0.000000000000000D+00 0.000000000000000D+00 0.166276802172406D+03
 0.166276802172406D+03 0.000000000000000D+00 0.000000000000000D+00 -.166276802172406D+03
 0.139862709011338D+03 -.191687892459434D+02 -.563773668394962D+01 -.594756321186864D+02
 0.934362424563437D+02 0.218939303263325D+02 -.227207086631837D+02 -.356025373070310D+02
 0.000000000000000D+00 0.000000000000000D+00 0.000000000000000D+00 0.000000000000000D+00
 0.992546528771311D+02 -.272514108038909D+01 0.283584453471333D+02 0.950781694257173D+02
 0.169118822013718D+03 0.000000000000000D+00 0.000000000000000D+00 0.169118822013718D+03
 0.168341324278323D+03 0.000000000000000D+00 0.000000000000000D+00 -.168341324278323D+03
 0.140159993451786D+03 -.211875175218772D+02 -.579327625335118D+01 -.594756321186864D+02
 0.931555644976463D+02 0.205487602617545D+02 -.228243517215936D+02 -.356025373070310D+02
 0.487176798738550D+01 0.479511452490895D+01 0.369455392945581D+00 0.777497735395348D+00
 0.992728203552229D+02 -.415635726478625D+01 0.282481725819992D+02 0.950781694257173D+02
0.376080689842D-05 0.000000000000D+00 0.000000000000D+00 0.463450627873D-05 0.000000000000D+00  6 21 -1 25 24 -2 21 2 0.36373742D-01 0.17990724D-01 0.14576139D+05 0.14576139D+05 0.14576139D+05 0.12492442D+01  1  2  2  1  6  1       21 0.928494810307D-02 0.100000000000D+01
0.512576121127D-06 0.198463232499D-06 -.759198559141D-08 0.463450627873D-05 0.000000000000D+00  6 21 -1 25 24 -2 21 4 0.36373742D-01 0.17990724D-01 0.14576139D+05 0.14576139D+05 0.14576139D+05 0.12492442D+01  1  2  3  1  6  1       21 0.197492907948D-02 0.100000000000D+01
0.372433068062D-06 0.000000000000D+00 0.000000000000D+00 0.463450627873D-05 0.000000000000D+00  6 21 -1 25 24 -2 21 4 0.36373742D-01 0.17990724D-01 0.14576139D+05 0.14576139D+05 0.14576139D+05 0.12492442D+01  1  2 15  1  6  1       21 0.143496520021D-02 0.100000000000D+01
0.140047279681D-05 0.000000000000D+00 0.000000000000D+00 0.461975062808D-05 0.000000000000D+00  6 21 -1 25 24 -2 21 4 0.37217929D-01 0.17990724D-01 0.15173392D+05 0.15173392D+05 0.15173392D+05 0.12472539D+01  1  2 12  1  6  1       21 0.512459782809D-02 0.100000000000D+01
-.752013134209D-05 0.000000000000D+00 0.000000000000D+00 0.463450627873D-05 0.000000000000D+00  6 21 -1 25 24 -2 21 4 0.36373742D-01 0.17990724D-01 0.14576139D+05 0.14576139D+05 0.14576139D+05 0.12492442D+01  1  2  4  1  6  1       21 -.289746741155D-01 0.100000000000D+01
-.288321960574D-03 0.000000000000D+00 -.412660545443D-04 0.463450627873D-05 0.000000000000D+00  6 21 -1 25 24 -2 21 4 0.37416288D-01 0.17990724D-01 0.14576139D+05 0.14576139D+05 0.14576139D+05 0.12492442D+01  1  2  5  1  6  1       21 -.105062739812D+01 0.100000000000D+01
0.288990516053D-03 0.000000000000D+00 0.412002214581D-04 0.463450627873D-05 0.000000000000D+00  6 21 -1 25 24 -2 21 4 0.36373742D-01 0.17990724D-01 0.14576139D+05 0.14576139D+05 0.14576139D+05 0.12492442D+01  1  2  6  1  6  1       21 0.111346539631D+01 0.100000000000D+01
0.551394933210D-05 0.000000000000D+00 0.000000000000D+00 0.463450627873D-05 0.168992930430D-05  6 21 -1 25 24 -2 21 4 0.36995446D-01 0.18214100D-01 0.15173392D+05 0.15173392D+05 0.15173392D+05 0.12472539D+01  1  2 11  1  6  1       21 0.200211737021D-01 0.100000000000D+01
0.522575092414D-07 0.000000000000D+00 0.000000000000D+00 0.461975062808D-05 0.000000000000D+00  6 -1 -1 25 24 -2 -1 4 0.37217929D-01 0.17990724D-01 0.15173392D+05 0.15173392D+05 0.15173392D+05 0.12472539D+01  1  2 12  4  6  1       21 0.173666037779D-04 0.100000000000D+01
-.164808067651D-05 0.000000000000D+00 -.270149263415D-06 0.463450627873D-05 0.000000000000D+00  6 -1 -1 25 24 -2 -1 4 0.37416288D-01 0.17990724D-01 0.14576139D+05 0.14576139D+05 0.14576139D+05 0.12492442D+01  1  2  5  4  6  1       21 -.545685304584D-03 0.100000000000D+01
0.801852897187D-07 0.000000000000D+00 0.000000000000D+00 0.463450627873D-05 0.846215730479D-08  6 -1 -1 25 24 -2 -1 4 0.36995446D-01 0.18214100D-01 0.15173392D+05 0.15173392D+05 0.15173392D+05 0.12472539D+01  1  2 11  4  6  1       21 0.264029943834D-04 0.100000000000D+01
0.522575092414D-07 0.000000000000D+00 0.000000000000D+00 0.461975062808D-05 0.000000000000D+00  6 1 -1 25 24 1 -2 4 0.37217929D-01 0.17990724D-01 0.15173392D+05 0.15173392D+05 0.15173392D+05 0.12472539D+01  3  4 12  5  5  1       21 0.337326976520D-04 0.100000000000D+01
-.164808067651D-05 0.000000000000D+00 -.270149263415D-06 0.463450627873D-05 0.000000000000D+00  6 1 -1 25 24 1 -2 4 0.37416288D-01 0.17990724D-01 0.14576139D+05 0.14576139D+05 0.14576139D+05 0.12492442D+01  3  4  5  5  5  1       21 -.106269904105D-02 0.100000000000D+01
0.123081112706D-06 0.000000000000D+00 0.000000000000D+00 0.463450627873D-05 0.801167191419D-08  6 1 -1 25 24 1 -2 4 0.36995446D-01 0.18214100D-01 0.15173392D+05 0.15173392D+05 0.15173392D+05 0.12472539D+01  3  4 11  5  5  1       21 0.784876685622D-04 0.100000000000D+01
0.522575092414D-07 0.000000000000D+00 0.000000000000D+00 0.461975062808D-05 0.000000000000D+00  6 -2 -1 25 24 -2 -2 4 0.37217929D-01 0.17990724D-01 0.15173392D+05 0.15173392D+05 0.15173392D+05 0.12472539D+01  1  2 12  6  6  1       21 0.148191256780D-04 0.100000000000D+01
-.164808067651D-05 0.000000000000D+00 -.270149263415D-06 0.463450627873D-05 0.000000000000D+00  6 -2 -1 25 24 -2 -2 4 0.37416288D-01 0.17990724D-01 0.14576139D+05 0.14576139D+05 0.14576139D+05 0.12492442D+01  1  2  5  6  6  1       21 -.465260526923D-03 0.100000000000D+01
0.199637843843D-06 0.000000000000D+00 0.000000000000D+00 0.463450627873D-05 0.127631178839D-07  6 -2 -1 25 24 -2 -2 4 0.36995446D-01 0.18214100D-01 0.15173392D+05 0.15173392D+05 0.15173392D+05 0.12472539D+01  1  2 11  6  6  1       21 0.561385849961D-04 0.100000000000D+01
0.522575092414D-07 0.000000000000D+00 0.000000000000D+00 0.461975062808D-05 0.000000000000D+00  6 2 -1 25 24 2 -2 4 0.37217929D-01 0.17990724D-01 0.15173392D+05 0.15173392D+05 0.15173392D+05 0.12472539D+01  3  4 12  7  5  1       21 0.458780054881D-04 0.100000000000D+01
-.164808067651D-05 0.000000000000D+00 -.270149263415D-06 0.463450627873D-05 0.000000000000D+00  6 2 -1 25 24 2 -2 4 0.37416288D-01 0.17990724D-01 0.14576139D+05 0.14576139D+05 0.14576139D+05 0.12492442D+01  3  4  5  7  5  1       21 -.144646566807D-02 0.100000000000D+01
0.274053821733D-06 0.000000000000D+00 0.000000000000D+00 0.463450627873D-05 0.557076181418D-07  6 2 -1 25 24 2 -2 4 0.36995446D-01 0.18214100D-01 0.15173392D+05 0.15173392D+05 0.15173392D+05 0.12472539D+01  3  4 11  7  5  1       21 0.237442771013D-03 0.100000000000D+01
0.522575092414D-07 0.000000000000D+00 0.000000000000D+00 0.461975062808D-05 0.000000000000D+00  6 -3 -1 25 24 -2 -3 4 0.37217929D-01 0.17990724D-01 0.15173392D+05 0.15173392D+05 0.15173392D+05 0.12472539D+01  1  2 12  8  6  1       21 0.928363885273D-05 0.100000000000D+01
0.522575092414D-07 0.000000000000D+00 0.000000000000D+00 0.461975062808D-05 0.000000000000D+00  6 -4 -1 25 24 -2 -4 4 0.37217929D-01 0.17990724D-01 0.15173392D+05 0.15173392D+05 0.15173392D+05 0.12472539D+01  1  2 12  8  6  1       21 0.769483725771D-05 0.100000000000D+01
-.164808067651D-05 0.000000000000D+00 -.270149263415D-06 0.463450627873D-05 0.000000000000D+00  6 -3 -1 25 24 -2 -3 4 0.37416288D-01 0.17990724D-01 0.14576139D+05 0.14576139D+05 0.14576139D+05 0.12492442D+01  1  2  5  8  6  1       21 -.291133371367D-03 0.100000000000D+01
-.164808067651D-05 0.000000000000D+00 -.270149263415D-06 0.463450627873D-05 0.000000000000D+00  6 -4 -1 25 24 -2 -4 4 0.37416288D-01 0.17990724D-01 0.14576139D+05 0.14576139D+05 0.14576139D+05 0.12492442D+01  1  2  5  8  6  1       21 -.241138157066D-03 0.100000000000D+01
0.123045321415D-06 0.000000000000D+00 0.000000000000D+00 0.463450627873D-05 0.800934216531D-08  6 -3 -1 25 24 -2 -3 4 0.36995446D-01 0.18214100D-01 0.15173392D+05 0.15173392D+05 0.15173392D+05 0.12472539D+01  1  2 11  8  6  1       21 0.216810210678D-04 0.100000000000D+01
0.123045321415D-06 0.000000000000D+00 0.000000000000D+00 0.463450627873D-05 0.800934216531D-08  6 -4 -1 25 24 -2 -4 4 0.36995446D-01 0.18214100D-01 0.15173392D+05 0.15173392D+05 0.15173392D+05 0.12472539D+01  1  2 11  8  6  1       21 0.179749923229D-04 0.100000000000D+01
0.522575092414D-07 0.000000000000D+00 0.000000000000D+00 0.461975062808D-05 0.000000000000D+00  6 3 -1 25 24 3 -2 4 0.37217929D-01 0.17990724D-01 0.15173392D+05 0.15173392D+05 0.15173392D+05 0.12472539D+01  3  4 12  9  5  1       21 0.928488346307D-05 0.100000000000D+01
0.522575092414D-07 0.000000000000D+00 0.000000000000D+00 0.461975062808D-05 0.000000000000D+00  6 4 -1 25 24 4 -2 4 0.37217929D-01 0.17990724D-01 0.15173392D+05 0.15173392D+05 0.15173392D+05 0.12472539D+01  3  4 12  9  5  1       21 0.769483725771D-05 0.100000000000D+01
-.164808067651D-05 0.000000000000D+00 -.270149263415D-06 0.463450627873D-05 0.000000000000D+00  6 3 -1 25 24 3 -2 4 0.37416288D-01 0.17990724D-01 0.14576139D+05 0.14576139D+05 0.14576139D+05 0.12492442D+01  3  4  5  9  5  1       21 -.291173220270D-03 0.100000000000D+01
-.164808067651D-05 0.000000000000D+00 -.270149263415D-06 0.463450627873D-05 0.000000000000D+00  6 4 -1 25 24 4 -2 4 0.37416288D-01 0.17990724D-01 0.14576139D+05 0.14576139D+05 0.14576139D+05 0.12492442D+01  3  4  5  9  5  1       21 -.241138157066D-03 0.100000000000D+01
0.123045321415D-06 0.000000000000D+00 0.000000000000D+00 0.463450627873D-05 0.800934216531D-08  6 3 -1 25 24 3 -2 4 0.36995446D-01 0.18214100D-01 0.15173392D+05 0.15173392D+05 0.15173392D+05 0.12472539D+01  3  4 11  9  5  1       21 0.216838392520D-04 0.100000000000D+01
0.123045321415D-06 0.000000000000D+00 0.000000000000D+00 0.463450627873D-05 0.800934216531D-08  6 4 -1 25 24 4 -2 4 0.36995446D-01 0.18214100D-01 0.15173392D+05 0.15173392D+05 0.15173392D+05 0.12472539D+01  3  4 11  9  5  1       21 0.179749923229D-04 0.100000000000D+01
  </mgrwgt>
  </event>
  <event>
  5     66 0.48358521E-03 0.33573941E+02 0.75467711E-02 0.12353198E+00
       21 -1    0    0  501  502 0.00000000E+00 0.00000000E+00 0.19836152E+03 0.19836293E+03 0.75000000E+00 0.0000E+00 0.9000E+01
       -3 -1    0    0    0  501 0.00000000E+00 0.00000000E+00 -.78710710E+02 0.78712298E+02 0.50000000E+00 0.0000E+00 0.9000E+01
       25  1    1    2    0    0 0.19471339E+02 0.13484533E+02 0.83479005E+02 0.15216672E+03 0.12500000E+03 0.0000E+00 0.9000E+01
       24  1    1    2    0    0 -.10909236E+01 0.15087119E+02 0.10929849E+02 0.82555974E+02 0.80419002E+02 0.0000E+00 0.9000E+01
       -4  1    1    2    0  502 -.18380415E+02 -.28571652E+02 0.25241952E+02 0.42352539E+02 0.15500000E+01 0.0000E+00 0.9000E+01
#aMCatNLO 1  0  0  1  2 0.65281749D+01 0.00000000D+00  -5  6  0 0.00000000D+00 0.00000000D+00 0.00000000D+00 0.00000000D+00 0.00000000D+00
  <mgrwgt>
 0.5600962916D-01   32    4    0
 0.124954359967554D+03 0.000000000000000D+00 0.000000000000000D+00 0.124954359967554D+03
 0.124954359967554D+03 0.000000000000000D+00 0.000000000000000D+00 -.124954359967554D+03
 0.128742540807158D+03 0.194807072109683D+02 0.134990961061636D+02 0.196956407450970D+02
 0.862997746135436D+02 -.108464377348340D+01 0.150968806027275D+02 -.274106345772864D+02
 0.348664045144051D+02 -.183960634374849D+02 -.285959767088911D+02 0.771499383218939D+01
 0.000000000000000D+00 -.000000000000000D+00 -.000000000000000D+00 0.000000000000000D+00
 0.130956254778708D+03 0.000000000000000D+00 0.000000000000000D+00 0.130956254778708D+03
 0.126784833131507D+03 0.000000000000000D+00 0.000000000000000D+00 -.126784833131507D+03
 0.129267798626190D+03 0.204268785344158D+02 0.167328458620038D+02 0.196956407450970D+02
 0.866997526836795D+02 -.450222718660183D+00 0.172651548679624D+02 -.274106345772864D+02
 0.340264193508688D+02 -.181434207934894D+02 -.277325145978658D+02 0.771499383218939D+01
 0.774711724947689D+01 -.183323502226627D+01 -.626548613210051D+01 0.417142164720075D+01
 0.124954359967554D+03 0.000000000000000D+00 0.000000000000000D+00 0.124954359967554D+03
 0.124954359967554D+03 0.000000000000000D+00 0.000000000000000D+00 -.124954359967554D+03
 0.128742540807158D+03 0.194807072109683D+02 0.134990961061636D+02 0.196956407450970D+02
 0.862997746135436D+02 -.108464377348340D+01 0.150968806027275D+02 -.274106345772864D+02
 0.000000000000000D+00 -.000000000000000D+00 -.000000000000000D+00 0.000000000000000D+00
 0.348664045144051D+02 -.183960634374849D+02 -.285959767088911D+02 0.771499383218939D+01
 0.130956254778708D+03 0.000000000000000D+00 0.000000000000000D+00 0.130956254778708D+03
 0.126784833131507D+03 0.000000000000000D+00 0.000000000000000D+00 -.126784833131507D+03
 0.129267798626190D+03 0.204268785344158D+02 0.167328458620038D+02 0.196956407450970D+02
 0.866997526836795D+02 -.450222718660183D+00 0.172651548679624D+02 -.274106345772864D+02
 0.774711724947689D+01 -.183323502226627D+01 -.626548613210051D+01 0.417142164720075D+01
 0.340264193508688D+02 -.181434207934894D+02 -.277325145978658D+02 0.771499383218939D+01
0.113078390153D-05 0.000000000000D+00 0.000000000000D+00 0.733733286829D-06 0.000000000000D+00  6 21 -3 25 24 -4 21 2 0.30517387D-01 0.12109571D-01 0.14769561D+05 0.14769561D+05 0.14769561D+05 0.12485898D+01  1  2  2  1  6  1       21 0.464089538696D-02 0.100000000000D+01
-.972826601616D-08 0.596731059099D-07 -.228272690391D-08 0.733733286829D-06 0.000000000000D+00  6 21 -3 25 24 -4 21 4 0.30517387D-01 0.12109571D-01 0.14769561D+05 0.14769561D+05 0.14769561D+05 0.12485898D+01  1  2  3  1  6  1       21 -.622439498199D-04 0.100000000000D+01
0.127179009875D-06 0.000000000000D+00 0.000000000000D+00 0.733733286829D-06 0.000000000000D+00  6 21 -3 25 24 -4 21 4 0.30517387D-01 0.12109571D-01 0.14769561D+05 0.14769561D+05 0.14769561D+05 0.12485898D+01  1  2 15  1  6  1       21 0.813724038350D-03 0.100000000000D+01
0.442298312488D-05 0.000000000000D+00 0.000000000000D+00 0.730613920582D-06 0.000000000000D+00  6 21 -3 25 24 -4 21 4 0.32199507D-01 0.12109571D-01 0.15584982D+05 0.15584982D+05 0.15584982D+05 0.12459328D+01  1  2 12  1  6  1       21 0.253432664355D-01 0.100000000000D+01
-.513712124293D-06 0.000000000000D+00 0.000000000000D+00 0.733733286829D-06 0.000000000000D+00  6 21 -3 25 24 -4 21 4 0.30517387D-01 0.12109571D-01 0.14769561D+05 0.14769561D+05 0.14769561D+05 0.12485898D+01  1  2  4  1  6  1       21 -.328686238978D-02 0.100000000000D+01
-.422334090157D-04 0.000000000000D+00 -.603421697818D-05 0.733733286829D-06 0.000000000000D+00  6 21 -3 25 24 -4 21 4 0.32395032D-01 0.12109571D-01 0.14769561D+05 0.14769561D+05 0.14769561D+05 0.12485898D+01  1  2  5  1  6  1       21 -.240718386085D+00 0.100000000000D+01
0.423039580254D-04 0.000000000000D+00 0.599140813630D-05 0.733733286829D-06 0.000000000000D+00  6 21 -3 25 24 -4 21 4 0.30517387D-01 0.12109571D-01 0.14769561D+05 0.14769561D+05 0.14769561D+05 0.12485898D+01  1  2  6  1  6  1       21 0.270671611584D+00 0.100000000000D+01
0.626102435031D-07 0.000000000000D+00 0.000000000000D+00 0.733733286829D-06 0.103698710987D-05  6 21 -3 25 24 -4 21 4 0.31983220D-01 0.12286966D-01 0.15584982D+05 0.15584982D+05 0.15584982D+05 0.12459328D+01  1  2 11  1  6  1       21 0.354727657920D-03 0.100000000000D+01
0.831605459409D-07 0.000000000000D+00 0.000000000000D+00 0.730613920582D-06 0.000000000000D+00  6 -3 -3 25 24 -4 -3 4 0.32199507D-01 0.12109571D-01 0.15584982D+05 0.15584982D+05 0.15584982D+05 0.12459328D+01  1  2 12  4  6  1       21 0.229042434574D-04 0.100000000000D+01
-.528114741838D-06 0.000000000000D+00 -.872509114828D-07 0.733733286829D-06 0.000000000000D+00  6 -3 -3 25 24 -4 -3 4 0.32395032D-01 0.12109571D-01 0.14769561D+05 0.14769561D+05 0.14769561D+05 0.12485898D+01  1  2  5  4  6  1       21 -.144400720986D-03 0.100000000000D+01
0.130372939178D-07 0.000000000000D+00 0.000000000000D+00 0.733733286829D-06 0.296929675570D-08  6 -3 -3 25 24 -4 -3 4 0.31983220D-01 0.12286966D-01 0.15584982D+05 0.15584982D+05 0.15584982D+05 0.12459328D+01  1  2 11  4  6  1       21 0.354858804466D-05 0.100000000000D+01
0.831605459409D-07 0.000000000000D+00 0.000000000000D+00 0.730613920582D-06 0.000000000000D+00  6 3 -3 25 24 3 -4 4 0.32199507D-01 0.12109571D-01 0.15584982D+05 0.15584982D+05 0.15584982D+05 0.12459328D+01  3  4 12  5  5  1       21 0.229053571110D-04 0.100000000000D+01
-.528114741838D-06 0.000000000000D+00 -.872509114828D-07 0.733733286829D-06 0.000000000000D+00  6 3 -3 25 24 3 -4 4 0.32395032D-01 0.12109571D-01 0.14769561D+05 0.14769561D+05 0.14769561D+05 0.12485898D+01  3  4  5  5  5  1       21 -.144408029772D-03 0.100000000000D+01
0.133064431050D-07 0.000000000000D+00 0.000000000000D+00 0.733733286829D-06 0.258472565570D-08  6 3 -3 25 24 3 -4 4 0.31983220D-01 0.12286966D-01 0.15584982D+05 0.15584982D+05 0.15584982D+05 0.12459328D+01  3  4 11  5  5  1       21 0.362201082732D-05 0.100000000000D+01
0.831605459409D-07 0.000000000000D+00 0.000000000000D+00 0.730613920582D-06 0.000000000000D+00  6 -4 -3 25 24 -4 -4 4 0.32199507D-01 0.12109571D-01 0.15584982D+05 0.15584982D+05 0.15584982D+05 0.12459328D+01  1  2 12  6  6  1       21 0.191041774906D-04 0.100000000000D+01
-.528114741838D-06 0.000000000000D+00 -.872509114828D-07 0.733733286829D-06 0.000000000000D+00  6 -4 -3 25 24 -4 -4 4 0.32395032D-01 0.12109571D-01 0.14769561D+05 0.14769561D+05 0.14769561D+05 0.12485898D+01  1  2  5  6  6  1       21 -.120335270114D-03 0.100000000000D+01
0.132433423042D-07 0.000000000000D+00 0.000000000000D+00 0.733733286829D-06 0.135067262037D-08  6 -4 -3 25 24 -4 -4 4 0.31983220D-01 0.12286966D-01 0.15584982D+05 0.15584982D+05 0.15584982D+05 0.12459328D+01  1  2 11  6  6  1       21 0.300744652314D-05 0.100000000000D+01
0.831605459409D-07 0.000000000000D+00 0.000000000000D+00 0.730613920582D-06 0.000000000000D+00  6 4 -3 25 24 4 -4 4 0.32199507D-01 0.12109571D-01 0.15584982D+05 0.15584982D+05 0.15584982D+05 0.12459328D+01  3  4 12  7  5  1       21 0.191041774906D-04 0.100000000000D+01
-.528114741838D-06 0.000000000000D+00 -.872509114828D-07 0.733733286829D-06 0.000000000000D+00  6 4 -3 25 24 4 -4 4 0.32395032D-01 0.12109571D-01 0.14769561D+05 0.14769561D+05 0.14769561D+05 0.12485898D+01  3  4  5  7  5  1       21 -.120335270114D-03 0.100000000000D+01
0.201163714072D-07 0.000000000000D+00 0.000000000000D+00 0.733733286829D-06 0.332309174057D-06  6 4 -3 25 24 4 -4 4 0.31983220D-01 0.12286966D-01 0.15584982D+05 0.15584982D+05 0.15584982D+05 0.12459328D+01  3  4 11  7  5  1       21 0.456825096393D-05 0.100000000000D+01
0.831605459409D-07 0.000000000000D+00 0.000000000000D+00 0.730613920582D-06 0.000000000000D+00  6 -1 -3 25 24 -4 -1 4 0.32199507D-01 0.12109571D-01 0.15584982D+05 0.15584982D+05 0.15584982D+05 0.12459328D+01  1  2 12  8  6  1       21 0.417579854615D-04 0.100000000000D+01
0.831605459409D-07 0.000000000000D+00 0.000000000000D+00 0.730613920582D-06 0.000000000000D+00  6 -2 -3 25 24 -4 -2 4 0.32199507D-01 0.12109571D-01 0.15584982D+05 0.15584982D+05 0.15584982D+05 0.12459328D+01  1  2 12  8  6  1       21 0.363120758350D-04 0.100000000000D+01
-.528114741838D-06 0.000000000000D+00 -.872509114828D-07 0.733733286829D-06 0.000000000000D+00  6 -1 -3 25 24 -4 -1 4 0.32395032D-01 0.12109571D-01 0.14769561D+05 0.14769561D+05 0.14769561D+05 0.12485898D+01  1  2  5  8  6  1       21 -.263903414946D-03 0.100000000000D+01
-.528114741838D-06 0.000000000000D+00 -.872509114828D-07 0.733733286829D-06 0.000000000000D+00  6 -2 -3 25 24 -4 -2 4 0.32395032D-01 0.12109571D-01 0.14769561D+05 0.14769561D+05 0.14769561D+05 0.12485898D+01  1  2  5  8  6  1       21 -.229289329015D-03 0.100000000000D+01
0.133149429261D-07 0.000000000000D+00 0.000000000000D+00 0.733733286829D-06 0.258637671342D-08  6 -1 -3 25 24 -4 -1 4 0.31983220D-01 0.12286966D-01 0.15584982D+05 0.15584982D+05 0.15584982D+05 0.12459328D+01  1  2 11  8  6  1       21 0.659977784784D-05 0.100000000000D+01
0.133149429261D-07 0.000000000000D+00 0.000000000000D+00 0.733733286829D-06 0.258637671342D-08  6 -2 -3 25 24 -4 -2 4 0.31983220D-01 0.12286966D-01 0.15584982D+05 0.15584982D+05 0.15584982D+05 0.12459328D+01  1  2 11  8  6  1       21 0.574386339811D-05 0.100000000000D+01
0.831605459409D-07 0.000000000000D+00 0.000000000000D+00 0.730613920582D-06 0.000000000000D+00  6 1 -3 25 24 1 -4 4 0.32199507D-01 0.12109571D-01 0.15584982D+05 0.15584982D+05 0.15584982D+05 0.12459328D+01  3  4 12  9  5  1       21 0.757274395173D-04 0.100000000000D+01
0.831605459409D-07 0.000000000000D+00 0.000000000000D+00 0.730613920582D-06 0.000000000000D+00  6 2 -3 25 24 2 -4 4 0.32199507D-01 0.12109571D-01 0.15584982D+05 0.15584982D+05 0.15584982D+05 0.12459328D+01  3  4 12  9  5  1       21 0.100547797163D-03 0.100000000000D+01
-.528114741838D-06 0.000000000000D+00 -.872509114828D-07 0.733733286829D-06 0.000000000000D+00  6 1 -3 25 24 1 -4 4 0.32395032D-01 0.12109571D-01 0.14769561D+05 0.14769561D+05 0.14769561D+05 0.12485898D+01  3  4  5  9  5  1       21 -.479899697502D-03 0.100000000000D+01
-.528114741838D-06 0.000000000000D+00 -.872509114828D-07 0.733733286829D-06 0.000000000000D+00  6 2 -3 25 24 2 -4 4 0.32395032D-01 0.12109571D-01 0.14769561D+05 0.14769561D+05 0.14769561D+05 0.12485898D+01  3  4  5  9  5  1       21 -.637742520841D-03 0.100000000000D+01
0.133149429261D-07 0.000000000000D+00 0.000000000000D+00 0.733733286829D-06 0.258637671342D-08  6 1 -3 25 24 1 -4 4 0.31983220D-01 0.12286966D-01 0.15584982D+05 0.15584982D+05 0.15584982D+05 0.12459328D+01  3  4 11  9  5  1       21 0.119320605233D-04 0.100000000000D+01
0.133149429261D-07 0.000000000000D+00 0.000000000000D+00 0.733733286829D-06 0.258637671342D-08  6 2 -3 25 24 2 -4 4 0.31983220D-01 0.12286966D-01 0.15584982D+05 0.15584982D+05 0.15584982D+05 0.12459328D+01  3  4 11  9  5  1       21 0.158254810423D-04 0.100000000000D+01
  </mgrwgt>
  </event>
  <event>
  6     66 0.48358521E-03 0.53606140E+02 0.75467711E-02 0.12089552E+00
       21 -1    0    0  501  502 0.00000000E+00 0.00000000E+00 0.30859428E+03 0.30859519E+03 0.75000000E+00 0.0000E+00 0.9000E+01
       -3 -1    0    0    0  503 0.00000000E+00 0.00000000E+00 -.23957061E+03 0.23957113E+03 0.50000000E+00 0.0000E+00 0.9000E+01
       25  1    1    2    0    0 0.31597348E+02 -.30992019E+02 -.11254191E+03 0.17392406E+03 0.12500000E+03 0.0000E+00 0.9000E+01
       24  1    1    2    0    0 0.21077177E+01 -.28722154E+02 -.69819694E+02 0.11032411E+03 0.80419002E+02 0.0000E+00 0.9000E+01
       -4  1    1    2    0  502 -.28519702E+02 0.51186485E+02 0.24529711E+03 0.25220330E+03 0.15500000E+01 0.0000E+00 0.9000E+01
       21  1    1    2  501  503 -.51853633E+01 0.85276881E+01 0.60881659E+01 0.11714850E+02 0.75000000E+00 0.0000E+00 0.9000E+01
#aMCatNLO 2  0  0  2  2 0.99804538D+01 0.00000000D+00  -5  6  0 0.00000000D+00 0.00000000D+00 0.00000000D+00 0.00000000D+00 0.00000000D+00
  <mgrwgt>
 0.1046687796D-02    2    2    0
 0.266326726266657D+03 0.000000000000000D+00 0.000000000000000D+00 0.266326726266657D+03
 0.266326726266657D+03 0.000000000000000D+00 0.000000000000000D+00 -.266326726266657D+03
 0.187659177994738D+03 0.297671689497421D+02 -.279821993400413D+02 -.133872623259845D+03
 0.118880802095527D+03 0.948452189694537D+00 -.268156846467834D+02 -.833393583361029D+02
 0.226113472443049D+03 -.307156211394366D+02 0.547978839868247D+02 0.217211981595948D+03
 0.000000000000000D+00 -.000000000000000D+00 0.000000000000000D+00 0.000000000000000D+00
 0.274272440500208D+03 0.000000000000000D+00 0.000000000000000D+00 0.274272440500208D+03
 0.269526084027208D+03 0.000000000000000D+00 0.000000000000000D+00 -.269526084027208D+03
 0.188429889647545D+03 0.315976154694734D+02 -.309924950714984D+02 -.133872623259845D+03
 0.119340216386539D+03 0.210788720582240D+01 -.287224556135003D+02 -.833393583361029D+02
 0.224976841355687D+03 -.285201393612671D+02 0.511872625597176D+02 0.217211981595948D+03
 0.110515771376452D+02 -.518536331402872D+01 0.852768812528100D+01 0.474635647300005D+01
-.197630709462D-04 0.000000000000D+00 0.000000000000D+00 0.513018834938D-05 0.000000000000D+00  6 21 -3 25 24 -4 21 4 0.46098600D-01 0.36417913D-01 0.19474700D+05 0.19474700D+05 0.19474700D+05 0.12351006D+01  1  2  8  2  6  2       -3 -.761372630479D-02 0.100000000000D+01
0.246216595937D-04 0.000000000000D+00 0.000000000000D+00 0.513018834938D-05 0.421922641678D-06  6 21 -3 25 24 -4 21 4 0.47473926D-01 0.36855398D-01 0.20535126D+05 0.20535126D+05 0.20535126D+05 0.12325656D+01  1  2  1  2  6  2       -3 0.866041410094D-02 0.100000000000D+01
  </mgrwgt>
  </event>
  <event>
  5     66 -.48358521E-03 0.60841729E+02 0.75467711E-02 0.11821763E+00
       21 -1    0    0  501  502 0.00000000E+00 0.00000000E+00 0.32849848E+03 0.32849934E+03 0.75000000E+00 0.0000E+00 0.9000E+01
       -3 -1    0    0    0  501 0.00000000E+00 0.00000000E+00 -.16326307E+03 0.16326383E+03 0.50000000E+00 0.0000E+00 0.9000E+01
       25  1    1    2    0    0 -.53817676E+02 -.42237181E+02 -.50811469E+02 0.15128492E+03 0.12500000E+03 0.0000E+00 0.9000E+01
       24  1    1    2    0    0 0.10044646E+03 0.31575959E+01 0.14007371E+02 0.12947155E+03 0.80419002E+02 0.0000E+00 0.9000E+01
       -4  1    1    2    0  502 -.46628781E+02 0.39079585E+02 0.20203952E+03 0.21100670E+03 0.15500000E+01 0.0000E+00 0.9000E+01
#aMCatNLO 1  0  0  5  1 0.56977025D+01 0.00000000D+00  -5  6  0 0.00000000D+00 0.00000000D+00 0.00000000D+00 0.00000000D+00 0.00000000D+00
  <mgrwgt>
 -.3102627145D-01    8    2    0
 0.231585985070861D+03 0.000000000000000D+00 0.000000000000000D+00 0.231585985070861D+03
 0.231585985070861D+03 -.000000000000000D+00 -.000000000000000D+00 -.231585985070861D+03
 0.178752060082428D+03 -.538167401119606D+02 -.422379658344160D+02 -.107921321848856D+03
 0.132467629509185D+03 0.100447150904269D+03 0.315701441089573D+01 -.313186852954692D+02
 0.151952280550108D+03 -.466304107923085D+02 0.390809514235203D+02 0.139240007144326D+03
 0.000000000000000D+00 0.000000000000000D+00 0.000000000000000D+00 0.000000000000000D+00
 0.231585985070861D+03 0.000000000000000D+00 0.000000000000000D+00 0.231585985070861D+03
 0.231585985070861D+03 -.000000000000000D+00 -.000000000000000D+00 -.231585985070861D+03
 0.178612874284398D+03 -.538987101054764D+02 -.421692667755754D+02 -.107676556634722D+03
 0.132380010087657D+03 0.100386401912936D+03 0.320792814592317D+01 -.311372867222324D+02
 0.122899758080431D+03 -.416167665003606D+02 0.349980270819494D+02 0.110215849053819D+03
 0.292793276892359D+02 -.487092530709936D+01 0.396331154770293D+01 0.285979943031353D+02
0.819930881678D-06 0.000000000000D+00 0.000000000000D+00 0.103956056477D-05 0.000000000000D+00  6 21 -3 25 24 -4 21 2 0.50538353D-01 0.25117519D-01 0.27564381D+05 0.27564381D+05 0.27564381D+05 0.12187769D+01  1  2  2  3  6  5       -4 0.333033630298D-03 0.100000000000D+01
0.430265699766D-07 0.432689413732D-07 -.165520421755D-08 0.103956056477D-05 0.000000000000D+00  6 21 -3 25 24 -4 21 4 0.50538353D-01 0.25117519D-01 0.27564381D+05 0.27564381D+05 0.27564381D+05 0.12187769D+01  1  2  3  3  6  5       -4 0.259594810739D-04 0.100000000000D+01
0.809745495723D-07 0.000000000000D+00 0.000000000000D+00 0.103956056477D-05 0.000000000000D+00  6 21 -3 25 24 -4 21 4 0.50538353D-01 0.25117519D-01 0.27564381D+05 0.27564381D+05 0.27564381D+05 0.12187769D+01  1  2 15  3  6  5       -4 0.488548654524D-04 0.100000000000D+01
0.149588802663D-04 0.000000000000D+00 0.000000000000D+00 0.103966513152D-05 0.000000000000D+00  6 21 -3 25 24 -4 21 4 0.50538353D-01 0.25117519D-01 0.27527704D+05 0.27527704D+05 0.27527704D+05 0.12188382D+01  1  2 12  3  6  5       -4 0.902701306717D-02 0.100000000000D+01
-.100069832035D-03 0.000000000000D+00 0.000000000000D+00 0.103956056477D-05 0.000000000000D+00  6 21 -3 25 24 -4 21 4 0.50538353D-01 0.25117519D-01 0.27564381D+05 0.27564381D+05 0.27564381D+05 0.12187769D+01  1  2  4  3  6  5       -4 -.603757378799D-01 0.100000000000D+01
-.240444204211D-04 0.000000000000D+00 0.000000000000D+00 0.103956056477D-05 0.000000000000D+00  6 21 -3 25 24 -4 21 4 0.50538353D-01 0.25117519D-01 0.27564381D+05 0.27564381D+05 0.27564381D+05 0.12187769D+01  1  2  5  3  6  5       -4 -.145068658085D-01 0.100000000000D+01
0.291138167040D-04 0.000000000000D+00 -.000000000000D+00 0.103956056477D-05 0.000000000000D+00  6 21 -3 25 24 -4 21 4 0.50538353D-01 0.25117519D-01 0.27564381D+05 0.27564381D+05 0.27564381D+05 0.12187769D+01  1  2  6  3  6  5       -4 0.175654153730D-01 0.100000000000D+01
0.279325751412D-04 0.000000000000D+00 0.000000000000D+00 0.103956056477D-05 0.945861324254D-06  6 21 -3 25 24 -4 21 4 0.50538353D-01 0.25117519D-01 0.27527704D+05 0.27527704D+05 0.27527704D+05 0.12188382D+01  1  2 11  3  6  5       -4 0.168560558218D-01 0.100000000000D+01
  </mgrwgt>
  </event>
  <event>
  5     66 -.48358521E-03 0.30267284E+02 0.75467711E-02 0.11911888E+00
       21 -1    0    0  501  502 0.00000000E+00 0.00000000E+00 0.67074961E+02 0.67079154E+02 0.75000000E+00 0.0000E+00 0.9000E+01
       -1 -1    0    0    0  501 -.00000000E+00 -.00000000E+00 -.54881570E+03 0.54881579E+03 0.32000000E+00 0.0000E+00 0.9000E+01
       25  1    1    2    0    0 -.85190694E+02 -.71706309E+01 -.93759182E+02 0.17811417E+03 0.12500000E+03 0.0000E+00 0.9000E+01
       24  1    1    2    0    0 0.10590256E+03 -.14899389E+02 -.38473409E+03 0.40733877E+03 0.80419002E+02 0.0000E+00 0.9000E+01
       -2  1    1    2    0  502 -.20711866E+02 0.22070020E+02 -.32474707E+01 0.30442005E+02 0.32000000E+00 0.0000E+00 0.9000E+01
#aMCatNLO 1  0  0  5  1 0.43453148D+01 0.00000000D+00  -5  6  0 0.00000000D+00 0.00000000D+00 0.00000000D+00 0.00000000D+00 0.00000000D+00
  <mgrwgt>
 -.7260496009D-01    8    2    0
 0.191867431666000D+03 0.000000000000000D+00 0.000000000000000D+00 0.191867431666000D+03
 0.191867431666000D+03 -.000000000000000D+00 -.000000000000000D+00 -.191867431666000D+03
 0.168167923466180D+03 -.851904625056969D+02 -.717087784830598D+01 0.731205449369538D+02
 0.170784491323828D+03 0.105902795936495D+03 -.148996398303630D+02 -.106125986771040D+03
 0.447824485419924D+02 -.207123334307978D+02 0.220705176786690D+02 0.330054418340857D+02
 0.000000000000000D+00 0.000000000000000D+00 0.000000000000000D+00 0.000000000000000D+00
 0.191867431666000D+03 0.000000000000000D+00 0.000000000000000D+00 0.191867431666000D+03
 0.191867431666000D+03 -.000000000000000D+00 -.000000000000000D+00 -.191867431666000D+03
 0.168430441105191D+03 -.854175014142800D+02 -.692895115943869D+01 0.734823351483923D+02
 0.170392796632522D+03 0.105672668499038D+03 -.146544220863698D+02 -.105759274938363D+03
 0.331422196355389D+02 -.148858683289941D+02 0.198831728177038D+02 0.219425861092870D+02
 0.117694059587494D+02 -.536929875576392D+01 0.170020042810466D+01 0.103343536806841D+02
0.453390340481D-05 0.000000000000D+00 0.000000000000D+00 0.516176575333D-06 0.000000000000D+00  6 21 -1 25 24 -2 21 2 0.10319554D-01 0.84433514D-01 0.24887372D+05 0.24887372D+05 0.24887372D+05 0.12235079D+01  1  2  2  3  6  5       -2 0.712047620160D-02 0.100000000000D+01
0.243898426235D-06 0.239260655987D-06 -.915264469884D-08 0.516176575333D-06 0.000000000000D+00  6 21 -1 25 24 -2 21 4 0.10319554D-01 0.84433514D-01 0.24887372D+05 0.24887372D+05 0.24887372D+05 0.12235079D+01  1  2  3  3  6  5       -2 0.573402203972D-03 0.100000000000D+01
0.458977588731D-06 0.000000000000D+00 0.000000000000D+00 0.516176575333D-06 0.000000000000D+00  6 21 -1 25 24 -2 21 4 0.10319554D-01 0.84433514D-01 0.24887372D+05 0.24887372D+05 0.24887372D+05 0.12235079D+01  1  2 15  3  6  5       -2 0.107905067292D-02 0.100000000000D+01
0.266638791204D-05 0.000000000000D+00 0.000000000000D+00 0.516149113452D-06 0.000000000000D+00  6 21 -1 25 24 -2 21 4 0.10319554D-01 0.84433514D-01 0.24904766D+05 0.24904766D+05 0.24904766D+05 0.12234754D+01  1  2 12  3  6  5       -2 0.626796035018D-02 0.100000000000D+01
-.115232378583D-03 0.000000000000D+00 0.000000000000D+00 0.516176575333D-06 0.000000000000D+00  6 21 -1 25 24 -2 21 4 0.10319554D-01 0.84433514D-01 0.24887372D+05 0.24887372D+05 0.24887372D+05 0.12235079D+01  1  2  4  3  6  5       -2 -.270909906507D+00 0.100000000000D+01
-.209249837704D-04 0.000000000000D+00 0.000000000000D+00 0.516176575333D-06 0.000000000000D+00  6 21 -1 25 24 -2 21 4 0.10319554D-01 0.84433514D-01 0.24887372D+05 0.24887372D+05 0.24887372D+05 0.12235079D+01  1  2  5  3  6  5       -2 -.491943797967D-01 0.100000000000D+01
0.325435932445D-04 0.000000000000D+00 -.000000000000D+00 0.516176575333D-06 0.000000000000D+00  6 21 -1 25 24 -2 21 4 0.10319554D-01 0.84433514D-01 0.24887372D+05 0.24887372D+05 0.24887372D+05 0.12235079D+01  1  2  6  3  6  5       -2 0.765095879446D-01 0.100000000000D+01
0.663405800648D-04 0.000000000000D+00 0.000000000000D+00 0.516176575333D-06 0.505825107399D-06  6 21 -1 25 24 -2 21 4 0.10319554D-01 0.84433514D-01 0.24904766D+05 0.24904766D+05 0.24904766D+05 0.12234754D+01  1  2 11  3  6  5       -2 0.155948848844D+00 0.100000000000D+01
  </mgrwgt>
  </event>
  <event>
  6     66 0.48358521E-03 0.61764387E+02 0.75467711E-02 0.11767312E+00
       21 -1    0    0  501  502 0.00000000E+00 0.00000000E+00 0.46219546E+02 0.46225630E+02 0.75000000E+00 0.0000E+00 0.9000E+01
       -1 -1    0    0    0  501 -.00000000E+00 -.00000000E+00 -.13701512E+04 0.13701512E+04 0.32000000E+00 0.0000E+00 0.9000E+01
       25  1    1    2    0    0 0.11424689E+03 0.17958967E+02 -.34456424E+03 0.38434931E+03 0.12500000E+03 0.0000E+00 0.9000E+01
       24  1    1    2    0    0 -.47413358E+02 0.16157986E+02 -.70239542E+03 0.70875641E+03 0.80419002E+02 0.0000E+00 0.9000E+01
       -2  1    1    2    0  503 -.10652083E+02 -.63229494E-01 -.25316648E+03 0.25339068E+03 0.32000000E+00 0.0000E+00 0.9000E+01
       21  1    1    2  503  502 -.56181444E+02 -.34053723E+02 -.23805477E+02 0.69880426E+02 0.75000000E+00 0.0000E+00 0.9000E+01
#aMCatNLO 2  0  0  5  2 0.39334416D+02 0.00000000D+00  -5  6  0 0.00000000D+00 0.00000000D+00 0.00000000D+00 0.00000000D+00 0.00000000D+00
  <mgrwgt>
 0.8838229768D-02    1    2    0
 0.251658697024898D+03 0.000000000000000D+00 0.000000000000000D+00 0.251658697024898D+03
 0.251658697024898D+03 -.000000000000000D+00 -.000000000000000D+00 -.251658697024898D+03
 0.186428826964964D+03 0.133889169519589D+03 0.279858934264616D+02 0.205228550160533D+02
 0.157740973924436D+03 -.308679275103922D+02 0.246040409974495D+02 -.129833782653314D+03
 0.159147593160397D+03 -.103021242009197D+03 -.525899344239111D+02 0.109310927637261D+03
 0.000000000000000D+00 0.000000000000000D+00 0.000000000000000D+00 0.000000000000000D+00
 0.251658697024898D+03 0.000000000000000D+00 0.000000000000000D+00 0.251658697024898D+03
 0.251658697024898D+03 -.000000000000000D+00 -.000000000000000D+00 -.251658697024898D+03
 0.175387955876190D+03 0.114560099147250D+03 0.181188550998829D+02 0.410320099394398D+02
 0.147054014763068D+03 -.471507647497681D+02 0.162920334351882D+02 -.112556840456832D+03
 0.463480674572792D+02 -.101529673740980D+02 0.772256779031828D-01 -.452222804236991D+02
 0.134527355953260D+03 -.572563670233835D+02 -.344881142129742D+02 0.116747110941091D+03
0.201795594682D-04 0.000000000000D+00 0.000000000000D+00 0.202786354345D-06 0.762417283384D-09  6 21 -1 25 24 -2 21 4 0.71111702D-02 0.21079296D+00 0.29266704D+05 0.29266704D+05 0.29266704D+05 0.12160280D+01  1  2  1  3  6  5       -2 0.883822976765D-02 0.100000000000D+01
  </mgrwgt>
  </event>
  <event>
  6     66 -.48358521E-03 0.43535223E+02 0.75467711E-02 0.11551377E+00
       21 -1    0    0  501  503 0.00000000E+00 0.00000000E+00 0.20168778E+03 0.20168917E+03 0.75000000E+00 0.0000E+00 0.9000E+01
       -1 -1    0    0    0  501 0.00000000E+00 0.00000000E+00 -.16639552E+04 0.16639552E+04 0.32000000E+00 0.0000E+00 0.9000E+01
       25  1    1    2    0    0 -.50766166E+02 -.10430448E+03 -.14106742E+04 0.14209445E+04 0.12500000E+03 0.0000E+00 0.9000E+01
       24  1    1    2    0    0 -.19968264E+01 0.13255079E+03 -.18760080E+03 0.24338237E+03 0.80419002E+02 0.0000E+00 0.9000E+01
       -2  1    1    2    0  502 0.40540741E+02 -.28662584E+02 -.13384976E+02 0.51423296E+02 0.32000000E+00 0.0000E+00 0.9000E+01
       21  1    1    2  502  503 0.12222251E+02 0.41627528E+00 0.14939259E+03 0.14989418E+03 0.75000000E+00 0.0000E+00 0.9000E+01
#aMCatNLO 2  0  0  1  5 0.12229338D+02 0.00000000D+00  -5  6  0 0.00000000D+00 0.00000000D+00 0.00000000D+00 0.00000000D+00 0.00000000D+00
  <mgrwgt>
 -.1747493047D+00    3    2    0
 0.294194343978743D+03 0.000000000000000D+00 0.000000000000000D+00 0.294194343978743D+03
 0.294194343978743D+03 0.000000000000000D+00 0.000000000000000D+00 -.294194343978743D+03
 0.278378664370528D+03 -.449731864079520D+02 -.104107125160542D+03 -.221379311977976D+03
 0.195900052905616D+03 0.207101324773213D+01 0.132689376824242D+03 0.119577819666419D+03
 0.114109970681341D+03 0.429021731602199D+02 -.285822516636996D+02 0.101801492311557D+03
 0.000000000000000D+00 0.000000000000000D+00 0.000000000000000D+00 0.000000000000000D+00
 0.114032621364635D+04 0.000000000000000D+00 0.000000000000000D+00 0.114032621364635D+04
 0.294302073824785D+03 0.000000000000000D+00 0.000000000000000D+00 -.294302073824785D+03
 0.279446642324861D+03 -.507662489043039D+02 -.104304429948987D+03 -.221379311977976D+03
 0.195805466638582D+03 -.199688135591780D+01 0.132550829193400D+03 0.119577819666419D+03
 0.113263655334090D+03 0.405408790243681D+02 -.286626745212507D+02 0.101801492311557D+03
 0.846112523173604D+03 0.122222512358536D+02 0.416275276836991D+00 0.846024139821568D+03
-.398985614631D-01 0.000000000000D+00 0.000000000000D+00 0.204649626314D-06 0.000000000000D+00  6 21 -1 25 24 -2 21 4 0.31024611D-01 0.25589936D+00 0.37532079D+05 0.37532079D+05 0.37532079D+05 0.12048190D+01  1  2 13  1  6  1       21 -.585984989745D+00 0.100000000000D+01
-.398945847031D-01 0.000000000000D+00 0.000000000000D+00 0.204649626314D-06 0.000000000000D+00  6 21 -1 25 24 -2 21 4 0.31133288D-01 0.25589936D+00 0.37532079D+05 0.37532079D+05 0.37532079D+05 0.12048190D+01  1  2 13  1  6  1       21 -.581930220655D+00 0.100000000000D+01
0.677323709817D-01 0.000000000000D+00 0.000000000000D+00 0.205600793638D-06 0.202125130622D-06  6 21 -1 25 24 -2 21 4 0.31028981D-01 0.25599307D+00 0.37532079D+05 0.37532079D+05 0.37532079D+05 0.12048190D+01  1  2  1  1  6  1       21 0.993165905738D+00 0.100000000000D+01
  </mgrwgt>
  </event>
  <event>
  5     66 -.48358521E-03 0.25824003E+02 0.75467711E-02 0.12341939E+00
       21 -1    0    0  501  502 0.00000000E+00 0.00000000E+00 0.24494659E+03 0.24494774E+03 0.75000000E+00 0.0000E+00 0.9000E+01
       -3 -1    0    0    0  501 0.00000000E+00 0.00000000E+00 -.15458978E+03 0.15459059E+03 0.50000000E+00 0.0000E+00 0.9000E+01
       25  1    1    2    0    0 -.17490116E+02 -.28058209E+02 -.31673117E+02 0.13312157E+03 0.12500000E+03 0.0000E+00 0.9000E+01
       24  1    1    2    0    0 0.43263098E+02 0.26455148E+02 -.39410136E+02 0.10291718E+03 0.80419002E+02 0.0000E+00 0.9000E+01
       -4  1    1    2    0  502 -.25772982E+02 0.16030607E+01 0.16144006E+03 0.16349958E+03 0.15500000E+01 0.0000E+00 0.9000E+01
#aMCatNLO 1  0  0  5  1 0.16321154D+01 0.00000000D+00  -5  6  0 0.00000000D+00 0.00000000D+00 0.00000000D+00 0.00000000D+00 0.00000000D+00
  <mgrwgt>
 -.9530994728D-02    8    2    0
 0.194593502449086D+03 0.000000000000000D+00 0.000000000000000D+00 0.194593502449086D+03
 0.194593502449086D+03 -.000000000000000D+00 -.000000000000000D+00 -.194593502449086D+03
 0.144017135370048D+03 -.174894417411964D+02 -.280582507809311D+02 -.634254623230326D+02
 0.114805961363156D+03 0.432636355837846D+02 0.264551147122515D+02 -.643550895561720D+02
 0.130363908164968D+03 -.257741938425882D+02 0.160313606867966D+01 0.127780551879205D+03
 0.000000000000000D+00 0.000000000000000D+00 0.000000000000000D+00 0.000000000000000D+00
 0.194593502449086D+03 0.000000000000000D+00 0.000000000000000D+00 0.194593502449086D+03
 0.194593502449086D+03 -.000000000000000D+00 -.000000000000000D+00 -.194593502449086D+03
 0.143980566279700D+03 -.175070845022663D+02 -.280571534140534D+02 -.633379949221142D+02
 0.114761793943241D+03 0.432495722456641D+02 0.264559894416310D+02 -.642853678369489D+02
 0.124548855508685D+03 -.262044833920992D+02 0.177027548735048D+01 0.121748135851747D+03
 0.589578916654547D+01 0.461995648701266D+00 -.169111514928014D+00 0.587522690731641D+01
0.104493540130D-05 0.000000000000D+00 0.000000000000D+00 0.768716947823D-05 0.000000000000D+00  6 21 -3 25 24 -4 21 2 0.37684241D-01 0.23783194D-01 0.15649440D+05 0.15649440D+05 0.15649440D+05 0.12457295D+01  1  2  2  3  6  5       -4 0.881339909745D-03 0.100000000000D+01
0.212855065779D-06 0.551427560884D-07 -.210942351599D-08 0.768716947823D-05 0.000000000000D+00  6 21 -3 25 24 -4 21 4 0.37684241D-01 0.23783194D-01 0.15649440D+05 0.15649440D+05 0.15649440D+05 0.12457295D+01  1  2  3  3  6  5       -4 0.278602804460D-03 0.100000000000D+01
0.999540089076D-07 0.000000000000D+00 0.000000000000D+00 0.768716947823D-05 0.000000000000D+00  6 21 -3 25 24 -4 21 4 0.37684241D-01 0.23783194D-01 0.15649440D+05 0.15649440D+05 0.15649440D+05 0.12457295D+01  1  2 15  3  6  5       -4 0.130828303741D-03 0.100000000000D+01
0.306309259265D-08 0.000000000000D+00 0.000000000000D+00 0.768267037017D-05 0.000000000000D+00  6 21 -3 25 24 -4 21 4 0.37684241D-01 0.23783194D-01 0.15765768D+05 0.15765768D+05 0.15765768D+05 0.12453649D+01  1  2 12  3  6  5       -4 0.400514921323D-05 0.100000000000D+01
-.994242669786D-04 0.000000000000D+00 0.000000000000D+00 0.768716947823D-05 0.000000000000D+00  6 21 -3 25 24 -4 21 4 0.37684241D-01 0.23783194D-01 0.15649440D+05 0.15649440D+05 0.15649440D+05 0.12457295D+01  1  2  4  3  6  5       -4 -.130134932472D+00 0.100000000000D+01
-.103063394547D-03 0.000000000000D+00 0.000000000000D+00 0.768716947823D-05 0.000000000000D+00  6 21 -3 25 24 -4 21 4 0.37684241D-01 0.23783194D-01 0.15649440D+05 0.15649440D+05 0.15649440D+05 0.12457295D+01  1  2  5  3  6  5       -4 -.134898131989D+00 0.100000000000D+01
0.107829788882D-03 0.000000000000D+00 -.000000000000D+00 0.768716947823D-05 0.000000000000D+00  6 21 -3 25 24 -4 21 4 0.37684241D-01 0.23783194D-01 0.15649440D+05 0.15649440D+05 0.15649440D+05 0.12457295D+01  1  2  6  3  6  5       -4 0.141136794076D+00 0.100000000000D+01
0.864750327635D-04 0.000000000000D+00 0.000000000000D+00 0.768716947823D-05 0.412604394966D-03  6 21 -3 25 24 -4 21 4 0.37684241D-01 0.23783194D-01 0.15765768D+05 0.15765768D+05 0.15765768D+05 0.12453649D+01  1  2 11  3  6  5       -4 0.113070499491D+00 0.100000000000D+01
  </mgrwgt>
  </event>
  <event>
  5     66 -.48358521E-03 0.28816550E+02 0.75467711E-02 0.12173624E+00
       21 -1    0    0  501  502 0.00000000E+00 0.00000000E+00 0.86853191E+02 0.86856429E+02 0.75000000E+00 0.0000E+00 0.9000E+01
       -1 -1    0    0    0  501 0.00000000E+00 0.00000000E+00 -.27317222E+03 0.27317241E+03 0.32000000E+00 0.0000E+00 0.9000E+01
       25  1    1    2    0    0 -.38660936E+02 -.77955184E+00 0.96340744E+00 0.13084802E+03 0.12500000E+03 0.0000E+00 0.9000E+01
       24  1    1    2    0    0 0.15019499E+02 -.15694546E+02 -.18162077E+03 0.19981297E+03 0.80419002E+02 0.0000E+00 0.9000E+01
       -2  1    1    2    0  502 0.23641437E+02 0.16474097E+02 -.56616644E+01 0.29367844E+02 0.32000000E+00 0.0000E+00 0.9000E+01
#aMCatNLO 1  0  0  2  1 0.29391764D+02 0.00000000D+00  -5  6  0 0.00000000D+00 0.00000000D+00 0.00000000D+00 0.00000000D+00 0.00000000D+00
  <mgrwgt>
 -.4890198912D-01    7    4    0
 0.154034072982536D+03 0.000000000000000D+00 0.000000000000000D+00 0.154034072982536D+03
 0.154034072982536D+03 0.000000000000000D+00 0.000000000000000D+00 -.154034072982536D+03
 0.153500331398047D+03 -.386615680079879D+02 -.779992124934687D+00 0.802622358943427D+02
 0.123670937228886D+03 0.150189902220886D+02 -.156949002901513D+02 -.914077939690676D+02
 0.308968773381393D+02 0.236425777858993D+02 0.164748924150860D+02 0.111455580747249D+02
 0.000000000000000D+00 0.000000000000000D+00 0.000000000000000D+00 -.000000000000000D+00
 0.157091917080169D+03 0.000000000000000D+00 0.000000000000000D+00 0.157091917080169D+03
 0.246308289513474D+03 0.000000000000000D+00 0.000000000000000D+00 -.246308289513474D+03
 0.157743439514631D+03 -.528147775464891D+02 -.515417033691782D+01 0.802622358943427D+02
 0.123305644922626D+03 0.378820700659453D+01 -.191658760508849D+02 -.914077939690676D+02
 0.284179709174028D+02 0.209453495854975D+02 0.156412894930880D+02 0.111455580747249D+02
 0.939331512389821D+02 0.280812209543970D+02 0.867875689471464D+01 -.892163724333054D+02
 0.154034072982536D+03 0.000000000000000D+00 0.000000000000000D+00 0.154034072982536D+03
 0.154034072982536D+03 0.000000000000000D+00 0.000000000000000D+00 -.154034072982536D+03
 0.153500331398047D+03 -.386615680079879D+02 -.779992124934687D+00 0.802622358943427D+02
 0.123670937228886D+03 0.150189902220886D+02 -.156949002901513D+02 -.914077939690676D+02
 0.000000000000000D+00 0.000000000000000D+00 0.000000000000000D+00 -.000000000000000D+00
 0.308968773381393D+02 0.236425777858993D+02 0.164748924150860D+02 0.111455580747249D+02
 0.157091917080169D+03 0.000000000000000D+00 0.000000000000000D+00 0.157091917080169D+03
 0.246308289513474D+03 0.000000000000000D+00 0.000000000000000D+00 -.246308289513474D+03
 0.157743439514631D+03 -.528147775464891D+02 -.515417033691782D+01 0.802622358943427D+02
 0.123305644922626D+03 0.378820700659453D+01 -.191658760508849D+02 -.914077939690676D+02
 0.939331512389821D+02 0.280812209543970D+02 0.867875689471464D+01 -.892163724333054D+02
 0.284179709174028D+02 0.209453495854975D+02 0.156412894930880D+02 0.111455580747249D+02
0.169410522465D-05 0.000000000000D+00 0.000000000000D+00 0.416089691219D-06 0.000000000000D+00  6 21 -1 25 24 -2 21 2 0.13362293D-01 0.42026759D-01 0.14757702D+05 0.14757702D+05 0.14757702D+05 0.12486296D+01  1  2  2  2  6  2       -1 0.661909625711D-02 0.100000000000D+01
0.187142264268D-07 0.894003888419D-07 -.341991035522D-08 0.416089691219D-06 0.000000000000D+00  6 21 -1 25 24 -2 21 4 0.13362293D-01 0.42026759D-01 0.14757702D+05 0.14757702D+05 0.14757702D+05 0.12486296D+01  1  2  3  2  6  2       -1 0.113998058972D-03 0.100000000000D+01
0.181326745232D-06 0.000000000000D+00 0.000000000000D+00 0.416089691219D-06 0.000000000000D+00  6 21 -1 25 24 -2 21 4 0.13362293D-01 0.42026759D-01 0.14757702D+05 0.14757702D+05 0.14757702D+05 0.12486296D+01  1  2 15  2  6  2       -1 0.110455524715D-02 0.100000000000D+01
-.167246659429D-04 0.000000000000D+00 0.000000000000D+00 0.416089691219D-06 0.000000000000D+00  6 21 -1 25 24 -2 21 4 0.13362293D-01 0.42026759D-01 0.14757702D+05 0.14757702D+05 0.14757702D+05 0.12486296D+01  1  2  4  2  6  2       -1 -.101878614213D+00 0.100000000000D+01
-.230850088802D-04 0.000000000000D+00 -.176725493041D-05 0.416089691219D-06 0.000000000000D+00  6 21 -1 25 24 -2 21 4 0.13362293D-01 0.67852424D-01 0.14757702D+05 0.14757702D+05 0.14757702D+05 0.12486296D+01  1  2  5  2  6  2       -1 -.579876940935D-01 0.100000000000D+01
0.215915795812D-04 0.000000000000D+00 0.158222193928D-05 0.416089691219D-06 0.000000000000D+00  6 21 -1 25 24 -2 21 4 0.13362293D-01 0.42026759D-01 0.14757702D+05 0.14757702D+05 0.14757702D+05 0.12486296D+01  1  2  6  2  6  2       -1 0.131525509324D+00 0.100000000000D+01
-.118269474780D-05 0.000000000000D+00 -.963482348286D-07 0.416089691219D-06 0.000000000000D+00  6 21 21 25 24 1 -2 4 0.13362293D-01 0.67852424D-01 0.14757702D+05 0.14757702D+05 0.14757702D+05 0.12486296D+01  3  4  5 10  5  2       -1 -.283988397028D-01 0.100000000000D+01
  </mgrwgt>
  </event>
  <event>
  6     66 -.48358521E-03 0.24463365E+02 0.75467711E-02 0.12264245E+00
       21 -1    0    0  501  503 0.00000000E+00 0.00000000E+00 0.50678721E+02 0.50684271E+02 0.75000000E+00 0.0000E+00 0.9000E+01
       -1 -1    0    0    0  501 0.00000000E+00 0.00000000E+00 -.38537374E+03 0.38537387E+03 0.32000000E+00 0.0000E+00 0.9000E+01
       25  1    1    2    0    0 -.33036531E+02 -.77833360E+01 -.15566446E+03 0.20250535E+03 0.12500000E+03 0.0000E+00 0.9000E+01
       24  1    1    2    0    0 0.37879557E+02 0.38585169E+02 -.16538966E+03 0.19168890E+03 0.80419002E+02 0.0000E+00 0.9000E+01
       -2  1    1    2    0  502 -.10028758E+02 -.26101258E+02 -.18303006E+02 0.33420863E+02 0.32000000E+00 0.0000E+00 0.9000E+01
       21  1    1    2  502  503 0.51857317E+01 -.47005750E+01 0.46621040E+01 0.84430404E+01 0.75000000E+00 0.0000E+00 0.9000E+01
#aMCatNLO 2  0  0  1  5 0.69990870D+01 0.00000000D+00  -5  6  0 0.00000000D+00 0.00000000D+00 0.00000000D+00 0.00000000D+00 0.00000000D+00
  <mgrwgt>
 -.2709357244D-01    3    2    0
 0.130040794582581D+03 0.000000000000000D+00 0.000000000000000D+00 0.130040794582581D+03
 0.130040794582581D+03 0.000000000000000D+00 0.000000000000000D+00 -.130040794582581D+03
 0.129319941166341D+03 -.304535630651661D+02 -.101237393176500D+02 0.829081311634981D+01
 0.994228529995691D+02 0.398608227676482D+02 0.367899644304189D+02 -.218014006361527D+02
 0.313387949992508D+02 -.940725970248210D+01 -.266662251127689D+02 0.135105875198029D+02
 0.000000000000000D+00 0.000000000000000D+00 -.000000000000000D+00 0.000000000000000D+00
 0.149396186307638D+03 0.000000000000000D+00 0.000000000000000D+00 0.149396186307638D+03
 0.130722150677895D+03 0.000000000000000D+00 0.000000000000000D+00 -.130722150677895D+03
 0.129790998444016D+03 -.330362845797617D+02 -.778264711581148D+01 0.829081311634981D+01
 0.993289904076746D+02 0.378797382838925D+02 0.385857064064290D+02 -.218014006361527D+02
 0.310557599052420D+02 -.100291854289211D+02 -.261024843222652D+02 0.135105875198029D+02
 0.199425882286002D+02 0.518573172479029D+01 -.470057496835235D+01 0.186740356297428D+02
-.780754309756D-05 0.000000000000D+00 0.000000000000D+00 0.937130861364D-06 0.000000000000D+00  6 21 -1 25 24 -2 21 4 0.78128915D-02 0.58976512D-01 0.17081813D+05 0.17081813D+05 0.17081813D+05 0.12414389D+01  1  2 13  1  6  1       21 -.642577268592D-01 0.100000000000D+01
-.621507597358D-05 0.000000000000D+00 0.000000000000D+00 0.937130861364D-06 0.000000000000D+00  6 21 -1 25 24 -2 21 4 0.80620827D-02 0.58976512D-01 0.17081813D+05 0.17081813D+05 0.17081813D+05 0.12414389D+01  1  2 13  1  6  1       21 -.484565564831D-01 0.100000000000D+01
0.104692072186D-04 0.000000000000D+00 0.000000000000D+00 0.941177983432D-06 0.371785658952D-06  6 21 -1 25 24 -2 21 4 0.77967450D-02 0.59285523D-01 0.17081813D+05 0.17081813D+05 0.17081813D+05 0.12414389D+01  1  2  1  1  6  1       21 0.856207109043D-01 0.100000000000D+01
  </mgrwgt>
  </event>
  <event>
  5     66 0.48358521E-03 0.34819576E+02 0.75467711E-02 0.12094603E+00
       21 -1    0    0  501  502 0.00000000E+00 0.00000000E+00 0.59052413E+02 0.59057175E+02 0.75000000E+00 0.0000E+00 0.9000E+01
       -1 -1    0    0    0  501 0.00000000E+00 0.00000000E+00 -.36208669E+03 0.36208683E+03 0.32000000E+00 0.0000E+00 0.9000E+01
       25  1    1    2    0    0 0.32554334E+02 0.31587237E+02 -.86337780E+02 0.15854574E+03 0.12500000E+03 0.0000E+00 0.9000E+01
       24  1    1    2    0    0 -.66415767E+02 -.39695275E+02 -.14574944E+03 0.18356711E+03 0.80419002E+02 0.0000E+00 0.9000E+01
       -2  1    1    2    0  502 0.33861433E+02 0.81080380E+01 -.70947055E+02 0.79031158E+02 0.32000000E+00 0.0000E+00 0.9000E+01
#aMCatNLO 1  0  0  1  2 0.64761397D+01 0.00000000D+00  -5  6  0 0.00000000D+00 0.00000000D+00 0.00000000D+00 0.00000000D+00 0.00000000D+00
  <mgrwgt>
 0.6236453865D-01   32    4    0
 0.146229700614820D+03 0.000000000000000D+00 0.000000000000000D+00 0.146229700614820D+03
 0.146229700614820D+03 0.000000000000000D+00 0.000000000000000D+00 -.146229700614820D+03
 0.138847520046413D+03 0.325538268722457D+02 0.315871157050453D+02 0.399516745637405D+02
 0.113318911461931D+03 -.664161808174661D+02 -.396953741684266D+02 -.196755669752286D+02
 0.402929697212961D+02 0.338623539452204D+02 0.810825846338125D+01 -.202761075885120D+02
 0.000000000000000D+00 0.000000000000000D+00 -.000000000000000D+00 0.000000000000000D+00
 0.151797823116136D+03 0.000000000000000D+00 0.000000000000000D+00 0.151797823116136D+03
 0.148160806959858D+03 0.000000000000000D+00 0.000000000000000D+00 -.148160806959858D+03
 0.138345198587386D+03 0.295710532423230D+02 0.323080559903551D+02 0.399516745637405D+02
 0.114569718592525D+03 -.688684104418079D+02 -.391026670627708D+02 -.196755669752286D+02
 0.396161781809465D+02 0.330024796298806D+02 0.831609120939074D+01 -.202761075885120D+02
 0.742753471513560D+01 0.629487756960430D+01 -.152148013697506D+01 0.363701615627805D+01
 0.146229700614820D+03 0.000000000000000D+00 0.000000000000000D+00 0.146229700614820D+03
 0.146229700614820D+03 0.000000000000000D+00 0.000000000000000D+00 -.146229700614820D+03
 0.138847520046413D+03 0.325538268722457D+02 0.315871157050453D+02 0.399516745637405D+02
 0.113318911461931D+03 -.664161808174661D+02 -.396953741684266D+02 -.196755669752286D+02
 0.000000000000000D+00 0.000000000000000D+00 -.000000000000000D+00 0.000000000000000D+00
 0.402929697212961D+02 0.338623539452204D+02 0.810825846338125D+01 -.202761075885120D+02
 0.151797823116136D+03 0.000000000000000D+00 0.000000000000000D+00 0.151797823116136D+03
 0.148160806959858D+03 0.000000000000000D+00 0.000000000000000D+00 -.148160806959858D+03
 0.138345198587386D+03 0.295710532423230D+02 0.323080559903551D+02 0.399516745637405D+02
 0.114569718592525D+03 -.688684104418079D+02 -.391026670627708D+02 -.196755669752286D+02
 0.742753471513560D+01 0.629487756960430D+01 -.152148013697506D+01 0.363701615627805D+01
 0.396161781809465D+02 0.330024796298806D+02 0.831609120939074D+01 -.202761075885120D+02
0.155162214353D-05 0.000000000000D+00 0.000000000000D+00 0.294900149142D-06 0.000000000000D+00  6 21 -1 25 24 -2 21 2 0.90853638D-02 0.55706022D-01 0.19515089D+05 0.19515089D+05 0.19515089D+05 0.12350013D+01  1  2  2  1  6  1       21 0.703885320438D-02 0.100000000000D+01
-.723322935777D-07 0.818813500772D-07 -.313227806563D-08 0.294900149142D-06 0.000000000000D+00  6 21 -1 25 24 -2 21 4 0.90853638D-02 0.55706022D-01 0.19515089D+05 0.19515089D+05 0.19515089D+05 0.12350013D+01  1  2  3  1  6  1       21 -.500475700663D-03 0.100000000000D+01
0.171521451818D-06 0.000000000000D+00 0.000000000000D+00 0.294900149142D-06 0.000000000000D+00  6 21 -1 25 24 -2 21 4 0.90853638D-02 0.55706022D-01 0.19515089D+05 0.19515089D+05 0.19515089D+05 0.12350013D+01  1  2 15  1  6  1       21 0.118677722676D-02 0.100000000000D+01
0.475185685837D-05 0.000000000000D+00 0.000000000000D+00 0.293860806710D-06 0.000000000000D+00  6 21 -1 25 24 -2 21 4 0.94897318D-02 0.55706022D-01 0.20424527D+05 0.20424527D+05 0.20424527D+05 0.12328231D+01  1  2 12  1  6  1       21 0.302699979034D-01 0.100000000000D+01
-.282777803246D-05 0.000000000000D+00 0.000000000000D+00 0.294900149142D-06 0.000000000000D+00  6 21 -1 25 24 -2 21 4 0.90853638D-02 0.55706022D-01 0.19515089D+05 0.19515089D+05 0.19515089D+05 0.12350013D+01  1  2  4  1  6  1       21 -.195657309082D-01 0.100000000000D+01
-.714332176908D-04 0.000000000000D+00 -.100216769670D-04 0.294900149142D-06 0.000000000000D+00  6 21 -1 25 24 -2 21 4 0.95519070D-02 0.55706022D-01 0.19515089D+05 0.19515089D+05 0.19515089D+05 0.12350013D+01  1  2  5  1  6  1       21 -.452903938478D+00 0.100000000000D+01
0.715787340552D-04 0.000000000000D+00 0.997159397730D-05 0.294900149142D-06 0.000000000000D+00  6 21 -1 25 24 -2 21 4 0.90853638D-02 0.55706022D-01 0.19515089D+05 0.19515089D+05 0.19515089D+05 0.12350013D+01  1  2  6  1  6  1       21 0.495261733134D+00 0.100000000000D+01
0.537662551470D-06 0.000000000000D+00 0.000000000000D+00 0.294900149142D-06 0.179241293752D-06  6 21 -1 25 24 -2 21 4 0.94313155D-02 0.56441675D-01 0.20424527D+05 0.20424527D+05 0.20424527D+05 0.12328231D+01  1  2 11  1  6  1       21 0.337816594061D-02 0.100000000000D+01
0.101071388596D-06 0.000000000000D+00 0.000000000000D+00 0.293860806710D-06 0.000000000000D+00  6 -1 -1 25 24 -2 -1 4 0.94897318D-02 0.55706022D-01 0.20424527D+05 0.20424527D+05 0.20424527D+05 0.12328231D+01  1  2 12  4  6  1       21 0.422532696005D-04 0.100000000000D+01
-.745153324045D-06 0.000000000000D+00 -.119917961579D-06 0.294900149142D-06 0.000000000000D+00  6 -1 -1 25 24 -2 -1 4 0.95519070D-02 0.55706022D-01 0.19515089D+05 0.19515089D+05 0.19515089D+05 0.12350013D+01  1  2  5  4  6  1       21 -.310280117025D-03 0.100000000000D+01
0.235083095745D-07 0.000000000000D+00 0.000000000000D+00 0.294900149142D-06 0.129774217334D-08  6 -1 -1 25 24 -2 -1 4 0.94313155D-02 0.56441675D-01 0.20424527D+05 0.20424527D+05 0.20424527D+05 0.12328231D+01  1  2 11  4  6  1       21 0.967999659750D-05 0.100000000000D+01
0.101071388596D-06 0.000000000000D+00 0.000000000000D+00 0.293860806710D-06 0.000000000000D+00  6 1 -1 25 24 1 -2 4 0.94897318D-02 0.55706022D-01 0.20424527D+05 0.20424527D+05 0.20424527D+05 0.12328231D+01  3  4 12  5  5  1       21 0.524087918653D-04 0.100000000000D+01
-.745153324045D-06 0.000000000000D+00 -.119917961579D-06 0.294900149142D-06 0.000000000000D+00  6 1 -1 25 24 1 -2 4 0.95519070D-02 0.55706022D-01 0.19515089D+05 0.19515089D+05 0.19515089D+05 0.12350013D+01  3  4  5  5  5  1       21 -.385367932048D-03 0.100000000000D+01
0.211892771132D-07 0.000000000000D+00 0.000000000000D+00 0.294900149142D-06 0.968359235332D-09  6 1 -1 25 24 1 -2 4 0.94313155D-02 0.56441675D-01 0.20424527D+05 0.20424527D+05 0.20424527D+05 0.12328231D+01  3  4 11  5  5  1       21 0.108093372867D-04 0.100000000000D+01
0.101071388596D-06 0.000000000000D+00 0.000000000000D+00 0.293860806710D-06 0.000000000000D+00  6 -2 -1 25 24 -2 -2 4 0.94897318D-02 0.55706022D-01 0.20424527D+05 0.20424527D+05 0.20424527D+05 0.12328231D+01  1  2 12  6  6  1       21 0.404875784385D-04 0.100000000000D+01
-.745153324045D-06 0.000000000000D+00 -.119917961579D-06 0.294900149142D-06 0.000000000000D+00  6 -2 -1 25 24 -2 -2 4 0.95519070D-02 0.55706022D-01 0.19515089D+05 0.19515089D+05 0.19515089D+05 0.12350013D+01  1  2  5  6  6  1       21 -.297223631288D-03 0.100000000000D+01
0.210857679487D-07 0.000000000000D+00 0.000000000000D+00 0.294900149142D-06 0.489485753485D-09  6 -2 -1 25 24 -2 -2 4 0.94313155D-02 0.56441675D-01 0.20424527D+05 0.20424527D+05 0.20424527D+05 0.12328231D+01  1  2 11  6  6  1       21 0.832183122074D-05 0.100000000000D+01
0.101071388596D-06 0.000000000000D+00 0.000000000000D+00 0.293860806710D-06 0.000000000000D+00  6 2 -1 25 24 2 -2 4 0.94897318D-02 0.55706022D-01 0.20424527D+05 0.20424527D+05 0.20424527D+05 0.12328231D+01  3  4 12  7  5  1       21 0.592654735407D-04 0.100000000000D+01
-.745153324045D-06 0.000000000000D+00 -.119917961579D-06 0.294900149142D-06 0.000000000000D+00  6 2 -1 25 24 2 -2 4 0.95519070D-02 0.55706022D-01 0.19515089D+05 0.19515089D+05 0.19515089D+05 0.12350013D+01  3  4  5  7  5  1       21 -.436059382193D-03 0.100000000000D+01
0.822623387730D-07 0.000000000000D+00 0.000000000000D+00 0.294900149142D-06 0.265823023121D-07  6 2 -1 25 24 2 -2 4 0.94313155D-02 0.56441675D-01 0.20424527D+05 0.20424527D+05 0.20424527D+05 0.12328231D+01  3  4 11  7  5  1       21 0.474268927086D-04 0.100000000000D+01
0.101071388596D-06 0.000000000000D+00 0.000000000000D+00 0.293860806710D-06 0.000000000000D+00  6 -3 -1 25 24 -2 -3 4 0.94897318D-02 0.55706022D-01 0.20424527D+05 0.20424527D+05 0.20424527D+05 0.12328231D+01  1  2 12  8  6  1       21 0.279926609625D-04 0.100000000000D+01
0.101071388596D-06 0.000000000000D+00 0.000000000000D+00 0.293860806710D-06 0.000000000000D+00  6 -4 -1 25 24 -2 -4 4 0.94897318D-02 0.55706022D-01 0.20424527D+05 0.20424527D+05 0.20424527D+05 0.12328231D+01  1  2 12  8  6  1       21 0.244977857971D-04 0.100000000000D+01
-.745153324045D-06 0.000000000000D+00 -.119917961579D-06 0.294900149142D-06 0.000000000000D+00  6 -3 -1 25 24 -2 -3 4 0.95519070D-02 0.55706022D-01 0.19515089D+05 0.19515089D+05 0.19515089D+05 0.12350013D+01  1  2  5  8  6  1       21 -.205176305149D-03 0.100000000000D+01
-.745153324045D-06 0.000000000000D+00 -.119917961579D-06 0.294900149142D-06 0.000000000000D+00  6 -4 -1 25 24 -2 -4 4 0.95519070D-02 0.55706022D-01 0.19515089D+05 0.19515089D+05 0.19515089D+05 0.12350013D+01  1  2  5  8  6  1       21 -.179437800975D-03 0.100000000000D+01
0.211534209651D-07 0.000000000000D+00 0.000000000000D+00 0.294900149142D-06 0.966720593674D-09  6 -3 -1 25 24 -2 -3 4 0.94313155D-02 0.56441675D-01 0.20424527D+05 0.20424527D+05 0.20424527D+05 0.12328231D+01  1  2 11  8  6  1       21 0.577499179507D-05 0.100000000000D+01
0.211534209651D-07 0.000000000000D+00 0.000000000000D+00 0.294900149142D-06 0.966720593674D-09  6 -4 -1 25 24 -2 -4 4 0.94313155D-02 0.56441675D-01 0.20424527D+05 0.20424527D+05 0.20424527D+05 0.12328231D+01  1  2 11  8  6  1       21 0.505497574042D-05 0.100000000000D+01
0.101071388596D-06 0.000000000000D+00 0.000000000000D+00 0.293860806710D-06 0.000000000000D+00  6 3 -1 25 24 3 -2 4 0.94897318D-02 0.55706022D-01 0.20424527D+05 0.20424527D+05 0.20424527D+05 0.12328231D+01  3  4 12  9  5  1       21 0.279891568879D-04 0.100000000000D+01
0.101071388596D-06 0.000000000000D+00 0.000000000000D+00 0.293860806710D-06 0.000000000000D+00  6 4 -1 25 24 4 -2 4 0.94897318D-02 0.55706022D-01 0.20424527D+05 0.20424527D+05 0.20424527D+05 0.12328231D+01  3  4 12  9  5  1       21 0.244977857971D-04 0.100000000000D+01
-.745153324045D-06 0.000000000000D+00 -.119917961579D-06 0.294900149142D-06 0.000000000000D+00  6 3 -1 25 24 3 -2 4 0.95519070D-02 0.55706022D-01 0.19515089D+05 0.19515089D+05 0.19515089D+05 0.12350013D+01  3  4  5  9  5  1       21 -.205150478649D-03 0.100000000000D+01
-.745153324045D-06 0.000000000000D+00 -.119917961579D-06 0.294900149142D-06 0.000000000000D+00  6 4 -1 25 24 4 -2 4 0.95519070D-02 0.55706022D-01 0.19515089D+05 0.19515089D+05 0.19515089D+05 0.12350013D+01  3  4  5  9  5  1       21 -.179437800975D-03 0.100000000000D+01
0.211534209651D-07 0.000000000000D+00 0.000000000000D+00 0.294900149142D-06 0.966720593674D-09  6 3 -1 25 24 3 -2 4 0.94313155D-02 0.56441675D-01 0.20424527D+05 0.20424527D+05 0.20424527D+05 0.12328231D+01  3  4 11  9  5  1       21 0.577426977022D-05 0.100000000000D+01
0.211534209651D-07 0.000000000000D+00 0.000000000000D+00 0.294900149142D-06 0.966720593674D-09  6 4 -1 25 24 4 -2 4 0.94313155D-02 0.56441675D-01 0.20424527D+05 0.20424527D+05 0.20424527D+05 0.12328231D+01  3  4 11  9  5  1       21 0.505497574042D-05 0.100000000000D+01
  </mgrwgt>
  </event>
  <event>
  5     66 0.48358521E-03 0.68203238E+02 0.75467711E-02 0.11725195E+00
       21 -1    0    0  501  502 0.00000000E+00 0.00000000E+00 0.43188599E+02 0.43195110E+02 0.75000000E+00 0.0000E+00 0.9000E+01
       -1 -1    0    0    0  501 0.00000000E+00 0.00000000E+00 -.50271751E+03 0.50271761E+03 0.32000000E+00 0.0000E+00 0.9000E+01
       25  1    1    2    0    0 -.44845402E+02 0.54952532E+02 -.23403990E+03 0.27464626E+03 0.12500000E+03 0.0000E+00 0.9000E+01
       24  1    1    2    0    0 0.93607518E+01 0.32921577E+01 -.10280683E+03 0.13090043E+03 0.80419002E+02 0.0000E+00 0.9000E+01
       -2  1    1    2    0  502 0.35484650E+02 -.58244690E+02 -.12268218E+03 0.14036604E+03 0.32000000E+00 0.0000E+00 0.9000E+01
#aMCatNLO 1  0  0  1  1 0.52692366D+02 0.00000000D+00  -5  6  0 0.00000000D+00 0.00000000D+00 0.00000000D+00 0.00000000D+00 0.00000000D+00
  <mgrwgt>
 0.1394664782D-01    4    2    0
 0.147354910724668D+03 0.000000000000000D+00 0.000000000000000D+00 0.147354910724668D+03
 0.147354910724668D+03 0.000000000000000D+00 0.000000000000000D+00 -.147354910724668D+03
 0.143818877630158D+03 -.448455893824763D+02 0.549528405457853D+02 -.528469409581104D+01
 0.821740458263251D+02 0.936064449369079D+01 0.329233377553749D+01 0.136710177408134D+02
 0.687168979928529D+02 0.354849448887855D+02 -.582451743213228D+02 -.838632364500237D+01
 0.000000000000000D+00 -.000000000000000D+00 0.000000000000000D+00 -.000000000000000D+00
 0.165038289733903D+03 0.000000000000000D+00 0.000000000000000D+00 0.165038289733903D+03
 0.194921196969790D+03 0.000000000000000D+00 0.000000000000000D+00 -.194921196969790D+03
 0.133606081012341D+03 -.262467937160402D+02 0.388427948456008D+02 -.528469409581104D+01
 0.843567945129317D+02 0.205250079553828D+02 -.637809912813194D+01 0.136710177408134D+02
 0.814204311289514D+02 0.455502739777925D+02 -.669636373078228D+02 -.838632364500237D+01
 0.605761800494694D+02 -.398284882171351D+02 0.344989415903538D+02 -.298829072358869D+02
0.447868596215D-05 0.000000000000D+00 0.000000000000D+00 0.322460349426D-06 0.000000000000D+00  6 21 -1 25 24 -2 21 2 0.66449085D-02 0.77341663D-01 0.21455490D+05 0.21455490D+05 0.21455490D+05 0.12304814D+01  1  2  2  1  6  1       21 0.182895376342D-01 0.100000000000D+01
-.340302094745D-06 0.236346751483D-06 -.904117659095D-08 0.322460349426D-06 0.000000000000D+00  6 21 -1 25 24 -2 21 4 0.66449085D-02 0.77341663D-01 0.21455490D+05 0.21455490D+05 0.21455490D+05 0.12304814D+01  1  2  3  1  6  1       21 -.210410228445D-02 0.100000000000D+01
0.476302426682D-06 0.000000000000D+00 0.000000000000D+00 0.322460349426D-06 0.000000000000D+00  6 21 -1 25 24 -2 21 4 0.66449085D-02 0.77341663D-01 0.21455490D+05 0.21455490D+05 0.21455490D+05 0.12304814D+01  1  2 15  1  6  1       21 0.294499810477D-02 0.100000000000D+01
-.838387526510D-06 0.000000000000D+00 0.000000000000D+00 0.322460349426D-06 0.000000000000D+00  6 21 -1 25 24 -2 21 4 0.66449085D-02 0.77341663D-01 0.21455490D+05 0.21455490D+05 0.21455490D+05 0.12304814D+01  1  2  4  1  6  1       21 -.518378563349D-02 0.100000000000D+01
  </mgrwgt>
  </event>
  <event>
  5     66 0.48358521E-03 0.69219520E+02 0.75467711E-02 0.11602608E+00
       21 -1    0    0  501  502 0.00000000E+00 0.00000000E+00 0.22312163E+03 0.22312289E+03 0.75000000E+00 0.0000E+00 0.9000E+01
       -1 -1    0    0    0  501 0.00000000E+00 0.00000000E+00 -.14095562E+03 0.14095599E+03 0.32000000E+00 0.0000E+00 0.9000E+01
       25  1    1    2    0    0 0.44766576E+00 0.30849171E+02 0.12666678E+02 0.12937278E+03 0.12500000E+03 0.0000E+00 0.9000E+01
       24  1    1    2    0    0 0.53800369E+02 0.21681485E+02 0.11075622E+03 0.14865639E+03 0.80419002E+02 0.0000E+00 0.9000E+01
       -2  1    1    2    0  502 -.54248035E+02 -.52530656E+02 -.41256886E+02 0.86049707E+02 0.32000000E+00 0.0000E+00 0.9000E+01
#aMCatNLO 1  0  0  1  2 0.65198758D+02 0.00000000D+00  -5  6  0 0.00000000D+00 0.00000000D+00 0.00000000D+00 0.00000000D+00 0.00000000D+00
  <mgrwgt>
 0.2349677433D-01   31    4    0
 0.177343013150682D+03 0.000000000000000D+00 0.000000000000000D+00 0.177343013150682D+03
 0.177343013150682D+03 0.000000000000000D+00 0.000000000000000D+00 -.177343013150682D+03
 0.129864518328617D+03 0.447771897652192D+00 0.308492736325114D+02 -.169680563824430D+02
 0.126935656822403D+03 0.538004731811773D+02 0.216815851328970D+02 0.792518956881835D+02
 0.978858511503442D+02 -.542482450788295D+02 -.525308587654084D+02 -.622838393057405D+02
 0.000000000000000D+00 0.000000000000000D+00 0.000000000000000D+00 0.000000000000000D+00
 0.343099010327587D+03 0.000000000000000D+00 0.000000000000000D+00 0.343099010327587D+03
 0.186842723388483D+03 0.000000000000000D+00 0.000000000000000D+00 -.186842723388483D+03
 0.127641769317880D+03 -.146307916214592D+02 0.128625920300154D+02 -.169680563824430D+02
 0.119654685266455D+03 0.393611048443132D+02 0.445737670699765D+01 0.792518956881835D+02
 0.113332239913084D+03 -.666163524038728D+02 -.672843336703019D+02 -.622838393057405D+02
 0.169313039218651D+03 0.418860391810187D+02 0.499643649332888D+02 0.156256286939104D+03
 0.177343013150682D+03 0.000000000000000D+00 0.000000000000000D+00 0.177343013150682D+03
 0.177343013150682D+03 0.000000000000000D+00 0.000000000000000D+00 -.177343013150682D+03
 0.129864518328617D+03 0.447771897652192D+00 0.308492736325114D+02 -.169680563824430D+02
 0.126935656822403D+03 0.538004731811773D+02 0.216815851328970D+02 0.792518956881835D+02
 0.000000000000000D+00 0.000000000000000D+00 0.000000000000000D+00 0.000000000000000D+00
 0.978858511503442D+02 -.542482450788295D+02 -.525308587654084D+02 -.622838393057405D+02
 0.343099010327587D+03 0.000000000000000D+00 0.000000000000000D+00 0.343099010327587D+03
 0.186842723388483D+03 0.000000000000000D+00 0.000000000000000D+00 -.186842723388483D+03
 0.127641769317880D+03 -.146307916214592D+02 0.128625920300154D+02 -.169680563824430D+02
 0.119654685266455D+03 0.393611048443132D+02 0.445737670699765D+01 0.792518956881835D+02
 0.169313039218651D+03 0.418860391810187D+02 0.499643649332888D+02 0.156256286939104D+03
 0.113332239913084D+03 -.666163524038728D+02 -.672843336703019D+02 -.622838393057405D+02
0.167330551353D-05 0.000000000000D+00 0.000000000000D+00 0.154271496173D-06 0.000000000000D+00  6 21 -1 25 24 -2 21 2 0.34326530D-01 0.21685605D-01 0.23016022D+05 0.23016022D+05 0.23016022D+05 0.12271664D+01  1  2  2  1  6  1       21 0.331105176908D-02 0.100000000000D+01
-.192680169890D-06 0.883027579301D-07 -.337792173112D-08 0.154271496173D-06 0.000000000000D+00  6 21 -1 25 24 -2 21 4 0.34326530D-01 0.21685605D-01 0.23016022D+05 0.23016022D+05 0.23016022D+05 0.12271664D+01  1  2  3  1  6  1       21 -.574162325439D-03 0.100000000000D+01
0.180048086371D-06 0.000000000000D+00 0.000000000000D+00 0.154271496173D-06 0.000000000000D+00  6 21 -1 25 24 -2 21 4 0.34326530D-01 0.21685605D-01 0.23016022D+05 0.23016022D+05 0.23016022D+05 0.12271664D+01  1  2 15  1  6  1       21 0.536520328069D-03 0.100000000000D+01
0.601634104434D-05 0.000000000000D+00 0.000000000000D+00 0.149363416700D-06 0.000000000000D+00  6 21 -1 25 24 -2 21 4 0.66516221D-01 0.21685605D-01 0.35350919D+05 0.35350919D+05 0.35350919D+05 0.12074878D+01  1  2 12  1  6  1       21 0.425219592841D-02 0.100000000000D+01
0.588983339575D-05 0.000000000000D+00 0.000000000000D+00 0.149363416700D-06 0.000000000000D+00  6 21 -1 25 24 -2 21 4 0.67919008D-01 0.21685605D-01 0.35350919D+05 0.35350919D+05 0.35350919D+05 0.12074878D+01  1  2 12  1  6  1       21 0.397699931666D-02 0.100000000000D+01
-.152503990229D-04 0.000000000000D+00 -.229721312705D-05 0.154271496173D-06 0.000000000000D+00  6 21 -1 25 24 -2 21 4 0.68468959D-01 0.21685605D-01 0.23016022D+05 0.23016022D+05 0.23016022D+05 0.12271664D+01  1  2  5  1  6  1       21 -.109068444607D-01 0.100000000000D+01
0.787899110958D-05 0.000000000000D+00 0.102647654838D-05 0.154271496173D-06 0.000000000000D+00  6 21 -1 25 24 -2 21 4 0.34326530D-01 0.21685605D-01 0.23016022D+05 0.23016022D+05 0.23016022D+05 0.12271664D+01  1  2  6  1  6  1       21 0.234783883582D-01 0.100000000000D+01
0.141863880650D-05 0.000000000000D+00 0.000000000000D+00 0.149363416700D-06 0.000000000000D+00  6 -1 -1 25 24 -2 -1 4 0.66516221D-01 0.21685605D-01 0.35350919D+05 0.35350919D+05 0.35350919D+05 0.12074878D+01  1  2 12  4  6  1       21 0.106736056837D-03 0.100000000000D+01
0.143226535938D-05 0.000000000000D+00 0.000000000000D+00 0.149363416700D-06 0.000000000000D+00  6 -1 -1 25 24 -2 -1 4 0.67919008D-01 0.21685605D-01 0.35350919D+05 0.35350919D+05 0.35350919D+05 0.12074878D+01  1  2 12  4  6  1       21 0.103425275018D-03 0.100000000000D+01
-.347956832195D-05 0.000000000000D+00 -.565077657130D-06 0.154271496173D-06 0.000000000000D+00  6 -1 -1 25 24 -2 -1 4 0.68468959D-01 0.21685605D-01 0.23016022D+05 0.23016022D+05 0.23016022D+05 0.12271664D+01  1  2  5  4  6  1       21 -.263634238140D-03 0.100000000000D+01
0.141863880650D-05 0.000000000000D+00 0.000000000000D+00 0.149363416700D-06 0.000000000000D+00  6 1 -1 25 24 1 -2 4 0.66516221D-01 0.21685605D-01 0.35350919D+05 0.35350919D+05 0.35350919D+05 0.12074878D+01  3  4 12  5  5  1       21 0.291355710705D-03 0.100000000000D+01
0.143226535938D-05 0.000000000000D+00 0.000000000000D+00 0.149363416700D-06 0.000000000000D+00  6 1 -1 25 24 1 -2 4 0.67919008D-01 0.21685605D-01 0.35350919D+05 0.35350919D+05 0.35350919D+05 0.12074878D+01  3  4 12  5  5  1       21 0.286346724689D-03 0.100000000000D+01
-.347956832195D-05 0.000000000000D+00 -.565077657130D-06 0.154271496173D-06 0.000000000000D+00  6 1 -1 25 24 1 -2 4 0.68468959D-01 0.21685605D-01 0.23016022D+05 0.23016022D+05 0.23016022D+05 0.12271664D+01  3  4  5  5  5  1       21 -.733247111334D-03 0.100000000000D+01
0.141863880650D-05 0.000000000000D+00 0.000000000000D+00 0.149363416700D-06 0.000000000000D+00  6 -2 -1 25 24 -2 -2 4 0.66516221D-01 0.21685605D-01 0.35350919D+05 0.35350919D+05 0.35350919D+05 0.12074878D+01  1  2 12  6  6  1       21 0.838025980296D-04 0.100000000000D+01
0.143226535938D-05 0.000000000000D+00 0.000000000000D+00 0.149363416700D-06 0.000000000000D+00  6 -2 -1 25 24 -2 -2 4 0.67919008D-01 0.21685605D-01 0.35350919D+05 0.35350919D+05 0.35350919D+05 0.12074878D+01  1  2 12  6  6  1       21 0.809505700650D-04 0.100000000000D+01
-.347956832195D-05 0.000000000000D+00 -.565077657130D-06 0.154271496173D-06 0.000000000000D+00  6 -2 -1 25 24 -2 -2 4 0.68468959D-01 0.21685605D-01 0.23016022D+05 0.23016022D+05 0.23016022D+05 0.12271664D+01  1  2  5  6  6  1       21 -.205711192400D-03 0.100000000000D+01
0.141863880650D-05 0.000000000000D+00 0.000000000000D+00 0.149363416700D-06 0.000000000000D+00  6 2 -1 25 24 2 -2 4 0.66516221D-01 0.21685605D-01 0.35350919D+05 0.35350919D+05 0.35350919D+05 0.12074878D+01  3  4 12  7  5  1       21 0.441817455557D-03 0.100000000000D+01
0.143226535938D-05 0.000000000000D+00 0.000000000000D+00 0.149363416700D-06 0.000000000000D+00  6 2 -1 25 24 2 -2 4 0.67919008D-01 0.21685605D-01 0.35350919D+05 0.35350919D+05 0.35350919D+05 0.12074878D+01  3  4 12  7  5  1       21 0.436023874820D-03 0.100000000000D+01
-.347956832195D-05 0.000000000000D+00 -.565077657130D-06 0.154271496173D-06 0.000000000000D+00  6 2 -1 25 24 2 -2 4 0.68468959D-01 0.21685605D-01 0.23016022D+05 0.23016022D+05 0.23016022D+05 0.12271664D+01  3  4  5  7  5  1       21 -.111639445241D-02 0.100000000000D+01
0.141863880650D-05 0.000000000000D+00 0.000000000000D+00 0.149363416700D-06 0.000000000000D+00  6 -3 -1 25 24 -2 -3 4 0.66516221D-01 0.21685605D-01 0.35350919D+05 0.35350919D+05 0.35350919D+05 0.12074878D+01  1  2 12  8  6  1       21 0.528565011667D-04 0.100000000000D+01
0.141863880650D-05 0.000000000000D+00 0.000000000000D+00 0.149363416700D-06 0.000000000000D+00  6 -4 -1 25 24 -2 -4 4 0.66516221D-01 0.21685605D-01 0.35350919D+05 0.35350919D+05 0.35350919D+05 0.12074878D+01  1  2 12  8  6  1       21 0.431786107678D-04 0.100000000000D+01
0.143226535938D-05 0.000000000000D+00 0.000000000000D+00 0.149363416700D-06 0.000000000000D+00  6 -3 -1 25 24 -2 -3 4 0.67919008D-01 0.21685605D-01 0.35350919D+05 0.35350919D+05 0.35350919D+05 0.12074878D+01  1  2 12  8  6  1       21 0.510587980447D-04 0.100000000000D+01
0.143226535938D-05 0.000000000000D+00 0.000000000000D+00 0.149363416700D-06 0.000000000000D+00  6 -4 -1 25 24 -2 -4 4 0.67919008D-01 0.21685605D-01 0.35350919D+05 0.35350919D+05 0.35350919D+05 0.12074878D+01  1  2 12  8  6  1       21 0.416745941624D-04 0.100000000000D+01
-.347956832195D-05 0.000000000000D+00 -.565077657130D-06 0.154271496173D-06 0.000000000000D+00  6 -3 -1 25 24 -2 -3 4 0.68468959D-01 0.21685605D-01 0.23016022D+05 0.23016022D+05 0.23016022D+05 0.12271664D+01  1  2  5  8  6  1       21 -.128668128561D-03 0.100000000000D+01
-.347956832195D-05 0.000000000000D+00 -.565077657130D-06 0.154271496173D-06 0.000000000000D+00  6 -4 -1 25 24 -2 -4 4 0.68468959D-01 0.21685605D-01 0.23016022D+05 0.23016022D+05 0.23016022D+05 0.12271664D+01  1  2  5  8  6  1       21 -.104510364270D-03 0.100000000000D+01
0.141863880650D-05 0.000000000000D+00 0.000000000000D+00 0.149363416700D-06 0.000000000000D+00  6 3 -1 25 24 3 -2 4 0.66516221D-01 0.21685605D-01 0.35350919D+05 0.35350919D+05 0.35350919D+05 0.12074878D+01  3  4 12  9  5  1       21 0.529023142455D-04 0.100000000000D+01
0.141863880650D-05 0.000000000000D+00 0.000000000000D+00 0.149363416700D-06 0.000000000000D+00  6 4 -1 25 24 4 -2 4 0.66516221D-01 0.21685605D-01 0.35350919D+05 0.35350919D+05 0.35350919D+05 0.12074878D+01  3  4 12  9  5  1       21 0.431786107678D-04 0.100000000000D+01
0.143226535938D-05 0.000000000000D+00 0.000000000000D+00 0.149363416700D-06 0.000000000000D+00  6 3 -1 25 24 3 -2 4 0.67919008D-01 0.21685605D-01 0.35350919D+05 0.35350919D+05 0.35350919D+05 0.12074878D+01  3  4 12  9  5  1       21 0.511051625344D-04 0.100000000000D+01
0.143226535938D-05 0.000000000000D+00 0.000000000000D+00 0.149363416700D-06 0.000000000000D+00  6 4 -1 25 24 4 -2 4 0.67919008D-01 0.21685605D-01 0.35350919D+05 0.35350919D+05 0.35350919D+05 0.12074878D+01  3  4 12  9  5  1       21 0.416745941624D-04 0.100000000000D+01
-.347956832195D-05 0.000000000000D+00 -.565077657130D-06 0.154271496173D-06 0.000000000000D+00  6 3 -1 25 24 3 -2 4 0.68468959D-01 0.21685605D-01 0.23016022D+05 0.23016022D+05 0.23016022D+05 0.12271664D+01  3  4  5  9  5  1       21 -.128786185671D-03 0.100000000000D+01
-.347956832195D-05 0.000000000000D+00 -.565077657130D-06 0.154271496173D-06 0.000000000000D+00  6 4 -1 25 24 4 -2 4 0.68468959D-01 0.21685605D-01 0.23016022D+05 0.23016022D+05 0.23016022D+05 0.12271664D+01  3  4  5  9  5  1       21 -.104510364270D-03 0.100000000000D+01
  </mgrwgt>
  </event>
  <event>
  5     66 0.48358521E-03 0.10225235E+03 0.75467711E-02 0.99584199E-01
       21 -1    0    0  501  502 0.00000000E+00 0.00000000E+00 0.74002875E+02 0.74006676E+02 0.75000000E+00 0.0000E+00 0.9000E+01
       -1 -1    0    0    0  501 0.00000000E+00 0.00000000E+00 -.80236978E+03 0.80236984E+03 0.32000000E+00 0.0000E+00 0.9000E+01
       25  1    1    2    0    0 0.17893254E+02 -.94691221E+02 -.57435769E+03 0.59564952E+03 0.12500000E+03 0.0000E+00 0.9000E+01
       24  1    1    2    0    0 -.80168621E+02 0.13590715E+02 -.13464229E+03 0.17665638E+03 0.80419002E+02 0.0000E+00 0.9000E+01
       -2  1    1    2    0  502 0.62275367E+02 0.81100506E+02 -.19366928E+02 0.10407062E+03 0.32000000E+00 0.0000E+00 0.9000E+01
#aMCatNLO 1  0  0  1  5 0.71980877D+02 0.00000000D+00  -5  6  0 0.00000000D+00 0.00000000D+00 0.00000000D+00 0.00000000D+00 0.00000000D+00
  <mgrwgt>
 0.2558729375D-01   12    4    0
 0.243678813123751D+03 0.000000000000000D+00 0.000000000000000D+00 0.243678813123751D+03
 0.243678813123751D+03 0.000000000000000D+00 0.000000000000000D+00 -.243678813123751D+03
 0.212718881893191D+03 0.178931985197639D+02 -.946912932232347D+02 -.142610361293747D+03
 0.116441227877657D+03 -.801686518061373D+02 0.135906753454926D+02 0.219003289136385D+02
 0.158197516476655D+03 0.622754532863735D+02 0.811006178777421D+02 0.120710032380108D+03
 0.000000000000000D+00 -.000000000000000D+00 -.000000000000000D+00 0.000000000000000D+00
 0.639982312434619D+03 0.000000000000000D+00 0.000000000000000D+00 0.639982312434619D+03
 0.583459203714188D+03 0.000000000000000D+00 0.000000000000000D+00 -.583459203714188D+03
 0.244807816782633D+03 0.144579774268327D+03 0.553610050673363D+02 -.142610361293747D+03
 0.125539575916159D+03 -.131655249542021D+02 0.929516740731071D+02 0.219003289136385D+02
 0.337137074122308D+03 0.199430822173953D+03 0.243552544633729D+03 0.120710032380108D+03
 0.515957049327708D+03 -.330845071488078D+03 -.391865223774173D+03 0.565231087204312D+02
 0.243678813123751D+03 0.000000000000000D+00 0.000000000000000D+00 0.243678813123751D+03
 0.243678813123751D+03 0.000000000000000D+00 0.000000000000000D+00 -.243678813123751D+03
 0.212718881893191D+03 0.178931985197639D+02 -.946912932232347D+02 -.142610361293747D+03
 0.116441227877657D+03 -.801686518061373D+02 0.135906753454926D+02 0.219003289136385D+02
 0.000000000000000D+00 -.000000000000000D+00 -.000000000000000D+00 0.000000000000000D+00
 0.158197516476655D+03 0.622754532863735D+02 0.811006178777421D+02 0.120710032380108D+03
 0.639982312434619D+03 0.000000000000000D+00 0.000000000000000D+00 0.639982312434619D+03
 0.583459203714188D+03 0.000000000000000D+00 0.000000000000000D+00 -.583459203714188D+03
 0.244807816782633D+03 0.144579774268327D+03 0.553610050673363D+02 -.142610361293747D+03
 0.125539575916159D+03 -.131655249542021D+02 0.929516740731071D+02 0.219003289136385D+02
 0.515957049327708D+03 -.330845071488078D+03 -.391865223774173D+03 0.565231087204312D+02
 0.337137074122308D+03 0.199430822173953D+03 0.243552544633729D+03 0.120710032380108D+03
0.176608824277D-04 0.000000000000D+00 0.000000000000D+00 0.289624124909D-06 0.000000000000D+00  6 21 -1 25 24 -2 21 2 0.11385355D-01 0.12344180D+00 0.35053132D+05 0.35053132D+05 0.35053132D+05 0.12078663D+01  1  2  2  1  6  1       21 0.968537390185D-02 0.100000000000D+01
-.468604815297D-06 0.931990370698D-06 -.356522332957D-07 0.289624124909D-06 0.000000000000D+00  6 21 -1 25 24 -2 21 4 0.11385355D-01 0.12344180D+00 0.35053132D+05 0.35053132D+05 0.35053132D+05 0.12078663D+01  1  2  3  1  6  1       21 -.374928531784D-03 0.100000000000D+01
0.173406858755D-05 0.000000000000D+00 0.000000000000D+00 0.289624124909D-06 0.000000000000D+00  6 21 -1 25 24 -2 21 4 0.11385355D-01 0.12344180D+00 0.35053132D+05 0.35053132D+05 0.35053132D+05 0.12078663D+01  1  2 15  1  6  1       21 0.138742020637D-02 0.100000000000D+01
0.459932767507D-03 0.000000000000D+00 -.199708583892D-03 0.289624124909D-06 0.000000000000D+00  6 21 -1 25 24 -2 21 4 0.72401008D-01 0.12344180D+00 0.35053132D+05 0.35053132D+05 0.35053132D+05 0.12078663D+01  1  2  5  1  6  1       21 0.984373623397D-02 0.100000000000D+01
0.199403419750D-03 0.000000000000D+00 -.850000787045D-04 0.289624124909D-06 0.000000000000D+00  6 -1 -1 25 24 -2 -1 4 0.72401008D-01 0.12344180D+00 0.35053132D+05 0.35053132D+05 0.35053132D+05 0.12078663D+01  1  2  5  4  6  1       21 0.462603596911D-03 0.100000000000D+01
0.199403419750D-03 0.000000000000D+00 -.850000787045D-04 0.289624124909D-06 0.000000000000D+00  6 1 -1 25 24 1 -2 4 0.72401008D-01 0.12344180D+00 0.35053132D+05 0.35053132D+05 0.35053132D+05 0.12078663D+01  3  4  5  5  5  1       21 0.133866011145D-02 0.100000000000D+01
0.199403419750D-03 0.000000000000D+00 -.850000787045D-04 0.289624124909D-06 0.000000000000D+00  6 -2 -1 25 24 -2 -2 4 0.72401008D-01 0.12344180D+00 0.35053132D+05 0.35053132D+05 0.35053132D+05 0.12078663D+01  1  2  5  6  6  1       21 0.358663179870D-03 0.100000000000D+01
0.199403419750D-03 0.000000000000D+00 -.850000787045D-04 0.289624124909D-06 0.000000000000D+00  6 2 -1 25 24 2 -2 4 0.72401008D-01 0.12344180D+00 0.35053132D+05 0.35053132D+05 0.35053132D+05 0.12078663D+01  3  4  5  7  5  1       21 0.206468613237D-02 0.100000000000D+01
0.199403419750D-03 0.000000000000D+00 -.850000787045D-04 0.289624124909D-06 0.000000000000D+00  6 -3 -1 25 24 -2 -3 4 0.72401008D-01 0.12344180D+00 0.35053132D+05 0.35053132D+05 0.35053132D+05 0.12078663D+01  1  2  5  8  6  1       21 0.226250046950D-03 0.100000000000D+01
0.199403419750D-03 0.000000000000D+00 -.850000787045D-04 0.289624124909D-06 0.000000000000D+00  6 -4 -1 25 24 -2 -4 4 0.72401008D-01 0.12344180D+00 0.35053132D+05 0.35053132D+05 0.35053132D+05 0.12078663D+01  1  2  5  8  6  1       21 0.184171401863D-03 0.100000000000D+01
0.199403419750D-03 0.000000000000D+00 -.850000787045D-04 0.289624124909D-06 0.000000000000D+00  6 3 -1 25 24 3 -2 4 0.72401008D-01 0.12344180D+00 0.35053132D+05 0.35053132D+05 0.35053132D+05 0.12078663D+01  3  4  5  9  5  1       21 0.226486071144D-03 0.100000000000D+01
0.199403419750D-03 0.000000000000D+00 -.850000787045D-04 0.289624124909D-06 0.000000000000D+00  6 4 -1 25 24 4 -2 4 0.72401008D-01 0.12344180D+00 0.35053132D+05 0.35053132D+05 0.35053132D+05 0.12078663D+01  3  4  5  9  5  1       21 0.184171401863D-03 0.100000000000D+01
  </mgrwgt>
  </event>
  <event>
  5     66 0.48358521E-03 0.35721942E+02 0.75467711E-02 0.11281555E+00
       21 -1    0    0  501  502 0.00000000E+00 0.00000000E+00 0.96065069E+02 0.96067997E+02 0.75000000E+00 0.0000E+00 0.9000E+01
       -3 -1    0    0    0  501 0.00000000E+00 0.00000000E+00 -.45307263E+03 0.45307290E+03 0.50000000E+00 0.0000E+00 0.9000E+01
       25  1    1    2    0    0 -.23462795E+02 -.10491760E+03 -.30110328E+03 0.34328762E+03 0.12500000E+03 0.0000E+00 0.9000E+01
       24  1    1    2    0    0 -.71374205E+01 0.12329350E+03 -.10041540E+02 0.14771689E+03 0.80419002E+02 0.0000E+00 0.9000E+01
       -4  1    1    2    0  502 0.30600216E+02 -.18375904E+02 -.45862741E+02 0.58136396E+02 0.15500000E+01 0.0000E+00 0.9000E+01
#aMCatNLO 1  0  0  1  1 0.94899974D+02 0.00000000D+00  -5  6  0 0.00000000D+00 0.00000000D+00 0.00000000D+00 0.00000000D+00 0.00000000D+00
  <mgrwgt>
 0.3455935924D-01    4    2    0
 0.208627258571345D+03 0.000000000000000D+00 0.000000000000000D+00 0.208627258571345D+03
 0.208627258571345D+03 0.000000000000000D+00 0.000000000000000D+00 -.208627258571345D+03
 0.194162392678035D+03 -.234751249386690D+02 -.104910192539027D+03 -.102551473616900D+03
 0.185823440750320D+03 -.714922027207493D+01 0.123300587130471D+03 0.113176804340376D+03
 0.372686837143345D+02 0.306243452107439D+02 -.183903945914446D+02 -.106253307234763D+02
 0.000000000000000D+00 0.000000000000000D+00 0.000000000000000D+00 -.000000000000000D+00
 0.243817943625669D+03 0.000000000000000D+00 0.000000000000000D+00 0.243817943625669D+03
 0.289350245941848D+03 0.000000000000000D+00 0.000000000000000D+00 -.289350245941848D+03
 0.210130599902215D+03 -.674943605945931D+02 -.116006791017570D+03 -.102551473616900D+03
 0.185290846691848D+03 -.475559737256473D+02 0.113114642004106D+03 0.113176804340376D+03
 0.324889846889806D+02 0.230291622602410D+02 -.203050279174657D+02 -.106253307234763D+02
 0.105257758284474D+03 0.920211720599994D+02 0.231971769309292D+02 -.455323023161792D+02
0.516070285715D-04 0.000000000000D+00 0.000000000000D+00 0.120383558354D-06 0.000000000000D+00  6 21 -3 25 24 -4 21 2 0.14779488D-01 0.69703728D-01 0.30271472D+05 0.30271472D+05 0.30271472D+05 0.12144880D+01  1  2  2  1  6  1       21 0.303518255544D-01 0.100000000000D+01
0.890040450889D-07 0.272337771829D-05 -.104179722042D-06 0.120383558354D-06 0.000000000000D+00  6 21 -3 25 24 -4 21 4 0.14779488D-01 0.69703728D-01 0.30271472D+05 0.30271472D+05 0.30271472D+05 0.12144880D+01  1  2  3  1  6  1       21 0.772097539477D-04 0.100000000000D+01
0.548527707181D-05 0.000000000000D+00 0.000000000000D+00 0.120383558354D-06 0.000000000000D+00  6 21 -3 25 24 -4 21 4 0.14779488D-01 0.69703728D-01 0.30271472D+05 0.30271472D+05 0.30271472D+05 0.12144880D+01  1  2 15  1  6  1       21 0.475840050446D-02 0.100000000000D+01
-.724019351465D-06 0.000000000000D+00 0.000000000000D+00 0.120383558354D-06 0.000000000000D+00  6 21 -3 25 24 -4 21 4 0.14779488D-01 0.69703728D-01 0.30271472D+05 0.30271472D+05 0.30271472D+05 0.12144880D+01  1  2  4  1  6  1       21 -.628076577016D-03 0.100000000000D+01
  </mgrwgt>
  </event>
  <event>
  5     66 0.48358521E-03 0.63606790E+02 0.75467711E-02 0.11031492E+00
       21 -1    0    0  501  502 0.00000000E+00 0.00000000E+00 0.37520349E+03 0.37520424E+03 0.75000000E+00 0.0000E+00 0.9000E+01
       -3 -1    0    0    0  501 0.00000000E+00 0.00000000E+00 -.21828508E+03 0.21828565E+03 0.50000000E+00 0.0000E+00 0.9000E+01
       25  1    1    2    0    0 0.20921896E+03 0.11287690E+02 -.35892488E+02 0.24660344E+03 0.12500000E+03 0.0000E+00 0.9000E+01
       24  1    1    2    0    0 -.16720920E+03 -.59040975E+02 0.67018880E+02 0.20592110E+03 0.80419002E+02 0.0000E+00 0.9000E+01
       -4  1    1    2    0  502 -.42009764E+02 0.47753285E+02 0.12579201E+03 0.14096535E+03 0.15500000E+01 0.0000E+00 0.9000E+01
#aMCatNLO 1  0  0  1  2 0.28567786D+02 0.00000000D+00  -5  6  0 0.00000000D+00 0.00000000D+00 0.00000000D+00 0.00000000D+00 0.00000000D+00
  <mgrwgt>
 0.4893843046D-01   23    4    0
 0.286184759177117D+03 0.000000000000000D+00 0.000000000000000D+00 0.286184759177117D+03
 0.286184759177117D+03 0.000000000000000D+00 0.000000000000000D+00 -.286184759177117D+03
 0.265546222712728D+03 0.209220841732628D+03 0.112855560313204D+02 -.104828774707866D+03
 0.195145045517661D+03 -.167207820871009D+03 -.590425437042834D+02 0.130343971174617D+02
 0.111678250123845D+03 -.420130208616185D+02 0.477569876729630D+02 0.917943775904043D+02
 0.000000000000000D+00 0.000000000000000D+00 -.000000000000000D+00 0.000000000000000D+00
 0.307493485129014D+03 0.000000000000000D+00 0.000000000000000D+00 0.307493485129014D+03
 0.296278731303548D+03 0.000000000000000D+00 0.000000000000000D+00 -.296278731303548D+03
 0.264802450822941D+03 0.207155326997721D+03 0.243502864778054D+02 -.104828774707866D+03
 0.193780454364150D+03 -.168722543902994D+03 -.494616640428986D+02 0.130343971174617D+02
 0.114499099366256D+03 -.428938991807054D+02 0.533286921980048D+02 0.917943775904043D+02
 0.306902118792149D+02 0.446111608597881D+01 -.282173146329116D+02 0.112147538254658D+02
 0.286184759177117D+03 0.000000000000000D+00 0.000000000000000D+00 0.286184759177117D+03
 0.286184759177117D+03 0.000000000000000D+00 0.000000000000000D+00 -.286184759177117D+03
 0.265546222712728D+03 0.209220841732628D+03 0.112855560313204D+02 -.104828774707866D+03
 0.195145045517661D+03 -.167207820871009D+03 -.590425437042834D+02 0.130343971174617D+02
 0.000000000000000D+00 0.000000000000000D+00 -.000000000000000D+00 0.000000000000000D+00
 0.111678250123845D+03 -.420130208616185D+02 0.477569876729630D+02 0.917943775904043D+02
 0.307493485129014D+03 0.000000000000000D+00 0.000000000000000D+00 0.307493485129014D+03
 0.296278731303548D+03 0.000000000000000D+00 0.000000000000000D+00 -.296278731303548D+03
 0.264802450822941D+03 0.207155326997721D+03 0.243502864778054D+02 -.104828774707866D+03
 0.193780454364150D+03 -.168722543902994D+03 -.494616640428986D+02 0.130343971174617D+02
 0.306902118792149D+02 0.446111608597881D+01 -.282173146329116D+02 0.112147538254658D+02
 0.114499099366256D+03 -.428938991807054D+02 0.533286921980048D+02 0.917943775904043D+02
0.422994551526D-04 0.000000000000D+00 0.000000000000D+00 0.223658854085D-06 0.000000000000D+00  6 21 -3 25 24 -4 21 2 0.57723715D-01 0.33582422D-01 0.63075063D+05 0.63075063D+05 0.63075063D+05 0.11824176D+01  1  2  2  1  6  1       21 0.708725798497D-02 0.100000000000D+01
0.209610784722D-05 0.223220357474D-05 -.853904129399D-07 0.223658854085D-06 0.000000000000D+00  6 21 -3 25 24 -4 21 4 0.57723715D-01 0.33582422D-01 0.63075063D+05 0.63075063D+05 0.63075063D+05 0.11824176D+01  1  2  3  1  6  1       21 0.491019670378D-03 0.100000000000D+01
0.437818675681D-05 0.000000000000D+00 0.000000000000D+00 0.223658854085D-06 0.000000000000D+00  6 21 -3 25 24 -4 21 4 0.57723715D-01 0.33582422D-01 0.63075063D+05 0.63075063D+05 0.63075063D+05 0.11824176D+01  1  2 15  1  6  1       21 0.102560363057D-02 0.100000000000D+01
0.120265087832D-03 0.000000000000D+00 0.000000000000D+00 0.221762655897D-06 0.000000000000D+00  6 21 -3 25 24 -4 21 4 0.62982384D-01 0.33582422D-01 0.71160135D+05 0.71160135D+05 0.71160135D+05 0.11773947D+01  1  2 12  1  6  1       21 0.228926537443D-01 0.100000000000D+01
-.514831658205D-04 0.000000000000D+00 0.000000000000D+00 0.223658854085D-06 0.000000000000D+00  6 21 -3 25 24 -4 21 4 0.57723715D-01 0.33582422D-01 0.63075063D+05 0.63075063D+05 0.63075063D+05 0.11824176D+01  1  2  4  1  6  1       21 -.120600889619D-01 0.100000000000D+01
-.694196794815D-03 0.000000000000D+00 -.134440360085D-03 0.223658854085D-06 0.000000000000D+00  6 21 -3 25 24 -4 21 4 0.63841720D-01 0.33582422D-01 0.63075063D+05 0.63075063D+05 0.63075063D+05 0.11824176D+01  1  2  5  1  6  1       21 -.130737754974D+00 0.100000000000D+01
0.694667660262D-03 0.000000000000D+00 0.131750419601D-03 0.223658854085D-06 0.000000000000D+00  6 21 -3 25 24 -4 21 4 0.57723715D-01 0.33582422D-01 0.63075063D+05 0.63075063D+05 0.63075063D+05 0.11824176D+01  1  2  6  1  6  1       21 0.162728022805D+00 0.100000000000D+01
0.263480651593D-05 0.000000000000D+00 0.000000000000D+00 0.221762655897D-06 0.000000000000D+00  6 -3 -3 25 24 -4 -3 4 0.62982384D-01 0.33582422D-01 0.71160135D+05 0.71160135D+05 0.71160135D+05 0.11773947D+01  1  2 12  4  6  1       21 0.272718084191D-04 0.100000000000D+01
-.146134872957D-04 0.000000000000D+00 -.346350213804D-05 0.223658854085D-06 0.000000000000D+00  6 -3 -3 25 24 -4 -3 4 0.63841720D-01 0.33582422D-01 0.63075063D+05 0.63075063D+05 0.63075063D+05 0.11824176D+01  1  2  5  4  6  1       21 -.148925182059D-03 0.100000000000D+01
0.263480651593D-05 0.000000000000D+00 0.000000000000D+00 0.221762655897D-06 0.000000000000D+00  6 3 -3 25 24 3 -4 4 0.62982384D-01 0.33582422D-01 0.71160135D+05 0.71160135D+05 0.71160135D+05 0.11773947D+01  3  4 12  5  5  1       21 0.272929894047D-04 0.100000000000D+01
-.146134872957D-04 0.000000000000D+00 -.346350213804D-05 0.223658854085D-06 0.000000000000D+00  6 3 -3 25 24 3 -4 4 0.63841720D-01 0.33582422D-01 0.63075063D+05 0.63075063D+05 0.63075063D+05 0.11824176D+01  3  4  5  5  5  1       21 -.149044177836D-03 0.100000000000D+01
0.263480651593D-05 0.000000000000D+00 0.000000000000D+00 0.221762655897D-06 0.000000000000D+00  6 -4 -3 25 24 -4 -4 4 0.62982384D-01 0.33582422D-01 0.71160135D+05 0.71160135D+05 0.71160135D+05 0.11773947D+01  1  2 12  6  6  1       21 0.224756969245D-04 0.100000000000D+01
-.146134872957D-04 0.000000000000D+00 -.346350213804D-05 0.223658854085D-06 0.000000000000D+00  6 -4 -3 25 24 -4 -4 4 0.63841720D-01 0.33582422D-01 0.63075063D+05 0.63075063D+05 0.63075063D+05 0.11824176D+01  1  2  5  6  6  1       21 -.122534212645D-03 0.100000000000D+01
0.263480651593D-05 0.000000000000D+00 0.000000000000D+00 0.221762655897D-06 0.000000000000D+00  6 4 -3 25 24 4 -4 4 0.62982384D-01 0.33582422D-01 0.71160135D+05 0.71160135D+05 0.71160135D+05 0.11773947D+01  3  4 12  7  5  1       21 0.224756969245D-04 0.100000000000D+01
-.146134872957D-04 0.000000000000D+00 -.346350213804D-05 0.223658854085D-06 0.000000000000D+00  6 4 -3 25 24 4 -4 4 0.63841720D-01 0.33582422D-01 0.63075063D+05 0.63075063D+05 0.63075063D+05 0.11824176D+01  3  4  5  7  5  1       21 -.122534212645D-03 0.100000000000D+01
0.263480651593D-05 0.000000000000D+00 0.000000000000D+00 0.221762655897D-06 0.000000000000D+00  6 -1 -3 25 24 -4 -1 4 0.62982384D-01 0.33582422D-01 0.71160135D+05 0.71160135D+05 0.71160135D+05 0.11773947D+01  1  2 12  8  6  1       21 0.537913350213D-04 0.100000000000D+01
0.263480651593D-05 0.000000000000D+00 0.000000000000D+00 0.221762655897D-06 0.000000000000D+00  6 -2 -3 25 24 -4 -2 4 0.62982384D-01 0.33582422D-01 0.71160135D+05 0.71160135D+05 0.71160135D+05 0.11773947D+01  1  2 12  8  6  1       21 0.426910293813D-04 0.100000000000D+01
-.146134872957D-04 0.000000000000D+00 -.346350213804D-05 0.223658854085D-06 0.000000000000D+00  6 -1 -3 25 24 -4 -1 4 0.63841720D-01 0.33582422D-01 0.63075063D+05 0.63075063D+05 0.63075063D+05 0.11824176D+01  1  2  5  8  6  1       21 -.295095707557D-03 0.100000000000D+01
-.146134872957D-04 0.000000000000D+00 -.346350213804D-05 0.223658854085D-06 0.000000000000D+00  6 -2 -3 25 24 -4 -2 4 0.63841720D-01 0.33582422D-01 0.63075063D+05 0.63075063D+05 0.63075063D+05 0.11824176D+01  1  2  5  8  6  1       21 -.233630687526D-03 0.100000000000D+01
0.263480651593D-05 0.000000000000D+00 0.000000000000D+00 0.221762655897D-06 0.000000000000D+00  6 1 -3 25 24 1 -4 4 0.62982384D-01 0.33582422D-01 0.71160135D+05 0.71160135D+05 0.71160135D+05 0.11773947D+01  3  4 12  9  5  1       21 0.141797842817D-03 0.100000000000D+01
0.263480651593D-05 0.000000000000D+00 0.000000000000D+00 0.221762655897D-06 0.000000000000D+00  6 2 -3 25 24 2 -4 4 0.62982384D-01 0.33582422D-01 0.71160135D+05 0.71160135D+05 0.71160135D+05 0.11773947D+01  3  4 12  9  5  1       21 0.213283555741D-03 0.100000000000D+01
-.146134872957D-04 0.000000000000D+00 -.346350213804D-05 0.223658854085D-06 0.000000000000D+00  6 1 -3 25 24 1 -4 4 0.63841720D-01 0.33582422D-01 0.63075063D+05 0.63075063D+05 0.63075063D+05 0.11824176D+01  3  4  5  9  5  1       21 -.784690132505D-03 0.100000000000D+01
-.146134872957D-04 0.000000000000D+00 -.346350213804D-05 0.223658854085D-06 0.000000000000D+00  6 2 -3 25 24 2 -4 4 0.63841720D-01 0.33582422D-01 0.63075063D+05 0.63075063D+05 0.63075063D+05 0.11824176D+01  3  4  5  9  5  1       21 -.118290907830D-02 0.100000000000D+01
  </mgrwgt>
  </event>
  <event>
  5     66 0.48358521E-03 0.26768857E+02 0.75467711E-02 0.11070765E+00
       21 -1    0    0  501  502 0.00000000E+00 0.00000000E+00 0.22264083E+03 0.22264210E+03 0.75000000E+00 0.0000E+00 0.9000E+01
       -3 -1    0    0    0  501 0.00000000E+00 0.00000000E+00 -.23601722E+03 0.23601775E+03 0.50000000E+00 0.0000E+00 0.9000E+01
       25  1    1    2    0    0 -.70871488E+02 -.30038636E+02 -.10868188E+03 0.18265223E+03 0.12500000E+03 0.0000E+00 0.9000E+01
       24  1    1    2    0    0 0.71209907E+02 0.56804388E+02 -.47679595E+02 0.13053026E+03 0.80419002E+02 0.0000E+00 0.9000E+01
       -4  1    1    2    0  502 -.33841887E+00 -.26765752E+02 0.14298509E+03 0.14547735E+03 0.15500000E+01 0.0000E+00 0.9000E+01
#aMCatNLO 1  0  0  1  2 0.93194306D+01 0.00000000D+00  -5  6  0 0.00000000D+00 0.00000000D+00 0.00000000D+00 0.00000000D+00 0.00000000D+00
  <mgrwgt>
 0.4683808709D-01    3    2    0
 0.229232373873412D+03 0.000000000000000D+00 0.000000000000000D+00 0.229232373873412D+03
 0.229232373873412D+03 0.000000000000000D+00 0.000000000000000D+00 -.229232373873412D+03
 0.179560690735432D+03 -.708714808394604D+02 -.300380745533906D+02 -.103402074148115D+03
 0.129195621209607D+03 0.712099119302171D+02 0.568047924237611D+02 -.438936964261358D+02
 0.149708435801786D+03 -.338431090756629D+00 -.267667178703705D+02 0.147295770574251D+03
 0.000000000000000D+00 0.000000000000000D+00 -.000000000000000D+00 -.000000000000000D+00
 0.327917371065086D+03 0.000000000000000D+00 0.000000000000000D+00 0.327917371065086D+03
 0.347811247807183D+03 0.000000000000000D+00 0.000000000000000D+00 -.347811247807183D+03
 0.191236885599810D+03 -.943880206155988D+02 0.366804994520476D+02 -.103402074148115D+03
 0.150796367143761D+03 0.534523990678380D+02 0.107184480393983D+03 -.438936964261358D+02
 0.151066570429468D+03 -.194140341937031D+02 0.273525126557834D+02 0.147295770574251D+03
 0.182628795699232D+03 0.603496557414640D+02 -.171217492501814D+03 -.198938767420972D+02
0.681131348812D-04 0.000000000000D+00 0.000000000000D+00 0.548714753249D-05 0.000000000000D+00  6 21 -3 25 24 -4 21 2 0.34252574D-01 0.36310479D-01 0.21767893D+05 0.21767893D+05 0.21767893D+05 0.12297966D+01  1  2  2  1  6  1       21 0.311220249493D-01 0.100000000000D+01
0.160145326717D-04 0.359442887904D-05 -.137500795061D-06 0.548714753249D-05 0.000000000000D+00  6 21 -3 25 24 -4 21 4 0.34252574D-01 0.36310479D-01 0.21767893D+05 0.21767893D+05 0.21767893D+05 0.12297966D+01  1  2  3  1  6  1       21 0.110666924521D-01 0.100000000000D+01
0.672807011466D-05 0.000000000000D+00 0.000000000000D+00 0.548714753249D-05 0.000000000000D+00  6 21 -3 25 24 -4 21 4 0.34252574D-01 0.36310479D-01 0.21767893D+05 0.21767893D+05 0.21767893D+05 0.12297966D+01  1  2 15  1  6  1       21 0.464936968701D-02 0.100000000000D+01
  </mgrwgt>
  </event>
  <event>
  5     66 0.48358521E-03 0.15309174E+03 0.75467711E-02 0.11090904E+00
       21 -1    0    0  501  502 0.00000000E+00 0.00000000E+00 0.19242137E+03 0.19242284E+03 0.75000000E+00 0.0000E+00 0.9000E+01
       -3 -1    0    0    0  501 -.00000000E+00 -.00000000E+00 -.63054529E+03 0.63054549E+03 0.50000000E+00 0.0000E+00 0.9000E+01
       25  1    1    2    0    0 0.87162282E+02 0.19209624E+03 0.24431513E+02 0.24641455E+03 0.12500000E+03 0.0000E+00 0.9000E+01
       24  1    1    2    0    0 0.19456590E+02 -.58689868E+02 -.21647592E+02 0.10372509E+03 0.80419002E+02 0.0000E+00 0.9000E+01
       -4  1    1    2    0  502 -.10661887E+03 -.13340638E+03 -.44090784E+03 0.47282869E+03 0.15500000E+01 0.0000E+00 0.9000E+01
#aMCatNLO 1  0  0  5  1 0.31974676D+02 0.00000000D+00  -5  6  0 0.00000000D+00 0.00000000D+00 0.00000000D+00 0.00000000D+00 0.00000000D+00
  <mgrwgt>
 0.2764667203D-02    7    2    0
 0.348326101942680D+03 0.000000000000000D+00 0.000000000000000D+00 0.348326101942680D+03
 0.348326101942680D+03 -.000000000000000D+00 -.000000000000000D+00 -.348326101942680D+03
 0.306460740859178D+03 0.871629940264081D+02 0.192097135070029D+03 0.183832774167708D+03
 0.108918309299024D+03 0.194568431661020D+02 -.586895511496773D+02 0.396604335080490D+02
 0.281273153727159D+03 -.106619837192510D+03 -.133407583920351D+03 -.223493207675757D+03
 0.000000000000000D+00 0.000000000000000D+00 0.000000000000000D+00 -.000000000000000D+00
 0.348326101942680D+03 0.000000000000000D+00 0.000000000000000D+00 0.348326101942680D+03
 0.348326101942680D+03 -.000000000000000D+00 -.000000000000000D+00 -.348326101942680D+03
 0.303589474813154D+03 0.859269668688033D+02 0.190550561739043D+03 0.181241852238906D+03
 0.108806380075287D+03 0.190157095970381D+02 -.592415175115158D+02 0.387357429536494D+02
 0.159700112714486D+03 -.718248347322125D+02 -.964630943807887D+02 -.105072311001486D+03
 0.124556236282433D+03 -.331178417336289D+02 -.348459498467383D+02 -.114905284191069D+03
0.106619965928D-04 0.000000000000D+00 0.000000000000D+00 0.569573727263D-07 0.000000000000D+00  6 21 -3 25 24 -4 21 2 0.29603416D-01 0.97007095D-01 0.66931103D+05 0.66931103D+05 0.66931103D+05 0.11799381D+01  1  2  2  3  6  5       -4 0.770356824305D-03 0.100000000000D+01
-.139910214171D-05 0.562649018109D-06 -.215234992634D-07 0.569573727263D-07 0.000000000000D+00  6 21 -3 25 24 -4 21 4 0.29603416D-01 0.97007095D-01 0.66931103D+05 0.66931103D+05 0.66931103D+05 0.11799381D+01  1  2  3  3  6  5       -4 -.140741205941D-03 0.100000000000D+01
0.125185845730D-05 0.000000000000D+00 0.000000000000D+00 0.569573727263D-07 0.000000000000D+00  6 21 -3 25 24 -4 21 4 0.29603416D-01 0.97007095D-01 0.66931103D+05 0.66931103D+05 0.66931103D+05 0.11799381D+01  1  2 15  3  6  5       -4 0.125929382635D-03 0.100000000000D+01
0.313699158872D-04 0.000000000000D+00 0.000000000000D+00 0.570175186161D-07 0.000000000000D+00  6 21 -3 25 24 -4 21 4 0.29603416D-01 0.97007095D-01 0.65938500D+05 0.65938500D+05 0.65938500D+05 0.11805609D+01  1  2 12  3  6  5       -4 0.316315768043D-02 0.100000000000D+01
-.273422000756D-04 0.000000000000D+00 0.000000000000D+00 0.569573727263D-07 0.000000000000D+00  6 21 -3 25 24 -4 21 4 0.29603416D-01 0.97007095D-01 0.66931103D+05 0.66931103D+05 0.66931103D+05 0.11799381D+01  1  2  4  3  6  5       -4 -.275045981063D-02 0.100000000000D+01
-.301592035938D-04 0.000000000000D+00 0.000000000000D+00 0.569573727263D-07 0.000000000000D+00  6 21 -3 25 24 -4 21 4 0.29603416D-01 0.97007095D-01 0.66931103D+05 0.66931103D+05 0.66931103D+05 0.11799381D+01  1  2  5  3  6  5       -4 -.303383331172D-02 0.100000000000D+01
0.460291877104D-04 0.000000000000D+00 -.000000000000D+00 0.569573727263D-07 0.000000000000D+00  6 21 -3 25 24 -4 21 4 0.29603416D-01 0.97007095D-01 0.66931103D+05 0.66931103D+05 0.66931103D+05 0.11799381D+01  1  2  6  3  6  5       -4 0.463025764435D-02 0.100000000000D+01
  </mgrwgt>
  </event>
  <event>
  6     66 0.48358521E-03 0.19243947E+02 0.75467711E-02 0.12322141E+00
       21 -1    0    0  501  502 0.00000000E+00 0.00000000E+00 0.22666823E+02 0.22679228E+02 0.75000000E+00 0.0000E+00 0.9000E+01
       -1 -1    0    0    0  501 -.00000000E+00 -.00000000E+00 -.73974240E+03 0.73974247E+03 0.32000000E+00 0.0000E+00 0.9000E+01
       25  1    1    2    0    0 -.49005969E+02 0.13796791E+02 -.34160241E+03 0.36729980E+03 0.12500000E+03 0.0000E+00 0.9000E+01
       24  1    1    2    0    0 0.34554775E+02 -.32070403E+02 -.32443271E+03 0.33755939E+03 0.80419002E+02 0.0000E+00 0.9000E+01
       -2  1    1    2    0  503 0.15828214E+02 0.14478478E+02 -.47577999E+02 0.52191255E+02 0.32000000E+00 0.0000E+00 0.9000E+01
       21  1    1    2  503  502 -.13770209E+01 0.37951346E+01 -.34624595E+01 0.53712530E+01 0.75000000E+00 0.0000E+00 0.9000E+01
#aMCatNLO 2  0  0  5  1 0.51144633D+01 0.00000000D+00  -5  6  0 0.00000000D+00 0.00000000D+00 0.00000000D+00 0.00000000D+00 0.00000000D+00
  <mgrwgt>
 0.1422192582D+00    3    2    0
 0.129508167203779D+03 0.000000000000000D+00 0.000000000000000D+00 0.129508167203779D+03
 0.129508167203779D+03 -.000000000000000D+00 -.000000000000000D+00 -.129508167203779D+03
 0.135625931416780D+03 -.499530647977333D+02 0.125991823858288D+02 0.107398879505883D+02
 0.955764710423749D+02 0.338873922214951D+02 -.329143129614368D+02 -.208791406251921D+02
 0.278139319484023D+02 0.160656725762382D+02 0.203151305756079D+02 0.101392526746038D+02
 0.000000000000000D+00 0.000000000000000D+00 0.000000000000000D+00 0.000000000000000D+00
 0.129508167203779D+03 0.000000000000000D+00 0.000000000000000D+00 0.129508167203779D+03
 0.129508167203779D+03 -.000000000000000D+00 -.000000000000000D+00 -.129508167203779D+03
 0.135442299065220D+03 -.489882995553585D+02 0.138191332954871D+02 0.113487637083690D+02
 0.954348805326247D+02 0.345672251645550D+02 -.320546604979422D+02 -.204500893076395D+02
 0.217542588629574D+02 0.158242459241810D+02 0.143041462163395D+02 0.426994386721666D+01
 0.638489594675560D+01 -.140317153337757D+01 0.393138098611565D+01 0.483138173205381D+01
-.526786993109D-05 0.000000000000D+00 0.000000000000D+00 0.947544347004D-06 0.000000000000D+00  6 21 -1 25 24 -2 21 4 0.34881631D-02 0.11380748D+00 0.16089585D+05 0.16089585D+05 0.16089585D+05 0.12443657D+01  1  2 13  3  6  5       -2 -.435925416577D-01 0.100000000000D+01
-.240079045195D-04 0.000000000000D+00 0.000000000000D+00 0.947145119572D-06 0.000000000000D+00  6 21 -1 25 24 -2 21 4 0.34881631D-02 0.11380748D+00 0.16175777D+05 0.16175777D+05 0.16175777D+05 0.12441035D+01  1  2  8  3  6  5       -2 -.198515659995D+00 0.100000000000D+01
0.464434279884D-04 0.000000000000D+00 0.000000000000D+00 0.947145119572D-06 0.110566761136D-05  6 21 -1 25 24 -2 21 4 0.34881631D-02 0.11380748D+00 0.16089585D+05 0.16089585D+05 0.16089585D+05 0.12443657D+01  1  2  1  3  6  5       -2 0.384327459826D+00 0.100000000000D+01
  </mgrwgt>
  </event>
  <event>
  6     66 0.48358521E-03 0.17744373E+02 0.75467711E-02 0.12326006E+00
       21 -1    0    0  503  502 0.00000000E+00 0.00000000E+00 0.20905551E+03 0.20905685E+03 0.75000000E+00 0.0000E+00 0.9000E+01
       -1 -1    0    0    0  501 0.00000000E+00 0.00000000E+00 -.19891423E+03 0.19891448E+03 0.32000000E+00 0.0000E+00 0.9000E+01
       25  1    1    2    0    0 -.23731301E+01 -.11176813E+02 -.23507075E+02 0.12770331E+03 0.12500000E+03 0.0000E+00 0.9000E+01
       24  1    1    2    0    0 0.16665341E+02 -.13506195E+02 -.10539334E+03 0.13429491E+03 0.80419002E+02 0.0000E+00 0.9000E+01
       -2  1    1    2    0  502 0.10322599E+02 0.14492447E+02 0.55585195E+02 0.58364402E+02 0.32000000E+00 0.0000E+00 0.9000E+01
       21  1    1    2  503  501 -.24614809E+02 0.10190562E+02 0.83456503E+02 0.87608714E+02 0.75000000E+00 0.0000E+00 0.9000E+01
#aMCatNLO 2  0  0  1  2 0.29118628D+02 0.00000000D+00  -5  6  0 0.00000000D+00 0.00000000D+00 0.00000000D+00 0.00000000D+00 0.00000000D+00
  <mgrwgt>
 0.1098181851D-01    1    2    0
 0.155360349324017D+03 0.000000000000000D+00 0.000000000000000D+00 0.155360349324017D+03
 0.155360349324017D+03 0.000000000000000D+00 0.000000000000000D+00 -.155360349324017D+03
 0.125940933903452D+03 -.123205571172187D+02 -.705863921031856D+01 0.587352681899934D+01
 0.111831422362271D+03 0.776915699436076D+01 -.982322911173937D+01 -.766954721128520D+02
 0.729483423823126D+02 0.455140012285791D+01 0.168818683220579D+02 0.708219452938526D+02
 0.000000000000000D+00 -.000000000000000D+00 0.000000000000000D+00 0.000000000000000D+00
 0.263900444112614D+03 0.000000000000000D+00 0.000000000000000D+00 0.263900444112614D+03
 0.157573707446868D+03 0.000000000000000D+00 0.000000000000000D+00 -.157573707446868D+03
 0.125658476717610D+03 -.237314843304155D+01 -.111768788224307D+02 0.587352681899934D+01
 0.113179344190718D+03 0.166653386178291D+02 -.135062594085229D+02 -.766954721128520D+02
 0.730228674618122D+02 0.103226190492417D+02 0.144925764826052D+02 0.708219452938526D+02
 0.109613463189342D+03 -.246148092340293D+02 0.101905617483484D+02 0.106326736665745D+03
0.540550029296D-05 0.000000000000D+00 0.000000000000D+00 0.520311302704D-05 0.115869567543D-06  6 21 -1 25 24 -2 21 4 0.32162250D-01 0.30602065D-01 0.16025767D+05 0.16025767D+05 0.16025767D+05 0.12445608D+01  1  2  1  1  6  1       21 0.109818185084D-01 0.100000000000D+01
  </mgrwgt>
  </event>
  <event>
  5     66 0.48358521E-03 0.20642658E+03 0.75467711E-02 0.11082265E+00
       21 -1    0    0  501  502 0.00000000E+00 0.00000000E+00 0.16419363E+03 0.16419534E+03 0.75000000E+00 0.0000E+00 0.9000E+01
       -3 -1    0    0    0  501 -.00000000E+00 -.00000000E+00 -.69303504E+03 0.69303522E+03 0.50000000E+00 0.0000E+00 0.9000E+01
       25  1    1    2    0    0 -.13177215E+03 -.41602164E+02 -.11475051E+03 0.21883172E+03 0.12500000E+03 0.0000E+00 0.9000E+01
       24  1    1    2    0    0 -.61619620E+02 -.30582882E+02 -.41875041E+03 0.43191598E+03 0.80419002E+02 0.0000E+00 0.9000E+01
       -4  1    1    2    0  502 0.19339177E+03 0.72185046E+02 0.46595229E+01 0.20648286E+03 0.15500000E+01 0.0000E+00 0.9000E+01
#aMCatNLO 1  0  0  5  2 0.90892706D+02 0.00000000D+00  -5  6  0 0.00000000D+00 0.00000000D+00 0.00000000D+00 0.00000000D+00 0.00000000D+00
  <mgrwgt>
 0.4679860621D-02    3    2    0
 0.337331811314752D+03 0.000000000000000D+00 0.000000000000000D+00 0.337331811314752D+03
 0.337331811314752D+03 -.000000000000000D+00 -.000000000000000D+00 -.337331811314752D+03
 0.188100883651786D+03 -.131773067825353D+03 -.416025061361011D+02 0.257299924149499D+02
 0.220554078049848D+03 -.616206931301375D+02 -.305832822472631D+02 -.193505654736996D+03
 0.266008660927870D+03 0.193393760955491D+03 0.721857883833643D+02 0.167775662322046D+03
 0.000000000000000D+00 -.000000000000000D+00 0.000000000000000D+00 0.000000000000000D+00
 0.337331811314752D+03 0.000000000000000D+00 0.000000000000000D+00 0.337331811314752D+03
 0.337331811314752D+03 -.000000000000000D+00 -.000000000000000D+00 -.337331811314752D+03
 0.165089788094705D+03 -.739638960984391D+02 -.200247643502273D+02 0.758814141922230D+02
 0.161032426504432D+03 0.836221887948604D+00 -.727073261640430D+01 -.139322157648055D+03
 0.132094898740229D+03 -.344100454871061D+02 -.109648232917879D+03 -.651327572021411D+02
 0.216446509290140D+03 0.107537719697597D+03 0.136943729884511D+03 0.128573500657973D+03
0.550451938914D-04 0.000000000000D+00 0.000000000000D+00 0.154842549192D-06 0.000000000000D+00  6 21 -3 25 24 -4 21 2 0.25260704D-01 0.10662092D+00 0.62147458D+05 0.62147458D+05 0.62147458D+05 0.11830392D+01  1  2  2  3  6  5       -4 0.437764035490D-02 0.100000000000D+01
-.354662524350D-05 0.290481468692D-05 -.111120387243D-06 0.154842549192D-06 0.000000000000D+00  6 21 -3 25 24 -4 21 4 0.25260704D-01 0.10662092D+00 0.62147458D+05 0.62147458D+05 0.62147458D+05 0.11830392D+01  1  2  3  3  6  5       -4 -.394761029936D-03 0.100000000000D+01
0.626184266158D-05 0.000000000000D+00 0.000000000000D+00 0.154842549192D-06 0.000000000000D+00  6 21 -3 25 24 -4 21 4 0.25260704D-01 0.10662092D+00 0.62147458D+05 0.62147458D+05 0.62147458D+05 0.11830392D+01  1  2 15  3  6  5       -4 0.696981295928D-03 0.100000000000D+01
  </mgrwgt>
  </event>
  <event>
  5     66 0.48358521E-03 0.31610863E+02 0.75467711E-02 0.11733395E+00
       21 -1    0    0  501  502 0.00000000E+00 0.00000000E+00 0.13210942E+03 0.13211155E+03 0.75000000E+00 0.0000E+00 0.9000E+01
       -1 -1    0    0    0  501 0.00000000E+00 0.00000000E+00 -.57319042E+03 0.57319051E+03 0.32000000E+00 0.0000E+00 0.9000E+01
       25  1    1    2    0    0 -.75372984E+02 0.73259742E+02 -.29927109E+03 0.34093439E+03 0.12500000E+03 0.0000E+00 0.9000E+01
       24  1    1    2    0    0 0.63927142E+02 -.43793866E+02 -.23811710E+03 0.26300485E+03 0.80419002E+02 0.0000E+00 0.9000E+01
       -2  1    1    2    0  502 0.11445842E+02 -.29465876E+02 0.96307182E+02 0.10136282E+03 0.32000000E+00 0.0000E+00 0.9000E+01
#aMCatNLO 1  0  0  2  2 0.49479429D+02 0.00000000D+00  -5  6  0 0.00000000D+00 0.00000000D+00 0.00000000D+00 0.00000000D+00 0.00000000D+00
  <mgrwgt>
 0.1415800682D+00    4    2    0
 0.275181097373647D+03 0.000000000000000D+00 0.000000000000000D+00 0.275181097373647D+03
 0.275181097373647D+03 0.000000000000000D+00 0.000000000000000D+00 -.275181097373647D+03
 0.197068348377953D+03 -.753729893096257D+02 0.732597544881430D+02 -.110285333509413D+03
 0.146210904643465D+03 0.639271383799190D+02 -.437938563559528D+02 -.943707147706249D+02
 0.207082941725877D+03 0.114458509297067D+02 -.294658981321903D+02 0.204656048280038D+03
 0.000000000000000D+00 0.000000000000000D+00 -.000000000000000D+00 0.000000000000000D+00
 0.426287683830754D+03 0.000000000000000D+00 0.000000000000000D+00 0.426287683830754D+03
 0.280371396865712D+03 0.000000000000000D+00 0.000000000000000D+00 -.280371396865712D+03
 0.206998950144788D+03 -.911692943927797D+02 0.821515084078487D+02 -.110285333509413D+03
 0.139860970839404D+03 0.527436582087735D+02 -.374986656056941D+02 -.943707147706249D+02
 0.205721981852505D+03 -.469203633934970D+01 -.203818673018772D+02 0.204656048280038D+03
 0.154077177859768D+03 0.431176725233559D+02 -.242709755002774D+02 0.145916286965041D+03
0.225068434846D-03 0.000000000000D+00 0.000000000000D+00 0.723879663402D-05 0.000000000000D+00  6 21 -1 25 24 -2 21 2 0.20324697D-01 0.88183313D-01 0.23501965D+05 0.23501965D+05 0.23501965D+05 0.12261853D+01  1  2  2  2  6  2       -1 0.952394123937D-01 0.100000000000D+01
0.548386943948D-04 0.118771876141D-04 -.454348324863D-06 0.723879663402D-05 0.000000000000D+00  6 21 -1 25 24 -2 21 4 0.20324697D-01 0.88183313D-01 0.23501965D+05 0.23501965D+05 0.23501965D+05 0.12261853D+01  1  2  3  2  6  2       -1 0.348900360862D-01 0.100000000000D+01
0.242915079199D-04 0.000000000000D+00 0.000000000000D+00 0.723879663402D-05 0.000000000000D+00  6 21 -1 25 24 -2 21 4 0.20324697D-01 0.88183313D-01 0.23501965D+05 0.23501965D+05 0.23501965D+05 0.12261853D+01  1  2 15  2  6  2       -1 0.154549920866D-01 0.100000000000D+01
-.629390435356D-05 0.000000000000D+00 0.000000000000D+00 0.723879663402D-05 0.000000000000D+00  6 21 -1 25 24 -2 21 4 0.20324697D-01 0.88183313D-01 0.23501965D+05 0.23501965D+05 0.23501965D+05 0.12261853D+01  1  2  4  2  6  2       -1 -.400437232218D-02 0.100000000000D+01
  </mgrwgt>
  </event>
  <event>
  6     66 0.48358521E-03 0.53635702E+02 0.75467711E-02 0.11816034E+00
       21 -1    0    0  501  502 0.00000000E+00 0.00000000E+00 0.14103469E+04 0.14103471E+04 0.75000000E+00 0.0000E+00 0.9000E+01
       -1 -1    0    0    0  501 0.00000000E+00 0.00000000E+00 -.71603700E+02 0.71604415E+02 0.32000000E+00 0.0000E+00 0.9000E+01
       25  1    1    2    0    0 -.26093636E+02 0.61121469E+02 0.79001261E+02 0.16212005E+03 0.12500000E+03 0.0000E+00 0.9000E+01
       24  1    1    2    0    0 -.32578607E+02 -.15029823E+02 0.44625039E+02 0.98721180E+02 0.80419002E+02 0.0000E+00 0.9000E+01
       -2  1    1    2    0  503 0.30475716E+02 -.63371683E+02 0.46721203E+03 0.47247426E+03 0.32000000E+00 0.0000E+00 0.9000E+01
       21  1    1    2  503  502 0.28196528E+02 0.17280037E+02 0.74790484E+03 0.74863600E+03 0.75000000E+00 0.0000E+00 0.9000E+01
#aMCatNLO 2  0  0  5  1 0.46567079D+02 0.00000000D+00  -5  6  0 0.00000000D+00 0.00000000D+00 0.00000000D+00 0.00000000D+00 0.00000000D+00
  <mgrwgt>
 0.1669937109D-01    1    2    0
 0.317784096066534D+03 0.000000000000000D+00 0.000000000000000D+00 0.317784096066534D+03
 0.317784096066534D+03 -.000000000000000D+00 -.000000000000000D+00 -.317784096066534D+03
 0.215983695953351D+03 -.272822749140044D+02 0.620552373799650D+02 -.162569314161383D+03
 0.138922941952904D+03 -.333433799867647D+02 -.144290337760433D+02 -.107295805331931D+03
 0.280661554226812D+03 0.606256549007691D+02 -.476262036039217D+02 0.269865119493314D+03
 0.000000000000000D+00 0.000000000000000D+00 0.000000000000000D+00 0.000000000000000D+00
 0.317784096066534D+03 0.000000000000000D+00 0.000000000000000D+00 0.317784096066534D+03
 0.317784096066534D+03 -.000000000000000D+00 -.000000000000000D+00 -.317784096066534D+03
 0.211614265595373D+03 -.260952034553451D+02 0.611226997096496D+02 -.157285261039606D+03
 0.136194366127786D+03 -.325796160459290D+02 -.150290302133785D+02 -.103896035919202D+03
 0.117185126535733D+03 0.303882975573618D+02 -.632589852515256D+02 0.938467156468902D+02
 0.170574433874176D+03 0.282865219439124D+02 0.171653157552545D+02 0.167334581311918D+03
0.150778693645D-03 0.000000000000D+00 0.000000000000D+00 0.456007551658D-05 0.760052922885D-07  6 21 -1 25 24 -2 21 4 0.21697651D+00 0.11016024D-01 0.27704955D+05 0.27704955D+05 0.27704955D+05 0.12185428D+01  1  2  1  3  6  5       -2 0.166993710905D-01 0.100000000000D+01
  </mgrwgt>
  </event>
  <event>
  5     66 0.48358521E-03 0.82886176E+02 0.75467711E-02 0.11492538E+00
       21 -1    0    0  501  502 0.00000000E+00 0.00000000E+00 0.18407938E+03 0.18408091E+03 0.75000000E+00 0.0000E+00 0.9000E+01
       -3 -1    0    0    0  501 0.00000000E+00 0.00000000E+00 -.23711552E+03 0.23711605E+03 0.50000000E+00 0.0000E+00 0.9000E+01
       25  1    1    2    0    0 -.30445989E+02 -.13748725E+03 -.95211189E+02 0.21099733E+03 0.12500000E+03 0.0000E+00 0.9000E+01
       24  1    1    2    0    0 0.70242734E+01 0.47450461E+02 -.23216546E+02 0.96473367E+02 0.80419002E+02 0.0000E+00 0.9000E+01
       -4  1    1    2    0  502 0.23421716E+02 0.90036791E+02 0.65391594E+02 0.11372627E+03 0.15500000E+01 0.0000E+00 0.9000E+01
#aMCatNLO 1  0  0  1  2 0.24339988D+02 0.00000000D+00  -5  6  0 0.00000000D+00 0.00000000D+00 0.00000000D+00 0.00000000D+00 0.00000000D+00
  <mgrwgt>
 0.1039759780D-01   23    4    0
 0.208922264017337D+03 0.000000000000000D+00 0.000000000000000D+00 0.208922264017337D+03
 0.208922264017337D+03 0.000000000000000D+00 0.000000000000000D+00 -.208922264017337D+03
 0.200608785204121D+03 -.304468828252765D+02 -.137490687971528D+03 -.691966960801829D+02
 0.942998873900162D+02 0.702385327549760D+01 0.474488454663922D+02 -.111590929949485D+02
 0.122935855440536D+03 0.234230295497789D+02 0.900418425051355D+02 0.803557890751314D+02
 0.000000000000000D+00 0.000000000000000D+00 -.000000000000000D+00 0.000000000000000D+00
 0.227618204407579D+03 0.000000000000000D+00 0.000000000000000D+00 0.227618204407579D+03
 0.217351360885873D+03 0.000000000000000D+00 0.000000000000000D+00 -.217351360885873D+03
 0.192988136235134D+03 -.307416594348045D+02 -.126040423492989D+03 -.691966960801829D+02
 0.972122536397001D+02 0.688042405504091D+01 0.530201915471055D+02 -.111590929949485D+02
 0.128352455783737D+03 0.232348321519795D+02 0.973521578738681D+02 0.803557890751314D+02
 0.264167196348806D+02 0.626403227784029D+00 -.243319259279842D+02 0.102668435217061D+02
 0.208922264017337D+03 0.000000000000000D+00 0.000000000000000D+00 0.208922264017337D+03
 0.208922264017337D+03 0.000000000000000D+00 0.000000000000000D+00 -.208922264017337D+03
 0.200608785204121D+03 -.304468828252765D+02 -.137490687971528D+03 -.691966960801829D+02
 0.942998873900162D+02 0.702385327549760D+01 0.474488454663922D+02 -.111590929949485D+02
 0.000000000000000D+00 0.000000000000000D+00 -.000000000000000D+00 0.000000000000000D+00
 0.122935855440536D+03 0.234230295497789D+02 0.900418425051355D+02 0.803557890751314D+02
 0.227618204407579D+03 0.000000000000000D+00 0.000000000000000D+00 0.227618204407579D+03
 0.217351360885873D+03 0.000000000000000D+00 0.000000000000000D+00 -.217351360885873D+03
 0.192988136235134D+03 -.307416594348045D+02 -.126040423492989D+03 -.691966960801829D+02
 0.972122536397001D+02 0.688042405504091D+01 0.530201915471055D+02 -.111590929949485D+02
 0.264167196348806D+02 0.626403227784029D+00 -.243319259279842D+02 0.102668435217061D+02
 0.128352455783737D+03 0.232348321519795D+02 0.973521578738681D+02 0.803557890751314D+02
0.306442695583D-05 0.000000000000D+00 0.000000000000D+00 0.261521292795D-06 0.000000000000D+00  6 21 -3 25 24 -4 21 2 0.28320063D-01 0.36479469D-01 0.35151130D+05 0.35151130D+05 0.35151130D+05 0.12077414D+01  1  2  2  1  6  1       21 0.194875676400D-02 0.100000000000D+01
-.899873122390D-07 0.161714253307D-06 -.618619512328D-08 0.261521292795D-06 0.000000000000D+00  6 21 -3 25 24 -4 21 4 0.28320063D-01 0.36479469D-01 0.35151130D+05 0.35151130D+05 0.35151130D+05 0.12077414D+01  1  2  3  1  6  1       21 -.834713662670D-04 0.100000000000D+01
0.310049983233D-06 0.000000000000D+00 0.000000000000D+00 0.261521292795D-06 0.000000000000D+00  6 21 -3 25 24 -4 21 4 0.28320063D-01 0.36479469D-01 0.35151130D+05 0.35151130D+05 0.35151130D+05 0.12077414D+01  1  2 15  1  6  1       21 0.287599385598D-03 0.100000000000D+01
0.772054803047D-05 0.000000000000D+00 0.000000000000D+00 0.258931564851D-06 0.000000000000D+00  6 21 -3 25 24 -4 21 4 0.31387292D-01 0.36479469D-01 0.40230781D+05 0.40230781D+05 0.40230781D+05 0.12017466D+01  1  2 12  1  6  1       21 0.575059867642D-02 0.100000000000D+01
-.546944113893D-05 0.000000000000D+00 0.000000000000D+00 0.261521292795D-06 0.000000000000D+00  6 21 -3 25 24 -4 21 4 0.28320063D-01 0.36479469D-01 0.35151130D+05 0.35151130D+05 0.35151130D+05 0.12077414D+01  1  2  4  1  6  1       21 -.507340105204D-02 0.100000000000D+01
-.412877907610D-04 0.000000000000D+00 -.847676836035D-05 0.261521292795D-06 0.000000000000D+00  6 21 -3 25 24 -4 21 4 0.31985523D-01 0.36479469D-01 0.35151130D+05 0.35151130D+05 0.35151130D+05 0.12077414D+01  1  2  5  1  6  1       21 -.302123761964D-01 0.100000000000D+01
0.412156615208D-04 0.000000000000D+00 0.823079403426D-05 0.261521292795D-06 0.000000000000D+00  6 21 -3 25 24 -4 21 4 0.28320063D-01 0.36479469D-01 0.35151130D+05 0.35151130D+05 0.35151130D+05 0.12077414D+01  1  2  6  1  6  1       21 0.382312516414D-01 0.100000000000D+01
0.203577692615D-06 0.000000000000D+00 0.000000000000D+00 0.258931564851D-06 0.000000000000D+00  6 -3 -3 25 24 -4 -3 4 0.31387292D-01 0.36479469D-01 0.40230781D+05 0.40230781D+05 0.40230781D+05 0.12017466D+01  1  2 12  4  6  1       21 0.759123551004D-05 0.100000000000D+01
-.105706691756D-05 0.000000000000D+00 -.270887468720D-06 0.261521292795D-06 0.000000000000D+00  6 -3 -3 25 24 -4 -3 4 0.31985523D-01 0.36479469D-01 0.35151130D+05 0.35151130D+05 0.35151130D+05 0.12077414D+01  1  2  5  4  6  1       21 -.385446993321D-04 0.100000000000D+01
0.203577692615D-06 0.000000000000D+00 0.000000000000D+00 0.258931564851D-06 0.000000000000D+00  6 3 -3 25 24 3 -4 4 0.31387292D-01 0.36479469D-01 0.40230781D+05 0.40230781D+05 0.40230781D+05 0.12017466D+01  3  4 12  5  5  1       21 0.759164599593D-05 0.100000000000D+01
-.105706691756D-05 0.000000000000D+00 -.270887468720D-06 0.261521292795D-06 0.000000000000D+00  6 3 -3 25 24 3 -4 4 0.31985523D-01 0.36479469D-01 0.35151130D+05 0.35151130D+05 0.35151130D+05 0.12077414D+01  3  4  5  5  5  1       21 -.385470510772D-04 0.100000000000D+01
0.203577692615D-06 0.000000000000D+00 0.000000000000D+00 0.258931564851D-06 0.000000000000D+00  6 -4 -3 25 24 -4 -4 4 0.31387292D-01 0.36479469D-01 0.40230781D+05 0.40230781D+05 0.40230781D+05 0.12017466D+01  1  2 12  6  6  1       21 0.640348617500D-05 0.100000000000D+01
-.105706691756D-05 0.000000000000D+00 -.270887468720D-06 0.261521292795D-06 0.000000000000D+00  6 -4 -3 25 24 -4 -4 4 0.31985523D-01 0.36479469D-01 0.35151130D+05 0.35151130D+05 0.35151130D+05 0.12077414D+01  1  2  5  6  6  1       21 -.324458931505D-04 0.100000000000D+01
0.203577692615D-06 0.000000000000D+00 0.000000000000D+00 0.258931564851D-06 0.000000000000D+00  6 4 -3 25 24 4 -4 4 0.31387292D-01 0.36479469D-01 0.40230781D+05 0.40230781D+05 0.40230781D+05 0.12017466D+01  3  4 12  7  5  1       21 0.640348617500D-05 0.100000000000D+01
-.105706691756D-05 0.000000000000D+00 -.270887468720D-06 0.261521292795D-06 0.000000000000D+00  6 4 -3 25 24 4 -4 4 0.31985523D-01 0.36479469D-01 0.35151130D+05 0.35151130D+05 0.35151130D+05 0.12077414D+01  3  4  5  7  5  1       21 -.324458931505D-04 0.100000000000D+01
0.203577692615D-06 0.000000000000D+00 0.000000000000D+00 0.258931564851D-06 0.000000000000D+00  6 -1 -3 25 24 -4 -1 4 0.31387292D-01 0.36479469D-01 0.40230781D+05 0.40230781D+05 0.40230781D+05 0.12017466D+01  1  2 12  8  6  1       21 0.134755780570D-04 0.100000000000D+01
0.203577692615D-06 0.000000000000D+00 0.000000000000D+00 0.258931564851D-06 0.000000000000D+00  6 -2 -3 25 24 -4 -2 4 0.31387292D-01 0.36479469D-01 0.40230781D+05 0.40230781D+05 0.40230781D+05 0.12017466D+01  1  2 12  8  6  1       21 0.117742952254D-04 0.100000000000D+01
-.105706691756D-05 0.000000000000D+00 -.270887468720D-06 0.261521292795D-06 0.000000000000D+00  6 -1 -3 25 24 -4 -1 4 0.31985523D-01 0.36479469D-01 0.35151130D+05 0.35151130D+05 0.35151130D+05 0.12077414D+01  1  2  5  8  6  1       21 -.688463356615D-04 0.100000000000D+01
-.105706691756D-05 0.000000000000D+00 -.270887468720D-06 0.261521292795D-06 0.000000000000D+00  6 -2 -3 25 24 -4 -2 4 0.31985523D-01 0.36479469D-01 0.35151130D+05 0.35151130D+05 0.35151130D+05 0.12077414D+01  1  2  5  8  6  1       21 -.600038782840D-04 0.100000000000D+01
0.203577692615D-06 0.000000000000D+00 0.000000000000D+00 0.258931564851D-06 0.000000000000D+00  6 1 -3 25 24 1 -4 4 0.31387292D-01 0.36479469D-01 0.40230781D+05 0.40230781D+05 0.40230781D+05 0.12017466D+01  3  4 12  9  5  1       21 0.241648248817D-04 0.100000000000D+01
0.203577692615D-06 0.000000000000D+00 0.000000000000D+00 0.258931564851D-06 0.000000000000D+00  6 2 -3 25 24 2 -4 4 0.31387292D-01 0.36479469D-01 0.40230781D+05 0.40230781D+05 0.40230781D+05 0.12017466D+01  3  4 12  9  5  1       21 0.320189160146D-04 0.100000000000D+01
-.105706691756D-05 0.000000000000D+00 -.270887468720D-06 0.261521292795D-06 0.000000000000D+00  6 1 -3 25 24 1 -4 4 0.31985523D-01 0.36479469D-01 0.35151130D+05 0.35151130D+05 0.35151130D+05 0.12077414D+01  3  4  5  9  5  1       21 -.124508621226D-03 0.100000000000D+01
-.105706691756D-05 0.000000000000D+00 -.270887468720D-06 0.261521292795D-06 0.000000000000D+00  6 2 -3 25 24 2 -4 4 0.31985523D-01 0.36479469D-01 0.35151130D+05 0.35151130D+05 0.35151130D+05 0.12077414D+01  3  4  5  9  5  1       21 -.165441149296D-03 0.100000000000D+01
  </mgrwgt>
  </event>
  <event>
  5     66 0.48358521E-03 0.50131283E+02 0.75467711E-02 0.12164277E+00
       21 -1    0    0  501  502 0.00000000E+00 0.00000000E+00 0.13313300E+03 0.13313511E+03 0.75000000E+00 0.0000E+00 0.9000E+01
       -1 -1    0    0    0  501 0.00000000E+00 0.00000000E+00 -.42490564E+03 0.42490576E+03 0.32000000E+00 0.0000E+00 0.9000E+01
       25  1    1    2    0    0 0.22778965E+02 -.16176925E+02 -.34302035E+03 0.36615370E+03 0.12500000E+03 0.0000E+00 0.9000E+01
       24  1    1    2    0    0 -.31555004E+01 -.32298602E+02 -.32950463E+02 0.92769099E+02 0.80419002E+02 0.0000E+00 0.9000E+01
       -2  1    1    2    0  502 -.19623465E+02 0.48475526E+02 0.84198171E+02 0.99118068E+02 0.32000000E+00 0.0000E+00 0.9000E+01
#aMCatNLO 1  0  0  1  2 0.10287943D+02 0.00000000D+00  -5  6  0 0.00000000D+00 0.00000000D+00 0.00000000D+00 0.00000000D+00 0.00000000D+00
  <mgrwgt>
 0.7119815692D-01   23    4    0
 0.237843614491888D+03 0.000000000000000D+00 0.000000000000000D+00 0.237843614491888D+03
 0.237843614491888D+03 0.000000000000000D+00 0.000000000000000D+00 -.237843614491888D+03
 0.219145744718453D+03 0.227789818033704D+02 -.161769651198795D+02 -.177818112732414D+03
 0.886189504704302D+02 -.315549379016838D+01 -.322986180449493D+02 0.182467684655863D+02
 0.167922533794893D+03 -.196234880132020D+02 0.484755831648288D+02 0.159571344266827D+03
 0.000000000000000D+00 -.000000000000000D+00 0.000000000000000D+00 0.000000000000000D+00
 0.261161634809312D+03 0.000000000000000D+00 0.000000000000000D+00 0.261161634809312D+03
 0.239036710532730D+03 0.000000000000000D+00 0.000000000000000D+00 -.239036710532730D+03
 0.219749570356625D+03 0.252055185690837D+02 -.202552287043953D+02 -.177818112732414D+03
 0.892050927610455D+02 -.217235142362216D+01 -.339509786308403D+02 0.182467684655863D+02
 0.166843804289743D+03 -.177726529749045D+02 0.453648974977951D+02 0.159571344266827D+03
 0.243998779346278D+02 -.526051417055700D+01 0.884130983744057D+01 0.221249242765819D+02
 0.237843614491888D+03 0.000000000000000D+00 0.000000000000000D+00 0.237843614491888D+03
 0.237843614491888D+03 0.000000000000000D+00 0.000000000000000D+00 -.237843614491888D+03
 0.219145744718453D+03 0.227789818033704D+02 -.161769651198795D+02 -.177818112732414D+03
 0.886189504704302D+02 -.315549379016838D+01 -.322986180449493D+02 0.182467684655863D+02
 0.000000000000000D+00 -.000000000000000D+00 0.000000000000000D+00 0.000000000000000D+00
 0.167922533794893D+03 -.196234880132020D+02 0.484755831648288D+02 0.159571344266827D+03
 0.261161634809312D+03 0.000000000000000D+00 0.000000000000000D+00 0.261161634809312D+03
 0.239036710532730D+03 0.000000000000000D+00 0.000000000000000D+00 -.239036710532730D+03
 0.219749570356625D+03 0.252055185690837D+02 -.202552287043953D+02 -.177818112732414D+03
 0.892050927610455D+02 -.217235142362216D+01 -.339509786308403D+02 0.182467684655863D+02
 0.243998779346278D+02 -.526051417055700D+01 0.884130983744057D+01 0.221249242765819D+02
 0.166843804289743D+03 -.177726529749045D+02 0.453648974977951D+02 0.159571344266827D+03
0.294670053755D-05 0.000000000000D+00 0.000000000000D+00 0.154385094667D-05 0.000000000000D+00  6 21 -1 25 24 -2 21 2 0.20482171D-01 0.65370270D-01 0.17835766D+05 0.17835766D+05 0.17835766D+05 0.12393397D+01  1  2  2  1  6  1       21 0.231050862103D-02 0.100000000000D+01
0.188368929661D-06 0.155501659534D-06 -.594853940326D-08 0.154385094667D-05 0.000000000000D+00  6 21 -1 25 24 -2 21 4 0.20482171D-01 0.65370270D-01 0.17835766D+05 0.17835766D+05 0.17835766D+05 0.12393397D+01  1  2  3  1  6  1       21 0.226861896004D-03 0.100000000000D+01
0.271354685870D-06 0.000000000000D+00 0.000000000000D+00 0.154385094667D-05 0.000000000000D+00  6 21 -1 25 24 -2 21 4 0.20482171D-01 0.65370270D-01 0.17835766D+05 0.17835766D+05 0.17835766D+05 0.12393397D+01  1  2 15  1  6  1       21 0.326805692620D-03 0.100000000000D+01
0.505417469772D-04 0.000000000000D+00 0.000000000000D+00 0.153645847985D-05 0.000000000000D+00  6 21 -1 25 24 -2 21 4 0.22538622D-01 0.65370270D-01 0.18967301D+05 0.18967301D+05 0.18967301D+05 0.12363689D+01  1  2 12  1  6  1       21 0.503954359026D-01 0.100000000000D+01
-.455636249326D-05 0.000000000000D+00 0.000000000000D+00 0.154385094667D-05 0.000000000000D+00  6 21 -1 25 24 -2 21 4 0.20482171D-01 0.65370270D-01 0.17835766D+05 0.17835766D+05 0.17835766D+05 0.12393397D+01  1  2  4  1  6  1       21 -.548744974005D-02 0.100000000000D+01
-.126994468468D-03 0.000000000000D+00 -.100661492154D-04 0.154385094667D-05 0.000000000000D+00  6 21 -1 25 24 -2 21 4 0.22571201D-01 0.65370270D-01 0.17835766D+05 0.17835766D+05 0.17835766D+05 0.12393397D+01  1  2  5  1  6  1       21 -.127626323898D+00 0.100000000000D+01
0.126168652069D-03 0.000000000000D+00 0.987876366184D-05 0.154385094667D-05 0.000000000000D+00  6 21 -1 25 24 -2 21 4 0.20482171D-01 0.65370270D-01 0.17835766D+05 0.17835766D+05 0.17835766D+05 0.12393397D+01  1  2  6  1  6  1       21 0.151951065795D+00 0.100000000000D+01
0.123391191260D-05 0.000000000000D+00 0.000000000000D+00 0.153645847985D-05 0.000000000000D+00  6 -1 -1 25 24 -2 -1 4 0.22538622D-01 0.65370270D-01 0.18967301D+05 0.18967301D+05 0.18967301D+05 0.12363689D+01  1  2 12  4  6  1       21 0.989904448625D-04 0.100000000000D+01
-.268879033445D-05 0.000000000000D+00 -.248852320299D-06 0.154385094667D-05 0.000000000000D+00  6 -1 -1 25 24 -2 -1 4 0.22571201D-01 0.65370270D-01 0.17835766D+05 0.17835766D+05 0.17835766D+05 0.12393397D+01  1  2  5  4  6  1       21 -.217240393929D-03 0.100000000000D+01
0.123391191260D-05 0.000000000000D+00 0.000000000000D+00 0.153645847985D-05 0.000000000000D+00  6 1 -1 25 24 1 -2 4 0.22538622D-01 0.65370270D-01 0.18967301D+05 0.18967301D+05 0.18967301D+05 0.12363689D+01  3  4 12  5  5  1       21 0.155227597876D-03 0.100000000000D+01
-.268879033445D-05 0.000000000000D+00 -.248852320299D-06 0.154385094667D-05 0.000000000000D+00  6 1 -1 25 24 1 -2 4 0.22571201D-01 0.65370270D-01 0.17835766D+05 0.17835766D+05 0.17835766D+05 0.12393397D+01  3  4  5  5  5  1       21 -.340845167757D-03 0.100000000000D+01
0.123391191260D-05 0.000000000000D+00 0.000000000000D+00 0.153645847985D-05 0.000000000000D+00  6 -2 -1 25 24 -2 -2 4 0.22538622D-01 0.65370270D-01 0.18967301D+05 0.18967301D+05 0.18967301D+05 0.12363689D+01  1  2 12  6  6  1       21 0.895455270187D-04 0.100000000000D+01
-.268879033445D-05 0.000000000000D+00 -.248852320299D-06 0.154385094667D-05 0.000000000000D+00  6 -2 -1 25 24 -2 -2 4 0.22571201D-01 0.65370270D-01 0.17835766D+05 0.17835766D+05 0.17835766D+05 0.12393397D+01  1  2  5  6  6  1       21 -.196471569648D-03 0.100000000000D+01
0.123391191260D-05 0.000000000000D+00 0.000000000000D+00 0.153645847985D-05 0.000000000000D+00  6 2 -1 25 24 2 -2 4 0.22538622D-01 0.65370270D-01 0.18967301D+05 0.18967301D+05 0.18967301D+05 0.12363689D+01  3  4 12  7  5  1       21 0.195061816819D-03 0.100000000000D+01
-.268879033445D-05 0.000000000000D+00 -.248852320299D-06 0.154385094667D-05 0.000000000000D+00  6 2 -1 25 24 2 -2 4 0.22571201D-01 0.65370270D-01 0.17835766D+05 0.17835766D+05 0.17835766D+05 0.12393397D+01  3  4  5  7  5  1       21 -.428363410912D-03 0.100000000000D+01
0.123391191260D-05 0.000000000000D+00 0.000000000000D+00 0.153645847985D-05 0.000000000000D+00  6 -3 -1 25 24 -2 -3 4 0.22538622D-01 0.65370270D-01 0.18967301D+05 0.18967301D+05 0.18967301D+05 0.12363689D+01  1  2 12  8  6  1       21 0.578958460301D-04 0.100000000000D+01
0.123391191260D-05 0.000000000000D+00 0.000000000000D+00 0.153645847985D-05 0.000000000000D+00  6 -4 -1 25 24 -2 -4 4 0.22538622D-01 0.65370270D-01 0.18967301D+05 0.18967301D+05 0.18967301D+05 0.12363689D+01  1  2 12  8  6  1       21 0.490963558896D-04 0.100000000000D+01
-.268879033445D-05 0.000000000000D+00 -.248852320299D-06 0.154385094667D-05 0.000000000000D+00  6 -3 -1 25 24 -2 -3 4 0.22571201D-01 0.65370270D-01 0.17835766D+05 0.17835766D+05 0.17835766D+05 0.12393397D+01  1  2  5  8  6  1       21 -.126839078483D-03 0.100000000000D+01
-.268879033445D-05 0.000000000000D+00 -.248852320299D-06 0.154385094667D-05 0.000000000000D+00  6 -4 -1 25 24 -2 -4 4 0.22571201D-01 0.65370270D-01 0.17835766D+05 0.17835766D+05 0.17835766D+05 0.12393397D+01  1  2  5  8  6  1       21 -.107481752602D-03 0.100000000000D+01
0.123391191260D-05 0.000000000000D+00 0.000000000000D+00 0.153645847985D-05 0.000000000000D+00  6 3 -1 25 24 3 -2 4 0.22538622D-01 0.65370270D-01 0.18967301D+05 0.18967301D+05 0.18967301D+05 0.12363689D+01  3  4 12  9  5  1       21 0.578916738471D-04 0.100000000000D+01
0.123391191260D-05 0.000000000000D+00 0.000000000000D+00 0.153645847985D-05 0.000000000000D+00  6 4 -1 25 24 4 -2 4 0.22538622D-01 0.65370270D-01 0.18967301D+05 0.18967301D+05 0.18967301D+05 0.12363689D+01  3  4 12  9  5  1       21 0.490963558896D-04 0.100000000000D+01
-.268879033445D-05 0.000000000000D+00 -.248852320299D-06 0.154385094667D-05 0.000000000000D+00  6 3 -1 25 24 3 -2 4 0.22571201D-01 0.65370270D-01 0.17835766D+05 0.17835766D+05 0.17835766D+05 0.12393397D+01  3  4  5  9  5  1       21 -.126829837246D-03 0.100000000000D+01
-.268879033445D-05 0.000000000000D+00 -.248852320299D-06 0.154385094667D-05 0.000000000000D+00  6 4 -1 25 24 4 -2 4 0.22571201D-01 0.65370270D-01 0.17835766D+05 0.17835766D+05 0.17835766D+05 0.12393397D+01  3  4  5  9  5  1       21 -.107481752602D-03 0.100000000000D+01
  </mgrwgt>
  </event>
  <event>
  5     66 -.48358521E-03 0.29471319E+02 0.75467711E-02 0.12325555E+00
       21 -1    0    0  501  502 0.00000000E+00 0.00000000E+00 0.67980874E+03 0.67980915E+03 0.75000000E+00 0.0000E+00 0.9000E+01
       -3 -1    0    0    0  501 0.00000000E+00 0.00000000E+00 -.26982203E+02 0.26986835E+02 0.50000000E+00 0.0000E+00 0.9000E+01
       25  1    1    2    0    0 -.18787294E+02 0.43119554E+02 0.37899378E+03 0.40183771E+03 0.12500000E+03 0.0000E+00 0.9000E+01
       24  1    1    2    0    0 0.32358924E+02 -.16983752E+02 0.12396868E+03 0.15222023E+03 0.80419002E+02 0.0000E+00 0.9000E+01
       -4  1    1    2    0  502 -.13571629E+02 -.26135802E+02 0.14986407E+03 0.15273805E+03 0.15500000E+01 0.0000E+00 0.9000E+01
#aMCatNLO 1  0  0  2  1 0.18620525D+01 0.00000000D+00  -5  6  0 0.00000000D+00 0.00000000D+00 0.00000000D+00 0.00000000D+00 0.00000000D+00
  <mgrwgt>
 -.6165500081D-01   11    4    0
 0.135441945047515D+03 0.000000000000000D+00 0.000000000000000D+00 0.135441945047515D+03
 0.135441945047515D+03 0.000000000000000D+00 0.000000000000000D+00 -.135441945047515D+03
 0.135114829565368D+03 -.187814596424271D+02 0.431307900555770D+02 0.204452657444220D+02
 0.984165382268646D+02 0.323631736831639D+02 -.169755673061679D+02 -.433941717973336D+02
 0.373525223027966D+02 -.135817140407368D+02 -.261552227494091D+02 0.229489060529116D+02
 0.000000000000000D+00 0.000000000000000D+00 0.000000000000000D+00 -.000000000000000D+00
 0.135739940873132D+03 0.000000000000000D+00 0.000000000000000D+00 0.135739940873132D+03
 0.138385517601650D+03 0.000000000000000D+00 0.000000000000000D+00 -.138385517601650D+03
 0.135187693400513D+03 -.196931326310196D+02 0.429521138335241D+02 0.204452657444220D+02
 0.982229953263168D+02 0.316999503093573D+02 -.171055505877740D+02 -.433941717973336D+02
 0.374796011556432D+02 -.138341068962955D+02 -.262046885145120D+02 0.229489060529116D+02
 0.323516859230931D+01 0.182728921795782D+01 0.358125268761814D+00 -.264557672851761D+01
 0.135441945047515D+03 0.000000000000000D+00 0.000000000000000D+00 0.135441945047515D+03
 0.135441945047515D+03 0.000000000000000D+00 0.000000000000000D+00 -.135441945047515D+03
 0.135114829565368D+03 -.187814596424271D+02 0.431307900555770D+02 0.204452657444220D+02
 0.984165382268646D+02 0.323631736831639D+02 -.169755673061679D+02 -.433941717973336D+02
 0.000000000000000D+00 0.000000000000000D+00 0.000000000000000D+00 -.000000000000000D+00
 0.373525223027966D+02 -.135817140407368D+02 -.261552227494091D+02 0.229489060529116D+02
 0.135739940873132D+03 0.000000000000000D+00 0.000000000000000D+00 0.135739940873132D+03
 0.138385517601650D+03 0.000000000000000D+00 0.000000000000000D+00 -.138385517601650D+03
 0.135187693400513D+03 -.196931326310196D+02 0.429521138335241D+02 0.204452657444220D+02
 0.982229953263168D+02 0.316999503093573D+02 -.171055505877740D+02 -.433941717973336D+02
 0.323516859230931D+01 0.182728921795782D+01 0.358125268761814D+00 -.264557672851761D+01
 0.374796011556432D+02 -.138341068962955D+02 -.262046885145120D+02 0.229489060529116D+02
0.327186052422D-05 0.000000000000D+00 0.000000000000D+00 0.998980166968D-06 0.000000000000D+00  6 21 -3 25 24 -4 21 2 0.10458635D+00 0.41514963D-02 0.15795910D+05 0.15795910D+05 0.15795910D+05 0.12452709D+01  1  2  2  2  6  2       -3 0.556452803119D-02 0.100000000000D+01
0.101049054686D-06 0.172660823451D-06 -.660494373360D-08 0.998980166968D-06 0.000000000000D+00  6 21 -3 25 24 -4 21 4 0.10458635D+00 0.41514963D-02 0.15795910D+05 0.15795910D+05 0.15795910D+05 0.12452709D+01  1  2  3  2  6  2       -3 0.266497721858D-03 0.100000000000D+01
0.329267350164D-06 0.000000000000D+00 0.000000000000D+00 0.998980166968D-06 0.000000000000D+00  6 21 -3 25 24 -4 21 4 0.10458635D+00 0.41514963D-02 0.15795910D+05 0.15795910D+05 0.15795910D+05 0.12452709D+01  1  2 15  2  6  2       -3 0.868380203793D-03 0.100000000000D+01
0.196163316457D-07 0.000000000000D+00 0.000000000000D+00 0.997804641326D-06 0.000000000000D+00  6 21 -3 25 24 -4 21 4 0.10458635D+00 0.42462321D-02 0.16033199D+05 0.16033199D+05 0.16033199D+05 0.12445380D+01  1  2 12  2  6  2       -3 0.498365107233D-04 0.100000000000D+01
-.254273010314D-03 0.000000000000D+00 0.000000000000D+00 0.998980166968D-06 0.000000000000D+00  6 21 -3 25 24 -4 21 4 0.10458635D+00 0.41514963D-02 0.15795910D+05 0.15795910D+05 0.15795910D+05 0.12452709D+01  1  2  4  2  6  2       -3 -.670596852089D+00 0.100000000000D+01
-.623619337450D-03 0.000000000000D+00 -.517973728625D-04 0.998980166968D-06 0.000000000000D+00  6 21 -3 25 24 -4 21 4 0.10458635D+00 0.42507453D-02 0.15795910D+05 0.15795910D+05 0.15795910D+05 0.12452709D+01  1  2  5  2  6  2       -3 -.158495983707D+01 0.100000000000D+01
0.624683183485D-03 0.000000000000D+00 0.517829204752D-04 0.998980166968D-06 0.000000000000D+00  6 21 -3 25 24 -4 21 4 0.10458635D+00 0.41514963D-02 0.15795910D+05 0.15795910D+05 0.15795910D+05 0.12452709D+01  1  2  6  2  6  2       -3 0.164748345049D+01 0.100000000000D+01
0.250510284102D-03 0.000000000000D+00 0.000000000000D+00 0.998980166968D-06 0.246391910024D-05  6 21 -3 25 24 -4 21 4 0.10481646D+00 0.42417211D-02 0.16033199D+05 0.16033199D+05 0.16033199D+05 0.12445380D+01  1  2 11  2  6  2       -3 0.634189511763D+00 0.100000000000D+01
0.938332527565D-09 0.000000000000D+00 0.000000000000D+00 0.997804641326D-06 0.000000000000D+00  6 21 21 25 24 3 -4 4 0.10458635D+00 0.42462321D-02 0.16033199D+05 0.16033199D+05 0.16033199D+05 0.12445380D+01  3  4 12 10  5  2       -3 0.599657950247D-04 0.100000000000D+01
-.265663314356D-05 0.000000000000D+00 -.221532183642D-06 0.998980166968D-06 0.000000000000D+00  6 21 21 25 24 3 -4 4 0.10458635D+00 0.42507453D-02 0.15795910D+05 0.15795910D+05 0.15795910D+05 0.12452709D+01  3  4  5 10  5  2       -3 -.169920333826D+00 0.100000000000D+01
0.118295636986D-05 0.000000000000D+00 0.000000000000D+00 0.998980166968D-06 0.952998055243D-08  6 21 21 25 24 3 -4 4 0.10481646D+00 0.42417211D-02 0.16033199D+05 0.16033199D+05 0.16033199D+05 0.12445380D+01  3  4 11 10  5  2       -3 0.753398516705D-01 0.100000000000D+01
  </mgrwgt>
  </event>
  <event>
  6     66 -.48358521E-03 0.24928679E+02 0.75467711E-02 0.12220804E+00
       21 -1    0    0  501  503 0.00000000E+00 0.00000000E+00 0.15949497E+03 0.15949673E+03 0.75000000E+00 0.0000E+00 0.9000E+01
       -1 -1    0    0    0  501 0.00000000E+00 0.00000000E+00 -.56204605E+03 0.56204615E+03 0.32000000E+00 0.0000E+00 0.9000E+01
       25  1    1    2    0    0 -.22105532E+02 0.23636117E+02 -.34215478E+03 0.36570782E+03 0.12500000E+03 0.0000E+00 0.9000E+01
       24  1    1    2    0    0 0.26814587E+02 -.50634224E+01 -.19357755E+03 0.21138624E+03 0.80419002E+02 0.0000E+00 0.9000E+01
       -2  1    1    2    0  502 0.66094297E+01 -.33757026E+02 0.10496297E+03 0.11045609E+03 0.32000000E+00 0.0000E+00 0.9000E+01
       21  1    1    2  502  503 -.11318484E+02 0.15184331E+02 0.28218270E+02 0.33992723E+02 0.75000000E+00 0.0000E+00 0.9000E+01
#aMCatNLO 2  0  0  1  2 0.18938638D+02 0.00000000D+00  -5  6  0 0.00000000D+00 0.00000000D+00 0.00000000D+00 0.00000000D+00 0.00000000D+00
  <mgrwgt>
 -.1004436910D+00    2    2    0
 0.267770567513543D+03 0.000000000000000D+00 0.000000000000000D+00 0.267770567513543D+03
 0.267770567513543D+03 0.000000000000000D+00 0.000000000000000D+00 -.267770567513543D+03
 0.195431881578349D+03 -.262213320284892D+02 0.291576840590468D+02 -.145020314246724D+03
 0.114969693355452D+03 0.243787602156874D+02 -.179562960329272D+01 -.784427574767096D+02
 0.225139560093284D+03 0.184257181280186D+01 -.273620544557541D+02 0.223463071723433D+03
 0.000000000000000D+00 -.000000000000000D+00 0.000000000000000D+00 0.000000000000000D+00
 0.332849407134879D+03 0.000000000000000D+00 0.000000000000000D+00 0.332849407134879D+03
 0.269319338951088D+03 0.000000000000000D+00 0.000000000000000D+00 -.269319338951088D+03
 0.194173150867570D+03 -.221055317968043D+02 0.236361256893354D+02 -.145020314246724D+03
 0.115607709294377D+03 0.268145873950481D+02 -.506341744339003D+01 -.784427574767096D+02
 0.226095038994460D+03 0.660942879052172D+01 -.337570390422075D+02 0.223463071723433D+03
 0.662928469295606D+02 -.113184843887655D+02 0.151843307962622D+02 0.635300681837908D+02
-.306373378254D-03 0.000000000000D+00 0.000000000000D+00 0.243217951518D-04 0.000000000000D+00  6 21 -1 25 24 -2 21 4 0.24585440D-01 0.85970838D-01 0.17873115D+05 0.17873115D+05 0.17873115D+05 0.12392383D+01  1  2 13  1  6  1       21 -.151096463702D+00 0.100000000000D+01
0.103572684522D-03 0.000000000000D+00 0.000000000000D+00 0.246995881408D-04 0.594780297593D-06  6 21 -1 25 24 -2 21 4 0.24537638D-01 0.86468089D-01 0.17873115D+05 0.17873115D+05 0.17873115D+05 0.12392383D+01  1  2  1  1  6  1       21 0.506527727012D-01 0.100000000000D+01
  </mgrwgt>
  </event>
  <event>
  5     66 0.48358521E-03 0.46767601E+02 0.75467711E-02 0.11723556E+00
       21 -1    0    0  501  502 0.00000000E+00 0.00000000E+00 0.63584514E+02 0.63588937E+02 0.75000000E+00 0.0000E+00 0.9000E+01
       -1 -1    0    0    0  501 0.00000000E+00 0.00000000E+00 -.62943565E+03 0.62943573E+03 0.32000000E+00 0.0000E+00 0.9000E+01
       25  1    1    2    0    0 -.71141765E+02 -.97060777E+02 -.10860345E+03 0.20469894E+03 0.12500000E+03 0.0000E+00 0.9000E+01
       24  1    1    2    0    0 0.24650613E+02 0.91989583E+02 -.33015555E+03 0.35290174E+03 0.80419002E+02 0.0000E+00 0.9000E+01
       -2  1    1    2    0  502 0.46491152E+02 0.50711939E+01 -.12709213E+03 0.13542399E+03 0.32000000E+00 0.0000E+00 0.9000E+01
#aMCatNLO 1  0  0  2  1 0.57869136D+01 0.00000000D+00  -5  6  0 0.00000000D+00 0.00000000D+00 0.00000000D+00 0.00000000D+00 0.00000000D+00
  <mgrwgt>
 0.5739747376D-01   11    4    0
 0.200059793643072D+03 0.000000000000000D+00 0.000000000000000D+00 0.200059793643072D+03
 0.200059793643072D+03 0.000000000000000D+00 0.000000000000000D+00 -.200059793643072D+03
 0.200960271381931D+03 -.711421622437569D+02 -.970608200252298D+02 0.101380573292975D+03
 0.144333491285932D+03 0.246503272849271D+02 0.919895515821787D+02 -.727682933486242D+02
 0.548258246182806D+02 0.464918349588298D+02 0.507126844305110D+01 -.286122799443509D+02
 0.000000000000000D+00 0.000000000000000D+00 0.000000000000000D+00 -.000000000000000D+00
 0.200553204069536D+03 0.000000000000000D+00 0.000000000000000D+00 0.200553204069536D+03
 0.217799897580034D+03 0.000000000000000D+00 0.000000000000000D+00 -.217799897580034D+03
 0.202517242525106D+03 -.737710596233786D+02 -.983262103449739D+02 0.101380573292975D+03
 0.143450318756595D+03 0.227752435986212D+02 0.910870010437843D+02 -.727682933486242D+02
 0.541938717668602D+02 0.457815064169025D+02 0.472935975244939D+01 -.286122799443509D+02
 0.181916686010092D+02 0.521430960785484D+01 0.250984954874022D+01 -.172466935104983D+02
 0.200059793643072D+03 0.000000000000000D+00 0.000000000000000D+00 0.200059793643072D+03
 0.200059793643072D+03 0.000000000000000D+00 0.000000000000000D+00 -.200059793643072D+03
 0.200960271381931D+03 -.711421622437569D+02 -.970608200252298D+02 0.101380573292975D+03
 0.144333491285932D+03 0.246503272849271D+02 0.919895515821787D+02 -.727682933486242D+02
 0.000000000000000D+00 0.000000000000000D+00 0.000000000000000D+00 -.000000000000000D+00
 0.548258246182806D+02 0.464918349588298D+02 0.507126844305110D+01 -.286122799443509D+02
 0.200553204069536D+03 0.000000000000000D+00 0.000000000000000D+00 0.200553204069536D+03
 0.217799897580034D+03 0.000000000000000D+00 0.000000000000000D+00 -.217799897580034D+03
 0.202517242525106D+03 -.737710596233786D+02 -.983262103449739D+02 0.101380573292975D+03
 0.143450318756595D+03 0.227752435986212D+02 0.910870010437843D+02 -.727682933486242D+02
 0.181916686010092D+02 0.521430960785484D+01 0.250984954874022D+01 -.172466935104983D+02
 0.541938717668602D+02 0.457815064169025D+02 0.472935975244939D+01 -.286122799443509D+02
0.135395805569D-05 0.000000000000D+00 0.000000000000D+00 0.960540486606D-07 0.000000000000D+00  6 21 -1 25 24 -2 21 2 0.97825795D-02 0.96836601D-01 0.29743926D+05 0.29743926D+05 0.29743926D+05 0.12152893D+01  1  2  2  2  6  2       -1 0.171728977980D-02 0.100000000000D+01
-.733790813748D-07 0.714503295856D-07 -.273325122183D-08 0.960540486606D-07 0.000000000000D+00  6 21 -1 25 24 -2 21 4 0.97825795D-02 0.96836601D-01 0.29743926D+05 0.29743926D+05 0.29743926D+05 0.12152893D+01  1  2  3  2  6  2       -1 -.137457998518D-03 0.100000000000D+01
0.140588028087D-06 0.000000000000D+00 0.000000000000D+00 0.960540486606D-07 0.000000000000D+00  6 21 -1 25 24 -2 21 4 0.97825795D-02 0.96836601D-01 0.29743926D+05 0.29743926D+05 0.29743926D+05 0.12152893D+01  1  2 15  2  6  2       -1 0.263357738942D-03 0.100000000000D+01
0.682249329505D-04 0.000000000000D+00 0.000000000000D+00 0.958132416206D-07 0.000000000000D+00  6 21 -1 25 24 -2 21 4 0.97825795D-02 0.10553681D+00 0.30756419D+05 0.30756419D+05 0.30756419D+05 0.12137650D+01  1  2 12  2  6  2       -1 0.104998587579D+00 0.100000000000D+01
-.593333783816D-04 0.000000000000D+00 0.000000000000D+00 0.960540486606D-07 0.000000000000D+00  6 21 -1 25 24 -2 21 4 0.97825795D-02 0.96836601D-01 0.29743926D+05 0.29743926D+05 0.29743926D+05 0.12152893D+01  1  2  4  2  6  2       -1 -.111146763967D+00 0.100000000000D+01
-.118710160479D-03 0.000000000000D+00 -.552074775546D-05 0.960540486606D-07 0.000000000000D+00  6 21 -1 25 24 -2 21 4 0.97825795D-02 0.10554370D+00 0.29743926D+05 0.29743926D+05 0.29743926D+05 0.12152893D+01  1  2  5  2  6  2       -1 -.183669811583D+00 0.100000000000D+01
0.118765408347D-03 0.000000000000D+00 0.550034751368D-05 0.960540486606D-07 0.000000000000D+00  6 21 -1 25 24 -2 21 4 0.97825795D-02 0.96836601D-01 0.29743926D+05 0.29743926D+05 0.29743926D+05 0.12152893D+01  1  2  6  2  6  2       -1 0.222478327865D+00 0.100000000000D+01
0.170956539820D-04 0.000000000000D+00 0.000000000000D+00 0.960540486606D-07 0.238269761923D-07  6 21 -1 25 24 -2 21 4 0.98067064D-02 0.10542349D+00 0.30756419D+05 0.30756419D+05 0.30756419D+05 0.12137650D+01  1  2 11  2  6  2       -1 0.262600400394D-01 0.100000000000D+01
0.100862957106D-05 0.000000000000D+00 0.000000000000D+00 0.958132416206D-07 0.000000000000D+00  6 21 21 25 24 1 -2 4 0.97825795D-02 0.10553681D+00 0.30756419D+05 0.30756419D+05 0.30756419D+05 0.12137650D+01  3  4 12 10  5  2       -1 0.134393003819D-01 0.100000000000D+01
-.169203023502D-05 0.000000000000D+00 -.786931403238D-07 0.960540486606D-07 0.000000000000D+00  6 21 21 25 24 1 -2 4 0.97825795D-02 0.10554370D+00 0.29743926D+05 0.29743926D+05 0.29743926D+05 0.12152893D+01  3  4  5 10  5  2       -1 -.226883172469D-01 0.100000000000D+01
0.442296326444D-06 0.000000000000D+00 0.000000000000D+00 0.960540486606D-07 0.348709311010D-09  6 21 21 25 24 1 -2 4 0.98067064D-02 0.10542349D+00 0.30756419D+05 0.30756419D+05 0.30756419D+05 0.12137650D+01  3  4 11 10  5  2       -1 0.588292117551D-02 0.100000000000D+01
  </mgrwgt>
  </event>
  <event>
  5     66 0.48358521E-03 0.95877722E+02 0.75467711E-02 0.11520150E+00
       21 -1    0    0  501  502 0.00000000E+00 0.00000000E+00 0.86941642E+02 0.86944877E+02 0.75000000E+00 0.0000E+00 0.9000E+01
       -1 -1    0    0    0  501 0.00000000E+00 0.00000000E+00 -.38995518E+03 0.38995532E+03 0.32000000E+00 0.0000E+00 0.9000E+01
       25  1    1    2    0    0 0.94299032E+02 0.19245052E+02 -.13098958E+03 0.20505109E+03 0.12500000E+03 0.0000E+00 0.9000E+01
       24  1    1    2    0    0 0.81963099E+01 0.13194811E+02 -.13545535E+03 0.15829293E+03 0.80419002E+02 0.0000E+00 0.9000E+01
       -2  1    1    2    0  502 -.10249534E+03 -.32439863E+02 -.36568617E+02 0.11355618E+03 0.32000000E+00 0.0000E+00 0.9000E+01
#aMCatNLO 1  0  0  1  2 0.45509680D+02 0.00000000D+00  -5  6  0 0.00000000D+00 0.00000000D+00 0.00000000D+00 0.00000000D+00 0.00000000D+00
  <mgrwgt>
 0.2270827200D-01   23    4    0
 0.184130787010102D+03 0.000000000000000D+00 0.000000000000000D+00 0.184130787010102D+03
 0.184130787010102D+03 0.000000000000000D+00 0.000000000000000D+00 -.184130787010102D+03
 0.157761033018260D+03 0.942991962727961D+02 0.192451037979656D+02 -.911647464034587D+00
 0.935344231588895D+02 0.819640735259173D+01 0.131948416733814D+02 -.451684339004624D+02
 0.116966117843054D+03 -.102495603625388D+03 -.324399454713470D+02 0.460800813644970D+02
 0.000000000000000D+00 -.000000000000000D+00 -.000000000000000D+00 0.000000000000000D+00
 0.219121619393358D+03 0.000000000000000D+00 0.000000000000000D+00 0.219121619393358D+03
 0.200946202018602D+03 0.000000000000000D+00 0.000000000000000D+00 -.200946202018602D+03
 0.169861541315640D+03 0.110795426649930D+03 0.308461594122519D+02 -.911647464034587D+00
 0.960124912582230D+02 0.177403454461642D+02 0.199066633484904D+02 -.451684339004624D+02
 0.105188924166110D+03 -.913098031356751D+02 -.245734759443851D+02 0.460800813644970D+02
 0.490048646719870D+02 -.372259689604192D+02 -.261793468163572D+02 0.181754173747552D+02
 0.184130787010102D+03 0.000000000000000D+00 0.000000000000000D+00 0.184130787010102D+03
 0.184130787010102D+03 0.000000000000000D+00 0.000000000000000D+00 -.184130787010102D+03
 0.157761033018260D+03 0.942991962727961D+02 0.192451037979656D+02 -.911647464034587D+00
 0.935344231588895D+02 0.819640735259173D+01 0.131948416733814D+02 -.451684339004624D+02
 0.000000000000000D+00 -.000000000000000D+00 -.000000000000000D+00 0.000000000000000D+00
 0.116966117843054D+03 -.102495603625388D+03 -.324399454713470D+02 0.460800813644970D+02
 0.219121619393358D+03 0.000000000000000D+00 0.000000000000000D+00 0.219121619393358D+03
 0.200946202018602D+03 0.000000000000000D+00 0.000000000000000D+00 -.200946202018602D+03
 0.169861541315640D+03 0.110795426649930D+03 0.308461594122519D+02 -.911647464034587D+00
 0.960124912582230D+02 0.177403454461642D+02 0.199066633484904D+02 -.451684339004624D+02
 0.490048646719870D+02 -.372259689604192D+02 -.261793468163572D+02 0.181754173747552D+02
 0.105188924166110D+03 -.913098031356751D+02 -.245734759443851D+02 0.460800813644970D+02
0.260572458095D-05 0.000000000000D+00 0.000000000000D+00 0.311809018353D-06 0.000000000000D+00  6 21 -1 25 24 -2 21 2 0.13375896D-01 0.59993364D-01 0.30131852D+05 0.30131852D+05 0.30131852D+05 0.12146986D+01  1  2  2  1  6  1       21 0.501711934493D-02 0.100000000000D+01
-.170248595784D-06 0.137507863952D-06 -.526020718641D-08 0.311809018353D-06 0.000000000000D+00  6 21 -1 25 24 -2 21 4 0.13375896D-01 0.59993364D-01 0.30131852D+05 0.30131852D+05 0.30131852D+05 0.12146986D+01  1  2  3  1  6  1       21 -.483667039109D-03 0.100000000000D+01
0.288765296899D-06 0.000000000000D+00 0.000000000000D+00 0.311809018353D-06 0.000000000000D+00  6 21 -1 25 24 -2 21 4 0.13375896D-01 0.59993364D-01 0.30131852D+05 0.30131852D+05 0.30131852D+05 0.12146986D+01  1  2 15  1  6  1       21 0.820366567519D-03 0.100000000000D+01
0.318036152509D-05 0.000000000000D+00 0.000000000000D+00 0.305928279919D-06 0.000000000000D+00  6 21 -1 25 24 -2 21 4 0.16437910D-01 0.59993364D-01 0.38937498D+05 0.38937498D+05 0.38937498D+05 0.12031894D+01  1  2 12  1  6  1       21 0.596554786986D-02 0.100000000000D+01
-.301403781336D-06 0.000000000000D+00 0.000000000000D+00 0.311809018353D-06 0.000000000000D+00  6 21 -1 25 24 -2 21 4 0.13375896D-01 0.59993364D-01 0.30131852D+05 0.30131852D+05 0.30131852D+05 0.12146986D+01  1  2  4  1  6  1       21 -.856271817242D-03 0.100000000000D+01
-.136618062246D-04 0.000000000000D+00 -.407745453222D-05 0.311809018353D-06 0.000000000000D+00  6 21 -1 25 24 -2 21 4 0.17311474D-01 0.59993364D-01 0.30131852D+05 0.30131852D+05 0.30131852D+05 0.12146986D+01  1  2  5  1  6  1       21 -.242812027582D-01 0.100000000000D+01
0.130775245981D-04 0.000000000000D+00 0.358220132228D-05 0.311809018353D-06 0.000000000000D+00  6 21 -1 25 24 -2 21 4 0.13375896D-01 0.59993364D-01 0.30131852D+05 0.30131852D+05 0.30131852D+05 0.12146986D+01  1  2  6  1  6  1       21 0.371525390390D-01 0.100000000000D+01
0.189240923926D-06 0.000000000000D+00 0.000000000000D+00 0.305928279919D-06 0.000000000000D+00  6 -1 -1 25 24 -2 -1 4 0.16437910D-01 0.59993364D-01 0.38937498D+05 0.38937498D+05 0.38937498D+05 0.12031894D+01  1  2 12  4  6  1       21 0.268094047124D-04 0.100000000000D+01
-.824159372921D-06 0.000000000000D+00 -.318800576655D-06 0.311809018353D-06 0.000000000000D+00  6 -1 -1 25 24 -2 -1 4 0.17311474D-01 0.59993364D-01 0.30131852D+05 0.30131852D+05 0.30131852D+05 0.12146986D+01  1  2  5  4  6  1       21 -.111425971227D-03 0.100000000000D+01
0.189240923926D-06 0.000000000000D+00 0.000000000000D+00 0.305928279919D-06 0.000000000000D+00  6 1 -1 25 24 1 -2 4 0.16437910D-01 0.59993364D-01 0.38937498D+05 0.38937498D+05 0.38937498D+05 0.12031894D+01  3  4 12  5  5  1       21 0.379018097716D-04 0.100000000000D+01
-.824159372921D-06 0.000000000000D+00 -.318800576655D-06 0.311809018353D-06 0.000000000000D+00  6 1 -1 25 24 1 -2 4 0.17311474D-01 0.59993364D-01 0.30131852D+05 0.30131852D+05 0.30131852D+05 0.12146986D+01  3  4  5  5  5  1       21 -.160009220290D-03 0.100000000000D+01
0.189240923926D-06 0.000000000000D+00 0.000000000000D+00 0.305928279919D-06 0.000000000000D+00  6 -2 -1 25 24 -2 -2 4 0.16437910D-01 0.59993364D-01 0.38937498D+05 0.38937498D+05 0.38937498D+05 0.12031894D+01  1  2 12  6  6  1       21 0.249158254843D-04 0.100000000000D+01
-.824159372921D-06 0.000000000000D+00 -.318800576655D-06 0.311809018353D-06 0.000000000000D+00  6 -2 -1 25 24 -2 -2 4 0.17311474D-01 0.59993364D-01 0.30131852D+05 0.30131852D+05 0.30131852D+05 0.12146986D+01  1  2  5  6  6  1       21 -.103139788926D-03 0.100000000000D+01
0.189240923926D-06 0.000000000000D+00 0.000000000000D+00 0.305928279919D-06 0.000000000000D+00  6 2 -1 25 24 2 -2 4 0.16437910D-01 0.59993364D-01 0.38937498D+05 0.38937498D+05 0.38937498D+05 0.12031894D+01  3  4 12  7  5  1       21 0.456235525710D-04 0.100000000000D+01
-.824159372921D-06 0.000000000000D+00 -.318800576655D-06 0.311809018353D-06 0.000000000000D+00  6 2 -1 25 24 2 -2 4 0.17311474D-01 0.59993364D-01 0.30131852D+05 0.30131852D+05 0.30131852D+05 0.12146986D+01  3  4  5  7  5  1       21 -.193880072847D-03 0.100000000000D+01
0.189240923926D-06 0.000000000000D+00 0.000000000000D+00 0.305928279919D-06 0.000000000000D+00  6 -3 -1 25 24 -2 -3 4 0.16437910D-01 0.59993364D-01 0.38937498D+05 0.38937498D+05 0.38937498D+05 0.12031894D+01  1  2 12  8  6  1       21 0.167285405048D-04 0.100000000000D+01
0.189240923926D-06 0.000000000000D+00 0.000000000000D+00 0.305928279919D-06 0.000000000000D+00  6 -4 -1 25 24 -2 -4 4 0.16437910D-01 0.59993364D-01 0.38937498D+05 0.38937498D+05 0.38937498D+05 0.12031894D+01  1  2 12  8  6  1       21 0.144616943358D-04 0.100000000000D+01
-.824159372921D-06 0.000000000000D+00 -.318800576655D-06 0.311809018353D-06 0.000000000000D+00  6 -3 -1 25 24 -2 -3 4 0.17311474D-01 0.59993364D-01 0.30131852D+05 0.30131852D+05 0.30131852D+05 0.12146986D+01  1  2  5  8  6  1       21 -.686136168056D-04 0.100000000000D+01
-.824159372921D-06 0.000000000000D+00 -.318800576655D-06 0.311809018353D-06 0.000000000000D+00  6 -4 -1 25 24 -2 -4 4 0.17311474D-01 0.59993364D-01 0.30131852D+05 0.30131852D+05 0.30131852D+05 0.12146986D+01  1  2  5  8  6  1       21 -.590567093911D-04 0.100000000000D+01
0.189240923926D-06 0.000000000000D+00 0.000000000000D+00 0.305928279919D-06 0.000000000000D+00  6 3 -1 25 24 3 -2 4 0.16437910D-01 0.59993364D-01 0.38937498D+05 0.38937498D+05 0.38937498D+05 0.12031894D+01  3  4 12  9  5  1       21 0.167267656337D-04 0.100000000000D+01
0.189240923926D-06 0.000000000000D+00 0.000000000000D+00 0.305928279919D-06 0.000000000000D+00  6 4 -1 25 24 4 -2 4 0.16437910D-01 0.59993364D-01 0.38937498D+05 0.38937498D+05 0.38937498D+05 0.12031894D+01  3  4 12  9  5  1       21 0.144616943358D-04 0.100000000000D+01
-.824159372921D-06 0.000000000000D+00 -.318800576655D-06 0.311809018353D-06 0.000000000000D+00  6 3 -1 25 24 3 -2 4 0.17311474D-01 0.59993364D-01 0.30131852D+05 0.30131852D+05 0.30131852D+05 0.12146986D+01  3  4  5  9  5  1       21 -.686064044743D-04 0.100000000000D+01
-.824159372921D-06 0.000000000000D+00 -.318800576655D-06 0.311809018353D-06 0.000000000000D+00  6 4 -1 25 24 4 -2 4 0.17311474D-01 0.59993364D-01 0.30131852D+05 0.30131852D+05 0.30131852D+05 0.12146986D+01  3  4  5  9  5  1       21 -.590567093911D-04 0.100000000000D+01
  </mgrwgt>
  </event>
  <event>
  5     66 0.48358521E-03 0.66506323E+02 0.75467711E-02 0.11736288E+00
       21 -1    0    0  501  502 0.00000000E+00 0.00000000E+00 0.74031601E+02 0.74035400E+02 0.75000000E+00 0.0000E+00 0.9000E+01
       -1 -1    0    0    0  501 -.00000000E+00 -.00000000E+00 -.47677832E+03 0.47677843E+03 0.32000000E+00 0.0000E+00 0.9000E+01
       25  1    1    2    0    0 0.68683414E+02 0.20172549E+02 -.11715129E+03 0.18567113E+03 0.12500000E+03 0.0000E+00 0.9000E+01
       24  1    1    2    0    0 0.23880590E+02 0.57630094E+02 -.16829081E+03 0.19667364E+03 0.80419002E+02 0.0000E+00 0.9000E+01
       -2  1    1    2    0  502 -.92564004E+02 -.77802642E+02 -.11730462E+03 0.16846905E+03 0.32000000E+00 0.0000E+00 0.9000E+01
#aMCatNLO 1  0  0  5  1 0.35723765D+02 0.00000000D+00  -5  6  0 0.00000000D+00 0.00000000D+00 0.00000000D+00 0.00000000D+00 0.00000000D+00
  <mgrwgt>
 0.1847803823D-01    7    2    0
 0.187876922750141D+03 0.000000000000000D+00 0.000000000000000D+00 0.187876922750141D+03
 0.187876922750141D+03 -.000000000000000D+00 -.000000000000000D+00 -.187876922750141D+03
 0.146606493167254D+03 0.686835396424812D+02 0.201726543917510D+02 0.272781824132524D+02
 0.107921759722213D+03 0.238806830197048D+02 0.576301714653213D+02 -.358938237383344D+02
 0.121225592610814D+03 -.925642226621860D+02 -.778028258570722D+02 0.861564132508200D+01
 0.000000000000000D+00 0.000000000000000D+00 -.000000000000000D+00 0.000000000000000D+00
 0.187876922750141D+03 0.000000000000000D+00 0.000000000000000D+00 0.187876922750141D+03
 0.187876922750141D+03 -.000000000000000D+00 -.000000000000000D+00 -.187876922750141D+03
 0.141720646137383D+03 0.592985525611597D+02 0.122843094723135D+02 0.281517130302412D+02
 0.103380211400169D+03 0.170028487859107D+02 0.518491588475349D+02 -.352536525021107D+02
 0.389130598634680D+02 -.226800864107514D+02 0.637344179524068D+01 0.309712632616329D+02
 0.917399280992618D+02 -.536213149363190D+02 -.705069101150890D+02 -.238693237897635D+02
0.902820165636D-05 0.000000000000D+00 0.000000000000D+00 0.237845242728D-06 0.000000000000D+00  6 21 -1 25 24 -2 21 2 0.11389778D-01 0.73350811D-01 0.33625168D+05 0.33625168D+05 0.33625168D+05 0.12097328D+01  1  2  2  3  6  5       -2 0.154910592188D-01 0.100000000000D+01
-.798364073268D-06 0.476431290617D-06 -.182253380040D-07 0.237845242728D-06 0.000000000000D+00  6 21 -1 25 24 -2 21 4 0.11389778D-01 0.73350811D-01 0.33625168D+05 0.33625168D+05 0.33625168D+05 0.12097328D+01  1  2  3  3  6  5       -2 -.200474783849D-02 0.100000000000D+01
0.992978898763D-06 0.000000000000D+00 0.000000000000D+00 0.237845242728D-06 0.000000000000D+00  6 21 -1 25 24 -2 21 4 0.11389778D-01 0.73350811D-01 0.33625168D+05 0.33625168D+05 0.33625168D+05 0.12097328D+01  1  2 15  3  6  5       -2 0.249343923107D-02 0.100000000000D+01
0.176761445057D-05 0.000000000000D+00 0.000000000000D+00 0.239693466932D-06 0.000000000000D+00  6 21 -1 25 24 -2 21 4 0.11389778D-01 0.73350811D-01 0.30314103D+05 0.30314103D+05 0.30314103D+05 0.12144239D+01  1  2 12  3  6  5       -2 0.451137903091D-02 0.100000000000D+01
-.193132719687D-05 0.000000000000D+00 0.000000000000D+00 0.237845242728D-06 0.000000000000D+00  6 21 -1 25 24 -2 21 4 0.11389778D-01 0.73350811D-01 0.33625168D+05 0.33625168D+05 0.33625168D+05 0.12097328D+01  1  2  4  3  6  5       -2 -.484969721583D-02 0.100000000000D+01
-.127170569169D-05 0.000000000000D+00 0.000000000000D+00 0.237845242728D-06 0.000000000000D+00  6 21 -1 25 24 -2 21 4 0.11389778D-01 0.73350811D-01 0.33625168D+05 0.33625168D+05 0.33625168D+05 0.12097328D+01  1  2  5  3  6  5       -2 -.319334163694D-02 0.100000000000D+01
0.240134609865D-05 0.000000000000D+00 -.000000000000D+00 0.237845242728D-06 0.000000000000D+00  6 21 -1 25 24 -2 21 4 0.11389778D-01 0.73350811D-01 0.33625168D+05 0.33625168D+05 0.33625168D+05 0.12097328D+01  1  2  6  3  6  5       -2 0.602994744120D-02 0.100000000000D+01
  </mgrwgt>
  </event>
  <event>
  5     66 -.48358521E-03 0.50722394E+02 0.75467711E-02 0.11427625E+00
       21 -1    0    0  501  502 0.00000000E+00 0.00000000E+00 0.10360393E+04 0.10360396E+04 0.75000000E+00 0.0000E+00 0.9000E+01
       -1 -1    0    0    0  501 0.00000000E+00 0.00000000E+00 -.12036727E+03 0.12036770E+03 0.32000000E+00 0.0000E+00 0.9000E+01
       25  1    1    2    0    0 -.11851300E+03 -.98742435E+02 0.74433105E+02 0.21203935E+03 0.12500000E+03 0.0000E+00 0.9000E+01
       24  1    1    2    0    0 0.71300605E+02 0.80201965E+02 0.37797517E+02 0.13932695E+03 0.80419002E+02 0.0000E+00 0.9000E+01
       -2  1    1    2    0  502 0.47212394E+02 0.18540470E+02 0.80344144E+03 0.80504100E+03 0.32000000E+00 0.0000E+00 0.9000E+01
#aMCatNLO 1  0  0  5  1 0.29512329D+02 0.00000000D+00  -5  6  0 0.00000000D+00 0.00000000D+00 0.00000000D+00 0.00000000D+00 0.00000000D+00
  <mgrwgt>
 -.1453043504D-01    6    2    0
 0.353136844247624D+03 0.000000000000000D+00 0.000000000000000D+00 0.353136844247624D+03
 0.353136844247624D+03 -.000000000000000D+00 -.000000000000000D+00 -.353136844247624D+03
 0.250678419665121D+03 -.118513009787279D+03 -.987424393447868D+02 -.153033549489006D+03
 0.179121203832073D+03 0.713005970059196D+02 0.802019619770240D+02 -.118747883642262D+03
 0.276474064998053D+03 0.472124127813589D+02 0.185404773677628D+02 0.271781433131267D+03
 0.000000000000000D+00 0.000000000000000D+00 0.000000000000000D+00 0.000000000000000D+00
 0.353136844247624D+03 0.000000000000000D+00 0.000000000000000D+00 0.353136844247624D+03
 0.353136844247624D+03 -.000000000000000D+00 -.000000000000000D+00 -.353136844247624D+03
 0.248423426161574D+03 -.117966058722795D+03 -.985276497749485D+02 -.149884988858425D+03
 0.177862977122677D+03 0.716918054925436D+02 0.803555908992720D+02 -.116495865647753D+03
 0.213952548941649D+03 0.377399015094603D+02 0.435941397568073D+02 0.206036268679931D+03
 0.660347362693473D+02 0.853435172079076D+01 -.254220808811308D+02 0.603445858262473D+02
0.811176552057D-04 0.000000000000D+00 0.000000000000D+00 0.304702401135D-05 0.000000000000D+00  6 21 -1 25 24 -2 21 2 0.15939072D+00 0.18518095D-01 0.36743161D+05 0.36743161D+05 0.36743161D+05 0.12057639D+01  1  2  2  3  6  5       -2 0.620898567957D-02 0.100000000000D+01
0.149413032986D-04 0.428069627069D-05 -.163753174828D-06 0.304702401135D-05 0.000000000000D+00  6 21 -1 25 24 -2 21 4 0.15939072D+00 0.18518095D-01 0.36743161D+05 0.36743161D+05 0.36743161D+05 0.12057639D+01  1  2  3  3  6  5       -2 0.166271682641D-02 0.100000000000D+01
0.840914004087D-05 0.000000000000D+00 0.000000000000D+00 0.304702401135D-05 0.000000000000D+00  6 21 -1 25 24 -2 21 4 0.15939072D+00 0.18518095D-01 0.36743161D+05 0.36743161D+05 0.36743161D+05 0.12057639D+01  1  2 15  3  6  5       -2 0.935796453770D-03 0.100000000000D+01
-.290953369890D-03 0.000000000000D+00 0.000000000000D+00 0.304702401135D-05 0.000000000000D+00  6 21 -1 25 24 -2 21 4 0.15939072D+00 0.18518095D-01 0.36743161D+05 0.36743161D+05 0.36743161D+05 0.12057639D+01  1  2  4  3  6  5       -2 -.323782373028D-01 0.100000000000D+01
-.305012525185D-03 0.000000000000D+00 0.000000000000D+00 0.304702401135D-05 0.000000000000D+00  6 21 -1 25 24 -2 21 4 0.15939072D+00 0.18518095D-01 0.36743161D+05 0.36743161D+05 0.36743161D+05 0.12057639D+01  1  2  5  3  6  5       -2 -.339427858302D-01 0.100000000000D+01
0.386249396947D-03 0.000000000000D+00 -.000000000000D+00 0.304702401135D-05 0.000000000000D+00  6 21 -1 25 24 -2 21 4 0.15939072D+00 0.18518095D-01 0.36743161D+05 0.36743161D+05 0.36743161D+05 0.12057639D+01  1  2  6  3  6  5       -2 0.429830891360D-01 0.100000000000D+01
  </mgrwgt>
  </event>
  <event>
  5     66 -.48358521E-03 0.20587282E+02 0.75467711E-02 0.11960072E+00
       21 -1    0    0  501  502 0.00000000E+00 0.00000000E+00 0.13595209E+03 0.13595416E+03 0.75000000E+00 0.0000E+00 0.9000E+01
       -1 -1    0    0    0  501 0.00000000E+00 0.00000000E+00 -.20178582E+03 0.20178607E+03 0.32000000E+00 0.0000E+00 0.9000E+01
       25  1    1    2    0    0 0.64435129E+02 0.55148175E+02 -.10338059E+03 0.18304577E+03 0.12500000E+03 0.0000E+00 0.9000E+01
       24  1    1    2    0    0 -.67841142E+02 -.75449762E+02 0.33054088E+02 0.13362214E+03 0.80419002E+02 0.0000E+00 0.9000E+01
       -2  1    1    2    0  502 0.34060128E+01 0.20301587E+02 0.44927717E+01 0.21072322E+02 0.32000000E+00 0.0000E+00 0.9000E+01
#aMCatNLO 1  0  0  1  5 0.62018238D+01 0.00000000D+00  -5  6  0 0.00000000D+00 0.00000000D+00 0.00000000D+00 0.00000000D+00 0.00000000D+00
  <mgrwgt>
 -.6847121291D-01   41    4    0
 0.165630901272703D+03 0.000000000000000D+00 0.000000000000000D+00 0.165630901272703D+03
 0.165630901272703D+03 0.000000000000000D+00 0.000000000000000D+00 -.165630901272703D+03
 0.166079863057562D+03 0.644349545366794D+02 0.551471339506634D+02 -.690250039051231D+02
 0.142804788165083D+03 -.678412921182174D+02 -.754506565568036D+02 0.602556974682200D+02
 0.223771513227613D+02 0.340633758153798D+01 0.203035226061402D+02 0.876930643690317D+01
 0.000000000000000D+00 0.000000000000000D+00 0.000000000000000D+00 0.000000000000000D+00
 0.328314207973674D+03 0.000000000000000D+00 0.000000000000000D+00 0.328314207973674D+03
 0.165719043218640D+03 0.000000000000000D+00 0.000000000000000D+00 -.165719043218640D+03
 0.164718861906408D+03 0.633484754942044D+02 0.522477076645480D+02 -.690250039051231D+02
 0.144598244130361D+03 -.687852418609704D+02 -.779697228157121D+02 0.602556974682200D+02
 0.220027461366321D+02 0.326057574856214D+01 0.199145360969483D+02 0.876930643690317D+01
 0.162713399018914D+03 0.217619061820380D+01 0.580747905421578D+01 0.162595164755033D+03
 0.165630901272703D+03 0.000000000000000D+00 0.000000000000000D+00 0.165630901272703D+03
 0.165630901272703D+03 0.000000000000000D+00 0.000000000000000D+00 -.165630901272703D+03
 0.166079863057562D+03 0.644349545366794D+02 0.551471339506634D+02 -.690250039051231D+02
 0.142804788165083D+03 -.678412921182174D+02 -.754506565568036D+02 0.602556974682200D+02
 0.000000000000000D+00 0.000000000000000D+00 0.000000000000000D+00 0.000000000000000D+00
 0.223771513227613D+02 0.340633758153798D+01 0.203035226061402D+02 0.876930643690317D+01
 0.328314207973674D+03 0.000000000000000D+00 0.000000000000000D+00 0.328314207973674D+03
 0.165719043218640D+03 0.000000000000000D+00 0.000000000000000D+00 -.165719043218640D+03
 0.164718861906408D+03 0.633484754942044D+02 0.522477076645480D+02 -.690250039051231D+02
 0.144598244130361D+03 -.687852418609704D+02 -.779697228157121D+02 0.602556974682200D+02
 0.162713399018914D+03 0.217619061820380D+01 0.580747905421578D+01 0.162595164755033D+03
 0.220027461366321D+02 0.326057574856214D+01 0.199145360969483D+02 0.876930643690317D+01
0.660198668576D-06 0.000000000000D+00 0.000000000000D+00 0.630198712949D-06 0.000000000000D+00  6 21 -1 25 24 -2 21 2 0.20915884D-01 0.31044151D-01 0.22667366D+05 0.22667366D+05 0.22667366D+05 0.12278848D+01  1  2  2  1  6  1       21 0.186364199793D-02 0.100000000000D+01
0.603381451482D-07 0.348396409059D-07 -.133275090019D-08 0.630198712949D-06 0.000000000000D+00  6 21 -1 25 24 -2 21 4 0.20915884D-01 0.31044151D-01 0.22667366D+05 0.22667366D+05 0.22667366D+05 0.12278848D+01  1  2  3  1  6  1       21 0.256800015138D-03 0.100000000000D+01
0.669837319207D-07 0.000000000000D+00 0.000000000000D+00 0.630198712949D-06 0.000000000000D+00  6 21 -1 25 24 -2 21 4 0.20915884D-01 0.31044151D-01 0.22667366D+05 0.22667366D+05 0.22667366D+05 0.12278848D+01  1  2 15  1  6  1       21 0.285083728195D-03 0.100000000000D+01
0.237959932229D-03 0.000000000000D+00 0.000000000000D+00 0.628211565621D-06 0.000000000000D+00  6 21 -1 25 24 -2 21 4 0.41459680D-01 0.31044151D-01 0.23621510D+05 0.23621510D+05 0.23621510D+05 0.12259474D+01  1  2 12  1  6  1       21 0.267630434759D+00 0.100000000000D+01
0.236729778033D-03 0.000000000000D+00 0.000000000000D+00 0.628211565621D-06 0.000000000000D+00  6 21 -1 25 24 -2 21 4 0.41631621D-01 0.31044151D-01 0.23621510D+05 0.23621510D+05 0.23621510D+05 0.12259474D+01  1  2 12  1  6  1       21 0.264031215161D+00 0.100000000000D+01
-.298645779014D-03 0.000000000000D+00 0.000000000000D+00 0.630198712949D-06 0.000000000000D+00  6 21 -1 25 24 -2 21 4 0.20915884D-01 0.31044151D-01 0.22667366D+05 0.22667366D+05 0.22667366D+05 0.12278848D+01  1  2  4  1  6  1       21 -.127104073854D+01 0.100000000000D+01
-.569545545429D-03 0.000000000000D+00 -.913484691089D-06 0.630198712949D-06 0.000000000000D+00  6 21 -1 25 24 -2 21 4 0.41466758D-01 0.31044151D-01 0.22667366D+05 0.22667366D+05 0.22667366D+05 0.12278848D+01  1  2  5  1  6  1       21 -.644785738784D+00 0.100000000000D+01
0.287310156460D-03 0.000000000000D+00 0.413150826606D-06 0.630198712949D-06 0.000000000000D+00  6 21 -1 25 24 -2 21 4 0.20915884D-01 0.31044151D-01 0.22667366D+05 0.22667366D+05 0.22667366D+05 0.12278848D+01  1  2  6  1  6  1       21 0.122279616562D+01 0.100000000000D+01
0.843612765965D-04 0.000000000000D+00 0.000000000000D+00 0.630198712949D-06 0.527628835629D-06  6 21 -1 25 24 -2 21 4 0.41459546D-01 0.31060671D-01 0.23621510D+05 0.23621510D+05 0.23621510D+05 0.12259474D+01  1  2 11  1  6  1       21 0.947952381202D-01 0.100000000000D+01
0.525653422944D-04 0.000000000000D+00 0.000000000000D+00 0.628211565621D-06 0.000000000000D+00  6 -1 -1 25 24 -2 -1 4 0.41459680D-01 0.31044151D-01 0.23621510D+05 0.23621510D+05 0.23621510D+05 0.12259474D+01  1  2 12  4  6  1       21 0.556706682735D-02 0.100000000000D+01
0.526229265112D-04 0.000000000000D+00 0.000000000000D+00 0.628211565621D-06 0.000000000000D+00  6 -1 -1 25 24 -2 -1 4 0.41631621D-01 0.31044151D-01 0.23621510D+05 0.23621510D+05 0.23621510D+05 0.12259474D+01  1  2 12  4  6  1       21 0.553249271748D-02 0.100000000000D+01
-.125796375104D-03 0.000000000000D+00 -.222771134186D-06 0.630198712949D-06 0.000000000000D+00  6 -1 -1 25 24 -2 -1 4 0.41466758D-01 0.31044151D-01 0.22667366D+05 0.22667366D+05 0.22667366D+05 0.12278848D+01  1  2  5  4  6  1       21 -.133995545329D-01 0.100000000000D+01
0.168739704327D-04 0.000000000000D+00 0.000000000000D+00 0.630198712949D-06 0.105169903887D-06  6 -1 -1 25 24 -2 -1 4 0.41459546D-01 0.31060671D-01 0.23621510D+05 0.23621510D+05 0.23621510D+05 0.12259474D+01  1  2 11  4  6  1       21 0.178548246093D-02 0.100000000000D+01
0.525653422944D-04 0.000000000000D+00 0.000000000000D+00 0.628211565621D-06 0.000000000000D+00  6 1 -1 25 24 1 -2 4 0.41459680D-01 0.31044151D-01 0.23621510D+05 0.23621510D+05 0.23621510D+05 0.12259474D+01  3  4 12  5  5  1       21 0.114312308752D-01 0.100000000000D+01
0.526229265112D-04 0.000000000000D+00 0.000000000000D+00 0.628211565621D-06 0.000000000000D+00  6 1 -1 25 24 1 -2 4 0.41631621D-01 0.31044151D-01 0.23621510D+05 0.23621510D+05 0.23621510D+05 0.12259474D+01  3  4 12  5  5  1       21 0.113851689020D-01 0.100000000000D+01
-.125796375104D-03 0.000000000000D+00 -.222771134186D-06 0.630198712949D-06 0.000000000000D+00  6 1 -1 25 24 1 -2 4 0.41466758D-01 0.31044151D-01 0.22667366D+05 0.22667366D+05 0.22667366D+05 0.12278848D+01  3  4  5  5  5  1       21 -.275155599593D-01 0.100000000000D+01
0.168597241950D-04 0.000000000000D+00 0.000000000000D+00 0.630198712949D-06 0.105079081459D-06  6 1 -1 25 24 1 -2 4 0.41459546D-01 0.31060671D-01 0.23621510D+05 0.23621510D+05 0.23621510D+05 0.12259474D+01  3  4 11  5  5  1       21 0.366314906488D-02 0.100000000000D+01
0.525653422944D-04 0.000000000000D+00 0.000000000000D+00 0.628211565621D-06 0.000000000000D+00  6 -2 -1 25 24 -2 -2 4 0.41459680D-01 0.31044151D-01 0.23621510D+05 0.23621510D+05 0.23621510D+05 0.12259474D+01  1  2 12  6  6  1       21 0.468494618549D-02 0.100000000000D+01
0.526229265112D-04 0.000000000000D+00 0.000000000000D+00 0.628211565621D-06 0.000000000000D+00  6 -2 -1 25 24 -2 -2 4 0.41631621D-01 0.31044151D-01 0.23621510D+05 0.23621510D+05 0.23621510D+05 0.12259474D+01  1  2 12  6  6  1       21 0.465313432900D-02 0.100000000000D+01
-.125796375104D-03 0.000000000000D+00 -.222771134186D-06 0.630198712949D-06 0.000000000000D+00  6 -2 -1 25 24 -2 -2 4 0.41466758D-01 0.31044151D-01 0.22667366D+05 0.22667366D+05 0.22667366D+05 0.12278848D+01  1  2  5  6  6  1       21 -.112749208192D-01 0.100000000000D+01
0.167651046130D-04 0.000000000000D+00 0.000000000000D+00 0.630198712949D-06 0.522888013389D-07  6 -2 -1 25 24 -2 -2 4 0.41459546D-01 0.31060671D-01 0.23621510D+05 0.23621510D+05 0.23621510D+05 0.12259474D+01  1  2 11  6  6  1       21 0.149287326803D-02 0.100000000000D+01
0.525653422944D-04 0.000000000000D+00 0.000000000000D+00 0.628211565621D-06 0.000000000000D+00  6 2 -1 25 24 2 -2 4 0.41459680D-01 0.31044151D-01 0.23621510D+05 0.23621510D+05 0.23621510D+05 0.12259474D+01  3  4 12  7  5  1       21 0.158577191270D-01 0.100000000000D+01
0.526229265112D-04 0.000000000000D+00 0.000000000000D+00 0.628211565621D-06 0.000000000000D+00  6 2 -1 25 24 2 -2 4 0.41631621D-01 0.31044151D-01 0.23621510D+05 0.23621510D+05 0.23621510D+05 0.12259474D+01  3  4 12  7  5  1       21 0.158052611351D-01 0.100000000000D+01
-.125796375104D-03 0.000000000000D+00 -.222771134186D-06 0.630198712949D-06 0.000000000000D+00  6 2 -1 25 24 2 -2 4 0.41466758D-01 0.31044151D-01 0.22667366D+05 0.22667366D+05 0.22667366D+05 0.12278848D+01  3  4  5  7  5  1       21 -.381669768357D-01 0.100000000000D+01
0.171561928443D-04 0.000000000000D+00 0.000000000000D+00 0.630198712949D-06 0.107209257828D-06  6 2 -1 25 24 2 -2 4 0.41459546D-01 0.31060671D-01 0.23621510D+05 0.23621510D+05 0.23621510D+05 0.12259474D+01  3  4 11  7  5  1       21 0.517097604325D-02 0.100000000000D+01
0.525653422944D-04 0.000000000000D+00 0.000000000000D+00 0.628211565621D-06 0.000000000000D+00  6 -3 -1 25 24 -2 -3 4 0.41459680D-01 0.31044151D-01 0.23621510D+05 0.23621510D+05 0.23621510D+05 0.12259474D+01  1  2 12  8  6  1       21 0.295307823643D-02 0.100000000000D+01
0.525653422944D-04 0.000000000000D+00 0.000000000000D+00 0.628211565621D-06 0.000000000000D+00  6 -4 -1 25 24 -2 -4 4 0.41459680D-01 0.31044151D-01 0.23621510D+05 0.23621510D+05 0.23621510D+05 0.12259474D+01  1  2 12  8  6  1       21 0.244926887867D-02 0.100000000000D+01
0.526229265112D-04 0.000000000000D+00 0.000000000000D+00 0.628211565621D-06 0.000000000000D+00  6 -3 -1 25 24 -2 -3 4 0.41631621D-01 0.31044151D-01 0.23621510D+05 0.23621510D+05 0.23621510D+05 0.12259474D+01  1  2 12  8  6  1       21 0.293263695984D-02 0.100000000000D+01
0.526229265112D-04 0.000000000000D+00 0.000000000000D+00 0.628211565621D-06 0.000000000000D+00  6 -4 -1 25 24 -2 -4 4 0.41631621D-01 0.31044151D-01 0.23621510D+05 0.23621510D+05 0.23621510D+05 0.12259474D+01  1  2 12  8  6  1       21 0.243189979310D-02 0.100000000000D+01
-.125796375104D-03 0.000000000000D+00 -.222771134186D-06 0.630198712949D-06 0.000000000000D+00  6 -3 -1 25 24 -2 -3 4 0.41466758D-01 0.31044151D-01 0.22667366D+05 0.22667366D+05 0.22667366D+05 0.12278848D+01  1  2  5  8  6  1       21 -.710051200574D-02 0.100000000000D+01
-.125796375104D-03 0.000000000000D+00 -.222771134186D-06 0.630198712949D-06 0.000000000000D+00  6 -4 -1 25 24 -2 -4 4 0.41466758D-01 0.31044151D-01 0.22667366D+05 0.22667366D+05 0.22667366D+05 0.12278848D+01  1  2  5  8  6  1       21 -.588637044069D-02 0.100000000000D+01
0.168687612011D-04 0.000000000000D+00 0.000000000000D+00 0.630198712949D-06 0.105135405055D-06  6 -3 -1 25 24 -2 -3 4 0.41459546D-01 0.31060671D-01 0.23621510D+05 0.23621510D+05 0.23621510D+05 0.12259474D+01  1  2 11  8  6  1       21 0.946826174732D-03 0.100000000000D+01
0.168687612011D-04 0.000000000000D+00 0.000000000000D+00 0.630198712949D-06 0.105135405055D-06  6 -4 -1 25 24 -2 -4 4 0.41459546D-01 0.31060671D-01 0.23621510D+05 0.23621510D+05 0.23621510D+05 0.12259474D+01  1  2 11  8  6  1       21 0.785293177407D-03 0.100000000000D+01
0.525653422944D-04 0.000000000000D+00 0.000000000000D+00 0.628211565621D-06 0.000000000000D+00  6 3 -1 25 24 3 -2 4 0.41459680D-01 0.31044151D-01 0.23621510D+05 0.23621510D+05 0.23621510D+05 0.12259474D+01  3  4 12  9  5  1       21 0.295374528579D-02 0.100000000000D+01
0.525653422944D-04 0.000000000000D+00 0.000000000000D+00 0.628211565621D-06 0.000000000000D+00  6 4 -1 25 24 4 -2 4 0.41459680D-01 0.31044151D-01 0.23621510D+05 0.23621510D+05 0.23621510D+05 0.12259474D+01  3  4 12  9  5  1       21 0.244926887867D-02 0.100000000000D+01
0.526229265112D-04 0.000000000000D+00 0.000000000000D+00 0.628211565621D-06 0.000000000000D+00  6 3 -1 25 24 3 -2 4 0.41631621D-01 0.31044151D-01 0.23621510D+05 0.23621510D+05 0.23621510D+05 0.12259474D+01  3  4 12  9  5  1       21 0.293330980526D-02 0.100000000000D+01
0.526229265112D-04 0.000000000000D+00 0.000000000000D+00 0.628211565621D-06 0.000000000000D+00  6 4 -1 25 24 4 -2 4 0.41631621D-01 0.31044151D-01 0.23621510D+05 0.23621510D+05 0.23621510D+05 0.12259474D+01  3  4 12  9  5  1       21 0.243189979310D-02 0.100000000000D+01
-.125796375104D-03 0.000000000000D+00 -.222771134186D-06 0.630198712949D-06 0.000000000000D+00  6 3 -1 25 24 3 -2 4 0.41466758D-01 0.31044151D-01 0.22667366D+05 0.22667366D+05 0.22667366D+05 0.12278848D+01  3  4  5  9  5  1       21 -.710211108905D-02 0.100000000000D+01
-.125796375104D-03 0.000000000000D+00 -.222771134186D-06 0.630198712949D-06 0.000000000000D+00  6 4 -1 25 24 4 -2 4 0.41466758D-01 0.31044151D-01 0.22667366D+05 0.22667366D+05 0.22667366D+05 0.12278848D+01  3  4  5  9  5  1       21 -.588637044069D-02 0.100000000000D+01
0.168687612011D-04 0.000000000000D+00 0.000000000000D+00 0.630198712949D-06 0.105135405055D-06  6 3 -1 25 24 3 -2 4 0.41459546D-01 0.31060671D-01 0.23621510D+05 0.23621510D+05 0.23621510D+05 0.12259474D+01  3  4 11  9  5  1       21 0.947040043805D-03 0.100000000000D+01
0.168687612011D-04 0.000000000000D+00 0.000000000000D+00 0.630198712949D-06 0.105135405055D-06  6 4 -1 25 24 4 -2 4 0.41459546D-01 0.31060671D-01 0.23621510D+05 0.23621510D+05 0.23621510D+05 0.12259474D+01  3  4 11  9  5  1       21 0.785293177407D-03 0.100000000000D+01
  </mgrwgt>
  </event>
  <event>
  5     66 0.48358521E-03 0.41039705E+02 0.75467711E-02 0.12022024E+00
       21 -1    0    0  501  502 0.00000000E+00 0.00000000E+00 0.21327597E+03 0.21327728E+03 0.75000000E+00 0.0000E+00 0.9000E+01
       -1 -1    0    0    0  501 0.00000000E+00 0.00000000E+00 -.11945815E+03 0.11945858E+03 0.32000000E+00 0.0000E+00 0.9000E+01
       25  1    1    2    0    0 -.23176986E+01 0.48154977E+02 0.99312414E+02 0.16676999E+03 0.12500000E+03 0.0000E+00 0.9000E+01
       24  1    1    2    0    0 -.26778830E+02 -.19213725E+02 -.54083095E+02 0.10236440E+03 0.80419002E+02 0.0000E+00 0.9000E+01
       -2  1    1    2    0  502 0.29096528E+02 -.28941252E+02 0.48588494E+02 0.63601479E+02 0.32000000E+00 0.0000E+00 0.9000E+01
#aMCatNLO 1  0  0  2  1 0.34072606D+02 0.00000000D+00  -5  6  0 0.00000000D+00 0.00000000D+00 0.00000000D+00 0.00000000D+00 0.00000000D+00
  <mgrwgt>
 0.1624650419D-01    4    2    0
 0.159617804894078D+03 0.000000000000000D+00 0.000000000000000D+00 0.159617804894078D+03
 0.159617804894078D+03 0.000000000000000D+00 0.000000000000000D+00 -.159617804894078D+03
 0.144636363807261D+03 -.231794806776331D+01 0.481552250923694D+02 0.545011848352369D+02
 0.122587580213145D+03 -.267790410893777D+02 -.192135146593209D+02 -.864535868597323D+02
 0.520116657677504D+02 0.290969891571410D+02 -.289417104330485D+02 0.319524020244954D+02
 0.000000000000000D+00 0.000000000000000D+00 -.000000000000000D+00 0.000000000000000D+00
 0.207095488086272D+03 0.000000000000000D+00 0.000000000000000D+00 0.207095488086272D+03
 0.166756485765191D+03 0.000000000000000D+00 0.000000000000000D+00 -.166756485765191D+03
 0.149983585803993D+03 -.104327662962472D+02 0.615699135096584D+02 0.545011848352369D+02
 0.123008565299450D+03 -.335435798827645D+02 -.803098688791306D+01 -.864535868597323D+02
 0.480566256733334D+02 0.263407739159436D+02 -.243853830292054D+02 0.319524020244954D+02
 0.528031970746870D+02 0.176355722630681D+02 -.291535435925399D+02 0.403390023210815D+02
0.508465447209D-05 0.000000000000D+00 0.000000000000D+00 0.457793129575D-06 0.000000000000D+00  6 21 -1 25 24 -2 21 2 0.32811821D-01 0.18378312D-01 0.17151245D+05 0.17151245D+05 0.17151245D+05 0.12412413D+01  1  2  2  2  6  2       -1 0.146691676595D-01 0.100000000000D+01
-.333296802336D-07 0.268324588294D-06 -.102644524253D-07 0.457793129575D-06 0.000000000000D+00  6 21 -1 25 24 -2 21 4 0.32811821D-01 0.18378312D-01 0.17151245D+05 0.17151245D+05 0.17151245D+05 0.12412413D+01  1  2  3  2  6  2       -1 -.148145201101D-03 0.100000000000D+01
0.531206428250D-06 0.000000000000D+00 0.000000000000D+00 0.457793129575D-06 0.000000000000D+00  6 21 -1 25 24 -2 21 4 0.32811821D-01 0.18378312D-01 0.17151245D+05 0.17151245D+05 0.17151245D+05 0.12412413D+01  1  2 15  2  6  2       -1 0.236112925739D-02 0.100000000000D+01
-.143007863767D-06 0.000000000000D+00 0.000000000000D+00 0.457793129575D-06 0.000000000000D+00  6 21 -1 25 24 -2 21 4 0.32811821D-01 0.18378312D-01 0.17151245D+05 0.17151245D+05 0.17151245D+05 0.12412413D+01  1  2  4  2  6  2       -1 -.635647524615D-03 0.100000000000D+01
  </mgrwgt>
  </event>
  <event>
  5     66 0.48358521E-03 0.33865312E+02 0.75467711E-02 0.12091683E+00
       21 -1    0    0  501  502 0.00000000E+00 0.00000000E+00 0.83412910E+01 0.83749409E+01 0.75000000E+00 0.0000E+00 0.9000E+01
       -1 -1    0    0    0  501 0.00000000E+00 0.00000000E+00 -.26007539E+04 0.26007539E+04 0.32000000E+00 0.0000E+00 0.9000E+01
       25  1    1    2    0    0 -.53812572E+02 0.53396714E+02 -.15910295E+04 0.15977318E+04 0.12500000E+03 0.0000E+00 0.9000E+01
       24  1    1    2    0    0 0.28479477E+02 -.30923816E+02 -.45473126E+03 0.46369721E+03 0.80419002E+02 0.0000E+00 0.9000E+01
       -2  1    1    2    0  502 0.25333094E+02 -.22472899E+02 -.54665177E+03 0.54769978E+03 0.32000000E+00 0.0000E+00 0.9000E+01
#aMCatNLO 1  0  0  1  5 0.15261972D+02 0.00000000D+00  -5  6  0 0.00000000D+00 0.00000000D+00 0.00000000D+00 0.00000000D+00 0.00000000D+00
  <mgrwgt>
 0.8329628276D-02   32    4    0
 0.147436659303281D+03 0.000000000000000D+00 0.000000000000000D+00 0.147436659303281D+03
 0.147436659303281D+03 0.000000000000000D+00 0.000000000000000D+00 -.147436659303281D+03
 0.149498931808115D+03 -.538129772836760D+02 0.533970741267236D+02 -.312705382483138D+02
 0.105111913666460D+03 0.284791922611812D+02 -.309235625481566D+02 0.530468408836547D+02
 0.402624731319863D+02 0.253337850224948D+02 -.224735115785670D+02 -.217763026353409D+02
 0.000000000000000D+00 0.000000000000000D+00 0.000000000000000D+00 0.000000000000000D+00
 0.184461055144532D+03 0.000000000000000D+00 0.000000000000000D+00 0.184461055144532D+03
 0.149215236265767D+03 0.000000000000000D+00 0.000000000000000D+00 -.149215236265767D+03
 0.151127493275123D+03 -.609224889112870D+02 0.502506020475094D+02 -.312705382483138D+02
 0.104552448919999D+03 0.235208416328512D+02 -.331179906085039D+02 0.530468408836547D+02
 0.395880747414590D+02 0.234454001327760D+02 -.233092582010543D+02 -.217763026353409D+02
 0.384082744737194D+02 0.139562471456598D+02 0.617664676204868D+01 0.352458188787649D+02
 0.147436659303281D+03 0.000000000000000D+00 0.000000000000000D+00 0.147436659303281D+03
 0.147436659303281D+03 0.000000000000000D+00 0.000000000000000D+00 -.147436659303281D+03
 0.149498931808115D+03 -.538129772836760D+02 0.533970741267236D+02 -.312705382483138D+02
 0.105111913666460D+03 0.284791922611812D+02 -.309235625481566D+02 0.530468408836547D+02
 0.000000000000000D+00 0.000000000000000D+00 0.000000000000000D+00 0.000000000000000D+00
 0.402624731319863D+02 0.253337850224948D+02 -.224735115785670D+02 -.217763026353409D+02
 0.184461055144532D+03 0.000000000000000D+00 0.000000000000000D+00 0.184461055144532D+03
 0.149215236265767D+03 0.000000000000000D+00 0.000000000000000D+00 -.149215236265767D+03
 0.151127493275123D+03 -.609224889112870D+02 0.502506020475094D+02 -.312705382483138D+02
 0.104552448919999D+03 0.235208416328512D+02 -.331179906085039D+02 0.530468408836547D+02
 0.384082744737194D+02 0.139562471456598D+02 0.617664676204868D+01 0.352458188787649D+02
 0.395880747414590D+02 0.234454001327760D+02 -.233092582010543D+02 -.217763026353409D+02
0.866661845216D-05 0.000000000000D+00 0.000000000000D+00 0.274232942903D-06 0.000000000000D+00  6 21 -1 25 24 -2 21 2 0.12858655D-02 0.40011857D+00 0.18333385D+05 0.18333385D+05 0.18333385D+05 0.12380079D+01  1  2  2  1  6  1       21 0.290957570563D-02 0.100000000000D+01
-.436455356138D-06 0.457350020703D-06 -.174954056914D-07 0.274232942903D-06 0.000000000000D+00  6 21 -1 25 24 -2 21 4 0.12858655D-02 0.40011857D+00 0.18333385D+05 0.18333385D+05 0.18333385D+05 0.12380079D+01  1  2  3  1  6  1       21 -.224577714043D-03 0.100000000000D+01
0.879080602143D-06 0.000000000000D+00 0.000000000000D+00 0.274232942903D-06 0.000000000000D+00  6 21 -1 25 24 -2 21 4 0.12858655D-02 0.40011857D+00 0.18333385D+05 0.18333385D+05 0.18333385D+05 0.12380079D+01  1  2 15  1  6  1       21 0.452330139413D-03 0.100000000000D+01
0.724034509213D-04 0.000000000000D+00 0.000000000000D+00 0.271875066571D-06 0.000000000000D+00  6 21 -1 25 24 -2 21 4 0.16152035D-02 0.40011857D+00 0.20488394D+05 0.20488394D+05 0.20488394D+05 0.12326742D+01  1  2 12  1  6  1       21 0.253617244086D-01 0.100000000000D+01
0.660163715878D-04 0.000000000000D+00 0.000000000000D+00 0.271875066571D-06 0.000000000000D+00  6 21 -1 25 24 -2 21 4 0.16466301D-02 0.40011857D+00 0.20488394D+05 0.20488394D+05 0.20488394D+05 0.12326742D+01  1  2 12  1  6  1       21 0.224200166579D-01 0.100000000000D+01
-.122179816397D-03 0.000000000000D+00 0.000000000000D+00 0.274232942903D-06 0.000000000000D+00  6 21 -1 25 24 -2 21 4 0.12858655D-02 0.40011857D+00 0.18333385D+05 0.18333385D+05 0.18333385D+05 0.12380079D+01  1  2  4  1  6  1       21 -.628675155040D-01 0.100000000000D+01
-.171694028534D-03 0.000000000000D+00 -.144442781742D-04 0.274232942903D-06 0.000000000000D+00  6 21 -1 25 24 -2 21 4 0.16320535D-02 0.40011857D+00 0.18333385D+05 0.18333385D+05 0.18333385D+05 0.12380079D+01  1  2  5  1  6  1       21 -.603741358863D-01 0.100000000000D+01
0.157148774803D-03 0.000000000000D+00 0.129258000995D-04 0.274232942903D-06 0.000000000000D+00  6 21 -1 25 24 -2 21 4 0.12858655D-02 0.40011857D+00 0.18333385D+05 0.18333385D+05 0.18333385D+05 0.12380079D+01  1  2  6  1  6  1       21 0.808607618479D-01 0.100000000000D+01
0.486967113393D-05 0.000000000000D+00 0.000000000000D+00 0.271875066571D-06 0.000000000000D+00  6 -1 -1 25 24 -2 -1 4 0.16152035D-02 0.40011857D+00 0.20488394D+05 0.20488394D+05 0.20488394D+05 0.12326742D+01  1  2 12  4  6  1       21 0.793150622284D-04 0.100000000000D+01
0.490247463152D-05 0.000000000000D+00 0.000000000000D+00 0.271875066571D-06 0.000000000000D+00  6 -1 -1 25 24 -2 -1 4 0.16466301D-02 0.40011857D+00 0.20488394D+05 0.20488394D+05 0.20488394D+05 0.12326742D+01  1  2 12  4  6  1       21 0.776658670895D-04 0.100000000000D+01
-.114062500790D-04 0.000000000000D+00 -.102568511471D-05 0.274232942903D-06 0.000000000000D+00  6 -1 -1 25 24 -2 -1 4 0.16320535D-02 0.40011857D+00 0.18333385D+05 0.18333385D+05 0.18333385D+05 0.12380079D+01  1  2  5  4  6  1       21 -.186514931141D-03 0.100000000000D+01
0.486967113393D-05 0.000000000000D+00 0.000000000000D+00 0.271875066571D-06 0.000000000000D+00  6 1 -1 25 24 1 -2 4 0.16152035D-02 0.40011857D+00 0.20488394D+05 0.20488394D+05 0.20488394D+05 0.12326742D+01  3  4 12  5  5  1       21 0.825838376310D-04 0.100000000000D+01
0.490247463152D-05 0.000000000000D+00 0.000000000000D+00 0.271875066571D-06 0.000000000000D+00  6 1 -1 25 24 1 -2 4 0.16466301D-02 0.40011857D+00 0.20488394D+05 0.20488394D+05 0.20488394D+05 0.12326742D+01  3  4 12  5  5  1       21 0.809283673033D-04 0.100000000000D+01
-.114062500790D-04 0.000000000000D+00 -.102568511471D-05 0.274232942903D-06 0.000000000000D+00  6 1 -1 25 24 1 -2 4 0.16320535D-02 0.40011857D+00 0.18333385D+05 0.18333385D+05 0.18333385D+05 0.12380079D+01  3  4  5  5  5  1       21 -.194303694872D-03 0.100000000000D+01
0.486967113393D-05 0.000000000000D+00 0.000000000000D+00 0.271875066571D-06 0.000000000000D+00  6 -2 -1 25 24 -2 -2 4 0.16152035D-02 0.40011857D+00 0.20488394D+05 0.20488394D+05 0.20488394D+05 0.12326742D+01  1  2 12  6  6  1       21 0.787328077961D-04 0.100000000000D+01
0.490247463152D-05 0.000000000000D+00 0.000000000000D+00 0.271875066571D-06 0.000000000000D+00  6 -2 -1 25 24 -2 -2 4 0.16466301D-02 0.40011857D+00 0.20488394D+05 0.20488394D+05 0.20488394D+05 0.12326742D+01  1  2 12  6  6  1       21 0.770842566843D-04 0.100000000000D+01
-.114062500790D-04 0.000000000000D+00 -.102568511471D-05 0.274232942903D-06 0.000000000000D+00  6 -2 -1 25 24 -2 -2 4 0.16320535D-02 0.40011857D+00 0.18333385D+05 0.18333385D+05 0.18333385D+05 0.12380079D+01  1  2  5  6  6  1       21 -.185126855950D-03 0.100000000000D+01
0.486967113393D-05 0.000000000000D+00 0.000000000000D+00 0.271875066571D-06 0.000000000000D+00  6 2 -1 25 24 2 -2 4 0.16152035D-02 0.40011857D+00 0.20488394D+05 0.20488394D+05 0.20488394D+05 0.12326742D+01  3  4 12  7  5  1       21 0.848448805306D-04 0.100000000000D+01
0.490247463152D-05 0.000000000000D+00 0.000000000000D+00 0.271875066571D-06 0.000000000000D+00  6 2 -1 25 24 2 -2 4 0.16466301D-02 0.40011857D+00 0.20488394D+05 0.20488394D+05 0.20488394D+05 0.12326742D+01  3  4 12  7  5  1       21 0.831840110890D-04 0.100000000000D+01
-.114062500790D-04 0.000000000000D+00 -.102568511471D-05 0.274232942903D-06 0.000000000000D+00  6 2 -1 25 24 2 -2 4 0.16320535D-02 0.40011857D+00 0.18333385D+05 0.18333385D+05 0.18333385D+05 0.12380079D+01  3  4  5  7  5  1       21 -.199689144536D-03 0.100000000000D+01
0.486967113393D-05 0.000000000000D+00 0.000000000000D+00 0.271875066571D-06 0.000000000000D+00  6 -3 -1 25 24 -2 -3 4 0.16152035D-02 0.40011857D+00 0.20488394D+05 0.20488394D+05 0.20488394D+05 0.12326742D+01  1  2 12  8  6  1       21 0.624100093565D-04 0.100000000000D+01
0.486967113393D-05 0.000000000000D+00 0.000000000000D+00 0.271875066571D-06 0.000000000000D+00  6 -4 -1 25 24 -2 -4 4 0.16152035D-02 0.40011857D+00 0.20488394D+05 0.20488394D+05 0.20488394D+05 0.12326742D+01  1  2 12  8  6  1       21 0.569473927031D-04 0.100000000000D+01
0.490247463152D-05 0.000000000000D+00 0.000000000000D+00 0.271875066571D-06 0.000000000000D+00  6 -3 -1 25 24 -2 -3 4 0.16466301D-02 0.40011857D+00 0.20488394D+05 0.20488394D+05 0.20488394D+05 0.12326742D+01  1  2 12  8  6  1       21 0.610229306948D-04 0.100000000000D+01
0.490247463152D-05 0.000000000000D+00 0.000000000000D+00 0.271875066571D-06 0.000000000000D+00  6 -4 -1 25 24 -2 -4 4 0.16466301D-02 0.40011857D+00 0.20488394D+05 0.20488394D+05 0.20488394D+05 0.12326742D+01  1  2 12  8  6  1       21 0.556645509088D-04 0.100000000000D+01
-.114062500790D-04 0.000000000000D+00 -.102568511471D-05 0.274232942903D-06 0.000000000000D+00  6 -3 -1 25 24 -2 -3 4 0.16320535D-02 0.40011857D+00 0.18333385D+05 0.18333385D+05 0.18333385D+05 0.12380079D+01  1  2  5  8  6  1       21 -.146322167006D-03 0.100000000000D+01
-.114062500790D-04 0.000000000000D+00 -.102568511471D-05 0.274232942903D-06 0.000000000000D+00  6 -4 -1 25 24 -2 -4 4 0.16320535D-02 0.40011857D+00 0.18333385D+05 0.18333385D+05 0.18333385D+05 0.12380079D+01  1  2  5  8  6  1       21 -.133351240803D-03 0.100000000000D+01
0.486967113393D-05 0.000000000000D+00 0.000000000000D+00 0.271875066571D-06 0.000000000000D+00  6 3 -1 25 24 3 -2 4 0.16152035D-02 0.40011857D+00 0.20488394D+05 0.20488394D+05 0.20488394D+05 0.12326742D+01  3  4 12  9  5  1       21 0.624069350764D-04 0.100000000000D+01
0.486967113393D-05 0.000000000000D+00 0.000000000000D+00 0.271875066571D-06 0.000000000000D+00  6 4 -1 25 24 4 -2 4 0.16152035D-02 0.40011857D+00 0.20488394D+05 0.20488394D+05 0.20488394D+05 0.12326742D+01  3  4 12  9  5  1       21 0.569473927031D-04 0.100000000000D+01
0.490247463152D-05 0.000000000000D+00 0.000000000000D+00 0.271875066571D-06 0.000000000000D+00  6 3 -1 25 24 3 -2 4 0.16466301D-02 0.40011857D+00 0.20488394D+05 0.20488394D+05 0.20488394D+05 0.12326742D+01  3  4 12  9  5  1       21 0.610198845943D-04 0.100000000000D+01
0.490247463152D-05 0.000000000000D+00 0.000000000000D+00 0.271875066571D-06 0.000000000000D+00  6 4 -1 25 24 4 -2 4 0.16466301D-02 0.40011857D+00 0.20488394D+05 0.20488394D+05 0.20488394D+05 0.12326742D+01  3  4 12  9  5  1       21 0.556645509088D-04 0.100000000000D+01
-.114062500790D-04 0.000000000000D+00 -.102568511471D-05 0.274232942903D-06 0.000000000000D+00  6 3 -1 25 24 3 -2 4 0.16320535D-02 0.40011857D+00 0.18333385D+05 0.18333385D+05 0.18333385D+05 0.12380079D+01  3  4  5  9  5  1       21 -.146314841540D-03 0.100000000000D+01
-.114062500790D-04 0.000000000000D+00 -.102568511471D-05 0.274232942903D-06 0.000000000000D+00  6 4 -1 25 24 4 -2 4 0.16320535D-02 0.40011857D+00 0.18333385D+05 0.18333385D+05 0.18333385D+05 0.12380079D+01  3  4  5  9  5  1       21 -.133351240803D-03 0.100000000000D+01
  </mgrwgt>
  </event>
  <event>
  6     66 0.48358521E-03 0.22465136E+02 0.75467711E-02 0.11724945E+00
       21 -1    0    0  501  502 0.00000000E+00 0.00000000E+00 0.16317761E+04 0.16317762E+04 0.75000000E+00 0.0000E+00 0.9000E+01
       -1 -1    0    0    0  501 0.00000000E+00 0.00000000E+00 -.22929833E+02 0.22932066E+02 0.32000000E+00 0.0000E+00 0.9000E+01
       25  1    1    2    0    0 -.61089839E+02 -.96433290E+02 0.11032086E+04 0.11161207E+04 0.12500000E+03 0.0000E+00 0.9000E+01
       24  1    1    2    0    0 0.87849260E+02 0.81865079E+02 0.43301402E+03 0.45649506E+03 0.80419002E+02 0.0000E+00 0.9000E+01
       -2  1    1    2    0  503 -.26869701E+02 0.52637774E+01 0.62957318E+02 0.68654311E+02 0.32000000E+00 0.0000E+00 0.9000E+01
       21  1    1    2  503  502 0.11028022E+00 0.93044340E+01 0.96663088E+01 0.13438180E+02 0.75000000E+00 0.0000E+00 0.9000E+01
#aMCatNLO 2  0  0  5  1 0.11002675D+02 0.00000000D+00  -5  6  0 0.00000000D+00 0.00000000D+00 0.00000000D+00 0.00000000D+00 0.00000000D+00
  <mgrwgt>
 0.4357386513D-01    3    2    0
 0.193438214454378D+03 0.000000000000000D+00 0.000000000000000D+00 0.193438214454378D+03
 0.193438214454378D+03 -.000000000000000D+00 -.000000000000000D+00 -.193438214454378D+03
 0.186775376056198D+03 -.593475813768931D+02 -.973817999550801D+02 0.790866026780509D+02
 0.151686276694464D+03 0.892674780051549D+02 0.810929805621325D+02 -.446850809242600D+02
 0.484147761580954D+02 -.299198966282617D+02 0.162888193929475D+02 -.344015217537909D+02
 0.000000000000000D+00 0.000000000000000D+00 0.000000000000000D+00 -.000000000000000D+00
 0.193438214454378D+03 0.000000000000000D+00 0.000000000000000D+00 0.193438214454378D+03
 0.193438214454378D+03 -.000000000000000D+00 -.000000000000000D+00 -.193438214454378D+03
 0.186000974531901D+03 -.611012873281146D+02 -.964270573681421D+02 0.770702135781731D+02
 0.151762752199714D+03 0.878399186467767D+02 0.818701642820578D+02 -.463264707636782D+02
 0.315095867184583D+02 -.267207926169021D+02 0.508610625535030D+01 -.159054965421340D+02
 0.176031154586827D+02 -.178387017600325D-01 0.947078683073394D+01 -.148382462723608D+02
-.451726755174D-04 0.000000000000D+00 0.000000000000D+00 0.124871858277D-06 0.000000000000D+00  6 21 -1 25 24 -2 21 4 0.25104266D+00 0.35278517D-02 0.30707823D+05 0.30707823D+05 0.30707823D+05 0.12138369D+01  1  2 13  3  6  5       -2 -.169725421253D-01 0.100000000000D+01
-.132148023815D-05 0.000000000000D+00 0.000000000000D+00 0.124992255988D-06 0.000000000000D+00  6 21 -1 25 24 -2 21 4 0.25104266D+00 0.35278517D-02 0.30315443D+05 0.30315443D+05 0.30315443D+05 0.12144219D+01  1  2  8  3  6  5       -2 -.497848564905D-03 0.100000000000D+01
0.162470202747D-03 0.000000000000D+00 0.000000000000D+00 0.124992255988D-06 0.204703721149D-07  6 21 -1 25 24 -2 21 4 0.25104266D+00 0.35278517D-02 0.30707823D+05 0.30707823D+05 0.30707823D+05 0.12138369D+01  1  2  1  3  6  5       -2 0.610442558170D-01 0.100000000000D+01
  </mgrwgt>
  </event>
  <event>
  6     66 -.48358521E-03 0.17930428E+02 0.75467711E-02 0.12086755E+00
        2 -1    0    0  501    0 0.00000000E+00 0.00000000E+00 0.68514369E+03 0.68514376E+03 0.32000000E+00 0.0000E+00 0.9000E+01
       -3 -1    0    0    0  501 0.00000000E+00 0.00000000E+00 -.37038209E+02 0.37041584E+02 0.50000000E+00 0.0000E+00 0.9000E+01
       25  1    1    2    0    0 0.43723751E+02 0.19232248E+00 0.32793994E+03 0.35366850E+03 0.12500000E+03 0.0000E+00 0.9000E+01
       24  1    1    2    0    0 0.16855146E+02 0.11808789E+02 0.12663511E+03 0.15141734E+03 0.80419002E+02 0.0000E+00 0.9000E+01
        2  1    1    2  502    0 -.26808480E+02 -.23751611E+02 0.17121744E+03 0.17492383E+03 0.32000000E+00 0.0000E+00 0.9000E+01
       -4  1    1    2    0  502 -.33770417E+02 0.11750499E+02 0.22312985E+02 0.42175669E+02 0.15500000E+01 0.0000E+00 0.9000E+01
#aMCatNLO 2  0  0  1  5 0.35816667D+02 0.00000000D+00  -5  6  0 0.00000000D+00 0.00000000D+00 0.00000000D+00 0.00000000D+00 0.00000000D+00
  <mgrwgt>
 -.2902419087D-03    3    2    0
 0.133032070370271D+03 0.000000000000000D+00 0.000000000000000D+00 0.133032070370271D+03
 0.133032070370271D+03 0.000000000000000D+00 0.000000000000000D+00 -.133032070370271D+03
 0.135241825084489D+03 0.300090655930950D+02 -.119690873638268D+02 0.402684514488699D+02
 0.817162464398034D+02 0.856415152365015D+01 0.445680592032557D+01 -.108222533470930D+02
 0.000000000000000D+00 -.000000000000000D+00 -.000000000000000D+00 0.000000000000000D+00
 0.491060692162489D+02 -.385732171167452D+02 0.751228144350121D+01 -.294461981017769D+02
 0.179599079787104D+03 0.000000000000000D+00 0.000000000000000D+00 0.179599079787104D+03
 0.141301232273098D+03 0.000000000000000D+00 0.000000000000000D+00 -.141301232273098D+03
 0.138416939490539D+03 0.437340202499207D+02 0.190862822692345D+00 0.402684514488699D+02
 0.837141180198531D+02 0.168610692364699D+02 0.118076576070641D+02 -.108222533470930D+02
 0.524362351044155D+02 -.268084801232980D+02 -.237516109179619D+02 0.382978475140056D+02
 0.463330194453939D+02 -.337866093630926D+02 0.117530904882054D+02 -.294461981017769D+02
-.405146595164D-06 0.000000000000D+00 0.000000000000D+00 0.345916711637D-06 0.000000000000D+00  6 2 -3 25 24 2 -4 4 0.10719365D+00 0.53649514D-02 0.20596666D+05 0.20596666D+05 0.20596666D+05 0.12324230D+01  1  2 13  9  5  1       21 -.485070017235D-03 0.100000000000D+01
-.415873349511D-06 0.000000000000D+00 0.000000000000D+00 0.345916711637D-06 0.000000000000D+00  6 2 -3 25 24 2 -4 4 0.11321693D+00 0.53649514D-02 0.20596666D+05 0.20596666D+05 0.20596666D+05 0.12324230D+01  1  2 13  9  5  1       21 -.466332708536D-03 0.100000000000D+01
0.595884994672D-06 0.000000000000D+00 0.000000000000D+00 0.353604395816D-06 0.365061638751D-09  6 2 -3 25 24 2 -4 4 0.10540663D+00 0.56984323D-02 0.20596666D+05 0.20596666D+05 0.20596666D+05 0.12324230D+01  1  2  1  9  5  1       21 0.661160817076D-03 0.100000000000D+01
  </mgrwgt>
  </event>
  <event>
  6     66 -.48358521E-03 0.96264131E+01 0.75467711E-02 0.12202403E+00
       21 -1    0    0  501  502 0.00000000E+00 0.00000000E+00 0.93125047E+02 0.93128067E+02 0.75000000E+00 0.0000E+00 0.9000E+01
       21 -1    0    0  503  501 0.00000000E+00 0.00000000E+00 -.76697020E+03 0.76697057E+03 0.75000000E+00 0.0000E+00 0.9000E+01
       25  1    1    2    0    0 0.17825502E+02 0.83736042E+02 -.37115851E+03 0.40089040E+03 0.12500000E+03 0.0000E+00 0.9000E+01
       24  1    1    2    0    0 -.20595888E+02 -.54521783E+02 -.10942258E+03 0.14777460E+03 0.80419002E+02 0.0000E+00 0.9000E+01
        1  1    1    2  503    0 -.75048281E+01 -.14624251E+02 -.25072560E+03 0.25126405E+03 0.32000000E+00 0.0000E+00 0.9000E+01
       -2  1    1    2    0  502 0.10275214E+02 -.14590008E+02 0.57461539E+02 0.60169587E+02 0.32000000E+00 0.0000E+00 0.9000E+01
#aMCatNLO 2  0  0  2  1 0.16437493D+02 0.00000000D+00  -5  6  0 0.00000000D+00 0.00000000D+00 0.00000000D+00 0.00000000D+00 0.00000000D+00
  <mgrwgt>
 -.1227046778D+00    1    2    0
 0.218734548137044D+03 0.000000000000000D+00 0.000000000000000D+00 0.218734548137044D+03
 0.218734548137044D+03 0.000000000000000D+00 0.000000000000000D+00 -.218734548137044D+03
 0.195838326410489D+03 0.144416318642016D+02 0.771421177618416D+02 -.128717454246028D+03
 0.102003466907640D+03 -.223258943450490D+02 -.578929311990337D+02 -.935169854545818D+01
 0.000000000000000D+00 -.000000000000000D+00 -.000000000000000D+00 -.000000000000000D+00
 0.139627302955960D+03 0.788426248084742D+01 -.192491865628079D+02 0.138069152791486D+03
 0.219523286864112D+03 0.000000000000000D+00 0.000000000000000D+00 0.219523286864112D+03
 0.325366108433333D+03 0.000000000000000D+00 0.000000000000000D+00 -.325366108433333D+03
 0.198803069573213D+03 0.178254951502379D+02 0.837360684938252D+02 -.128717454246028D+03
 0.997571276353191D+02 -.205958926893916D+02 -.545217708655979D+02 -.935169854545818D+01
 0.107111596222901D+03 -.750482809337570D+01 -.146242511935794D+02 -.105842821569220D+03
 0.139217601866011D+03 0.102752256325294D+02 -.145900464346479D+02 0.138069152791486D+03
-.217853442038D-04 0.000000000000D+00 0.000000000000D+00 0.763016942134D-05 0.000000000000D+00  6 21 21 25 24 1 -2 4 0.14275698D-01 0.11808320D+00 0.20321618D+05 0.20321618D+05 0.20321618D+05 0.12330640D+01  1  2 13 10  5  2       -1 -.122704677845D+00 0.100000000000D+01
  </mgrwgt>
  </event>
  <event>
  5     66 -.48358521E-03 0.27232960E+02 0.75467711E-02 0.12422166E+00
       21 -1    0    0  501  502 0.00000000E+00 0.00000000E+00 0.11446496E+03 0.11446742E+03 0.75000000E+00 0.0000E+00 0.9000E+01
       -3 -1    0    0    0  501 -.00000000E+00 -.00000000E+00 -.14373298E+03 0.14373385E+03 0.50000000E+00 0.0000E+00 0.9000E+01
       25  1    1    2    0    0 0.34841892E+02 0.20948276E+02 -.45473150E+02 0.13908844E+03 0.12500000E+03 0.0000E+00 0.9000E+01
       24  1    1    2    0    0 -.82786067E+01 -.12711699E+02 -.79783630E+01 0.82225257E+02 0.80419002E+02 0.0000E+00 0.9000E+01
       -4  1    1    2    0  502 -.26563285E+02 -.82365773E+01 0.24183494E+02 0.36887575E+02 0.15500000E+01 0.0000E+00 0.9000E+01
#aMCatNLO 1  0  0  5  1 0.94054840D+00 0.00000000D+00  -5  6  0 0.00000000D+00 0.00000000D+00 0.00000000D+00 0.00000000D+00 0.00000000D+00
  <mgrwgt>
 -.1018718174D+00    8    2    0
 0.128268547815039D+03 0.000000000000000D+00 0.000000000000000D+00 0.128268547815039D+03
 0.128268547815039D+03 -.000000000000000D+00 -.000000000000000D+00 -.128268547815039D+03
 0.134808495966078D+03 0.348524440107500D+02 0.209515481610298D+02 -.299110407837919D+02
 0.818473475831126D+02 -.827219972700571D+01 -.127097122020260D+02 0.134397895761375D+01
 0.398812520808880D+02 -.265802442837443D+02 -.824183595900384D+01 0.285670618261782D+02
 0.000000000000000D+00 0.000000000000000D+00 0.000000000000000D+00 0.000000000000000D+00
 0.128268547815039D+03 0.000000000000000D+00 0.000000000000000D+00 0.128268547815039D+03
 0.128268547815039D+03 -.000000000000000D+00 -.000000000000000D+00 -.128268547815039D+03
 0.134770123651393D+03 0.347819942080038D+02 0.209297035266698D+02 -.298353250059681D+02
 0.818545111092779D+02 -.831498043294752D+01 -.127229773758452D+02 0.138995743164736D+01
 0.243125848235983D+01 -.181258419544004D+01 -.118961316100799D+01 0.110017129104707D+01
 0.374812023870483D+02 -.246544295796163D+02 -.701711298981657D+01 0.273451962832737D+02
0.301894478487D-05 0.000000000000D+00 0.000000000000D+00 0.152343435779D-05 0.000000000000D+00  6 21 -3 25 24 -4 21 2 0.17610250D-01 0.22113023D-01 0.14533911D+05 0.14533911D+05 0.14533911D+05 0.12493884D+01  1  2  2  3  6  5       -4 0.123172723945D-01 0.100000000000D+01
0.134676366356D-06 0.159314093205D-06 -.609437972411D-08 0.152343435779D-05 0.000000000000D+00  6 21 -3 25 24 -4 21 4 0.17610250D-01 0.22113023D-01 0.14533911D+05 0.14533911D+05 0.14533911D+05 0.12493884D+01  1  2  3  3  6  5       -4 0.857720305711D-03 0.100000000000D+01
0.292997938402D-06 0.000000000000D+00 0.000000000000D+00 0.152343435779D-05 0.000000000000D+00  6 21 -3 25 24 -4 21 4 0.17610250D-01 0.22113023D-01 0.14533911D+05 0.14533911D+05 0.14533911D+05 0.12493884D+01  1  2 15  3  6  5       -4 0.186603104983D-02 0.100000000000D+01
0.207557111179D-10 0.000000000000D+00 0.000000000000D+00 0.152347736958D-05 0.000000000000D+00  6 21 -3 25 24 -4 21 4 0.17610250D-01 0.22113023D-01 0.14528755D+05 0.14528755D+05 0.14528755D+05 0.12494060D+01  1  2 12  3  6  5       -4 0.132193479285D-06 0.100000000000D+01
-.311373140321D-04 0.000000000000D+00 0.000000000000D+00 0.152343435779D-05 0.000000000000D+00  6 21 -3 25 24 -4 21 4 0.17610250D-01 0.22113023D-01 0.14533911D+05 0.14533911D+05 0.14533911D+05 0.12493884D+01  1  2  4  3  6  5       -4 -.198305814399D+00 0.100000000000D+01
-.366460340302D-05 0.000000000000D+00 0.000000000000D+00 0.152343435779D-05 0.000000000000D+00  6 21 -3 25 24 -4 21 4 0.17610250D-01 0.22113023D-01 0.14533911D+05 0.14533911D+05 0.14533911D+05 0.12493884D+01  1  2  5  3  6  5       -4 -.233389482965D-01 0.100000000000D+01
0.105633149410D-04 0.000000000000D+00 -.000000000000D+00 0.152343435779D-05 0.000000000000D+00  6 21 -3 25 24 -4 21 4 0.17610250D-01 0.22113023D-01 0.14533911D+05 0.14533911D+05 0.14533911D+05 0.12493884D+01  1  2  6  3  6  5       -4 0.672751275195D-01 0.100000000000D+01
0.588107414730D-05 0.000000000000D+00 0.000000000000D+00 0.152343435779D-05 0.677188536919D-06  6 21 -3 25 24 -4 21 4 0.17610250D-01 0.22113023D-01 0.14528755D+05 0.14528755D+05 0.14528755D+05 0.12494060D+01  1  2 11  3  6  5       -4 0.374566618822D-01 0.100000000000D+01
  </mgrwgt>
  </event>
  <event>
  5     66 0.48358521E-03 0.49770713E+02 0.75467711E-02 0.12124007E+00
       21 -1    0    0  501  502 0.00000000E+00 0.00000000E+00 0.45974008E+02 0.45980125E+02 0.75000000E+00 0.0000E+00 0.9000E+01
       -1 -1    0    0    0  501 0.00000000E+00 0.00000000E+00 -.45410389E+03 0.45410400E+03 0.32000000E+00 0.0000E+00 0.9000E+01
       25  1    1    2    0    0 0.19924968E+02 -.56630628E+02 -.23983077E+03 0.27703399E+03 0.12500000E+03 0.0000E+00 0.9000E+01
       24  1    1    2    0    0 -.30253638E+02 0.75287201E+01 -.14264805E+03 0.16669627E+03 0.80419002E+02 0.0000E+00 0.9000E+01
       -2  1    1    2    0  502 0.10328670E+02 0.49101908E+02 -.25651052E+02 0.56353861E+02 0.32000000E+00 0.0000E+00 0.9000E+01
#aMCatNLO 1  0  0  1  2 0.64445611D+01 0.00000000D+00  -5  6  0 0.00000000D+00 0.00000000D+00 0.00000000D+00 0.00000000D+00 0.00000000D+00
  <mgrwgt>
 0.2611069653D-01   22    4    0
 0.144494060548431D+03 0.000000000000000D+00 0.000000000000000D+00 0.144494060548431D+03
 0.144494060548431D+03 0.000000000000000D+00 0.000000000000000D+00 -.144494060548431D+03
 0.140691745249448D+03 0.199248996771539D+02 -.566309539000459D+02 -.237718449970110D+02
 0.870043776689236D+02 -.302536804735181D+02 0.752851857474263D+01 -.114272483591709D+02
 0.612919981784910D+02 0.103287807963642D+02 0.491024353253033D+02 0.351990933561819D+02
 0.000000000000000D+00 0.000000000000000D+00 0.000000000000000D+00 -.000000000000000D+00
 0.147231527050436D+03 0.000000000000000D+00 0.000000000000000D+00 0.147231527050436D+03
 0.148373380100001D+03 0.000000000000000D+00 0.000000000000000D+00 -.148373380100001D+03
 0.141696387574971D+03 0.186340095288320D+02 -.595024312622077D+02 -.237718449970110D+02
 0.871495154586384D+02 -.310497958863072D+02 0.575762630442521D+01 -.114272483591709D+02
 0.602140673936685D+02 0.977333612721451D+01 0.478668950312898D+02 0.351990933561819D+02
 0.654493672315982D+01 0.264245023026065D+01 0.587790992649266D+01 -.114185304956483D+01
 0.144494060548431D+03 0.000000000000000D+00 0.000000000000000D+00 0.144494060548431D+03
 0.144494060548431D+03 0.000000000000000D+00 0.000000000000000D+00 -.144494060548431D+03
 0.140691745249448D+03 0.199248996771539D+02 -.566309539000459D+02 -.237718449970110D+02
 0.870043776689236D+02 -.302536804735181D+02 0.752851857474263D+01 -.114272483591709D+02
 0.000000000000000D+00 0.000000000000000D+00 0.000000000000000D+00 -.000000000000000D+00
 0.612919981784910D+02 0.103287807963642D+02 0.491024353253033D+02 0.351990933561819D+02
 0.147231527050436D+03 0.000000000000000D+00 0.000000000000000D+00 0.147231527050436D+03
 0.148373380100001D+03 0.000000000000000D+00 0.000000000000000D+00 -.148373380100001D+03
 0.141696387574971D+03 0.186340095288320D+02 -.595024312622077D+02 -.237718449970110D+02
 0.871495154586384D+02 -.310497958863072D+02 0.575762630442521D+01 -.114272483591709D+02
 0.654493672315982D+01 0.264245023026065D+01 0.587790992649266D+01 -.114185304956483D+01
 0.602140673936685D+02 0.977333612721451D+01 0.478668950312898D+02 0.351990933561819D+02
0.188048323184D-05 0.000000000000D+00 0.000000000000D+00 0.658694912663D-06 0.000000000000D+00  6 21 -1 25 24 -2 21 2 0.70734036D-02 0.69862616D-01 0.18919535D+05 0.18919535D+05 0.18919535D+05 0.12364903D+01  1  2  2  1  6  1       21 0.853119544979D-02 0.100000000000D+01
-.242033853734D-07 0.992358264945D-07 -.379615385385D-08 0.658694912663D-06 0.000000000000D+00  6 21 -1 25 24 -2 21 4 0.70734036D-02 0.69862616D-01 0.18919535D+05 0.18919535D+05 0.18919535D+05 0.12364903D+01  1  2  3  1  6  1       21 -.167879607183D-03 0.100000000000D+01
0.182901473621D-06 0.000000000000D+00 0.000000000000D+00 0.658694912663D-06 0.000000000000D+00  6 21 -1 25 24 -2 21 4 0.70734036D-02 0.69862616D-01 0.18919535D+05 0.18919535D+05 0.18919535D+05 0.12364903D+01  1  2 15  1  6  1       21 0.126864184786D-02 0.100000000000D+01
0.272081530682D-05 0.000000000000D+00 0.000000000000D+00 0.656385455280D-06 0.000000000000D+00  6 21 -1 25 24 -2 21 4 0.73002316D-02 0.69862616D-01 0.19794267D+05 0.19794267D+05 0.19794267D+05 0.12343207D+01  1  2 12  1  6  1       21 0.177584885672D-01 0.100000000000D+01
-.266159885381D-06 0.000000000000D+00 0.000000000000D+00 0.658694912663D-06 0.000000000000D+00  6 21 -1 25 24 -2 21 4 0.70734036D-02 0.69862616D-01 0.18919535D+05 0.18919535D+05 0.18919535D+05 0.12364903D+01  1  2  4  1  6  1       21 -.184613913782D-02 0.100000000000D+01
0.621821740811D-07 0.000000000000D+00 0.000000000000D+00 0.658694912663D-06 0.169161186085D-06  6 21 -1 25 24 -2 21 4 0.72074105D-02 0.71738260D-01 0.19794267D+05 0.19794267D+05 0.19794267D+05 0.12343207D+01  1  2 11  1  6  1       21 0.393670080576D-03 0.100000000000D+01
0.517145913784D-07 0.000000000000D+00 0.000000000000D+00 0.656385455280D-06 0.000000000000D+00  6 -1 -1 25 24 -2 -1 4 0.73002316D-02 0.69862616D-01 0.19794267D+05 0.19794267D+05 0.19794267D+05 0.12343207D+01  1  2 12  4  6  1       21 0.209027762323D-04 0.100000000000D+01
0.558842297481D-08 0.000000000000D+00 0.000000000000D+00 0.656385455280D-06 0.138370140890D-08  6 -1 -1 25 24 -2 -1 4 0.72074105D-02 0.71738260D-01 0.19794267D+05 0.19794267D+05 0.19794267D+05 0.12343207D+01  1  2 11  4  6  1       21 0.218497301405D-05 0.100000000000D+01
0.517145913784D-07 0.000000000000D+00 0.000000000000D+00 0.656385455280D-06 0.000000000000D+00  6 1 -1 25 24 1 -2 4 0.73002316D-02 0.69862616D-01 0.19794267D+05 0.19794267D+05 0.19794267D+05 0.12343207D+01  3  4 12  5  5  1       21 0.247757833061D-04 0.100000000000D+01
0.900604375373D-08 0.000000000000D+00 0.000000000000D+00 0.656385455280D-06 0.832880990741D-09  6 1 -1 25 24 1 -2 4 0.72074105D-02 0.71738260D-01 0.19794267D+05 0.19794267D+05 0.19794267D+05 0.12343207D+01  3  4 11  5  5  1       21 0.416538637287D-05 0.100000000000D+01
0.517145913784D-07 0.000000000000D+00 0.000000000000D+00 0.656385455280D-06 0.000000000000D+00  6 -2 -1 25 24 -2 -2 4 0.73002316D-02 0.69862616D-01 0.19794267D+05 0.19794267D+05 0.19794267D+05 0.12343207D+01  1  2 12  6  6  1       21 0.202262583550D-04 0.100000000000D+01
0.879542892877D-08 0.000000000000D+00 0.000000000000D+00 0.656385455280D-06 0.475979323456D-09  6 -2 -1 25 24 -2 -2 4 0.72074105D-02 0.71738260D-01 0.19794267D+05 0.19794267D+05 0.19794267D+05 0.12343207D+01  1  2 11  6  6  1       21 0.332893513584D-05 0.100000000000D+01
0.517145913784D-07 0.000000000000D+00 0.000000000000D+00 0.656385455280D-06 0.000000000000D+00  6 2 -1 25 24 2 -2 4 0.73002316D-02 0.69862616D-01 0.19794267D+05 0.19794267D+05 0.19794267D+05 0.12343207D+01  3  4 12  7  5  1       21 0.273765102709D-04 0.100000000000D+01
0.136173164991D-07 0.000000000000D+00 0.000000000000D+00 0.656385455280D-06 0.347178736274D-07  6 2 -1 25 24 2 -2 4 0.72074105D-02 0.71738260D-01 0.19794267D+05 0.19794267D+05 0.19794267D+05 0.12343207D+01  3  4 11  7  5  1       21 0.695211440179D-05 0.100000000000D+01
0.517145913784D-07 0.000000000000D+00 0.000000000000D+00 0.656385455280D-06 0.000000000000D+00  6 -3 -1 25 24 -2 -3 4 0.73002316D-02 0.69862616D-01 0.19794267D+05 0.19794267D+05 0.19794267D+05 0.12343207D+01  1  2 12  8  6  1       21 0.142778923480D-04 0.100000000000D+01
0.517145913784D-07 0.000000000000D+00 0.000000000000D+00 0.656385455280D-06 0.000000000000D+00  6 -4 -1 25 24 -2 -4 4 0.73002316D-02 0.69862616D-01 0.19794267D+05 0.19794267D+05 0.19794267D+05 0.12343207D+01  1  2 12  8  6  1       21 0.125918525079D-04 0.100000000000D+01
0.900748314478D-08 0.000000000000D+00 0.000000000000D+00 0.656385455280D-06 0.833014105955D-09  6 -3 -1 25 24 -2 -3 4 0.72074105D-02 0.71738260D-01 0.19794267D+05 0.19794267D+05 0.19794267D+05 0.12343207D+01  1  2 11  8  6  1       21 0.240910634050D-05 0.100000000000D+01
0.900748314478D-08 0.000000000000D+00 0.000000000000D+00 0.656385455280D-06 0.833014105955D-09  6 -4 -1 25 24 -2 -4 4 0.72074105D-02 0.71738260D-01 0.19794267D+05 0.19794267D+05 0.19794267D+05 0.12343207D+01  1  2 11  8  6  1       21 0.212541806678D-05 0.100000000000D+01
0.517145913784D-07 0.000000000000D+00 0.000000000000D+00 0.656385455280D-06 0.000000000000D+00  6 3 -1 25 24 3 -2 4 0.73002316D-02 0.69862616D-01 0.19794267D+05 0.19794267D+05 0.19794267D+05 0.12343207D+01  3  4 12  9  5  1       21 0.142762281134D-04 0.100000000000D+01
0.517145913784D-07 0.000000000000D+00 0.000000000000D+00 0.656385455280D-06 0.000000000000D+00  6 4 -1 25 24 4 -2 4 0.73002316D-02 0.69862616D-01 0.19794267D+05 0.19794267D+05 0.19794267D+05 0.12343207D+01  3  4 12  9  5  1       21 0.125918525079D-04 0.100000000000D+01
0.900748314478D-08 0.000000000000D+00 0.000000000000D+00 0.656385455280D-06 0.833014105955D-09  6 3 -1 25 24 3 -2 4 0.72074105D-02 0.71738260D-01 0.19794267D+05 0.19794267D+05 0.19794267D+05 0.12343207D+01  3  4 11  9  5  1       21 0.240882683168D-05 0.100000000000D+01
0.900748314478D-08 0.000000000000D+00 0.000000000000D+00 0.656385455280D-06 0.833014105955D-09  6 4 -1 25 24 4 -2 4 0.72074105D-02 0.71738260D-01 0.19794267D+05 0.19794267D+05 0.19794267D+05 0.12343207D+01  3  4 11  9  5  1       21 0.212541806678D-05 0.100000000000D+01
  </mgrwgt>
  </event>
  <event>
  5     66 0.48358521E-03 0.61611993E+02 0.75467711E-02 0.11557139E+00
       21 -1    0    0  501  502 0.00000000E+00 0.00000000E+00 0.14798892E+04 0.14798893E+04 0.75000000E+00 0.0000E+00 0.9000E+01
       -1 -1    0    0    0  501 0.00000000E+00 0.00000000E+00 -.19278519E+02 0.19281175E+02 0.32000000E+00 0.0000E+00 0.9000E+01
       25  1    1    2    0    0 0.33971425E+02 -.21231165E+02 0.79193195E+03 0.80273659E+03 0.12500000E+03 0.0000E+00 0.9000E+01
       24  1    1    2    0    0 -.36918382E+02 0.85169874E+02 0.52447145E+03 0.53865981E+03 0.80419002E+02 0.0000E+00 0.9000E+01
       -2  1    1    2    0  502 0.29469572E+01 -.63938710E+02 0.14420724E+03 0.15777412E+03 0.32000000E+00 0.0000E+00 0.9000E+01
#aMCatNLO 1  0  0  1  5 0.63969796D+02 0.00000000D+00  -5  6  0 0.00000000D+00 0.00000000D+00 0.00000000D+00 0.00000000D+00 0.00000000D+00
  <mgrwgt>
 0.2136649603D-01   32    4    0
 0.168914784465209D+03 0.000000000000000D+00 0.000000000000000D+00 0.168914784465209D+03
 0.168914784465209D+03 0.000000000000000D+00 0.000000000000000D+00 -.168914784465209D+03
 0.138338410812443D+03 0.339714140207405D+02 -.212309366541455D+02 0.436772968981765D+02
 0.122826367854026D+03 -.369183910343106D+02 0.851700768090871D+02 -.148023836391954D+01
 0.766647902639489D+02 0.294697701357004D+01 -.639391401549415D+02 -.421970585342570D+02
 0.000000000000000D+00 -.000000000000000D+00 -.000000000000000D+00 0.000000000000000D+00
 0.245599252725311D+03 0.000000000000000D+00 0.000000000000000D+00 0.245599252725311D+03
 0.185800648670417D+03 0.000000000000000D+00 0.000000000000000D+00 -.185800648670417D+03
 0.140693019543519D+03 0.475443897810106D+02 0.116210339170988D+01 0.436772968981765D+02
 0.135177127915396D+03 -.243682808561277D+02 0.105875567245648D+03 -.148023836391954D+01
 0.679625916785392D+02 0.998211261414542D+01 -.523323948093230D+02 -.421970585342570D+02
 0.875671622582725D+02 -.331582215390283D+02 -.547052758280352D+02 0.597986040548936D+02
 0.168914784465209D+03 0.000000000000000D+00 0.000000000000000D+00 0.168914784465209D+03
 0.168914784465209D+03 0.000000000000000D+00 0.000000000000000D+00 -.168914784465209D+03
 0.138338410812443D+03 0.339714140207405D+02 -.212309366541455D+02 0.436772968981765D+02
 0.122826367854026D+03 -.369183910343106D+02 0.851700768090871D+02 -.148023836391954D+01
 0.000000000000000D+00 -.000000000000000D+00 -.000000000000000D+00 0.000000000000000D+00
 0.766647902639489D+02 0.294697701357004D+01 -.639391401549415D+02 -.421970585342570D+02
 0.245599252725311D+03 0.000000000000000D+00 0.000000000000000D+00 0.245599252725311D+03
 0.185800648670417D+03 0.000000000000000D+00 0.000000000000000D+00 -.185800648670417D+03
 0.140693019543519D+03 0.475443897810106D+02 0.116210339170988D+01 0.436772968981765D+02
 0.135177127915396D+03 -.243682808561277D+02 0.105875567245648D+03 -.148023836391954D+01
 0.875671622582725D+02 -.331582215390283D+02 -.547052758280352D+02 0.597986040548936D+02
 0.679625916785392D+02 0.998211261414542D+01 -.523323948093230D+02 -.421970585342570D+02
0.181831458745D-04 0.000000000000D+00 0.000000000000D+00 0.182926901199D-06 0.000000000000D+00  6 21 -1 25 24 -2 21 2 0.22767547D+00 0.29661449D-02 0.25294809D+05 0.25294809D+05 0.25294809D+05 0.12227522D+01  1  2  2  1  6  1       21 0.842271008944D-02 0.100000000000D+01
-.175310512114D-05 0.959550969969D-06 -.367065327240D-07 0.182926901199D-06 0.000000000000D+00  6 21 -1 25 24 -2 21 4 0.22767547D+00 0.29661449D-02 0.25294809D+05 0.25294809D+05 0.25294809D+05 0.12227522D+01  1  2  3  1  6  1       21 -.121413691762D-02 0.100000000000D+01
0.204362067194D-05 0.000000000000D+00 0.000000000000D+00 0.182926901199D-06 0.000000000000D+00  6 21 -1 25 24 -2 21 4 0.22767547D+00 0.29661449D-02 0.25294809D+05 0.25294809D+05 0.25294809D+05 0.12227522D+01  1  2 15  1  6  1       21 0.141533743384D-02 0.100000000000D+01
0.188354262243D-04 0.000000000000D+00 0.000000000000D+00 0.177689153397D-06 0.000000000000D+00  6 21 -1 25 24 -2 21 4 0.33833571D+00 0.29661449D-02 0.37279180D+05 0.37279180D+05 0.37279180D+05 0.12051195D+01  1  2 12  1  6  1       21 0.273923802212D-02 0.100000000000D+01
0.163453204682D-04 0.000000000000D+00 0.000000000000D+00 0.177689153397D-06 0.000000000000D+00  6 21 -1 25 24 -2 21 4 0.36017603D+00 0.29661449D-02 0.37279180D+05 0.37279180D+05 0.37279180D+05 0.12051195D+01  1  2 12  1  6  1       21 0.176673149378D-02 0.100000000000D+01
-.230344912627D-04 0.000000000000D+00 0.000000000000D+00 0.182926901199D-06 0.000000000000D+00  6 21 -1 25 24 -2 21 4 0.22767547D+00 0.29661449D-02 0.25294809D+05 0.25294809D+05 0.25294809D+05 0.12227522D+01  1  2  4  1  6  1       21 -.159528518189D-01 0.100000000000D+01
-.615367482399D-04 0.000000000000D+00 -.181257469783D-04 0.182926901199D-06 0.000000000000D+00  6 21 -1 25 24 -2 21 4 0.34283693D+00 0.29661449D-02 0.25294809D+05 0.25294809D+05 0.25294809D+05 0.12227522D+01  1  2  5  1  6  1       21 -.924818137135D-02 0.100000000000D+01
0.513261500988D-04 0.000000000000D+00 0.132432160683D-04 0.182926901199D-06 0.000000000000D+00  6 21 -1 25 24 -2 21 4 0.22767547D+00 0.29661449D-02 0.25294809D+05 0.25294809D+05 0.25294809D+05 0.12227522D+01  1  2  6  1  6  1       21 0.355466269094D-01 0.100000000000D+01
0.249151041523D-05 0.000000000000D+00 0.000000000000D+00 0.177689153397D-06 0.000000000000D+00  6 -1 -1 25 24 -2 -1 4 0.33833571D+00 0.29661449D-02 0.37279180D+05 0.37279180D+05 0.37279180D+05 0.12051195D+01  1  2 12  4  6  1       21 0.379913960751D-04 0.100000000000D+01
0.257572729676D-05 0.000000000000D+00 0.000000000000D+00 0.177689153397D-06 0.000000000000D+00  6 -1 -1 25 24 -2 -1 4 0.36017603D+00 0.29661449D-02 0.37279180D+05 0.37279180D+05 0.37279180D+05 0.12051195D+01  1  2 12  4  6  1       21 0.285190295828D-04 0.100000000000D+01
-.708335080734D-05 0.000000000000D+00 -.249444263061D-05 0.182926901199D-06 0.000000000000D+00  6 -1 -1 25 24 -2 -1 4 0.34283693D+00 0.29661449D-02 0.25294809D+05 0.25294809D+05 0.25294809D+05 0.12227522D+01  1  2  5  4  6  1       21 -.107953521890D-03 0.100000000000D+01
0.249151041523D-05 0.000000000000D+00 0.000000000000D+00 0.177689153397D-06 0.000000000000D+00  6 1 -1 25 24 1 -2 4 0.33833571D+00 0.29661449D-02 0.37279180D+05 0.37279180D+05 0.37279180D+05 0.12051195D+01  3  4 12  5  5  1       21 0.508760272540D-03 0.100000000000D+01
0.257572729676D-05 0.000000000000D+00 0.000000000000D+00 0.177689153397D-06 0.000000000000D+00  6 1 -1 25 24 1 -2 4 0.36017603D+00 0.29661449D-02 0.37279180D+05 0.37279180D+05 0.37279180D+05 0.12051195D+01  3  4 12  5  5  1       21 0.425394311067D-03 0.100000000000D+01
-.708335080734D-05 0.000000000000D+00 -.249444263061D-05 0.182926901199D-06 0.000000000000D+00  6 1 -1 25 24 1 -2 4 0.34283693D+00 0.29661449D-02 0.25294809D+05 0.25294809D+05 0.25294809D+05 0.12227522D+01  3  4  5  5  5  1       21 -.147476947840D-02 0.100000000000D+01
0.249151041523D-05 0.000000000000D+00 0.000000000000D+00 0.177689153397D-06 0.000000000000D+00  6 -2 -1 25 24 -2 -2 4 0.33833571D+00 0.29661449D-02 0.37279180D+05 0.37279180D+05 0.37279180D+05 0.12051195D+01  1  2 12  6  6  1       21 0.325356323293D-04 0.100000000000D+01
0.257572729676D-05 0.000000000000D+00 0.000000000000D+00 0.177689153397D-06 0.000000000000D+00  6 -2 -1 25 24 -2 -2 4 0.36017603D+00 0.29661449D-02 0.37279180D+05 0.37279180D+05 0.37279180D+05 0.12051195D+01  1  2 12  6  6  1       21 0.248627528234D-04 0.100000000000D+01
-.708335080734D-05 0.000000000000D+00 -.249444263061D-05 0.182926901199D-06 0.000000000000D+00  6 -2 -1 25 24 -2 -2 4 0.34283693D+00 0.29661449D-02 0.25294809D+05 0.25294809D+05 0.25294809D+05 0.12227522D+01  1  2  5  6  6  1       21 -.926495178088D-04 0.100000000000D+01
0.249151041523D-05 0.000000000000D+00 0.000000000000D+00 0.177689153397D-06 0.000000000000D+00  6 2 -1 25 24 2 -2 4 0.33833571D+00 0.29661449D-02 0.37279180D+05 0.37279180D+05 0.37279180D+05 0.12051195D+01  3  4 12  7  5  1       21 0.134274433312D-02 0.100000000000D+01
0.257572729676D-05 0.000000000000D+00 0.000000000000D+00 0.177689153397D-06 0.000000000000D+00  6 2 -1 25 24 2 -2 4 0.36017603D+00 0.29661449D-02 0.37279180D+05 0.37279180D+05 0.37279180D+05 0.12051195D+01  3  4 12  7  5  1       21 0.116793357344D-02 0.100000000000D+01
-.708335080734D-05 0.000000000000D+00 -.249444263061D-05 0.182926901199D-06 0.000000000000D+00  6 2 -1 25 24 2 -2 4 0.34283693D+00 0.29661449D-02 0.25294809D+05 0.25294809D+05 0.25294809D+05 0.12227522D+01  3  4  5  7  5  1       21 -.391482074450D-02 0.100000000000D+01
0.249151041523D-05 0.000000000000D+00 0.000000000000D+00 0.177689153397D-06 0.000000000000D+00  6 -3 -1 25 24 -2 -3 4 0.33833571D+00 0.29661449D-02 0.37279180D+05 0.37279180D+05 0.37279180D+05 0.12051195D+01  1  2 12  8  6  1       21 0.244828956840D-04 0.100000000000D+01
0.249151041523D-05 0.000000000000D+00 0.000000000000D+00 0.177689153397D-06 0.000000000000D+00  6 -4 -1 25 24 -2 -4 4 0.33833571D+00 0.29661449D-02 0.37279180D+05 0.37279180D+05 0.37279180D+05 0.12051195D+01  1  2 12  8  6  1       21 0.163125633122D-04 0.100000000000D+01
0.257572729676D-05 0.000000000000D+00 0.000000000000D+00 0.177689153397D-06 0.000000000000D+00  6 -3 -1 25 24 -2 -3 4 0.36017603D+00 0.29661449D-02 0.37279180D+05 0.37279180D+05 0.37279180D+05 0.12051195D+01  1  2 12  8  6  1       21 0.194101883102D-04 0.100000000000D+01
0.257572729676D-05 0.000000000000D+00 0.000000000000D+00 0.177689153397D-06 0.000000000000D+00  6 -4 -1 25 24 -2 -4 4 0.36017603D+00 0.29661449D-02 0.37279180D+05 0.37279180D+05 0.37279180D+05 0.12051195D+01  1  2 12  8  6  1       21 0.123710432053D-04 0.100000000000D+01
-.708335080734D-05 0.000000000000D+00 -.249444263061D-05 0.182926901199D-06 0.000000000000D+00  6 -3 -1 25 24 -2 -3 4 0.34283693D+00 0.29661449D-02 0.25294809D+05 0.25294809D+05 0.25294809D+05 0.12227522D+01  1  2  5  8  6  1       21 -.698995355285D-04 0.100000000000D+01
-.708335080734D-05 0.000000000000D+00 -.249444263061D-05 0.182926901199D-06 0.000000000000D+00  6 -4 -1 25 24 -2 -4 4 0.34283693D+00 0.29661449D-02 0.25294809D+05 0.25294809D+05 0.25294809D+05 0.12227522D+01  1  2  5  8  6  1       21 -.461580945135D-04 0.100000000000D+01
0.249151041523D-05 0.000000000000D+00 0.000000000000D+00 0.177689153397D-06 0.000000000000D+00  6 3 -1 25 24 3 -2 4 0.33833571D+00 0.29661449D-02 0.37279180D+05 0.37279180D+05 0.37279180D+05 0.12051195D+01  3  4 12  9  5  1       21 0.250730756497D-04 0.100000000000D+01
0.249151041523D-05 0.000000000000D+00 0.000000000000D+00 0.177689153397D-06 0.000000000000D+00  6 4 -1 25 24 4 -2 4 0.33833571D+00 0.29661449D-02 0.37279180D+05 0.37279180D+05 0.37279180D+05 0.12051195D+01  3  4 12  9  5  1       21 0.163125633122D-04 0.100000000000D+01
0.257572729676D-05 0.000000000000D+00 0.000000000000D+00 0.177689153397D-06 0.000000000000D+00  6 3 -1 25 24 3 -2 4 0.36017603D+00 0.29661449D-02 0.37279180D+05 0.37279180D+05 0.37279180D+05 0.12051195D+01  3  4 12  9  5  1       21 0.199966435991D-04 0.100000000000D+01
0.257572729676D-05 0.000000000000D+00 0.000000000000D+00 0.177689153397D-06 0.000000000000D+00  6 4 -1 25 24 4 -2 4 0.36017603D+00 0.29661449D-02 0.37279180D+05 0.37279180D+05 0.37279180D+05 0.12051195D+01  3  4 12  9  5  1       21 0.123710432053D-04 0.100000000000D+01
-.708335080734D-05 0.000000000000D+00 -.249444263061D-05 0.182926901199D-06 0.000000000000D+00  6 3 -1 25 24 3 -2 4 0.34283693D+00 0.29661449D-02 0.25294809D+05 0.25294809D+05 0.25294809D+05 0.12227522D+01  3  4  5  9  5  1       21 -.716401456026D-04 0.100000000000D+01
-.708335080734D-05 0.000000000000D+00 -.249444263061D-05 0.182926901199D-06 0.000000000000D+00  6 4 -1 25 24 4 -2 4 0.34283693D+00 0.29661449D-02 0.25294809D+05 0.25294809D+05 0.25294809D+05 0.12227522D+01  3  4  5  9  5  1       21 -.461580945135D-04 0.100000000000D+01
  </mgrwgt>
  </event>
  <event>
  5     66 0.48358521E-03 0.35333658E+02 0.75467711E-02 0.12220232E+00
       21 -1    0    0  501  502 0.00000000E+00 0.00000000E+00 0.23849920E+03 0.23850038E+03 0.75000000E+00 0.0000E+00 0.9000E+01
       -1 -1    0    0    0  501 0.00000000E+00 0.00000000E+00 -.70616851E+02 0.70617576E+02 0.32000000E+00 0.0000E+00 0.9000E+01
       25  1    1    2    0    0 -.36015702E+02 0.90985113E+01 0.42376120E+02 0.13711546E+03 0.12500000E+03 0.0000E+00 0.9000E+01
       24  1    1    2    0    0 0.16378932E+01 -.17256518E+02 0.89009714E+02 0.12120402E+03 0.80419002E+02 0.0000E+00 0.9000E+01
       -2  1    1    2    0  502 0.34377809E+02 0.81580067E+01 0.36496517E+02 0.50798474E+02 0.32000000E+00 0.0000E+00 0.9000E+01
#aMCatNLO 1  0  0  2  1 0.18762107D+02 0.00000000D+00  -5  6  0 0.00000000D+00 0.00000000D+00 0.00000000D+00 0.00000000D+00 0.00000000D+00
  <mgrwgt>
 0.3892674914D-01    3    2    0
 0.129778106325682D+03 0.000000000000000D+00 0.000000000000000D+00 0.129778106325682D+03
 0.129778106325682D+03 0.000000000000000D+00 0.000000000000000D+00 -.129778106325682D+03
 0.135888510509890D+03 -.360163791508963D+02 0.909835061666115D+01 -.382194680432841D+02
 0.867757003490181D+02 0.163746084020961D+01 -.172566205927993D+02 0.276103963101765D+02
 0.368920017924570D+02 0.343789183106867D+02 0.815826997613810D+01 0.106090717331076D+02
 0.000000000000000D+00 -.000000000000000D+00 -.000000000000000D+00 0.000000000000000D+00
 0.539644416232470D+03 0.000000000000000D+00 0.000000000000000D+00 0.539644416232470D+03
 0.130331612681070D+03 0.000000000000000D+00 0.000000000000000D+00 -.130331612681070D+03
 0.134991821856042D+03 -.294801925388154D+02 0.163701703832347D+02 -.382194680432841D+02
 0.861535174639707D+02 0.581014339872023D+01 -.126143119640140D+02 0.276103963101765D+02
 0.390881023592641D+02 0.362122745208014D+02 0.101979663188405D+02 0.106090717331076D+02
 0.409742587234263D+03 -.125422253807062D+02 -.139538247380612D+02 0.409312803551400D+03
0.642296471248D-05 0.000000000000D+00 0.000000000000D+00 0.677552213641D-06 0.000000000000D+00  6 21 -1 25 24 -2 21 2 0.36692331D-01 0.10864277D-01 0.15376333D+05 0.15376333D+05 0.15376333D+05 0.12465976D+01  1  2  2  2  6  2       -1 0.340289535529D-01 0.100000000000D+01
-.512643041984D-07 0.338949159980D-06 -.129661152163D-07 0.677552213641D-06 0.000000000000D+00  6 21 -1 25 24 -2 21 4 0.36692331D-01 0.10864277D-01 0.15376333D+05 0.15376333D+05 0.15376333D+05 0.12465976D+01  1  2  3  2  6  2       -1 -.422066302648D-03 0.100000000000D+01
0.646152077684D-06 0.000000000000D+00 0.000000000000D+00 0.677552213641D-06 0.000000000000D+00  6 21 -1 25 24 -2 21 4 0.36692331D-01 0.10864277D-01 0.15376333D+05 0.15376333D+05 0.15376333D+05 0.12465976D+01  1  2 15  2  6  2       -1 0.531986189300D-02 0.100000000000D+01
  </mgrwgt>
  </event>
  <event>
  6     66 0.48358521E-03 0.45816900E+02 0.75467711E-02 0.12075690E+00
       21 -1    0    0  501  502 0.00000000E+00 0.00000000E+00 0.48576035E+02 0.48581825E+02 0.75000000E+00 0.0000E+00 0.9000E+01
       -1 -1    0    0    0  503 0.00000000E+00 0.00000000E+00 -.53844026E+03 0.53844035E+03 0.32000000E+00 0.0000E+00 0.9000E+01
       25  1    1    2    0    0 -.25613860E+02 -.76505300E+02 -.23446316E+03 0.27768166E+03 0.12500000E+03 0.0000E+00 0.9000E+01
       24  1    1    2    0    0 0.15913191E+02 0.22479418E+02 -.11012813E+03 0.13911856E+03 0.80419002E+02 0.0000E+00 0.9000E+01
       -2  1    1    2    0  502 0.78035141E+01 0.48235676E+02 -.15284969E+03 0.16047026E+03 0.32000000E+00 0.0000E+00 0.9000E+01
       21  1    1    2  501  503 0.18971552E+01 0.57902069E+01 0.75767580E+01 0.97516899E+01 0.75000000E+00 0.0000E+00 0.9000E+01
#aMCatNLO 2  0  0  2  2 0.60930857D+01 0.00000000D+00  -5  6  0 0.00000000D+00 0.00000000D+00 0.00000000D+00 0.00000000D+00 0.00000000D+00
  <mgrwgt>
 0.4434152211D-02    1    2    0
 0.146421105883535D+03 0.000000000000000D+00 0.000000000000000D+00 0.146421105883535D+03
 0.146421105883535D+03 0.000000000000000D+00 0.000000000000000D+00 -.146421105883535D+03
 0.147432061974699D+03 -.246535687098291D+02 -.735746353365348D+02 0.949670906563379D+01
 0.877166391504108D+02 0.164795225719953D+02 0.242077765798490D+02 0.192198261785079D+02
 0.576935106419607D+02 0.817404613783377D+01 0.493668587566857D+02 -.287165352441417D+02
 0.000000000000000D+00 0.000000000000000D+00 0.000000000000000D+00 0.000000000000000D+00
 0.178237728823930D+03 0.000000000000000D+00 0.000000000000000D+00 0.178237728823930D+03
 0.146744803760277D+03 0.000000000000000D+00 0.000000000000000D+00 -.146744803760277D+03
 0.149078438362168D+03 -.256139247516696D+02 -.765056871104453D+02 0.949670906563379D+01
 0.871502159693807D+02 0.159131532844283D+02 0.224791908963245D+02 0.192198261785079D+02
 0.566769391392031D+02 0.780361624637775D+01 0.482362893187294D+02 -.287165352441417D+02
 0.320769391134556D+02 0.189715522086355D+01 0.579020689539136D+01 0.314929250636528D+02
0.100560467242D-05 0.000000000000D+00 0.000000000000D+00 0.275623144439D-06 0.150885887981D-06  6 21 -1 25 24 -2 21 4 0.74734661D-02 0.82834946D-01 0.20842211D+05 0.20842211D+05 0.20842211D+05 0.12318588D+01  1  2  1  2  6  2       -1 0.443415221134D-02 0.100000000000D+01
  </mgrwgt>
  </event>
  <event>
  5     66 -.48358521E-03 0.55512924E+02 0.75467711E-02 0.11936887E+00
       21 -1    0    0  501  502 0.00000000E+00 0.00000000E+00 0.82999625E+02 0.83003013E+02 0.75000000E+00 0.0000E+00 0.9000E+01
       -1 -1    0    0    0  501 -.00000000E+00 -.00000000E+00 -.29955431E+03 0.29955448E+03 0.32000000E+00 0.0000E+00 0.9000E+01
       25  1    1    2    0    0 0.33347396E+02 0.65390991E+02 -.12453924E+03 0.19111005E+03 0.12500000E+03 0.0000E+00 0.9000E+01
       24  1    1    2    0    0 0.21249786E+02 -.75428349E+02 -.58685724E+02 0.12669735E+03 0.80419002E+02 0.0000E+00 0.9000E+01
       -2  1    1    2    0  502 -.54597182E+02 0.10037358E+02 -.33329720E+02 0.64750085E+02 0.32000000E+00 0.0000E+00 0.9000E+01
#aMCatNLO 1  0  0  5  1 0.63942324D+01 0.00000000D+00  -5  6  0 0.00000000D+00 0.00000000D+00 0.00000000D+00 0.00000000D+00 0.00000000D+00
  <mgrwgt>
 -.3631392199D-01    8    2    0
 0.157681882330839D+03 0.000000000000000D+00 0.000000000000000D+00 0.157681882330839D+03
 0.157681882330839D+03 -.000000000000000D+00 -.000000000000000D+00 -.157681882330839D+03
 0.146310556699717D+03 0.333478147788879D+02 0.653909140064447D+02 -.198426464126073D+02
 0.113394080716876D+03 0.212501103413872D+02 -.754284089446439D+02 0.158110569480125D+02
 0.556591272450851D+02 -.545979251202751D+02 0.100374949381992D+02 0.403158946459485D+01
 0.000000000000000D+00 0.000000000000000D+00 0.000000000000000D+00 0.000000000000000D+00
 0.157681882330839D+03 0.000000000000000D+00 0.000000000000000D+00 0.157681882330839D+03
 0.157681882330839D+03 -.000000000000000D+00 -.000000000000000D+00 -.157681882330839D+03
 0.146206712001208D+03 0.326709673432333D+02 0.655153482719291D+02 -.197926670226449D+02
 0.113238231457979D+03 0.207257122434108D+02 -.753320015584210D+02 0.158497792592065D+02
 0.268933443870314D+02 -.262590636018237D+02 0.378531497153858D+01 -.440283336512928D+01
 0.290254768154603D+02 -.271376159848204D+02 0.603133831495327D+01 0.834572112856772D+01
0.156246192761D-05 0.000000000000D+00 0.000000000000D+00 0.291349948194D-06 0.000000000000D+00  6 21 -1 25 24 -2 21 2 0.12769447D-01 0.46085552D-01 0.24454403D+05 0.24454403D+05 0.24454403D+05 0.12243264D+01  1  2  2  3  6  5       -2 0.541878582774D-02 0.100000000000D+01
-.637456564251D-07 0.824533811989D-07 -.315416046662D-08 0.291349948194D-06 0.000000000000D+00  6 21 -1 25 24 -2 21 4 0.12769447D-01 0.46085552D-01 0.24454403D+05 0.24454403D+05 0.24454403D+05 0.12243264D+01  1  2  3  3  6  5       -2 -.331388597382D-03 0.100000000000D+01
0.154375286245D-06 0.000000000000D+00 0.000000000000D+00 0.291349948194D-06 0.000000000000D+00  6 21 -1 25 24 -2 21 4 0.12769447D-01 0.46085552D-01 0.24454403D+05 0.24454403D+05 0.24454403D+05 0.12243264D+01  1  2 15  3  6  5       -2 0.802536399311D-03 0.100000000000D+01
0.316003098279D-05 0.000000000000D+00 0.000000000000D+00 0.291555660065D-06 0.000000000000D+00  6 21 -1 25 24 -2 21 4 0.12769447D-01 0.46085552D-01 0.24229192D+05 0.24229192D+05 0.24229192D+05 0.12247585D+01  1  2 12  3  6  5       -2 0.164501194045D-01 0.100000000000D+01
-.153333627266D-04 0.000000000000D+00 0.000000000000D+00 0.291349948194D-06 0.000000000000D+00  6 21 -1 25 24 -2 21 4 0.12769447D-01 0.46085552D-01 0.24454403D+05 0.24454403D+05 0.24454403D+05 0.12243264D+01  1  2  4  3  6  5       -2 -.797121223952D-01 0.100000000000D+01
-.350500893721D-05 0.000000000000D+00 0.000000000000D+00 0.291349948194D-06 0.000000000000D+00  6 21 -1 25 24 -2 21 4 0.12769447D-01 0.46085552D-01 0.24454403D+05 0.24454403D+05 0.24454403D+05 0.12243264D+01  1  2  5  3  6  5       -2 -.182211629882D-01 0.100000000000D+01
0.673964564369D-05 0.000000000000D+00 -.000000000000D+00 0.291349948194D-06 0.000000000000D+00  6 21 -1 25 24 -2 21 4 0.12769447D-01 0.46085552D-01 0.24454403D+05 0.24454403D+05 0.24454403D+05 0.12243264D+01  1  2  6  3  6  5       -2 0.350367670829D-01 0.100000000000D+01
0.814983032239D-06 0.000000000000D+00 0.000000000000D+00 0.291349948194D-06 0.316979086125D-07  6 21 -1 25 24 -2 21 4 0.12769447D-01 0.46085552D-01 0.24229192D+05 0.24229192D+05 0.24229192D+05 0.12247585D+01  1  2 11  3  6  5       -2 0.424254327440D-02 0.100000000000D+01
  </mgrwgt>
  </event>
  <event>
  6     66 -.48358521E-03 0.45591421E+02 0.75467711E-02 0.11929245E+00
       21 -1    0    0  501  503 0.00000000E+00 0.00000000E+00 0.15642365E+03 0.15642544E+03 0.75000000E+00 0.0000E+00 0.9000E+01
       -1 -1    0    0    0  501 0.00000000E+00 0.00000000E+00 -.23675008E+03 0.23675030E+03 0.32000000E+00 0.0000E+00 0.9000E+01
       25  1    1    2    0    0 -.90409594E+02 -.24772985E+02 -.61030651E+02 0.16774187E+03 0.12500000E+03 0.0000E+00 0.9000E+01
       24  1    1    2    0    0 0.49238931E+02 0.24894344E+02 -.87476240E+02 0.13100958E+03 0.80419002E+02 0.0000E+00 0.9000E+01
       -2  1    1    2    0  502 0.50011096E+02 -.16592808E+00 0.37564365E+02 0.62548550E+02 0.32000000E+00 0.0000E+00 0.9000E+01
       21  1    1    2  502  503 -.88404323E+01 0.44569100E-01 0.30616093E+02 0.31875741E+02 0.75000000E+00 0.0000E+00 0.9000E+01
#aMCatNLO 2  0  0  1  5 0.88405447D+01 0.00000000D+00  -5  6  0 0.00000000D+00 0.00000000D+00 0.00000000D+00 0.00000000D+00 0.00000000D+00
  <mgrwgt>
 -.1071010876D-01    3    2    0
 0.171865710965125D+03 0.000000000000000D+00 0.000000000000000D+00 0.171865710965125D+03
 0.171865710965125D+03 0.000000000000000D+00 0.000000000000000D+00 -.171865710965125D+03
 0.158939337553879D+03 -.944663504153374D+02 -.247525330207431D+02 -.100066862811702D+02
 0.108208749878430D+03 0.464404616967242D+02 0.249084520851937D+02 -.496464513132279D+02
 0.765833344979407D+02 0.480258887186132D+02 -.155919064450626D+00 0.596531375943982D+02
 0.000000000000000D+00 -.000000000000000D+00 0.000000000000000D+00 0.000000000000000D+00
 0.214832172100255D+03 0.000000000000000D+00 0.000000000000000D+00 0.214832172100255D+03
 0.172377892680557D+03 0.000000000000000D+00 0.000000000000000D+00 -.172377892680557D+03
 0.156565525149405D+03 -.904097845786192D+02 -.247729842253001D+02 -.100066862811702D+02
 0.109435706224610D+03 0.492387991220622D+02 0.248943442478237D+02 -.496464513132279D+02
 0.778438582408938D+02 0.500114177813262D+02 -.165929122871954D+00 0.596531375943982D+02
 0.433649751659025D+02 -.884043232476914D+01 0.445691003484080D-01 0.424542794196982D+02
-.140299661261D-04 0.000000000000D+00 0.000000000000D+00 0.651994508851D-06 0.000000000000D+00  6 21 -1 25 24 -2 21 4 0.24088762D-01 0.36314339D-01 0.24433454D+05 0.24433454D+05 0.24433454D+05 0.12243664D+01  1  2 13  1  6  1       21 -.346206428319D-01 0.100000000000D+01
-.123333007847D-04 0.000000000000D+00 0.000000000000D+00 0.651994508851D-06 0.000000000000D+00  6 21 -1 25 24 -2 21 4 0.24687629D-01 0.36314339D-01 0.24433454D+05 0.24433454D+05 0.24433454D+05 0.12243664D+01  1  2 13  1  6  1       21 -.290505694394D-01 0.100000000000D+01
0.215328606768D-04 0.000000000000D+00 0.000000000000D+00 0.655186398590D-06 0.129441050495D-06  6 21 -1 25 24 -2 21 4 0.24064880D-01 0.36422561D-01 0.24433454D+05 0.24433454D+05 0.24433454D+05 0.12243664D+01  1  2  1  1  6  1       21 0.529611035112D-01 0.100000000000D+01
  </mgrwgt>
  </event>
  <event>
  5     66 0.48358521E-03 0.20599597E+02 0.75467711E-02 0.12383140E+00
       21 -1    0    0  501  502 0.00000000E+00 0.00000000E+00 0.21309744E+03 0.21309876E+03 0.75000000E+00 0.0000E+00 0.9000E+01
       -3 -1    0    0    0  501 0.00000000E+00 0.00000000E+00 -.78941796E+02 0.78943379E+02 0.50000000E+00 0.0000E+00 0.9000E+01
       25  1    1    2    0    0 -.24174626E+02 0.26221056E+02 0.24305318E+02 0.13224109E+03 0.12500000E+03 0.0000E+00 0.9000E+01
       24  1    1    2    0    0 0.21223410E+02 -.46557087E+02 0.93172344E+02 0.13329027E+03 0.80419002E+02 0.0000E+00 0.9000E+01
       -4  1    1    2    0  502 0.29512158E+01 0.20336030E+02 0.16677980E+02 0.26510777E+02 0.15500000E+01 0.0000E+00 0.9000E+01
#aMCatNLO 1  0  0  5  1 0.22518047D+00 0.00000000D+00  -5  6  0 0.00000000D+00 0.00000000D+00 0.00000000D+00 0.00000000D+00 0.00000000D+00
  <mgrwgt>
 0.9737648293D-01    7    2    0
 0.129702422391920D+03 0.000000000000000D+00 0.000000000000000D+00 0.129702422391920D+03
 0.129702422391920D+03 -.000000000000000D+00 -.000000000000000D+00 -.129702422391920D+03
 0.136306606684778D+03 -.241787796452924D+02 0.261924342353461D+02 -.410345467820729D+02
 0.101881912302016D+03 0.212203055932442D+02 -.465784791456941D+02 0.359562513472772D+02
 0.212163257970469D+02 0.295847405204819D+01 0.203860449103480D+02 0.507829543479574D+01
 0.000000000000000D+00 0.000000000000000D+00 0.000000000000000D+00 0.000000000000000D+00
 0.129702422391920D+03 0.000000000000000D+00 0.000000000000000D+00 0.129702422391920D+03
 0.129702422391920D+03 -.000000000000000D+00 -.000000000000000D+00 -.129702422391920D+03
 0.136308021448881D+03 -.241765353853862D+02 0.262078988236554D+02 -.410306944532589D+02
 0.101877994089555D+03 0.212219830167616D+02 -.465669204737040D+02 0.359591306871127D+02
 0.877602677468508D+00 -.304648089974277D-01 0.794801805105750D+00 0.370875242518605D+00
 0.203412265679364D+02 0.298501717762203D+01 0.195642198449429D+02 0.470068852362758D+01
0.517138226602D-05 0.000000000000D+00 0.000000000000D+00 0.937107450158D-06 0.000000000000D+00  6 21 -3 25 24 -4 21 2 0.32784445D-01 0.12145115D-01 0.15117812D+05 0.15117812D+05 0.15117812D+05 0.12474354D+01  1  2  2  3  6  5       -4 0.183643835689D-01 0.100000000000D+01
0.296428491703D-06 0.272901339719D-06 -.104395308538D-07 0.937107450158D-06 0.000000000000D+00  6 21 -3 25 24 -4 21 4 0.32784445D-01 0.12145115D-01 0.15117812D+05 0.15117812D+05 0.15117812D+05 0.12474354D+01  1  2  3  3  6  5       -4 0.163804478632D-02 0.100000000000D+01
0.502945684784D-06 0.000000000000D+00 0.000000000000D+00 0.937107450158D-06 0.000000000000D+00  6 21 -3 25 24 -4 21 4 0.32784445D-01 0.12145115D-01 0.15117812D+05 0.15117812D+05 0.15117812D+05 0.12474354D+01  1  2 15  3  6  5       -4 0.277924551728D-02 0.100000000000D+01
-.499603166951D-04 0.000000000000D+00 0.000000000000D+00 0.937107450158D-06 0.000000000000D+00  6 21 -3 25 24 -4 21 4 0.32784445D-01 0.12145115D-01 0.15117812D+05 0.15117812D+05 0.15117812D+05 0.12474354D+01  1  2  4  3  6  5       -4 -.276077497864D+00 0.100000000000D+01
-.148328713775D-04 0.000000000000D+00 0.000000000000D+00 0.937107450158D-06 0.000000000000D+00  6 21 -3 25 24 -4 21 4 0.32784445D-01 0.12145115D-01 0.15117812D+05 0.15117812D+05 0.15117812D+05 0.12474354D+01  1  2  5  3  6  5       -4 -.819654935545D-01 0.100000000000D+01
0.613404829835D-04 0.000000000000D+00 -.000000000000D+00 0.937107450158D-06 0.000000000000D+00  6 21 -3 25 24 -4 21 4 0.32784445D-01 0.12145115D-01 0.15117812D+05 0.15117812D+05 0.15117812D+05 0.12474354D+01  1  2  6  3  6  5       -4 0.338963565088D+00 0.100000000000D+01
0.169514721146D-04 0.000000000000D+00 0.000000000000D+00 0.937107450158D-06 0.356828427253D-05  6 21 -3 25 24 -4 21 4 0.32784445D-01 0.12145115D-01 0.15115826D+05 0.15115826D+05 0.15115826D+05 0.12474419D+01  1  2 11  3  6  5       -4 0.936742353894D-01 0.100000000000D+01
  </mgrwgt>
  </event>
  <event>
  5     66 0.48358521E-03 0.29724142E+02 0.75467711E-02 0.11755758E+00
       21 -1    0    0  501  502 0.00000000E+00 0.00000000E+00 0.92742026E+02 0.92745058E+02 0.75000000E+00 0.0000E+00 0.9000E+01
       -3 -1    0    0    0  501 0.00000000E+00 0.00000000E+00 -.26986256E+03 0.26986302E+03 0.50000000E+00 0.0000E+00 0.9000E+01
       25  1    1    2    0    0 0.77677681E+02 -.62897372E+02 -.80066341E+02 0.17895676E+03 0.12500000E+03 0.0000E+00 0.9000E+01
       24  1    1    2    0    0 -.87589148E+02 0.34909933E+02 -.89817644E+02 0.15305224E+03 0.80419002E+02 0.0000E+00 0.9000E+01
       -4  1    1    2    0  502 0.99114675E+01 0.27987439E+02 -.72365467E+01 0.30599085E+02 0.15500000E+01 0.0000E+00 0.9000E+01
#aMCatNLO 1  0  0  1  1 0.29259532D+02 0.00000000D+00  -5  6  0 0.00000000D+00 0.00000000D+00 0.00000000D+00 0.00000000D+00 0.00000000D+00
  <mgrwgt>
 0.2367477803D-01    4    2    0
 0.158203141637145D+03 0.000000000000000D+00 0.000000000000000D+00 0.158203141637145D+03
 0.158203141637145D+03 0.000000000000000D+00 0.000000000000000D+00 -.158203141637145D+03
 0.160271529537910D+03 0.776713997526649D+02 -.629151081750602D+02 0.841463036640903D+01
 0.125122306053040D+03 -.875940520663636D+02 0.348960862217038D+02 -.172603802583458D+02
 0.310124476833403D+02 0.992265231369873D+01 0.280190219533564D+02 0.884574989193674D+01
 0.000000000000000D+00 0.000000000000000D+00 -.000000000000000D+00 -.000000000000000D+00
 0.165211424777481D+03 0.000000000000000D+00 0.000000000000000D+00 0.165211424777481D+03
 0.192672633017315D+03 0.000000000000000D+00 0.000000000000000D+00 -.192672633017315D+03
 0.152073172110825D+03 0.643997332421729D+02 -.572984993693755D+02 0.841463036640903D+01
 0.134373549050283D+03 -.986201473758315D+02 0.395623626051947D+02 -.172603802583458D+02
 0.313095633218644D+02 0.727456210452186D+01 0.291397016189698D+02 0.884574989193674D+01
 0.401277733118227D+02 0.269458520291367D+02 -.114035648547889D+02 -.274612082398339D+02
0.119098808238D-04 0.000000000000D+00 0.000000000000D+00 0.523866532476D-06 0.000000000000D+00  6 21 -3 25 24 -4 21 2 0.14268273D-01 0.41517585D-01 0.24602031D+05 0.24602031D+05 0.24602031D+05 0.12240455D+01  1  2  2  1  6  1       21 0.216364685106D-01 0.100000000000D+01
0.520716123921D-06 0.628501678182D-06 -.240426179946D-07 0.523866532476D-06 0.000000000000D+00  6 21 -3 25 24 -4 21 4 0.14268273D-01 0.41517585D-01 0.24602031D+05 0.24602031D+05 0.24602031D+05 0.12240455D+01  1  2  3  1  6  1       21 0.141734351761D-02 0.100000000000D+01
0.127732055544D-05 0.000000000000D+00 0.000000000000D+00 0.523866532476D-06 0.000000000000D+00  6 21 -3 25 24 -4 21 4 0.14268273D-01 0.41517585D-01 0.24602031D+05 0.24602031D+05 0.24602031D+05 0.12240455D+01  1  2 15  1  6  1       21 0.347675427358D-02 0.100000000000D+01
-.104918460744D-05 0.000000000000D+00 0.000000000000D+00 0.523866532476D-06 0.000000000000D+00  6 21 -3 25 24 -4 21 4 0.14268273D-01 0.41517585D-01 0.24602031D+05 0.24602031D+05 0.24602031D+05 0.12240455D+01  1  2  4  1  6  1       21 -.285578827662D-02 0.100000000000D+01
  </mgrwgt>
  </event>
  <event>
  5     66 -.48358521E-03 0.22132298E+02 0.75467711E-02 0.12445864E+00
       21 -1    0    0  501  502 0.00000000E+00 0.00000000E+00 0.20047473E+02 0.20061498E+02 0.75000000E+00 0.0000E+00 0.9000E+01
       -1 -1    0    0    0  501 -.00000000E+00 -.00000000E+00 -.77350248E+03 0.77350255E+03 0.32000000E+00 0.0000E+00 0.9000E+01
       25  1    1    2    0    0 0.31586076E+02 0.30536240E+02 -.42510495E+03 0.44527448E+03 0.12500000E+03 0.0000E+00 0.9000E+01
       24  1    1    2    0    0 -.12828837E+02 -.18790969E+02 -.18195960E+03 0.20023534E+03 0.80419002E+02 0.0000E+00 0.9000E+01
       -2  1    1    2    0  502 -.18757239E+02 -.11745271E+02 -.14639046E+03 0.14805423E+03 0.32000000E+00 0.0000E+00 0.9000E+01
#aMCatNLO 1  0  0  5  1 0.10801560D-01 0.00000000D+00  -5  6  0 0.00000000D+00 0.00000000D+00 0.00000000D+00 0.00000000D+00 0.00000000D+00
  <mgrwgt>
 -.6591751056D-01    7    2    0
 0.124548629835308D+03 0.000000000000000D+00 0.000000000000000D+00 0.124548629835308D+03
 0.124548629835308D+03 -.000000000000000D+00 -.000000000000000D+00 -.124548629835308D+03
 0.132704841596740D+03 0.315866902976842D+02 0.305366243757688D+02 -.744113909205842D+01
 0.875208194459569D+02 -.128284326264666D+02 -.187907157934065D+02 0.259811123403308D+02
 0.288715986279192D+02 -.187582576712176D+02 -.117459085823623D+02 -.185399732482724D+02
 0.000000000000000D+00 -.000000000000000D+00 0.000000000000000D+00 0.000000000000000D+00
 0.124548629835308D+03 0.000000000000000D+00 0.000000000000000D+00 0.124548629835308D+03
 0.124548629835308D+03 -.000000000000000D+00 -.000000000000000D+00 -.124548629835308D+03
 0.132704747863395D+03 0.315864033771979D+02 0.305364447139974D+02 -.744142267373389D+01
 0.875208171024874D+02 -.128286218548647D+02 -.187908342830607D+02 0.259809253139289D+02
 0.709613402864288D-01 -.393540916277204D-01 -.254094484460023D-01 -.533022252516954D-01
 0.288007333644477D+02 -.187184274307055D+02 -.117202009824907D+02 -.184862004149433D+02
0.221513441376D-05 0.000000000000D+00 0.000000000000D+00 0.500365012310D-06 0.000000000000D+00  6 21 -1 25 24 -2 21 2 0.30853106D-02 0.11900147D+00 0.14185277D+05 0.14185277D+05 0.14185277D+05 0.12505970D+01  1  2  2  3  6  5       -2 0.131735363088D-01 0.100000000000D+01
-.717125498989D-07 0.116895854546D-06 -.447171817286D-08 0.500365012310D-06 0.000000000000D+00  6 21 -1 25 24 -2 21 4 0.30853106D-02 0.11900147D+00 0.14185277D+05 0.14185277D+05 0.14185277D+05 0.12505970D+01  1  2  3  3  6  5       -2 -.667009769487D-03 0.100000000000D+01
0.226769625101D-06 0.000000000000D+00 0.000000000000D+00 0.500365012310D-06 0.000000000000D+00  6 21 -1 25 24 -2 21 4 0.30853106D-02 0.11900147D+00 0.14185277D+05 0.14185277D+05 0.14185277D+05 0.12505970D+01  1  2 15  3  6  5       -2 0.210922015154D-02 0.100000000000D+01
-.776104361357D-04 0.000000000000D+00 0.000000000000D+00 0.500365012310D-06 0.000000000000D+00  6 21 -1 25 24 -2 21 4 0.30853106D-02 0.11900147D+00 0.14185277D+05 0.14185277D+05 0.14185277D+05 0.12505970D+01  1  2  4  3  6  5       -2 -.721866942252D+00 0.100000000000D+01
-.189381155498D-04 0.000000000000D+00 0.000000000000D+00 0.500365012310D-06 0.000000000000D+00  6 21 -1 25 24 -2 21 4 0.30853106D-02 0.11900147D+00 0.14185277D+05 0.14185277D+05 0.14185277D+05 0.12505970D+01  1  2  5  3  6  5       -2 -.176146408198D+00 0.100000000000D+01
0.669194713834D-04 0.000000000000D+00 -.000000000000D+00 0.500365012310D-06 0.000000000000D+00  6 21 -1 25 24 -2 21 4 0.30853106D-02 0.11900147D+00 0.14185277D+05 0.14185277D+05 0.14185277D+05 0.12505970D+01  1  2  6  3  6  5       -2 0.622428588085D+00 0.100000000000D+01
0.209706529033D-04 0.000000000000D+00 0.000000000000D+00 0.500365012310D-06 0.483344025067D-04  6 21 -1 25 24 -2 21 4 0.30853106D-02 0.11900147D+00 0.14185204D+05 0.14185204D+05 0.14185204D+05 0.12505972D+01  1  2 11  3  6  5       -2 0.195051505109D+00 0.100000000000D+01
  </mgrwgt>
  </event>
  <event>
  6     66 0.48358521E-03 0.44002223E+02 0.75467711E-02 0.11803605E+00
       21 -1    0    0  501  502 0.00000000E+00 0.00000000E+00 0.42256447E+02 0.42263102E+02 0.75000000E+00 0.0000E+00 0.9000E+01
       -1 -1    0    0    0  501 -.00000000E+00 -.00000000E+00 -.76217550E+03 0.76217557E+03 0.32000000E+00 0.0000E+00 0.9000E+01
       25  1    1    2    0    0 0.16517870E+02 -.73354217E+02 -.41110809E+03 0.43622075E+03 0.12500000E+03 0.0000E+00 0.9000E+01
       24  1    1    2    0    0 -.66891346E+02 0.23609863E+02 -.11604965E+03 0.15800828E+03 0.80419002E+02 0.0000E+00 0.9000E+01
       -2  1    1    2    0  503 0.25981039E+02 -.77435567E+00 -.42541214E+02 0.49854501E+02 0.32000000E+00 0.0000E+00 0.9000E+01
       21  1    1    2  503  502 0.24392438E+02 0.50518710E+02 -.15022010E+03 0.16035514E+03 0.75000000E+00 0.0000E+00 0.9000E+01
#aMCatNLO 2  0  0  5  1 0.19820221D+02 0.00000000D+00  -5  6  0 0.00000000D+00 0.00000000D+00 0.00000000D+00 0.00000000D+00 0.00000000D+00
  <mgrwgt>
 0.6945033288D-02    2    2    0
 0.179470143296508D+03 0.000000000000000D+00 0.000000000000000D+00 0.179470143296508D+03
 0.179470143296508D+03 -.000000000000000D+00 -.000000000000000D+00 -.179470143296508D+03
 0.154385955245506D+03 0.125447255388416D+02 -.772777394543321D+02 -.456158308381070D+02
 0.122873244514703D+03 -.700473564897020D+02 0.204932684864407D+02 0.574805363470694D+02
 0.816810868328070D+02 0.575026309508604D+02 0.567844709678914D+02 -.118647055089624D+02
 0.000000000000000D+00 0.000000000000000D+00 0.000000000000000D+00 -.000000000000000D+00
 0.179470143296508D+03 0.000000000000000D+00 0.000000000000000D+00 0.179470143296508D+03
 0.179470143296508D+03 -.000000000000000D+00 -.000000000000000D+00 -.179470143296508D+03
 0.153104106758634D+03 0.164540881971982D+02 -.734172014805806D+02 -.464224623939531D+02
 0.121384786433487D+03 -.669419123040628D+02 0.235599282598435D+02 0.568397799133574D+02
 0.257983026599352D+02 0.253630666025343D+02 -.964312395589868D+00 0.461923957516156D+01
 0.586530907409592D+02 0.251247575043303D+02 0.508215856163269D+02 -.150365570945659D+02
-.177321614892D-05 0.000000000000D+00 0.000000000000D+00 0.162164594841D-06 0.000000000000D+00  6 21 -1 25 24 -2 21 4 0.65015089D-02 0.11725829D+00 0.28094004D+05 0.28094004D+05 0.28094004D+05 0.12179018D+01  1  2 13  3  6  5       -2 -.442023625873D-02 0.100000000000D+01
0.455927654486D-05 0.000000000000D+00 0.000000000000D+00 0.162042260129D-06 0.160797770790D-08  6 21 -1 25 24 -2 21 4 0.65015089D-02 0.11725829D+00 0.28094004D+05 0.28094004D+05 0.28094004D+05 0.12179018D+01  1  2  1  3  6  5       -2 0.113652695468D-01 0.100000000000D+01
  </mgrwgt>
  </event>
  <event>
  6     66 0.48358521E-03 0.41076647E+02 0.75467711E-02 0.11400973E+00
       21 -1    0    0  501  502 0.00000000E+00 0.00000000E+00 0.10720787E+03 0.10721049E+03 0.75000000E+00 0.0000E+00 0.9000E+01
       -1 -1    0    0    0  501 -.00000000E+00 -.00000000E+00 -.42953636E+03 0.42953648E+03 0.32000000E+00 0.0000E+00 0.9000E+01
       25  1    1    2    0    0 0.80103200E+02 0.11063960E+03 -.11391000E+03 0.21738935E+03 0.12500000E+03 0.0000E+00 0.9000E+01
       24  1    1    2    0    0 -.58134555E+02 -.15119749E+03 -.13839595E+03 0.22773002E+03 0.80419002E+02 0.0000E+00 0.9000E+01
       -2  1    1    2    0  503 -.31271909E+02 0.34785175E+02 -.48003325E+02 0.67025087E+02 0.32000000E+00 0.0000E+00 0.9000E+01
       21  1    1    2  503  502 0.93032640E+01 0.57727145E+01 -.22019226E+02 0.24602515E+02 0.75000000E+00 0.0000E+00 0.9000E+01
#aMCatNLO 2  0  0  5  1 0.13825480D+02 0.00000000D+00  -5  6  0 0.00000000D+00 0.00000000D+00 0.00000000D+00 0.00000000D+00 0.00000000D+00
  <mgrwgt>
 0.2149588741D-01    3    2    0
 0.214593604769258D+03 0.000000000000000D+00 0.000000000000000D+00 0.214593604769258D+03
 0.214593604769258D+03 -.000000000000000D+00 -.000000000000000D+00 -.214593604769258D+03
 0.185043901472256D+03 0.824672227758223D+02 0.106275211443570D+03 0.228250317051534D+02
 0.183731145998792D+03 -.558136284782668D+02 -.155482321461359D+03 -.681522972756702D-01
 0.604121620674688D+02 -.266535942975555D+02 0.492071100177886D+02 -.227568794078777D+02
 0.000000000000000D+00 0.000000000000000D+00 0.000000000000000D+00 0.000000000000000D+00
 0.214593604769258D+03 0.000000000000000D+00 0.000000000000000D+00 0.214593604769258D+03
 0.214593604769258D+03 -.000000000000000D+00 -.000000000000000D+00 -.214593604769258D+03
 0.186336588374823D+03 0.800761289224166D+02 0.110689581115213D+03 0.207835121311925D+02
 0.180831987906127D+03 -.581608295092561D+02 -.151148985473861D+03 -.207219611260341D+01
 0.475871990587526D+02 -.313179076783317D+02 0.345476848236320D+02 -.949671765589694D+01
 0.144314341988137D+02 0.940260826517128D+01 0.591171953501631D+01 -.921459836269211D+01
-.110949611516D-04 0.000000000000D+00 0.000000000000D+00 0.111864306047D-06 0.000000000000D+00  6 21 -1 25 24 -2 21 4 0.16493730D-01 0.66082729D-01 0.44886908D+05 0.44886908D+05 0.44886908D+05 0.11969497D+01  1  2 13  3  6  5       -2 -.167531932293D-01 0.100000000000D+01
-.503925237724D-05 0.000000000000D+00 0.000000000000D+00 0.111879932727D-06 0.000000000000D+00  6 21 -1 25 24 -2 21 4 0.16493730D-01 0.66082729D-01 0.44800800D+05 0.44800800D+05 0.44800800D+05 0.11970333D+01  1  2  8  3  6  5       -2 -.761155838931D-02 0.100000000000D+01
0.303716432723D-04 0.000000000000D+00 0.000000000000D+00 0.111879932727D-06 0.115585167985D-07  6 21 -1 25 24 -2 21 4 0.16493730D-01 0.66082729D-01 0.44886908D+05 0.44886908D+05 0.44886908D+05 0.11969497D+01  1  2  1  3  6  5       -2 0.458606390307D-01 0.100000000000D+01
  </mgrwgt>
  </event>
  <event>
  6     66 -.48358521E-03 0.10530073E+02 0.75467711E-02 0.12199729E+00
       21 -1    0    0  501  502 0.00000000E+00 0.00000000E+00 0.21974562E+03 0.21974690E+03 0.75000000E+00 0.0000E+00 0.9000E+01
       21 -1    0    0  503  501 0.00000000E+00 0.00000000E+00 -.27201455E+03 0.27201558E+03 0.75000000E+00 0.0000E+00 0.9000E+01
       25  1    1    2    0    0 0.54523114E+02 -.11107853E+02 0.36682538E+02 0.14165720E+03 0.12500000E+03 0.0000E+00 0.9000E+01
       24  1    1    2    0    0 -.68147317E+02 0.43894379E+02 0.57199426E+02 0.12770969E+03 0.80419002E+02 0.0000E+00 0.9000E+01
        3  1    1    2  503    0 0.11486392E+02 -.13528125E+02 -.18133329E+03 0.18220032E+03 0.50000000E+00 0.0000E+00 0.9000E+01
       -4  1    1    2    0  502 0.21378118E+01 -.19258402E+02 0.35182393E+02 0.40195268E+02 0.15500000E+01 0.0000E+00 0.9000E+01
#aMCatNLO 2  0  0  2  1 0.17746756D+02 0.00000000D+00  -5  6  0 0.00000000D+00 0.00000000D+00 0.00000000D+00 0.00000000D+00 0.00000000D+00
  <mgrwgt>
 -.1301630042D+00    1    2    0
 0.140406706013320D+03 0.000000000000000D+00 0.000000000000000D+00 0.140406706013320D+03
 0.140406706013320D+03 0.000000000000000D+00 0.000000000000000D+00 -.140406706013320D+03
 0.142064957676085D+03 0.602638257969929D+02 -.178569946604984D+02 -.246343508441467D+02
 0.109597334560291D+03 -.635753321633196D+02 0.385189658796335D+02 0.433891648191401D+01
 0.000000000000000D+00 0.000000000000000D+00 -.000000000000000D+00 -.000000000000000D+00
 0.291511197902634D+02 0.331150636632679D+01 -.206619712191352D+02 0.202954343622327D+02
 0.140964692263069D+03 0.000000000000000D+00 0.000000000000000D+00 0.140964692263069D+03
 0.424038007531710D+03 0.000000000000000D+00 0.000000000000000D+00 -.424038007531710D+03
 0.139023086569713D+03 0.545207417838804D+02 -.110930641931237D+02 -.246343508441467D+02
 0.114272107542950D+03 -.681493474595492D+02 0.439060229642534D+02 0.433891648191401D+01
 0.283629069679613D+03 0.114863918270399D+02 -.135281245166764D+02 -.283073315268641D+03
 0.280784360025036D+02 0.214221384862882D+01 -.192848342544533D+02 0.202954343622327D+02
-.117862568261D-04 0.000000000000D+00 0.000000000000D+00 0.147617224939D-05 0.000000000000D+00  6 21 21 25 24 3 -4 4 0.33673323D-01 0.41806554D-01 0.20759484D+05 0.20759484D+05 0.20759484D+05 0.12320480D+01  1  2 13 10  5  2       -3 -.130163004187D+00 0.100000000000D+01
  </mgrwgt>
  </event>
  <event>
  5     66 -.48358521E-03 0.37437130E+02 0.75467711E-02 0.11660039E+00
       21 -1    0    0  501  502 0.00000000E+00 0.00000000E+00 0.76648644E+02 0.76652313E+02 0.75000000E+00 0.0000E+00 0.9000E+01
       -1 -1    0    0    0  501 0.00000000E+00 0.00000000E+00 -.37545786E+03 0.37545800E+03 0.32000000E+00 0.0000E+00 0.9000E+01
       25  1    1    2    0    0 0.34174475E+02 0.43944804E+02 -.21874799E+03 0.25802078E+03 0.12500000E+03 0.0000E+00 0.9000E+01
       24  1    1    2    0    0 -.25497761E+02 -.75271847E+01 -.11503734E+03 0.14285517E+03 0.80419002E+02 0.0000E+00 0.9000E+01
       -2  1    1    2    0  502 -.86767148E+01 -.36417619E+02 0.34976114E+02 0.51234357E+02 0.32000000E+00 0.0000E+00 0.9000E+01
#aMCatNLO 1  0  0  1  5 0.12089841D+03 0.00000000D+00  -5  6  0 0.00000000D+00 0.00000000D+00 0.00000000D+00 0.00000000D+00 0.00000000D+00
  <mgrwgt>
 -.3766205835D-01   12    4    0
 0.169644322613913D+03 0.000000000000000D+00 0.000000000000000D+00 0.169644322613913D+03
 0.169644322613913D+03 0.000000000000000D+00 0.000000000000000D+00 -.169644322613913D+03
 0.151169163734201D+03 0.341744956166562D+02 0.439448886382112D+02 -.642500324982019D+02
 0.890453872447218D+02 -.254977488189264D+02 -.752713484352683D+01 -.274785749522465D+02
 0.990740942489035D+02 -.867674679772981D+01 -.364177537946844D+02 0.917286074504484D+02
 0.000000000000000D+00 0.000000000000000D+00 0.000000000000000D+00 0.000000000000000D+00
 0.558374368647480D+03 0.000000000000000D+00 0.000000000000000D+00 0.558374368647480D+03
 0.179346270726874D+03 0.000000000000000D+00 0.000000000000000D+00 -.179346270726874D+03
 0.142867009610284D+03 0.351951949898296D+01 0.254072576533039D+02 -.642500324982019D+02
 0.980888864523201D+02 -.450075819994177D+02 -.193250917784383D+02 -.274785749522465D+02
 0.108557320731404D+03 -.303235258150959D+02 -.495079613973718D+02 0.917286074504484D+02
 0.388207422580345D+03 0.718115883155307D+02 0.434257955225062D+02 0.379028097920606D+03
 0.169644322613913D+03 0.000000000000000D+00 0.000000000000000D+00 0.169644322613913D+03
 0.169644322613913D+03 0.000000000000000D+00 0.000000000000000D+00 -.169644322613913D+03
 0.151169163734201D+03 0.341744956166562D+02 0.439448886382112D+02 -.642500324982019D+02
 0.890453872447218D+02 -.254977488189264D+02 -.752713484352683D+01 -.274785749522465D+02
 0.000000000000000D+00 0.000000000000000D+00 0.000000000000000D+00 0.000000000000000D+00
 0.990740942489035D+02 -.867674679772981D+01 -.364177537946844D+02 0.917286074504484D+02
 0.558374368647480D+03 0.000000000000000D+00 0.000000000000000D+00 0.558374368647480D+03
 0.179346270726874D+03 0.000000000000000D+00 0.000000000000000D+00 -.179346270726874D+03
 0.142867009610284D+03 0.351951949898296D+01 0.254072576533039D+02 -.642500324982019D+02
 0.980888864523201D+02 -.450075819994177D+02 -.193250917784383D+02 -.274785749522465D+02
 0.388207422580345D+03 0.718115883155307D+02 0.434257955225062D+02 0.379028097920606D+03
 0.108557320731404D+03 -.303235258150959D+02 -.495079613973718D+02 0.917286074504484D+02
0.203396430122D-05 0.000000000000D+00 0.000000000000D+00 0.236604369734D-05 0.000000000000D+00  6 21 -1 25 24 -2 21 2 0.11792392D-01 0.57763041D-01 0.16766689D+05 0.16766689D+05 0.16766689D+05 0.12423473D+01  1  2  2  1  6  1       21 0.551414138250D-02 0.100000000000D+01
0.166738369990D-06 0.107335245045D-06 -.410598791307D-08 0.236604369734D-05 0.000000000000D+00  6 21 -1 25 24 -2 21 4 0.11792392D-01 0.57763041D-01 0.16766689D+05 0.16766689D+05 0.16766689D+05 0.12423473D+01  1  2  3  1  6  1       21 0.697679815456D-03 0.100000000000D+01
0.202884769491D-06 0.000000000000D+00 0.000000000000D+00 0.236604369734D-05 0.000000000000D+00  6 21 -1 25 24 -2 21 4 0.11792392D-01 0.57763041D-01 0.16766689D+05 0.16766689D+05 0.16766689D+05 0.12423473D+01  1  2 15  1  6  1       21 0.848926426146D-03 0.100000000000D+01
-.816641932034D-04 0.000000000000D+00 -.657848832410D-05 0.236604369734D-05 0.000000000000D+00  6 21 -1 25 24 -2 21 4 0.40196340D-01 0.57763041D-01 0.16766689D+05 0.16766689D+05 0.16766689D+05 0.12423473D+01  1  2  5  1  6  1       21 -.344542562411D-01 0.100000000000D+01
-.305740252577D-04 0.000000000000D+00 -.246483902604D-05 0.236604369734D-05 0.000000000000D+00  6 -1 -1 25 24 -2 -1 4 0.40196340D-01 0.57763041D-01 0.16766689D+05 0.16766689D+05 0.16766689D+05 0.12423473D+01  1  2  5  4  6  1       21 -.119668239021D-02 0.100000000000D+01
-.305740252577D-04 0.000000000000D+00 -.246483902604D-05 0.236604369734D-05 0.000000000000D+00  6 1 -1 25 24 1 -2 4 0.40196340D-01 0.57763041D-01 0.16766689D+05 0.16766689D+05 0.16766689D+05 0.12423473D+01  3  4  5  5  5  1       21 -.241691524625D-02 0.100000000000D+01
-.305740252577D-04 0.000000000000D+00 -.246483902604D-05 0.236604369734D-05 0.000000000000D+00  6 -2 -1 25 24 -2 -2 4 0.40196340D-01 0.57763041D-01 0.16766689D+05 0.16766689D+05 0.16766689D+05 0.12423473D+01  1  2  5  6  6  1       21 -.101059628653D-02 0.100000000000D+01
-.305740252577D-04 0.000000000000D+00 -.246483902604D-05 0.236604369734D-05 0.000000000000D+00  6 2 -1 25 24 2 -2 4 0.40196340D-01 0.57763041D-01 0.16766689D+05 0.16766689D+05 0.16766689D+05 0.12423473D+01  3  4  5  7  5  1       21 -.333158117898D-02 0.100000000000D+01
-.305740252577D-04 0.000000000000D+00 -.246483902604D-05 0.236604369734D-05 0.000000000000D+00  6 -3 -1 25 24 -2 -3 4 0.40196340D-01 0.57763041D-01 0.16766689D+05 0.16766689D+05 0.16766689D+05 0.12423473D+01  1  2  5  8  6  1       21 -.632833443985D-03 0.100000000000D+01
-.305740252577D-04 0.000000000000D+00 -.246483902604D-05 0.236604369734D-05 0.000000000000D+00  6 -4 -1 25 24 -2 -4 4 0.40196340D-01 0.57763041D-01 0.16766689D+05 0.16766689D+05 0.16766689D+05 0.12423473D+01  1  2  5  8  6  1       21 -.523492719713D-03 0.100000000000D+01
-.305740252577D-04 0.000000000000D+00 -.246483902604D-05 0.236604369734D-05 0.000000000000D+00  6 3 -1 25 24 3 -2 4 0.40196340D-01 0.57763041D-01 0.16766689D+05 0.16766689D+05 0.16766689D+05 0.12423473D+01  3  4  5  9  5  1       21 -.632955750580D-03 0.100000000000D+01
-.305740252577D-04 0.000000000000D+00 -.246483902604D-05 0.236604369734D-05 0.000000000000D+00  6 4 -1 25 24 4 -2 4 0.40196340D-01 0.57763041D-01 0.16766689D+05 0.16766689D+05 0.16766689D+05 0.12423473D+01  3  4  5  9  5  1       21 -.523492719713D-03 0.100000000000D+01
  </mgrwgt>
  </event>
  <event>
  6     66 0.48358521E-03 0.17657755E+02 0.75467711E-02 0.12396868E+00
       21 -1    0    0  503  502 0.00000000E+00 0.00000000E+00 0.64901200E+03 0.64901243E+03 0.75000000E+00 0.0000E+00 0.9000E+01
       -1 -1    0    0    0  501 0.00000000E+00 0.00000000E+00 -.77253083E+02 0.77253745E+02 0.32000000E+00 0.0000E+00 0.9000E+01
       25  1    1    2    0    0 -.68214193E+01 0.39487014E+02 0.37032362E+02 0.13638971E+03 0.12500000E+03 0.0000E+00 0.9000E+01
       24  1    1    2    0    0 0.19940273E+02 -.28362022E+02 0.44529814E+02 0.98245301E+02 0.80419002E+02 0.0000E+00 0.9000E+01
       -2  1    1    2    0  502 -.12156299E+02 -.16156487E+02 0.14581075E+03 0.14720626E+03 0.32000000E+00 0.0000E+00 0.9000E+01
       21  1    1    2  503  501 -.96255380E+00 0.50314948E+01 0.34438599E+03 0.34442491E+03 0.75000000E+00 0.0000E+00 0.9000E+01
#aMCatNLO 2  0  0  1  2 0.22572422D+02 0.00000000D+00  -5  6  0 0.00000000D+00 0.00000000D+00 0.00000000D+00 0.00000000D+00 0.00000000D+00
  <mgrwgt>
 0.5251899482D+00    1    2    0
 0.153360740040600D+03 0.000000000000000D+00 0.000000000000000D+00 0.153360740040600D+03
 0.153360740040600D+03 0.000000000000000D+00 0.000000000000000D+00 -.153360740040600D+03
 0.143010355183199D+03 -.726904921905470D+01 0.418272193219212D+02 -.549964211278488D+02
 0.887689681855199D+02 0.196609412504455D+02 -.269016814521444D+02 -.173913967968415D+02
 0.749421567124799D+02 -.123918920313908D+02 -.149255378697769D+02 0.723878179246903D+02
 0.000000000000000D+00 -.000000000000000D+00 0.000000000000000D+00 0.000000000000000D+00
 0.326802628950471D+03 0.000000000000000D+00 0.000000000000000D+00 0.326802628950471D+03
 0.153419958689426D+03 0.000000000000000D+00 0.000000000000000D+00 -.153419958689426D+03
 0.142321349381179D+03 -.682136624951582D+01 0.394870752943017D+02 -.549964211278488D+02
 0.892843463794578D+02 0.199403053565914D+02 -.283619832483056D+02 -.173913967968415D+02
 0.751585602939364D+02 -.121563853083579D+02 -.161565868237662D+02 0.723878179246903D+02
 0.173458331585324D+03 -.962553798717600D+00 0.503149477777012D+01 0.173382670261044D+03
0.616428242747D-03 0.000000000000D+00 0.000000000000D+00 0.583370280669D-05 0.124759729275D-04  6 21 -1 25 24 -2 21 4 0.99847557D-01 0.11885111D-01 0.14906214D+05 0.14906214D+05 0.14906214D+05 0.12481332D+01  1  2  1  1  6  1       21 0.525189948185D+00 0.100000000000D+01
  </mgrwgt>
  </event>
  <event>
  5     66 0.48358521E-03 0.79754682E+02 0.75467711E-02 0.11626219E+00
       21 -1    0    0  501  502 0.00000000E+00 0.00000000E+00 0.62307398E+02 0.62311912E+02 0.75000000E+00 0.0000E+00 0.9000E+01
       -1 -1    0    0    0  501 0.00000000E+00 0.00000000E+00 -.77766750E+03 0.77766757E+03 0.32000000E+00 0.0000E+00 0.9000E+01
       25  1    1    2    0    0 0.67492973E+00 0.13718096E+02 -.75035056E+02 0.14643736E+03 0.12500000E+03 0.0000E+00 0.9000E+01
       24  1    1    2    0    0 0.63756043E+02 0.33286626E+02 -.99173581E+02 0.14654504E+03 0.80419002E+02 0.0000E+00 0.9000E+01
       -2  1    1    2    0  502 -.64430973E+02 -.47004721E+02 -.54115147E+03 0.54699708E+03 0.32000000E+00 0.0000E+00 0.9000E+01
#aMCatNLO 1  0  0  1  5 0.60625667D+02 0.00000000D+00  -5  6  0 0.00000000D+00 0.00000000D+00 0.00000000D+00 0.00000000D+00 0.00000000D+00
  <mgrwgt>
 0.1890755554D-01    4    2    0
 0.220128058823275D+03 0.000000000000000D+00 0.000000000000000D+00 0.220128058823275D+03
 0.220128058823275D+03 0.000000000000000D+00 0.000000000000000D+00 -.220128058823275D+03
 0.157470433849933D+03 0.674973421297807D+00 0.137181275935461D+02 0.947802454264274D+02
 0.118453831979132D+03 0.637560761188016D+02 0.332866495984527D+02 0.489004710878476D+02
 0.164331851817484D+03 -.644310495400994D+02 -.470047771919988D+02 -.143680716514275D+03
 0.000000000000000D+00 -.000000000000000D+00 -.000000000000000D+00 -.000000000000000D+00
 0.233484981163030D+03 0.000000000000000D+00 0.000000000000000D+00 0.233484981163030D+03
 0.303668165888545D+03 0.000000000000000D+00 0.000000000000000D+00 -.303668165888545D+03
 0.160799187132306D+03 0.662697844800971D+01 0.347011068406491D+02 0.947802454264274D+02
 0.126377314452347D+03 0.683346978853356D+02 0.494279540960719D+02 0.489004710878476D+02
 0.157234255119493D+03 -.584173964650675D+02 -.258044661864855D+02 -.143680716514275D+03
 0.927423903474290D+02 -.165442798682778D+02 -.583245947502354D+02 -.701831847255153D+02
0.261497640627D-04 0.000000000000D+00 0.000000000000D+00 0.190648853743D-06 0.000000000000D+00  6 21 -1 25 24 -2 21 2 0.95861059D-02 0.11964151D+00 0.24554274D+05 0.24554274D+05 0.24554274D+05 0.12241362D+01  1  2  2  1  6  1       21 0.216400232553D-01 0.100000000000D+01
-.342174595603D-05 0.137996096188D-05 -.527888395617D-07 0.190648853743D-06 0.000000000000D+00  6 21 -1 25 24 -2 21 4 0.95861059D-02 0.11964151D+00 0.24554274D+05 0.24554274D+05 0.24554274D+05 0.12241362D+01  1  2  3  1  6  1       21 -.424323585539D-02 0.100000000000D+01
0.282010351760D-05 0.000000000000D+00 0.000000000000D+00 0.190648853743D-06 0.000000000000D+00  6 21 -1 25 24 -2 21 4 0.95861059D-02 0.11964151D+00 0.24554274D+05 0.24554274D+05 0.24554274D+05 0.12241362D+01  1  2 15  1  6  1       21 0.349715160493D-02 0.100000000000D+01
-.160181989308D-05 0.000000000000D+00 0.000000000000D+00 0.190648853743D-06 0.000000000000D+00  6 21 -1 25 24 -2 21 4 0.95861059D-02 0.11964151D+00 0.24554274D+05 0.24554274D+05 0.24554274D+05 0.12241362D+01  1  2  4  1  6  1       21 -.198638346959D-02 0.100000000000D+01
  </mgrwgt>
  </event>
  <event>
  5     66 0.48358521E-03 0.51876361E+02 0.75467711E-02 0.11103580E+00
       21 -1    0    0  501  502 0.00000000E+00 0.00000000E+00 0.20354855E+02 0.20368668E+02 0.75000000E+00 0.0000E+00 0.9000E+01
       -1 -1    0    0    0  501 0.00000000E+00 0.00000000E+00 -.10319223E+04 0.10319224E+04 0.32000000E+00 0.0000E+00 0.9000E+01
       25  1    1    2    0    0 0.38482027E+02 -.18586844E+02 -.30559420E+03 0.33292515E+03 0.12500000E+03 0.0000E+00 0.9000E+01
       24  1    1    2    0    0 -.14782544E+02 -.27558782E+02 -.44201418E+03 0.45035737E+03 0.80419002E+02 0.0000E+00 0.9000E+01
       -2  1    1    2    0  502 -.23699483E+02 0.46145625E+02 -.26395911E+03 0.26900855E+03 0.32000000E+00 0.0000E+00 0.9000E+01
#aMCatNLO 1  0  0  1  1 0.41166039D+02 0.00000000D+00  -5  6  0 0.00000000D+00 0.00000000D+00 0.00000000D+00 0.00000000D+00 0.00000000D+00
  <mgrwgt>
 0.4512569067D-01    3    2    0
 0.144954901405529D+03 0.000000000000000D+00 0.000000000000000D+00 0.144954901405529D+03
 0.144954901405529D+03 0.000000000000000D+00 0.000000000000000D+00 -.144954901405529D+03
 0.142130562500650D+03 0.384822204207730D+02 -.185872208508096D+02 0.524378749500921D+02
 0.923730965894511D+02 -.147824180992300D+02 -.275590267629762D+02 -.329780711711683D+02
 0.554061437209562D+02 -.236998023215430D+02 0.461462476137858D+02 -.194598037789237D+02
 0.000000000000000D+00 0.000000000000000D+00 0.000000000000000D+00 -.000000000000000D+00
 0.197520297145736D+03 0.000000000000000D+00 0.000000000000000D+00 0.197520297145736D+03
 0.494169519317207D+03 0.000000000000000D+00 0.000000000000000D+00 -.494169519317207D+03
 0.146611421166518D+03 -.435008292905084D+02 -.350407753656037D+02 0.524378749500921D+02
 0.121876217380660D+03 -.756146252301002D+02 -.397677216067017D+02 -.329780711711683D+02
 0.744997263499075D+02 -.605842181884201D+02 0.387437449092726D+02 -.194598037789237D+02
 0.348702451565857D+03 0.179699672709029D+03 0.360647520630328D+02 -.296649222171471D+03
0.153133655984D-04 0.000000000000D+00 0.000000000000D+00 0.275687265846D-06 0.000000000000D+00  6 21 -1 25 24 -2 21 2 0.31325825D-02 0.15875835D+00 0.18260895D+05 0.18260895D+05 0.18260895D+05 0.12381994D+01  1  2  2  1  6  1       21 0.425945229251D-01 0.100000000000D+01
-.114682709943D-05 0.808108504153D-06 -.309132731669D-07 0.275687265846D-06 0.000000000000D+00  6 21 -1 25 24 -2 21 4 0.31325825D-02 0.15875835D+00 0.18260895D+05 0.18260895D+05 0.18260895D+05 0.12381994D+01  1  2  3  1  6  1       21 -.489060083179D-02 0.100000000000D+01
0.174037620858D-05 0.000000000000D+00 0.000000000000D+00 0.275687265846D-06 0.000000000000D+00  6 21 -1 25 24 -2 21 4 0.31325825D-02 0.15875835D+00 0.18260895D+05 0.18260895D+05 0.18260895D+05 0.12381994D+01  1  2 15  1  6  1       21 0.742176858008D-02 0.100000000000D+01
  </mgrwgt>
  </event>
  <event>
  5     66 0.48358521E-03 0.50196985E+02 0.75467711E-02 0.11984308E+00
       21 -1    0    0  501  502 0.00000000E+00 0.00000000E+00 0.96526971E+02 0.96529885E+02 0.75000000E+00 0.0000E+00 0.9000E+01
       -1 -1    0    0    0  501 -.00000000E+00 -.00000000E+00 -.28985597E+03 0.28985614E+03 0.32000000E+00 0.0000E+00 0.9000E+01
       25  1    1    2    0    0 0.53892396E+02 0.38297899E+02 -.11387791E+02 0.14186543E+03 0.12500000E+03 0.0000E+00 0.9000E+01
       24  1    1    2    0    0 -.78211009E+02 0.56142835E+01 -.11388663E+03 0.15995582E+03 0.80419002E+02 0.0000E+00 0.9000E+01
       -2  1    1    2    0  502 0.24318613E+02 -.43912182E+02 -.68054574E+02 0.84564781E+02 0.32000000E+00 0.0000E+00 0.9000E+01
#aMCatNLO 1  0  0  5  1 0.98692481D+00 0.00000000D+00  -5  6  0 0.00000000D+00 0.00000000D+00 0.00000000D+00 0.00000000D+00 0.00000000D+00
  <mgrwgt>
 0.4089648701D-01    8    2    0
 0.167270785815187D+03 0.000000000000000D+00 0.000000000000000D+00 0.167270785815187D+03
 0.167270785815187D+03 -.000000000000000D+00 -.000000000000000D+00 -.167270785815187D+03
 0.157269745244661D+03 0.538922235390058D+02 0.382982094437670D+02 0.688305757984335D+02
 0.118930269264502D+03 -.782111390507625D+02 0.561451828861701D+01 -.390984386609687D+02
 0.583415571212105D+02 0.243189155117567D+02 -.439127277323840D+02 -.297321371374648D+02
 0.000000000000000D+00 0.000000000000000D+00 0.000000000000000D+00 -.000000000000000D+00
 0.167270785815187D+03 0.000000000000000D+00 0.000000000000000D+00 0.167270785815187D+03
 0.167270785815187D+03 -.000000000000000D+00 -.000000000000000D+00 -.167270785815187D+03
 0.157184176861867D+03 0.540280864426194D+02 0.380528814523757D+02 0.686644707564476D+02
 0.118895486619976D+03 -.781083840985199D+02 0.542897340941372D+01 -.392240661516418D+02
 0.105383255148957D+01 0.276108862485271D+00 -.779945642994105D+00 0.652695745819328D+00
 0.574080755970411D+02 0.238041887934152D+02 -.427019092187954D+02 -.300931003506251D+02
0.540772657502D-05 0.000000000000D+00 0.000000000000D+00 0.173478559514D-06 0.000000000000D+00  6 21 -1 25 24 -2 21 2 0.14850541D-01 0.44593464D-01 0.23092505D+05 0.23092505D+05 0.23092505D+05 0.12270105D+01  1  2  2  3  6  5       -2 0.152281640902D-01 0.100000000000D+01
-.402613222466D-06 0.285373571560D-06 -.109166419199D-07 0.173478559514D-06 0.000000000000D+00  6 21 -1 25 24 -2 21 4 0.14850541D-01 0.44593464D-01 0.23092505D+05 0.23092505D+05 0.23092505D+05 0.12270105D+01  1  2  3  3  6  5       -2 -.170693666554D-02 0.100000000000D+01
0.618261989890D-06 0.000000000000D+00 0.000000000000D+00 0.173478559514D-06 0.000000000000D+00  6 21 -1 25 24 -2 21 4 0.14850541D-01 0.44593464D-01 0.23092505D+05 0.23092505D+05 0.23092505D+05 0.12270105D+01  1  2 15  3  6  5       -2 0.262121063235D-02 0.100000000000D+01
0.796924071965D-11 0.000000000000D+00 0.000000000000D+00 0.173529003912D-06 0.000000000000D+00  6 21 -1 25 24 -2 21 4 0.14850541D-01 0.44593464D-01 0.23005046D+05 0.23005046D+05 0.23005046D+05 0.12271889D+01  1  2 12  3  6  5       -2 0.338060262036D-07 0.100000000000D+01
-.225050767348D-05 0.000000000000D+00 0.000000000000D+00 0.173478559514D-06 0.000000000000D+00  6 21 -1 25 24 -2 21 4 0.14850541D-01 0.44593464D-01 0.23092505D+05 0.23092505D+05 0.23092505D+05 0.12270105D+01  1  2  4  3  6  5       -2 -.954135097803D-02 0.100000000000D+01
-.824906246296D-06 0.000000000000D+00 0.000000000000D+00 0.173478559514D-06 0.000000000000D+00  6 21 -1 25 24 -2 21 4 0.14850541D-01 0.44593464D-01 0.23092505D+05 0.23092505D+05 0.23092505D+05 0.12270105D+01  1  2  5  3  6  5       -2 -.349730867956D-02 0.100000000000D+01
0.223391697780D-05 0.000000000000D+00 -.000000000000D+00 0.173478559514D-06 0.000000000000D+00  6 21 -1 25 24 -2 21 4 0.14850541D-01 0.44593464D-01 0.23092505D+05 0.23092505D+05 0.23092505D+05 0.12270105D+01  1  2  6  3  6  5       -2 0.947101233742D-02 0.100000000000D+01
0.667638794423D-05 0.000000000000D+00 0.000000000000D+00 0.173478559514D-06 0.924476093904D-07  6 21 -1 25 24 -2 21 4 0.14850541D-01 0.44593464D-01 0.23005046D+05 0.23005046D+05 0.23005046D+05 0.12271889D+01  1  2 11  3  6  5       -2 0.283216624680D-01 0.100000000000D+01
  </mgrwgt>
  </event>
  <event>
  5     66 0.48358521E-03 0.20694793E+02 0.75467711E-02 0.11537489E+00
       21 -1    0    0  501  502 0.00000000E+00 0.00000000E+00 0.31585601E+02 0.31594504E+02 0.75000000E+00 0.0000E+00 0.9000E+01
       -1 -1    0    0    0  501 0.00000000E+00 0.00000000E+00 -.71801045E+03 0.71801052E+03 0.32000000E+00 0.0000E+00 0.9000E+01
       25  1    1    2    0    0 -.61748333E+02 0.44052213E+02 -.54201835E+03 0.56139322E+03 0.12500000E+03 0.0000E+00 0.9000E+01
       24  1    1    2    0    0 0.41238804E+02 -.41304870E+02 -.11164136E+03 0.14945816E+03 0.80419002E+02 0.0000E+00 0.9000E+01
       -2  1    1    2    0  502 0.20509529E+02 -.27473430E+01 -.32765140E+02 0.38753651E+02 0.32000000E+00 0.0000E+00 0.9000E+01
#aMCatNLO 1  0  0  2  1 0.10539625D+03 0.00000000D+00  -5  6  0 0.00000000D+00 0.00000000D+00 0.00000000D+00 0.00000000D+00 0.00000000D+00
  <mgrwgt>
 0.1551779665D-01    5    4    0
 0.150605959152620D+03 0.000000000000000D+00 0.000000000000000D+00 0.150605959152620D+03
 0.150605959152620D+03 0.000000000000000D+00 0.000000000000000D+00 -.150605959152620D+03
 0.161907650671254D+03 -.617495233579122D+02 0.440523727965364D+02 -.695375593614738D+02
 0.117528654766343D+03 0.412379395920146D+02 -.413047545107671D+02 0.627623958260549D+02
 0.217756128676416D+02 0.205115837658976D+02 -.274761828576926D+01 0.677516353541885D+01
 0.000000000000000D+00 0.000000000000000D+00 0.000000000000000D+00 -.000000000000000D+00
 0.162924249244960D+03 0.000000000000000D+00 0.000000000000000D+00 0.162924249244960D+03
 0.984918605432541D+03 0.000000000000000D+00 0.000000000000000D+00 -.984918605432541D+03
 0.191339141860842D+03 -.121412763685705D+03 0.375384584165667D+02 -.695375593614738D+02
 0.111740170399968D+03 0.251452778828149D+01 -.455324998964351D+02 0.627623958260549D+02
 0.160397701875063D+02 0.141245808687607D+02 -.344493860876867D+01 0.677516353541885D+01
 0.828723772229185D+03 0.104773655028662D+03 0.114389800886371D+02 -.821994356187582D+03
 0.150605959152620D+03 0.000000000000000D+00 0.000000000000000D+00 0.150605959152620D+03
 0.150605959152620D+03 0.000000000000000D+00 0.000000000000000D+00 -.150605959152620D+03
 0.161907650671254D+03 -.617495233579122D+02 0.440523727965364D+02 -.695375593614738D+02
 0.117528654766343D+03 0.412379395920146D+02 -.413047545107671D+02 0.627623958260549D+02
 0.000000000000000D+00 0.000000000000000D+00 0.000000000000000D+00 -.000000000000000D+00
 0.217756128676416D+02 0.205115837658976D+02 -.274761828576926D+01 0.677516353541885D+01
 0.162924249244960D+03 0.000000000000000D+00 0.000000000000000D+00 0.162924249244960D+03
 0.984918605432541D+03 0.000000000000000D+00 0.000000000000000D+00 -.984918605432541D+03
 0.191339141860842D+03 -.121412763685705D+03 0.375384584165667D+02 -.695375593614738D+02
 0.111740170399968D+03 0.251452778828149D+01 -.455324998964351D+02 0.627623958260549D+02
 0.828723772229185D+03 0.104773655028662D+03 0.114389800886371D+02 -.821994356187582D+03
 0.160397701875063D+02 0.141245808687607D+02 -.344493860876867D+01 0.677516353541885D+01
0.381306463734D-05 0.000000000000D+00 0.000000000000D+00 0.690228202411D-06 0.000000000000D+00  6 21 -1 25 24 -2 21 2 0.48600135D-02 0.11046384D+00 0.17725781D+05 0.17725781D+05 0.17725781D+05 0.12396396D+01  1  2  2  2  6  2       -1 0.124787900148D-01 0.100000000000D+01
0.261883832513D-06 0.201220949146D-06 -.769747891017D-08 0.690228202411D-06 0.000000000000D+00  6 21 -1 25 24 -2 21 4 0.48600135D-02 0.11046384D+00 0.17725781D+05 0.17725781D+05 0.17725781D+05 0.12396396D+01  1  2  3  2  6  2       -1 0.131703676835D-02 0.100000000000D+01
0.376263163803D-06 0.000000000000D+00 0.000000000000D+00 0.690228202411D-06 0.000000000000D+00  6 21 -1 25 24 -2 21 4 0.48600135D-02 0.11046384D+00 0.17725781D+05 0.17725781D+05 0.17725781D+05 0.12396396D+01  1  2 15  2  6  2       -1 0.189226045972D-02 0.100000000000D+01
-.877506697040D-04 0.000000000000D+00 -.498718547776D-05 0.690228202411D-06 0.000000000000D+00  6 21 -1 25 24 -2 21 4 0.48600135D-02 0.72524284D+00 0.17725781D+05 0.17725781D+05 0.17725781D+05 0.12396396D+01  1  2  5  2  6  2       -1 -.125326316525D-03 0.100000000000D+01
-.206292112451D-04 0.000000000000D+00 -.114929886954D-05 0.690228202411D-06 0.000000000000D+00  6 21 21 25 24 1 -2 4 0.48600135D-02 0.72524284D+00 0.17725781D+05 0.17725781D+05 0.17725781D+05 0.12396396D+01  3  4  5 10  5  2       -1 -.449642808564D-04 0.100000000000D+01
  </mgrwgt>
  </event>
  <event>
  6     66 -.48358521E-03 0.37599176E+02 0.75467711E-02 0.11797556E+00
       21 -1    0    0  501  503 0.00000000E+00 0.00000000E+00 0.66099185E+03 0.66099227E+03 0.75000000E+00 0.0000E+00 0.9000E+01
       -1 -1    0    0    0  501 0.00000000E+00 0.00000000E+00 -.17415163E+03 0.17415192E+03 0.32000000E+00 0.0000E+00 0.9000E+01
       25  1    1    2    0    0 -.52053776E+02 0.98732142E+02 -.67216943E+02 0.18055677E+03 0.12500000E+03 0.0000E+00 0.9000E+01
       24  1    1    2    0    0 0.35159484E+02 -.43757342E+02 0.10074435E+02 0.98588054E+02 0.80419002E+02 0.0000E+00 0.9000E+01
       -2  1    1    2    0  502 -.41994669E+01 -.48456489E+02 0.52387364E+03 0.52612675E+03 0.32000000E+00 0.0000E+00 0.9000E+01
       21  1    1    2  502  503 0.21093759E+02 -.65183112E+01 0.20109087E+02 0.29872611E+02 0.75000000E+00 0.0000E+00 0.9000E+01
#aMCatNLO 2  0  0  1  2 0.22077931D+02 0.00000000D+00  -5  6  0 0.00000000D+00 0.00000000D+00 0.00000000D+00 0.00000000D+00 0.00000000D+00
  <mgrwgt>
 -.5360894567D-01    3    2    0
 0.327924127891619D+03 0.000000000000000D+00 0.000000000000000D+00 0.327924127891619D+03
 0.327924127891619D+03 0.000000000000000D+00 0.000000000000000D+00 -.327924127891619D+03
 0.266872623286827D+03 -.434326646900325D+02 0.960680933956902D+02 -.210904059062961D+03
 0.115445888419725D+03 0.388452589614070D+02 -.448962996521530D+02 -.577572967893604D+02
 0.273529744076687D+03 0.458740572862544D+01 -.511717937435372D+02 0.268661355852322D+03
 0.000000000000000D+00 0.000000000000000D+00 -.000000000000000D+00 0.000000000000000D+00
 0.340996202109680D+03 0.000000000000000D+00 0.000000000000000D+00 0.340996202109680D+03
 0.337566319483586D+03 0.000000000000000D+00 0.000000000000000D+00 -.337566319483586D+03
 0.269375494023549D+03 -.520537789773490D+02 0.987321565923454D+02 -.210904059062961D+03
 0.113815706052788D+03 0.351594830232960D+02 -.437573355112548D+02 -.577572967893604D+02
 0.273028557050120D+03 -.419946256347993D+01 -.484565098891874D+02 0.268661355852322D+03
 0.223427644668082D+02 0.210937585175329D+02 -.651831119190321D+01 0.342988262609459D+01
-.266507260048D-03 0.000000000000D+00 0.000000000000D+00 0.460049959107D-05 0.000000000000D+00  6 21 -1 25 24 -2 21 4 0.10307731D+00 0.26026830D-01 0.28285652D+05 0.28285652D+05 0.28285652D+05 0.12175897D+01  1  2 13  1  6  1       21 -.536773569396D-01 0.100000000000D+01
-.286220490585D-04 0.000000000000D+00 0.000000000000D+00 0.464679783571D-05 0.000000000000D+00  6 21 -1 25 24 -2 21 4 0.97790969D-01 0.26026830D-01 0.24784423D+05 0.24784423D+05 0.24784423D+05 0.12237011D+01  1  2  8  1  6  1       21 -.669640620017D-02 0.100000000000D+01
0.341254438815D-04 0.000000000000D+00 0.000000000000D+00 0.464679783571D-05 0.738510032028D-07  6 21 -1 25 24 -2 21 4 0.10168922D+00 0.26792116D-01 0.28285652D+05 0.28285652D+05 0.28285652D+05 0.12175897D+01  1  2  1  1  6  1       21 0.676481746897D-02 0.100000000000D+01
  </mgrwgt>
  </event>
  <event>
  5     66 0.48358521E-03 0.34399343E+02 0.75467711E-02 0.12294051E+00
       21 -1    0    0  501  502 0.00000000E+00 0.00000000E+00 0.65682486E+03 0.65682529E+03 0.75000000E+00 0.0000E+00 0.9000E+01
       -1 -1    0    0    0  501 0.00000000E+00 0.00000000E+00 -.59836346E+02 0.59837202E+02 0.32000000E+00 0.0000E+00 0.9000E+01
       25  1    1    2    0    0 0.35869533E+02 -.45941460E+02 0.89658041E+02 0.16450169E+03 0.12500000E+03 0.0000E+00 0.9000E+01
       24  1    1    2    0    0 -.96197052E+01 0.23709565E+02 0.60088831E+02 0.10359810E+03 0.80419002E+02 0.0000E+00 0.9000E+01
       -2  1    1    2    0  502 -.26249828E+02 0.22231895E+02 0.44724164E+03 0.44856270E+03 0.32000000E+00 0.0000E+00 0.9000E+01
#aMCatNLO 1  0  0  5  1 0.44484077D+01 0.00000000D+00  -5  6  0 0.00000000D+00 0.00000000D+00 0.00000000D+00 0.00000000D+00 0.00000000D+00
  <mgrwgt>
 0.4173277132D-01    8    2    0
 0.198248479318172D+03 0.000000000000000D+00 0.000000000000000D+00 0.198248479318172D+03
 0.198248479318172D+03 -.000000000000000D+00 -.000000000000000D+00 -.198248479318172D+03
 0.162340223928199D+03 0.358695621994265D+02 -.459414846259592D+02 -.856276988073494D+02
 0.967789099236152D+02 -.961968784915899D+01 0.237095504141682D+02 -.473736242700034D+02
 0.137377824784529D+03 -.262498743502675D+02 0.222319342117910D+02 0.133001323077353D+03
 0.000000000000000D+00 -.000000000000000D+00 0.000000000000000D+00 0.000000000000000D+00
 0.198248479318172D+03 0.000000000000000D+00 0.000000000000000D+00 0.198248479318172D+03
 0.198248479318172D+03 -.000000000000000D+00 -.000000000000000D+00 -.198248479318172D+03
 0.162268775404899D+03 0.358467489773486D+02 -.459221633124311D+02 -.855121101123514D+02
 0.967493725386627D+02 -.963328883895047D+01 0.237210695668401D+02 -.473047115730018D+02
 0.613558472343253D+02 -.738708451185532D+01 0.107699544078861D+02 0.599498044559666D+02
 0.761229634584561D+02 -.188263756265429D+02 0.114311393377049D+02 0.728670172293867D+02
0.263439814308D-05 0.000000000000D+00 0.000000000000D+00 0.503502351743D-05 0.000000000000D+00  6 21 -1 25 24 -2 21 2 0.10105008D+00 0.92056904D-02 0.16475241D+05 0.16475241D+05 0.16475241D+05 0.12432047D+01  1  2  2  3  6  5       -2 0.204903662111D-02 0.100000000000D+01
0.369943383056D-06 0.139021009397D-06 -.531809084712D-08 0.503502351743D-05 0.000000000000D+00  6 21 -1 25 24 -2 21 4 0.10105008D+00 0.92056904D-02 0.16475241D+05 0.16475241D+05 0.16475241D+05 0.12432047D+01  1  2  3  3  6  5       -2 0.444722215665D-03 0.100000000000D+01
0.263213278932D-06 0.000000000000D+00 0.000000000000D+00 0.503502351743D-05 0.000000000000D+00  6 21 -1 25 24 -2 21 4 0.10105008D+00 0.92056904D-02 0.16475241D+05 0.16475241D+05 0.16475241D+05 0.12432047D+01  1  2 15  3  6  5       -2 0.316418127638D-03 0.100000000000D+01
0.130210201883D-04 0.000000000000D+00 0.000000000000D+00 0.503293287152D-05 0.000000000000D+00  6 21 -1 25 24 -2 21 4 0.10105008D+00 0.92056904D-02 0.16562387D+05 0.16562387D+05 0.16562387D+05 0.12429465D+01  1  2 12  3  6  5       -2 0.156386426050D-01 0.100000000000D+01
-.672159853402D-04 0.000000000000D+00 0.000000000000D+00 0.503502351743D-05 0.000000000000D+00  6 21 -1 25 24 -2 21 4 0.10105008D+00 0.92056904D-02 0.16475241D+05 0.16475241D+05 0.16475241D+05 0.12432047D+01  1  2  4  3  6  5       -2 -.808027479275D-01 0.100000000000D+01
-.663948339764D-04 0.000000000000D+00 0.000000000000D+00 0.503502351743D-05 0.000000000000D+00  6 21 -1 25 24 -2 21 4 0.10105008D+00 0.92056904D-02 0.16475241D+05 0.16475241D+05 0.16475241D+05 0.12432047D+01  1  2  5  3  6  5       -2 -.798156124072D-01 0.100000000000D+01
0.110767494319D-03 0.000000000000D+00 -.000000000000D+00 0.503502351743D-05 0.000000000000D+00  6 21 -1 25 24 -2 21 4 0.10105008D+00 0.92056904D-02 0.16475241D+05 0.16475241D+05 0.16475241D+05 0.12432047D+01  1  2  6  3  6  5       -2 0.133157579654D+00 0.100000000000D+01
0.422509933943D-04 0.000000000000D+00 0.000000000000D+00 0.503502351743D-05 0.478199278361D-06  6 21 -1 25 24 -2 21 4 0.10105008D+00 0.92056904D-02 0.16562387D+05 0.16562387D+05 0.16562387D+05 0.12429465D+01  1  2 11  3  6  5       -2 0.507447324284D-01 0.100000000000D+01
  </mgrwgt>
  </event>
</LesHouchesEvents>
