<event>
 5    0  0.1911311E+001  0.3526666E+03  0.7546771E-02  0.1061526E+00
         21   -1    0    0  504  501  0.00000000000E+00  0.00000000000E+00  0.10449002663E+04  0.10449002663E+04  0.00000000000E+00 0. -1.
         21   -1    0    0  503  502 -0.00000000000E+00 -0.00000000000E+00 -0.21776150419E+03  0.21776150419E+03  0.00000000000E+00 0. -1.
         25    1    1    2    0    0 -0.21708455561E+03 -0.27675793567E+03  0.58406108748E+03  0.69316160680E+03  0.12500000000E+03 0.  0.
         21    1    1    2  503  501  0.82713325007E+02 -0.16023685219E+01 -0.85095285336E+02  0.11868137725E+03  0.00000000000E+00 0. -1.
         21    1    1    2  504  502  0.13437123060E+03  0.27836030419E+03  0.32817296000E+03  0.45081878647E+03  0.00000000000E+00 0. -1.
<mgrwt>
<rscale>  4 0.35266665E+03</rscale>
<asrwt>0</asrwt>
<pdfrwt beam="1">  1       21 0.16075388E+00 0.35266665E+03</pdfrwt>
<pdfrwt beam="2">  1       21 0.33501770E-01 0.35266665E+03</pdfrwt>
<totfact> 0.19018828E+03</totfact>
</mgrwt>
</event>
<event>
 5    0  0.6352201E+001  0.2265861E+03  0.7546771E-02  0.1129066E+00
         21   -1    0    0  504  501  0.00000000000E+00  0.00000000000E+00  0.69598541717E+03  0.69598541717E+03  0.00000000000E+00 0.  1.
         21   -1    0    0  501  502 -0.00000000000E+00 -0.00000000000E+00 -0.15844568982E+03  0.15844568982E+03  0.00000000000E+00 0.  1.
         25    1    1    2    0    0 -0.19711235484E+03 -0.53340032135E+02  0.51210862866E+03  0.56531291070E+03  0.12500000000E+03 0.  0.
         21    1    1    2  503  502  0.31228052390E+02 -0.34229031735E+02  0.81143574210E+02  0.93440341957E+02  0.00000000000E+00 0. -1.
         21    1    1    2  504  503  0.16588430245E+03  0.87569063870E+02 -0.55712475527E+02  0.19567785433E+03  0.00000000000E+00 0.  1.
<mgrwt>
<rscale>  4 0.22658608E+03</rscale>
<asrwt>0</asrwt>
<pdfrwt beam="1">  1       21 0.10707468E+00 0.22658608E+03</pdfrwt>
<pdfrwt beam="2">  1       21 0.24376260E-01 0.22658608E+03</pdfrwt>
<totfact> 0.10830016E+04</totfact>
</mgrwt>
</event>
<event>
 5    0  0.1911311E+001  0.2178410E+03  0.7546771E-02  0.1135503E+00
         21   -1    0    0  502  501  0.00000000000E+00  0.00000000000E+00  0.42567916089E+03  0.42567916089E+03  0.00000000000E+00 0. -1.
         21   -1    0    0  504  502 -0.00000000000E+00 -0.00000000000E+00 -0.33602387339E+03  0.33602387339E+03  0.00000000000E+00 0. -1.
         25    1    1    2    0    0 -0.26461607183E+02  0.23208370815E+03 -0.93729883427E+02  0.28102198365E+03  0.12500000000E+03 0.  0.
         21    1    1    2  503  501  0.36320208514E+02 -0.16793195544E+03  0.30086287207E+03  0.34646611233E+03  0.00000000000E+00 0. -1.
         21    1    1    2  504  503 -0.98586013309E+01 -0.64151752710E+02 -0.11747770115E+03  0.13421493830E+03  0.00000000000E+00 0. -1.
<mgrwt>
<rscale>  4 0.21784097E+03</rscale>
<asrwt>0</asrwt>
<pdfrwt beam="1">  1       21 0.65489102E-01 0.21784097E+03</pdfrwt>
<pdfrwt beam="2">  1       21 0.51695981E-01 0.21784097E+03</pdfrwt>
<totfact> 0.74858135E+03</totfact>
</mgrwt>
</event>
<event>
 5    0  0.1911311E+001  0.2663872E+03  0.7546771E-02  0.1103365E+00
         21   -1    0    0  502  501  0.00000000000E+00  0.00000000000E+00  0.35677901171E+03  0.35677901171E+03  0.00000000000E+00 0.  1.
         21   -1    0    0  504  502 -0.00000000000E+00 -0.00000000000E+00 -0.35832914118E+03  0.35832914118E+03  0.00000000000E+00 0.  1.
         25    1    1    2    0    0  0.23397259872E+03  0.73332736504E+02 -0.18761382216E+03  0.33308379345E+03  0.12500000000E+03 0.  0.
         21    1    1    2  503  501 -0.44809942944E+02  0.41544325872E+02  0.14443728576E+03  0.15683109232E+03  0.00000000000E+00 0.  1.
         21    1    1    2  504  503 -0.18916265578E+03 -0.11487706238E+03  0.41626406933E+02  0.22519326712E+03  0.00000000000E+00 0.  1.
<mgrwt>
<rscale>  4 0.26638717E+03</rscale>
<asrwt>0</asrwt>
<pdfrwt beam="1">  1       21 0.54889079E-01 0.26638717E+03</pdfrwt>
<pdfrwt beam="2">  1       21 0.55127560E-01 0.26638717E+03</pdfrwt>
<totfact> 0.92961909E+03</totfact>
</mgrwt>
</event>
