<event>
 5    0  0.1814147E+000  0.3858442E+03  0.7546771E-02  0.1048795E+00
         21   -1    0    0  503  501  0.00000000000E+00  0.00000000000E+00  0.17633049794E+03  0.17633049794E+03  0.00000000000E+00 0. -1.
         21   -1    0    0  501  502 -0.00000000000E+00 -0.00000000000E+00 -0.95698236210E+03  0.95698236210E+03  0.00000000000E+00 0. -1.
         25    1    1    2    0    0 -0.38991553287E+02 -0.34552800005E+03 -0.46115084186E+03  0.59092727048E+03  0.12500000000E+03 0.  0.
         21    1    1    2  503  504  0.38166266792E+00 -0.42691916104E+02 -0.86686494262E+01  0.43564789106E+02  0.00000000000E+00 0.  1.
         21    1    1    2  504  502  0.38609890619E+02  0.38821991615E+03 -0.31083237287E+03  0.49882080046E+03  0.00000000000E+00 0. -1.
<mgrwt>
<rscale>  4 0.38584420E+03</rscale>
<asrwt>0</asrwt>
<pdfrwt beam="1">  1       21 0.27127770E-01 0.38584420E+03</pdfrwt>
<pdfrwt beam="2">  1       21 0.14722805E+00 0.38584420E+03</pdfrwt>
<totfact> 0.36117698E+03</totfact>
</mgrwt>
</event>
<event>
 5    0  0.1814147E+000  0.5417490E+03  0.7546771E-02  0.1003422E+00
         21   -1    0    0  503  501  0.00000000000E+00  0.00000000000E+00  0.16410633056E+03  0.16410633056E+03  0.00000000000E+00 0. -1.
         21   -1    0    0  501  502 -0.00000000000E+00 -0.00000000000E+00 -0.21099633763E+04  0.21099633763E+04  0.00000000000E+00 0. -1.
         25    1    1    2    0    0  0.47622012702E+03  0.19246552192E+03 -0.10690090550E+04  0.11925745034E+04  0.12500000000E+03 0.  0.
         21    1    1    2  503  504  0.21958167755E+02  0.25902324982E+02  0.14792210759E+02  0.37039182898E+02  0.00000000000E+00 0. -1.
         21    1    1    2  504  502 -0.49817829477E+03 -0.21836784690E+03 -0.89164020150E+03  0.10444560206E+04  0.00000000000E+00 0. -1.
<mgrwt>
<rscale>  4 0.54174901E+03</rscale>
<asrwt>0</asrwt>
<pdfrwt beam="1">  1       21 0.25247127E-01 0.54174901E+03</pdfrwt>
<pdfrwt beam="2">  1       21 0.32460976E+00 0.54174901E+03</pdfrwt>
<totfact> 0.27215561E+02</totfact>
</mgrwt>
</event>
<event>
 5    0  0.1814147E+000  0.3683182E+03  0.7546771E-02  0.1055338E+00
         21   -1    0    0  502  501  0.00000000000E+00  0.00000000000E+00  0.53937317897E+03  0.53937317897E+03  0.00000000000E+00 0.  1.
         21   -1    0    0  504  502 -0.00000000000E+00 -0.00000000000E+00 -0.44481212561E+03  0.44481212561E+03  0.00000000000E+00 0.  1.
         25    1    1    2    0    0  0.93438535269E+02  0.34452964086E+03 -0.19820340644E+03  0.42701407896E+03  0.12500000000E+03 0.  0.
         21    1    1    2  503  501  0.84858625695E+02 -0.47409117348E+02 -0.90803072324E+01  0.97627161907E+02  0.00000000000E+00 0.  1.
         21    1    1    2  504  503 -0.17829716096E+03 -0.29712052351E+03  0.30184476704E+03  0.45954406371E+03  0.00000000000E+00 0.  1.
<mgrwt>
<rscale>  4 0.36831824E+03</rscale>
<asrwt>0</asrwt>
<pdfrwt beam="1">  1       21 0.82980489E-01 0.36831824E+03</pdfrwt>
<pdfrwt beam="2">  1       21 0.68432635E-01 0.36831824E+03</pdfrwt>
<totfact> 0.22045101E+03</totfact>
</mgrwt>
</event>
<event>
 5    0  0.1814147E+000  0.3629557E+03  0.7546771E-02  0.1057420E+00
         21   -1    0    0  503  501  0.00000000000E+00  0.00000000000E+00  0.10651804877E+04  0.10651804877E+04  0.00000000000E+00 0. -1.
         21   -1    0    0  504  502 -0.00000000000E+00 -0.00000000000E+00 -0.19657549722E+03  0.19657549722E+03  0.00000000000E+00 0. -1.
         25    1    1    2    0    0  0.39159925896E+02  0.31567748920E+03  0.56138155863E+03  0.65723666313E+03  0.12500000000E+03 0.  0.
         21    1    1    2  503  502 -0.85430499605E+02 -0.33853874184E+03  0.62859714118E+02  0.35476498368E+03  0.00000000000E+00 0. -1.
         21    1    1    2  504  501  0.46270573709E+02  0.22861252634E+02  0.24436371772E+03  0.24975433810E+03  0.00000000000E+00 0. -1.
<mgrwt>
<rscale>  4 0.36295565E+03</rscale>
<asrwt>0</asrwt>
<pdfrwt beam="1">  1       21 0.16387392E+00 0.36295565E+03</pdfrwt>
<pdfrwt beam="2">  1       21 0.30242385E-01 0.36295565E+03</pdfrwt>
<totfact> 0.21989280E+03</totfact>
</mgrwt>
</event>
<event>
 5    0  0.1814147E+000  0.2737869E+03  0.7546771E-02  0.1099132E+00
         21   -1    0    0  503  501  0.00000000000E+00  0.00000000000E+00  0.10530588100E+04  0.10530588100E+04  0.00000000000E+00 0.  1.
         21   -1    0    0  501  502 -0.00000000000E+00 -0.00000000000E+00 -0.43078677976E+03  0.43078677976E+03  0.00000000000E+00 0.  1.
         25    1    1    2    0    0 -0.25649493571E+03  0.38274153143E+02 -0.87596645474E+02  0.30091981514E+03  0.12500000000E+03 0.  0.
         21    1    1    2  503  504  0.27580458353E+02 -0.13420252983E+03  0.87444824622E+03  0.88511622740E+03  0.00000000000E+00 0.  1.
         21    1    1    2  504  502  0.22891447736E+03  0.95928376689E+02 -0.16457957049E+03  0.29780954723E+03  0.00000000000E+00 0.  1.
<mgrwt>
<rscale>  4 0.27378693E+03</rscale>
<asrwt>0</asrwt>
<pdfrwt beam="1">  1       21 0.16200905E+00 0.27378693E+03</pdfrwt>
<pdfrwt beam="2">  1       21 0.66274890E-01 0.27378693E+03</pdfrwt>
<totfact> 0.46947760E+02</totfact>
</mgrwt>
</event>
<event>
 5    0  0.1814147E+000  0.2533401E+03  0.7546771E-02  0.1111212E+00
         21   -1    0    0  503  501  0.00000000000E+00  0.00000000000E+00  0.18680291280E+03  0.18680291280E+03  0.00000000000E+00 0. -1.
         21   -1    0    0  504  502 -0.00000000000E+00 -0.00000000000E+00 -0.89549954282E+03  0.89549954282E+03  0.00000000000E+00 0. -1.
         25    1    1    2    0    0 -0.23249287613E+03  0.43820035544E+02 -0.59815056542E+03  0.65527263935E+03  0.12500000000E+03 0.  0.
         21    1    1    2  503  502  0.19877745221E+03 -0.17811393078E+02 -0.22746074870E+03  0.30260223632E+03  0.00000000000E+00 0. -1.
         21    1    1    2  504  501  0.33715423923E+02 -0.26008642466E+02  0.11691468410E+03  0.12442757995E+03  0.00000000000E+00 0. -1.
<mgrwt>
<rscale>  4 0.25334014E+03</rscale>
<asrwt>0</asrwt>
<pdfrwt beam="1">  1       21 0.28738910E-01 0.25334014E+03</pdfrwt>
<pdfrwt beam="2">  1       21 0.13776916E+00 0.25334014E+03</pdfrwt>
<totfact> 0.41261632E+03</totfact>
</mgrwt>
</event>
<event>
 5    0  0.1814147E+000  0.2756697E+03  0.7546771E-02  0.1098078E+00
         21   -1    0    0  503  501  0.00000000000E+00  0.00000000000E+00  0.10078644792E+04  0.10078644792E+04  0.00000000000E+00 0. -1.
         21   -1    0    0  504  502 -0.00000000000E+00 -0.00000000000E+00 -0.28369539245E+03  0.28369539245E+03  0.00000000000E+00 0. -1.
         25    1    1    2    0    0  0.91782441907E+02  0.20747638044E+03  0.26437611374E+03  0.37012186452E+03  0.12500000000E+03 0.  0.
         21    1    1    2  503  502 -0.94020850504E+02 -0.23135778002E+03 -0.16297607501E+03  0.29820721610E+03  0.00000000000E+00 0. -1.
         21    1    1    2  504  501  0.22384085972E+01  0.23881399589E+02  0.62276904803E+03  0.62323079104E+03  0.00000000000E+00 0. -1.
<mgrwt>
<rscale>  4 0.27566966E+03</rscale>
<asrwt>0</asrwt>
<pdfrwt beam="1">  1       21 0.15505607E+00 0.27566966E+03</pdfrwt>
<pdfrwt beam="2">  1       21 0.43645446E-01 0.27566966E+03</pdfrwt>
<totfact> 0.12859539E+03</totfact>
</mgrwt>
</event>
<event>
 5    0  0.1814147E+000  0.3561589E+03  0.7546771E-02  0.1060115E+00
         21   -1    0    0  503  501  0.00000000000E+00  0.00000000000E+00  0.13174151517E+03  0.13174151517E+03  0.00000000000E+00 0.  1.
         21   -1    0    0  504  502 -0.00000000000E+00 -0.00000000000E+00 -0.14323284379E+04  0.14323284379E+04  0.00000000000E+00 0.  1.
         25    1    1    2    0    0  0.18276434908E+03  0.28285335118E+03 -0.53819324726E+03  0.64705934579E+03  0.12500000000E+03 0.  0.
         21    1    1    2  503  502 -0.26243837240E+03 -0.21308938537E+03 -0.73285544436E+03  0.80706758564E+03  0.00000000000E+00 0.  1.
         21    1    1    2  504  501  0.79674023319E+02 -0.69763965814E+02 -0.29538231138E+02  0.10994302168E+03  0.00000000000E+00 0.  1.
<mgrwt>
<rscale>  4 0.35615890E+03</rscale>
<asrwt>0</asrwt>
<pdfrwt beam="1">  1       21 0.20267925E-01 0.35615890E+03</pdfrwt>
<pdfrwt beam="2">  1       21 0.22035823E+00 0.35615890E+03</pdfrwt>
<totfact> 0.19832557E+03</totfact>
</mgrwt>
</event>
<event>
 5    0  0.1814147E+000  0.2647051E+03  0.7546771E-02  0.1108155E+00
         21   -1    0    0  503  501  0.00000000000E+00  0.00000000000E+00  0.71996362919E+03  0.71996362919E+03  0.00000000000E+00 0. -1.
         21   -1    0    0  501  502 -0.00000000000E+00 -0.00000000000E+00 -0.55151778350E+03  0.55151778350E+03  0.00000000000E+00 0. -1.
         25    1    1    2    0    0  0.49655545498E+02 -0.19886990215E+03 -0.37199317792E+03  0.44274014455E+03  0.12500000000E+03 0.  0.
         21    1    1    2  503  504  0.20178353205E+03  0.20828336695E+03  0.49406776003E+03  0.57288873811E+03  0.00000000000E+00 0. -1.
         21    1    1    2  504  502 -0.25143907755E+03 -0.94134648017E+01  0.46371263582E+02  0.25585253003E+03  0.00000000000E+00 0. -1.
<mgrwt>
<rscale>  4 0.25832243E+03</rscale>
<asrwt>0</asrwt>
<pdfrwt beam="1">  1       21 0.11076364E+00 0.26470508E+03</pdfrwt>
<pdfrwt beam="2">  1       21 0.84848890E-01 0.26470508E+03</pdfrwt>
<totfact> 0.72359718E+02</totfact>
</mgrwt>
</event>
<event>
 5    0  0.1814147E+000  0.3191824E+03  0.7546771E-02  0.1076026E+00
         21   -1    0    0  503  501  0.00000000000E+00  0.00000000000E+00  0.40541701175E+03  0.40541701175E+03  0.00000000000E+00 0.  1.
         21   -1    0    0  501  502 -0.00000000000E+00 -0.00000000000E+00 -0.14072827336E+04  0.14072827336E+04  0.00000000000E+00 0.  1.
         25    1    1    2    0    0  0.12910699220E+02  0.29534617320E+03 -0.49464209014E+03  0.58965400491E+03  0.12500000000E+03 0.  0.
         21    1    1    2  503  504  0.24287870710E+03 -0.77638491900E+02  0.27301886835E+03  0.37357342553E+03  0.00000000000E+00 0.  1.
         21    1    1    2  504  502 -0.25578940632E+03 -0.21770768130E+03 -0.78024250004E+03  0.84947231488E+03  0.00000000000E+00 0.  1.
<mgrwt>
<rscale>  4 0.31918239E+03</rscale>
<asrwt>0</asrwt>
<pdfrwt beam="1">  1       21 0.62371848E-01 0.31918239E+03</pdfrwt>
<pdfrwt beam="2">  1       21 0.21650503E+00 0.31918239E+03</pdfrwt>
<totfact> 0.22101888E+02</totfact>
</mgrwt>
</event>
<event>
 5    0  0.1814147E+000  0.2474311E+03  0.7546771E-02  0.1114939E+00
         21   -1    0    0  503  501  0.00000000000E+00  0.00000000000E+00  0.40663563588E+03  0.40663563588E+03  0.00000000000E+00 0. -1.
         21   -1    0    0  501  502 -0.00000000000E+00 -0.00000000000E+00 -0.85948223206E+03  0.85948223206E+03  0.00000000000E+00 0.  1.
         25    1    1    2    0    0  0.20376502767E+03 -0.63556609907E+02 -0.46813227607E+03  0.52946431142E+03  0.12500000000E+03 0.  0.
         21    1    1    2  503  504  0.12530143825E+02  0.49472574611E+02  0.34133587580E+03  0.34513000485E+03  0.00000000000E+00 0. -1.
         21    1    1    2  504  502 -0.21629517150E+03  0.14084035296E+02 -0.32605019590E+03  0.39152355167E+03  0.00000000000E+00 0.  1.
<mgrwt>
<rscale>  4 0.24743106E+03</rscale>
<asrwt>0</asrwt>
<pdfrwt beam="1">  1       21 0.62559329E-01 0.24743106E+03</pdfrwt>
<pdfrwt beam="2">  1       21 0.13222804E+00 0.24743106E+03</pdfrwt>
<totfact> 0.93191304E+02</totfact>
</mgrwt>
</event>
<event>
 5    0  0.1814147E+000  0.3155251E+03  0.7546771E-02  0.1077727E+00
         21   -1    0    0  503  501  0.00000000000E+00  0.00000000000E+00  0.56907700021E+02  0.56907700021E+02  0.00000000000E+00 0. -1.
         21   -1    0    0  504  502 -0.00000000000E+00 -0.00000000000E+00 -0.24540316116E+04  0.24540316116E+04  0.00000000000E+00 0. -1.
         25    1    1    2    0    0  0.51270392585E+02 -0.28093666347E+03 -0.14859916377E+04  0.15183379760E+04  0.12500000000E+03 0.  0.
         21    1    1    2  503  502 -0.10480891894E+03  0.27980544582E+03 -0.88285057891E+03  0.93204138410E+03  0.00000000000E+00 0. -1.
         21    1    1    2  504  501  0.53538526356E+02  0.11312176444E+01 -0.28281694965E+02  0.60559951518E+02  0.00000000000E+00 0. -1.
<mgrwt>
<rscale>  4 0.31552510E+03</rscale>
<asrwt>0</asrwt>
<pdfrwt beam="1">  1       21 0.87550312E-02 0.31552510E+03</pdfrwt>
<pdfrwt beam="2">  1       21 0.37754331E+00 0.31552510E+03</pdfrwt>
<totfact> 0.10661312E+03</totfact>
</mgrwt>
</event>
<event>
 5    0  0.1814147E+000  0.2419862E+03  0.7546771E-02  0.1118477E+00
         21   -1    0    0  502  501  0.00000000000E+00  0.00000000000E+00  0.56719927635E+03  0.56719927635E+03  0.00000000000E+00 0.  1.
         21   -1    0    0  504  502 -0.00000000000E+00 -0.00000000000E+00 -0.25305402164E+03  0.25305402164E+03  0.00000000000E+00 0. -1.
         25    1    1    2    0    0 -0.18361047185E+03 -0.91405281445E+02 -0.15705646597E+03  0.28698338689E+03  0.12500000000E+03 0.  0.
         21    1    1    2  503  501  0.20594643447E+03  0.85474753678E+02  0.44851835857E+03  0.50088779718E+03  0.00000000000E+00 0.  1.
         21    1    1    2  504  503 -0.22335962621E+02  0.59305277672E+01  0.22683362098E+02  0.32382113919E+02  0.00000000000E+00 0. -1.
<mgrwt>
<rscale>  4 0.24198620E+03</rscale>
<asrwt>0</asrwt>
<pdfrwt beam="1">  1       21 0.87261427E-01 0.24198620E+03</pdfrwt>
<pdfrwt beam="2">  1       21 0.38931388E-01 0.24198620E+03</pdfrwt>
<totfact> 0.69393190E+03</totfact>
</mgrwt>
</event>
<event>
 5    0  0.1814147E+000  0.2107170E+03  0.7546771E-02  0.1140999E+00
         21   -1    0    0  503  501  0.00000000000E+00  0.00000000000E+00  0.16446778450E+04  0.16446778450E+04  0.00000000000E+00 0. -1.
         21   -1    0    0  501  502 -0.00000000000E+00 -0.00000000000E+00 -0.52493123251E+03  0.52493123251E+03  0.00000000000E+00 0. -1.
         25    1    1    2    0    0 -0.18043288765E+03 -0.19984779809E+03 -0.37493086578E+03  0.47821890747E+03  0.12500000000E+03 0.  0.
         21    1    1    2  503  504  0.12841824556E+03  0.10924626619E+03  0.15594048094E+04  0.15684927007E+04  0.00000000000E+00 0. -1.
         21    1    1    2  504  502  0.52014642091E+02  0.90601531901E+02 -0.64727331151E+02  0.12289746935E+03  0.00000000000E+00 0. -1.
<mgrwt>
<rscale>  4 0.21071700E+03</rscale>
<asrwt>0</asrwt>
<pdfrwt beam="1">  1       21 0.25302736E+00 0.21071700E+03</pdfrwt>
<pdfrwt beam="2">  1       21 0.80758652E-01 0.21071700E+03</pdfrwt>
<totfact> 0.83622879E+01</totfact>
</mgrwt>
</event>
<event>
 5    0  0.1814147E+000  0.2613423E+03  0.7546771E-02  0.1106339E+00
         21   -1    0    0  503  501  0.00000000000E+00  0.00000000000E+00  0.12877073020E+03  0.12877073020E+03  0.00000000000E+00 0. -1.
         21   -1    0    0  501  502 -0.00000000000E+00 -0.00000000000E+00 -0.18430719050E+04  0.18430719050E+04  0.00000000000E+00 0. -1.
         25    1    1    2    0    0 -0.24194883806E+03 -0.49543415019E+02 -0.10149642518E+04  0.10520319494E+04  0.12500000000E+03 0.  0.
         21    1    1    2  503  504  0.23140431568E+02  0.69206346204E+02  0.81067733961E+02  0.10907325711E+03  0.00000000000E+00 0. -1.
         21    1    1    2  504  502  0.21880840649E+03 -0.19662931184E+02 -0.78040465693E+03  0.81073742863E+03  0.00000000000E+00 0. -1.
<mgrwt>
<rscale>  4 0.26134229E+03</rscale>
<asrwt>0</asrwt>
<pdfrwt beam="1">  1       21 0.19810882E-01 0.26134229E+03</pdfrwt>
<pdfrwt beam="2">  1       21 0.28354951E+00 0.26134229E+03</pdfrwt>
<totfact> 0.92269619E+02</totfact>
</mgrwt>
</event>
<event>
 5    0  0.1814147E+000  0.2711442E+03  0.7546771E-02  0.1100627E+00
         21   -1    0    0  502  501  0.00000000000E+00  0.00000000000E+00  0.58004989309E+03  0.58004989309E+03  0.00000000000E+00 0. -1.
         21   -1    0    0  504  502 -0.00000000000E+00 -0.00000000000E+00 -0.25390257076E+03  0.25390257076E+03  0.00000000000E+00 0. -1.
         25    1    1    2    0    0 -0.21506322925E+03 -0.10649347959E+03 -0.12629587014E+03  0.29861128677E+03  0.12500000000E+03 0.  0.
         21    1    1    2  503  501  0.20402086195E+03  0.13705135721E+03  0.43179205439E+03  0.49684199184E+03  0.00000000000E+00 0. -1.
         21    1    1    2  504  503  0.11042367299E+02 -0.30557877620E+02  0.20651138089E+02  0.38499185245E+02  0.00000000000E+00 0. -1.
<mgrwt>
<rscale>  4 0.27114424E+03</rscale>
<asrwt>0</asrwt>
<pdfrwt beam="1">  1       21 0.89238445E-01 0.27114424E+03</pdfrwt>
<pdfrwt beam="2">  1       21 0.39061934E-01 0.27114424E+03</pdfrwt>
<totfact> 0.64334013E+03</totfact>
</mgrwt>
</event>
<event>
 5    0  0.1814147E+000  0.2633880E+03  0.7546771E-02  0.1105125E+00
         21   -1    0    0  503  501  0.00000000000E+00  0.00000000000E+00  0.24030941631E+03  0.24030941631E+03  0.00000000000E+00 0. -1.
         21   -1    0    0  501  502 -0.00000000000E+00 -0.00000000000E+00 -0.13361726094E+04  0.13361726094E+04  0.00000000000E+00 0.  1.
         25    1    1    2    0    0 -0.22932751619E+03 -0.97325334925E+02 -0.26705493195E+02  0.28000270332E+03  0.12500000000E+03 0.  0.
         21    1    1    2  503  504  0.43504790701E+01  0.46614643636E+02  0.97015428037E+02  0.10772114438E+03  0.00000000000E+00 0. -1.
         21    1    1    2  504  502  0.22497703712E+03  0.50710691289E+02 -0.11661731279E+04  0.11887581780E+04  0.00000000000E+00 0.  1.
<mgrwt>
<rscale>  4 0.26338796E+03</rscale>
<asrwt>0</asrwt>
<pdfrwt beam="1">  1       21 0.36970679E-01 0.26338796E+03</pdfrwt>
<pdfrwt beam="2">  1       21 0.20556502E+00 0.26338796E+03</pdfrwt>
<totfact> 0.81338215E+02</totfact>
</mgrwt>
</event>
<event>
 5    0  0.1814147E+000  0.2783714E+03  0.7546771E-02  0.1096582E+00
         21   -1    0    0  503  501  0.00000000000E+00  0.00000000000E+00  0.38897070784E+03  0.38897070784E+03  0.00000000000E+00 0.  1.
         21   -1    0    0  501  502 -0.00000000000E+00 -0.00000000000E+00 -0.27142180989E+03  0.27142180989E+03  0.00000000000E+00 0.  1.
         25    1    1    2    0    0 -0.12539539987E+03  0.18030269358E+03  0.16339237942E+02  0.25322922090E+03  0.12500000000E+03 0.  0.
         21    1    1    2  503  504  0.68575197338E+01  0.74285011341E+02  0.10195232978E+03  0.12633117602E+03  0.00000000000E+00 0.  1.
         21    1    1    2  504  502  0.11853788014E+03 -0.25458770492E+03 -0.74266977858E+00  0.28083212081E+03  0.00000000000E+00 0.  1.
<mgrwt>
<rscale>  4 0.27837136E+03</rscale>
<asrwt>0</asrwt>
<pdfrwt beam="1">  1       21 0.59841647E-01 0.27837136E+03</pdfrwt>
<pdfrwt beam="2">  1       21 0.41757202E-01 0.27837136E+03</pdfrwt>
<totfact> 0.13719871E+04</totfact>
</mgrwt>
</event>
<event>
 5    0  0.1814147E+000  0.2318715E+03  0.7546771E-02  0.1125329E+00
         21   -1    0    0  503  501  0.00000000000E+00  0.00000000000E+00  0.18766217781E+03  0.18766217781E+03  0.00000000000E+00 0.  1.
         21   -1    0    0  501  502 -0.00000000000E+00 -0.00000000000E+00 -0.82819392939E+03  0.82819392939E+03  0.00000000000E+00 0.  1.
         25    1    1    2    0    0 -0.18864972367E+03 -0.92878422620E+02 -0.23535926470E+03  0.33946148988E+03  0.12500000000E+03 0.  0.
         21    1    1    2  503  504 -0.59692208899E+00  0.58752185793E+02  0.11098572284E+03  0.12557868579E+03  0.00000000000E+00 0.  1.
         21    1    1    2  504  502  0.18924664576E+03  0.34126236828E+02 -0.51615820972E+03  0.55081593154E+03  0.00000000000E+00 0.  1.
<mgrwt>
<rscale>  4 0.23187149E+03</rscale>
<asrwt>0</asrwt>
<pdfrwt beam="1">  1       21 0.28871104E-01 0.23187149E+03</pdfrwt>
<pdfrwt beam="2">  1       21 0.12741445E+00 0.23187149E+03</pdfrwt>
<totfact> 0.50661396E+03</totfact>
</mgrwt>
</event>
<event>
 5    0  0.1814147E+000  0.2190476E+03  0.7546771E-02  0.1134595E+00
         21   -1    0    0  503  501  0.00000000000E+00  0.00000000000E+00  0.63669484036E+03  0.63669484036E+03  0.00000000000E+00 0. -1.
         21   -1    0    0  504  502 -0.00000000000E+00 -0.00000000000E+00 -0.12098542993E+03  0.12098542993E+03  0.00000000000E+00 0.  1.
         25    1    1    2    0    0  0.70441275397E+02  0.19140740175E+03  0.37183968332E+03  0.44214083369E+03  0.12500000000E+03 0.  0.
         21    1    1    2  503  502 -0.61087792965E+02 -0.16349511038E+03  0.60804056149E+01  0.17464060496E+03  0.00000000000E+00 0.  1.
         21    1    1    2  504  501 -0.93534824320E+01 -0.27912291369E+02  0.13778932149E+03  0.14089883165E+03  0.00000000000E+00 0. -1.
<mgrwt>
<rscale>  4 0.21904756E+03</rscale>
<asrwt>0</asrwt>
<pdfrwt beam="1">  1       21 0.97953051E-01 0.21904756E+03</pdfrwt>
<pdfrwt beam="2">  1       21 0.18613143E-01 0.21904756E+03</pdfrwt>
<totfact> 0.22396940E+04</totfact>
</mgrwt>
</event>
<event>
 5    0  0.1814147E+000  0.3223168E+03  0.7546771E-02  0.1082665E+00
         21   -1    0    0  502  501  0.00000000000E+00  0.00000000000E+00  0.14986228678E+04  0.14986228678E+04  0.00000000000E+00 0. -1.
         21   -1    0    0  503  502 -0.00000000000E+00 -0.00000000000E+00 -0.48453780658E+03  0.48453780658E+03  0.00000000000E+00 0.  1.
         25    1    1    2    0    0 -0.12529922643E+03 -0.18929039155E+03 -0.33990577319E+03  0.42742447651E+03  0.12500000000E+03 0.  0.
         21    1    1    2  503  504  0.19866403330E+03 -0.22663129796E+03  0.82816796363E+03  0.88130092439E+03  0.00000000000E+00 0. -1.
         21    1    1    2  504  501 -0.73364806871E+02  0.41592168951E+03  0.52582287076E+03  0.67443527347E+03  0.00000000000E+00 0. -1.
<mgrwt>
<rscale>  4 0.30520919E+03</rscale>
<asrwt>0</asrwt>
<pdfrwt beam="1">  1       21 0.23055736E+00 0.32231681E+03</pdfrwt>
<pdfrwt beam="2">  1       21 0.74544278E-01 0.32231681E+03</pdfrwt>
<totfact> 0.12111223E+02</totfact>
</mgrwt>
</event>
<event>
 5    0  0.1814147E+000  0.2324985E+03  0.7546771E-02  0.1124893E+00
         21   -1    0    0  503  501  0.00000000000E+00  0.00000000000E+00  0.39708713122E+02  0.39708713122E+02  0.00000000000E+00 0.  1.
         21   -1    0    0  504  502 -0.00000000000E+00 -0.00000000000E+00 -0.18833700277E+04  0.18833700277E+04  0.00000000000E+00 0.  1.
         25    1    1    2    0    0 -0.18273329395E+03  0.91452440120E+02 -0.13692624708E+04  0.13900574519E+04  0.12500000000E+03 0.  0.
         21    1    1    2  503  502  0.17046619579E+03 -0.66181922200E+02 -0.47034253926E+03  0.50463935139E+03  0.00000000000E+00 0.  1.
         21    1    1    2  504  501  0.12267098159E+02 -0.25270517920E+02 -0.40563044955E+01  0.28381937554E+02  0.00000000000E+00 0.  1.
<mgrwt>
<rscale>  4 0.23249846E+03</rscale>
<asrwt>0</asrwt>
<pdfrwt beam="1">  1       21 0.61090337E-02 0.23249846E+03</pdfrwt>
<pdfrwt beam="2">  1       21 0.28974919E+00 0.23249846E+03</pdfrwt>
<totfact> 0.71806705E+03</totfact>
</mgrwt>
</event>
<event>
 5    0  0.1814147E+000  0.2366920E+03  0.7546771E-02  0.1122016E+00
         21   -1    0    0  503  501  0.00000000000E+00  0.00000000000E+00  0.16700851616E+03  0.16700851616E+03  0.00000000000E+00 0. -1.
         21   -1    0    0  504  502 -0.00000000000E+00 -0.00000000000E+00 -0.11339755782E+04  0.11339755782E+04  0.00000000000E+00 0. -1.
         25    1    1    2    0    0  0.21177563299E+03 -0.13134396655E+02 -0.92999975110E+03  0.96205299654E+03  0.12500000000E+03 0.  0.
         21    1    1    2  503  502 -0.15377776723E+03  0.99823387734E+02 -0.10795979163E+03  0.21276190223E+03  0.00000000000E+00 0. -1.
         21    1    1    2  504  501 -0.57997865763E+02 -0.86688991079E+02  0.70992480671E+02  0.12616919560E+03  0.00000000000E+00 0. -1.
<mgrwt>
<rscale>  4 0.23669198E+03</rscale>
<asrwt>0</asrwt>
<pdfrwt beam="1">  1       21 0.25693619E-01 0.23669198E+03</pdfrwt>
<pdfrwt beam="2">  1       21 0.17445777E+00 0.23669198E+03</pdfrwt>
<totfact> 0.27466261E+03</totfact>
</mgrwt>
</event>
<event>
 5    0  0.1814147E+000  0.2591990E+03  0.7546771E-02  0.1107625E+00
         21   -1    0    0  503  501  0.00000000000E+00  0.00000000000E+00  0.13315345251E+04  0.13315345251E+04  0.00000000000E+00 0.  1.
         21   -1    0    0  501  502 -0.00000000000E+00 -0.00000000000E+00 -0.74504731939E+02  0.74504731939E+02  0.00000000000E+00 0.  1.
         25    1    1    2    0    0  0.25641735091E+02 -0.23081662193E+03  0.32002359769E+03  0.41469737715E+03  0.12500000000E+03 0.  0.
         21    1    1    2  503  504 -0.82921140433E+02  0.98627777414E+01  0.38597727460E+03  0.39490713645E+03  0.00000000000E+00 0.  1.
         21    1    1    2  504  502  0.57279405343E+02  0.22095384419E+03  0.55102892091E+03  0.59643474347E+03  0.00000000000E+00 0.  1.
<mgrwt>
<rscale>  4 0.25919897E+03</rscale>
<asrwt>0</asrwt>
<pdfrwt beam="1">  1       21 0.20485145E+00 0.25919897E+03</pdfrwt>
<pdfrwt beam="2">  1       21 0.11462267E-01 0.25919897E+03</pdfrwt>
<totfact> 0.75617498E+03</totfact>
</mgrwt>
</event>
<event>
 5    0  0.1814147E+000  0.2289061E+03  0.7546771E-02  0.1127412E+00
         21   -1    0    0  503  501  0.00000000000E+00  0.00000000000E+00  0.25037095003E+03  0.25037095003E+03  0.00000000000E+00 0.  1.
         21   -1    0    0  501  502 -0.00000000000E+00 -0.00000000000E+00 -0.51677106608E+03  0.51677106608E+03  0.00000000000E+00 0.  1.
         25    1    1    2    0    0  0.64099487167E+02 -0.19438478665E+03 -0.39253376868E+03  0.46000211858E+03  0.12500000000E+03 0.  0.
         21    1    1    2  503  504  0.99339726143E+01  0.48671908024E+02  0.13460506041E+03  0.14347878147E+03  0.00000000000E+00 0.  1.
         21    1    1    2  504  502 -0.74033459782E+02  0.14571287863E+03 -0.84714077755E+01  0.16366111608E+03  0.00000000000E+00 0.  1.
<mgrwt>
<rscale>  4 0.22890607E+03</rscale>
<asrwt>0</asrwt>
<pdfrwt beam="1">  1       21 0.38518608E-01 0.22890607E+03</pdfrwt>
<pdfrwt beam="2">  1       21 0.79503240E-01 0.22890607E+03</pdfrwt>
<totfact> 0.88470212E+03</totfact>
</mgrwt>
</event>
<event>
 5    0  0.1814147E+000  0.2943632E+03  0.7546771E-02  0.1088093E+00
         21   -1    0    0  503  501  0.00000000000E+00  0.00000000000E+00  0.29092448719E+03  0.29092448719E+03  0.00000000000E+00 0. -1.
         21   -1    0    0  504  502 -0.00000000000E+00 -0.00000000000E+00 -0.57073202819E+03  0.57073202819E+03  0.00000000000E+00 0. -1.
         25    1    1    2    0    0 -0.44092945575E+01  0.24038364269E+03 -0.42716750668E+03  0.50586640165E+03  0.12500000000E+03 0.  0.
         21    1    1    2  503  502 -0.16094546675E+02 -0.27041013203E+03  0.16306750009E+03  0.31618299057E+03  0.00000000000E+00 0. -1.
         21    1    1    2  504  501  0.20503841233E+02  0.30026489340E+02 -0.15707534415E+02  0.39607123157E+02  0.00000000000E+00 0. -1.
<mgrwt>
<rscale>  4 0.29436319E+03</rscale>
<asrwt>0</asrwt>
<pdfrwt beam="1">  1       21 0.44757614E-01 0.29436319E+03</pdfrwt>
<pdfrwt beam="2">  1       21 0.87804927E-01 0.29436319E+03</pdfrwt>
<totfact> 0.49907383E+03</totfact>
</mgrwt>
</event>
<event>
 5    0  0.1814147E+000  0.2427859E+03  0.7546771E-02  0.1117951E+00
         21   -1    0    0  502  501  0.00000000000E+00  0.00000000000E+00  0.53931266433E+03  0.53931266433E+03  0.00000000000E+00 0. -1.
         21   -1    0    0  504  502 -0.00000000000E+00 -0.00000000000E+00 -0.82156149028E+03  0.82156149028E+03  0.00000000000E+00 0.  1.
         25    1    1    2    0    0  0.20785761615E+03  0.20586941658E+02 -0.77167307166E+03  0.80915569595E+03  0.12500000000E+03 0.  0.
         21    1    1    2  503  501 -0.18812760349E+03 -0.76444482966E+01  0.49311266259E+03  0.52783570436E+03  0.00000000000E+00 0. -1.
         21    1    1    2  504  503 -0.19730012664E+02 -0.12942493361E+02 -0.36884168814E+01  0.23882754306E+02  0.00000000000E+00 0. -1.
<mgrwt>
<rscale>  4 0.24278586E+03</rscale>
<asrwt>0</asrwt>
<pdfrwt beam="1">  1       21 0.82971180E-01 0.24278586E+03</pdfrwt>
<pdfrwt beam="2">  1       21 0.12639407E+00 0.24278586E+03</pdfrwt>
<totfact> 0.55876426E+02</totfact>
</mgrwt>
</event>
<event>
 5    0  0.1814147E+000  0.4287968E+03  0.7546771E-02  0.1034241E+00
         21   -1    0    0  503  501  0.00000000000E+00  0.00000000000E+00  0.44201036882E+03  0.44201036882E+03  0.00000000000E+00 0.  1.
         21   -1    0    0  501  502 -0.00000000000E+00 -0.00000000000E+00 -0.44483916250E+03  0.44483916250E+03  0.00000000000E+00 0.  1.
         25    1    1    2    0    0 -0.39207546908E+03 -0.75022152252E+02 -0.75821332334E+02  0.42511806739E+03  0.12500000000E+03 0.  0.
         21    1    1    2  503  504 -0.24956210143E+02 -0.85672688308E+01  0.20015375879E+02  0.33118360338E+02  0.00000000000E+00 0. -1.
         21    1    1    2  504  502  0.41703167923E+03  0.83589421083E+02  0.52977162779E+02  0.42861310359E+03  0.00000000000E+00 0.  1.
<mgrwt>
<rscale>  4 0.42879684E+03</rscale>
<asrwt>0</asrwt>
<pdfrwt beam="1">  1       21 0.68001595E-01 0.42879684E+03</pdfrwt>
<pdfrwt beam="2">  1       21 0.68436794E-01 0.42879684E+03</pdfrwt>
<totfact> 0.33823570E+03</totfact>
</mgrwt>
</event>
<event>
 5    0  0.1814147E+000  0.1828032E+03  0.7546771E-02  0.1165117E+00
         21   -1    0    0  503  501  0.00000000000E+00  0.00000000000E+00  0.10096700433E+04  0.10096700433E+04  0.00000000000E+00 0.  1.
         21   -1    0    0  504  502 -0.00000000000E+00 -0.00000000000E+00 -0.18933374542E+03  0.18933374542E+03  0.00000000000E+00 0.  1.
         25    1    1    2    0    0 -0.26179614223E+02 -0.19985205075E+03  0.98870173987E+02  0.25695627195E+03  0.12500000000E+03 0.  0.
         21    1    1    2  503  502  0.31948531216E+02  0.70814716367E+02 -0.90843645731E+02  0.11953242518E+03  0.00000000000E+00 0.  1.
         21    1    1    2  504  501 -0.57689169926E+01  0.12903733438E+03  0.81230976963E+03  0.82251509160E+03  0.00000000000E+00 0.  1.
<mgrwt>
<rscale>  4 0.18280316E+03</rscale>
<asrwt>0</asrwt>
<pdfrwt beam="1">  1       21 0.15533385E+00 0.18280316E+03</pdfrwt>
<pdfrwt beam="2">  1       21 0.29128269E-01 0.18280316E+03</pdfrwt>
<totfact> 0.31035809E+03</totfact>
</mgrwt>
</event>
<event>
 5    0  0.1814147E+000  0.3259262E+03  0.7546771E-02  0.1072954E+00
         21   -1    0    0  503  501  0.00000000000E+00  0.00000000000E+00  0.15731684558E+04  0.15731684558E+04  0.00000000000E+00 0. -1.
         21   -1    0    0  504  502 -0.00000000000E+00 -0.00000000000E+00 -0.12979857329E+03  0.12979857329E+03  0.00000000000E+00 0. -1.
         25    1    1    2    0    0  0.21646246421E+03 -0.34387344697E+02  0.14265093510E+03  0.28984957680E+03  0.12500000000E+03 0.  0.
         21    1    1    2  503  502  0.98172700829E+02 -0.43183260540E+02  0.45085708290E+02  0.11634171337E+03  0.00000000000E+00 0.  1.
         21    1    1    2  504  501 -0.31463516504E+03  0.77570605237E+02  0.12556332391E+04  0.12967757389E+04  0.00000000000E+00 0. -1.
<mgrwt>
<rscale>  4 0.32592619E+03</rscale>
<asrwt>0</asrwt>
<pdfrwt beam="1">  1       21 0.24202590E+00 0.32592619E+03</pdfrwt>
<pdfrwt beam="2">  1       21 0.19969012E-01 0.32592619E+03</pdfrwt>
<totfact> 0.15252073E+03</totfact>
</mgrwt>
</event>
<event>
 5    0  0.1814147E+000  0.2774293E+03  0.7546771E-02  0.1097101E+00
         21   -1    0    0  503  501  0.00000000000E+00  0.00000000000E+00  0.79306907037E+03  0.79306907037E+03  0.00000000000E+00 0.  1.
         21   -1    0    0  504  502 -0.00000000000E+00 -0.00000000000E+00 -0.26581749726E+03  0.26581749726E+03  0.00000000000E+00 0.  1.
         25    1    1    2    0    0  0.69780101689E+02  0.23630030074E+03 -0.15458145641E+03  0.31658730453E+03  0.12500000000E+03 0.  0.
         21    1    1    2  503  502 -0.46698260622E+02 -0.25532167899E+03  0.64202523211E+03  0.69250724615E+03  0.00000000000E+00 0.  1.
         21    1    1    2  504  501 -0.23081841067E+02  0.19021378250E+02  0.39807797413E+02  0.49792016955E+02  0.00000000000E+00 0. -1.
<mgrwt>
<rscale>  4 0.27742929E+03</rscale>
<asrwt>0</asrwt>
<pdfrwt beam="1">  1       21 0.12201063E+00 0.27742929E+03</pdfrwt>
<pdfrwt beam="2">  1       21 0.40895000E-01 0.27742929E+03</pdfrwt>
<totfact> 0.27389094E+03</totfact>
</mgrwt>
</event>
<event>
 5    0  0.1814147E+000  0.2260137E+03  0.7546771E-02  0.1129477E+00
         21   -1    0    0  503  501  0.00000000000E+00  0.00000000000E+00  0.26264017640E+03  0.26264017640E+03  0.00000000000E+00 0. -1.
         21   -1    0    0  504  502 -0.00000000000E+00 -0.00000000000E+00 -0.42867986778E+03  0.42867986778E+03  0.00000000000E+00 0. -1.
         25    1    1    2    0    0 -0.78808121078E+02 -0.22224050838E+03 -0.13737861773E+03  0.30016570111E+03  0.12500000000E+03 0.  0.
         21    1    1    2  503  502  0.84144324362E+02  0.14611188575E+03 -0.16436272423E+03  0.23546561447E+03  0.00000000000E+00 0. -1.
         21    1    1    2  504  501 -0.53362032843E+01  0.76128622628E+02  0.13570165058E+03  0.15568872861E+03  0.00000000000E+00 0. -1.
<mgrwt>
<rscale>  4 0.22601369E+03</rscale>
<asrwt>0</asrwt>
<pdfrwt beam="1">  1       21 0.40406182E-01 0.22601369E+03</pdfrwt>
<pdfrwt beam="2">  1       21 0.65950748E-01 0.22601369E+03</pdfrwt>
<totfact> 0.12200700E+04</totfact>
</mgrwt>
</event>
<event>
 5    0  0.1814147E+000  0.2724500E+03  0.7546771E-02  0.1099886E+00
         21   -1    0    0  503  501  0.00000000000E+00  0.00000000000E+00  0.52009683091E+03  0.52009683091E+03  0.00000000000E+00 0.  1.
         21   -1    0    0  501  502 -0.00000000000E+00 -0.00000000000E+00 -0.17434495930E+03  0.17434495930E+03  0.00000000000E+00 0.  1.
         25    1    1    2    0    0 -0.17127439274E+03 -0.17411821521E+03  0.30629930494E+02  0.27607111967E+03  0.12500000000E+03 0.  0.
         21    1    1    2  503  504  0.22345377093E+02 -0.12659840046E+02  0.76609710481E+02  0.80799970095E+02  0.00000000000E+00 0. -1.
         21    1    1    2  504  502  0.14892901564E+03  0.18677805526E+03  0.23851223064E+03  0.33757070043E+03  0.00000000000E+00 0.  1.
<mgrwt>
<rscale>  4 0.27245004E+03</rscale>
<asrwt>0</asrwt>
<pdfrwt beam="1">  1       21 0.80014896E-01 0.27245004E+03</pdfrwt>
<pdfrwt beam="2">  1       21 0.26822302E-01 0.27245004E+03</pdfrwt>
<totfact> 0.17427466E+04</totfact>
</mgrwt>
</event>
<event>
 5    0  0.1814147E+000  0.2462415E+03  0.7546771E-02  0.1115703E+00
         21   -1    0    0  503  501  0.00000000000E+00  0.00000000000E+00  0.41088956173E+03  0.41088956173E+03  0.00000000000E+00 0.  1.
         21   -1    0    0  504  502 -0.00000000000E+00 -0.00000000000E+00 -0.36162339093E+03  0.36162339093E+03  0.00000000000E+00 0. -1.
         25    1    1    2    0    0 -0.12627221711E+03  0.16853530230E+03 -0.27007820086E+03  0.36457654274E+03  0.12500000000E+03 0.  0.
         21    1    1    2  503  502  0.11429795967E+03 -0.19157208141E+03  0.25647251950E+03  0.33991475287E+03  0.00000000000E+00 0.  1.
         21    1    1    2  504  501  0.11974257445E+02  0.23036779115E+02  0.62871852168E+02  0.68021657054E+02  0.00000000000E+00 0. -1.
<mgrwt>
<rscale>  4 0.24624154E+03</rscale>
<asrwt>0</asrwt>
<pdfrwt beam="1">  1       21 0.63213778E-01 0.24624154E+03</pdfrwt>
<pdfrwt beam="2">  1       21 0.55634368E-01 0.24624154E+03</pdfrwt>
<totfact> 0.67995303E+03</totfact>
</mgrwt>
</event>
<event>
 5    0  0.1814147E+000  0.2827034E+03  0.7546771E-02  0.1094221E+00
         21   -1    0    0  503  501  0.00000000000E+00  0.00000000000E+00  0.22590144022E+03  0.22590144022E+03  0.00000000000E+00 0. -1.
         21   -1    0    0  501  502 -0.00000000000E+00 -0.00000000000E+00 -0.41913881568E+03  0.41913881568E+03  0.00000000000E+00 0. -1.
         25    1    1    2    0    0 -0.13402782112E+03  0.21525046496E+03 -0.23942619152E+03  0.37046743539E+03  0.12500000000E+03 0.  0.
         21    1    1    2  503  504 -0.37152891771E+01 -0.65159007923E+02  0.24469955275E+02  0.69701351482E+02  0.00000000000E+00 0. -1.
         21    1    1    2  504  502  0.13774311030E+03 -0.15009145703E+03  0.21718860784E+02  0.20487146903E+03  0.00000000000E+00 0. -1.
<mgrwt>
<rscale>  4 0.28270341E+03</rscale>
<asrwt>0</asrwt>
<pdfrwt beam="1">  1       21 0.34754068E-01 0.28270341E+03</pdfrwt>
<pdfrwt beam="2">  1       21 0.64482894E-01 0.28270341E+03</pdfrwt>
<totfact> 0.16874087E+04</totfact>
</mgrwt>
</event>
<event>
 5    0  0.1814147E+000  0.2503486E+03  0.7546771E-02  0.1113085E+00
         21   -1    0    0  503  501  0.00000000000E+00  0.00000000000E+00  0.11146979241E+04  0.11146979241E+04  0.00000000000E+00 0.  1.
         21   -1    0    0  501  502 -0.00000000000E+00 -0.00000000000E+00 -0.19994378643E+03  0.19994378643E+03  0.00000000000E+00 0.  1.
         25    1    1    2    0    0 -0.53394172324E+02  0.23186121508E+03 -0.35588728982E+02  0.27111274099E+03  0.12500000000E+03 0.  0.
         21    1    1    2  503  504 -0.66531637644E+02 -0.81951755774E+02  0.77927654806E+03  0.78639334143E+03  0.00000000000E+00 0.  1.
         21    1    1    2  504  502  0.11992580997E+03 -0.14990945930E+03  0.17106631859E+03  0.25713562810E+03  0.00000000000E+00 0.  1.
<mgrwt>
<rscale>  4 0.25034857E+03</rscale>
<asrwt>0</asrwt>
<pdfrwt beam="1">  1       21 0.17149199E+00 0.25034857E+03</pdfrwt>
<pdfrwt beam="2">  1       21 0.30760583E-01 0.25034857E+03</pdfrwt>
<totfact> 0.20090042E+03</totfact>
</mgrwt>
</event>
<event>
 5    0  0.1814147E+000  0.2980415E+03  0.7546771E-02  0.1086224E+00
         21   -1    0    0  502  501  0.00000000000E+00  0.00000000000E+00  0.87957925020E+03  0.87957925020E+03  0.00000000000E+00 0.  1.
         21   -1    0    0  504  502 -0.00000000000E+00 -0.00000000000E+00 -0.28927670466E+03  0.28927670466E+03  0.00000000000E+00 0.  1.
         25    1    1    2    0    0 -0.26788156062E+03 -0.37989376035E+02 -0.17767337498E+03  0.34698206205E+03  0.12500000000E+03 0.  0.
         21    1    1    2  503  501  0.14790783349E+03  0.38379160012E+02  0.57227897163E+03  0.59232837895E+03  0.00000000000E+00 0.  1.
         21    1    1    2  504  503  0.11997372713E+03 -0.38978397785E+00  0.19569694888E+03  0.22954551386E+03  0.00000000000E+00 0.  1.
<mgrwt>
<rscale>  4 0.29804148E+03</rscale>
<asrwt>0</asrwt>
<pdfrwt beam="1">  1       21 0.13531988E+00 0.29804148E+03</pdfrwt>
<pdfrwt beam="2">  1       21 0.44504109E-01 0.29804148E+03</pdfrwt>
<totfact> 0.17446638E+03</totfact>
</mgrwt>
</event>
<event>
 5    0  0.1814147E+000  0.2753609E+03  0.7546771E-02  0.1098250E+00
         21   -1    0    0  503  501  0.00000000000E+00  0.00000000000E+00  0.59099999121E+03  0.59099999121E+03  0.00000000000E+00 0.  1.
         21   -1    0    0  504  502 -0.00000000000E+00 -0.00000000000E+00 -0.16870779519E+03  0.16870779519E+03  0.00000000000E+00 0.  1.
         25    1    1    2    0    0  0.20302370441E+03 -0.14110283591E+03  0.25670439543E+02  0.27823121018E+03  0.12500000000E+03 0.  0.
         21    1    1    2  503  502 -0.21414349985E+03  0.11258867469E+03  0.34311732428E+03  0.41983704745E+03  0.00000000000E+00 0.  1.
         21    1    1    2  504  501  0.11119795437E+02  0.28514161222E+02  0.53504432203E+02  0.61639528763E+02  0.00000000000E+00 0.  1.
<mgrwt>
<rscale>  4 0.27536088E+03</rscale>
<asrwt>0</asrwt>
<pdfrwt beam="1">  1       21 0.90923074E-01 0.27536088E+03</pdfrwt>
<pdfrwt beam="2">  1       21 0.25955046E-01 0.27536088E+03</pdfrwt>
<totfact> 0.13802608E+04</totfact>
</mgrwt>
</event>
<event>
 5    0  0.1814147E+000  0.3188481E+03  0.7546771E-02  0.1076181E+00
         21   -1    0    0  503  501  0.00000000000E+00  0.00000000000E+00  0.28276830380E+03  0.28276830380E+03  0.00000000000E+00 0. -1.
         21   -1    0    0  504  502 -0.00000000000E+00 -0.00000000000E+00 -0.83307491142E+03  0.83307491142E+03  0.00000000000E+00 0. -1.
         25    1    1    2    0    0 -0.27185943188E+03 -0.14194881067E+03 -0.35787558354E+03  0.48760326993E+03  0.12500000000E+03 0.  0.
         21    1    1    2  503  502  0.24174461932E+03  0.14809526122E+03 -0.35980089527E+03  0.45807133899E+03  0.00000000000E+00 0. -1.
         21    1    1    2  504  501  0.30114812566E+02 -0.61464505495E+01  0.16736987119E+03  0.17016860631E+03  0.00000000000E+00 0. -1.
<mgrwt>
<rscale>  4 0.31884815E+03</rscale>
<asrwt>0</asrwt>
<pdfrwt beam="1">  1       21 0.43502816E-01 0.31884815E+03</pdfrwt>
<pdfrwt beam="2">  1       21 0.12816537E+00 0.31884815E+03</pdfrwt>
<totfact> 0.20773655E+03</totfact>
</mgrwt>
</event>
<event>
 5    0  0.1814147E+000  0.2604864E+03  0.7546771E-02  0.1106851E+00
         21   -1    0    0  503  501  0.00000000000E+00  0.00000000000E+00  0.58421624975E+03  0.58421624975E+03  0.00000000000E+00 0.  1.
         21   -1    0    0  501  502 -0.00000000000E+00 -0.00000000000E+00 -0.34811252553E+03  0.34811252553E+03  0.00000000000E+00 0.  1.
         25    1    1    2    0    0 -0.22180943287E+03  0.23857842627E+01 -0.15470343934E+03  0.29793165427E+03  0.12500000000E+03 0.  0.
         21    1    1    2  503  504 -0.17388154082E+02  0.17832477584E+02  0.39354361501E+03  0.39433098037E+03  0.00000000000E+00 0.  1.
         21    1    1    2  504  502  0.23919758695E+03 -0.20218261846E+02 -0.27364514501E+01  0.24006614064E+03  0.00000000000E+00 0.  1.
<mgrwt>
<rscale>  4 0.26048642E+03</rscale>
<asrwt>0</asrwt>
<pdfrwt beam="1">  1       21 0.89879423E-01 0.26048642E+03</pdfrwt>
<pdfrwt beam="2">  1       21 0.53555773E-01 0.26048642E+03</pdfrwt>
<totfact> 0.33075071E+03</totfact>
</mgrwt>
</event>
<event>
 5    0  0.1814147E+000  0.2713854E+03  0.7546771E-02  0.1100489E+00
         21   -1    0    0  503  501  0.00000000000E+00  0.00000000000E+00  0.64667486688E+03  0.64667486688E+03  0.00000000000E+00 0. -1.
         21   -1    0    0  501  502 -0.00000000000E+00 -0.00000000000E+00 -0.34290724910E+03  0.34290724910E+03  0.00000000000E+00 0.  1.
         25    1    1    2    0    0  0.88078742460E+02 -0.20510671783E+03 -0.16313618007E+03  0.30342222038E+03  0.12500000000E+03 0.  0.
         21    1    1    2  503  504 -0.12999362108E+02 -0.80602349546E+02  0.36445863043E+03  0.37349138606E+03  0.00000000000E+00 0. -1.
         21    1    1    2  504  502 -0.75079380352E+02  0.28570906738E+03  0.10244516742E+03  0.31266850955E+03  0.00000000000E+00 0.  1.
<mgrwt>
<rscale>  4 0.27138539E+03</rscale>
<asrwt>0</asrwt>
<pdfrwt beam="1">  1       21 0.99488441E-01 0.27138539E+03</pdfrwt>
<pdfrwt beam="2">  1       21 0.52754962E-01 0.27138539E+03</pdfrwt>
<totfact> 0.26683037E+03</totfact>
</mgrwt>
</event>
<event>
 5    0  0.1814147E+000  0.2421288E+03  0.7546771E-02  0.1118383E+00
         21   -1    0    0  503  501  0.00000000000E+00  0.00000000000E+00  0.36226162321E+03  0.36226162321E+03  0.00000000000E+00 0. -1.
         21   -1    0    0  501  502 -0.00000000000E+00 -0.00000000000E+00 -0.31816835675E+03  0.31816835675E+03  0.00000000000E+00 0.  1.
         25    1    1    2    0    0 -0.10430993435E+03  0.17816739876E+03 -0.21666235775E+03  0.32433279460E+03  0.12500000000E+03 0.  0.
         21    1    1    2  503  504 -0.21424665945E+02 -0.68701926044E+01  0.58750118858E+02  0.62910987300E+02  0.00000000000E+00 0.  1.
         21    1    1    2  504  502  0.12573460030E+03 -0.17129720615E+03  0.20200550535E+03  0.29318619807E+03  0.00000000000E+00 0. -1.
<mgrwt>
<rscale>  4 0.24212884E+03</rscale>
<asrwt>0</asrwt>
<pdfrwt beam="1">  1       21 0.55732557E-01 0.24212884E+03</pdfrwt>
<pdfrwt beam="2">  1       21 0.48948978E-01 0.24212884E+03</pdfrwt>
<totfact> 0.11717203E+04</totfact>
</mgrwt>
</event>
<event>
 5    0  0.1814147E+000  0.2587798E+03  0.7546771E-02  0.1107879E+00
         21   -1    0    0  503  501  0.00000000000E+00  0.00000000000E+00  0.11138050470E+04  0.11138050470E+04  0.00000000000E+00 0.  1.
         21   -1    0    0  501  502 -0.00000000000E+00 -0.00000000000E+00 -0.14590265461E+04  0.14590265461E+04  0.00000000000E+00 0. -1.
         25    1    1    2    0    0 -0.25479144547E+02  0.23349154638E+03 -0.12046807560E+04  0.12337131810E+04  0.12500000000E+03 0.  0.
         21    1    1    2  503  504  0.93959383858E+02 -0.30100598273E+02  0.10484941943E+04  0.10531260548E+04  0.00000000000E+00 0.  1.
         21    1    1    2  504  502 -0.68480239312E+02 -0.20339094810E+03 -0.18903493734E+03  0.28599235739E+03  0.00000000000E+00 0. -1.
<mgrwt>
<rscale>  4 0.25877976E+03</rscale>
<asrwt>0</asrwt>
<pdfrwt beam="1">  1       21 0.17135462E+00 0.25877976E+03</pdfrwt>
<pdfrwt beam="2">  1       21 0.22446562E+00 0.25877976E+03</pdfrwt>
<totfact> 0.17814756E+01</totfact>
</mgrwt>
</event>
<event>
 5    0  0.1814147E+000  0.2670941E+03  0.7546771E-02  0.1102954E+00
         21   -1    0    0  503  501  0.00000000000E+00  0.00000000000E+00  0.56737978043E+03  0.56737978043E+03  0.00000000000E+00 0.  1.
         21   -1    0    0  504  502 -0.00000000000E+00 -0.00000000000E+00 -0.27479670763E+03  0.27479670763E+03  0.00000000000E+00 0. -1.
         25    1    1    2    0    0  0.21507945455E+03  0.86660429697E+02 -0.15449819810E+03  0.30539138013E+03  0.12500000000E+03 0.  0.
         21    1    1    2  503  502 -0.24833591363E+03 -0.81603105458E+02  0.41391132942E+03  0.48954303328E+03  0.00000000000E+00 0.  1.
         21    1    1    2  504  501  0.33256459080E+02 -0.50573242391E+01  0.33169941484E+02  0.47242074648E+02  0.00000000000E+00 0.  1.
<mgrwt>
<rscale>  4 0.26709413E+03</rscale>
<asrwt>0</asrwt>
<pdfrwt beam="1">  1       21 0.87289197E-01 0.26709413E+03</pdfrwt>
<pdfrwt beam="2">  1       21 0.42276417E-01 0.26709413E+03</pdfrwt>
<totfact> 0.57761365E+03</totfact>
</mgrwt>
</event>
