<event>
 5    0  0.1531977E+001  0.3417938E+03  0.7546771E-02  0.1066034E+00
         21   -1    0    0  502  501  0.00000000000E+00  0.00000000000E+00  0.15587095621E+04  0.15587095621E+04  0.00000000000E+00 0.  1.
         21   -1    0    0  504  502 -0.00000000000E+00 -0.00000000000E+00 -0.19094502857E+03  0.19094502857E+03  0.00000000000E+00 0.  1.
         25    1    1    2    0    0 -0.37990624897E+03 -0.24309192634E+03  0.67605430813E+03  0.82225109923E+03  0.12500000000E+03 0.  0.
         21    1    1    2  503  501  0.16797226376E+03  0.52546490216E+02  0.60414208346E+03  0.62925628486E+03  0.00000000000E+00 0.  1.
         21    1    1    2  504  503  0.21193398521E+03  0.19054543612E+03  0.87568141952E+02  0.29814720659E+03  0.00000000000E+00 0.  1.
<mgrwt>
<rscale>  4 0.34179379E+03</rscale>
<asrwt>0</asrwt>
<pdfrwt beam="1">  1       21 0.23980146E+00 0.34179379E+03</pdfrwt>
<pdfrwt beam="2">  1       21 0.29376159E-01 0.34179379E+03</pdfrwt>
<totfact> 0.73948578E+02</totfact>
</mgrwt>
</event>
<event>
 5    0  0.1531977E+001  0.3209526E+03  0.7546771E-02  0.1075212E+00
         21   -1    0    0  502  501  0.00000000000E+00  0.00000000000E+00  0.65776644708E+03  0.65776644708E+03  0.00000000000E+00 0. -1.
         21   -1    0    0  504  502 -0.00000000000E+00 -0.00000000000E+00 -0.19558580399E+03  0.19558580399E+03  0.00000000000E+00 0. -1.
         25    1    1    2    0    0  0.75041943910E+01  0.31521582993E+03  0.30133220024E+03  0.45369971046E+03  0.12500000000E+03 0.  0.
         21    1    1    2  503  501  0.74095972142E+01 -0.29085626200E+02  0.10308964089E+03  0.10737015340E+03  0.00000000000E+00 0.  1.
         21    1    1    2  504  503 -0.14913791605E+02 -0.28613020373E+03  0.57758801964E+02  0.29228238721E+03  0.00000000000E+00 0. -1.
<mgrwt>
<rscale>  4 0.32095264E+03</rscale>
<asrwt>0</asrwt>
<pdfrwt beam="1">  1       21 0.10119484E+00 0.32095264E+03</pdfrwt>
<pdfrwt beam="2">  1       21 0.30090124E-01 0.32095264E+03</pdfrwt>
<totfact> 0.78514768E+03</totfact>
</mgrwt>
</event>
<event>
 5    0  0.1531977E+001  0.3656746E+03  0.7546771E-02  0.1056359E+00
         21   -1    0    0  503  501  0.00000000000E+00  0.00000000000E+00  0.11223401866E+04  0.11223401866E+04  0.00000000000E+00 0.  1.
         21   -1    0    0  504  502 -0.00000000000E+00 -0.00000000000E+00 -0.15573356919E+03  0.15573356919E+03  0.00000000000E+00 0.  1.
         25    1    1    2    0    0 -0.23700899310E+03 -0.21981662915E+03  0.47692853519E+03  0.58955783511E+03  0.12500000000E+03 0.  0.
         21    1    1    2  503  502  0.32492046699E+03  0.16390461764E+03  0.29804384521E+03  0.47039150420E+03  0.00000000000E+00 0.  1.
         21    1    1    2  504  501 -0.87911473889E+02  0.55912011508E+02  0.19163423703E+03  0.21812441651E+03  0.00000000000E+00 0.  1.
<mgrwt>
<rscale>  4 0.36567458E+03</rscale>
<asrwt>0</asrwt>
<pdfrwt beam="1">  1       21 0.17266772E+00 0.36567458E+03</pdfrwt>
<pdfrwt beam="2">  1       21 0.23959011E-01 0.36567458E+03</pdfrwt>
<totfact> 0.29877690E+03</totfact>
</mgrwt>
</event>
<event>
 5    0  0.1531977E+001  0.2736155E+03  0.7546771E-02  0.1099228E+00
         21   -1    0    0  503  501  0.00000000000E+00  0.00000000000E+00  0.12170066009E+03  0.12170066009E+03  0.00000000000E+00 0. -1.
         21   -1    0    0  504  502 -0.00000000000E+00 -0.00000000000E+00 -0.20731971980E+04  0.20731971980E+04  0.00000000000E+00 0. -1.
         25    1    1    2    0    0 -0.19037499350E+03  0.14847529765E+03 -0.48767599902E+03  0.55833720294E+03  0.12500000000E+03 0.  0.
         21    1    1    2  503  502 -0.48968260442E+02 -0.80701338542E+02 -0.13660104222E+04  0.13692680783E+04  0.00000000000E+00 0. -1.
         21    1    1    2  504  501  0.23934325395E+03 -0.67773959103E+02 -0.97810116692E+02  0.26729257691E+03  0.00000000000E+00 0. -1.
<mgrwt>
<rscale>  4 0.27361549E+03</rscale>
<asrwt>0</asrwt>
<pdfrwt beam="1">  1       21 0.18723181E-01 0.27361549E+03</pdfrwt>
<pdfrwt beam="2">  1       21 0.31895337E+00 0.27361549E+03</pdfrwt>
<totfact> 0.62808079E+02</totfact>
</mgrwt>
</event>
<event>
 5    0  0.1531977E+001  0.3035172E+03  0.7546771E-02  0.1083495E+00
         21   -1    0    0  504  501  0.00000000000E+00  0.00000000000E+00  0.24456344909E+03  0.24456344909E+03  0.00000000000E+00 0.  1.
         21   -1    0    0  501  502 -0.00000000000E+00 -0.00000000000E+00 -0.96022694542E+03  0.96022694542E+03  0.00000000000E+00 0.  1.
         25    1    1    2    0    0  0.19915582483E+03  0.18134697179E+03 -0.36362117847E+02  0.29916044250E+03  0.12500000000E+03 0.  0.
         21    1    1    2  503  502  0.84135244814E+02 -0.13864552706E+03  0.65895435396E+01  0.16231063945E+03  0.00000000000E+00 0.  1.
         21    1    1    2  504  503 -0.28329106964E+03 -0.42701444732E+02 -0.68589092203E+03  0.74331931257E+03  0.00000000000E+00 0.  1.
<mgrwt>
<rscale>  4 0.30351725E+03</rscale>
<asrwt>0</asrwt>
<pdfrwt beam="1">  1       21 0.37625147E-01 0.30351725E+03</pdfrwt>
<pdfrwt beam="2">  1       21 0.14772722E+00 0.30351725E+03</pdfrwt>
<totfact> 0.19470386E+03</totfact>
</mgrwt>
</event>
<event>
 5    0  0.1531977E+001  0.2623230E+03  0.7546771E-02  0.1105755E+00
         21   -1    0    0  502  501  0.00000000000E+00  0.00000000000E+00  0.49186020364E+03  0.49186020364E+03  0.00000000000E+00 0. -1.
         21   -1    0    0  504  502 -0.00000000000E+00 -0.00000000000E+00 -0.57689659836E+03  0.57689659836E+03  0.00000000000E+00 0. -1.
         25    1    1    2    0    0  0.21219491428E+03 -0.90145078413E+01 -0.48100156138E+03  0.54045855072E+03  0.12500000000E+03 0.  0.
         21    1    1    2  503  501 -0.23035438313E+03  0.24904562551E+02  0.42889282660E+03  0.48747557454E+03  0.00000000000E+00 0. -1.
         21    1    1    2  504  503  0.18159468849E+02 -0.15890054710E+02 -0.32927659941E+02  0.40822676746E+02  0.00000000000E+00 0. -1.
<mgrwt>
<rscale>  4 0.26232302E+03</rscale>
<asrwt>0</asrwt>
<pdfrwt beam="1">  1       21 0.75670801E-01 0.26232302E+03</pdfrwt>
<pdfrwt beam="2">  1       21 0.88753323E-01 0.26232302E+03</pdfrwt>
<totfact> 0.15976218E+03</totfact>
</mgrwt>
</event>
<event>
 5    0  0.1531977E+001  0.2559920E+03  0.7546771E-02  0.1109576E+00
         21   -1    0    0  504  501  0.00000000000E+00  0.00000000000E+00  0.22951381264E+03  0.22951381264E+03  0.00000000000E+00 0. -1.
         21   -1    0    0  503  502 -0.00000000000E+00 -0.00000000000E+00 -0.23975617410E+04  0.23975617410E+04  0.00000000000E+00 0. -1.
         25    1    1    2    0    0  0.25984229778E+03 -0.10306185924E+03 -0.75507806696E+03  0.81480528579E+03  0.12500000000E+03 0.  0.
         21    1    1    2  503  501 -0.46819631794E+02  0.51119400687E+02 -0.15514106964E+04  0.15529586021E+04  0.00000000000E+00 0. -1.
         21    1    1    2  504  502 -0.21302266598E+03  0.51942458550E+02  0.13844083494E+03  0.25931166577E+03  0.00000000000E+00 0. -1.
<mgrwt>
<rscale>  4 0.25599199E+03</rscale>
<asrwt>0</asrwt>
<pdfrwt beam="1">  1       21 0.35309818E-01 0.25599199E+03</pdfrwt>
<pdfrwt beam="2">  1       21 0.36885564E+00 0.25599199E+03</pdfrwt>
<totfact> 0.94738213E+01</totfact>
</mgrwt>
</event>
<event>
 5    0  0.1531977E+001  0.2482370E+03  0.7546771E-02  0.1114424E+00
         21   -1    0    0  504  501  0.00000000000E+00  0.00000000000E+00  0.50881137238E+03  0.50881137238E+03  0.00000000000E+00 0. -1.
         21   -1    0    0  503  502 -0.00000000000E+00 -0.00000000000E+00 -0.27946615898E+03  0.27946615898E+03  0.00000000000E+00 0. -1.
         25    1    1    2    0    0  0.14965269289E+03 -0.15362506690E+03 -0.18593592979E+03  0.31015118838E+03  0.12500000000E+03 0.  0.
         21    1    1    2  503  501 -0.74467224093E+02  0.13631054328E+03  0.23120296048E+03  0.27853319480E+03  0.00000000000E+00 0. -1.
         21    1    1    2  504  502 -0.75185468794E+02  0.17314523614E+02  0.18407818271E+03  0.19959314817E+03  0.00000000000E+00 0. -1.
<mgrwt>
<rscale>  4 0.24823696E+03</rscale>
<asrwt>0</asrwt>
<pdfrwt beam="1">  1       21 0.78278673E-01 0.24823696E+03</pdfrwt>
<pdfrwt beam="2">  1       21 0.42994794E-01 0.24823696E+03</pdfrwt>
<totfact> 0.72417450E+03</totfact>
</mgrwt>
</event>
<event>
 5    0  0.1531977E+001  0.2168547E+03  0.7546771E-02  0.1136250E+00
         21   -1    0    0  504  501  0.00000000000E+00  0.00000000000E+00  0.27185684095E+03  0.27185684095E+03  0.00000000000E+00 0.  1.
         21   -1    0    0  503  502 -0.00000000000E+00 -0.00000000000E+00 -0.52855630438E+03  0.52855630438E+03  0.00000000000E+00 0. -1.
         25    1    1    2    0    0 -0.52812229637E+01  0.21224204279E+03 -0.30540648539E+03  0.39239354908E+03  0.12500000000E+03 0.  0.
         21    1    1    2  503  501 -0.45282837661E+02 -0.45312882225E+02 -0.13822770318E+03  0.15235055172E+03  0.00000000000E+00 0.  1.
         21    1    1    2  504  502  0.50564060624E+02 -0.16692916056E+03  0.18693472513E+03  0.25566904453E+03  0.00000000000E+00 0.  1.
<mgrwt>
<rscale>  4 0.21685469E+03</rscale>
<asrwt>0</asrwt>
<pdfrwt beam="1">  1       21 0.41824130E-01 0.21685469E+03</pdfrwt>
<pdfrwt beam="2">  1       21 0.81316354E-01 0.21685469E+03</pdfrwt>
<totfact> 0.71686946E+03</totfact>
</mgrwt>
</event>
<event>
 5    0  0.1531977E+001  0.2240528E+03  0.7546771E-02  0.1130897E+00
         21   -1    0    0  502  501  0.00000000000E+00  0.00000000000E+00  0.20686001693E+03  0.20686001693E+03  0.00000000000E+00 0.  1.
         21   -1    0    0  504  502 -0.00000000000E+00 -0.00000000000E+00 -0.34708532153E+03  0.34708532153E+03  0.00000000000E+00 0.  1.
         25    1    1    2    0    0 -0.84122196183E+02  0.18778480403E+03  0.36935678943E+02  0.24357528794E+03  0.12500000000E+03 0.  0.
         21    1    1    2  503  501 -0.21265552576E+02 -0.39878130168E+02  0.13389332514E+02  0.47135583345E+02  0.00000000000E+00 0. -1.
         21    1    1    2  504  503  0.10538774876E+03 -0.14790667386E+03 -0.19055031606E+03  0.26323446718E+03  0.00000000000E+00 0.  1.
<mgrwt>
<rscale>  4 0.22405280E+03</rscale>
<asrwt>0</asrwt>
<pdfrwt beam="1">  1       21 0.31824618E-01 0.22405280E+03</pdfrwt>
<pdfrwt beam="2">  1       21 0.53397742E-01 0.22405280E+03</pdfrwt>
<totfact> 0.31004111E+04</totfact>
</mgrwt>
</event>
<event>
 5    0  0.1531977E+001  0.3046698E+03  0.7546771E-02  0.1082929E+00
         21   -1    0    0  504  501  0.00000000000E+00  0.00000000000E+00  0.13883221095E+03  0.13883221095E+03  0.00000000000E+00 0. -1.
         21   -1    0    0  503  502 -0.00000000000E+00 -0.00000000000E+00 -0.85076579015E+03  0.85076579015E+03  0.00000000000E+00 0. -1.
         25    1    1    2    0    0  0.62762484904E+02 -0.27925117879E+03 -0.17501326437E+03  0.35801535312E+03  0.12500000000E+03 0.  0.
         21    1    1    2  503  501 -0.38063971336E+02  0.27243284636E+03 -0.53975041057E+03  0.60580444650E+03  0.00000000000E+00 0. -1.
         21    1    1    2  504  502 -0.24698513568E+02  0.68183324322E+01  0.28300957415E+01  0.25778201480E+02  0.00000000000E+00 0. -1.
<mgrwt>
<rscale>  4 0.30466978E+03</rscale>
<asrwt>0</asrwt>
<pdfrwt beam="1">  1       21 0.21358802E-01 0.30466978E+03</pdfrwt>
<pdfrwt beam="2">  1       21 0.13088704E+00 0.30466978E+03</pdfrwt>
<totfact> 0.80961146E+03</totfact>
</mgrwt>
</event>
<event>
 5    0  0.1531977E+001  0.2241762E+03  0.7546771E-02  0.1130807E+00
         21   -1    0    0  502  501  0.00000000000E+00  0.00000000000E+00  0.17564231573E+04  0.17564231573E+04  0.00000000000E+00 0. -1.
         21   -1    0    0  504  502 -0.00000000000E+00 -0.00000000000E+00 -0.57959825006E+02  0.57959825006E+02  0.00000000000E+00 0. -1.
         25    1    1    2    0    0  0.24973407994E+02 -0.21585664401E+03  0.97339773404E+03  0.10051596443E+04  0.12500000000E+03 0.  0.
         21    1    1    2  503  501 -0.94516744129E+02  0.45697755885E+02  0.53348703043E+03  0.54371877975E+03  0.00000000000E+00 0. -1.
         21    1    1    2  504  503  0.69543336135E+02  0.17015888813E+03  0.19157856781E+03  0.26550455826E+03  0.00000000000E+00 0. -1.
<mgrwt>
<rscale>  4 0.22417617E+03</rscale>
<asrwt>0</asrwt>
<pdfrwt beam="1">  1       21 0.27021891E+00 0.22417617E+03</pdfrwt>
<pdfrwt beam="2">  1       21 0.89168975E-02 0.22417617E+03</pdfrwt>
<totfact> 0.48722196E+03</totfact>
</mgrwt>
</event>
<event>
 5    0  0.1531977E+001  0.2503056E+03  0.7546771E-02  0.1113112E+00
         21   -1    0    0  502  501  0.00000000000E+00  0.00000000000E+00  0.23004968316E+03  0.23004968316E+03  0.00000000000E+00 0. -1.
         21   -1    0    0  504  502 -0.00000000000E+00 -0.00000000000E+00 -0.32786830417E+03  0.32786830417E+03  0.00000000000E+00 0. -1.
         25    1    1    2    0    0  0.15856369618E+03 -0.16258038054E+03 -0.12745954755E+03  0.28886980137E+03  0.12500000000E+03 0.  0.
         21    1    1    2  503  501 -0.34024870877E+02 -0.14998918459E+01  0.51667761774E+02  0.61882946928E+02  0.00000000000E+00 0.  1.
         21    1    1    2  504  503 -0.12453882530E+03  0.16408027239E+03 -0.22026835228E+02  0.20716523903E+03  0.00000000000E+00 0. -1.
<mgrwt>
<rscale>  4 0.25030563E+03</rscale>
<asrwt>0</asrwt>
<pdfrwt beam="1">  1       21 0.35392259E-01 0.25030563E+03</pdfrwt>
<pdfrwt beam="2">  1       21 0.50441278E-01 0.25030563E+03</pdfrwt>
<totfact> 0.27965650E+04</totfact>
</mgrwt>
</event>
<event>
 5    0  0.1531977E+001  0.2343879E+03  0.7546771E-02  0.1123589E+00
         21   -1    0    0  504  501  0.00000000000E+00  0.00000000000E+00  0.14009349406E+03  0.14009349406E+03  0.00000000000E+00 0.  1.
         21   -1    0    0  503  502 -0.00000000000E+00 -0.00000000000E+00 -0.71454834216E+03  0.71454834216E+03  0.00000000000E+00 0.  1.
         25    1    1    2    0    0  0.11240250830E+03 -0.18713236274E+03 -0.30341547645E+03  0.39413043070E+03  0.12500000000E+03 0.  0.
         21    1    1    2  503  501 -0.26263887281E+02  0.14715080226E+02 -0.26601060376E+03  0.26770873478E+03  0.00000000000E+00 0.  1.
         21    1    1    2  504  502 -0.86138621015E+02  0.17241728251E+03 -0.50287678876E+01  0.19280267074E+03  0.00000000000E+00 0.  1.
<mgrwt>
<rscale>  4 0.23438790E+03</rscale>
<asrwt>0</asrwt>
<pdfrwt beam="1">  1       21 0.21552845E-01 0.23438790E+03</pdfrwt>
<pdfrwt beam="2">  1       21 0.10993051E+00 0.23438790E+03</pdfrwt>
<totfact> 0.12777213E+04</totfact>
</mgrwt>
</event>
<event>
 5    0  0.1531977E+001  0.2968202E+03  0.7546771E-02  0.1086841E+00
         21   -1    0    0  502  501  0.00000000000E+00  0.00000000000E+00  0.23776380477E+03  0.23776380477E+03  0.00000000000E+00 0. -1.
         21   -1    0    0  504  502 -0.00000000000E+00 -0.00000000000E+00 -0.69749075615E+03  0.69749075615E+03  0.00000000000E+00 0. -1.
         25    1    1    2    0    0  0.46654713315E+02 -0.28546221896E+03 -0.42900817545E+03  0.53229536475E+03  0.12500000000E+03 0.  0.
         21    1    1    2  503  501 -0.29405726221E+02  0.26366796410E+03  0.89172855429E+02  0.27988799577E+03  0.00000000000E+00 0. -1.
         21    1    1    2  504  503 -0.17248987094E+02  0.21794254853E+02 -0.11989163135E+03  0.12307120040E+03  0.00000000000E+00 0. -1.
<mgrwt>
<rscale>  4 0.29682021E+03</rscale>
<asrwt>0</asrwt>
<pdfrwt beam="1">  1       21 0.36579047E-01 0.29682021E+03</pdfrwt>
<pdfrwt beam="2">  1       21 0.10730627E+00 0.29682021E+03</pdfrwt>
<totfact> 0.46666315E+03</totfact>
</mgrwt>
</event>
<event>
 5    0  0.1531977E+001  0.2879051E+03  0.7546771E-02  0.1091448E+00
         21   -1    0    0  502  501  0.00000000000E+00  0.00000000000E+00  0.25035402275E+03  0.25035402275E+03  0.00000000000E+00 0.  1.
         21   -1    0    0  504  502 -0.00000000000E+00 -0.00000000000E+00 -0.51374586840E+03  0.51374586840E+03  0.00000000000E+00 0.  1.
         25    1    1    2    0    0 -0.12527621939E+03 -0.25671773552E+03  0.20689285302E+02  0.31249187734E+03  0.12500000000E+03 0.  0.
         21    1    1    2  503  501  0.72946695152E+02  0.21824525743E+03 -0.90240121920E+02  0.24717502367E+03  0.00000000000E+00 0.  1.
         21    1    1    2  504  503  0.52329524238E+02  0.38472478093E+02 -0.19384100903E+03  0.20443299014E+03  0.00000000000E+00 0.  1.
<mgrwt>
<rscale>  4 0.28790514E+03</rscale>
<asrwt>0</asrwt>
<pdfrwt beam="1">  1       21 0.38516003E-01 0.28790514E+03</pdfrwt>
<pdfrwt beam="2">  1       21 0.79037826E-01 0.28790514E+03</pdfrwt>
<totfact> 0.86820650E+03</totfact>
</mgrwt>
</event>
<event>
 5    0  0.1531977E+001  0.2337229E+03  0.7546771E-02  0.1124047E+00
         21   -1    0    0  502  501  0.00000000000E+00  0.00000000000E+00  0.14810662249E+03  0.14810662249E+03  0.00000000000E+00 0.  1.
         21   -1    0    0  504  502 -0.00000000000E+00 -0.00000000000E+00 -0.57856317676E+03  0.57856317676E+03  0.00000000000E+00 0.  1.
         25    1    1    2    0    0 -0.10410027738E+03 -0.18896403510E+03 -0.73211773044E+02  0.25986388365E+03  0.12500000000E+03 0.  0.
         21    1    1    2  503  501  0.78156597992E+02  0.16312153665E+03 -0.99434632171E+02  0.20640817717E+03  0.00000000000E+00 0.  1.
         21    1    1    2  504  503  0.25943679391E+02  0.25842498450E+02 -0.25781014905E+03  0.26039773843E+03  0.00000000000E+00 0.  1.
<mgrwt>
<rscale>  4 0.23372288E+03</rscale>
<asrwt>0</asrwt>
<pdfrwt beam="1">  1       21 0.22785634E-01 0.23372288E+03</pdfrwt>
<pdfrwt beam="2">  1       21 0.89009721E-01 0.23372288E+03</pdfrwt>
<totfact> 0.19009805E+04</totfact>
</mgrwt>
</event>
<event>
 5    0  0.1531977E+001  0.4015159E+03  0.7546771E-02  0.1043256E+00
         21   -1    0    0  504  501  0.00000000000E+00  0.00000000000E+00  0.18767584440E+04  0.18767584440E+04  0.00000000000E+00 0. -1.
         21   -1    0    0  501  502 -0.00000000000E+00 -0.00000000000E+00 -0.15732248261E+03  0.15732248261E+03  0.00000000000E+00 0. -1.
         25    1    1    2    0    0  0.31733604621E+03  0.21563449584E+03  0.15509628856E+04  0.16025951687E+04  0.12500000000E+03 0.  0.
         21    1    1    2  503  502 -0.29620385173E+03 -0.22446104709E+03  0.14568615830E+03  0.39917908282E+03  0.00000000000E+00 0. -1.
         21    1    1    2  504  503 -0.21132194476E+02  0.88265512483E+01  0.22786917483E+02  0.32306675142E+02  0.00000000000E+00 0. -1.
<mgrwt>
<rscale>  4 0.40151591E+03</rscale>
<asrwt>0</asrwt>
<pdfrwt beam="1">  1       21 0.28873205E+00 0.40151591E+03</pdfrwt>
<pdfrwt beam="2">  1       21 0.24203460E-01 0.40151591E+03</pdfrwt>
<totfact> 0.52603250E+02</totfact>
</mgrwt>
</event>
<event>
 5    0  0.1531977E+001  0.2306217E+03  0.7546771E-02  0.1126203E+00
         21   -1    0    0  503  501  0.00000000000E+00  0.00000000000E+00  0.64968032372E+03  0.64968032372E+03  0.00000000000E+00 0.  1.
         21   -1    0    0  504  502 -0.00000000000E+00 -0.00000000000E+00 -0.11706609569E+04  0.11706609569E+04  0.00000000000E+00 0. -1.
         25    1    1    2    0    0  0.13227254887E+03  0.27549366604E+03  0.40001101758E+03  0.51867774330E+03  0.12500000000E+03 0.  0.
         21    1    1    2  503  502 -0.22495249709E+02 -0.19071412101E+03 -0.10763791561E+04  0.10933755072E+04  0.00000000000E+00 0. -1.
         21    1    1    2  504  501 -0.10977729916E+03 -0.84779545037E+02  0.15538750531E+03  0.20828803008E+03  0.00000000000E+00 0.  1.
<mgrwt>
<rscale>  4 0.23062170E+03</rscale>
<asrwt>0</asrwt>
<pdfrwt beam="1">  1       21 0.99950819E-01 0.23062170E+03</pdfrwt>
<pdfrwt beam="2">  1       21 0.18010168E+00 0.23062170E+03</pdfrwt>
<totfact> 0.14233180E+02</totfact>
</mgrwt>
</event>
<event>
 5    0  0.1531977E+001  0.2619230E+03  0.7546771E-02  0.1105993E+00
         21   -1    0    0  503  501  0.00000000000E+00  0.00000000000E+00  0.31648228128E+03  0.31648228128E+03  0.00000000000E+00 0.  1.
         21   -1    0    0  504  502 -0.00000000000E+00 -0.00000000000E+00 -0.58712486555E+03  0.58712486555E+03  0.00000000000E+00 0.  1.
         25    1    1    2    0    0 -0.26109717540E+03 -0.35438512775E+02  0.18037708145E+03  0.34291181768E+03  0.12500000000E+03 0.  0.
         21    1    1    2  503  502  0.22121164947E+03  0.50579206228E+02 -0.46365060714E+03  0.51620222342E+03  0.00000000000E+00 0.  1.
         21    1    1    2  504  501  0.39885525937E+02 -0.15140693452E+02  0.12630941416E+02  0.44493105742E+02  0.00000000000E+00 0. -1.
<mgrwt>
<rscale>  4 0.26192298E+03</rscale>
<asrwt>0</asrwt>
<pdfrwt beam="1">  1       21 0.48689581E-01 0.26192298E+03</pdfrwt>
<pdfrwt beam="2">  1       21 0.90326903E-01 0.26192298E+03</pdfrwt>
<totfact> 0.39926876E+03</totfact>
</mgrwt>
</event>
<event>
 5    0  0.1531977E+001  0.3432026E+03  0.7546771E-02  0.1065440E+00
         21   -1    0    0  503  501  0.00000000000E+00  0.00000000000E+00  0.82964164510E+03  0.82964164510E+03  0.00000000000E+00 0.  1.
         21   -1    0    0  501  502 -0.00000000000E+00 -0.00000000000E+00 -0.19786396439E+03  0.19786396439E+03  0.00000000000E+00 0.  1.
         25    1    1    2    0    0 -0.15830852682E+03 -0.31395977283E+03  0.49623125174E+03  0.62088870486E+03  0.12500000000E+03 0.  0.
         21    1    1    2  503  504  0.37196363924E+02  0.29472615150E+02  0.79200436745E+02  0.92330459295E+02  0.00000000000E+00 0.  1.
         21    1    1    2  504  502  0.12111216290E+03  0.28448715768E+03  0.56345992225E+02  0.31428644534E+03  0.00000000000E+00 0.  1.
<mgrwt>
<rscale>  4 0.34320258E+03</rscale>
<asrwt>0</asrwt>
<pdfrwt beam="1">  1       21 0.12763717E+00 0.34320258E+03</pdfrwt>
<pdfrwt beam="2">  1       21 0.30440610E-01 0.34320258E+03</pdfrwt>
<totfact> 0.42669162E+03</totfact>
</mgrwt>
</event>
<event>
 5    0  0.1531977E+001  0.2472579E+03  0.7546771E-02  0.1115050E+00
         21   -1    0    0  503  501  0.00000000000E+00  0.00000000000E+00  0.15775196064E+03  0.15775196064E+03  0.00000000000E+00 0. -1.
         21   -1    0    0  504  502 -0.00000000000E+00 -0.00000000000E+00 -0.46277678514E+03  0.46277678514E+03  0.00000000000E+00 0. -1.
         25    1    1    2    0    0 -0.21042662509E+03  0.90463632462E+02 -0.51876548575E+02  0.26604362356E+03  0.12500000000E+03 0.  0.
         21    1    1    2  503  502  0.19520451359E+03 -0.71840411108E+02 -0.25645673681E+03  0.33020585193E+03  0.00000000000E+00 0. -1.
         21    1    1    2  504  501  0.15222111502E+02 -0.18623221353E+02  0.33084608939E+01  0.24279270286E+02  0.00000000000E+00 0.  1.
<mgrwt>
<rscale>  4 0.24725787E+03</rscale>
<asrwt>0</asrwt>
<pdfrwt beam="1">  1       21 0.24269533E-01 0.24725787E+03</pdfrwt>
<pdfrwt beam="2">  1       21 0.71196427E-01 0.24725787E+03</pdfrwt>
<totfact> 0.27810803E+04</totfact>
</mgrwt>
</event>
<event>
 5    0  0.1531977E+001  0.2359339E+03  0.7546771E-02  0.1122532E+00
         21   -1    0    0  502  501  0.00000000000E+00  0.00000000000E+00  0.29332832288E+03  0.29332832288E+03  0.00000000000E+00 0. -1.
         21   -1    0    0  504  502 -0.00000000000E+00 -0.00000000000E+00 -0.68722929780E+03  0.68722929780E+03  0.00000000000E+00 0.  1.
         25    1    1    2    0    0  0.21511766583E+03 -0.13440790494E+02 -0.56459453526E+03  0.61712904181E+03  0.12500000000E+03 0.  0.
         21    1    1    2  503  501 -0.19813789034E+03 -0.21411972622E+02  0.22251247199E+03  0.29871206261E+03  0.00000000000E+00 0. -1.
         21    1    1    2  504  503 -0.16979775492E+02  0.34852763116E+02 -0.51818911654E+02  0.64716516266E+02  0.00000000000E+00 0. -1.
<mgrwt>
<rscale>  4 0.23593388E+03</rscale>
<asrwt>0</asrwt>
<pdfrwt beam="1">  1       21 0.45127435E-01 0.23593388E+03</pdfrwt>
<pdfrwt beam="2">  1       21 0.10572758E+00 0.23593388E+03</pdfrwt>
<totfact> 0.32716056E+03</totfact>
</mgrwt>
</event>
<event>
 5    0  0.1531977E+001  0.2432925E+03  0.7546771E-02  0.1117619E+00
         21   -1    0    0  502  501  0.00000000000E+00  0.00000000000E+00  0.66502724452E+03  0.66502724452E+03  0.00000000000E+00 0. -1.
         21   -1    0    0  504  502 -0.00000000000E+00 -0.00000000000E+00 -0.16020625550E+03  0.16020625550E+03  0.00000000000E+00 0. -1.
         25    1    1    2    0    0  0.20286701502E+03 -0.11567203003E+03  0.97244275992E+02  0.28216394796E+03  0.12500000000E+03 0.  0.
         21    1    1    2  503  501 -0.17764365097E+03  0.97952996282E+02  0.44826105565E+03  0.49202645276E+03  0.00000000000E+00 0. -1.
         21    1    1    2  504  503 -0.25223364052E+02  0.17719033746E+02 -0.40684342618E+02  0.51043099291E+02  0.00000000000E+00 0. -1.
<mgrwt>
<rscale>  4 0.24329248E+03</rscale>
<asrwt>0</asrwt>
<pdfrwt beam="1">  1       21 0.10231188E+00 0.24329248E+03</pdfrwt>
<pdfrwt beam="2">  1       21 0.24647117E-01 0.24329248E+03</pdfrwt>
<totfact> 0.11718311E+04</totfact>
</mgrwt>
</event>
<event>
 5    0  0.1531977E+001  0.5427715E+03  0.7546771E-02  0.1003181E+00
         21   -1    0    0  503  501  0.00000000000E+00  0.00000000000E+00  0.27864530632E+03  0.27864530632E+03  0.00000000000E+00 0. -1.
         21   -1    0    0  504  502 -0.00000000000E+00 -0.00000000000E+00 -0.14327741851E+04  0.14327741851E+04  0.00000000000E+00 0. -1.
         25    1    1    2    0    0  0.10512464680E+03  0.53428079499E+03 -0.59484889233E+03  0.81607436178E+03  0.12500000000E+03 0.  0.
         21    1    1    2  503  502  0.22110737776E+02 -0.31006794665E+02 -0.32257734620E+03  0.32481756468E+03  0.00000000000E+00 0. -1.
         21    1    1    2  504  501 -0.12723538457E+03 -0.50327400032E+03 -0.23670264028E+03  0.57052756498E+03  0.00000000000E+00 0. -1.
<mgrwt>
<rscale>  4 0.54277150E+03</rscale>
<asrwt>0</asrwt>
<pdfrwt beam="1">  1       21 0.42868509E-01 0.54277150E+03</pdfrwt>
<pdfrwt beam="2">  1       21 0.22042679E+00 0.54277150E+03</pdfrwt>
<totfact> 0.40896616E+02</totfact>
</mgrwt>
</event>
<event>
 5    0  0.1531977E+001  0.3176275E+03  0.7546771E-02  0.1076746E+00
         21   -1    0    0  502  501  0.00000000000E+00  0.00000000000E+00  0.45058294500E+03  0.45058294500E+03  0.00000000000E+00 0.  1.
         21   -1    0    0  504  502 -0.00000000000E+00 -0.00000000000E+00 -0.11126607235E+04  0.11126607235E+04  0.00000000000E+00 0.  1.
         25    1    1    2    0    0  0.59051330236E+02 -0.25224418868E+03  0.35073445782E+03  0.45360098128E+03  0.12500000000E+03 0.  0.
         21    1    1    2  503  501  0.15964354051E+02 -0.31697351830E+02  0.16582714459E+02  0.39173576964E+02  0.00000000000E+00 0. -1.
         21    1    1    2  504  503 -0.75015684287E+02  0.28394154051E+03 -0.10293949508E+04  0.10704691102E+04  0.00000000000E+00 0.  1.
<mgrwt>
<rscale>  4 0.31762747E+03</rscale>
<asrwt>0</asrwt>
<pdfrwt beam="1">  1       21 0.69320453E-01 0.31762747E+03</pdfrwt>
<pdfrwt beam="2">  1       21 0.17117857E+00 0.31762747E+03</pdfrwt>
<totfact> 0.35259885E+02</totfact>
</mgrwt>
</event>
<event>
 5    0  0.1531977E+001  0.1836681E+03  0.7546771E-02  0.1164299E+00
         21   -1    0    0  504  501  0.00000000000E+00  0.00000000000E+00  0.20732175303E+04  0.20732175303E+04  0.00000000000E+00 0.  1.
         21   -1    0    0  503  502 -0.00000000000E+00 -0.00000000000E+00 -0.89558163419E+02  0.89558163419E+02  0.00000000000E+00 0.  1.
         25    1    1    2    0    0 -0.22152765949E+03 -0.70540847112E+02  0.60451302144E+03  0.65962982659E+03  0.12500000000E+03 0.  0.
         21    1    1    2  503  501  0.12500234630E+03  0.51311049784E+01  0.62041903686E+01  0.12526135397E+03  0.00000000000E+00 0.  1.
         21    1    1    2  504  502  0.96525313190E+02  0.65409742134E+02  0.13729421551E+04  0.13778845132E+04  0.00000000000E+00 0.  1.
<mgrwt>
<rscale>  4 0.18366814E+03</rscale>
<asrwt>0</asrwt>
<pdfrwt beam="1">  1       21 0.31895651E+00 0.18366814E+03</pdfrwt>
<pdfrwt beam="2">  1       21 0.13778181E-01 0.18366814E+03</pdfrwt>
<totfact> 0.12301688E+03</totfact>
</mgrwt>
</event>
<event>
 5    0  0.1531977E+001  0.3922010E+03  0.7546771E-02  0.1046514E+00
         21   -1    0    0  504  501  0.00000000000E+00  0.00000000000E+00  0.11248990195E+04  0.11248990195E+04  0.00000000000E+00 0. -1.
         21   -1    0    0  501  502 -0.00000000000E+00 -0.00000000000E+00 -0.17210920027E+03  0.17210920027E+03  0.00000000000E+00 0. -1.
         25    1    1    2    0    0 -0.33299465382E+03 -0.11793416742E+03  0.62229410568E+03  0.72640819192E+03  0.12500000000E+03 0.  0.
         21    1    1    2  503  502 -0.60816933815E+00 -0.69513377657E+02  0.10656750225E+03  0.12723644163E+03  0.00000000000E+00 0. -1.
         21    1    1    2  504  503  0.33360282315E+03  0.18744754507E+03  0.22392821130E+03  0.44336358622E+03  0.00000000000E+00 0. -1.
<mgrwt>
<rscale>  4 0.39220104E+03</rscale>
<asrwt>0</asrwt>
<pdfrwt beam="1">  1       21 0.17306138E+00 0.39220104E+03</pdfrwt>
<pdfrwt beam="2">  1       21 0.26478339E-01 0.39220104E+03</pdfrwt>
<totfact> 0.24141686E+03</totfact>
</mgrwt>
</event>
<event>
 5    0  0.1531977E+001  0.2677783E+03  0.7546771E-02  0.1102558E+00
         21   -1    0    0  502  501  0.00000000000E+00  0.00000000000E+00  0.11701430010E+03  0.11701430010E+03  0.00000000000E+00 0. -1.
         21   -1    0    0  504  502 -0.00000000000E+00 -0.00000000000E+00 -0.64633041722E+03  0.64633041722E+03  0.00000000000E+00 0. -1.
         25    1    1    2    0    0  0.56938315913E+02  0.21239932226E+03 -0.30081258386E+03  0.39302500496E+03  0.12500000000E+03 0.  0.
         21    1    1    2  503  501 -0.11067461257E+02  0.31656405240E+02 -0.64573595487E+02  0.72762393621E+02  0.00000000000E+00 0. -1.
         21    1    1    2  504  503 -0.45870854656E+02 -0.24405572750E+03 -0.16392993778E+03  0.29755731874E+03  0.00000000000E+00 0. -1.
<mgrwt>
<rscale>  4 0.26777827E+03</rscale>
<asrwt>0</asrwt>
<pdfrwt beam="1">  1       21 0.18002200E-01 0.26777827E+03</pdfrwt>
<pdfrwt beam="2">  1       21 0.99435448E-01 0.26777827E+03</pdfrwt>
<totfact> 0.22441265E+04</totfact>
</mgrwt>
</event>
<event>
 5    0  0.1531977E+001  0.4252071E+03  0.7546771E-02  0.1035385E+00
         21   -1    0    0  502  501  0.00000000000E+00  0.00000000000E+00  0.76582160123E+02  0.76582160123E+02  0.00000000000E+00 0. -1.
         21   -1    0    0  504  502 -0.00000000000E+00 -0.00000000000E+00 -0.32214296581E+04  0.32214296581E+04  0.00000000000E+00 0.  1.
         25    1    1    2    0    0  0.40993014944E+03  0.11144457340E+03 -0.22801706568E+04  0.23227711563E+04  0.12500000000E+03 0.  0.
         21    1    1    2  503  501 -0.31073839374E+02  0.18823781110E+02 -0.16529109088E+03  0.16923670687E+03  0.00000000000E+00 0. -1.
         21    1    1    2  504  503 -0.37885631007E+03 -0.13026835451E+03 -0.69938575035E+03  0.80600395512E+03  0.00000000000E+00 0. -1.
<mgrwt>
<rscale>  4 0.42520713E+03</rscale>
<asrwt>0</asrwt>
<pdfrwt beam="1">  1       21 0.11781872E-01 0.42520713E+03</pdfrwt>
<pdfrwt beam="2">  1       21 0.49560451E+00 0.42520713E+03</pdfrwt>
<totfact> 0.93998831E+01</totfact>
</mgrwt>
</event>
<event>
 5    0  0.1531977E+001  0.3412378E+03  0.7546771E-02  0.1066270E+00
         21   -1    0    0  502  501  0.00000000000E+00  0.00000000000E+00  0.40194125692E+03  0.40194125692E+03  0.00000000000E+00 0. -1.
         21   -1    0    0  504  502 -0.00000000000E+00 -0.00000000000E+00 -0.78995640374E+03  0.78995640374E+03  0.00000000000E+00 0. -1.
         25    1    1    2    0    0 -0.36400136352E+03 -0.14506630439E+03 -0.13841512960E+03  0.43396425361E+03  0.12500000000E+03 0.  0.
         21    1    1    2  503  501  0.87784746228E+02  0.40695500135E+02  0.19876898883E+03  0.22106875926E+03  0.00000000000E+00 0. -1.
         21    1    1    2  504  503  0.27621661729E+03  0.10437080426E+03 -0.44836900605E+03  0.53686464778E+03  0.00000000000E+00 0. -1.
<mgrwt>
<rscale>  4 0.34123783E+03</rscale>
<asrwt>0</asrwt>
<pdfrwt beam="1">  1       21 0.61837117E-01 0.34123783E+03</pdfrwt>
<pdfrwt beam="2">  1       21 0.12153175E+00 0.34123783E+03</pdfrwt>
<totfact> 0.11120427E+03</totfact>
</mgrwt>
</event>
<event>
 5    0  0.1531977E+001  0.4185418E+03  0.7546771E-02  0.1037542E+00
         21   -1    0    0  503  501  0.00000000000E+00  0.00000000000E+00  0.12402303097E+04  0.12402303097E+04  0.00000000000E+00 0.  1.
         21   -1    0    0  504  502 -0.00000000000E+00 -0.00000000000E+00 -0.16575035838E+04  0.16575035838E+04  0.00000000000E+00 0. -1.
         25    1    1    2    0    0  0.34760352700E+03 -0.17673740952E+02 -0.13874032758E+04  0.14358458910E+04  0.12500000000E+03 0.  0.
         21    1    1    2  503  502  0.52656942748E+02  0.13185110086E+00 -0.20953210248E+03  0.21604738595E+03  0.00000000000E+00 0.  1.
         21    1    1    2  504  501 -0.40026046975E+03  0.17541889851E+02  0.11796621042E+04  0.12458406165E+04  0.00000000000E+00 0.  1.
<mgrwt>
<rscale>  4 0.41854183E+03</rscale>
<asrwt>0</asrwt>
<pdfrwt beam="1">  1       21 0.19080466E+00 0.41854183E+03</pdfrwt>
<pdfrwt beam="2">  1       21 0.25500055E+00 0.41854183E+03</pdfrwt>
<totfact> 0.71716949E+00</totfact>
</mgrwt>
</event>
<event>
 5    0  0.1531977E+001  0.2102987E+03  0.7546771E-02  0.1141330E+00
         21   -1    0    0  503  501  0.00000000000E+00  0.00000000000E+00  0.14480437113E+03  0.14480437113E+03  0.00000000000E+00 0.  1.
         21   -1    0    0  504  502 -0.00000000000E+00 -0.00000000000E+00 -0.17870309424E+04  0.17870309424E+04  0.00000000000E+00 0.  1.
         25    1    1    2    0    0  0.96318437981E+02  0.17890498489E+03 -0.20092089763E+02  0.23940118459E+03  0.12500000000E+03 0.  0.
         21    1    1    2  503  502 -0.57766711081E+02 -0.48918787396E+02 -0.15220037679E+04  0.15238850056E+04  0.00000000000E+00 0.  1.
         21    1    1    2  504  501 -0.38551726899E+02 -0.12998619749E+03 -0.10013071362E+03  0.16854912339E+03  0.00000000000E+00 0.  1.
<mgrwt>
<rscale>  4 0.21029867E+03</rscale>
<asrwt>0</asrwt>
<pdfrwt beam="1">  1       21 0.22277596E-01 0.21029867E+03</pdfrwt>
<pdfrwt beam="2">  1       21 0.27492783E+00 0.21029867E+03</pdfrwt>
<totfact> 0.87767477E+02</totfact>
</mgrwt>
</event>
