<event>
 5    0  0.2159162E+000  0.2826263E+03  0.7546771E-02  0.1094263E+00
         21   -1    0    0  502  501  0.00000000000E+00  0.00000000000E+00  0.39647921543E+03  0.39647921543E+03  0.00000000000E+00 0. -1.
         21   -1    0    0  503  502 -0.00000000000E+00 -0.00000000000E+00 -0.47888861449E+03  0.47888861449E+03  0.00000000000E+00 0.  1.
         25    1    1    2    0    0 -0.19334260944E+03 -0.16392456064E+03  0.30144897694E+03  0.41321799562E+03  0.12500000000E+03 0.  0.
         21    1    1    2  503  504  0.24994684526E+02  0.54973088415E+01 -0.29498281014E+02  0.39052570233E+02  0.00000000000E+00 0. -1.
         21    1    1    2  504  501  0.16834792492E+03  0.15842725180E+03 -0.35436009499E+03  0.42309726406E+03  0.00000000000E+00 0.  1.
<mgrwt>
<rscale>  4 0.28262630E+03</rscale>
<asrwt>0</asrwt>
<pdfrwt beam="1">  1       21 0.60996802E-01 0.28262630E+03</pdfrwt>
<pdfrwt beam="2">  1       21 0.73675171E-01 0.28262630E+03</pdfrwt>
<totfact> 0.38908794E+03</totfact>
</mgrwt>
</event>
<event>
 5    0  0.2159162E+000  0.4353824E+03  0.7546771E-02  0.1032278E+00
         21   -1    0    0  502  501  0.00000000000E+00  0.00000000000E+00  0.47592225261E+03  0.47592225261E+03  0.00000000000E+00 0.  1.
         21   -1    0    0  503  502 -0.00000000000E+00 -0.00000000000E+00 -0.12180174256E+04  0.12180174256E+04  0.00000000000E+00 0.  1.
         25    1    1    2    0    0  0.35875784652E+03  0.20988058009E+03  0.32448735422E+03  0.54191705398E+03  0.12500000000E+03 0.  0.
         21    1    1    2  503  504 -0.26563423613E+03 -0.16932561460E+03 -0.92937415922E+03  0.98130985881E+03  0.00000000000E+00 0.  1.
         21    1    1    2  504  501 -0.93123610389E+02 -0.40554965490E+02 -0.13720836803E+03  0.17071276547E+03  0.00000000000E+00 0.  1.
<mgrwt>
<rscale>  4 0.43504391E+03</rscale>
<asrwt>0</asrwt>
<pdfrwt beam="1">  1       21 0.73218810E-01 0.43538241E+03</pdfrwt>
<pdfrwt beam="2">  1       21 0.18738729E+00 0.43538241E+03</pdfrwt>
<totfact> 0.22292456E+02</totfact>
</mgrwt>
</event>
<event>
 5    0  0.2159162E+000  0.2459983E+03  0.7546771E-02  0.1115860E+00
         21   -1    0    0  502  501  0.00000000000E+00  0.00000000000E+00  0.19291820347E+04  0.19291820347E+04  0.00000000000E+00 0. -1.
         21   -1    0    0  503  502 -0.00000000000E+00 -0.00000000000E+00 -0.84217766379E+02  0.84217766379E+02  0.00000000000E+00 0. -1.
         25    1    1    2    0    0  0.19488659025E+03 -0.83122792675E+02  0.17406334069E+04  0.17579305557E+04  0.12500000000E+03 0.  0.
         21    1    1    2  503  504 -0.58066616603E+02  0.71336729142E+02  0.19412638149E+02  0.94008039062E+02  0.00000000000E+00 0. -1.
         21    1    1    2  504  501 -0.13681997365E+03  0.11786063533E+02  0.84918223320E+02  0.16146120629E+03  0.00000000000E+00 0. -1.
<mgrwt>
<rscale>  4 0.24599834E+03</rscale>
<asrwt>0</asrwt>
<pdfrwt beam="1">  1       21 0.29679720E+00 0.24599834E+03</pdfrwt>
<pdfrwt beam="2">  1       21 0.12956581E-01 0.24599834E+03</pdfrwt>
<totfact> 0.17141738E+03</totfact>
</mgrwt>
</event>
<event>
 5    0  0.2159162E+000  0.2751173E+03  0.7546771E-02  0.1098386E+00
         21   -1    0    0  502  501  0.00000000000E+00  0.00000000000E+00  0.12972348426E+04  0.12972348426E+04  0.00000000000E+00 0.  1.
         21   -1    0    0  503  502 -0.00000000000E+00 -0.00000000000E+00 -0.53188809628E+02  0.53188809628E+02  0.00000000000E+00 0.  1.
         25    1    1    2    0    0 -0.46131670460E+02 -0.24069977758E+03  0.62903573154E+03  0.68656788849E+03  0.12500000000E+03 0.  0.
         21    1    1    2  503  504  0.99729282660E+01  0.76179319185E+02  0.13754509813E+03  0.15754809421E+03  0.00000000000E+00 0.  1.
         21    1    1    2  504  501  0.36158742194E+02  0.16452045839E+03  0.47746520335E+03  0.50630766958E+03  0.00000000000E+00 0.  1.
<mgrwt>
<rscale>  4 0.27511727E+03</rscale>
<asrwt>0</asrwt>
<pdfrwt beam="1">  1       21 0.19957457E+00 0.27511727E+03</pdfrwt>
<pdfrwt beam="2">  1       21 0.81828948E-02 0.27511727E+03</pdfrwt>
<totfact> 0.14737820E+04</totfact>
</mgrwt>
</event>
<event>
 5    0  0.2159162E+000  0.3759807E+03  0.7546771E-02  0.1052429E+00
         21   -1    0    0  502  501  0.00000000000E+00  0.00000000000E+00  0.22240615947E+03  0.22240615947E+03  0.00000000000E+00 0.  1.
         21   -1    0    0  503  502 -0.00000000000E+00 -0.00000000000E+00 -0.86841485285E+03  0.86841485285E+03  0.00000000000E+00 0. -1.
         25    1    1    2    0    0 -0.34359561229E+03  0.87627301591E+02 -0.28632288172E+02  0.37706935264E+03  0.12500000000E+03 0.  0.
         21    1    1    2  503  504  0.36319177318E+02 -0.26285340085E+02 -0.77597262987E+02  0.89617726860E+02  0.00000000000E+00 0. -1.
         21    1    1    2  504  501  0.30727643498E+03 -0.61341961506E+02 -0.53977914221E+03  0.62413393282E+03  0.00000000000E+00 0. -1.
<mgrwt>
<rscale>  4 0.37598070E+03</rscale>
<asrwt>0</asrwt>
<pdfrwt beam="1">  1       21 0.34216331E-01 0.37598070E+03</pdfrwt>
<pdfrwt beam="2">  1       21 0.13360229E+00 0.37598070E+03</pdfrwt>
<totfact> 0.29592393E+03</totfact>
</mgrwt>
</event>
<event>
 5    0  0.2159162E+000  0.3633704E+03  0.7546771E-02  0.1057257E+00
         21   -1    0    0  502  501  0.00000000000E+00  0.00000000000E+00  0.32167891919E+04  0.32167891919E+04  0.00000000000E+00 0.  1.
         21   -1    0    0  503  502 -0.00000000000E+00 -0.00000000000E+00 -0.52884551949E+02  0.52884551949E+02  0.00000000000E+00 0.  1.
         25    1    1    2    0    0 -0.19416944452E+03  0.29179180351E+03  0.22376017308E+04  0.22683321484E+04  0.12500000000E+03 0.  0.
         21    1    1    2  503  504  0.21572845257E+03 -0.26063151185E+03  0.78009177916E+03  0.85030037876E+03  0.00000000000E+00 0.  1.
         21    1    1    2  504  501 -0.21559008050E+02 -0.31160291668E+02  0.14621113009E+03  0.15104121678E+03  0.00000000000E+00 0.  1.
<mgrwt>
<rscale>  4 0.36337044E+03</rscale>
<asrwt>0</asrwt>
<pdfrwt beam="1">  1       21 0.49489049E+00 0.36337044E+03</pdfrwt>
<pdfrwt beam="2">  1       21 0.81360874E-02 0.36337044E+03</pdfrwt>
<totfact> 0.19418805E+02</totfact>
</mgrwt>
</event>
<event>
 5    0  0.2159162E+000  0.3753851E+03  0.7546771E-02  0.1052653E+00
         21   -1    0    0  502  501  0.00000000000E+00  0.00000000000E+00  0.85148909298E+03  0.85148909298E+03  0.00000000000E+00 0. -1.
         21   -1    0    0  503  502 -0.00000000000E+00 -0.00000000000E+00 -0.23867654737E+03  0.23867654737E+03  0.00000000000E+00 0. -1.
         25    1    1    2    0    0 -0.30481717992E+03  0.19236702961E+03  0.60087994323E+03  0.71175859210E+03  0.12500000000E+03 0.  0.
         21    1    1    2  503  504  0.94046166123E+01 -0.35577368846E+02  0.23677560647E+02  0.43758689032E+02  0.00000000000E+00 0.  1.
         21    1    1    2  504  501  0.29541256331E+03 -0.15678966076E+03 -0.11744958273E+02  0.33464835922E+03  0.00000000000E+00 0. -1.
<mgrwt>
<rscale>  4 0.37538511E+03</rscale>
<asrwt>0</asrwt>
<pdfrwt beam="1">  1       21 0.13099832E+00 0.37538511E+03</pdfrwt>
<pdfrwt beam="2">  1       21 0.36719469E-01 0.37538511E+03</pdfrwt>
<totfact> 0.27010151E+03</totfact>
</mgrwt>
</event>
<event>
 5    0  0.2159162E+000  0.4737702E+03  0.7546771E-02  0.1020861E+00
         21   -1    0    0  502  501  0.00000000000E+00  0.00000000000E+00  0.21245477521E+04  0.21245477521E+04  0.00000000000E+00 0. -1.
         21   -1    0    0  503  502 -0.00000000000E+00 -0.00000000000E+00 -0.57138922922E+03  0.57138922922E+03  0.00000000000E+00 0. -1.
         25    1    1    2    0    0  0.27637247514E+03  0.36956371380E+03  0.19571172713E+04  0.20146692278E+04  0.12500000000E+03 0.  0.
         21    1    1    2  503  504  0.51934556659E+02 -0.12877180225E+03 -0.74834380975E+02  0.15773255785E+03  0.00000000000E+00 0. -1.
         21    1    1    2  504  501 -0.32830703180E+03 -0.24079191155E+03 -0.32912436752E+03  0.52353519566E+03  0.00000000000E+00 0. -1.
<mgrwt>
<rscale>  4 0.47377017E+03</rscale>
<asrwt>0</asrwt>
<pdfrwt beam="1">  1       21 0.32685350E+00 0.47377017E+03</pdfrwt>
<pdfrwt beam="2">  1       21 0.87906036E-01 0.47377017E+03</pdfrwt>
<totfact> 0.19300711E+01</totfact>
</mgrwt>
</event>
