<event>
 5    0  0.4930573E+000  0.2031235E+03  0.7546771E-02  0.1147130E+00
          2   -1    0    0  502    0 -0.00000000000E+00  0.00000000000E+00  0.45375043634E+03  0.45375043634E+03  0.00000000000E+00 0. -1.
         21   -1    0    0  503  502  0.00000000000E+00 -0.00000000000E+00 -0.20747593363E+03  0.20747593363E+03  0.00000000000E+00 0. -1.
         25    1    1    2    0    0  0.14316119848E+03  0.14166237972E+03  0.21028308100E+03  0.31687116110E+03  0.12500000000E+03 0.  0.
         21    1    1    2  503  501 -0.41723038166E+02 -0.45921137417E+02 -0.12000310583E+03  0.13509370150E+03  0.00000000000E+00 0. -1.
          2    1    1    2  501    0 -0.10143816032E+03 -0.95741242302E+02  0.15599452754E+03  0.20926150738E+03  0.00000000000E+00 0. -1.
<mgrwt>
<rscale>  4 0.20312348E+03</rscale>
<asrwt>0</asrwt>
<pdfrwt beam="1">  1       21 0.31919374E-01 0.20312348E+03</pdfrwt>
<pdfrwt beam="2">  1        2 0.69807759E-01 0.20312348E+03</pdfrwt>
<totfact> 0.81674002E+03</totfact>
</mgrwt>
</event>
<event>
 5    0  0.4930573E+000  0.4559641E+03  0.7546771E-02  0.1025958E+00
          2   -1    0    0  502    0 -0.00000000000E+00  0.00000000000E+00  0.77274593670E+03  0.77274593670E+03  0.00000000000E+00 0. -1.
         21   -1    0    0  503  502  0.00000000000E+00 -0.00000000000E+00 -0.54929756574E+03  0.54929756574E+03  0.00000000000E+00 0. -1.
         25    1    1    2    0    0  0.15411446635E+03  0.31243149856E+03  0.35878909061E+03  0.51547970044E+03  0.12500000000E+03 0.  0.
         21    1    1    2  503  501 -0.28079019447E+03 -0.37035377633E+03 -0.32798340027E+03  0.56883931282E+03  0.00000000000E+00 0. -1.
          2    1    1    2  501    0  0.12667572813E+03  0.57922277778E+02  0.19264268062E+03  0.23772448918E+03  0.00000000000E+00 0. -1.
<mgrwt>
<rscale>  4 0.45596405E+03</rscale>
<asrwt>0</asrwt>
<pdfrwt beam="1">  1       21 0.84507317E-01 0.45596405E+03</pdfrwt>
<pdfrwt beam="2">  1        2 0.11888399E+00 0.45596405E+03</pdfrwt>
<totfact> 0.51021151E+02</totfact>
</mgrwt>
</event>
<event>
 5    0  0.4930573E+000  0.1888687E+03  0.7546771E-02  0.1159486E+00
          1   -1    0    0  502    0 -0.00000000000E+00  0.00000000000E+00  0.24123202481E+04  0.24123202481E+04  0.00000000000E+00 0. -1.
         21   -1    0    0  503  502  0.00000000000E+00 -0.00000000000E+00 -0.73573435539E+02  0.73573435539E+02  0.00000000000E+00 0.  1.
         25    1    1    2    0    0 -0.20696070047E+03  0.41102469753E+02  0.61042208375E+03  0.65784668798E+03  0.12500000000E+03 0.  0.
         21    1    1    2  503  501  0.77337724002E+02 -0.83129876916E+02  0.21214088640E+02  0.11550643942E+03  0.00000000000E+00 0.  1.
          1    1    1    2  501    0  0.12962297647E+03  0.42027407163E+02  0.17071106401E+04  0.17125405562E+04  0.00000000000E+00 0. -1.
<mgrwt>
<rscale>  4 0.18886869E+03</rscale>
<asrwt>0</asrwt>
<pdfrwt beam="1">  1       21 0.11318992E-01 0.18886869E+03</pdfrwt>
<pdfrwt beam="2">  1        1 0.37112613E+00 0.18886869E+03</pdfrwt>
<totfact> 0.13635823E+03</totfact>
</mgrwt>
</event>
<event>
 5    0  0.4930573E+000  0.2121203E+03  0.7546771E-02  0.1139898E+00
         21   -1    0    0  503  502  0.00000000000E+00  0.00000000000E+00  0.12076234933E+03  0.12076234933E+03  0.00000000000E+00 0.  1.
          2   -1    0    0  502    0 -0.00000000000E+00 -0.00000000000E+00 -0.85859152577E+03  0.85859152577E+03  0.00000000000E+00 0.  1.
         25    1    1    2    0    0 -0.15296364142E+03  0.13222485203E+03 -0.45652263421E+02  0.24205457287E+03  0.12500000000E+03 0.  0.
         21    1    1    2  503  501  0.54061097430E+02  0.41768276092E+01 -0.51295688650E+02  0.74641113458E+02  0.00000000000E+00 0.  1.
          2    1    1    2  501    0  0.98902543985E+02 -0.13640167964E+03 -0.64088122436E+03  0.66265818878E+03  0.00000000000E+00 0.  1.
<mgrwt>
<rscale>  4 0.21212034E+03</rscale>
<asrwt>0</asrwt>
<pdfrwt beam="1">  1       21 0.18578823E-01 0.21212034E+03</pdfrwt>
<pdfrwt beam="2">  1        2 0.13209100E+00 0.21212034E+03</pdfrwt>
<totfact> 0.10794506E+04</totfact>
</mgrwt>
</event>
<event>
 5    0  0.4930573E+000  0.2616092E+03  0.7546771E-02  0.1106180E+00
         21   -1    0    0  503  502  0.00000000000E+00  0.00000000000E+00  0.13608167149E+03  0.13608167149E+03  0.00000000000E+00 0. -1.
          2   -1    0    0  502    0 -0.00000000000E+00 -0.00000000000E+00 -0.61567665539E+03  0.61567665539E+03  0.00000000000E+00 0. -1.
         25    1    1    2    0    0  0.18807663665E+03  0.13206642032E+03 -0.57955827287E+02  0.26795193327E+03  0.12500000000E+03 0.  0.
         21    1    1    2  503  501 -0.35071391158E+02 -0.13992544585E+02 -0.34683802570E+02  0.51271433980E+02  0.00000000000E+00 0.  1.
          2    1    1    2  501    0 -0.15300524549E+03 -0.11807387573E+03 -0.38695535404E+03  0.43253495962E+03  0.00000000000E+00 0. -1.
<mgrwt>
<rscale>  4 0.26160918E+03</rscale>
<asrwt>0</asrwt>
<pdfrwt beam="1">  1       21 0.20935642E-01 0.26160918E+03</pdfrwt>
<pdfrwt beam="2">  1        2 0.94719485E-01 0.26160918E+03</pdfrwt>
<totfact> 0.12857115E+04</totfact>
</mgrwt>
</event>
<event>
 5    0  0.4930573E+000  0.2816083E+03  0.7546771E-02  0.1094814E+00
          1   -1    0    0  502    0 -0.00000000000E+00  0.00000000000E+00  0.34818624643E+04  0.34818624643E+04  0.00000000000E+00 0. -1.
         21   -1    0    0  503  502  0.00000000000E+00 -0.00000000000E+00 -0.12523700123E+03  0.12523700123E+03  0.00000000000E+00 0. -1.
         25    1    1    2    0    0  0.64608880346E+02 -0.21443322162E+03  0.11378491203E+03  0.28058496068E+03  0.12500000000E+03 0.  0.
         21    1    1    2  503  501  0.12779847403E+02 -0.27513725361E+02 -0.30683876753E+02  0.43148926702E+02  0.00000000000E+00 0. -1.
          1    1    1    2  501    0 -0.77388727749E+02  0.24194694698E+03  0.32735244278E+04  0.32833655781E+04  0.00000000000E+00 0. -1.
<mgrwt>
<rscale>  4 0.28160833E+03</rscale>
<asrwt>0</asrwt>
<pdfrwt beam="1">  1       21 0.19267234E-01 0.28160833E+03</pdfrwt>
<pdfrwt beam="2">  1        1 0.53567108E+00 0.28160833E+03</pdfrwt>
<totfact> 0.87062838E+01</totfact>
</mgrwt>
</event>
<event>
 5    0  0.4930573E+000  0.4505528E+03  0.7546771E-02  0.1027557E+00
          1   -1    0    0  502    0 -0.00000000000E+00  0.00000000000E+00  0.20896972906E+04  0.20896972906E+04  0.00000000000E+00 0. -1.
         21   -1    0    0  503  502  0.00000000000E+00 -0.00000000000E+00 -0.12372971481E+03  0.12372971481E+03  0.00000000000E+00 0. -1.
         25    1    1    2    0    0  0.31206735860E+03 -0.28453734263E+03  0.14235827231E+04  0.14901544568E+04  0.12500000000E+03 0.  0.
         21    1    1    2  503  501 -0.30793296960E+03  0.31080274854E+03  0.54216781324E+03  0.69668285467E+03  0.00000000000E+00 0. -1.
          1    1    1    2  501    0 -0.41343890028E+01 -0.26265405913E+02  0.21703950799E+00  0.26589693988E+02  0.00000000000E+00 0. -1.
<mgrwt>
<rscale>  4 0.45055279E+03</rscale>
<asrwt>0</asrwt>
<pdfrwt beam="1">  1       21 0.19035342E-01 0.45055279E+03</pdfrwt>
<pdfrwt beam="2">  1        1 0.32149186E+00 0.45055279E+03</pdfrwt>
<totfact> 0.76440143E+02</totfact>
</mgrwt>
</event>
<event>
 5    0  0.4930573E+000  0.2117822E+03  0.7546771E-02  0.1140162E+00
         -2   -1    0    0    0  501 -0.00000000000E+00  0.00000000000E+00  0.51232443288E+03  0.51232443288E+03  0.00000000000E+00 0. -1.
         21   -1    0    0  501  502  0.00000000000E+00 -0.00000000000E+00 -0.36853099450E+03  0.36853099450E+03  0.00000000000E+00 0.  1.
         25    1    1    2    0    0 -0.26613024454E+02  0.24941779594E+03 -0.23654885073E+03  0.36673948354E+03  0.12500000000E+03 0.  0.
         21    1    1    2  503  502  0.21911547590E+02 -0.82959482965E+02 -0.13179425777E+02  0.86810650242E+02  0.00000000000E+00 0. -1.
         -2    1    1    2    0  503  0.47014768640E+01 -0.16645831298E+03  0.39352171489E+03  0.42730529360E+03  0.00000000000E+00 0. -1.
<mgrwt>
<rscale>  4 0.21178221E+03</rscale>
<asrwt>0</asrwt>
<pdfrwt beam="1">  1       21 0.56697076E-01 0.21178221E+03</pdfrwt>
<pdfrwt beam="2">  1       -2 0.78819144E-01 0.21178221E+03</pdfrwt>
<totfact> 0.34904962E+02</totfact>
</mgrwt>
</event>
<event>
 5    0  0.4930573E+000  0.2646718E+03  0.7546771E-02  0.1104368E+00
          1   -1    0    0  502    0 -0.00000000000E+00  0.00000000000E+00  0.50118245566E+03  0.50118245566E+03  0.00000000000E+00 0.  1.
         21   -1    0    0  503  502  0.00000000000E+00 -0.00000000000E+00 -0.13850377221E+03  0.13850377221E+03  0.00000000000E+00 0.  1.
         25    1    1    2    0    0 -0.21285236946E+03 -0.57209196556E+02  0.14858322961E+03  0.29373627539E+03  0.12500000000E+03 0.  0.
         21    1    1    2  503  501 -0.18761156643E+02 -0.17786850841E+02  0.82494060223E+01  0.27136797180E+02  0.00000000000E+00 0. -1.
          1    1    1    2  501    0  0.23161352610E+03  0.74996047397E+02  0.20584604781E+03  0.31881315531E+03  0.00000000000E+00 0.  1.
<mgrwt>
<rscale>  4 0.26467176E+03</rscale>
<asrwt>0</asrwt>
<pdfrwt beam="1">  1       21 0.21308273E-01 0.26467176E+03</pdfrwt>
<pdfrwt beam="2">  1        1 0.77104993E-01 0.26467176E+03</pdfrwt>
<totfact> 0.10044203E+04</totfact>
</mgrwt>
</event>
<event>
 5    0  0.4930573E+000  0.3203743E+03  0.7546771E-02  0.1075477E+00
         21   -1    0    0  503  502  0.00000000000E+00  0.00000000000E+00  0.66681976140E+03  0.66681976140E+03  0.00000000000E+00 0.  1.
          1   -1    0    0  502    0 -0.00000000000E+00 -0.00000000000E+00 -0.28111632061E+04  0.28111632061E+04  0.00000000000E+00 0.  1.
         25    1    1    2    0    0  0.77020777910E+02 -0.27704295077E+03  0.53684283429E+03  0.62169946560E+03  0.12500000000E+03 0.  0.
         21    1    1    2  503  501  0.25643151822E+02  0.37990884163E+00  0.77616117755E+02  0.81743362430E+02  0.00000000000E+00 0. -1.
          1    1    1    2  501    0 -0.10266392973E+03  0.27666304193E+03 -0.27588023968E+04  0.27745401395E+04  0.00000000000E+00 0.  1.
<mgrwt>
<rscale>  4 0.32037430E+03</rscale>
<asrwt>0</asrwt>
<pdfrwt beam="1">  1       21 0.10258765E+00 0.32037430E+03</pdfrwt>
<pdfrwt beam="2">  1        1 0.43248666E+00 0.32037430E+03</pdfrwt>
<totfact> 0.77009895E+00</totfact>
</mgrwt>
</event>
<event>
 5    0  0.4930573E+000  0.2523172E+03  0.7546771E-02  0.1111849E+00
         21   -1    0    0  503  502  0.00000000000E+00  0.00000000000E+00  0.10540078000E+03  0.10540078000E+03  0.00000000000E+00 0. -1.
          2   -1    0    0  502    0 -0.00000000000E+00 -0.00000000000E+00 -0.11795149292E+04  0.11795149292E+04  0.00000000000E+00 0. -1.
         25    1    1    2    0    0 -0.26503178599E+03  0.10730762575E+02 -0.21197183657E+03  0.36182047530E+03  0.12500000000E+03 0.  0.
         21    1    1    2  503  501  0.54118942732E+02 -0.21986680239E+02 -0.32206297561E+02  0.66704720020E+02  0.00000000000E+00 0. -1.
          2    1    1    2  501    0  0.21091284326E+03  0.11255917664E+02 -0.82993601511E+03  0.85639051391E+03  0.00000000000E+00 0. -1.
<mgrwt>
<rscale>  4 0.25231719E+03</rscale>
<asrwt>0</asrwt>
<pdfrwt beam="1">  1       21 0.16215504E-01 0.25231719E+03</pdfrwt>
<pdfrwt beam="2">  1        2 0.18146385E+00 0.25231719E+03</pdfrwt>
<totfact> 0.87559404E+03</totfact>
</mgrwt>
</event>
<event>
 5    0  0.4930573E+000  0.2003487E+03  0.7546771E-02  0.1149445E+00
          2   -1    0    0  502    0 -0.00000000000E+00  0.00000000000E+00  0.22591942256E+03  0.22591942256E+03  0.00000000000E+00 0.  1.
         21   -1    0    0  503  502  0.00000000000E+00 -0.00000000000E+00 -0.13047938029E+04  0.13047938029E+04  0.00000000000E+00 0.  1.
         25    1    1    2    0    0  0.99527671988E+02  0.23308121960E+03 -0.78602668483E+03  0.83528172594E+03  0.12500000000E+03 0.  0.
         21    1    1    2  503  501 -0.10201495928E+03 -0.79413467829E+02 -0.45441227625E+03  0.47244477730E+03  0.00000000000E+00 0.  1.
          2    1    1    2  501    0  0.24872872890E+01 -0.15366775177E+03  0.16156458075E+03  0.22298672222E+03  0.00000000000E+00 0.  1.
<mgrwt>
<rscale>  4 0.20034866E+03</rscale>
<asrwt>0</asrwt>
<pdfrwt beam="1">  1       21 0.20073751E+00 0.20034866E+03</pdfrwt>
<pdfrwt beam="2">  1        2 0.34756835E-01 0.20034866E+03</pdfrwt>
<totfact> 0.24280769E+02</totfact>
</mgrwt>
</event>
<event>
 5    0  0.4930573E+000  0.6258331E+03  0.7546771E-02  0.9853214E-01
          2   -1    0    0  502    0 -0.00000000000E+00  0.00000000000E+00  0.80090577711E+03  0.80090577711E+03  0.00000000000E+00 0. -1.
         21   -1    0    0  503  502  0.00000000000E+00 -0.00000000000E+00 -0.78946997652E+03  0.78946997652E+03  0.00000000000E+00 0. -1.
         25    1    1    2    0    0 -0.64837330240E+03 -0.80110601321E+02 -0.39632591350E+03  0.77427700303E+03  0.12500000000E+03 0.  0.
         21    1    1    2  503  501  0.61789215383E+02 -0.60330177124E+02 -0.29040632067E+01  0.86406429116E+02  0.00000000000E+00 0.  1.
          2    1    1    2  501    0  0.58658408701E+03  0.14044077845E+03  0.41066577730E+03  0.72969232148E+03  0.00000000000E+00 0. -1.
<mgrwt>
<rscale>  4 0.62583307E+03</rscale>
<asrwt>0</asrwt>
<pdfrwt beam="1">  1       21 0.12145692E+00 0.62583307E+03</pdfrwt>
<pdfrwt beam="2">  1        2 0.12321627E+00 0.62583307E+03</pdfrwt>
<totfact> 0.19201730E+02</totfact>
</mgrwt>
</event>
<event>
 5    0  0.4930573E+000  0.2448608E+03  0.7546771E-02  0.1116596E+00
         21   -1    0    0  503  502  0.00000000000E+00  0.00000000000E+00  0.24742884056E+03  0.24742884056E+03  0.00000000000E+00 0. -1.
          2   -1    0    0  502    0 -0.00000000000E+00 -0.00000000000E+00 -0.15003979045E+04  0.15003979045E+04  0.00000000000E+00 0. -1.
         25    1    1    2    0    0 -0.23687400289E+03 -0.80935603744E+02 -0.17751662218E+02  0.28035689167E+03  0.12500000000E+03 0.  0.
         21    1    1    2  503  501  0.30633932630E+02  0.51336429985E+02  0.99776340774E+02  0.11631502504E+03  0.00000000000E+00 0. -1.
          2    1    1    2  501    0  0.20624007026E+03  0.29599173759E+02 -0.13349937425E+04  0.13511548283E+04  0.00000000000E+00 0. -1.
<mgrwt>
<rscale>  4 0.24486082E+03</rscale>
<asrwt>0</asrwt>
<pdfrwt beam="1">  1       21 0.38065975E-01 0.24486082E+03</pdfrwt>
<pdfrwt beam="2">  1        2 0.23083045E+00 0.24486082E+03</pdfrwt>
<totfact> 0.11328201E+03</totfact>
</mgrwt>
</event>
<event>
 5    0  0.4930573E+000  0.3124003E+03  0.7546771E-02  0.1079201E+00
          1   -1    0    0  502    0 -0.00000000000E+00  0.00000000000E+00  0.25281779163E+04  0.25281779163E+04  0.00000000000E+00 0. -1.
         21   -1    0    0  503  502  0.00000000000E+00 -0.00000000000E+00 -0.58371753476E+03  0.58371753476E+03  0.00000000000E+00 0. -1.
         25    1    1    2    0    0 -0.34244747323E+03 -0.80172196509E+02  0.33191809422E+03  0.49949221644E+03  0.12500000000E+03 0.  0.
         21    1    1    2  503  501  0.66042741740E+02  0.40617298224E+02 -0.48762769998E+03  0.49375315943E+03  0.00000000000E+00 0. -1.
          1    1    1    2  501    0  0.27640473149E+03  0.39554898285E+02  0.21001699873E+04  0.21186500752E+04  0.00000000000E+00 0. -1.
<mgrwt>
<rscale>  4 0.31240029E+03</rscale>
<asrwt>0</asrwt>
<pdfrwt beam="1">  1       21 0.89802698E-01 0.31240029E+03</pdfrwt>
<pdfrwt beam="2">  1        1 0.38895045E+00 0.31240029E+03</pdfrwt>
<totfact> 0.16548096E+01</totfact>
</mgrwt>
</event>
<event>
 5    0  0.4930573E+000  0.2962881E+03  0.7546771E-02  0.1087111E+00
          1   -1    0    0  502    0 -0.00000000000E+00  0.00000000000E+00  0.21197913214E+04  0.21197913214E+04  0.00000000000E+00 0. -1.
         21   -1    0    0  503  502  0.00000000000E+00 -0.00000000000E+00 -0.75067296726E+03  0.75067296726E+03  0.00000000000E+00 0.  1.
         25    1    1    2    0    0  0.96768905941E+02 -0.23070940566E+03 -0.61728808905E+03  0.67768771267E+03  0.12500000000E+03 0.  0.
         21    1    1    2  503  501  0.77264600032E+02  0.25548113608E+02 -0.76923623737E+02  0.11198110741E+03  0.00000000000E+00 0.  1.
          1    1    1    2  501    0 -0.17403350597E+03  0.20516129205E+03  0.20633300670E+04  0.20807954686E+04  0.00000000000E+00 0. -1.
<mgrwt>
<rscale>  4 0.29628805E+03</rscale>
<asrwt>0</asrwt>
<pdfrwt beam="1">  1       21 0.11548815E+00 0.29628805E+03</pdfrwt>
<pdfrwt beam="2">  1        1 0.32612174E+00 0.29628805E+03</pdfrwt>
<totfact> 0.16982192E+01</totfact>
</mgrwt>
</event>
<event>
 5    0  0.4930573E+000  0.2491292E+03  0.7546771E-02  0.1113856E+00
         21   -1    0    0  501  502  0.00000000000E+00  0.00000000000E+00  0.36388797961E+03  0.36388797961E+03  0.00000000000E+00 0. -1.
         -1   -1    0    0    0  501 -0.00000000000E+00 -0.00000000000E+00 -0.48121413068E+03  0.48121413068E+03  0.00000000000E+00 0. -1.
         25    1    1    2    0    0  0.22478673371E+03 -0.24118706479E+02  0.25580730558E+03  0.36355627521E+03  0.12500000000E+03 0.  0.
         21    1    1    2  503  502 -0.13876222030E+02 -0.15657751787E+02  0.22946170243E+02  0.31052237563E+02  0.00000000000E+00 0. -1.
         -1    1    1    2    0  503 -0.21091051168E+03  0.39776458266E+02 -0.39607962689E+03  0.45049359752E+03  0.00000000000E+00 0. -1.
<mgrwt>
<rscale>  4 0.24912924E+03</rscale>
<asrwt>0</asrwt>
<pdfrwt beam="1">  1       21 0.55982766E-01 0.24912924E+03</pdfrwt>
<pdfrwt beam="2">  1       -1 0.74032943E-01 0.24912924E+03</pdfrwt>
<totfact> 0.52303925E+02</totfact>
</mgrwt>
</event>
<event>
 5    0  0.4930573E+000  0.1912614E+03  0.7546771E-02  0.1157328E+00
         21   -1    0    0  503  502  0.00000000000E+00  0.00000000000E+00  0.13492492455E+03  0.13492492455E+03  0.00000000000E+00 0.  1.
          1   -1    0    0  502    0 -0.00000000000E+00 -0.00000000000E+00 -0.97612725180E+03  0.97612725180E+03  0.00000000000E+00 0.  1.
         25    1    1    2    0    0  0.21218447731E+03  0.81545963403E+02 -0.11213636036E+03  0.28261556906E+03  0.12500000000E+03 0.  0.
         21    1    1    2  503  501 -0.92887599432E+02 -0.11007200728E+02 -0.76732060879E+01  0.93851705833E+02  0.00000000000E+00 0.  1.
          1    1    1    2  501    0 -0.11929687788E+03 -0.70538762675E+02 -0.72139276080E+03  0.73458490145E+03  0.00000000000E+00 0.  1.
<mgrwt>
<rscale>  4 0.19126144E+03</rscale>
<asrwt>0</asrwt>
<pdfrwt beam="1">  1       21 0.20757680E-01 0.19126144E+03</pdfrwt>
<pdfrwt beam="2">  1        1 0.15017343E+00 0.19126144E+03</pdfrwt>
<totfact> 0.40342408E+03</totfact>
</mgrwt>
</event>
<event>
 5    0  0.4930573E+000  0.3856565E+03  0.7546771E-02  0.1048863E+00
         21   -1    0    0  503  502  0.00000000000E+00  0.00000000000E+00  0.33168446591E+03  0.33168446591E+03  0.00000000000E+00 0. -1.
          2   -1    0    0  502    0 -0.00000000000E+00 -0.00000000000E+00 -0.20476813880E+04  0.20476813880E+04  0.00000000000E+00 0. -1.
         25    1    1    2    0    0  0.32986997949E+03 -0.21768508165E+02  0.18163778801E+03  0.39737307074E+03  0.12500000000E+03 0.  0.
         21    1    1    2  503  501  0.29948846333E+02 -0.50987125980E+02 -0.11215759992E+02  0.60186490881E+02  0.00000000000E+00 0. -1.
          2    1    1    2  501    0 -0.35981882583E+03  0.72755634146E+02 -0.18864189501E+04  0.19218062923E+04  0.00000000000E+00 0. -1.
<mgrwt>
<rscale>  4 0.38565646E+03</rscale>
<asrwt>0</asrwt>
<pdfrwt beam="1">  1       21 0.51028379E-01 0.38565646E+03</pdfrwt>
<pdfrwt beam="2">  1        2 0.31502791E+00 0.38565646E+03</pdfrwt>
<totfact> 0.29638972E+02</totfact>
</mgrwt>
</event>
<event>
 5    0  0.4930573E+000  0.2788875E+03  0.7546771E-02  0.1096298E+00
         21   -1    0    0  503  502  0.00000000000E+00  0.00000000000E+00  0.42378080767E+03  0.42378080767E+03  0.00000000000E+00 0. -1.
          2   -1    0    0  502    0 -0.00000000000E+00 -0.00000000000E+00 -0.13721072008E+04  0.13721072008E+04  0.00000000000E+00 0.  1.
         25    1    1    2    0    0 -0.21656258990E+03 -0.60152717397E+02  0.34544183871E+03  0.43066549512E+03  0.12500000000E+03 0.  0.
         21    1    1    2  503  501 -0.28462518069E+02  0.10171325401E+02  0.14319596620E+02  0.33445801569E+02  0.00000000000E+00 0.  1.
          2    1    1    2  501    0  0.24502510797E+03  0.49981391996E+02 -0.13080878284E+04  0.13317767118E+04  0.00000000000E+00 0.  1.
<mgrwt>
<rscale>  4 0.27888750E+03</rscale>
<asrwt>0</asrwt>
<pdfrwt beam="1">  1       21 0.65197046E-01 0.27888750E+03</pdfrwt>
<pdfrwt beam="2">  1        2 0.21109342E+00 0.27888750E+03</pdfrwt>
<totfact> 0.42116481E+02</totfact>
</mgrwt>
</event>
<event>
 5    0  0.4930573E+000  0.2688904E+03  0.7546771E-02  0.1101916E+00
         21   -1    0    0  503  502  0.00000000000E+00  0.00000000000E+00  0.56831818122E+03  0.56831818122E+03  0.00000000000E+00 0. -1.
          1   -1    0    0  502    0 -0.00000000000E+00 -0.00000000000E+00 -0.13408622469E+04  0.13408622469E+04  0.00000000000E+00 0. -1.
         25    1    1    2    0    0 -0.32636166752E+03 -0.11416575047E+03  0.28517824911E+03  0.46529280069E+03  0.12500000000E+03 0.  0.
         21    1    1    2  503  501  0.15200527400E+03 -0.44280057779E+02  0.14718061618E+03  0.21616766784E+03  0.00000000000E+00 0. -1.
          1    1    1    2  501    0  0.17435639352E+03  0.15844580825E+03 -0.12049029309E+04  0.12277199595E+04  0.00000000000E+00 0. -1.
<mgrwt>
<rscale>  4 0.26889039E+03</rscale>
<asrwt>0</asrwt>
<pdfrwt beam="1">  1       21 0.87433567E-01 0.26889039E+03</pdfrwt>
<pdfrwt beam="2">  1        1 0.20628650E+00 0.26889039E+03</pdfrwt>
<totfact> 0.10981791E+02</totfact>
</mgrwt>
</event>
<event>
 5    0  0.4930573E+000  0.2118495E+03  0.7546771E-02  0.1140110E+00
         21   -1    0    0  503  502  0.00000000000E+00  0.00000000000E+00  0.18515193963E+03  0.18515193963E+03  0.00000000000E+00 0. -1.
          2   -1    0    0  502    0 -0.00000000000E+00 -0.00000000000E+00 -0.98637569608E+03  0.98637569608E+03  0.00000000000E+00 0. -1.
         25    1    1    2    0    0  0.15317283838E+03 -0.23038318680E+03 -0.17814217628E+03  0.35199142909E+03  0.12500000000E+03 0.  0.
         21    1    1    2  503  501 -0.63009279393E+02  0.98572329854E+02  0.50396228129E+02  0.12738309665E+03  0.00000000000E+00 0. -1.
          2    1    1    2  501    0 -0.90163558985E+02  0.13181085695E+03 -0.67347780830E+03  0.69215310997E+03  0.00000000000E+00 0. -1.
<mgrwt>
<rscale>  4 0.21184947E+03</rscale>
<asrwt>0</asrwt>
<pdfrwt beam="1">  1       21 0.28484914E-01 0.21184947E+03</pdfrwt>
<pdfrwt beam="2">  1        2 0.15175011E+00 0.21184947E+03</pdfrwt>
<totfact> 0.39790990E+03</totfact>
</mgrwt>
</event>
<event>
 5    0  0.4930573E+000  0.3584477E+03  0.7546771E-02  0.1059200E+00
         21   -1    0    0  503  502  0.00000000000E+00  0.00000000000E+00  0.20998914901E+03  0.20998914901E+03  0.00000000000E+00 0. -1.
          2   -1    0    0  502    0 -0.00000000000E+00 -0.00000000000E+00 -0.95273521898E+03  0.95273521898E+03  0.00000000000E+00 0.  1.
         25    1    1    2    0    0 -0.36522507834E+03 -0.41387187566E+02 -0.21826125737E+03  0.44538212090E+03  0.12500000000E+03 0.  0.
         21    1    1    2  503  501  0.41680712846E+02  0.22252505083E+02  0.42959593117E+02  0.63859082726E+02  0.00000000000E+00 0.  1.
          2    1    1    2  501    0  0.32354436550E+03  0.19134682483E+02 -0.56744440571E+03  0.65348316435E+03  0.00000000000E+00 0.  1.
<mgrwt>
<rscale>  4 0.35844767E+03</rscale>
<asrwt>0</asrwt>
<pdfrwt beam="1">  1       21 0.32306023E-01 0.35844767E+03</pdfrwt>
<pdfrwt beam="2">  1        2 0.14657465E+00 0.35844767E+03</pdfrwt>
<totfact> 0.31150562E+03</totfact>
</mgrwt>
</event>
<event>
 5    0  0.4930573E+000  0.3104800E+03  0.7546771E-02  0.1080116E+00
         21   -1    0    0  503  502  0.00000000000E+00  0.00000000000E+00  0.32761344641E+03  0.32761344641E+03  0.00000000000E+00 0. -1.
          2   -1    0    0  502    0 -0.00000000000E+00 -0.00000000000E+00 -0.89196364961E+03  0.89196364961E+03  0.00000000000E+00 0. -1.
         25    1    1    2    0    0  0.36998640749E+03 -0.89719144936E+02 -0.10348704907E+03  0.41385267429E+03  0.12500000000E+03 0.  0.
         21    1    1    2  503  501 -0.22976348272E+03  0.97992339906E+02  0.67712828064E+02  0.25880259612E+03  0.00000000000E+00 0. -1.
          2    1    1    2  501    0 -0.14022292477E+03 -0.82731949698E+01 -0.52857598219E+03  0.54692182562E+03  0.00000000000E+00 0. -1.
<mgrwt>
<rscale>  4 0.31047999E+03</rscale>
<asrwt>0</asrwt>
<pdfrwt beam="1">  1       21 0.50402069E-01 0.31047999E+03</pdfrwt>
<pdfrwt beam="2">  1        2 0.13722518E+00 0.31047999E+03</pdfrwt>
<totfact> 0.13889189E+03</totfact>
</mgrwt>
</event>
<event>
 5    0  0.4930573E+000  0.3925516E+03  0.7546771E-02  0.1046390E+00
          1   -1    0    0  502    0 -0.00000000000E+00  0.00000000000E+00  0.26648100704E+04  0.26648100704E+04  0.00000000000E+00 0.  1.
         21   -1    0    0  503  502  0.00000000000E+00 -0.00000000000E+00 -0.88676702889E+02  0.88676702889E+02  0.00000000000E+00 0. -1.
         25    1    1    2    0    0 -0.79247131129E+02  0.34945948660E+03  0.55778831818E+03  0.67465164972E+03  0.12500000000E+03 0.  0.
         21    1    1    2  503  501  0.19697078596E+02  0.22202766498E+02  0.43850262994E+01  0.30002769889E+02  0.00000000000E+00 0.  1.
          1    1    1    2  501    0  0.59550052533E+02 -0.37166225310E+03  0.20139600230E+04  0.20488323537E+04  0.00000000000E+00 0.  1.
<mgrwt>
<rscale>  4 0.39255159E+03</rscale>
<asrwt>0</asrwt>
<pdfrwt beam="1">  1       21 0.13642572E-01 0.39255159E+03</pdfrwt>
<pdfrwt beam="2">  1        1 0.40997072E+00 0.39255159E+03</pdfrwt>
<totfact> 0.59786560E+02</totfact>
</mgrwt>
</event>
<event>
 5    0  0.4930573E+000  0.2928226E+03  0.7546771E-02  0.1088885E+00
          2   -1    0    0  502    0 -0.00000000000E+00  0.00000000000E+00  0.70702684004E+03  0.70702684004E+03  0.00000000000E+00 0. -1.
         21   -1    0    0  503  502  0.00000000000E+00 -0.00000000000E+00 -0.56894161841E+03  0.56894161841E+03  0.00000000000E+00 0.  1.
         25    1    1    2    0    0 -0.19807889834E+03  0.34821563096E+03  0.37517856695E+03  0.56291503152E+03  0.12500000000E+03 0.  0.
         21    1    1    2  503  501  0.58632598073E+02 -0.24836670485E+03 -0.40132761817E+03  0.47559190357E+03  0.00000000000E+00 0.  1.
          2    1    1    2  501    0  0.13944630027E+03 -0.99848926106E+02  0.16423427285E+03  0.23746152337E+03  0.00000000000E+00 0. -1.
<mgrwt>
<rscale>  4 0.29282260E+03</rscale>
<asrwt>0</asrwt>
<pdfrwt beam="1">  1       21 0.87529480E-01 0.29282260E+03</pdfrwt>
<pdfrwt beam="2">  1        2 0.10877336E+00 0.29282260E+03</pdfrwt>
<totfact> 0.55533461E+02</totfact>
</mgrwt>
</event>
<event>
 5    0  0.4930573E+000  0.2177858E+03  0.7546771E-02  0.1135545E+00
         21   -1    0    0  503  502  0.00000000000E+00  0.00000000000E+00  0.36443722172E+03  0.36443722172E+03  0.00000000000E+00 0. -1.
          1   -1    0    0  502    0 -0.00000000000E+00 -0.00000000000E+00 -0.23611086698E+03  0.23611086698E+03  0.00000000000E+00 0. -1.
         25    1    1    2    0    0  0.31533849478E+02  0.20488899271E+03 -0.39065661837E+02  0.24520401492E+03  0.12500000000E+03 0.  0.
         21    1    1    2  503  501 -0.72577536149E+01 -0.47908131365E+02  0.18892916936E+03  0.19504382860E+03  0.00000000000E+00 0. -1.
          1    1    1    2  501    0 -0.24276095863E+02 -0.15698086134E+03 -0.21537152781E+02  0.16030024519E+03  0.00000000000E+00 0. -1.
<mgrwt>
<rscale>  4 0.21778581E+03</rscale>
<asrwt>0</asrwt>
<pdfrwt beam="1">  1       21 0.56067265E-01 0.21778581E+03</pdfrwt>
<pdfrwt beam="2">  1        1 0.36324749E-01 0.21778581E+03</pdfrwt>
<totfact> 0.38386209E+03</totfact>
</mgrwt>
</event>
<event>
 5    0  0.4930573E+000  0.3756746E+03  0.7546771E-02  0.1052544E+00
         -1   -1    0    0    0  501 -0.00000000000E+00  0.00000000000E+00  0.13053016614E+04  0.13053016614E+04  0.00000000000E+00 0.  1.
         21   -1    0    0  501  502  0.00000000000E+00 -0.00000000000E+00 -0.21499046261E+03  0.21499046261E+03  0.00000000000E+00 0.  1.
         25    1    1    2    0    0  0.28119390874E+03  0.21536756269E+03  0.30459669070E+03  0.48358799133E+03  0.12500000000E+03 0.  0.
         21    1    1    2  503  502 -0.58084494037E+02  0.63692697073E+02 -0.68937708002E+02  0.11037651785E+03  0.00000000000E+00 0.  1.
         -1    1    1    2    0  503 -0.22310941471E+03 -0.27906025976E+03  0.85465221609E+03  0.92632761482E+03  0.00000000000E+00 0.  1.
<mgrwt>
<rscale>  4 0.37567464E+03</rscale>
<asrwt>0</asrwt>
<pdfrwt beam="1">  1       21 0.33075457E-01 0.37567464E+03</pdfrwt>
<pdfrwt beam="2">  1       -1 0.20081563E+00 0.37567464E+03</pdfrwt>
<totfact> 0.12720412E+02</totfact>
</mgrwt>
</event>
<event>
 5    0  0.4930573E+000  0.2230027E+03  0.7546771E-02  0.1131664E+00
          2   -1    0    0  502    0 -0.00000000000E+00  0.00000000000E+00  0.83608675918E+03  0.83608675918E+03  0.00000000000E+00 0. -1.
         21   -1    0    0  503  502  0.00000000000E+00 -0.00000000000E+00 -0.12661277705E+03  0.12661277705E+03  0.00000000000E+00 0. -1.
         25    1    1    2    0    0 -0.24942348353E+03 -0.10131193302E+03  0.21497964984E+03  0.36649342662E+03  0.12500000000E+03 0.  0.
         21    1    1    2  503  501  0.14791982184E+03  0.31273062076E+01  0.10369338170E+03  0.18067199879E+03  0.00000000000E+00 0. -1.
          2    1    1    2  501    0  0.10150366169E+03  0.98184626808E+02  0.39080095059E+03  0.41553411083E+03  0.00000000000E+00 0. -1.
<mgrwt>
<rscale>  4 0.22300271E+03</rscale>
<asrwt>0</asrwt>
<pdfrwt beam="1">  1       21 0.19478889E-01 0.22300271E+03</pdfrwt>
<pdfrwt beam="2">  1        2 0.12862873E+00 0.22300271E+03</pdfrwt>
<totfact> 0.10200212E+04</totfact>
</mgrwt>
</event>
<event>
 5    0  0.4930573E+000  0.2388233E+03  0.7546771E-02  0.1120579E+00
         21   -1    0    0  503  502  0.00000000000E+00  0.00000000000E+00  0.31557546435E+02  0.31557546435E+02  0.00000000000E+00 0.  1.
          1   -1    0    0  502    0 -0.00000000000E+00 -0.00000000000E+00 -0.34657033932E+04  0.34657033932E+04  0.00000000000E+00 0.  1.
         25    1    1    2    0    0 -0.14451133619E+03  0.15834505310E+03 -0.24789203826E+04  0.24913104875E+04  0.12500000000E+03 0.  0.
         21    1    1    2  503  501 -0.10006877188E+02 -0.48639210558E+02 -0.23119631893E+02  0.54776160633E+02  0.00000000000E+00 0.  1.
          1    1    1    2  501    0  0.15451821338E+03 -0.10970584254E+03 -0.93210583226E+03  0.95117429144E+03  0.00000000000E+00 0.  1.
<mgrwt>
<rscale>  4 0.23882325E+03</rscale>
<asrwt>0</asrwt>
<pdfrwt beam="1">  1       21 0.48550069E-02 0.23882325E+03</pdfrwt>
<pdfrwt beam="2">  1        1 0.53318517E+00 0.23882325E+03</pdfrwt>
<totfact> 0.10686570E+03</totfact>
</mgrwt>
</event>
<event>
 5    0  0.4930573E+000  0.2886390E+03  0.7546771E-02  0.1091062E+00
          2   -1    0    0  502    0 -0.00000000000E+00  0.00000000000E+00  0.23202489273E+04  0.23202489273E+04  0.00000000000E+00 0.  1.
         21   -1    0    0  503  502  0.00000000000E+00 -0.00000000000E+00 -0.36952561871E+03  0.36952561871E+03  0.00000000000E+00 0.  1.
         25    1    1    2    0    0 -0.14314976682E+03  0.19350412986E+03  0.55147357765E+03  0.61455985132E+03  0.12500000000E+03 0.  0.
         21    1    1    2  503  501 -0.19463780518E+02  0.17620228341E+02 -0.32723381328E+03  0.32828536329E+03  0.00000000000E+00 0.  1.
          2    1    1    2  501    0  0.16261354734E+03 -0.21112435820E+03  0.17264835442E+04  0.17469293314E+04  0.00000000000E+00 0.  1.
<mgrwt>
<rscale>  4 0.28863899E+03</rscale>
<asrwt>0</asrwt>
<pdfrwt beam="1">  1       21 0.56850097E-01 0.28863899E+03</pdfrwt>
<pdfrwt beam="2">  1        2 0.35696136E+00 0.28863899E+03</pdfrwt>
<totfact> 0.17664049E+02</totfact>
</mgrwt>
</event>
<event>
 5    0  0.4930573E+000  0.2509426E+03  0.7546771E-02  0.1112711E+00
          1   -1    0    0  502    0 -0.00000000000E+00  0.00000000000E+00  0.25501881220E+04  0.25501881220E+04  0.00000000000E+00 0.  1.
         21   -1    0    0  503  502  0.00000000000E+00 -0.00000000000E+00 -0.22616768255E+03  0.22616768255E+03  0.00000000000E+00 0. -1.
         25    1    1    2    0    0 -0.10803883211E+03 -0.27570566765E+03 -0.55492976950E+02  0.32617552776E+03  0.12500000000E+03 0.  0.
         21    1    1    2  503  501  0.52148166260E+02  0.67466492516E+02  0.29399952020E+02  0.90197095494E+02  0.00000000000E+00 0. -1.
          1    1    1    2  501    0  0.55890665852E+02  0.20823917513E+03  0.23501134644E+04  0.23599831813E+04  0.00000000000E+00 0.  1.
<mgrwt>
<rscale>  4 0.25094256E+03</rscale>
<asrwt>0</asrwt>
<pdfrwt beam="1">  1       21 0.34795030E-01 0.25094256E+03</pdfrwt>
<pdfrwt beam="2">  1        1 0.39233661E+00 0.25094256E+03</pdfrwt>
<totfact> 0.12857167E+02</totfact>
</mgrwt>
</event>
<event>
 5    0  0.4930573E+000  0.2628727E+03  0.7546771E-02  0.1105429E+00
         -1   -1    0    0    0  501 -0.00000000000E+00  0.00000000000E+00  0.88306217320E+03  0.88306217320E+03  0.00000000000E+00 0. -1.
         21   -1    0    0  501  502  0.00000000000E+00 -0.00000000000E+00 -0.97242948064E+02  0.97242948064E+02  0.00000000000E+00 0. -1.
         25    1    1    2    0    0 -0.12458655187E+03 -0.22689898699E+03  0.36351579270E+03  0.46343682498E+03  0.12500000000E+03 0.  0.
         21    1    1    2  503  502 -0.15280718307E+02  0.60529017057E+02  0.32061389133E+02  0.70179733050E+02  0.00000000000E+00 0. -1.
         -1    1    1    2    0  503  0.13986727018E+03  0.16636996994E+03  0.39024204331E+03  0.44668856324E+03  0.00000000000E+00 0. -1.
<mgrwt>
<rscale>  4 0.26287266E+03</rscale>
<asrwt>0</asrwt>
<pdfrwt beam="1">  1       21 0.14960454E-01 0.26287266E+03</pdfrwt>
<pdfrwt beam="2">  1       -1 0.13585571E+00 0.26287266E+03</pdfrwt>
<totfact> 0.17796584E+03</totfact>
</mgrwt>
</event>
<event>
 5    0  0.4930573E+000  0.6381581E+03  0.7546771E-02  0.9829257E-01
         21   -1    0    0  503  502  0.00000000000E+00  0.00000000000E+00  0.37058306925E+03  0.37058306925E+03  0.00000000000E+00 0.  1.
          2   -1    0    0  502    0 -0.00000000000E+00 -0.00000000000E+00 -0.20897075812E+04  0.20897075812E+04  0.00000000000E+00 0.  1.
         25    1    1    2    0    0  0.54177037730E+03 -0.35763348563E+03 -0.28658276571E+03  0.72053558785E+03  0.12500000000E+03 0.  0.
         21    1    1    2  503  501 -0.28144533314E+02  0.11659613355E+02  0.90571800994E+02  0.95557901161E+02  0.00000000000E+00 0.  1.
          2    1    1    2  501    0 -0.51362584398E+03  0.34597387227E+03 -0.15231135472E+04  0.16441971614E+04  0.00000000000E+00 0.  1.
<mgrwt>
<rscale>  4 0.63815813E+03</rscale>
<asrwt>0</asrwt>
<pdfrwt beam="1">  1       21 0.57012780E-01 0.63815813E+03</pdfrwt>
<pdfrwt beam="2">  1        2 0.32149347E+00 0.63815813E+03</pdfrwt>
<totfact> 0.20411468E+02</totfact>
</mgrwt>
</event>
<event>
 5    0  0.4930573E+000  0.2669769E+03  0.7546771E-02  0.1103022E+00
         21   -1    0    0  501  502  0.00000000000E+00  0.00000000000E+00  0.16570209278E+03  0.16570209278E+03  0.00000000000E+00 0. -1.
         -4   -1    0    0    0  501 -0.00000000000E+00 -0.00000000000E+00 -0.83393493333E+03  0.83393493333E+03  0.00000000000E+00 0.  1.
         25    1    1    2    0    0 -0.22203622917E+03  0.57951480938E+02 -0.27640374499E+02  0.26276881762E+03  0.12500000000E+03 0.  0.
         21    1    1    2  503  502 -0.11505037960E+02 -0.16789936854E+02  0.23862624279E+02  0.31363875964E+02  0.00000000000E+00 0.  1.
         -4    1    1    2    0  503  0.23354126713E+03 -0.41161544084E+02 -0.66445509033E+03  0.70550433254E+03  0.00000000000E+00 0.  1.
<mgrwt>
<rscale>  4 0.26697689E+03</rscale>
<asrwt>0</asrwt>
<pdfrwt beam="1">  1       21 0.25492630E-01 0.26697689E+03</pdfrwt>
<pdfrwt beam="2">  1       -4 0.12829768E+00 0.26697689E+03</pdfrwt>
<totfact> 0.28638686E+02</totfact>
</mgrwt>
</event>
<event>
 5    0  0.4930573E+000  0.3119039E+03  0.7546771E-02  0.1079437E+00
         -1   -1    0    0    0  501 -0.00000000000E+00  0.00000000000E+00  0.83595119207E+02  0.83595119207E+02  0.00000000000E+00 0. -1.
         21   -1    0    0  501  502  0.00000000000E+00 -0.00000000000E+00 -0.16170400142E+04  0.16170400142E+04  0.00000000000E+00 0. -1.
         25    1    1    2    0    0 -0.11739138930E+03  0.29096677505E+03 -0.98144770716E+03  0.10379340077E+04  0.12500000000E+03 0.  0.
         21    1    1    2  503  502  0.96267288248E+01 -0.36894528594E+02 -0.25279077653E+03  0.25565026276E+03  0.00000000000E+00 0. -1.
         -1    1    1    2    0  503  0.10776466048E+03 -0.25407224645E+03 -0.29920641133E+03  0.40705086297E+03  0.00000000000E+00 0. -1.
<mgrwt>
<rscale>  4 0.31190386E+03</rscale>
<asrwt>0</asrwt>
<pdfrwt beam="1">  1       21 0.24877535E+00 0.31190386E+03</pdfrwt>
<pdfrwt beam="2">  1       -1 0.12860789E-01 0.31190386E+03</pdfrwt>
<totfact> 0.23010959E+02</totfact>
</mgrwt>
</event>
<event>
 5    0  0.4930573E+000  0.2697338E+03  0.7546771E-02  0.1101432E+00
         21   -1    0    0  503  502  0.00000000000E+00  0.00000000000E+00  0.46011537662E+03  0.46011537662E+03  0.00000000000E+00 0. -1.
          1   -1    0    0  502    0 -0.00000000000E+00 -0.00000000000E+00 -0.27506416871E+03  0.27506416871E+03  0.00000000000E+00 0. -1.
         25    1    1    2    0    0  0.17090482568E+03  0.11230371388E+03  0.20277526793E+03  0.31394807353E+03  0.12500000000E+03 0.  0.
         21    1    1    2  503  501  0.84207526104E+02 -0.84011609334E+02  0.83484577821E+02  0.14532216861E+03  0.00000000000E+00 0.  1.
          1    1    1    2  501    0 -0.25511235179E+03 -0.28292104544E+02 -0.10120863783E+03  0.27590930319E+03  0.00000000000E+00 0. -1.
<mgrwt>
<rscale>  4 0.26973382E+03</rscale>
<asrwt>0</asrwt>
<pdfrwt beam="1">  1       21 0.70786981E-01 0.26973382E+03</pdfrwt>
<pdfrwt beam="2">  1        1 0.42317564E-01 0.26973382E+03</pdfrwt>
<totfact> 0.18762522E+03</totfact>
</mgrwt>
</event>
<event>
 5    0  0.4930573E+000  0.3538806E+03  0.7546771E-02  0.1061033E+00
         21   -1    0    0  503  502  0.00000000000E+00  0.00000000000E+00  0.86402527245E+03  0.86402527245E+03  0.00000000000E+00 0. -1.
          2   -1    0    0  502    0 -0.00000000000E+00 -0.00000000000E+00 -0.14666633418E+03  0.14666633418E+03  0.00000000000E+00 0.  1.
         25    1    1    2    0    0 -0.17730257795E+03  0.27958951319E+03  0.25939102661E+03  0.43876554642E+03  0.12500000000E+03 0.  0.
         21    1    1    2  503  501  0.50146379008E+02 -0.64449650575E+02  0.18280930724E+03  0.20021902907E+03  0.00000000000E+00 0.  1.
          2    1    1    2  501    0  0.12715619895E+03 -0.21513986262E+03  0.27515860442E+03  0.37170703115E+03  0.00000000000E+00 0.  1.
<mgrwt>
<rscale>  4 0.35388063E+03</rscale>
<asrwt>0</asrwt>
<pdfrwt beam="1">  1       21 0.13292696E+00 0.35388063E+03</pdfrwt>
<pdfrwt beam="2">  1        2 0.22564052E-01 0.35388063E+03</pdfrwt>
<totfact> 0.11367899E+03</totfact>
</mgrwt>
</event>
<event>
 5    0  0.4930573E+000  0.1943721E+03  0.7546771E-02  0.1154576E+00
          2   -1    0    0  502    0 -0.00000000000E+00  0.00000000000E+00  0.23925742162E+04  0.23925742162E+04  0.00000000000E+00 0. -1.
         21   -1    0    0  503  502  0.00000000000E+00 -0.00000000000E+00 -0.29394323466E+02  0.29394323466E+02  0.00000000000E+00 0. -1.
         25    1    1    2    0    0  0.15930220940E+03  0.13315682401E+03  0.10320805472E+04  0.10601524370E+04  0.12500000000E+03 0.  0.
         21    1    1    2  503  501 -0.94845237560E+02 -0.91096122672E+02  0.29646945274E+03  0.32432739487E+03  0.00000000000E+00 0. -1.
          2    1    1    2  501    0 -0.64456971840E+02 -0.42060701334E+02  0.10346298928E+04  0.10374887078E+04  0.00000000000E+00 0. -1.
<mgrwt>
<rscale>  4 0.19437214E+03</rscale>
<asrwt>0</asrwt>
<pdfrwt beam="1">  1       21 0.45222055E-02 0.19437214E+03</pdfrwt>
<pdfrwt beam="2">  1        2 0.36808819E+00 0.19437214E+03</pdfrwt>
<totfact> 0.19085438E+04</totfact>
</mgrwt>
</event>
<event>
 5    0  0.4930573E+000  0.3102020E+03  0.7546771E-02  0.1080249E+00
          3   -1    0    0  502    0 -0.00000000000E+00  0.00000000000E+00  0.70498002619E+02  0.70498002619E+02  0.00000000000E+00 0. -1.
         21   -1    0    0  503  502  0.00000000000E+00 -0.00000000000E+00 -0.15494687119E+04  0.15494687119E+04  0.00000000000E+00 0. -1.
         25    1    1    2    0    0  0.20294223876E+03 -0.21658128414E+03 -0.80350784866E+03  0.86564592517E+03  0.12500000000E+03 0.  0.
         21    1    1    2  503  501 -0.19124306496E+02  0.10232987809E+02 -0.22361952820E+03  0.22466897100E+03  0.00000000000E+00 0. -1.
          3    1    1    2  501    0 -0.18381793226E+03  0.20634829633E+03 -0.45184333242E+03  0.52965181834E+03  0.00000000000E+00 0. -1.
<mgrwt>
<rscale>  4 0.31020204E+03</rscale>
<asrwt>0</asrwt>
<pdfrwt beam="1">  1       21 0.23837981E+00 0.31020204E+03</pdfrwt>
<pdfrwt beam="2">  1        3 0.10845846E-01 0.31020204E+03</pdfrwt>
<totfact> 0.23404857E+02</totfact>
</mgrwt>
</event>
<event>
 5    0  0.4930573E+000  0.2210858E+03  0.7546771E-02  0.1133076E+00
         -1   -1    0    0    0  501 -0.00000000000E+00  0.00000000000E+00  0.32965505333E+03  0.32965505333E+03  0.00000000000E+00 0.  1.
         21   -1    0    0  501  502  0.00000000000E+00 -0.00000000000E+00 -0.17978073231E+03  0.17978073231E+03  0.00000000000E+00 0.  1.
         25    1    1    2    0    0  0.19574097707E+03  0.51020802162E+02  0.55486274295E+02  0.24417489427E+03  0.12500000000E+03 0.  0.
         21    1    1    2  503  502 -0.23677397405E+02 -0.28300389425E+02 -0.33371142697E+02  0.49751023652E+02  0.00000000000E+00 0.  1.
         -1    1    1    2    0  503 -0.17206357966E+03 -0.22720412737E+02  0.12775918943E+03  0.21550986772E+03  0.00000000000E+00 0.  1.
<mgrwt>
<rscale>  4 0.22108584E+03</rscale>
<asrwt>0</asrwt>
<pdfrwt beam="1">  1       21 0.27658574E-01 0.22108584E+03</pdfrwt>
<pdfrwt beam="2">  1       -1 0.50716162E-01 0.22108584E+03</pdfrwt>
<totfact> 0.45883818E+03</totfact>
</mgrwt>
</event>
<event>
 5    0  0.4930573E+000  0.5380587E+03  0.7546771E-02  0.1004296E+00
          2   -1    0    0  502    0 -0.00000000000E+00  0.00000000000E+00  0.95902414120E+03  0.95902414120E+03  0.00000000000E+00 0.  1.
         21   -1    0    0  503  502  0.00000000000E+00 -0.00000000000E+00 -0.68369255952E+03  0.68369255952E+03  0.00000000000E+00 0.  1.
         25    1    1    2    0    0  0.33612369396E+03 -0.42905182354E+03 -0.45435010023E+03  0.72050233762E+03  0.12500000000E+03 0.  0.
         21    1    1    2  503  501 -0.97413394972E+01  0.23891057007E+02 -0.30025550196E+00  0.25802450532E+02  0.00000000000E+00 0.  1.
          2    1    1    2  501    0 -0.32638235447E+03  0.40516076653E+03  0.72998193741E+03  0.89641191257E+03  0.00000000000E+00 0.  1.
<mgrwt>
<rscale>  4 0.53805866E+03</rscale>
<asrwt>0</asrwt>
<pdfrwt beam="1">  1       21 0.10518347E+00 0.53805866E+03</pdfrwt>
<pdfrwt beam="2">  1        2 0.14754218E+00 0.53805866E+03</pdfrwt>
<totfact> 0.22036229E+02</totfact>
</mgrwt>
</event>
<event>
 5    0  0.4930573E+000  0.2688004E+03  0.7546771E-02  0.1101968E+00
         21   -1    0    0  503  502  0.00000000000E+00  0.00000000000E+00  0.13376623034E+03  0.13376623034E+03  0.00000000000E+00 0.  1.
          2   -1    0    0  502    0 -0.00000000000E+00 -0.00000000000E+00 -0.15646861858E+04  0.15646861858E+04  0.00000000000E+00 0. -1.
         25    1    1    2    0    0 -0.51914838163E+02 -0.28645862330E+03 -0.13605365349E+03  0.34480326262E+03  0.12500000000E+03 0.  0.
         21    1    1    2  503  501  0.34794409033E+02  0.54408341789E+02 -0.36974316439E+02  0.74417865008E+02  0.00000000000E+00 0. -1.
          2    1    1    2  501    0  0.17120429130E+02  0.23205028151E+03 -0.12578919855E+04  0.12792312885E+04  0.00000000000E+00 0. -1.
<mgrwt>
<rscale>  4 0.26880044E+03</rscale>
<asrwt>0</asrwt>
<pdfrwt beam="1">  1       21 0.20579419E-01 0.26880044E+03</pdfrwt>
<pdfrwt beam="2">  1        2 0.24072096E+00 0.26880044E+03</pdfrwt>
<totfact> 0.34337212E+03</totfact>
</mgrwt>
</event>
<event>
 5    0  0.4930573E+000  0.4207168E+03  0.7546771E-02  0.1036833E+00
         21   -1    0    0  503  502  0.00000000000E+00  0.00000000000E+00  0.28496016099E+03  0.28496016099E+03  0.00000000000E+00 0. -1.
          2   -1    0    0  502    0 -0.00000000000E+00 -0.00000000000E+00 -0.12239230398E+04  0.12239230398E+04  0.00000000000E+00 0. -1.
         25    1    1    2    0    0  0.37571840318E+03  0.22078010119E+03 -0.81016958719E+03  0.92838996740E+03  0.12500000000E+03 0.  0.
         21    1    1    2  503  501 -0.15932534705E+03  0.63490119597E+02  0.53169137305E+02  0.17956201898E+03  0.00000000000E+00 0. -1.
          2    1    1    2  501    0 -0.21639305613E+03 -0.28427022079E+03 -0.18196242897E+03  0.40093121446E+03  0.00000000000E+00 0. -1.
<mgrwt>
<rscale>  4 0.42071684E+03</rscale>
<asrwt>0</asrwt>
<pdfrwt beam="1">  1       21 0.43840024E-01 0.42071684E+03</pdfrwt>
<pdfrwt beam="2">  1        2 0.18829585E+00 0.42071684E+03</pdfrwt>
<totfact> 0.11295976E+03</totfact>
</mgrwt>
</event>
<event>
 5    0  0.4930573E+000  0.1998801E+03  0.7546771E-02  0.1149840E+00
          4   -1    0    0  502    0 -0.00000000000E+00  0.00000000000E+00  0.25384219683E+02  0.25384219683E+02  0.00000000000E+00 0.  1.
         21   -1    0    0  503  502  0.00000000000E+00 -0.00000000000E+00 -0.31210445001E+04  0.31210445001E+04  0.00000000000E+00 0.  1.
         25    1    1    2    0    0 -0.20415400387E+03  0.98798941170E+02 -0.18835430222E+04  0.19012625817E+04  0.12500000000E+03 0.  0.
         21    1    1    2  503  501  0.10500025717E+03  0.51159542024E+01 -0.83554292868E+03  0.84213016373E+03  0.00000000000E+00 0.  1.
          4    1    1    2  501    0  0.99153746702E+02 -0.10391489537E+03 -0.37657432956E+03  0.40303597438E+03  0.00000000000E+00 0.  1.
<mgrwt>
<rscale>  4 0.19988011E+03</rscale>
<asrwt>0</asrwt>
<pdfrwt beam="1">  1       21 0.48016051E+00 0.19988011E+03</pdfrwt>
<pdfrwt beam="2">  1        4 0.39052661E-02 0.19988011E+03</pdfrwt>
<totfact> 0.38648667E+01</totfact>
</mgrwt>
</event>
<event>
 5    0  0.4930573E+000  0.2633065E+03  0.7546771E-02  0.1105173E+00
          2   -1    0    0  502    0 -0.00000000000E+00  0.00000000000E+00  0.27105956245E+03  0.27105956245E+03  0.00000000000E+00 0.  1.
         21   -1    0    0  503  502  0.00000000000E+00 -0.00000000000E+00 -0.59400399574E+03  0.59400399574E+03  0.00000000000E+00 0. -1.
         25    1    1    2    0    0  0.65577871092E+02 -0.20535398556E+03 -0.22734285823E+03  0.33731364003E+03  0.12500000000E+03 0.  0.
         21    1    1    2  503  501  0.30409137141E+02 -0.99066663964E+01 -0.24605887466E+03  0.24812865102E+03  0.00000000000E+00 0. -1.
          2    1    1    2  501    0 -0.95987008232E+02  0.21526065196E+03  0.15045729960E+03  0.27962126713E+03  0.00000000000E+00 0.  1.
<mgrwt>
<rscale>  4 0.26330654E+03</rscale>
<asrwt>0</asrwt>
<pdfrwt beam="1">  1       21 0.91385230E-01 0.26330654E+03</pdfrwt>
<pdfrwt beam="2">  1        2 0.41701471E-01 0.26330654E+03</pdfrwt>
<totfact> 0.14889391E+03</totfact>
</mgrwt>
</event>
<event>
 5    0  0.4930573E+000  0.5061337E+03  0.7546771E-02  0.1012190E+00
         21   -1    0    0  503  502  0.00000000000E+00  0.00000000000E+00  0.70486205705E+03  0.70486205705E+03  0.00000000000E+00 0. -1.
          1   -1    0    0  502    0 -0.00000000000E+00 -0.00000000000E+00 -0.13567187748E+04  0.13567187748E+04  0.00000000000E+00 0.  1.
         25    1    1    2    0    0  0.32220961021E+03  0.37195131353E+03  0.41850072918E+03  0.65797771457E+03  0.12500000000E+03 0.  0.
         21    1    1    2  503  501 -0.29496270456E+02  0.21532107891E+02  0.11507522580E+03  0.12073097877E+03  0.00000000000E+00 0. -1.
          1    1    1    2  501    0 -0.29271333975E+03 -0.39348342142E+03 -0.11854326727E+04  0.12828721385E+04  0.00000000000E+00 0.  1.
<mgrwt>
<rscale>  4 0.50613367E+03</rscale>
<asrwt>0</asrwt>
<pdfrwt beam="1">  1       21 0.10844032E+00 0.50613367E+03</pdfrwt>
<pdfrwt beam="2">  1        1 0.20872596E+00 0.50613367E+03</pdfrwt>
<totfact> 0.57113207E+01</totfact>
</mgrwt>
</event>
<event>
 5    0  0.4930573E+000  0.2791472E+03  0.7546771E-02  0.1096156E+00
         -2   -1    0    0    0  501 -0.00000000000E+00  0.00000000000E+00  0.54564931211E+03  0.54564931211E+03  0.00000000000E+00 0.  1.
         21   -1    0    0  501  502  0.00000000000E+00 -0.00000000000E+00 -0.15328754461E+03  0.15328754461E+03  0.00000000000E+00 0. -1.
         25    1    1    2    0    0 -0.26107121427E+02 -0.24822688289E+03  0.78322659022E+02  0.28992689784E+03  0.12500000000E+03 0.  0.
         21    1    1    2  503  502 -0.11677289129E+02  0.34483147049E+02  0.14714595912E+02  0.39267872933E+02  0.00000000000E+00 0. -1.
         -2    1    1    2    0  503  0.37784410555E+02  0.21374373584E+03  0.29932451257E+03  0.36974208594E+03  0.00000000000E+00 0.  1.
<mgrwt>
<rscale>  4 0.27914721E+03</rscale>
<asrwt>0</asrwt>
<pdfrwt beam="1">  1       21 0.23582699E-01 0.27914721E+03</pdfrwt>
<pdfrwt beam="2">  1       -2 0.83946047E-01 0.27914721E+03</pdfrwt>
<totfact> 0.17392456E+03</totfact>
</mgrwt>
</event>
<event>
 5    0  0.4930573E+000  0.4221449E+03  0.7546771E-02  0.1036370E+00
          2   -1    0    0  502    0 -0.00000000000E+00  0.00000000000E+00  0.94740388869E+03  0.94740388869E+03  0.00000000000E+00 0. -1.
         21   -1    0    0  503  502  0.00000000000E+00 -0.00000000000E+00 -0.56372191749E+03  0.56372191749E+03  0.00000000000E+00 0. -1.
         25    1    1    2    0    0  0.35795527314E+03  0.17252054147E+03 -0.38698226935E+03  0.56857329483E+03  0.12500000000E+03 0.  0.
         21    1    1    2  503  501  0.57575342742E+02  0.15273524445E+02  0.17464638710E+02  0.62074263959E+02  0.00000000000E+00 0.  1.
          2    1    1    2  501    0 -0.41553061588E+03 -0.18779406591E+03  0.75319960184E+03  0.88047824739E+03  0.00000000000E+00 0. -1.
<mgrwt>
<rscale>  4 0.42214493E+03</rscale>
<asrwt>0</asrwt>
<pdfrwt beam="1">  1       21 0.86726449E-01 0.42214493E+03</pdfrwt>
<pdfrwt beam="2">  1        2 0.14575444E+00 0.42214493E+03</pdfrwt>
<totfact> 0.36908192E+02</totfact>
</mgrwt>
</event>
<event>
 5    0  0.4930573E+000  0.2407298E+03  0.7546771E-02  0.1119308E+00
         -4   -1    0    0    0  501 -0.00000000000E+00  0.00000000000E+00  0.31612624540E+03  0.31612624540E+03  0.00000000000E+00 0.  1.
         21   -1    0    0  501  502  0.00000000000E+00 -0.00000000000E+00 -0.40683108367E+03  0.40683108367E+03  0.00000000000E+00 0.  1.
         25    1    1    2    0    0 -0.93004566336E+02 -0.22876590610E+03 -0.22244925099E+03  0.35509485834E+03  0.12500000000E+03 0.  0.
         21    1    1    2  503  502  0.52012483830E+02  0.15815932417E+03 -0.45603050279E+02  0.17262476210E+03  0.00000000000E+00 0.  1.
         -4    1    1    2    0  503  0.40992082506E+02  0.70606581928E+02  0.17734746300E+03  0.19523770864E+03  0.00000000000E+00 0.  1.
<mgrwt>
<rscale>  4 0.24072979E+03</rscale>
<asrwt>0</asrwt>
<pdfrwt beam="1">  1       21 0.62589397E-01 0.24072979E+03</pdfrwt>
<pdfrwt beam="2">  1       -4 0.48634807E-01 0.24072979E+03</pdfrwt>
<totfact> 0.40625796E+02</totfact>
</mgrwt>
</event>
<event>
 5    0  0.4930573E+000  0.2168522E+03  0.7546771E-02  0.1136252E+00
          1   -1    0    0  502    0 -0.00000000000E+00  0.00000000000E+00  0.11088138264E+04  0.11088138264E+04  0.00000000000E+00 0.  1.
         21   -1    0    0  503  502  0.00000000000E+00 -0.00000000000E+00 -0.20171244274E+03  0.20171244274E+03  0.00000000000E+00 0. -1.
         25    1    1    2    0    0 -0.45045460005E+02  0.21280016147E+03 -0.29922399919E+02  0.25265263150E+03  0.12500000000E+03 0.  0.
         21    1    1    2  503  501  0.71864375661E+01 -0.41953015499E+02 -0.44085944119E+02  0.61280264875E+02  0.00000000000E+00 0.  1.
          1    1    1    2  501    0  0.37859022439E+02 -0.17084714597E+03  0.98110972774E+03  0.99659337281E+03  0.00000000000E+00 0.  1.
<mgrwt>
<rscale>  4 0.21685224E+03</rscale>
<asrwt>0</asrwt>
<pdfrwt beam="1">  1       21 0.31032684E-01 0.21685224E+03</pdfrwt>
<pdfrwt beam="2">  1        1 0.17058674E+00 0.21685224E+03</pdfrwt>
<totfact> 0.14758684E+03</totfact>
</mgrwt>
</event>
<event>
 5    0  0.4930573E+000  0.2135427E+03  0.7546771E-02  0.1138791E+00
         21   -1    0    0  503  502  0.00000000000E+00  0.00000000000E+00  0.83122819203E+03  0.83122819203E+03  0.00000000000E+00 0.  1.
          2   -1    0    0  502    0 -0.00000000000E+00 -0.00000000000E+00 -0.42788162399E+03  0.42788162399E+03  0.00000000000E+00 0. -1.
         25    1    1    2    0    0  0.19617545477E+03  0.64934692772E+02 -0.50952458272E+02  0.24682478883E+03  0.12500000000E+03 0.  0.
         21    1    1    2  503  501 -0.16760826798E+03 -0.33785669953E+02  0.72164256257E+03  0.74162119111E+03  0.00000000000E+00 0.  1.
          2    1    1    2  501    0 -0.28567186789E+02 -0.31149022819E+02 -0.26734353625E+03  0.27066383608E+03  0.00000000000E+00 0. -1.
<mgrwt>
<rscale>  4 0.21354273E+03</rscale>
<asrwt>0</asrwt>
<pdfrwt beam="1">  1       21 0.12788126E+00 0.21354273E+03</pdfrwt>
<pdfrwt beam="2">  1        2 0.65827942E-01 0.21354273E+03</pdfrwt>
<totfact> 0.41111481E+02</totfact>
</mgrwt>
</event>
<event>
 5    0  0.4930573E+000  0.1920875E+03  0.7546771E-02  0.1156592E+00
          1   -1    0    0  502    0 -0.00000000000E+00  0.00000000000E+00  0.61537600380E+03  0.61537600380E+03  0.00000000000E+00 0. -1.
         21   -1    0    0  503  502  0.00000000000E+00 -0.00000000000E+00 -0.59684472351E+03  0.59684472351E+03  0.00000000000E+00 0. -1.
         25    1    1    2    0    0  0.90634372633E+02  0.19625857175E+03  0.18952684357E+03  0.31349232992E+03  0.12500000000E+03 0.  0.
         21    1    1    2  503  501 -0.54942060662E+02 -0.68712275471E+02 -0.51898355900E+03  0.52638763411E+03  0.00000000000E+00 0. -1.
          1    1    1    2  501    0 -0.35692311971E+02 -0.12754629628E+03  0.34798799572E+03  0.37234076327E+03  0.00000000000E+00 0. -1.
<mgrwt>
<rscale>  4 0.19208747E+03</rscale>
<asrwt>0</asrwt>
<pdfrwt beam="1">  1       21 0.91822266E-01 0.19208747E+03</pdfrwt>
<pdfrwt beam="2">  1        1 0.94673231E-01 0.19208747E+03</pdfrwt>
<totfact> 0.37815301E+02</totfact>
</mgrwt>
</event>
<event>
 5    0  0.4930573E+000  0.3775754E+03  0.7546771E-02  0.1051834E+00
          1   -1    0    0  502    0 -0.00000000000E+00  0.00000000000E+00  0.33797682877E+03  0.33797682877E+03  0.00000000000E+00 0. -1.
         21   -1    0    0  503  502  0.00000000000E+00 -0.00000000000E+00 -0.65658068964E+03  0.65658068964E+03  0.00000000000E+00 0.  1.
         25    1    1    2    0    0  0.16183827267E+03 -0.32066737041E+03 -0.35971735722E+03  0.52348903144E+03  0.12500000000E+03 0.  0.
         21    1    1    2  503  501 -0.29067744924E+02 -0.93743699258E+01 -0.87585383925E+02  0.92757814139E+02  0.00000000000E+00 0.  1.
          1    1    1    2  501    0 -0.13277052775E+03  0.33004174034E+03  0.12869888027E+03  0.37831067284E+03  0.00000000000E+00 0. -1.
<mgrwt>
<rscale>  4 0.37757537E+03</rscale>
<asrwt>0</asrwt>
<pdfrwt beam="1">  1       21 0.10101241E+00 0.37757537E+03</pdfrwt>
<pdfrwt beam="2">  1        1 0.51996436E-01 0.37757537E+03</pdfrwt>
<totfact> 0.61253089E+02</totfact>
</mgrwt>
</event>
<event>
 5    0  0.4930573E+000  0.2816688E+03  0.7546771E-02  0.1094781E+00
          4   -1    0    0  502    0 -0.00000000000E+00  0.00000000000E+00  0.25226163024E+03  0.25226163024E+03  0.00000000000E+00 0. -1.
         21   -1    0    0  503  502  0.00000000000E+00 -0.00000000000E+00 -0.38776732671E+03  0.38776732671E+03  0.00000000000E+00 0. -1.
         25    1    1    2    0    0 -0.20551996181E+03  0.14265820791E+03 -0.52139526526E+02  0.28448787182E+03  0.12500000000E+03 0.  0.
         21    1    1    2  503  501  0.12292892316E+02  0.23066995545E+02 -0.97151878346E+02  0.10060660491E+03  0.00000000000E+00 0. -1.
          4    1    1    2  501    0  0.19322706950E+03 -0.16572520346E+03  0.13785708411E+02  0.25493448022E+03  0.00000000000E+00 0. -1.
<mgrwt>
<rscale>  4 0.28166876E+03</rscale>
<asrwt>0</asrwt>
<pdfrwt beam="1">  1       21 0.59656511E-01 0.28166876E+03</pdfrwt>
<pdfrwt beam="2">  1        4 0.38809482E-01 0.28166876E+03</pdfrwt>
<totfact> 0.70869202E+02</totfact>
</mgrwt>
</event>
<event>
 5    0  0.4930573E+000  0.2463920E+03  0.7546771E-02  0.1115606E+00
         21   -1    0    0  503  502  0.00000000000E+00  0.00000000000E+00  0.67375646553E+03  0.67375646553E+03  0.00000000000E+00 0.  1.
          2   -1    0    0  502    0 -0.00000000000E+00 -0.00000000000E+00 -0.20465787831E+04  0.20465787831E+04  0.00000000000E+00 0.  1.
         25    1    1    2    0    0  0.16046227398E+03 -0.30214837989E+03  0.24423814749E+03  0.43854196781E+03  0.12500000000E+03 0.  0.
         21    1    1    2  503  501 -0.13978114694E+03  0.92601026702E+02  0.30509805987E+03  0.34813581447E+03  0.00000000000E+00 0.  1.
          2    1    1    2  501    0 -0.20681127047E+02  0.20954735319E+03 -0.19221585249E+04  0.19336574664E+04  0.00000000000E+00 0.  1.
<mgrwt>
<rscale>  4 0.24639204E+03</rscale>
<asrwt>0</asrwt>
<pdfrwt beam="1">  1       21 0.10365484E+00 0.24639204E+03</pdfrwt>
<pdfrwt beam="2">  1        2 0.31485827E+00 0.24639204E+03</pdfrwt>
<totfact> 0.65219831E+01</totfact>
</mgrwt>
</event>
<event>
 5    0  0.4930573E+000  0.4739071E+03  0.7546771E-02  0.1020823E+00
          2   -1    0    0  502    0 -0.00000000000E+00  0.00000000000E+00  0.17925868735E+04  0.17925868735E+04  0.00000000000E+00 0. -1.
         21   -1    0    0  503  502  0.00000000000E+00 -0.00000000000E+00 -0.31944735219E+03  0.31944735219E+03  0.00000000000E+00 0. -1.
         25    1    1    2    0    0  0.52824899643E+03  0.18010071153E+03  0.34983507628E+03  0.67044227874E+03  0.12500000000E+03 0.  0.
         21    1    1    2  503  501 -0.33923396214E+03 -0.22668487536E+03  0.12826534031E+03  0.42768880195E+03  0.00000000000E+00 0. -1.
          2    1    1    2  501    0 -0.18901503429E+03  0.46584163823E+02  0.99503910469E+03  0.10139031450E+04  0.00000000000E+00 0. -1.
<mgrwt>
<rscale>  4 0.47390710E+03</rscale>
<asrwt>0</asrwt>
<pdfrwt beam="1">  1       21 0.49145747E-01 0.47390710E+03</pdfrwt>
<pdfrwt beam="2">  1        2 0.27578259E+00 0.47390710E+03</pdfrwt>
<totfact> 0.42584548E+02</totfact>
</mgrwt>
</event>
<event>
 5    0  0.4930573E+000  0.2010016E+03  0.7546771E-02  0.1148897E+00
         21   -1    0    0  503  502  0.00000000000E+00  0.00000000000E+00  0.23526187464E+03  0.23526187464E+03  0.00000000000E+00 0.  1.
          2   -1    0    0  502    0 -0.00000000000E+00 -0.00000000000E+00 -0.10502265561E+04  0.10502265561E+04  0.00000000000E+00 0. -1.
         25    1    1    2    0    0 -0.77191909393E+02  0.22694358463E+03  0.11053129693E+03  0.29206874033E+03  0.12500000000E+03 0.  0.
         21    1    1    2  503  501  0.48952323926E+02 -0.74818955231E+02 -0.46250416052E+02  0.10066432866E+03  0.00000000000E+00 0. -1.
          2    1    1    2  501    0  0.28239585467E+02 -0.15212462940E+03 -0.87924556231E+03  0.89275536173E+03  0.00000000000E+00 0. -1.
<mgrwt>
<rscale>  4 0.20100157E+03</rscale>
<asrwt>0</asrwt>
<pdfrwt beam="1">  1       21 0.36194135E-01 0.20100157E+03</pdfrwt>
<pdfrwt beam="2">  1        2 0.16157331E+00 0.20100157E+03</pdfrwt>
<totfact> 0.22837885E+03</totfact>
</mgrwt>
</event>
<event>
 5    0  0.4930573E+000  0.3848735E+03  0.7546771E-02  0.1049147E+00
         21   -1    0    0  503  502  0.00000000000E+00  0.00000000000E+00  0.61735122107E+03  0.61735122107E+03  0.00000000000E+00 0. -1.
          2   -1    0    0  502    0 -0.00000000000E+00 -0.00000000000E+00 -0.38386175025E+03  0.38386175025E+03  0.00000000000E+00 0. -1.
         25    1    1    2    0    0  0.32510400615E+03 -0.21188855839E+02  0.84125965387E+02  0.35894813062E+03  0.12500000000E+03 0.  0.
         21    1    1    2  503  501  0.70429074396E+02  0.17996090331E+03  0.85406404766E+02  0.21128283228E+03  0.00000000000E+00 0. -1.
          2    1    1    2  501    0 -0.39553308054E+03 -0.15877204747E+03  0.63957100670E+02  0.43098200843E+03  0.00000000000E+00 0. -1.
<mgrwt>
<rscale>  4 0.38487351E+03</rscale>
<asrwt>0</asrwt>
<pdfrwt beam="1">  1       21 0.94977111E-01 0.38487351E+03</pdfrwt>
<pdfrwt beam="2">  1        2 0.59055654E-01 0.38487351E+03</pdfrwt>
<totfact> 0.89571032E+02</totfact>
</mgrwt>
</event>
<event>
 5    0  0.4930573E+000  0.2919937E+03  0.7546771E-02  0.1089313E+00
         21   -1    0    0  501  502  0.00000000000E+00  0.00000000000E+00  0.10133192554E+04  0.10133192554E+04  0.00000000000E+00 0.  1.
         -2   -1    0    0    0  501 -0.00000000000E+00 -0.00000000000E+00 -0.30624356837E+03  0.30624356837E+03  0.00000000000E+00 0.  1.
         25    1    1    2    0    0  0.24333264485E+03  0.17897178246E+03  0.70958258156E+03  0.78126443348E+03  0.12500000000E+03 0.  0.
         21    1    1    2  503  502 -0.33154299829E+02 -0.24829314718E+02  0.20249956706E+03  0.20669246993E+03  0.00000000000E+00 0.  1.
         -2    1    1    2    0  503 -0.21017834502E+03 -0.15414246775E+03 -0.20500646163E+03  0.33160592032E+03  0.00000000000E+00 0.  1.
<mgrwt>
<rscale>  4 0.29199368E+03</rscale>
<asrwt>0</asrwt>
<pdfrwt beam="1">  1       21 0.15589527E+00 0.29199368E+03</pdfrwt>
<pdfrwt beam="2">  1       -2 0.47114395E-01 0.29199368E+03</pdfrwt>
<totfact> 0.89021834E+01</totfact>
</mgrwt>
</event>
<event>
 5    0  0.4930573E+000  0.2467343E+03  0.7546771E-02  0.1115386E+00
          4   -1    0    0  502    0 -0.00000000000E+00  0.00000000000E+00  0.12706285536E+04  0.12706285536E+04  0.00000000000E+00 0. -1.
         21   -1    0    0  503  502  0.00000000000E+00 -0.00000000000E+00 -0.24874290756E+03  0.24874290756E+03  0.00000000000E+00 0.  1.
         25    1    1    2    0    0 -0.78957580736E+02  0.23305425656E+03 -0.84461316938E+02  0.28863004022E+03  0.12500000000E+03 0.  0.
         21    1    1    2  503  501  0.85724542746E+01 -0.34121831203E+02 -0.46742140038E+02  0.58503110962E+02  0.00000000000E+00 0.  1.
          4    1    1    2  501    0  0.70385126462E+02 -0.19893242536E+03  0.11530891030E+04  0.11722383100E+04  0.00000000000E+00 0. -1.
<mgrwt>
<rscale>  4 0.24673430E+03</rscale>
<asrwt>0</asrwt>
<pdfrwt beam="1">  1       21 0.38268140E-01 0.24673430E+03</pdfrwt>
<pdfrwt beam="2">  1        4 0.19548131E+00 0.24673430E+03</pdfrwt>
<totfact> 0.42133259E+01</totfact>
</mgrwt>
</event>
<event>
 5    0  0.4930573E+000  0.2116002E+03  0.7546771E-02  0.1140305E+00
          2   -1    0    0  502    0 -0.00000000000E+00  0.00000000000E+00  0.15392216694E+04  0.15392216694E+04  0.00000000000E+00 0.  1.
         21   -1    0    0  503  502  0.00000000000E+00 -0.00000000000E+00 -0.73064047302E+03  0.73064047302E+03  0.00000000000E+00 0. -1.
         25    1    1    2    0    0  0.10705405485E+03  0.21228871523E+03 -0.32812346385E+03  0.42404843686E+03  0.12500000000E+03 0.  0.
         21    1    1    2  503  501 -0.53374304723E+02 -0.51091705455E+02 -0.34579989799E+03  0.35360535661E+03  0.00000000000E+00 0. -1.
          2    1    1    2  501    0 -0.53679750128E+02 -0.16119700978E+03  0.14825045582E+04  0.14922083489E+04  0.00000000000E+00 0.  1.
<mgrwt>
<rscale>  4 0.21160023E+03</rscale>
<asrwt>0</asrwt>
<pdfrwt beam="1">  1       21 0.11240623E+00 0.21160023E+03</pdfrwt>
<pdfrwt beam="2">  1        2 0.23680333E+00 0.21160023E+03</pdfrwt>
<totfact> 0.10186274E+02</totfact>
</mgrwt>
</event>
<event>
 5    0  0.4930573E+000  0.1977632E+03  0.7546771E-02  0.1151640E+00
          2   -1    0    0  502    0 -0.00000000000E+00  0.00000000000E+00  0.13222977512E+04  0.13222977512E+04  0.00000000000E+00 0. -1.
         21   -1    0    0  503  502  0.00000000000E+00 -0.00000000000E+00 -0.49165888425E+02  0.49165888425E+02  0.00000000000E+00 0. -1.
         25    1    1    2    0    0  0.19709426109E+03 -0.77661990878E+02  0.50592252621E+03  0.56254789584E+03  0.12500000000E+03 0.  0.
         21    1    1    2  503  501 -0.62188917989E+02  0.44392205781E+02  0.92159223664E+02  0.11971404246E+03  0.00000000000E+00 0. -1.
          2    1    1    2  501    0 -0.13490534310E+03  0.33269785096E+02  0.67505011291E+03  0.68920170134E+03  0.00000000000E+00 0. -1.
<mgrwt>
<rscale>  4 0.19776320E+03</rscale>
<asrwt>0</asrwt>
<pdfrwt beam="1">  1       21 0.75639839E-02 0.19776320E+03</pdfrwt>
<pdfrwt beam="2">  1        2 0.20343040E+00 0.19776320E+03</pdfrwt>
<totfact> 0.28875846E+04</totfact>
</mgrwt>
</event>
<event>
 5    0  0.4930573E+000  0.2334361E+03  0.7546771E-02  0.1124244E+00
         21   -1    0    0  503  502  0.00000000000E+00  0.00000000000E+00  0.16678131304E+03  0.16678131304E+03  0.00000000000E+00 0. -1.
          1   -1    0    0  502    0 -0.00000000000E+00 -0.00000000000E+00 -0.40196411342E+03  0.40196411342E+03  0.00000000000E+00 0.  1.
         25    1    1    2    0    0 -0.11643827496E+03  0.18141680594E+03 -0.51769973627E+02  0.25450944879E+03  0.12500000000E+03 0.  0.
         21    1    1    2  503  501  0.17473741091E+02 -0.18772147640E+02  0.22268283346E+02  0.33964711068E+02  0.00000000000E+00 0. -1.
          1    1    1    2  501    0  0.98964533869E+02 -0.16264465830E+03 -0.20568111010E+03  0.28027126661E+03  0.00000000000E+00 0.  1.
<mgrwt>
<rscale>  4 0.23343610E+03</rscale>
<asrwt>0</asrwt>
<pdfrwt beam="1">  1       21 0.25658664E-01 0.23343610E+03</pdfrwt>
<pdfrwt beam="2">  1        1 0.61840632E-01 0.23343610E+03</pdfrwt>
<totfact> 0.94587162E+03</totfact>
</mgrwt>
</event>
<event>
 5    0  0.4930573E+000  0.2951806E+03  0.7546771E-02  0.1087675E+00
         21   -1    0    0  503  502  0.00000000000E+00  0.00000000000E+00  0.68686062431E+03  0.68686062431E+03  0.00000000000E+00 0. -1.
          2   -1    0    0  502    0 -0.00000000000E+00 -0.00000000000E+00 -0.17368879480E+03  0.17368879480E+03  0.00000000000E+00 0. -1.
         25    1    1    2    0    0  0.29380116156E+03 -0.57296057042E+01  0.42750288994E+03  0.53360628915E+03  0.12500000000E+03 0.  0.
         21    1    1    2  503  501 -0.34395828346E+02  0.81013659023E+01  0.55477736785E+02  0.65776017026E+02  0.00000000000E+00 0. -1.
          2    1    1    2  501    0 -0.25940533322E+03 -0.23717601980E+01  0.30191202784E+02  0.26116711292E+03  0.00000000000E+00 0. -1.
<mgrwt>
<rscale>  4 0.29518063E+03</rscale>
<asrwt>0</asrwt>
<pdfrwt beam="1">  1       21 0.10567086E+00 0.29518063E+03</pdfrwt>
<pdfrwt beam="2">  1        2 0.26721353E-01 0.29518063E+03</pdfrwt>
<totfact> 0.16981501E+03</totfact>
</mgrwt>
</event>
