<event>
 5    0  0.1911311E+001  0.2738425E+03  0.7546771E-02  0.1099100E+00
         21   -1    0    0  502  501  0.00000000000E+00  0.00000000000E+00  0.20950610744E+03  0.20950610744E+03  0.00000000000E+00 0.  1.
         21   -1    0    0  504  502 -0.00000000000E+00 -0.00000000000E+00 -0.63858759815E+03  0.63858759815E+03  0.00000000000E+00 0.  1.
         25    1    1    2    0    0 -0.46332529842E+02 -0.27154118258E+03 -0.43712769537E+03  0.53158906989E+03  0.12500000000E+03 0.  0.
         21    1    1    2  503  501  0.60311990907E+02  0.23003080646E+03  0.63212609113E+02  0.24606410164E+03  0.00000000000E+00 0.  1.
         21    1    1    2  504  503 -0.13979461065E+02  0.41510376127E+02 -0.55166404454E+02  0.70440534057E+02  0.00000000000E+00 0.  1.
<mgrwt>
<rscale>  4 0.27384246E+03</rscale>
<asrwt>0</asrwt>
<pdfrwt beam="1">  1       21 0.32231709E-01 0.27384246E+03</pdfrwt>
<pdfrwt beam="2">  1       21 0.98244245E-01 0.27384246E+03</pdfrwt>
<totfact> 0.75289073E+03</totfact>
</mgrwt>
</event>
<event>
 5    0  0.1911311E+001  0.4314120E+03  0.7546771E-02  0.1033415E+00
         21   -1    0    0  504  501  0.00000000000E+00  0.00000000000E+00  0.10160377688E+04  0.10160377688E+04  0.00000000000E+00 0.  1.
         21   -1    0    0  503  502 -0.00000000000E+00 -0.00000000000E+00 -0.21396218309E+04  0.21396218309E+04  0.00000000000E+00 0.  1.
         25    1    1    2    0    0 -0.87648325583E+02 -0.27268798281E+03  0.71746735158E+03  0.78257610846E+03  0.12500000000E+03 0.  0.
         21    1    1    2  503  501  0.13896793999E+03  0.39253407801E+03 -0.20689994655E+04  0.21104866450E+04  0.00000000000E+00 0.  1.
         21    1    1    2  504  502 -0.51319614404E+02 -0.11984609521E+03  0.22794805178E+03  0.26259684627E+03  0.00000000000E+00 0.  1.
<mgrwt>
<rscale>  4 0.43141205E+03</rscale>
<asrwt>0</asrwt>
<pdfrwt beam="1">  1       21 0.15631350E+00 0.43141205E+03</pdfrwt>
<pdfrwt beam="2">  1       21 0.32917259E+00 0.43141205E+03</pdfrwt>
<totfact> 0.44915959E+00</totfact>
</mgrwt>
</event>
<event>
 5    0  0.1911311E+001  0.3089763E+03  0.7546771E-02  0.1080838E+00
         21   -1    0    0  502  501  0.00000000000E+00  0.00000000000E+00  0.52919981189E+03  0.52919981189E+03  0.00000000000E+00 0.  1.
         21   -1    0    0  504  502 -0.00000000000E+00 -0.00000000000E+00 -0.26168342096E+03  0.26168342096E+03  0.00000000000E+00 0.  1.
         25    1    1    2    0    0 -0.25361087740E+03 -0.18607780872E+03  0.10910065914E+03  0.35562815110E+03  0.12500000000E+03 0.  0.
         21    1    1    2  503  501  0.19702008869E+02  0.60880830201E+02  0.15743950959E+03  0.16994659108E+03  0.00000000000E+00 0.  1.
         21    1    1    2  504  503  0.23390886853E+03  0.12519697852E+03  0.97622219104E+00  0.26530849066E+03  0.00000000000E+00 0.  1.
<mgrwt>
<rscale>  4 0.30897633E+03</rscale>
<asrwt>0</asrwt>
<pdfrwt beam="1">  1       21 0.81415356E-01 0.30897633E+03</pdfrwt>
<pdfrwt beam="2">  1       21 0.40258988E-01 0.30897633E+03</pdfrwt>
<totfact> 0.73399368E+03</totfact>
</mgrwt>
</event>
<event>
 5    0  0.1911311E+001  0.2654770E+03  0.7546771E-02  0.1103896E+00
         21   -1    0    0  503  501  0.00000000000E+00  0.00000000000E+00  0.86753603156E+02  0.86753603156E+02  0.00000000000E+00 0. -1.
         21   -1    0    0  504  502 -0.00000000000E+00 -0.00000000000E+00 -0.87152146541E+03  0.87152146541E+03  0.00000000000E+00 0. -1.
         25    1    1    2    0    0  0.53192458485E+02  0.21279898569E+03 -0.24464607626E+03  0.35155305230E+03  0.12500000000E+03 0.  0.
         21    1    1    2  503  502 -0.69247552493E+02 -0.23151587684E+03 -0.52460804771E+03  0.57758845944E+03  0.00000000000E+00 0. -1.
         21    1    1    2  504  501  0.16055094008E+02  0.18716891148E+02 -0.15513738286E+02  0.29133556828E+02  0.00000000000E+00 0. -1.
<mgrwt>
<rscale>  4 0.26547703E+03</rscale>
<asrwt>0</asrwt>
<pdfrwt beam="1">  1       21 0.13346708E-01 0.26547703E+03</pdfrwt>
<pdfrwt beam="2">  1       21 0.13408023E+00 0.26547703E+03</pdfrwt>
<totfact> 0.18573746E+04</totfact>
</mgrwt>
</event>
<event>
 5    0  0.1911311E+001  0.3412090E+03  0.7546771E-02  0.1067426E+00
         21   -1    0    0  502  501  0.00000000000E+00  0.00000000000E+00  0.11067379247E+04  0.11067379247E+04  0.00000000000E+00 0.  1.
         21   -1    0    0  504  502 -0.00000000000E+00 -0.00000000000E+00 -0.15663902160E+03  0.15663902160E+03  0.00000000000E+00 0. -1.
         25    1    1    2    0    0 -0.20445215150E+03  0.22775091343E+03  0.96943560168E+02  0.34452026744E+03  0.12500000000E+03 0.  0.
         21    1    1    2  503  501  0.18758786598E+03 -0.12041882727E+03  0.66760522399E+03  0.70383708095E+03  0.00000000000E+00 0.  1.
         21    1    1    2  504  503  0.16864285519E+02 -0.10733208617E+03  0.18555011894E+03  0.21501959791E+03  0.00000000000E+00 0.  1.
<mgrwt>
<rscale>  4 0.33852515E+03</rscale>
<asrwt>0</asrwt>
<pdfrwt beam="1">  1       21 0.17026737E+00 0.34120896E+03</pdfrwt>
<pdfrwt beam="2">  1       21 0.24098312E-01 0.34120896E+03</pdfrwt>
<totfact> 0.31118193E+03</totfact>
</mgrwt>
</event>
<event>
 5    0  0.1911311E+001  0.2888457E+03  0.7546771E-02  0.1090953E+00
         21   -1    0    0  502  501  0.00000000000E+00  0.00000000000E+00  0.70167566875E+03  0.70167566875E+03  0.00000000000E+00 0. -1.
         21   -1    0    0  504  502 -0.00000000000E+00 -0.00000000000E+00 -0.31272983328E+03  0.31272983328E+03  0.00000000000E+00 0. -1.
         25    1    1    2    0    0 -0.27462592969E+03  0.56252531455E+02 -0.15404857491E+03  0.34342351694E+03  0.12500000000E+03 0.  0.
         21    1    1    2  503  501  0.58754050279E+02 -0.17069316234E+02  0.40974714154E+03  0.41428989847E+03  0.00000000000E+00 0. -1.
         21    1    1    2  504  503  0.21587187941E+03 -0.39183215221E+02  0.13324726885E+03  0.25669208662E+03  0.00000000000E+00 0. -1.
<mgrwt>
<rscale>  4 0.28884572E+03</rscale>
<asrwt>0</asrwt>
<pdfrwt beam="1">  1       21 0.10795010E+00 0.28884572E+03</pdfrwt>
<pdfrwt beam="2">  1       21 0.48112282E-01 0.28884572E+03</pdfrwt>
<totfact> 0.26306051E+03</totfact>
</mgrwt>
</event>
