<LesHouchesEvents version="3.0">
  <!--
  <scalesfunctionalform>
    muR  H_T/2 := sum_i mT(i)/2, i=final state
    muF1 H_T/2 := sum_i mT(i)/2, i=final state
    muF2 H_T/2 := sum_i mT(i)/2, i=final state
    QES  H_T/2 := sum_i mT(i)/2, i=final state
  </scalesfunctionalform>
HERWIG6   
  -->
  <header>
      165
  </header>
  <init>
   2212   2212 0.65000000D+04 0.65000000D+04 -1 -1   247000   247000 -3   1
 0.30155768D-01 0.60701724D-03 0.42910585D-03     66
  </init>
  <event>
  5     66 0.42910585E-03 0.90689742E+02 0.75467711E-02 0.11236169E+00
       21 -1    0    0  501  502 0.00000000E+00 0.00000000E+00 0.42031011E+02 0.42037702E+02 0.75000000E+00 0.0000E+00 0.9000E+01
        2 -1    0    0  502    0 0.00000000E+00 0.00000000E+00 -.12849777E+04 0.12849778E+04 0.32000000E+00 0.0000E+00 0.9000E+01
       25  1    1    2    0    0 -.64670645E+02 -.10991011E+02 -.65080665E+03 0.66594098E+03 0.12500000E+03 0.0000E+00 0.9000E+01
       24  1    1    2    0    0 0.11091989E+02 0.11641017E+03 -.47045193E+03 0.49139250E+03 0.80419002E+02 0.0000E+00 0.9000E+01
        1  1    1    2  501    0 0.53578656E+02 -.10541916E+03 -.12168816E+03 0.16968201E+03 0.32000000E+00 0.0000E+00 0.9000E+01
#aMCatNLO 1  0  0  1  2 0.67746132D+02 0.00000000D+00  -5  6  0 0.00000000D+00 0.00000000D+00 0.00000000D+00 0.00000000D+00 0.00000000D+00
  <mgrwgt>
 0.5343178838D-01   32    2    0
 0.232407787768717D+03 0.000000000000000D+00 0.000000000000000D+00 0.232407787768717D+03
 0.232407787768717D+03 0.000000000000000D+00 0.000000000000000D+00 -.232407787768717D+03
 0.160915469296089D+03 -.646706823308156D+02 -.109909374114344D+02 -.772378819004327D+02
 0.144872094575208D+03 0.110919553568036D+02 0.116410240738459D+03 -.290917893883178D+02
 0.159028011666136D+03 0.535787269740120D+02 -.105419303327025D+03 0.106329671288751D+03
 0.000000000000000D+00 0.000000000000000D+00 -.000000000000000D+00 0.000000000000000D+00
 0.439651571284233D+03 0.000000000000000D+00 0.000000000000000D+00 0.439651571284233D+03
 0.240466073284344D+03 0.000000000000000D+00 0.000000000000000D+00 -.240466073284344D+03
 0.161827055401157D+03 -.666749282262718D+02 0.123190667408467D+02 -.772378819004327D+02
 0.163168484519689D+03 0.917900921850325D+01 0.138658400272158D+03 -.290917893883178D+02
 0.144731037682902D+03 0.516923693319981D+02 -.834803762883237D+02 0.106329671288751D+03
 0.210391066964828D+03 0.580354967577052D+01 -.674970907246809D+02 0.199185497999889D+03
0.267249460317D-05 0.000000000000D+00 0.000000000000D+00 0.306322720376D-06 0.000000000000D+00  6 21 2 25 24 1 21 2 0.64668271D-02 0.19768940D+00 0.40268764D+05 0.40268764D+05 0.40268764D+05 0.12017050D+01  1  2  2  1  6  1       21 0.153059265027D-01 0.100000000000D+01
-.103378947204D-06 0.141031414828D-06 -.539499662397D-08 0.306322720376D-06 0.000000000000D+00  6 21 2 25 24 1 21 4 0.64668271D-02 0.19768940D+00 0.40268764D+05 0.40268764D+05 0.40268764D+05 0.12017050D+01  1  2  3  1  6  1       21 -.855008935260D-03 0.100000000000D+01
0.344503592259D-06 0.000000000000D+00 0.000000000000D+00 0.306322720376D-06 0.000000000000D+00  6 21 2 25 24 1 21 4 0.64668271D-02 0.19768940D+00 0.40268764D+05 0.40268764D+05 0.40268764D+05 0.12017050D+01  1  2 15  1  6  1       21 0.284926145581D-02 0.100000000000D+01
0.162020597309D-04 0.000000000000D+00 0.000000000000D+00 0.299510164439D-06 0.000000000000D+00  6 21 2 25 24 1 21 4 0.12251262D-01 0.19768940D+00 0.54918602D+05 0.54918602D+05 0.54918602D+05 0.11882671D+01  1  2 12  1  6  1       21 0.413206333930D-01 0.100000000000D+01
0.149919043589D-04 0.000000000000D+00 0.000000000000D+00 0.299510164439D-06 0.000000000000D+00  6 21 2 25 24 1 21 4 0.13290254D-01 0.19768940D+00 0.54918602D+05 0.54918602D+05 0.54918602D+05 0.11882671D+01  1  2 12  1  6  1       21 0.330079519527D-01 0.100000000000D+01
-.144217436154D-04 0.000000000000D+00 0.000000000000D+00 0.306322720376D-06 0.000000000000D+00  6 21 2 25 24 1 21 4 0.64668271D-02 0.19768940D+00 0.40268764D+05 0.40268764D+05 0.40268764D+05 0.12017050D+01  1  2  4  1  6  1       21 -.119276893281D+00 0.100000000000D+01
-.295327743332D-04 0.000000000000D+00 -.364191609201D-05 0.306322720376D-06 0.000000000000D+00  6 21 2 25 24 1 21 4 0.12604035D-01 0.19768940D+00 0.40268764D+05 0.40268764D+05 0.40268764D+05 0.12017050D+01  1  2  5  1  6  1       21 -.756162672241D-01 0.100000000000D+01
0.186516821629D-04 0.000000000000D+00 0.170362004258D-05 0.306322720376D-06 0.000000000000D+00  6 21 2 25 24 1 21 4 0.64668271D-02 0.19768940D+00 0.40268764D+05 0.40268764D+05 0.40268764D+05 0.12017050D+01  1  2  6  1  6  1       21 0.154261146377D+00 0.100000000000D+01
0.368655267481D-05 0.000000000000D+00 0.000000000000D+00 0.299510164439D-06 0.000000000000D+00  6 -1 2 25 24 1 -1 4 0.12251262D-01 0.19768940D+00 0.54918602D+05 0.54918602D+05 0.54918602D+05 0.11882671D+01  1  2 12  4  6  1       21 0.667136418020D-03 0.100000000000D+01
0.383893375003D-05 0.000000000000D+00 0.000000000000D+00 0.299510164439D-06 0.000000000000D+00  6 -1 2 25 24 1 -1 4 0.13290254D-01 0.19768940D+00 0.54918602D+05 0.54918602D+05 0.54918602D+05 0.11882671D+01  1  2 12  4  6  1       21 0.611375254146D-03 0.100000000000D+01
-.520654276006D-05 0.000000000000D+00 -.866285774824D-06 0.306322720376D-06 0.000000000000D+00  6 -1 2 25 24 1 -1 4 0.12604035D-01 0.19768940D+00 0.40268764D+05 0.40268764D+05 0.40268764D+05 0.12017050D+01  1  2  5  4  6  1       21 -.945635269058D-03 0.100000000000D+01
0.368655267481D-05 0.000000000000D+00 0.000000000000D+00 0.299510164439D-06 0.000000000000D+00  6 1 2 25 24 1 1 4 0.12251262D-01 0.19768940D+00 0.54918602D+05 0.54918602D+05 0.54918602D+05 0.11882671D+01  1  2 12  5  6  1       21 0.872646493760D-03 0.100000000000D+01
0.383893375003D-05 0.000000000000D+00 0.000000000000D+00 0.299510164439D-06 0.000000000000D+00  6 1 2 25 24 1 1 4 0.13290254D-01 0.19768940D+00 0.54918602D+05 0.54918602D+05 0.54918602D+05 0.11882671D+01  1  2 12  5  6  1       21 0.815672107114D-03 0.100000000000D+01
-.520654276006D-05 0.000000000000D+00 -.866285774824D-06 0.306322720376D-06 0.000000000000D+00  6 1 2 25 24 1 1 4 0.12604035D-01 0.19768940D+00 0.40268764D+05 0.40268764D+05 0.40268764D+05 0.12017050D+01  1  2  5  5  6  1       21 -.124574067797D-02 0.100000000000D+01
0.368655267481D-05 0.000000000000D+00 0.000000000000D+00 0.299510164439D-06 0.000000000000D+00  6 -2 2 25 24 1 -2 4 0.12251262D-01 0.19768940D+00 0.54918602D+05 0.54918602D+05 0.54918602D+05 0.11882671D+01  1  2 12  6  6  1       21 0.631747592066D-03 0.100000000000D+01
0.383893375003D-05 0.000000000000D+00 0.000000000000D+00 0.299510164439D-06 0.000000000000D+00  6 -2 2 25 24 1 -2 4 0.13290254D-01 0.19768940D+00 0.54918602D+05 0.54918602D+05 0.54918602D+05 0.11882671D+01  1  2 12  6  6  1       21 0.576280371613D-03 0.100000000000D+01
-.520654276006D-05 0.000000000000D+00 -.866285774824D-06 0.306322720376D-06 0.000000000000D+00  6 -2 2 25 24 1 -2 4 0.12604035D-01 0.19768940D+00 0.40268764D+05 0.40268764D+05 0.40268764D+05 0.12017050D+01  1  2  5  6  6  1       21 -.893914219095D-03 0.100000000000D+01
0.368655267481D-05 0.000000000000D+00 0.000000000000D+00 0.299510164439D-06 0.000000000000D+00  6 2 2 25 24 1 2 4 0.12251262D-01 0.19768940D+00 0.54918602D+05 0.54918602D+05 0.54918602D+05 0.11882671D+01  1  2 12  7  6  1       21 0.101370194663D-02 0.100000000000D+01
0.383893375003D-05 0.000000000000D+00 0.000000000000D+00 0.299510164439D-06 0.000000000000D+00  6 2 2 25 24 1 2 4 0.13290254D-01 0.19768940D+00 0.54918602D+05 0.54918602D+05 0.54918602D+05 0.11882671D+01  1  2 12  7  6  1       21 0.956470226548D-03 0.100000000000D+01
-.520654276006D-05 0.000000000000D+00 -.866285774824D-06 0.306322720376D-06 0.000000000000D+00  6 2 2 25 24 1 2 4 0.12604035D-01 0.19768940D+00 0.40268764D+05 0.40268764D+05 0.40268764D+05 0.12017050D+01  1  2  5  7  6  1       21 -.145157352680D-02 0.100000000000D+01
0.368655267481D-05 0.000000000000D+00 0.000000000000D+00 0.299510164439D-06 0.000000000000D+00  6 -3 2 25 24 1 -3 4 0.12251262D-01 0.19768940D+00 0.54918602D+05 0.54918602D+05 0.54918602D+05 0.11882671D+01  1  2 12  8  6  1       21 0.436834823373D-03 0.100000000000D+01
0.368655267481D-05 0.000000000000D+00 0.000000000000D+00 0.299510164439D-06 0.000000000000D+00  6 -4 2 25 24 1 -4 4 0.12251262D-01 0.19768940D+00 0.54918602D+05 0.54918602D+05 0.54918602D+05 0.11882671D+01  1  2 12  8  6  1       21 0.382698980081D-03 0.100000000000D+01
0.383893375003D-05 0.000000000000D+00 0.000000000000D+00 0.299510164439D-06 0.000000000000D+00  6 -3 2 25 24 1 -3 4 0.13290254D-01 0.19768940D+00 0.54918602D+05 0.54918602D+05 0.54918602D+05 0.11882671D+01  1  2 12  8  6  1       21 0.395941997472D-03 0.100000000000D+01
0.383893375003D-05 0.000000000000D+00 0.000000000000D+00 0.299510164439D-06 0.000000000000D+00  6 -4 2 25 24 1 -4 4 0.13290254D-01 0.19768940D+00 0.54918602D+05 0.54918602D+05 0.54918602D+05 0.11882671D+01  1  2 12  8  6  1       21 0.345923440496D-03 0.100000000000D+01
-.520654276006D-05 0.000000000000D+00 -.866285774824D-06 0.306322720376D-06 0.000000000000D+00  6 -3 2 25 24 1 -3 4 0.12604035D-01 0.19768940D+00 0.40268764D+05 0.40268764D+05 0.40268764D+05 0.12017050D+01  1  2  5  8  6  1       21 -.612953322750D-03 0.100000000000D+01
-.520654276006D-05 0.000000000000D+00 -.866285774824D-06 0.306322720376D-06 0.000000000000D+00  6 -4 2 25 24 1 -4 4 0.12604035D-01 0.19768940D+00 0.40268764D+05 0.40268764D+05 0.40268764D+05 0.12017050D+01  1  2  5  8  6  1       21 -.534998902773D-03 0.100000000000D+01
0.368655267481D-05 0.000000000000D+00 0.000000000000D+00 0.299510164439D-06 0.000000000000D+00  6 3 2 25 24 1 3 4 0.12251262D-01 0.19768940D+00 0.54918602D+05 0.54918602D+05 0.54918602D+05 0.11882671D+01  1  2 12  9  6  1       21 0.436784488260D-03 0.100000000000D+01
0.368655267481D-05 0.000000000000D+00 0.000000000000D+00 0.299510164439D-06 0.000000000000D+00  6 4 2 25 24 1 4 4 0.12251262D-01 0.19768940D+00 0.54918602D+05 0.54918602D+05 0.54918602D+05 0.11882671D+01  1  2 12  9  6  1       21 0.382698980081D-03 0.100000000000D+01
0.383893375003D-05 0.000000000000D+00 0.000000000000D+00 0.299510164439D-06 0.000000000000D+00  6 3 2 25 24 1 3 4 0.13290254D-01 0.19768940D+00 0.54918602D+05 0.54918602D+05 0.54918602D+05 0.11882671D+01  1  2 12  9  6  1       21 0.395897107174D-03 0.100000000000D+01
0.383893375003D-05 0.000000000000D+00 0.000000000000D+00 0.299510164439D-06 0.000000000000D+00  6 4 2 25 24 1 4 4 0.13290254D-01 0.19768940D+00 0.54918602D+05 0.54918602D+05 0.54918602D+05 0.11882671D+01  1  2 12  9  6  1       21 0.345923440496D-03 0.100000000000D+01
-.520654276006D-05 0.000000000000D+00 -.866285774824D-06 0.306322720376D-06 0.000000000000D+00  6 3 2 25 24 1 3 4 0.12604035D-01 0.19768940D+00 0.40268764D+05 0.40268764D+05 0.40268764D+05 0.12017050D+01  1  2  5  9  6  1       21 -.612880709596D-03 0.100000000000D+01
-.520654276006D-05 0.000000000000D+00 -.866285774824D-06 0.306322720376D-06 0.000000000000D+00  6 4 2 25 24 1 4 4 0.12604035D-01 0.19768940D+00 0.40268764D+05 0.40268764D+05 0.40268764D+05 0.12017050D+01  1  2  5  9  6  1       21 -.534998902773D-03 0.100000000000D+01
  </mgrwgt>
  </event>
  <event>
  5     66 0.42910585E-03 0.61008329E+02 0.75467711E-02 0.10851196E+00
       21 -1    0    0  501  502 0.00000000E+00 0.00000000E+00 0.12217043E+02 0.12240043E+02 0.75000000E+00 0.0000E+00 0.9000E+01
        2 -1    0    0  502    0 0.00000000E+00 0.00000000E+00 -.28473565E+04 0.28473565E+04 0.32000000E+00 0.0000E+00 0.9000E+01
       25  1    1    2    0    0 0.40314672E+02 0.70523088E+02 -.21826362E+04 0.21877213E+04 0.12500000E+03 0.0000E+00 0.9000E+01
       24  1    1    2    0    0 -.27948518E+02 -.10781409E+02 -.50521180E+03 0.51244857E+03 0.80419002E+02 0.0000E+00 0.9000E+01
        1  1    1    2  501    0 -.12366154E+02 -.59741679E+02 -.14729151E+03 0.15942673E+03 0.32000000E+00 0.0000E+00 0.9000E+01
#aMCatNLO 1  0  0  1  2 0.23587239D+03 0.00000000D+00  -5  6  0 0.00000000D+00 0.00000000D+00 0.00000000D+00 0.00000000D+00 0.00000000D+00
  <mgrwgt>
 0.7775863387D-01    3    2    0
 0.186599003718673D+03 0.000000000000000D+00 0.000000000000000D+00 0.186599003718673D+03
 0.186599003718673D+03 0.000000000000000D+00 0.000000000000000D+00 -.186599003718673D+03
 0.182000992327430D+03 0.403147010452588D+02 0.705232292992952D+02 -.104405748007471D+03
 0.885595501736184D+02 -.279485035753556D+02 -.107813399114898D+02 0.218682836590884D+02
 0.102637464936299D+03 -.123661974699031D+02 -.597418893878054D+02 0.825374643483826D+02
 0.000000000000000D+00 -.000000000000000D+00 -.000000000000000D+00 -.000000000000000D+00
 0.335561229802627D+03 0.000000000000000D+00 0.000000000000000D+00 0.335561229802627D+03
 0.341884916920321D+03 0.000000000000000D+00 0.000000000000000D+00 -.341884916920321D+03
 0.263504645981074D+03 0.138983499582716D+03 0.153599235285703D+03 -.104405748007471D+03
 0.868636030351469D+02 0.109035114709168D+02 0.219308272823046D+02 0.218682836590884D+02
 0.911207522422397D+02 0.305465938661459D+02 -.236106770616142D+02 0.825374643483826D+02
 0.235957145464488D+03 -.180433604919779D+03 -.151919385506393D+03 -.632368711769444D+01
0.951623793403D-05 0.000000000000D+00 0.000000000000D+00 0.555339997167D-06 0.000000000000D+00  6 21 2 25 24 1 21 2 0.18813157D-02 0.43805662D+00 0.21889485D+05 0.21889485D+05 0.21889485D+05 0.12295331D+01  1  2  2  1  6  1       21 0.668761882210D-01 0.100000000000D+01
-.187993447108D-08 0.502185672551D-06 -.192105426391D-07 0.555339997167D-06 0.000000000000D+00  6 21 2 25 24 1 21 4 0.18813157D-02 0.43805662D+00 0.21889485D+05 0.21889485D+05 0.21889485D+05 0.12295331D+01  1  2  3  1  6  1       21 -.199723586637D-04 0.100000000000D+01
0.102620986219D-05 0.000000000000D+00 0.000000000000D+00 0.555339997167D-06 0.000000000000D+00  6 21 2 25 24 1 21 4 0.18813157D-02 0.43805662D+00 0.21889485D+05 0.21889485D+05 0.21889485D+05 0.12295331D+01  1  2 15  1  6  1       21 0.109024180082D-01 0.100000000000D+01
  </mgrwgt>
  </event>
  <event>
  6     66 -.42910585E-03 0.64683021E+02 0.75467711E-02 0.11745643E+00
       21 -1    0    0  501  502 0.00000000E+00 0.00000000E+00 0.42595241E+02 0.42601843E+02 0.75000000E+00 0.0000E+00 0.9000E+01
        2 -1    0    0  503    0 0.00000000E+00 0.00000000E+00 -.75557473E+03 0.75557480E+03 0.32000000E+00 0.0000E+00 0.9000E+01
       25  1    1    2    0    0 -.87017478E+02 -.10677945E+01 -.29111371E+03 0.32855041E+03 0.12500000E+03 0.0000E+00 0.9000E+01
       24  1    1    2    0    0 0.49741675E+02 0.60997159E+02 -.16192220E+03 0.19718241E+03 0.80419002E+02 0.0000E+00 0.9000E+01
        1  1    1    2  501    0 0.46148432E+02 -.53033694E+02 -.22575830E+03 0.23645118E+03 0.32000000E+00 0.0000E+00 0.9000E+01
       21  1    1    2  503  502 -.88726294E+01 -.68956706E+01 -.34185295E+02 0.35992648E+02 0.75000000E+00 0.0000E+00 0.9000E+01
#aMCatNLO 2  0  0  2  1 0.11237163D+02 0.00000000D+00  -5  6  0 0.00000000D+00 0.00000000D+00 0.00000000D+00 0.00000000D+00 0.00000000D+00
  <mgrwgt>
 -.8609291625D-01    3    2    0
 0.173231497592249D+03 0.000000000000000D+00 0.000000000000000D+00 0.173231497592249D+03
 0.173231497592249D+03 0.000000000000000D+00 0.000000000000000D+00 -.173231497592249D+03
 0.154674640858897D+03 -.909478657721044D+02 -.412209518483462D+01 0.327697537604472D+01
 0.114053996374339D+03 0.467904291166158D+02 0.587037441456181D+02 0.300935923571106D+02
 0.777343579512611D+02 0.441574366554887D+02 -.545816489607835D+02 -.333705677331553D+02
 0.000000000000000D+00 -.000000000000000D+00 -.000000000000000D+00 -.000000000000000D+00
 0.177067659589393D+03 0.000000000000000D+00 0.000000000000000D+00 0.177067659589393D+03
 0.181751927807895D+03 0.000000000000000D+00 0.000000000000000D+00 -.181751927807895D+03
 0.152344833792578D+03 -.870176423231094D+02 -.106758615599283D+01 0.327697537604472D+01
 0.116480618394028D+03 0.497415531448104D+02 0.609973122102170D+02 0.300935923571106D+02
 0.778197278715187D+02 0.461487185322546D+02 -.530340554077742D+02 -.333705677331553D+02
 0.121744073391624D+02 -.887262935395555D+01 -.689567064644990D+01 -.468426821850189D+01
-.104627935178D-04 0.000000000000D+00 0.000000000000D+00 0.175492149990D-06 0.000000000000D+00  6 21 2 25 24 1 21 4 0.64112286D-02 0.11741731D+00 0.29993805D+05 0.29993805D+05 0.29993805D+05 0.12149078D+01  1  2 13  2  6  2        2 -.190919637235D+00 0.100000000000D+01
-.146718408707D-05 0.000000000000D+00 0.000000000000D+00 0.176387247832D-06 0.000000000000D+00  6 21 2 25 24 1 21 4 0.64112286D-02 0.11078622D+00 0.28032678D+05 0.28032678D+05 0.28032678D+05 0.12180022D+01  1  2  8  2  6  2        2 -.290336708244D-01 0.100000000000D+01
0.752233146351D-05 0.000000000000D+00 0.000000000000D+00 0.176387247832D-06 0.175370004662D-07  6 21 2 25 24 1 21 4 0.65532034D-02 0.11623527D+00 0.29993805D+05 0.29993805D+05 0.29993805D+05 0.12149078D+01  1  2  1  2  6  2        2 0.133860391814D+00 0.100000000000D+01
  </mgrwgt>
  </event>
  <event>
  5     66 0.42910585E-03 0.36833560E+03 0.75467711E-02 0.97306164E-01
       21 -1    0    0  501  502 0.00000000E+00 0.00000000E+00 0.11373673E+03 0.11373921E+03 0.75000000E+00 0.0000E+00 0.9000E+01
        2 -1    0    0  502    0 0.00000000E+00 0.00000000E+00 -.29634062E+04 0.29634063E+04 0.32000000E+00 0.0000E+00 0.9000E+01
       25  1    1    2    0    0 0.28257763E+03 0.19810059E+03 -.90598813E+03 0.97751392E+03 0.12500000E+03 0.0000E+00 0.9000E+01
       24  1    1    2    0    0 0.64093126E+02 -.32256122E+03 -.14173069E+04 0.14571822E+04 0.80419002E+02 0.0000E+00 0.9000E+01
        1  1    1    2  501    0 -.34667076E+03 0.12446063E+03 -.52637443E+03 0.64244938E+03 0.32000000E+00 0.0000E+00 0.9000E+01
#aMCatNLO 1  0  0  1  1 0.28244058D+03 0.00000000D+00  -5  6  0 0.00000000D+00 0.00000000D+00 0.00000000D+00 0.00000000D+00 0.00000000D+00
  <mgrwgt>
 0.4841465673D-01   14    2    0
 0.580561774133258D+03 0.000000000000000D+00 0.000000000000000D+00 0.580561774133258D+03
 0.580561774133258D+03 0.000000000000000D+00 0.000000000000000D+00 -.580561774133258D+03
 0.367046024510075D+03 0.282577665216373D+03 0.198100579758066D+03 -.195128906931107D+01
 0.383340026491592D+03 0.640931609486752D+02 -.322561232751153D+03 -.179801773633822D+03
 0.410737497264849D+03 -.346670826165049D+03 0.124460652993086D+03 0.181753062703133D+03
 0.000000000000000D+00 -.000000000000000D+00 0.000000000000000D+00 0.000000000000000D+00
 0.740234626726648D+03 0.000000000000000D+00 0.000000000000000D+00 0.740234626726648D+03
 0.737203624377054D+03 0.000000000000000D+00 0.000000000000000D+00 -.737203624377054D+03
 0.428018743940517D+03 0.373128877585413D+03 0.168362936382196D+03 -.195128906931107D+01
 0.433811443203412D+03 0.157159863444151D+03 -.353124980453386D+03 -.179801773633822D+03
 0.333151224278966D+03 -.261948136547299D+03 0.966371367332571D+02 0.181753062703133D+03
 0.282456839680809D+03 -.268340604482265D+03 0.881249073379336D+02 0.303100234959378D+01
0.260903365462D-03 0.000000000000D+00 0.000000000000D+00 0.233961159768D-07 0.000000000000D+00  6 21 2 25 24 1 21 2 0.17498150D-01 0.45590884D+00 0.28833330D+06 0.28833330D+06 0.28833330D+06 0.11235492D+01  1  2  2  1  6  1       21 0.239424450680D-01 0.100000000000D+01
-.175824310143D-04 0.137682488567D-04 -.526688725276D-06 0.233961159768D-07 0.000000000000D+00  6 21 2 25 24 1 21 4 0.17498150D-01 0.45590884D+00 0.28833330D+06 0.28833330D+06 0.28833330D+06 0.11235492D+01  1  2  3  1  6  1       21 -.203681664585D-02 0.100000000000D+01
0.292649141452D-04 0.000000000000D+00 0.000000000000D+00 0.233961159768D-07 0.000000000000D+00  6 21 2 25 24 1 21 4 0.17498150D-01 0.45590884D+00 0.28833330D+06 0.28833330D+06 0.28833330D+06 0.11235492D+01  1  2 15  1  6  1       21 0.339016056549D-02 0.100000000000D+01
-.937336342090D-05 0.000000000000D+00 0.000000000000D+00 0.233961159768D-07 0.000000000000D+00  6 21 2 25 24 1 21 4 0.17498150D-01 0.45590884D+00 0.28833330D+06 0.28833330D+06 0.28833330D+06 0.11235492D+01  1  2  4  1  6  1       21 -.108584658332D-02 0.100000000000D+01
-.239596604978D-03 0.000000000000D+00 -.343489489732D-03 0.233961159768D-07 0.000000000000D+00  6 21 2 25 24 1 21 4 0.33192142D-01 0.45590884D+00 0.28833330D+06 0.28833330D+06 0.28833330D+06 0.11235492D+01  1  2  5  1  6  1       21 -.797473895538D-02 0.100000000000D+01
0.280749253147D-03 0.000000000000D+00 0.169375143890D-03 0.233961159768D-07 0.000000000000D+00  6 21 2 25 24 1 21 4 0.17498150D-01 0.45590884D+00 0.28833330D+06 0.28833330D+06 0.28833330D+06 0.11235492D+01  1  2  6  1  6  1       21 0.325230766811D-01 0.100000000000D+01
-.130917373204D-04 0.000000000000D+00 -.783514840911D-04 0.233961159768D-07 0.000000000000D+00  6 -1 2 25 24 1 -1 4 0.33192142D-01 0.45590884D+00 0.28833330D+06 0.28833330D+06 0.28833330D+06 0.11235492D+01  1  2  5  4  6  1       21 -.412154918528D-04 0.100000000000D+01
-.130917373204D-04 0.000000000000D+00 -.783514840911D-04 0.233961159768D-07 0.000000000000D+00  6 1 2 25 24 1 1 4 0.33192142D-01 0.45590884D+00 0.28833330D+06 0.28833330D+06 0.28833330D+06 0.11235492D+01  1  2  5  5  6  1       21 -.759552426442D-04 0.100000000000D+01
-.130917373204D-04 0.000000000000D+00 -.783514840911D-04 0.233961159768D-07 0.000000000000D+00  6 -2 2 25 24 1 -2 4 0.33192142D-01 0.45590884D+00 0.28833330D+06 0.28833330D+06 0.28833330D+06 0.11235492D+01  1  2  5  6  6  1       21 -.358715887480D-04 0.100000000000D+01
-.130917373204D-04 0.000000000000D+00 -.783514840911D-04 0.233961159768D-07 0.000000000000D+00  6 2 2 25 24 1 2 4 0.33192142D-01 0.45590884D+00 0.28833330D+06 0.28833330D+06 0.28833330D+06 0.11235492D+01  1  2  5  7  6  1       21 -.102029422249D-03 0.100000000000D+01
-.130917373204D-04 0.000000000000D+00 -.783514840911D-04 0.233961159768D-07 0.000000000000D+00  6 -3 2 25 24 1 -3 4 0.33192142D-01 0.45590884D+00 0.28833330D+06 0.28833330D+06 0.28833330D+06 0.11235492D+01  1  2  5  8  6  1       21 -.238643804096D-04 0.100000000000D+01
-.130917373204D-04 0.000000000000D+00 -.783514840911D-04 0.233961159768D-07 0.000000000000D+00  6 -4 2 25 24 1 -4 4 0.33192142D-01 0.45590884D+00 0.28833330D+06 0.28833330D+06 0.28833330D+06 0.11235492D+01  1  2  5  8  6  1       21 -.204100783366D-04 0.100000000000D+01
-.130917373204D-04 0.000000000000D+00 -.783514840911D-04 0.233961159768D-07 0.000000000000D+00  6 3 2 25 24 1 3 4 0.33192142D-01 0.45590884D+00 0.28833330D+06 0.28833330D+06 0.28833330D+06 0.11235492D+01  1  2  5  9  6  1       21 -.238671171201D-04 0.100000000000D+01
-.130917373204D-04 0.000000000000D+00 -.783514840911D-04 0.233961159768D-07 0.000000000000D+00  6 4 2 25 24 1 4 4 0.33192142D-01 0.45590884D+00 0.28833330D+06 0.28833330D+06 0.28833330D+06 0.11235492D+01  1  2  5  9  6  1       21 -.204100783366D-04 0.100000000000D+01
  </mgrwgt>
  </event>
  <event>
  5     66 0.42910585E-03 0.26610394E+02 0.75467711E-02 0.10165480E+00
       21 -1    0    0  501  502 0.00000000E+00 0.00000000E+00 0.11878943E+02 0.11902596E+02 0.75000000E+00 0.0000E+00 0.9000E+01
        2 -1    0    0  502    0 0.00000000E+00 0.00000000E+00 -.20628267E+04 0.20628267E+04 0.32000000E+00 0.0000E+00 0.9000E+01
       25  1    1    2    0    0 -.41341289E+01 0.20724118E+02 -.67597992E+03 0.68776481E+03 0.12500000E+03 0.0000E+00 0.9000E+01
       24  1    1    2    0    0 -.11042907E+02 -.42581729E+02 -.13394509E+04 0.13425838E+04 0.80419002E+02 0.0000E+00 0.9000E+01
        1  1    1    2  501    0 0.15177036E+02 0.21857612E+02 -.35516893E+02 0.44380736E+02 0.32000000E+00 0.0000E+00 0.9000E+01
#aMCatNLO 1  0  0  1  2 0.19762746D+03 0.00000000D+00  -5  6  0 0.00000000D+00 0.00000000D+00 0.00000000D+00 0.00000000D+00 0.00000000D+00
  <mgrwgt>
 0.2179939736D+00   12    2    0
 0.156616611871664D+03 0.000000000000000D+00 0.000000000000000D+00 0.156616611871664D+03
 0.156616611871664D+03 0.000000000000000D+00 0.000000000000000D+00 -.156616611871664D+03
 0.129380558034054D+03 -.413421402984868D+01 0.207239949512280D+02 0.258409191945644D+02
 0.122445801745308D+03 -.110429874690139D+02 -.425818451678204D+02 -.811824938058917D+02
 0.614068639639672D+02 0.151772014988626D+02 0.218578502165924D+02 0.553415746113273D+02
 0.000000000000000D+00 -.000000000000000D+00 0.000000000000000D+00 0.000000000000000D+00
 0.681772913450626D+03 0.000000000000000D+00 0.000000000000000D+00 0.681772913450626D+03
 0.405296795702962D+03 0.000000000000000D+00 0.000000000000000D+00 -.405296795702962D+03
 0.219346492900509D+03 0.178380556967360D+03 0.712558031157254D+00 0.258409191945644D+02
 0.207139015637522D+03 0.161453230726779D+03 -.614948195562258D+02 -.811824938058917D+02
 0.127019271881281D+03 0.113794595651453D+03 0.110451595421674D+02 0.553415746113273D+02
 0.533564928734276D+03 -.453628383345592D+03 0.497371019829011D+02 0.276476117747663D+03
0.226447040398D-05 0.000000000000D+00 0.000000000000D+00 0.166235258388D-05 0.000000000000D+00  6 21 2 25 24 1 21 2 0.18293511D-02 0.31735977D+00 0.15012203D+05 0.15012203D+05 0.15012203D+05 0.12477823D+01  1  2  2  1  6  1       21 0.451863165177D-01 0.100000000000D+01
0.183034891257D-06 0.119499386278D-06 -.457131332278D-08 0.166235258388D-05 0.000000000000D+00  6 21 2 25 24 1 21 4 0.18293511D-02 0.31735977D+00 0.15012203D+05 0.15012203D+05 0.15012203D+05 0.12477823D+01  1  2  3  1  6  1       21 0.568658846115D-02 0.100000000000D+01
0.304388772003D-06 0.000000000000D+00 0.000000000000D+00 0.166235258388D-05 0.000000000000D+00  6 21 2 25 24 1 21 4 0.18293511D-02 0.31735977D+00 0.15012203D+05 0.15012203D+05 0.15012203D+05 0.12477823D+01  1  2 15  1  6  1       21 0.945685091341D-02 0.100000000000D+01
0.140838783295D-02 0.000000000000D+00 -.569896105446D-03 0.166235258388D-05 0.000000000000D+00  6 21 2 25 24 1 21 4 0.52826953D-01 0.31735977D+00 0.15012203D+05 0.15012203D+05 0.15012203D+05 0.12477823D+01  1  2  5  1  6  1       21 0.111646967974D+00 0.100000000000D+01
0.624674650675D-03 0.000000000000D+00 -.252815991437D-03 0.166235258388D-05 0.000000000000D+00  6 -1 2 25 24 1 -1 4 0.52826953D-01 0.31735977D+00 0.15012203D+05 0.15012203D+05 0.15012203D+05 0.12477823D+01  1  2  5  4  6  1       21 0.489788248614D-02 0.100000000000D+01
0.624674650675D-03 0.000000000000D+00 -.252815991437D-03 0.166235258388D-05 0.000000000000D+00  6 1 2 25 24 1 1 4 0.52826953D-01 0.31735977D+00 0.15012203D+05 0.15012203D+05 0.15012203D+05 0.12477823D+01  1  2  5  5  6  1       21 0.115233513823D-01 0.100000000000D+01
0.624674650675D-03 0.000000000000D+00 -.252815991437D-03 0.166235258388D-05 0.000000000000D+00  6 -2 2 25 24 1 -2 4 0.52826953D-01 0.31735977D+00 0.15012203D+05 0.15012203D+05 0.15012203D+05 0.12477823D+01  1  2  5  6  6  1       21 0.397068263441D-02 0.100000000000D+01
0.624674650675D-03 0.000000000000D+00 -.252815991437D-03 0.166235258388D-05 0.000000000000D+00  6 2 2 25 24 1 2 4 0.52826953D-01 0.31735977D+00 0.15012203D+05 0.15012203D+05 0.15012203D+05 0.12477823D+01  1  2  5  7  6  1       21 0.166706184492D-01 0.100000000000D+01
0.624674650675D-03 0.000000000000D+00 -.252815991437D-03 0.166235258388D-05 0.000000000000D+00  6 -3 2 25 24 1 -3 4 0.52826953D-01 0.31735977D+00 0.15012203D+05 0.15012203D+05 0.15012203D+05 0.12477823D+01  1  2  5  8  6  1       21 0.246405456469D-02 0.100000000000D+01
0.624674650675D-03 0.000000000000D+00 -.252815991437D-03 0.166235258388D-05 0.000000000000D+00  6 -4 2 25 24 1 -4 4 0.52826953D-01 0.31735977D+00 0.15012203D+05 0.15012203D+05 0.15012203D+05 0.12477823D+01  1  2  5  8  6  1       21 0.201271455097D-02 0.100000000000D+01
0.624674650675D-03 0.000000000000D+00 -.252815991437D-03 0.166235258388D-05 0.000000000000D+00  6 3 2 25 24 1 3 4 0.52826953D-01 0.31735977D+00 0.15012203D+05 0.15012203D+05 0.15012203D+05 0.12477823D+01  1  2  5  9  6  1       21 0.246523114644D-02 0.100000000000D+01
0.624674650675D-03 0.000000000000D+00 -.252815991437D-03 0.166235258388D-05 0.000000000000D+00  6 4 2 25 24 1 4 4 0.52826953D-01 0.31735977D+00 0.15012203D+05 0.15012203D+05 0.15012203D+05 0.12477823D+01  1  2  5  9  6  1       21 0.201271455097D-02 0.100000000000D+01
  </mgrwgt>
  </event>
  <event>
  5     66 0.42910585E-03 0.22456533E+02 0.75467711E-02 0.11490123E+00
       21 -1    0    0  501  502 0.00000000E+00 0.00000000E+00 0.20737783E+02 0.20751341E+02 0.75000000E+00 0.0000E+00 0.9000E+01
        2 -1    0    0  502    0 -.00000000E+00 -.00000000E+00 -.24556306E+04 0.24556307E+04 0.32000000E+00 0.0000E+00 0.9000E+01
       25  1    1    2    0    0 -.11381128E+02 -.40581054E+02 -.14946423E+04 0.15004522E+04 0.12500000E+03 0.0000E+00 0.9000E+01
       24  1    1    2    0    0 0.19226171E+02 0.19539425E+02 -.94828016E+03 0.95207873E+03 0.80419002E+02 0.0000E+00 0.9000E+01
        1  1    1    2  501    0 -.78450429E+01 0.21041629E+02 0.80295922E+01 0.23851029E+02 0.32000000E+00 0.0000E+00 0.9000E+01
#aMCatNLO 1  0  0  5  1 0.99280117D+01 0.00000000D+00  -5  6  0 0.00000000D+00 0.00000000D+00 0.00000000D+00 0.00000000D+00 0.00000000D+00
  <mgrwgt>
 0.7685936539D-01    4    2    0
 0.225701457481723D+03 0.000000000000000D+00 0.000000000000000D+00 0.225701457481723D+03
 0.225701457481723D+03 -.000000000000000D+00 -.000000000000000D+00 -.225701457481723D+03
 0.169248175499621D+03 -.113811232413508D+02 -.405810674212423D+02 -.106035804852268D+03
 0.107996793865699D+03 0.192261742665064D+02 0.195394169884050D+02 -.666682603472365D+02
 0.174157945598126D+03 -.784505102515567D+01 0.210416504328374D+02 0.172704065199504D+03
 0.000000000000000D+00 0.000000000000000D+00 -.000000000000000D+00 0.000000000000000D+00
 0.225701457481723D+03 0.000000000000000D+00 0.000000000000000D+00 0.225701457481723D+03
 0.225701457481723D+03 -.000000000000000D+00 -.000000000000000D+00 -.225701457481723D+03
 0.145174549039696D+03 -.133173318327905D+02 -.353878539908273D+02 -.634113408757315D+02
 0.941067855660684D+02 0.179816246321572D+02 0.228774932186705D+02 -.392702510155629D+02
 0.110214368460468D+03 0.519328986513069D+02 0.813378245987533D+02 0.532385137128700D+02
 0.101907211897213D+03 -.565971914506737D+02 -.688274638265965D+02 0.494430781784244D+02
0.111339562486D-04 0.000000000000D+00 0.000000000000D+00 0.207722157359D-04 0.000000000000D+00  6 21 2 25 24 1 21 2 0.31914726D-02 0.37779037D+00 0.14320115D+05 0.14320115D+05 0.14320115D+05 0.12501256D+01  1  2  2  3  6  5        1 0.565823187232D-01 0.100000000000D+01
0.316419132211D-05 0.587555013404D-06 -.224762498310D-07 0.207722157359D-04 0.000000000000D+00  6 21 2 25 24 1 21 4 0.31914726D-02 0.37779037D+00 0.14320115D+05 0.14320115D+05 0.14320115D+05 0.12501256D+01  1  2  3  3  6  5        1 0.251305084054D-01 0.100000000000D+01
0.128748216510D-05 0.000000000000D+00 0.000000000000D+00 0.207722157359D-04 0.000000000000D+00  6 21 2 25 24 1 21 4 0.31914726D-02 0.37779037D+00 0.14320115D+05 0.14320115D+05 0.14320115D+05 0.12501256D+01  1  2 15  3  6  5        1 0.102253871774D-01 0.100000000000D+01
-.189858327306D-05 0.000000000000D+00 0.000000000000D+00 0.207722157359D-04 0.000000000000D+00  6 21 2 25 24 1 21 4 0.31914726D-02 0.37779037D+00 0.14320115D+05 0.14320115D+05 0.14320115D+05 0.12501256D+01  1  2  4  3  6  5        1 -.150788489205D-01 0.100000000000D+01
  </mgrwgt>
  </event>
  <event>
  5     66 0.42910585E-03 0.99209158E+02 0.75467711E-02 0.11312350E+00
       21 -1    0    0  501  502 0.00000000E+00 0.00000000E+00 0.92718752E+02 0.92721786E+02 0.75000000E+00 0.0000E+00 0.9000E+01
        2 -1    0    0  502    0 0.00000000E+00 0.00000000E+00 -.77483918E+03 0.77483925E+03 0.32000000E+00 0.0000E+00 0.9000E+01
       25  1    1    2    0    0 0.19617139E+02 0.12424477E+03 -.56159661E+03 0.58892898E+03 0.12500000E+03 0.0000E+00 0.9000E+01
       24  1    1    2    0    0 0.31058946E+02 0.25321599E+02 -.22015617E+02 0.92508080E+02 0.80419002E+02 0.0000E+00 0.9000E+01
        1  1    1    2  501    0 -.50676086E+02 -.14956637E+03 -.98508206E+02 0.18612397E+03 0.32000000E+00 0.0000E+00 0.9000E+01
#aMCatNLO 1  0  0  1  2 0.22919918D+02 0.00000000D+00  -5  6  0 0.00000000D+00 0.00000000D+00 0.00000000D+00 0.00000000D+00 0.00000000D+00
  <mgrwgt>
 0.6853043742D-01   32    2    0
 0.268036316353917D+03 0.000000000000000D+00 0.000000000000000D+00 0.268036316353917D+03
 0.268036316353917D+03 0.000000000000000D+00 0.000000000000000D+00 -.268036316353917D+03
 0.238503817825135D+03 0.196171768167158D+02 0.124244880447312D+03 -.159491213468141D+03
 0.121698251356592D+03 0.310589651528096D+02 0.253216550611434D+02 0.820816842997440D+02
 0.175870563526107D+03 -.506761419695254D+02 -.149566535508455D+03 0.774095291683969D+02
 0.000000000000000D+00 -.000000000000000D+00 0.000000000000000D+00 0.000000000000000D+00
 0.291713884834921D+03 0.000000000000000D+00 0.000000000000000D+00 0.291713884834921D+03
 0.273885782259175D+03 0.000000000000000D+00 0.000000000000000D+00 -.273885782259175D+03
 0.233633000800419D+03 0.213522926788111D+02 0.114306655479139D+03 -.159491213468141D+03
 0.120971321577863D+03 0.319507825426761D+02 0.202135916489873D+02 0.820816842997440D+02
 0.181958060015088D+03 -.493611118847599D+02 -.157098634723162D+03 0.774095291683969D+02
 0.290372847007269D+02 -.394196333672729D+01 0.225783875950357D+02 0.178281025757456D+02
0.329102816537D-05 0.000000000000D+00 0.000000000000D+00 0.101590131599D-06 0.000000000000D+00  6 21 2 25 24 1 21 2 0.14264662D-01 0.11920627D+00 0.45177624D+05 0.45177624D+05 0.45177624D+05 0.11966687D+01  1  2  2  1  6  1       21 0.942383190685D-02 0.100000000000D+01
-.252202825896D-06 0.173672327664D-06 -.664363767864D-08 0.101590131599D-06 0.000000000000D+00  6 21 2 25 24 1 21 4 0.14264662D-01 0.11920627D+00 0.45177624D+05 0.45177624D+05 0.45177624D+05 0.11966687D+01  1  2  3  1  6  1       21 -.103417437934D-02 0.100000000000D+01
0.343519008246D-06 0.000000000000D+00 0.000000000000D+00 0.101590131599D-06 0.000000000000D+00  6 21 2 25 24 1 21 4 0.14264662D-01 0.11920627D+00 0.45177624D+05 0.45177624D+05 0.45177624D+05 0.11966687D+01  1  2 15  1  6  1       21 0.140862242873D-02 0.100000000000D+01
0.140124162832D-04 0.000000000000D+00 0.000000000000D+00 0.100847775280D-06 0.000000000000D+00  6 21 2 25 24 1 21 4 0.15671238D-01 0.11920627D+00 0.49992191D+05 0.49992191D+05 0.49992191D+05 0.11922885D+01  1  2 12  1  6  1       21 0.475856499230D-01 0.100000000000D+01
0.926407424820D-05 0.000000000000D+00 0.000000000000D+00 0.100847775280D-06 0.000000000000D+00  6 21 2 25 24 1 21 4 0.16348974D-01 0.11920627D+00 0.49992191D+05 0.49992191D+05 0.49992191D+05 0.11922885D+01  1  2 12  1  6  1       21 0.291064307957D-01 0.100000000000D+01
-.142780992116D-04 0.000000000000D+00 0.000000000000D+00 0.101590131599D-06 0.000000000000D+00  6 21 2 25 24 1 21 4 0.14264662D-01 0.11920627D+00 0.45177624D+05 0.45177624D+05 0.45177624D+05 0.11966687D+01  1  2  4  1  6  1       21 -.585482907970D-01 0.100000000000D+01
-.604255076977D-04 0.000000000000D+00 -.103893895393D-04 0.101590131599D-06 0.000000000000D+00  6 21 2 25 24 1 21 4 0.15844677D-01 0.11920627D+00 0.45177624D+05 0.45177624D+05 0.45177624D+05 0.11966687D+01  1  2  5  1  6  1       21 -.204542775746D+00 0.100000000000D+01
0.601330475019D-04 0.000000000000D+00 0.101636288493D-04 0.101590131599D-06 0.000000000000D+00  6 21 2 25 24 1 21 4 0.14264662D-01 0.11920627D+00 0.45177624D+05 0.45177624D+05 0.45177624D+05 0.11966687D+01  1  2  6  1  6  1       21 0.246579541118D+00 0.100000000000D+01
0.334098930484D-06 0.000000000000D+00 0.000000000000D+00 0.100847775280D-06 0.000000000000D+00  6 -1 2 25 24 1 -1 4 0.15671238D-01 0.11920627D+00 0.49992191D+05 0.49992191D+05 0.49992191D+05 0.11922885D+01  1  2 12  4  6  1       21 0.851959478251D-04 0.100000000000D+01
0.337668356684D-06 0.000000000000D+00 0.000000000000D+00 0.100847775280D-06 0.000000000000D+00  6 -1 2 25 24 1 -1 4 0.16348974D-01 0.11920627D+00 0.49992191D+05 0.49992191D+05 0.49992191D+05 0.11922885D+01  1  2 12  4  6  1       21 0.804863893238D-04 0.100000000000D+01
-.142711557737D-05 0.000000000000D+00 -.280643654818D-06 0.101590131599D-06 0.000000000000D+00  6 -1 2 25 24 1 -1 4 0.15844677D-01 0.11920627D+00 0.45177624D+05 0.45177624D+05 0.45177624D+05 0.11966687D+01  1  2  5  4  6  1       21 -.362866277551D-03 0.100000000000D+01
0.334098930484D-06 0.000000000000D+00 0.000000000000D+00 0.100847775280D-06 0.000000000000D+00  6 1 2 25 24 1 1 4 0.15671238D-01 0.11920627D+00 0.49992191D+05 0.49992191D+05 0.49992191D+05 0.11922885D+01  1  2 12  5  6  1       21 0.118778678476D-03 0.100000000000D+01
0.337668356684D-06 0.000000000000D+00 0.000000000000D+00 0.100847775280D-06 0.000000000000D+00  6 1 2 25 24 1 1 4 0.16348974D-01 0.11920627D+00 0.49992191D+05 0.49992191D+05 0.49992191D+05 0.11922885D+01  1  2 12  5  6  1       21 0.113584911211D-03 0.100000000000D+01
-.142711557737D-05 0.000000000000D+00 -.280643654818D-06 0.101590131599D-06 0.000000000000D+00  6 1 2 25 24 1 1 4 0.15844677D-01 0.11920627D+00 0.45177624D+05 0.45177624D+05 0.45177624D+05 0.11966687D+01  1  2  5  5  6  1       21 -.507528367101D-03 0.100000000000D+01
0.334098930484D-06 0.000000000000D+00 0.000000000000D+00 0.100847775280D-06 0.000000000000D+00  6 -2 2 25 24 1 -2 4 0.15671238D-01 0.11920627D+00 0.49992191D+05 0.49992191D+05 0.49992191D+05 0.11922885D+01  1  2 12  6  6  1       21 0.794595507699D-04 0.100000000000D+01
0.337668356684D-06 0.000000000000D+00 0.000000000000D+00 0.100847775280D-06 0.000000000000D+00  6 -2 2 25 24 1 -2 4 0.16348974D-01 0.11920627D+00 0.49992191D+05 0.49992191D+05 0.49992191D+05 0.11922885D+01  1  2 12  6  6  1       21 0.748444348585D-04 0.100000000000D+01
-.142711557737D-05 0.000000000000D+00 -.280643654818D-06 0.101590131599D-06 0.000000000000D+00  6 -2 2 25 24 1 -2 4 0.15844677D-01 0.11920627D+00 0.45177624D+05 0.45177624D+05 0.45177624D+05 0.11966687D+01  1  2  5  6  6  1       21 -.338151924622D-03 0.100000000000D+01
0.334098930484D-06 0.000000000000D+00 0.000000000000D+00 0.100847775280D-06 0.000000000000D+00  6 2 2 25 24 1 2 4 0.15671238D-01 0.11920627D+00 0.49992191D+05 0.49992191D+05 0.49992191D+05 0.11922885D+01  1  2 12  7  6  1       21 0.142128097963D-03 0.100000000000D+01
0.337668356684D-06 0.000000000000D+00 0.000000000000D+00 0.100847775280D-06 0.000000000000D+00  6 2 2 25 24 1 2 4 0.16348974D-01 0.11920627D+00 0.49992191D+05 0.49992191D+05 0.49992191D+05 0.11922885D+01  1  2 12  7  6  1       21 0.136659581866D-03 0.100000000000D+01
-.142711557737D-05 0.000000000000D+00 -.280643654818D-06 0.101590131599D-06 0.000000000000D+00  6 2 2 25 24 1 2 4 0.15844677D-01 0.11920627D+00 0.45177624D+05 0.45177624D+05 0.45177624D+05 0.11966687D+01  1  2  5  7  6  1       21 -.608104986350D-03 0.100000000000D+01
0.334098930484D-06 0.000000000000D+00 0.000000000000D+00 0.100847775280D-06 0.000000000000D+00  6 -3 2 25 24 1 -3 4 0.15671238D-01 0.11920627D+00 0.49992191D+05 0.49992191D+05 0.49992191D+05 0.11922885D+01  1  2 12  8  6  1       21 0.538086348356D-04 0.100000000000D+01
0.334098930484D-06 0.000000000000D+00 0.000000000000D+00 0.100847775280D-06 0.000000000000D+00  6 -4 2 25 24 1 -4 4 0.15671238D-01 0.11920627D+00 0.49992191D+05 0.49992191D+05 0.49992191D+05 0.11922885D+01  1  2 12  8  6  1       21 0.467033087950D-04 0.100000000000D+01
0.337668356684D-06 0.000000000000D+00 0.000000000000D+00 0.100847775280D-06 0.000000000000D+00  6 -3 2 25 24 1 -3 4 0.16348974D-01 0.11920627D+00 0.49992191D+05 0.49992191D+05 0.49992191D+05 0.11922885D+01  1  2 12  8  6  1       21 0.505230501691D-04 0.100000000000D+01
0.337668356684D-06 0.000000000000D+00 0.000000000000D+00 0.100847775280D-06 0.000000000000D+00  6 -4 2 25 24 1 -4 4 0.16348974D-01 0.11920627D+00 0.49992191D+05 0.49992191D+05 0.49992191D+05 0.11922885D+01  1  2 12  8  6  1       21 0.437853595343D-04 0.100000000000D+01
-.142711557737D-05 0.000000000000D+00 -.280643654818D-06 0.101590131599D-06 0.000000000000D+00  6 -3 2 25 24 1 -3 4 0.15844677D-01 0.11920627D+00 0.45177624D+05 0.45177624D+05 0.45177624D+05 0.11966687D+01  1  2  5  8  6  1       21 -.228340212090D-03 0.100000000000D+01
-.142711557737D-05 0.000000000000D+00 -.280643654818D-06 0.101590131599D-06 0.000000000000D+00  6 -4 2 25 24 1 -4 4 0.15844677D-01 0.11920627D+00 0.45177624D+05 0.45177624D+05 0.45177624D+05 0.11966687D+01  1  2  5  8  6  1       21 -.197928817830D-03 0.100000000000D+01
0.334098930484D-06 0.000000000000D+00 0.000000000000D+00 0.100847775280D-06 0.000000000000D+00  6 3 2 25 24 1 3 4 0.15671238D-01 0.11920627D+00 0.49992191D+05 0.49992191D+05 0.49992191D+05 0.11922885D+01  1  2 12  9  6  1       21 0.538029108827D-04 0.100000000000D+01
0.334098930484D-06 0.000000000000D+00 0.000000000000D+00 0.100847775280D-06 0.000000000000D+00  6 4 2 25 24 1 4 4 0.15671238D-01 0.11920627D+00 0.49992191D+05 0.49992191D+05 0.49992191D+05 0.11922885D+01  1  2 12  9  6  1       21 0.467033087950D-04 0.100000000000D+01
0.337668356684D-06 0.000000000000D+00 0.000000000000D+00 0.100847775280D-06 0.000000000000D+00  6 3 2 25 24 1 3 4 0.16348974D-01 0.11920627D+00 0.49992191D+05 0.49992191D+05 0.49992191D+05 0.11922885D+01  1  2 12  9  6  1       21 0.505178404425D-04 0.100000000000D+01
0.337668356684D-06 0.000000000000D+00 0.000000000000D+00 0.100847775280D-06 0.000000000000D+00  6 4 2 25 24 1 4 4 0.16348974D-01 0.11920627D+00 0.49992191D+05 0.49992191D+05 0.49992191D+05 0.11922885D+01  1  2 12  9  6  1       21 0.437853595343D-04 0.100000000000D+01
-.142711557737D-05 0.000000000000D+00 -.280643654818D-06 0.101590131599D-06 0.000000000000D+00  6 3 2 25 24 1 3 4 0.15844677D-01 0.11920627D+00 0.45177624D+05 0.45177624D+05 0.45177624D+05 0.11966687D+01  1  2  5  9  6  1       21 -.228315792719D-03 0.100000000000D+01
-.142711557737D-05 0.000000000000D+00 -.280643654818D-06 0.101590131599D-06 0.000000000000D+00  6 4 2 25 24 1 4 4 0.15844677D-01 0.11920627D+00 0.45177624D+05 0.45177624D+05 0.45177624D+05 0.11966687D+01  1  2  5  9  6  1       21 -.197928817830D-03 0.100000000000D+01
  </mgrwgt>
  </event>
  <event>
  5     66 0.42910585E-03 0.57798032E+02 0.75467711E-02 0.10760226E+00
       21 -1    0    0  501  502 0.00000000E+00 0.00000000E+00 0.13386684E+02 0.13407677E+02 0.75000000E+00 0.0000E+00 0.9000E+01
        2 -1    0    0  502    0 0.00000000E+00 0.00000000E+00 -.21171830E+04 0.21171830E+04 0.32000000E+00 0.0000E+00 0.9000E+01
       25  1    1    2    0    0 -.78035966E+01 0.69507483E+02 -.10057321E+04 0.10158810E+04 0.12500000E+03 0.0000E+00 0.9000E+01
       24  1    1    2    0    0 0.27476278E+02 -.15160745E+02 -.97427344E+03 0.97809036E+03 0.80419002E+02 0.0000E+00 0.9000E+01
        1  1    1    2  501    0 -.19672682E+02 -.54346738E+02 -.12379080E+03 0.13661935E+03 0.32000000E+00 0.0000E+00 0.9000E+01
#aMCatNLO 1  0  0  1  1 0.26634846D+03 0.00000000D+00  -5  6  0 0.00000000D+00 0.00000000D+00 0.00000000D+00 0.00000000D+00 0.00000000D+00
  <mgrwgt>
 0.1355381114D+00   12    2    0
 0.168417486165534D+03 0.000000000000000D+00 0.000000000000000D+00 0.168417486165534D+03
 0.168417486165534D+03 0.000000000000000D+00 0.000000000000000D+00 -.168417486165534D+03
 0.144198786294061D+03 -.780354447379870D+01 0.695076272183673D+02 -.166157882990285D+02
 0.101644335606053D+03 0.274763151245487D+02 -.151606438264891D+02 -.536615504096568D+02
 0.909918504309555D+02 -.196727706507500D+02 -.543469833918782D+02 0.702773387086853D+02
 0.000000000000000D+00 0.000000000000000D+00 -.000000000000000D+00 0.000000000000000D+00
 0.387579486945924D+03 0.000000000000000D+00 0.000000000000000D+00 0.387579486945924D+03
 0.317301946826641D+03 0.000000000000000D+00 0.000000000000000D+00 -.317301946826641D+03
 0.238423661123078D+03 -.436661886691404D+02 0.197580418386148D+03 -.166157882990285D+02
 0.112179742230892D+03 0.743489602949139D+01 0.564113369925005D+02 -.536615504096568D+02
 0.788139941062739D+02 -.355884249100233D+02 0.249105267550355D+01 0.702773387086853D+02
 0.275464036312320D+03 0.718197175496722D+02 -.256482808054152D+03 0.702775401192826D+02
0.345787869582D-05 0.000000000000D+00 0.000000000000D+00 0.750715773811D-06 0.000000000000D+00  6 21 2 25 24 1 21 2 0.20611066D-02 0.32572208D+00 0.20644134D+05 0.20644134D+05 0.20644134D+05 0.12323133D+01  1  2  2  1  6  1       21 0.519386959200D-01 0.100000000000D+01
0.727713829841D-09 0.182477272058D-06 -.698046082784D-08 0.750715773811D-06 0.000000000000D+00  6 21 2 25 24 1 21 4 0.20611066D-02 0.32572208D+00 0.20644134D+05 0.20644134D+05 0.20644134D+05 0.12323133D+01  1  2  3  1  6  1       21 0.165990872297D-04 0.100000000000D+01
0.416377113130D-06 0.000000000000D+00 0.000000000000D+00 0.750715773811D-06 0.000000000000D+00  6 21 2 25 24 1 21 4 0.20611066D-02 0.32572208D+00 0.20644134D+05 0.20644134D+05 0.20644134D+05 0.12323133D+01  1  2 15  1  6  1       21 0.949752462836D-02 0.100000000000D+01
0.562296800954D-04 0.000000000000D+00 -.353506645803D-04 0.750715773811D-06 0.000000000000D+00  6 21 2 25 24 1 21 4 0.12507803D-01 0.32572208D+00 0.20644134D+05 0.20644134D+05 0.20644134D+05 0.12323133D+01  1  2  5  1  6  1       21 0.608770553363D-01 0.100000000000D+01
0.243023280666D-04 0.000000000000D+00 -.149771128475D-04 0.750715773811D-06 0.000000000000D+00  6 -1 2 25 24 1 -1 4 0.12507803D-01 0.32572208D+00 0.20644134D+05 0.20644134D+05 0.20644134D+05 0.12323133D+01  1  2  5  4  6  1       21 0.183939510370D-02 0.100000000000D+01
0.243023280666D-04 0.000000000000D+00 -.149771128475D-04 0.750715773811D-06 0.000000000000D+00  6 1 2 25 24 1 1 4 0.12507803D-01 0.32572208D+00 0.20644134D+05 0.20644134D+05 0.20644134D+05 0.12323133D+01  1  2  5  5  6  1       21 0.242075899191D-02 0.100000000000D+01
0.243023280666D-04 0.000000000000D+00 -.149771128475D-04 0.750715773811D-06 0.000000000000D+00  6 -2 2 25 24 1 -2 4 0.12507803D-01 0.32572208D+00 0.20644134D+05 0.20644134D+05 0.20644134D+05 0.12323133D+01  1  2  5  6  6  1       21 0.173881709679D-02 0.100000000000D+01
0.243023280666D-04 0.000000000000D+00 -.149771128475D-04 0.750715773811D-06 0.000000000000D+00  6 2 2 25 24 1 2 4 0.12507803D-01 0.32572208D+00 0.20644134D+05 0.20644134D+05 0.20644134D+05 0.12323133D+01  1  2  5  7  6  1       21 0.281748110783D-02 0.100000000000D+01
0.243023280666D-04 0.000000000000D+00 -.149771128475D-04 0.750715773811D-06 0.000000000000D+00  6 -3 2 25 24 1 -3 4 0.12507803D-01 0.32572208D+00 0.20644134D+05 0.20644134D+05 0.20644134D+05 0.12323133D+01  1  2  5  8  6  1       21 0.117600487233D-02 0.100000000000D+01
0.243023280666D-04 0.000000000000D+00 -.149771128475D-04 0.750715773811D-06 0.000000000000D+00  6 -4 2 25 24 1 -4 4 0.12507803D-01 0.32572208D+00 0.20644134D+05 0.20644134D+05 0.20644134D+05 0.12323133D+01  1  2  5  8  6  1       21 0.101996200348D-02 0.100000000000D+01
0.243023280666D-04 0.000000000000D+00 -.149771128475D-04 0.750715773811D-06 0.000000000000D+00  6 3 2 25 24 1 3 4 0.12507803D-01 0.32572208D+00 0.20644134D+05 0.20644134D+05 0.20644134D+05 0.12323133D+01  1  2  5  9  6  1       21 0.117585521817D-02 0.100000000000D+01
0.243023280666D-04 0.000000000000D+00 -.149771128475D-04 0.750715773811D-06 0.000000000000D+00  6 4 2 25 24 1 4 4 0.12507803D-01 0.32572208D+00 0.20644134D+05 0.20644134D+05 0.20644134D+05 0.12323133D+01  1  2  5  9  6  1       21 0.101996200348D-02 0.100000000000D+01
  </mgrwgt>
  </event>
  <event>
  6     66 -.42910585E-03 0.17962847E+02 0.75467711E-02 0.12343316E+00
       21 -1    0    0  501  502 0.00000000E+00 0.00000000E+00 0.62916979E+02 0.62921449E+02 0.75000000E+00 0.0000E+00 0.9000E+01
       21 -1    0    0  502  503 0.00000000E+00 0.00000000E+00 -.11491802E+04 0.11491804E+04 0.75000000E+00 0.0000E+00 0.9000E+01
       25  1    1    2    0    0 -.75005718E+01 -.30456106E+01 -.18716736E+03 0.22521580E+03 0.12500000E+03 0.0000E+00 0.9000E+01
       24  1    1    2    0    0 -.29540414E+02 0.30356221E+01 -.80608333E+03 0.81062901E+03 0.80419002E+02 0.0000E+00 0.9000E+01
        3  1    1    2  501    0 0.24252674E+02 0.71843216E+01 0.37323355E+02 0.45089793E+02 0.50000000E+00 0.0000E+00 0.9000E+01
       -4  1    1    2    0  503 0.12788312E+02 -.71743330E+01 -.13033589E+03 0.13116729E+03 0.15500000E+01 0.0000E+00 0.9000E+01
#aMCatNLO 2  0  0  2  1 0.14663286D+02 0.00000000D+00  -5  6  0 0.00000000D+00 0.00000000D+00 0.00000000D+00 0.00000000D+00 0.00000000D+00
  <mgrwgt>
 -.4370832430D-02    2    2    0
 0.252194141104840D+03 0.000000000000000D+00 0.000000000000000D+00 0.252194141104840D+03
 0.252194141104840D+03 0.000000000000000D+00 0.000000000000000D+00 -.252194141104840D+03
 0.127780654426983D+03 -.426034693015474D+01 -.486342296902952D+01 0.257117134171769D+02
 0.208728994276013D+03 -.242405364211592D+02 0.623153087407622D-01 -.191083671745972D+03
 0.167878633506684D+03 0.285008833513139D+02 0.480110766028876D+01 0.165371958328795D+03
 0.000000000000000D+00 0.000000000000000D+00 -.000000000000000D+00 -.000000000000000D+00
 0.253961164648600D+03 0.000000000000000D+00 0.000000000000000D+00 0.253961164648600D+03
 0.284672739240896D+03 0.000000000000000D+00 0.000000000000000D+00 -.284672739240896D+03
 0.127873480559912D+03 -.750060288347427D+01 -.304561652930018D+01 0.257117134171769D+02
 0.209432662452760D+03 -.295404733759627D+02 0.303561731493917D+01 -.191083671745972D+03
 0.167295235502905D+03 0.242527646009126D+02 0.718433223651500D+01 0.165371958328795D+03
 0.340325253739190D+02 0.127883116585244D+02 -.717433302215399D+01 -.307115745922953D+02
-.161437522828D-05 0.000000000000D+00 0.000000000000D+00 0.280612612061D-05 0.000000000000D+00  6 21 21 25 24 3 -4 4 0.96118830D-02 0.17729053D+00 0.15743519D+05 0.15743519D+05 0.15743519D+05 0.12454344D+01  1  2 13 10  6  2        4 -.678593046100D-02 0.100000000000D+01
0.577049039224D-06 0.000000000000D+00 0.000000000000D+00 0.282970608268D-05 0.272215463813D-08  6 21 21 25 24 3 -4 4 0.96792297D-02 0.17678511D+00 0.15743519D+05 0.15743519D+05 0.15743519D+05 0.12454344D+01  1  2  1 10  6  2        4 0.241509803091D-02 0.100000000000D+01
  </mgrwgt>
  </event>
  <event>
  6     66 0.42910585E-03 0.13220903E+02 0.75467711E-02 0.11442291E+00
       21 -1    0    0  501  503 0.00000000E+00 0.00000000E+00 0.16594707E+03 0.16594876E+03 0.75000000E+00 0.0000E+00 0.9000E+01
        2 -1    0    0  502    0 0.00000000E+00 0.00000000E+00 -.14251079E+04 0.14251079E+04 0.32000000E+00 0.0000E+00 0.9000E+01
       25  1    1    2    0    0 0.10260110E+03 -.10141526E+03 -.11180288E+04 0.11342070E+04 0.12500000E+03 0.0000E+00 0.9000E+01
       24  1    1    2    0    0 -.12724774E+03 0.10942107E+03 -.25795821E+03 0.31807957E+03 0.80419002E+02 0.0000E+00 0.9000E+01
        1  1    1    2  501    0 0.12497908E+02 0.90427587E+01 -.41626519E+01 0.15981216E+02 0.32000000E+00 0.0000E+00 0.9000E+01
       21  1    1    2  502  503 0.12148741E+02 -.17048575E+02 0.12098887E+03 0.12278890E+03 0.75000000E+00 0.0000E+00 0.9000E+01
#aMCatNLO 2  0  0  1  2 0.75088332D+01 0.00000000D+00  -5  6  0 0.00000000D+00 0.00000000D+00 0.00000000D+00 0.00000000D+00 0.00000000D+00
  <mgrwgt>
 0.1890685349D+01    1    2    0
 0.250279273033285D+03 0.000000000000000D+00 0.000000000000000D+00 0.250279273033285D+03
 0.250279273033285D+03 0.000000000000000D+00 0.000000000000000D+00 -.250279273033285D+03
 0.250216631704383D+03 0.108596320566859D+03 -.109829022215284D+03 -.152078229277110D+03
 0.214946978481346D+03 -.121953092342487D+03 0.101990515402416D+03 0.120251260450543D+03
 0.353949358808413D+02 0.133567717756272D+02 0.783850681286808D+01 0.318269688265675D+02
 0.000000000000000D+00 0.000000000000000D+00 -.000000000000000D+00 0.000000000000000D+00
 0.943497555219484D+03 0.000000000000000D+00 0.000000000000000D+00 0.943497555219484D+03
 0.250656153241404D+03 0.000000000000000D+00 0.000000000000000D+00 -.250656153241404D+03
 0.244059009059065D+03 0.102600814960506D+03 -.101415407371226D+03 -.152078229277110D+03
 0.221568427289721D+03 -.127247973066363D+03 0.109420929112431D+03 0.120251260450543D+03
 0.353686752482700D+02 0.124984174642654D+02 0.904305285947364D+01 0.318269688265675D+02
 0.693157596863832D+03 0.121487406415920D+02 -.170485746006792D+02 0.692841401978079D+03
0.329082443866D-02 0.000000000000D+00 0.000000000000D+00 0.942926540354D-06 0.284904865016D-06  6 21 2 25 24 1 21 4 0.25530430D-01 0.21924732D+00 0.42713163D+05 0.42713163D+05 0.42713163D+05 0.11991166D+01  1  2  1  1  6  1       21 0.189068534903D+01 0.100000000000D+01
  </mgrwgt>
  </event>
  <event>
  5     66 -.42910585E-03 0.51520100E+02 0.75467711E-02 0.11596054E+00
       21 -1    0    0  501  502 0.00000000E+00 0.00000000E+00 0.72040497E+02 0.72044401E+02 0.75000000E+00 0.0000E+00 0.9000E+01
        2 -1    0    0  502    0 0.00000000E+00 0.00000000E+00 -.68536254E+03 0.68536261E+03 0.32000000E+00 0.0000E+00 0.9000E+01
       25  1    1    2    0    0 0.25918133E+02 -.17659689E+02 -.58520318E+03 0.59922565E+03 0.12500000E+03 0.0000E+00 0.9000E+01
       24  1    1    2    0    0 -.53450129E+02 -.25886705E+02 -.35598764E+02 0.10612034E+03 0.80419002E+02 0.0000E+00 0.9000E+01
        1  1    1    2  501    0 0.27531995E+02 0.43546394E+02 0.74799069E+01 0.52061028E+02 0.32000000E+00 0.0000E+00 0.9000E+01
#aMCatNLO 1  0  0  1  5 0.84087878D+02 0.00000000D+00  -5  6  0 0.00000000D+00 0.00000000D+00 0.00000000D+00 0.00000000D+00 0.00000000D+00
  <mgrwgt>
 -.5062920148D+00   12    2    0
 0.222205681258529D+03 0.000000000000000D+00 0.000000000000000D+00 0.222205681258529D+03
 0.222205681258529D+03 0.000000000000000D+00 0.000000000000000D+00 -.222205681258529D+03
 0.213630395974968D+03 0.259180643213798D+02 -.176597982959618D+02 -.170379962291346D+03
 0.131731005696155D+03 -.534501711897189D+02 -.258867724680869D+02 0.857834256621011D+02
 0.990499608459344D+02 0.275321068683391D+02 0.435465707640488D+02 0.845965366292450D+02
 0.000000000000000D+00 -.000000000000000D+00 0.000000000000000D+00 0.000000000000000D+00
 0.198840759385654D+04 0.000000000000000D+00 0.000000000000000D+00 0.198840759385654D+04
 0.227061505355779D+03 0.000000000000000D+00 0.000000000000000D+00 -.227061505355779D+03
 0.223229679454580D+03 0.600669034427160D+02 -.396121868848119D+02 -.170379962291346D+03
 0.128221180711745D+03 -.331300140223364D+02 -.389494708731457D+02 0.857834256621011D+02
 0.100702759564659D+03 0.431465424668393D+02 0.335089189236474D+02 0.845965366292450D+02
 0.176331547948133D+04 -.700834318872189D+02 0.450527388343101D+02 0.176134608850076D+04
0.717270360446D-06 0.000000000000D+00 0.000000000000D+00 0.305196069133D-06 0.000000000000D+00  6 21 2 25 24 1 21 2 0.11083460D-01 0.10544070D+00 0.19651248D+05 0.19651248D+05 0.19651248D+05 0.12346680D+01  1  2  2  1  6  1       21 0.402763216665D-02 0.100000000000D+01
0.945755613704D-09 0.378513968292D-07 -.144796220299D-08 0.305196069133D-06 0.000000000000D+00  6 21 2 25 24 1 21 4 0.11083460D-01 0.10544070D+00 0.19651248D+05 0.19651248D+05 0.19651248D+05 0.12346680D+01  1  2  3  1  6  1       21 0.809554773978D-05 0.100000000000D+01
0.688172462090D-07 0.000000000000D+00 0.000000000000D+00 0.305196069133D-06 0.000000000000D+00  6 21 2 25 24 1 21 4 0.11083460D-01 0.10544070D+00 0.19651248D+05 0.19651248D+05 0.19651248D+05 0.12346680D+01  1  2 15  1  6  1       21 0.589066873019D-03 0.100000000000D+01
-.283829608439D-02 0.000000000000D+00 -.163384314298D-04 0.305196069133D-06 0.000000000000D+00  6 21 2 25 24 1 21 4 0.99564594D-01 0.10544070D+00 0.19651248D+05 0.19651248D+05 0.19651248D+05 0.12346680D+01  1  2  5  1  6  1       21 -.309172041507D+00 0.100000000000D+01
-.124663705322D-02 0.000000000000D+00 -.711241581054D-05 0.305196069133D-06 0.000000000000D+00  6 -1 2 25 24 1 -1 4 0.99564594D-01 0.10544070D+00 0.19651248D+05 0.19651248D+05 0.19651248D+05 0.12346680D+01  1  2  5  4  6  1       21 -.153542441685D-01 0.100000000000D+01
-.124663705322D-02 0.000000000000D+00 -.711241581054D-05 0.305196069133D-06 0.000000000000D+00  6 1 2 25 24 1 1 4 0.99564594D-01 0.10544070D+00 0.19651248D+05 0.19651248D+05 0.19651248D+05 0.12346680D+01  1  2  5  5  6  1       21 -.563693005616D-01 0.100000000000D+01
-.124663705322D-02 0.000000000000D+00 -.711241581054D-05 0.305196069133D-06 0.000000000000D+00  6 -2 2 25 24 1 -2 4 0.99564594D-01 0.10544070D+00 0.19651248D+05 0.19651248D+05 0.19651248D+05 0.12346680D+01  1  2  5  6  6  1       21 -.113888411607D-01 0.100000000000D+01
-.124663705322D-02 0.000000000000D+00 -.711241581054D-05 0.305196069133D-06 0.000000000000D+00  6 2 2 25 24 1 2 4 0.99564594D-01 0.10544070D+00 0.19651248D+05 0.19651248D+05 0.19651248D+05 0.12346680D+01  1  2  5  7  6  1       21 -.928983786395D-01 0.100000000000D+01
-.124663705322D-02 0.000000000000D+00 -.711241581054D-05 0.305196069133D-06 0.000000000000D+00  6 -3 2 25 24 1 -3 4 0.99564594D-01 0.10544070D+00 0.19651248D+05 0.19651248D+05 0.19651248D+05 0.12346680D+01  1  2  5  8  6  1       21 -.714968072700D-02 0.100000000000D+01
-.124663705322D-02 0.000000000000D+00 -.711241581054D-05 0.305196069133D-06 0.000000000000D+00  6 -4 2 25 24 1 -4 4 0.99564594D-01 0.10544070D+00 0.19651248D+05 0.19651248D+05 0.19651248D+05 0.12346680D+01  1  2  5  8  6  1       21 -.571037914588D-02 0.100000000000D+01
-.124663705322D-02 0.000000000000D+00 -.711241581054D-05 0.305196069133D-06 0.000000000000D+00  6 3 2 25 24 1 3 4 0.99564594D-01 0.10544070D+00 0.19651248D+05 0.19651248D+05 0.19651248D+05 0.12346680D+01  1  2  5  9  6  1       21 -.716356433066D-02 0.100000000000D+01
-.124663705322D-02 0.000000000000D+00 -.711241581054D-05 0.305196069133D-06 0.000000000000D+00  6 4 2 25 24 1 4 4 0.99564594D-01 0.10544070D+00 0.19651248D+05 0.19651248D+05 0.19651248D+05 0.12346680D+01  1  2  5  9  6  1       21 -.571037914588D-02 0.100000000000D+01
  </mgrwgt>
  </event>
  <event>
  6     66 0.42910585E-03 0.21076016E+03 0.75467711E-02 0.10738729E+00
       21 -1    0    0  501  502 0.00000000E+00 0.00000000E+00 0.10431627E+03 0.10431896E+03 0.75000000E+00 0.0000E+00 0.9000E+01
        2 -1    0    0  502    0 -.00000000E+00 -.00000000E+00 -.11622734E+04 0.11622735E+04 0.32000000E+00 0.0000E+00 0.9000E+01
       25  1    1    2    0    0 0.25313763E+03 0.29828112E+02 -.65359974E+03 0.71259104E+03 0.12500000E+03 0.0000E+00 0.9000E+01
       24  1    1    2    0    0 0.69101379E+01 0.25355213E+02 -.12119132E+03 0.14780118E+03 0.80419002E+02 0.0000E+00 0.9000E+01
        1  1    1    2  503    0 -.11040536E+03 -.67049049E+02 -.18924421E+03 0.22912528E+03 0.32000000E+00 0.0000E+00 0.9000E+01
       21  1    1    2  501  503 -.14964241E+03 0.11865724E+02 -.93921875E+02 0.17707492E+03 0.75000000E+00 0.0000E+00 0.9000E+01
#aMCatNLO 2  0  0  5  1 0.58480427D+02 0.00000000D+00  -5  6  0 0.00000000D+00 0.00000000D+00 0.00000000D+00 0.00000000D+00 0.00000000D+00
  <mgrwgt>
 0.1410716989D-01    2    2    0
 0.348203618466997D+03 0.000000000000000D+00 0.000000000000000D+00 0.348203618466997D+03
 0.348203618466997D+03 -.000000000000000D+00 -.000000000000000D+00 -.348203618466997D+03
 0.312866318831498D+03 0.262933231690228D+03 0.319067828818826D+02 -.110038203994038D+03
 0.850952197371990D+02 0.961042160603267D+01 0.259282257717503D+02 0.305734731999704D+01
 0.298445698365297D+03 -.272543653296261D+03 -.578350086536328D+02 0.106980856674041D+03
 0.000000000000000D+00 0.000000000000000D+00 0.000000000000000D+00 0.000000000000000D+00
 0.348203618466997D+03 0.000000000000000D+00 0.000000000000000D+00 0.348203618466997D+03
 0.348203618466997D+03 -.000000000000000D+00 -.000000000000000D+00 -.348203618466997D+03
 0.303111478526956D+03 0.253147931693642D+03 0.298302975073882D+02 -.106197205446515D+03
 0.847045823323156D+02 0.691301593697040D+01 0.253558239626243D+02 0.411615300409056D+01
 0.128859842839103D+03 -.110048252175085D+03 -.669320132411489D+02 0.378772929521912D+01
 0.179731333235619D+03 -.150012695455527D+03 0.117458917711364D+02 0.982933231472058D+02
-.540538222168D-05 0.000000000000D+00 0.000000000000D+00 0.124037599395D-06 0.000000000000D+00  6 21 2 25 24 1 21 4 0.16048867D-01 0.17881151D+00 0.10490462D+06 0.10490462D+06 0.10490462D+06 0.11616662D+01  1  2 13  3  6  5        1 -.883189553679D-02 0.100000000000D+01
0.140393889330D-04 0.000000000000D+00 0.000000000000D+00 0.123810552102D-06 0.185878362553D-09  6 21 2 25 24 1 21 4 0.16048867D-01 0.17881151D+00 0.10490462D+06 0.10490462D+06 0.10490462D+06 0.11616662D+01  1  2  1  3  6  5        1 0.229390654298D-01 0.100000000000D+01
  </mgrwgt>
  </event>
  <event>
  6     66 0.42910585E-03 0.51851124E+02 0.75467711E-02 0.11470517E+00
       21 -1    0    0  501  503 0.00000000E+00 0.00000000E+00 0.85596166E+02 0.85599452E+02 0.75000000E+00 0.0000E+00 0.9000E+01
        2 -1    0    0  502    0 0.00000000E+00 0.00000000E+00 -.75704848E+03 0.75704855E+03 0.32000000E+00 0.0000E+00 0.9000E+01
       25  1    1    2    0    0 0.73209949E+02 0.98763824E+02 -.36242151E+03 0.40260196E+03 0.12500000E+03 0.0000E+00 0.9000E+01
       24  1    1    2    0    0 -.96529248E+02 -.65863419E+02 -.31943326E+03 0.34951496E+03 0.80419002E+02 0.0000E+00 0.9000E+01
        1  1    1    2  501    0 -.20527750E+02 0.14157036E+02 0.78970943E+01 0.26158683E+02 0.32000000E+00 0.0000E+00 0.9000E+01
       21  1    1    2  502  503 0.43847049E+02 -.47057440E+02 0.25053549E+01 0.64372398E+02 0.75000000E+00 0.0000E+00 0.9000E+01
#aMCatNLO 2  0  0  1  2 0.10163578D+01 0.00000000D+00  -5  6  0 0.00000000D+00 0.00000000D+00 0.00000000D+00 0.00000000D+00 0.00000000D+00
  <mgrwgt>
 0.2159307487D-02    1    2    0
 0.191935540803876D+03 0.000000000000000D+00 0.000000000000000D+00 0.191935540803876D+03
 0.191935540803876D+03 0.000000000000000D+00 0.000000000000000D+00 -.191935540803876D+03
 0.176207667420357D+03 0.932698110105765D+02 0.772352666968441D+02 -.275608053228125D+02
 0.144843767818542D+03 -.800469859347186D+02 -.835524399354210D+02 -.335256759082649D+02
 0.628196463688526D+02 -.132228250758579D+02 0.631717323857682D+01 0.610864812310774D+02
 0.000000000000000D+00 0.000000000000000D+00 -.000000000000000D+00 0.000000000000000D+00
 0.319373842030860D+03 0.000000000000000D+00 0.000000000000000D+00 0.319373842030860D+03
 0.202900803101403D+03 0.000000000000000D+00 0.000000000000000D+00 -.202900803101403D+03
 0.177478427419318D+03 0.732100194973992D+02 0.987637952611317D+02 -.275608053228125D+02
 0.145763727955093D+03 -.965291882673496D+02 -.658634443400619D+02 -.335256759082649D+02
 0.659801122912093D+02 -.205278798783079D+02 0.141570892653672D+02 0.610864812310774D+02
 0.133052377466642D+03 0.438470486482584D+02 -.470574401864370D+02 0.116473038929458D+03
0.436103838234D-06 0.000000000000D+00 0.000000000000D+00 0.392378756266D-05 0.459287937486D-08  6 21 2 25 24 1 21 4 0.13168833D-01 0.11646867D+00 0.41297718D+05 0.41297718D+05 0.41297718D+05 0.12005947D+01  1  2  1  1  6  1       21 0.215930748668D-02 0.100000000000D+01
  </mgrwgt>
  </event>
  <event>
  5     66 0.42910585E-03 0.54993487E+02 0.75467711E-02 0.11893354E+00
       21 -1    0    0  501  502 0.00000000E+00 0.00000000E+00 0.19177031E+03 0.19177177E+03 0.75000000E+00 0.0000E+00 0.9000E+01
        2 -1    0    0  502    0 -.00000000E+00 -.00000000E+00 -.61437455E+03 0.61437463E+03 0.32000000E+00 0.0000E+00 0.9000E+01
       25  1    1    2    0    0 0.67565336E+02 0.78869672E+02 -.24597764E+03 0.29481435E+03 0.12500000E+03 0.0000E+00 0.9000E+01
       24  1    1    2    0    0 -.16170025E+02 -.59304308E+02 -.33169759E+03 0.34679818E+03 0.80419002E+02 0.0000E+00 0.9000E+01
        1  1    1    2  501    0 -.51395311E+02 -.19565364E+02 0.15507099E+03 0.16453388E+03 0.32000000E+00 0.0000E+00 0.9000E+01
#aMCatNLO 1  0  0  5  1 0.24411293D+01 0.00000000D+00  -5  6  0 0.00000000D+00 0.00000000D+00 0.00000000D+00 0.00000000D+00 0.00000000D+00
  <mgrwgt>
 0.1017320606D+00    8    2    0
 0.343248335775803D+03 0.000000000000000D+00 0.000000000000000D+00 0.343248335775803D+03
 0.343248335775803D+03 -.000000000000000D+00 -.000000000000000D+00 -.343248335775803D+03
 0.194774950003205D+03 0.675653450320275D+02 0.788696757840716D+02 -.107362840597525D+03
 0.203050257681347D+03 -.161700155442532D+02 -.593043048430886D+02 -.176021933901623D+03
 0.288671463867055D+03 -.513953294877741D+02 -.195653709409829D+02 0.283384774499148D+03
 0.000000000000000D+00 0.000000000000000D+00 -.000000000000000D+00 0.000000000000000D+00
 0.343248335775803D+03 0.000000000000000D+00 0.000000000000000D+00 0.343248335775803D+03
 0.343248335775803D+03 -.000000000000000D+00 -.000000000000000D+00 -.343248335775803D+03
 0.194760615977226D+03 0.675612960347446D+02 0.788681343962729D+02 -.107340515141235D+03
 0.203030887860166D+03 -.161742365232820D+02 -.593059117015571D+02 -.175998660168346D+03
 0.244843993707435D+03 -.424649750943812D+02 -.144563763666459D+02 0.240699647542713D+03
 0.438611740067786D+02 -.892208441708122D+01 -.510584632806991D+01 0.426395277668681D+02
0.152629290640D-05 0.000000000000D+00 0.000000000000D+00 0.463767122937D-05 0.000000000000D+00  6 21 2 25 24 1 21 2 0.29503243D-01 0.94519280D-01 0.25396812D+05 0.25396812D+05 0.25396812D+05 0.12225651D+01  1  2  2  3  6  5        1 0.156631457166D-02 0.100000000000D+01
0.223901948546D-06 0.805446895110D-07 -.308114563354D-08 0.463767122937D-05 0.000000000000D+00  6 21 2 25 24 1 21 4 0.29503243D-01 0.94519280D-01 0.25396812D+05 0.25396812D+05 0.25396812D+05 0.12225651D+01  1  2  3  3  6  5        1 0.343433729519D-03 0.100000000000D+01
0.147331261673D-06 0.000000000000D+00 0.000000000000D+00 0.463767122937D-05 0.000000000000D+00  6 21 2 25 24 1 21 4 0.29503243D-01 0.94519280D-01 0.25396812D+05 0.25396812D+05 0.25396812D+05 0.12225651D+01  1  2 15  3  6  5        1 0.225985191285D-03 0.100000000000D+01
0.320325894195D-05 0.000000000000D+00 0.000000000000D+00 0.463735342710D-05 0.000000000000D+00  6 21 2 25 24 1 21 4 0.29503243D-01 0.94519280D-01 0.25419714D+05 0.25419714D+05 0.25419714D+05 0.12225232D+01  1  2 12  3  6  5        1 0.491256324289D-02 0.100000000000D+01
-.573177450640D-03 0.000000000000D+00 0.000000000000D+00 0.463767122937D-05 0.000000000000D+00  6 21 2 25 24 1 21 4 0.29503243D-01 0.94519280D-01 0.25396812D+05 0.25396812D+05 0.25396812D+05 0.12225651D+01  1  2  4  3  6  5        1 -.879172650474D+00 0.100000000000D+01
-.773926425624D-03 0.000000000000D+00 0.000000000000D+00 0.463767122937D-05 0.000000000000D+00  6 21 2 25 24 1 21 4 0.29503243D-01 0.94519280D-01 0.25396812D+05 0.25396812D+05 0.25396812D+05 0.12225651D+01  1  2  5  3  6  5        1 -.118709301304D+01 0.100000000000D+01
0.900331518290D-03 0.000000000000D+00 -.000000000000D+00 0.463767122937D-05 0.000000000000D+00  6 21 2 25 24 1 21 4 0.29503243D-01 0.94519280D-01 0.25396812D+05 0.25396812D+05 0.25396812D+05 0.12225651D+01  1  2  6  3  6  5        1 0.138098043871D+01 0.100000000000D+01
0.508582284635D-03 0.000000000000D+00 0.000000000000D+00 0.463767122937D-05 0.302714369631D-05  6 21 2 25 24 1 21 4 0.29503243D-01 0.94519280D-01 0.25419714D+05 0.25419714D+05 0.25419714D+05 0.12225232D+01  1  2 11  3  6  5        1 0.779968988697D+00 0.100000000000D+01
  </mgrwgt>
  </event>
  <event>
  5     66 0.42910585E-03 0.11436752E+03 0.75467711E-02 0.11429113E+00
       21 -1    0    0  501  502 0.00000000E+00 0.00000000E+00 0.95938776E+02 0.95941707E+02 0.75000000E+00 0.0000E+00 0.9000E+01
        2 -1    0    0  502    0 0.00000000E+00 0.00000000E+00 -.39307362E+03 0.39307375E+03 0.32000000E+00 0.0000E+00 0.9000E+01
       25  1    1    2    0    0 -.14167728E+02 -.48010106E+01 -.59830617E+02 0.13938607E+03 0.12500000E+03 0.0000E+00 0.9000E+01
       24  1    1    2    0    0 -.99071397E+02 -.11223213E+02 -.67197567E+02 0.14465072E+03 0.80419002E+02 0.0000E+00 0.9000E+01
        1  1    1    2  501    0 0.11323912E+03 0.16024223E+02 -.17010666E+03 0.20497866E+03 0.32000000E+00 0.0000E+00 0.9000E+01
#aMCatNLO 1  0  0  1  2 0.45350681D+02 0.00000000D+00  -5  6  0 0.00000000D+00 0.00000000D+00 0.00000000D+00 0.00000000D+00 0.00000000D+00
  <mgrwgt>
 0.5102653744D-01    3    2    0
 0.194195135278737D+03 0.000000000000000D+00 0.000000000000000D+00 0.194195135278737D+03
 0.194195135278737D+03 0.000000000000000D+00 0.000000000000000D+00 -.194195135278737D+03
 0.129725683603142D+03 -.141678459459326D+02 -.480102738558632D+01 0.313045565948120D+02
 0.130718362766775D+03 -.990715158119243D+02 -.112232296461059D+02 0.260566360279696D+02
 0.127946224187556D+03 0.113239361757857D+03 0.160242570316922D+02 -.573611926227816D+02
 0.000000000000000D+00 -.000000000000000D+00 0.000000000000000D+00 -.000000000000000D+00
 0.197487621671470D+03 0.000000000000000D+00 0.000000000000000D+00 0.197487621671470D+03
 0.456102766348866D+03 0.000000000000000D+00 0.000000000000000D+00 -.456102766348866D+03
 0.130755929843967D+03 -.105448230662633D+02 -.195178029568836D+02 0.313045565948120D+02
 0.130113642708117D+03 -.954436193509043D+02 -.259598017810324D+02 0.260566360279696D+02
 0.130159437274685D+03 0.116829337666232D+03 0.144171877437175D+01 -.573611926227816D+02
 0.262561378193568D+03 -.108408952490646D+02 0.440358859635442D+02 -.258615144677396D+03
0.879709570600D-05 0.000000000000D+00 0.000000000000D+00 0.180748888166D-06 0.000000000000D+00  6 21 2 25 24 1 21 2 0.14760047D-01 0.60473100D-01 0.33921260D+05 0.33921260D+05 0.33921260D+05 0.12093386D+01  1  2  2  1  6  1       21 0.527355922870D-01 0.100000000000D+01
-.101934441833D-05 0.464235494556D-06 -.177588016748D-07 0.180748888166D-06 0.000000000000D+00  6 21 2 25 24 1 21 4 0.14760047D-01 0.60473100D-01 0.33921260D+05 0.33921260D+05 0.33921260D+05 0.12093386D+01  1  2  3  1  6  1       21 -.893678467078D-02 0.100000000000D+01
0.824406799536D-06 0.000000000000D+00 0.000000000000D+00 0.180748888166D-06 0.000000000000D+00  6 21 2 25 24 1 21 4 0.14760047D-01 0.60473100D-01 0.33921260D+05 0.33921260D+05 0.33921260D+05 0.12093386D+01  1  2 15  1  6  1       21 0.722772981935D-02 0.100000000000D+01
  </mgrwgt>
  </event>
  <event>
  6     66 -.42910585E-03 0.40251550E+02 0.75467711E-02 0.12057366E+00
       21 -1    0    0  501  503 0.00000000E+00 0.00000000E+00 0.96598088E+02 0.96601000E+02 0.75000000E+00 0.0000E+00 0.9000E+01
        2 -1    0    0  502    0 0.00000000E+00 0.00000000E+00 -.99333181E+03 0.99333186E+03 0.32000000E+00 0.0000E+00 0.9000E+01
       25  1    1    2    0    0 0.42062268E+01 0.43044946E+01 -.54991978E+03 0.56397960E+03 0.12500000E+03 0.0000E+00 0.9000E+01
       24  1    1    2    0    0 -.17003551E+02 -.56563564E+02 -.41713805E+03 0.42890549E+03 0.80419002E+02 0.0000E+00 0.9000E+01
        1  1    1    2  501    0 -.44807826E+01 0.48851883E+02 0.54900232E+02 0.73625550E+02 0.32000000E+00 0.0000E+00 0.9000E+01
       21  1    1    2  502  503 0.17278106E+02 0.34071864E+01 0.15423875E+02 0.23422218E+02 0.75000000E+00 0.0000E+00 0.9000E+01
#aMCatNLO 2  0  0  1  2 0.17610846D+02 0.00000000D+00  -5  6  0 0.00000000D+00 0.00000000D+00 0.00000000D+00 0.00000000D+00 0.00000000D+00
  <mgrwgt>
 -.8164974717D-01    2    2    0
 0.276180796711358D+03 0.000000000000000D+00 0.000000000000000D+00 0.276180796711358D+03
 0.276180796711358D+03 0.000000000000000D+00 0.000000000000000D+00 -.276180796711358D+03
 0.180975847995792D+03 0.986187987784778D+01 0.541975562588071D+01 -.130386453023413D+03
 0.138405981662897D+03 -.126625880631984D+02 -.557075517223531D+02 -.970841251201387D+02
 0.232979763764027D+03 0.280070818535057D+01 0.502877960964724D+02 0.227470578143552D+03
 0.000000000000000D+00 0.000000000000000D+00 0.000000000000000D+00 0.000000000000000D+00
 0.345860510249677D+03 0.000000000000000D+00 0.000000000000000D+00 0.345860510249677D+03
 0.277436118450443D+03 0.000000000000000D+00 0.000000000000000D+00 -.277436118450443D+03
 0.180725891871167D+03 0.420622435402450D+01 0.430447874726530D+01 -.130386453023413D+03
 0.139216027159098D+03 -.170035526610091D+02 -.565635758253829D+02 -.970841251201387D+02
 0.232700344799285D+03 -.448077815557621D+01 0.488519106674922D+02 0.227470578143552D+03
 0.706543648705687D+02 0.172781064625608D+02 0.340718641062548D+01 0.684243917992343D+02
-.615012213345D-04 0.000000000000D+00 0.000000000000D+00 0.709862149393D-05 0.000000000000D+00  6 21 2 25 24 1 21 4 0.14883757D-01 0.15212795D+00 0.21256364D+05 0.21256364D+05 0.21256364D+05 0.12309237D+01  1  2 13  1  6  1       21 -.192984671549D+00 0.100000000000D+01
0.356053817911D-04 0.000000000000D+00 0.000000000000D+00 0.716532516262D-05 0.299617632629D-06  6 21 2 25 24 1 21 4 0.14861366D-01 0.15281941D+00 0.21256364D+05 0.21256364D+05 0.21256364D+05 0.12309237D+01  1  2  1  1  6  1       21 0.111334924378D+00 0.100000000000D+01
  </mgrwgt>
  </event>
  <event>
  5     66 0.42910585E-03 0.29358855E+02 0.75467711E-02 0.98179995E-01
       21 -1    0    0  501  502 0.00000000E+00 0.00000000E+00 0.33720984E+02 0.33729324E+02 0.75000000E+00 0.0000E+00 0.9000E+01
        2 -1    0    0  502    0 0.00000000E+00 0.00000000E+00 -.14323238E+04 0.14323239E+04 0.32000000E+00 0.0000E+00 0.9000E+01
       25  1    1    2    0    0 0.28228375E+02 0.35962414E+02 -.89424957E+03 0.90410034E+03 0.12500000E+03 0.0000E+00 0.9000E+01
       24  1    1    2    0    0 -.64273761E+01 -.16298822E+02 -.52149806E+03 0.52795303E+03 0.80419002E+02 0.0000E+00 0.9000E+01
        1  1    1    2  501    0 -.21800999E+02 -.19663592E+02 0.17144793E+02 0.33999805E+02 0.32000000E+00 0.0000E+00 0.9000E+01
#aMCatNLO 1  0  0  1  2 0.21638764D+03 0.00000000D+00  -5  6  0 0.00000000D+00 0.00000000D+00 0.00000000D+00 0.00000000D+00 0.00000000D+00
  <mgrwgt>
 0.1082558669D+00   12    2    0
 0.219785140768310D+03 0.000000000000000D+00 0.000000000000000D+00 0.219785140768310D+03
 0.219785140768310D+03 0.000000000000000D+00 0.000000000000000D+00 -.219785140768310D+03
 0.170073444128164D+03 0.282283902702962D+02 0.359624278426731D+02 -.105876523195769D+03
 0.101550482632926D+03 -.642736698271451D+01 -.162988136770440D+02 -.594837977519953D+02
 0.167946354775530D+03 -.218010232875817D+02 -.196636141656292D+02 0.165360320947765D+03
 0.000000000000000D+00 0.000000000000000D+00 -.000000000000000D+00 0.000000000000000D+00
 0.694261039104074D+03 0.000000000000000D+00 0.000000000000000D+00 0.694261039104074D+03
 0.674386500039194D+03 0.000000000000000D+00 0.000000000000000D+00 -.674386500039194D+03
 0.274592746620904D+03 -.183158580721447D+03 0.122553142109426D+03 -.105876523195769D+03
 0.174046381744998D+03 -.137441569518628D+03 0.373687010399197D+02 -.594837977519953D+02
 0.306129014060063D+03 -.247168632349862D+03 0.726540066874335D+02 0.165360320947765D+03
 0.613879396717303D+03 0.567768782589936D+03 -.232575849836779D+03 0.198745390648805D+02
0.315278561370D-05 0.000000000000D+00 0.000000000000D+00 0.115308406953D-04 0.000000000000D+00  6 21 2 25 24 1 21 2 0.51884880D-02 0.22035815D+00 0.14977168D+05 0.14977168D+05 0.14977168D+05 0.12478980D+01  1  2  2  1  6  1       21 0.239035997200D-01 0.100000000000D+01
0.641070278039D-06 0.166377067787D-06 -.636456579627D-08 0.115308406953D-04 0.000000000000D+00  6 21 2 25 24 1 21 4 0.51884880D-02 0.22035815D+00 0.14977168D+05 0.14977168D+05 0.14977168D+05 0.12478980D+01  1  2  3  1  6  1       21 0.756889810679D-02 0.100000000000D+01
0.374614453269D-06 0.000000000000D+00 0.000000000000D+00 0.115308406953D-04 0.000000000000D+00  6 21 2 25 24 1 21 4 0.51884880D-02 0.22035815D+00 0.14977168D+05 0.14977168D+05 0.14977168D+05 0.12478980D+01  1  2 15  1  6  1       21 0.442294507054D-02 0.100000000000D+01
0.707342941660D-03 0.000000000000D+00 -.227175530393D-03 0.115308406953D-04 0.000000000000D+00  6 21 2 25 24 1 21 4 0.81296501D-01 0.22035815D+00 0.14977168D+05 0.14977168D+05 0.14977168D+05 0.12478980D+01  1  2  5  1  6  1       21 0.465973019396D-01 0.100000000000D+01
0.312321832095D-03 0.000000000000D+00 -.100311758608D-03 0.115308406953D-04 0.000000000000D+00  6 -1 2 25 24 1 -1 4 0.81296501D-01 0.22035815D+00 0.14977168D+05 0.14977168D+05 0.14977168D+05 0.12478980D+01  1  2  5  4  6  1       21 0.223262230242D-02 0.100000000000D+01
0.312321832095D-03 0.000000000000D+00 -.100311758608D-03 0.115308406953D-04 0.000000000000D+00  6 1 2 25 24 1 1 4 0.81296501D-01 0.22035815D+00 0.14977168D+05 0.14977168D+05 0.14977168D+05 0.12478980D+01  1  2  5  5  6  1       21 0.700825478656D-02 0.100000000000D+01
0.312321832095D-03 0.000000000000D+00 -.100311758608D-03 0.115308406953D-04 0.000000000000D+00  6 -2 2 25 24 1 -2 4 0.81296501D-01 0.22035815D+00 0.14977168D+05 0.14977168D+05 0.14977168D+05 0.12478980D+01  1  2  5  6  6  1       21 0.169494201301D-02 0.100000000000D+01
0.312321832095D-03 0.000000000000D+00 -.100311758608D-03 0.115308406953D-04 0.000000000000D+00  6 2 2 25 24 1 2 4 0.81296501D-01 0.22035815D+00 0.14977168D+05 0.14977168D+05 0.14977168D+05 0.12478980D+01  1  2  5  7  6  1       21 0.110298210628D-01 0.100000000000D+01
0.312321832095D-03 0.000000000000D+00 -.100311758608D-03 0.115308406953D-04 0.000000000000D+00  6 -3 2 25 24 1 -3 4 0.81296501D-01 0.22035815D+00 0.14977168D+05 0.14977168D+05 0.14977168D+05 0.12478980D+01  1  2  5  8  6  1       21 0.105289935949D-02 0.100000000000D+01
0.312321832095D-03 0.000000000000D+00 -.100311758608D-03 0.115308406953D-04 0.000000000000D+00  6 -4 2 25 24 1 -4 4 0.81296501D-01 0.22035815D+00 0.14977168D+05 0.14977168D+05 0.14977168D+05 0.12478980D+01  1  2  5  8  6  1       21 0.845149899453D-03 0.100000000000D+01
0.312321832095D-03 0.000000000000D+00 -.100311758608D-03 0.115308406953D-04 0.000000000000D+00  6 3 2 25 24 1 3 4 0.81296501D-01 0.22035815D+00 0.14977168D+05 0.14977168D+05 0.14977168D+05 0.12478980D+01  1  2  5  9  6  1       21 0.105428270612D-02 0.100000000000D+01
0.312321832095D-03 0.000000000000D+00 -.100311758608D-03 0.115308406953D-04 0.000000000000D+00  6 4 2 25 24 1 4 4 0.81296501D-01 0.22035815D+00 0.14977168D+05 0.14977168D+05 0.14977168D+05 0.12478980D+01  1  2  5  9  6  1       21 0.845149899453D-03 0.100000000000D+01
  </mgrwgt>
  </event>
  <event>
  5     66 0.42910585E-03 0.77139593E+02 0.75467711E-02 0.11760080E+00
       21 -1    0    0  501  502 0.00000000E+00 0.00000000E+00 0.12846522E+02 0.12868396E+02 0.75000000E+00 0.0000E+00 0.9000E+01
        2 -1    0    0  502    0 0.00000000E+00 0.00000000E+00 -.31109588E+04 0.31109589E+04 0.32000000E+00 0.0000E+00 0.9000E+01
       25  1    1    2    0    0 0.68732983E+02 -.18933921E+02 -.18059383E+04 0.18116625E+04 0.12500000E+03 0.0000E+00 0.9000E+01
       24  1    1    2    0    0 -.46399801E+01 0.71299079E+02 -.10643541E+04 0.10697766E+04 0.80419002E+02 0.0000E+00 0.9000E+01
        1  1    1    2  501    0 -.64093003E+02 -.52365158E+02 -.22781988E+03 0.24238816E+03 0.32000000E+00 0.0000E+00 0.9000E+01
#aMCatNLO 1  0  0  1  2 0.10129452D+02 0.00000000D+00  -5  6  0 0.00000000D+00 0.00000000D+00 0.00000000D+00 0.00000000D+00 0.00000000D+00
  <mgrwgt>
 0.7284874549D-01   13    2    0
 0.199997979350369D+03 0.000000000000000D+00 0.000000000000000D+00 0.199997979350369D+03
 0.199997979350369D+03 0.000000000000000D+00 0.000000000000000D+00 -.199997979350369D+03
 0.160803864892656D+03 0.687330634169491D+02 -.189338552986762D+02 -.717646018679553D+02
 0.110772967670344D+03 -.463992494746470D+01 0.712991238214541D+02 -.264261319700655D+02
 0.128419126137738D+03 -.640931384694844D+02 -.523652685227779D+02 0.981907338380208D+02
 0.000000000000000D+00 -.000000000000000D+00 -.000000000000000D+00 -.000000000000000D+00
 0.204860964496997D+03 0.000000000000000D+00 0.000000000000000D+00 0.204860964496997D+03
 0.205407412645371D+03 0.000000000000000D+00 0.000000000000000D+00 -.205407412645371D+03
 0.161091736150240D+03 0.703202822326434D+02 -.151804901552563D+02 -.717646018679553D+02
 0.112425706162357D+03 -.353936584197363D+01 0.739016636502278D+02 -.264261319700655D+02
 0.126606754367136D+03 -.628356441927223D+02 -.493916172909632D+02 0.981907338380208D+02
 0.101441804626352D+02 -.394527219794750D+01 -.932955620400830D+01 -.546448148374542D+00
0.586153365631D-05 0.000000000000D+00 0.000000000000D+00 0.570583210188D-06 0.000000000000D+00  6 21 2 25 24 1 21 2 0.19780719D-02 0.47861074D+00 0.27929345D+05 0.27929345D+05 0.27929345D+05 0.12181719D+01  1  2  2  1  6  1       21 0.260211486241D-01 0.100000000000D+01
-.853757493597D-07 0.309321629175D-06 -.118327476694D-07 0.570583210188D-06 0.000000000000D+00  6 21 2 25 24 1 21 4 0.19780719D-02 0.47861074D+00 0.27929345D+05 0.27929345D+05 0.27929345D+05 0.12181719D+01  1  2  3  1  6  1       21 -.562427923569D-03 0.100000000000D+01
0.654952140876D-06 0.000000000000D+00 0.000000000000D+00 0.570583210188D-06 0.000000000000D+00  6 21 2 25 24 1 21 4 0.19780719D-02 0.47861074D+00 0.27929345D+05 0.27929345D+05 0.27929345D+05 0.12181719D+01  1  2 15  1  6  1       21 0.431461363903D-02 0.100000000000D+01
0.869019325818D-05 0.000000000000D+00 0.000000000000D+00 0.568227133246D-06 0.000000000000D+00  6 21 2 25 24 1 21 4 0.20522436D-02 0.47861074D+00 0.29507110D+05 0.29507110D+05 0.29507110D+05 0.12156542D+01  1  2 12  1  6  1       21 0.533698374689D-01 0.100000000000D+01
-.161217663461D-05 0.000000000000D+00 0.000000000000D+00 0.570583210188D-06 0.000000000000D+00  6 21 2 25 24 1 21 4 0.19780719D-02 0.47861074D+00 0.27929345D+05 0.27929345D+05 0.27929345D+05 0.12181719D+01  1  2  4  1  6  1       21 -.106205001283D-01 0.100000000000D+01
0.153432250243D-06 0.000000000000D+00 0.000000000000D+00 0.568227133246D-06 0.000000000000D+00  6 -1 2 25 24 1 -1 4 0.20522436D-02 0.47861074D+00 0.29507110D+05 0.29507110D+05 0.29507110D+05 0.12156542D+01  1  2 12  4  6  1       21 0.458990485164D-04 0.100000000000D+01
0.153432250243D-06 0.000000000000D+00 0.000000000000D+00 0.568227133246D-06 0.000000000000D+00  6 1 2 25 24 1 1 4 0.20522436D-02 0.47861074D+00 0.29507110D+05 0.29507110D+05 0.29507110D+05 0.12156542D+01  1  2 12  5  6  1       21 0.482782791021D-04 0.100000000000D+01
0.153432250243D-06 0.000000000000D+00 0.000000000000D+00 0.568227133246D-06 0.000000000000D+00  6 -2 2 25 24 1 -2 4 0.20522436D-02 0.47861074D+00 0.29507110D+05 0.29507110D+05 0.29507110D+05 0.12156542D+01  1  2 12  6  6  1       21 0.454725513869D-04 0.100000000000D+01
0.153432250243D-06 0.000000000000D+00 0.000000000000D+00 0.568227133246D-06 0.000000000000D+00  6 2 2 25 24 1 2 4 0.20522436D-02 0.47861074D+00 0.29507110D+05 0.29507110D+05 0.29507110D+05 0.12156542D+01  1  2 12  7  6  1       21 0.499147508824D-04 0.100000000000D+01
0.153432250243D-06 0.000000000000D+00 0.000000000000D+00 0.568227133246D-06 0.000000000000D+00  6 -3 2 25 24 1 -3 4 0.20522436D-02 0.47861074D+00 0.29507110D+05 0.29507110D+05 0.29507110D+05 0.12156542D+01  1  2 12  8  6  1       21 0.357015326028D-04 0.100000000000D+01
0.153432250243D-06 0.000000000000D+00 0.000000000000D+00 0.568227133246D-06 0.000000000000D+00  6 -4 2 25 24 1 -4 4 0.20522436D-02 0.47861074D+00 0.29507110D+05 0.29507110D+05 0.29507110D+05 0.12156542D+01  1  2 12  8  6  1       21 0.325540605576D-04 0.100000000000D+01
0.153432250243D-06 0.000000000000D+00 0.000000000000D+00 0.568227133246D-06 0.000000000000D+00  6 3 2 25 24 1 3 4 0.20522436D-02 0.47861074D+00 0.29507110D+05 0.29507110D+05 0.29507110D+05 0.12156542D+01  1  2 12  9  6  1       21 0.356995243403D-04 0.100000000000D+01
0.153432250243D-06 0.000000000000D+00 0.000000000000D+00 0.568227133246D-06 0.000000000000D+00  6 4 2 25 24 1 4 4 0.20522436D-02 0.47861074D+00 0.29507110D+05 0.29507110D+05 0.29507110D+05 0.12156542D+01  1  2 12  9  6  1       21 0.325540605576D-04 0.100000000000D+01
  </mgrwgt>
  </event>
  <event>
  5     66 0.42910585E-03 0.55954515E+02 0.75467711E-02 0.12130726E+00
       21 -1    0    0  501  502 0.00000000E+00 0.00000000E+00 0.16426118E+02 0.16443231E+02 0.75000000E+00 0.0000E+00 0.9000E+01
        2 -1    0    0  502    0 0.00000000E+00 0.00000000E+00 -.18749858E+04 0.18749859E+04 0.32000000E+00 0.0000E+00 0.9000E+01
       25  1    1    2    0    0 -.50501661E+02 -.30669829E+02 -.14415720E+04 0.14481871E+04 0.12500000E+03 0.0000E+00 0.9000E+01
       24  1    1    2    0    0 0.47815470E+01 -.57334719E+01 -.31975031E+03 0.32979268E+03 0.80419002E+02 0.0000E+00 0.9000E+01
        1  1    1    2  501    0 0.45720114E+02 0.36403301E+02 -.97237390E+02 0.11344929E+03 0.32000000E+00 0.0000E+00 0.9000E+01
#aMCatNLO 1  0  0  1  2 0.30855007D+01 0.00000000D+00  -5  6  0 0.00000000D+00 0.00000000D+00 0.00000000D+00 0.00000000D+00 0.00000000D+00
  <mgrwgt>
 0.1639971285D+00   41    2    0
 0.175541868734248D+03 0.000000000000000D+00 0.000000000000000D+00 0.175541868734248D+03
 0.175541868734248D+03 0.000000000000000D+00 0.000000000000000D+00 -.175541868734248D+03
 0.170602127950661D+03 -.505017834169654D+02 -.306699263193995D+02 -.999450426612649D+02
 0.840381174241370D+02 0.478148676449362D+01 -.573351984284123D+01 0.232261352866812D+02
 0.964434920936978D+02 0.457202966524718D+02 0.364034461622408D+02 0.767189073745838D+02
 0.000000000000000D+00 0.000000000000000D+00 0.000000000000000D+00 0.000000000000000D+00
 0.180960016516237D+03 0.000000000000000D+00 0.000000000000000D+00 0.180960016516237D+03
 0.175988477150264D+03 0.000000000000000D+00 0.000000000000000D+00 -.175988477150264D+03
 0.171008874847652D+03 -.509939268773727D+02 -.320880530061091D+02 -.999450426612649D+02
 0.840751895510886D+02 0.453929355655366D+01 -.643140710367201D+01 0.232261352866812D+02
 0.960132312746030D+02 0.454430329898811D+02 0.356045022956510D+02 0.767189073745838D+02
 0.585119799315769D+01 0.101160033093798D+01 0.291495781413009D+01 0.497153936597315D+01
0.122856906117D-05 0.000000000000D+00 0.000000000000D+00 0.653940027760D-06 0.000000000000D+00  6 21 2 25 24 1 21 2 0.25284135D-02 0.28846068D+00 0.19247185D+05 0.19247185D+05 0.19247185D+05 0.12356647D+01  1  2  2  1  6  1       21 0.177302635851D-01 0.100000000000D+01
-.501891789689D-08 0.648333705543D-07 -.248012696807D-08 0.653940027760D-06 0.000000000000D+00  6 21 2 25 24 1 21 4 0.25284135D-02 0.28846068D+00 0.19247185D+05 0.19247185D+05 0.19247185D+05 0.12356647D+01  1  2  3  1  6  1       21 -.110592834351D-03 0.100000000000D+01
0.127361706667D-06 0.000000000000D+00 0.000000000000D+00 0.653940027760D-06 0.000000000000D+00  6 21 2 25 24 1 21 4 0.25284135D-02 0.28846068D+00 0.19247185D+05 0.19247185D+05 0.19247185D+05 0.12356647D+01  1  2 15  1  6  1       21 0.280644003697D-02 0.100000000000D+01
0.142089540597D-06 0.000000000000D+00 0.000000000000D+00 0.652879918732D-06 0.000000000000D+00  6 21 2 25 24 1 21 4 0.26096143D-02 0.28846068D+00 0.19653420D+05 0.19653420D+05 0.19653420D+05 0.12346627D+01  1  2 12  1  6  1       21 0.296339470336D-02 0.100000000000D+01
0.841805496896D-07 0.000000000000D+00 0.000000000000D+00 0.652879918732D-06 0.000000000000D+00  6 21 2 25 24 1 21 4 0.26632319D-02 0.28846068D+00 0.19653420D+05 0.19653420D+05 0.19653420D+05 0.12346627D+01  1  2 12  1  6  1       21 0.169826409684D-02 0.100000000000D+01
-.132889589564D-04 0.000000000000D+00 0.000000000000D+00 0.653940027760D-06 0.000000000000D+00  6 21 2 25 24 1 21 4 0.25284135D-02 0.28846068D+00 0.19247185D+05 0.19247185D+05 0.19247185D+05 0.12356647D+01  1  2  4  1  6  1       21 -.292824801433D+00 0.100000000000D+01
-.142934641345D-03 0.000000000000D+00 -.117814334520D-04 0.653940027760D-06 0.000000000000D+00  6 21 2 25 24 1 21 4 0.26135305D-02 0.28846068D+00 0.19247185D+05 0.19247185D+05 0.19247185D+05 0.12356647D+01  1  2  5  1  6  1       21 -.298390764780D+01 0.100000000000D+01
0.143039635879D-03 0.000000000000D+00 0.117556422950D-04 0.653940027760D-06 0.000000000000D+00  6 21 2 25 24 1 21 4 0.25284135D-02 0.28846068D+00 0.19247185D+05 0.19247185D+05 0.19247185D+05 0.12356647D+01  1  2  6  1  6  1       21 0.315190626374D+01 0.100000000000D+01
0.128434528430D-04 0.000000000000D+00 0.000000000000D+00 0.653940027760D-06 0.256294602532D-05  6 21 2 25 24 1 21 4 0.26064537D-02 0.28919457D+00 0.19653420D+05 0.19653420D+05 0.19653420D+05 0.12346627D+01  1  2 11  1  6  1       21 0.266888579247D+00 0.100000000000D+01
0.559576272936D-08 0.000000000000D+00 0.000000000000D+00 0.652879918732D-06 0.000000000000D+00  6 -1 2 25 24 1 -1 4 0.26096143D-02 0.28846068D+00 0.19653420D+05 0.19653420D+05 0.19653420D+05 0.12346627D+01  1  2 12  4  6  1       21 0.589474992820D-05 0.100000000000D+01
0.560722476648D-08 0.000000000000D+00 0.000000000000D+00 0.652879918732D-06 0.000000000000D+00  6 -1 2 25 24 1 -1 4 0.26632319D-02 0.28846068D+00 0.19653420D+05 0.19653420D+05 0.19653420D+05 0.12346627D+01  1  2 12  4  6  1       21 0.573487907681D-05 0.100000000000D+01
-.100640348748D-05 0.000000000000D+00 -.910000582417D-07 0.653940027760D-06 0.000000000000D+00  6 -1 2 25 24 1 -1 4 0.26135305D-02 0.28846068D+00 0.19247185D+05 0.19247185D+05 0.19247185D+05 0.12356647D+01  1  2  5  4  6  1       21 -.106116837780D-02 0.100000000000D+01
0.852320084434D-06 0.000000000000D+00 0.000000000000D+00 0.653940027760D-06 0.169635333510D-06  6 -1 2 25 24 1 -1 4 0.26064537D-02 0.28919457D+00 0.19653420D+05 0.19653420D+05 0.19653420D+05 0.12346627D+01  1  2 11  4  6  1       21 0.894404988194D-03 0.100000000000D+01
0.559576272936D-08 0.000000000000D+00 0.000000000000D+00 0.652879918732D-06 0.000000000000D+00  6 1 2 25 24 1 1 4 0.26096143D-02 0.28846068D+00 0.19653420D+05 0.19653420D+05 0.19653420D+05 0.12346627D+01  1  2 12  5  6  1       21 0.628642853551D-05 0.100000000000D+01
0.560722476648D-08 0.000000000000D+00 0.000000000000D+00 0.652879918732D-06 0.000000000000D+00  6 1 2 25 24 1 1 4 0.26632319D-02 0.28846068D+00 0.19653420D+05 0.19653420D+05 0.19653420D+05 0.12346627D+01  1  2 12  5  6  1       21 0.612373289139D-05 0.100000000000D+01
-.100640348748D-05 0.000000000000D+00 -.910000582417D-07 0.653940027760D-06 0.000000000000D+00  6 1 2 25 24 1 1 4 0.26135305D-02 0.28846068D+00 0.19247185D+05 0.19247185D+05 0.19247185D+05 0.12356647D+01  1  2  5  5  6  1       21 -.113181372150D-02 0.100000000000D+01
0.545945466326D-06 0.000000000000D+00 0.000000000000D+00 0.653940027760D-06 0.426909789519D-08  6 1 2 25 24 1 1 4 0.26064537D-02 0.28919457D+00 0.19653420D+05 0.19653420D+05 0.19653420D+05 0.12346627D+01  1  2 11  5  6  1       21 0.610923330039D-03 0.100000000000D+01
0.559576272936D-08 0.000000000000D+00 0.000000000000D+00 0.652879918732D-06 0.000000000000D+00  6 -2 2 25 24 1 -2 4 0.26096143D-02 0.28846068D+00 0.19653420D+05 0.19653420D+05 0.19653420D+05 0.12346627D+01  1  2 12  6  6  1       21 0.582445690927D-05 0.100000000000D+01
0.560722476648D-08 0.000000000000D+00 0.000000000000D+00 0.652879918732D-06 0.000000000000D+00  6 -2 2 25 24 1 -2 4 0.26632319D-02 0.28846068D+00 0.19653420D+05 0.19653420D+05 0.19653420D+05 0.12346627D+01  1  2 12  6  6  1       21 0.566510638024D-05 0.100000000000D+01
-.100640348748D-05 0.000000000000D+00 -.910000582417D-07 0.653940027760D-06 0.000000000000D+00  6 -2 2 25 24 1 -2 4 0.26135305D-02 0.28846068D+00 0.19247185D+05 0.19247185D+05 0.19247185D+05 0.12356647D+01  1  2  5  6  6  1       21 -.104848945131D-02 0.100000000000D+01
0.527406882389D-06 0.000000000000D+00 0.000000000000D+00 0.653940027760D-06 0.816874455456D-08  6 -2 2 25 24 1 -2 4 0.26064537D-02 0.28919457D+00 0.19653420D+05 0.19653420D+05 0.19653420D+05 0.12346627D+01  1  2 11  6  6  1       21 0.546856780915D-03 0.100000000000D+01
0.559576272936D-08 0.000000000000D+00 0.000000000000D+00 0.652879918732D-06 0.000000000000D+00  6 2 2 25 24 1 2 4 0.26096143D-02 0.28846068D+00 0.19653420D+05 0.19653420D+05 0.19653420D+05 0.12346627D+01  1  2 12  7  6  1       21 0.655377104557D-05 0.100000000000D+01
0.560722476648D-08 0.000000000000D+00 0.000000000000D+00 0.652879918732D-06 0.000000000000D+00  6 2 2 25 24 1 2 4 0.26632319D-02 0.28846068D+00 0.19653420D+05 0.19653420D+05 0.19653420D+05 0.12346627D+01  1  2 12  7  6  1       21 0.638899015709D-05 0.100000000000D+01
-.100640348748D-05 0.000000000000D+00 -.910000582417D-07 0.653940027760D-06 0.000000000000D+00  6 2 2 25 24 1 2 4 0.26135305D-02 0.28846068D+00 0.19247185D+05 0.19247185D+05 0.19247185D+05 0.12356647D+01  1  2  5  7  6  1       21 -.118002887556D-02 0.100000000000D+01
0.509094322702D-06 0.000000000000D+00 0.000000000000D+00 0.653940027760D-06 0.807562175431D-08  6 2 2 25 24 1 2 4 0.26064537D-02 0.28919457D+00 0.19653420D+05 0.19653420D+05 0.19653420D+05 0.12346627D+01  1  2 11  7  6  1       21 0.593886657918D-03 0.100000000000D+01
0.559576272936D-08 0.000000000000D+00 0.000000000000D+00 0.652879918732D-06 0.000000000000D+00  6 -3 2 25 24 1 -3 4 0.26096143D-02 0.28846068D+00 0.19653420D+05 0.19653420D+05 0.19653420D+05 0.12346627D+01  1  2 12  8  6  1       21 0.445829016166D-05 0.100000000000D+01
0.559576272936D-08 0.000000000000D+00 0.000000000000D+00 0.652879918732D-06 0.000000000000D+00  6 -4 2 25 24 1 -4 4 0.26096143D-02 0.28846068D+00 0.19653420D+05 0.19653420D+05 0.19653420D+05 0.12346627D+01  1  2 12  8  6  1       21 0.403188840221D-05 0.100000000000D+01
0.560722476648D-08 0.000000000000D+00 0.000000000000D+00 0.652879918732D-06 0.000000000000D+00  6 -3 2 25 24 1 -3 4 0.26632319D-02 0.28846068D+00 0.19653420D+05 0.19653420D+05 0.19653420D+05 0.12346627D+01  1  2 12  8  6  1       21 0.432978079386D-05 0.100000000000D+01
0.560722476648D-08 0.000000000000D+00 0.000000000000D+00 0.652879918732D-06 0.000000000000D+00  6 -4 2 25 24 1 -4 4 0.26632319D-02 0.28846068D+00 0.19653420D+05 0.19653420D+05 0.19653420D+05 0.12346627D+01  1  2 12  8  6  1       21 0.391409077185D-05 0.100000000000D+01
-.100640348748D-05 0.000000000000D+00 -.910000582417D-07 0.653940027760D-06 0.000000000000D+00  6 -3 2 25 24 1 -3 4 0.26135305D-02 0.28846068D+00 0.19247185D+05 0.19247185D+05 0.19247185D+05 0.12356647D+01  1  2  5  8  6  1       21 -.802121651014D-03 0.100000000000D+01
-.100640348748D-05 0.000000000000D+00 -.910000582417D-07 0.653940027760D-06 0.000000000000D+00  6 -4 2 25 24 1 -4 4 0.26135305D-02 0.28846068D+00 0.19247185D+05 0.19247185D+05 0.19247185D+05 0.12356647D+01  1  2  5  8  6  1       21 -.725236460117D-03 0.100000000000D+01
0.527638954931D-06 0.000000000000D+00 0.000000000000D+00 0.653940027760D-06 0.817233901146D-08  6 -3 2 25 24 1 -3 4 0.26064537D-02 0.28919457D+00 0.19653420D+05 0.19653420D+05 0.19653420D+05 0.12346627D+01  1  2 11  8  6  1       21 0.418809498548D-03 0.100000000000D+01
0.527638954931D-06 0.000000000000D+00 0.000000000000D+00 0.653940027760D-06 0.817233901146D-08  6 -4 2 25 24 1 -4 4 0.26064537D-02 0.28919457D+00 0.19653420D+05 0.19653420D+05 0.19653420D+05 0.12346627D+01  1  2 11  8  6  1       21 0.378762596864D-03 0.100000000000D+01
0.559576272936D-08 0.000000000000D+00 0.000000000000D+00 0.652879918732D-06 0.000000000000D+00  6 3 2 25 24 1 3 4 0.26096143D-02 0.28846068D+00 0.19653420D+05 0.19653420D+05 0.19653420D+05 0.12346627D+01  1  2 12  9  6  1       21 0.445798716704D-05 0.100000000000D+01
0.559576272936D-08 0.000000000000D+00 0.000000000000D+00 0.652879918732D-06 0.000000000000D+00  6 4 2 25 24 1 4 4 0.26096143D-02 0.28846068D+00 0.19653420D+05 0.19653420D+05 0.19653420D+05 0.12346627D+01  1  2 12  9  6  1       21 0.403188840221D-05 0.100000000000D+01
0.560722476648D-08 0.000000000000D+00 0.000000000000D+00 0.652879918732D-06 0.000000000000D+00  6 3 2 25 24 1 3 4 0.26632319D-02 0.28846068D+00 0.19653420D+05 0.19653420D+05 0.19653420D+05 0.12346627D+01  1  2 12  9  6  1       21 0.432948272442D-05 0.100000000000D+01
0.560722476648D-08 0.000000000000D+00 0.000000000000D+00 0.652879918732D-06 0.000000000000D+00  6 4 2 25 24 1 4 4 0.26632319D-02 0.28846068D+00 0.19653420D+05 0.19653420D+05 0.19653420D+05 0.12346627D+01  1  2 12  9  6  1       21 0.391409077185D-05 0.100000000000D+01
-.100640348748D-05 0.000000000000D+00 -.910000582417D-07 0.653940027760D-06 0.000000000000D+00  6 3 2 25 24 1 3 4 0.26135305D-02 0.28846068D+00 0.19247185D+05 0.19247185D+05 0.19247185D+05 0.12356647D+01  1  2  5  9  6  1       21 -.802066991291D-03 0.100000000000D+01
-.100640348748D-05 0.000000000000D+00 -.910000582417D-07 0.653940027760D-06 0.000000000000D+00  6 4 2 25 24 1 4 4 0.26135305D-02 0.28846068D+00 0.19247185D+05 0.19247185D+05 0.19247185D+05 0.12356647D+01  1  2  5  9  6  1       21 -.725236460117D-03 0.100000000000D+01
0.527638954931D-06 0.000000000000D+00 0.000000000000D+00 0.653940027760D-06 0.817233901146D-08  6 3 2 25 24 1 3 4 0.26064537D-02 0.28919457D+00 0.19653420D+05 0.19653420D+05 0.19653420D+05 0.12346627D+01  1  2 11  9  6  1       21 0.418781057245D-03 0.100000000000D+01
0.527638954931D-06 0.000000000000D+00 0.000000000000D+00 0.653940027760D-06 0.817233901146D-08  6 4 2 25 24 1 4 4 0.26064537D-02 0.28919457D+00 0.19653420D+05 0.19653420D+05 0.19653420D+05 0.12346627D+01  1  2 11  9  6  1       21 0.378762596864D-03 0.100000000000D+01
  </mgrwgt>
  </event>
  <event>
  5     66 0.42910585E-03 0.33418664E+02 0.75467711E-02 0.11163907E+00
       21 -1    0    0  501  502 0.00000000E+00 0.00000000E+00 0.20029172E+02 0.20043209E+02 0.75000000E+00 0.0000E+00 0.9000E+01
        2 -1    0    0  502    0 0.00000000E+00 0.00000000E+00 -.19581672E+04 0.19581672E+04 0.32000000E+00 0.0000E+00 0.9000E+01
       25  1    1    2    0    0 0.68143388E+02 0.56789024E+02 -.11108712E+04 0.11213957E+04 0.12500000E+03 0.0000E+00 0.9000E+01
       24  1    1    2    0    0 -.90766424E+02 -.32192338E+02 -.80911127E+03 0.81878151E+03 0.80419002E+02 0.0000E+00 0.9000E+01
        1  1    1    2  501    0 0.22623037E+02 -.24596686E+02 -.18155550E+02 0.38033211E+02 0.32000000E+00 0.0000E+00 0.9000E+01
#aMCatNLO 1  0  0  1  5 0.15777540D+03 0.00000000D+00  -5  6  0 0.00000000D+00 0.00000000D+00 0.00000000D+00 0.00000000D+00 0.00000000D+00
  <mgrwgt>
 0.1107161530D+00    3    2    0
 0.198076693343077D+03 0.000000000000000D+00 0.000000000000000D+00 0.198076693343077D+03
 0.198076693343077D+03 0.000000000000000D+00 0.000000000000000D+00 -.198076693343077D+03
 0.164923503888280D+03 0.681433404168553D+02 0.567890755582793D+02 -.608789634344738D+02
 0.130133480814491D+03 -.907664617174074D+02 -.321922975036260D+02 -.345342190191920D+02
 0.101096401983384D+03 0.226231213005521D+02 -.245967780546532D+02 0.954131824536658D+02
 0.000000000000000D+00 0.000000000000000D+00 -.000000000000000D+00 -.000000000000000D+00
 0.262047799480960D+03 0.000000000000000D+00 0.000000000000000D+00 0.262047799480960D+03
 0.340630033624053D+03 0.000000000000000D+00 0.000000000000000D+00 -.340630033624053D+03
 0.158242288052642D+03 0.890348271897869D+01 0.750340025238703D+02 -.608789634344738D+02
 0.170848748754200D+03 -.145939827506378D+03 -.151997848882270D+02 -.345342190191920D+02
 0.973249358265707D+02 -.137497006664241D+02 -.133945316936916D+02 0.954131824536658D+02
 0.176261860471600D+03 0.150786045453824D+03 -.464396859419516D+02 -.785822341430932D+02
0.870730080411D-05 0.000000000000D+00 0.000000000000D+00 0.175589064534D-05 0.000000000000D+00  6 21 2 25 24 1 21 2 0.30824928D-02 0.30125757D+00 0.24361305D+05 0.24361305D+05 0.24361305D+05 0.12245045D+01  1  2  2  1  6  1       21 0.806168598649D-01 0.100000000000D+01
0.111653341367D-05 0.459496887397D-06 -.175775316389D-07 0.175589064534D-05 0.000000000000D+00  6 21 2 25 24 1 21 4 0.30824928D-02 0.30125757D+00 0.24361305D+05 0.24361305D+05 0.24361305D+05 0.12245045D+01  1  2  3  1  6  1       21 0.155001113272D-01 0.100000000000D+01
0.105163595022D-05 0.000000000000D+00 0.000000000000D+00 0.175589064534D-05 0.000000000000D+00  6 21 2 25 24 1 21 4 0.30824928D-02 0.30125757D+00 0.24361305D+05 0.24361305D+05 0.24361305D+05 0.12245045D+01  1  2 15  1  6  1       21 0.145991818108D-01 0.100000000000D+01
  </mgrwgt>
  </event>
  <event>
  5     66 -.42910585E-03 0.59337490E+02 0.75467711E-02 0.11990023E+00
       21 -1    0    0  501  502 0.00000000E+00 0.00000000E+00 0.57294593E+02 0.57299502E+02 0.75000000E+00 0.0000E+00 0.9000E+01
        2 -1    0    0  502    0 -.00000000E+00 -.00000000E+00 -.14223905E+04 0.14223906E+04 0.32000000E+00 0.0000E+00 0.9000E+01
       25  1    1    2    0    0 0.51157580E+02 -.42682064E+02 -.12846198E+04 0.12924054E+04 0.12500000E+03 0.0000E+00 0.9000E+01
       24  1    1    2    0    0 0.11321187E+00 0.12811720E+02 -.96061977E+02 0.12593360E+03 0.80419002E+02 0.0000E+00 0.9000E+01
        1  1    1    2  501    0 -.51270792E+02 0.29870345E+02 0.15585793E+02 0.61351047E+02 0.32000000E+00 0.0000E+00 0.9000E+01
#aMCatNLO 1  0  0  5  1 0.16308776D+02 0.00000000D+00  -5  6  0 0.00000000D+00 0.00000000D+00 0.00000000D+00 0.00000000D+00 0.00000000D+00
  <mgrwgt>
 -.2776480451D-01    6    2    0
 0.285480201826772D+03 0.000000000000000D+00 0.000000000000000D+00 0.285480201826772D+03
 0.285480201826772D+03 -.000000000000000D+00 -.000000000000000D+00 -.285480201826772D+03
 0.278005832436373D+03 0.511576135972233D+02 -.426820837494802D+02 -.239214090652035D+03
 0.966947504298777D+02 0.113223415031255D+00 0.128117130277076D+02 0.521392941655308D+02
 0.196259820787293D+03 -.512708370122546D+02 0.298703707217727D+02 0.187074796486505D+03
 0.000000000000000D+00 0.000000000000000D+00 0.000000000000000D+00 0.000000000000000D+00
 0.285480201826772D+03 0.000000000000000D+00 0.000000000000000D+00 0.285480201826772D+03
 0.285480201826772D+03 -.000000000000000D+00 -.000000000000000D+00 -.285480201826772D+03
 0.274558666379307D+03 0.501459886653142D+02 -.420927114374915D+02 -.235522917671724D+03
 0.974277889569364D+02 -.242172563375084D+00 0.130187665935678D+02 0.534360475287848D+02
 0.176890014161972D+03 -.600646764461377D+02 0.334706767888479D+02 0.162978604574158D+03
 0.220839341553286D+02 0.101608603441986D+02 -.439673194492417D+01 0.191082655687811D+02
0.227748668589D-05 0.000000000000D+00 0.000000000000D+00 0.625854105460D-06 0.000000000000D+00  6 21 2 25 24 1 21 2 0.88149332D-02 0.21882969D+00 0.19939935D+05 0.19939935D+05 0.19939935D+05 0.12339699D+01  1  2  2  3  6  5        1 0.688043210313D-02 0.100000000000D+01
0.122693402736D-06 0.120186274346D-06 -.459758944582D-08 0.625854105460D-06 0.000000000000D+00  6 21 2 25 24 1 21 4 0.88149332D-02 0.21882969D+00 0.19939935D+05 0.19939935D+05 0.19939935D+05 0.12339699D+01  1  2  3  3  6  5        1 0.564404146389D-03 0.100000000000D+01
0.248186448663D-06 0.000000000000D+00 0.000000000000D+00 0.625854105460D-06 0.000000000000D+00  6 21 2 25 24 1 21 4 0.88149332D-02 0.21882969D+00 0.19939935D+05 0.19939935D+05 0.19939935D+05 0.12339699D+01  1  2 15  3  6  5        1 0.114168698218D-02 0.100000000000D+01
-.894852049803D-05 0.000000000000D+00 0.000000000000D+00 0.625854105460D-06 0.000000000000D+00  6 21 2 25 24 1 21 4 0.88149332D-02 0.21882969D+00 0.19939935D+05 0.19939935D+05 0.19939935D+05 0.12339699D+01  1  2  4  3  6  5        1 -.411642513821D-01 0.100000000000D+01
-.880617215872D-05 0.000000000000D+00 0.000000000000D+00 0.625854105460D-06 0.000000000000D+00  6 21 2 25 24 1 21 4 0.88149332D-02 0.21882969D+00 0.19939935D+05 0.19939935D+05 0.19939935D+05 0.12339699D+01  1  2  5  3  6  5        1 -.405094322056D-01 0.100000000000D+01
0.985243303795D-05 0.000000000000D+00 -.000000000000D+00 0.625854105460D-06 0.000000000000D+00  6 21 2 25 24 1 21 4 0.88149332D-02 0.21882969D+00 0.19939935D+05 0.19939935D+05 0.19939935D+05 0.12339699D+01  1  2  6  3  6  5        1 0.453223558452D-01 0.100000000000D+01
  </mgrwgt>
  </event>
  <event>
  6     66 -.42910585E-03 0.35661332E+02 0.75467711E-02 0.11977235E+00
       21 -1    0    0  503  502 0.00000000E+00 0.00000000E+00 0.98147375E+02 0.98150241E+02 0.75000000E+00 0.0000E+00 0.9000E+01
        2 -1    0    0  502    0 0.00000000E+00 0.00000000E+00 -.73251846E+03 0.73251853E+03 0.32000000E+00 0.0000E+00 0.9000E+01
       25  1    1    2    0    0 -.22706398E+02 0.68273676E+02 -.44506915E+03 0.46785513E+03 0.12500000E+03 0.0000E+00 0.9000E+01
       24  1    1    2    0    0 -.28419856E+02 -.64642694E+02 -.23315534E+03 0.25654434E+03 0.80419002E+02 0.0000E+00 0.9000E+01
        1  1    1    2  501    0 0.41423817E+02 0.29764633E+01 0.67845950E+02 0.79548522E+02 0.32000000E+00 0.0000E+00 0.9000E+01
       21  1    1    2  503  501 0.97024374E+01 -.66074446E+01 -.23992536E+02 0.26720776E+02 0.75000000E+00 0.0000E+00 0.9000E+01
#aMCatNLO 2  0  0  1  2 0.11738638D+02 0.00000000D+00  -5  6  0 0.00000000D+00 0.00000000D+00 0.00000000D+00 0.00000000D+00 0.00000000D+00
  <mgrwgt>
 -.5501558750D-02    2    2    0
 0.261549520477667D+03 0.000000000000000D+00 0.000000000000000D+00 0.261549520477667D+03
 0.261549520477667D+03 0.000000000000000D+00 0.000000000000000D+00 -.261549520477667D+03
 0.198431151794277D+03 -.190149485979076D+02 0.657597512852172D+02 -.138072476776253D+03
 0.122513474851379D+03 -.261507455530101D+02 -.661879875073702D+02 -.589713861337413D+02
 0.202154414309677D+03 0.451656941509178D+02 0.428236222152981D+00 0.197043862909994D+03
 0.000000000000000D+00 0.000000000000000D+00 -.000000000000000D+00 -.000000000000000D+00
 0.265291967877710D+03 0.000000000000000D+00 0.000000000000000D+00 0.265291967877710D+03
 0.270985138922860D+03 0.000000000000000D+00 0.000000000000000D+00 -.270985138922860D+03
 0.199664431633586D+03 -.227064209886561D+02 0.682736762033526D+02 -.138072476776253D+03
 0.122193319101194D+03 -.284198698822133D+02 -.646426940337342D+02 -.589713861337413D+02
 0.201372984470672D+03 0.414238534636092D+02 0.297646238987201D+01 0.197043862909994D+03
 0.130463715951171D+02 0.970243740726024D+01 -.660744455949034D+01 -.569317104515031D+01
-.554054237078D-05 0.000000000000D+00 0.000000000000D+00 0.431774788457D-05 0.000000000000D+00  6 21 2 25 24 1 21 4 0.14886210D-01 0.10876697D+00 0.21766708D+05 0.21766708D+05 0.21766708D+05 0.12297992D+01  1  2  8  1  6  1       21 -.265465086455D-01 0.100000000000D+01
0.475215163283D-05 0.000000000000D+00 0.000000000000D+00 0.431774788457D-05 0.264095576780D-06  6 21 2 25 24 1 21 4 0.15099213D-01 0.11269083D+00 0.23182995D+05 0.23182995D+05 0.23182995D+05 0.12268267D+01  1  2  1  1  6  1       21 0.210449498952D-01 0.100000000000D+01
  </mgrwgt>
  </event>
  <event>
  5     66 0.42910585E-03 0.53994332E+02 0.75467711E-02 0.11318452E+00
       21 -1    0    0  501  502 0.00000000E+00 0.00000000E+00 0.30837963E+02 0.30847082E+02 0.75000000E+00 0.0000E+00 0.9000E+01
        2 -1    0    0  502    0 0.00000000E+00 0.00000000E+00 -.18129973E+04 0.18129973E+04 0.32000000E+00 0.0000E+00 0.9000E+01
       25  1    1    2    0    0 0.10387289E+03 0.12770289E+03 -.11780456E+04 0.11960410E+04 0.12500000E+03 0.0000E+00 0.9000E+01
       24  1    1    2    0    0 -.50907367E+02 -.13819105E+03 -.53121347E+03 0.55708463E+03 0.80419002E+02 0.0000E+00 0.9000E+01
        1  1    1    2  501    0 -.52965524E+02 0.10488152E+02 -.72900299E+02 0.90718818E+02 0.32000000E+00 0.0000E+00 0.9000E+01
#aMCatNLO 1  0  0  1  2 0.16554292D+02 0.00000000D+00  -5  6  0 0.00000000D+00 0.00000000D+00 0.00000000D+00 0.00000000D+00 0.00000000D+00
  <mgrwgt>
 0.1659625609D+00   23    2    0
 0.236468976700260D+03 0.000000000000000D+00 0.000000000000000D+00 0.236468976700260D+03
 0.236468976700260D+03 0.000000000000000D+00 0.000000000000000D+00 -.236468976700260D+03
 0.223810747745813D+03 0.103873096643341D+03 0.127702853317572D+03 -.858406189097772D+02
 0.170149853701747D+03 -.509072106170725D+02 -.138191076620314D+03 0.282035283264908D+02
 0.789773519529604D+02 -.529658860262683D+02 0.104882233027412D+02 0.576370905832864D+02
 0.000000000000000D+00 0.000000000000000D+00 0.000000000000000D+00 0.000000000000000D+00
 0.245097084172549D+03 0.000000000000000D+00 0.000000000000000D+00 0.245097084172549D+03
 0.244689807911589D+03 0.000000000000000D+00 0.000000000000000D+00 -.244689807911589D+03
 0.218350974171753D+03 0.977048589309399D+02 0.123033721427197D+03 -.858406189097772D+02
 0.174594251205920D+03 -.557164545737798D+02 -.141831499602345D+03 0.282035283264908D+02
 0.802823650725495D+02 -.551875885028255D+02 0.880647523013305D+01 0.576370905832864D+02
 0.165593016339155D+02 0.131991841456655D+02 0.999130294501509D+01 0.407276260959813D+00
0.471747543634D-05 0.000000000000D+00 0.000000000000D+00 0.267297796738D-06 0.000000000000D+00  6 21 2 25 24 1 21 2 0.47450056D-02 0.27892337D+00 0.45899848D+05 0.45899848D+05 0.45899848D+05 0.11959794D+01  1  2  2  1  6  1       21 0.237578839001D-01 0.100000000000D+01
0.160323877119D-06 0.248948018236D-06 -.952322374105D-08 0.267297796738D-06 0.000000000000D+00  6 21 2 25 24 1 21 4 0.47450056D-02 0.27892337D+00 0.45899848D+05 0.45899848D+05 0.45899848D+05 0.11959794D+01  1  2  3  1  6  1       21 0.115489828737D-02 0.100000000000D+01
0.482522933324D-06 0.000000000000D+00 0.000000000000D+00 0.267297796738D-06 0.000000000000D+00  6 21 2 25 24 1 21 4 0.47450056D-02 0.27892337D+00 0.45899848D+05 0.45899848D+05 0.45899848D+05 0.11959794D+01  1  2 15  1  6  1       21 0.347586971651D-02 0.100000000000D+01
0.109292254621D-04 0.000000000000D+00 0.000000000000D+00 0.265793793141D-06 0.000000000000D+00  6 21 2 25 24 1 21 4 0.49977232D-02 0.27892337D+00 0.49620055D+05 0.49620055D+05 0.49620055D+05 0.11926100D+01  1  2 12  1  6  1       21 0.711286069301D-01 0.100000000000D+01
-.350244207726D-05 0.000000000000D+00 0.000000000000D+00 0.267297796738D-06 0.000000000000D+00  6 21 2 25 24 1 21 4 0.47450056D-02 0.27892337D+00 0.45899848D+05 0.45899848D+05 0.45899848D+05 0.11959794D+01  1  2  4  1  6  1       21 -.252299559449D-01 0.100000000000D+01
-.108156762602D-03 0.000000000000D+00 -.203995831979D-04 0.267297796738D-06 0.000000000000D+00  6 21 2 25 24 1 21 4 0.51171635D-02 0.27892337D+00 0.45899848D+05 0.45899848D+05 0.45899848D+05 0.11959794D+01  1  2  5  1  6  1       21 -.685350171583D+00 0.100000000000D+01
0.108424699497D-03 0.000000000000D+00 0.201688361672D-04 0.267297796738D-06 0.000000000000D+00  6 21 2 25 24 1 21 4 0.47450056D-02 0.27892337D+00 0.45899848D+05 0.45899848D+05 0.45899848D+05 0.11959794D+01  1  2  6  1  6  1       21 0.781040865574D+00 0.100000000000D+01
0.167018135108D-06 0.000000000000D+00 0.000000000000D+00 0.265793793141D-06 0.000000000000D+00  6 -1 2 25 24 1 -1 4 0.49977232D-02 0.27892337D+00 0.49620055D+05 0.49620055D+05 0.49620055D+05 0.11926100D+01  1  2 12  4  6  1       21 0.632407800755D-04 0.100000000000D+01
-.170820561483D-05 0.000000000000D+00 -.381103049919D-06 0.267297796738D-06 0.000000000000D+00  6 -1 2 25 24 1 -1 4 0.51171635D-02 0.27892337D+00 0.45899848D+05 0.45899848D+05 0.45899848D+05 0.11959794D+01  1  2  5  4  6  1       21 -.631772418711D-03 0.100000000000D+01
0.167018135108D-06 0.000000000000D+00 0.000000000000D+00 0.265793793141D-06 0.000000000000D+00  6 1 2 25 24 1 1 4 0.49977232D-02 0.27892337D+00 0.49620055D+05 0.49620055D+05 0.49620055D+05 0.11926100D+01  1  2 12  5  6  1       21 0.711812237644D-04 0.100000000000D+01
-.170820561483D-05 0.000000000000D+00 -.381103049919D-06 0.267297796738D-06 0.000000000000D+00  6 1 2 25 24 1 1 4 0.51171635D-02 0.27892337D+00 0.45899848D+05 0.45899848D+05 0.45899848D+05 0.11959794D+01  1  2  5  5  6  1       21 -.713078262519D-03 0.100000000000D+01
0.167018135108D-06 0.000000000000D+00 0.000000000000D+00 0.265793793141D-06 0.000000000000D+00  6 -2 2 25 24 1 -2 4 0.49977232D-02 0.27892337D+00 0.49620055D+05 0.49620055D+05 0.49620055D+05 0.11926100D+01  1  2 12  6  6  1       21 0.618439138785D-04 0.100000000000D+01
-.170820561483D-05 0.000000000000D+00 -.381103049919D-06 0.267297796738D-06 0.000000000000D+00  6 -2 2 25 24 1 -2 4 0.51171635D-02 0.27892337D+00 0.45899848D+05 0.45899848D+05 0.45899848D+05 0.11959794D+01  1  2  5  6  6  1       21 -.617476738120D-03 0.100000000000D+01
0.167018135108D-06 0.000000000000D+00 0.000000000000D+00 0.265793793141D-06 0.000000000000D+00  6 2 2 25 24 1 2 4 0.49977232D-02 0.27892337D+00 0.49620055D+05 0.49620055D+05 0.49620055D+05 0.11926100D+01  1  2 12  7  6  1       21 0.765372536710D-04 0.100000000000D+01
-.170820561483D-05 0.000000000000D+00 -.381103049919D-06 0.267297796738D-06 0.000000000000D+00  6 2 2 25 24 1 2 4 0.51171635D-02 0.27892337D+00 0.45899848D+05 0.45899848D+05 0.45899848D+05 0.11959794D+01  1  2  5  7  6  1       21 -.767890997273D-03 0.100000000000D+01
0.167018135108D-06 0.000000000000D+00 0.000000000000D+00 0.265793793141D-06 0.000000000000D+00  6 -3 2 25 24 1 -3 4 0.49977232D-02 0.27892337D+00 0.49620055D+05 0.49620055D+05 0.49620055D+05 0.11926100D+01  1  2 12  8  6  1       21 0.458684820953D-04 0.100000000000D+01
0.167018135108D-06 0.000000000000D+00 0.000000000000D+00 0.265793793141D-06 0.000000000000D+00  6 -4 2 25 24 1 -4 4 0.49977232D-02 0.27892337D+00 0.49620055D+05 0.49620055D+05 0.49620055D+05 0.11926100D+01  1  2 12  8  6  1       21 0.412197262138D-04 0.100000000000D+01
-.170820561483D-05 0.000000000000D+00 -.381103049919D-06 0.267297796738D-06 0.000000000000D+00  6 -3 2 25 24 1 -3 4 0.51171635D-02 0.27892337D+00 0.45899848D+05 0.45899848D+05 0.45899848D+05 0.11959794D+01  1  2  5  8  6  1       21 -.456444987523D-03 0.100000000000D+01
-.170820561483D-05 0.000000000000D+00 -.381103049919D-06 0.267297796738D-06 0.000000000000D+00  6 -4 2 25 24 1 -4 4 0.51171635D-02 0.27892337D+00 0.45899848D+05 0.45899848D+05 0.45899848D+05 0.11959794D+01  1  2  5  8  6  1       21 -.409672816435D-03 0.100000000000D+01
0.167018135108D-06 0.000000000000D+00 0.000000000000D+00 0.265793793141D-06 0.000000000000D+00  6 3 2 25 24 1 3 4 0.49977232D-02 0.27892337D+00 0.49620055D+05 0.49620055D+05 0.49620055D+05 0.11926100D+01  1  2 12  9  6  1       21 0.458642728357D-04 0.100000000000D+01
0.167018135108D-06 0.000000000000D+00 0.000000000000D+00 0.265793793141D-06 0.000000000000D+00  6 4 2 25 24 1 4 4 0.49977232D-02 0.27892337D+00 0.49620055D+05 0.49620055D+05 0.49620055D+05 0.11926100D+01  1  2 12  9  6  1       21 0.412197262138D-04 0.100000000000D+01
-.170820561483D-05 0.000000000000D+00 -.381103049919D-06 0.267297796738D-06 0.000000000000D+00  6 3 2 25 24 1 3 4 0.51171635D-02 0.27892337D+00 0.45899848D+05 0.45899848D+05 0.45899848D+05 0.11959794D+01  1  2  5  9  6  1       21 -.456402357038D-03 0.100000000000D+01
-.170820561483D-05 0.000000000000D+00 -.381103049919D-06 0.267297796738D-06 0.000000000000D+00  6 4 2 25 24 1 4 4 0.51171635D-02 0.27892337D+00 0.45899848D+05 0.45899848D+05 0.45899848D+05 0.11959794D+01  1  2  5  9  6  1       21 -.409672816435D-03 0.100000000000D+01
  </mgrwgt>
  </event>
  <event>
  5     66 0.42910585E-03 0.82995573E+02 0.75467711E-02 0.11667359E+00
       21 -1    0    0  501  502 0.00000000E+00 0.00000000E+00 0.52249505E+02 0.52254887E+02 0.75000000E+00 0.0000E+00 0.9000E+01
        2 -1    0    0  502    0 -.00000000E+00 -.00000000E+00 -.76463921E+03 0.76463928E+03 0.32000000E+00 0.0000E+00 0.9000E+01
       25  1    1    2    0    0 -.64328015E+02 -.11597399E+02 -.23660978E+03 0.27546648E+03 0.12500000E+03 0.0000E+00 0.9000E+01
       24  1    1    2    0    0 -.56820441E+02 -.41127085E+01 -.79123211E+02 0.12638503E+03 0.80419002E+02 0.0000E+00 0.9000E+01
        1  1    1    2  501    0 0.12114846E+03 0.15710108E+02 -.39665671E+03 0.41504266E+03 0.32000000E+00 0.0000E+00 0.9000E+01
#aMCatNLO 1  0  0  5  1 0.20506204D+02 0.00000000D+00  -5  6  0 0.00000000D+00 0.00000000D+00 0.00000000D+00 0.00000000D+00 0.00000000D+00
  <mgrwgt>
 0.1011798497D+00    5    2    0
 0.199885582349162D+03 0.000000000000000D+00 0.000000000000000D+00 0.199885582349162D+03
 0.199885582349162D+03 -.000000000000000D+00 -.000000000000000D+00 -.199885582349162D+03
 0.141252333117367D+03 -.643281244596545D+02 -.115974134411757D+02 0.739012963872776D+01
 0.117258734108952D+03 -.568205326156630D+02 -.411272029592702D+01 0.635366616647689D+02
 0.141260097472005D+03 0.121148657075318D+03 0.157101337371027D+02 -.709267913034967D+02
 0.000000000000000D+00 0.000000000000000D+00 0.000000000000000D+00 -.000000000000000D+00
 0.199885582349162D+03 0.000000000000000D+00 0.000000000000000D+00 0.199885582349162D+03
 0.199885582349162D+03 -.000000000000000D+00 -.000000000000000D+00 -.199885582349162D+03
 0.138540310259479D+03 -.586027334660002D+02 -.108549647803408D+02 0.403818483024854D+01
 0.113520503169405D+03 -.520981019231008D+02 -.350033201581404D+01 0.607719025311340D+02
 0.208760660277459D+02 0.367872245497728D+01 0.203299814480961D+02 0.299482690887440D+01
 0.126834285241694D+03 0.107022112934124D+03 -.597468465194125D+01 -.678049142702570D+02
0.111532728546D-04 0.000000000000D+00 0.000000000000D+00 0.201224039868D-06 0.000000000000D+00  6 21 2 25 24 1 21 2 0.80388046D-02 0.11763722D+00 0.32720280D+05 0.32720280D+05 0.32720280D+05 0.12109619D+01  1  2  2  3  6  5        1 0.924699666503D-01 0.100000000000D+01
-.136363703339D-05 0.588574378705D-06 -.225152444931D-07 0.201224039868D-06 0.000000000000D+00  6 21 2 25 24 1 21 4 0.80388046D-02 0.11763722D+00 0.32720280D+05 0.32720280D+05 0.32720280D+05 0.12109619D+01  1  2  3  3  6  5        1 -.165789915878D-01 0.100000000000D+01
0.144562988271D-05 0.000000000000D+00 0.000000000000D+00 0.201224039868D-06 0.000000000000D+00  6 21 2 25 24 1 21 4 0.80388046D-02 0.11763722D+00 0.32720280D+05 0.32720280D+05 0.32720280D+05 0.12109619D+01  1  2 15  3  6  5        1 0.175758541883D-01 0.100000000000D+01
0.187946501692D-05 0.000000000000D+00 0.000000000000D+00 0.201187666862D-06 0.000000000000D+00  6 21 2 25 24 1 21 4 0.80388046D-02 0.11763722D+00 0.32799749D+05 0.32799749D+05 0.32799749D+05 0.12108524D+01  1  2 12  3  6  5        1 0.228418911867D-01 0.100000000000D+01
-.124436328352D-05 0.000000000000D+00 0.000000000000D+00 0.201224039868D-06 0.000000000000D+00  6 21 2 25 24 1 21 4 0.80388046D-02 0.11763722D+00 0.32720280D+05 0.32720280D+05 0.32720280D+05 0.12109619D+01  1  2  5  3  6  5        1 -.151288707366D-01 0.100000000000D+01
  </mgrwgt>
  </event>
  <event>
  5     66 0.42910585E-03 0.55522231E+02 0.75467711E-02 0.11506828E+00
       21 -1    0    0  501  502 0.00000000E+00 0.00000000E+00 0.14739362E+03 0.14739552E+03 0.75000000E+00 0.0000E+00 0.9000E+01
        2 -1    0    0  502    0 0.00000000E+00 0.00000000E+00 -.49746388E+03 0.49746398E+03 0.32000000E+00 0.0000E+00 0.9000E+01
       25  1    1    2    0    0 0.22046517E+02 0.31143637E+02 -.22441170E+03 0.25969518E+03 0.12500000E+03 0.0000E+00 0.9000E+01
       24  1    1    2    0    0 0.50792637E+01 0.80451275E+02 -.21256608E+03 0.24114262E+03 0.80419002E+02 0.0000E+00 0.9000E+01
        1  1    1    2  501    0 -.27125781E+02 -.11159491E+03 0.86907522E+02 0.14402171E+03 0.32000000E+00 0.0000E+00 0.9000E+01
#aMCatNLO 1  0  0  2  1 0.40972107D+02 0.00000000D+00  -5  6  0 0.00000000D+00 0.00000000D+00 0.00000000D+00 0.00000000D+00 0.00000000D+00
  <mgrwgt>
 0.1270301057D+00    9    2    0
 0.270783397208650D+03 0.000000000000000D+00 0.000000000000000D+00 0.270783397208650D+03
 0.270783397208650D+03 0.000000000000000D+00 0.000000000000000D+00 -.270783397208650D+03
 0.164166390722741D+03 0.220465252091634D+02 0.311436699796668D+02 -.993459933229866D+02
 0.149732356577220D+03 0.507927112001680D+01 0.804513054866593D+02 -.972334875553617D+02
 0.227668047117339D+03 -.271257963291802D+02 -.111594975466326D+03 0.196579480878348D+03
 0.000000000000000D+00 0.000000000000000D+00 -.000000000000000D+00 -.000000000000000D+00
 0.284919060679807D+03 0.000000000000000D+00 0.000000000000000D+00 0.284919060679807D+03
 0.302965962558769D+03 0.000000000000000D+00 0.000000000000000D+00 -.302965962558769D+03
 0.165959004554242D+03 0.163044279754403D+02 0.422129178297075D+02 -.993459933229866D+02
 0.155386148833938D+03 -.227864141144087D+00 0.906820614610561D+02 -.972334875553617D+02
 0.221769297102825D+03 -.349431680548943D+02 -.965251461608194D+02 0.196579480878348D+03
 0.447705727475712D+02 0.188666042205982D+02 -.363698331299442D+02 -.180469018789621D+02
0.119899659135D-04 0.000000000000D+00 0.000000000000D+00 0.122304101953D-05 0.000000000000D+00  6 21 2 25 24 1 21 2 0.22676096D-01 0.76533059D-01 0.32292897D+05 0.32292897D+05 0.32292897D+05 0.12115556D+01  1  2  2  2  6  2        2 0.252157737152D-01 0.100000000000D+01
-.915119796039D-07 0.632727884471D-06 -.242042867170D-07 0.122304101953D-05 0.000000000000D+00  6 21 2 25 24 1 21 4 0.22676096D-01 0.76533059D-01 0.32292897D+05 0.32292897D+05 0.32292897D+05 0.12115556D+01  1  2  3  2  6  2        2 -.282500375309D-03 0.100000000000D+01
0.125268689729D-05 0.000000000000D+00 0.000000000000D+00 0.122304101953D-05 0.000000000000D+00  6 21 2 25 24 1 21 4 0.22676096D-01 0.76533059D-01 0.32292897D+05 0.32292897D+05 0.32292897D+05 0.12115556D+01  1  2 15  2  6  2        2 0.386708407095D-02 0.100000000000D+01
0.588345721425D-04 0.000000000000D+00 0.000000000000D+00 0.120481335454D-05 0.000000000000D+00  6 21 2 25 24 1 21 4 0.22676096D-01 0.87447842D-01 0.39555410D+05 0.39555410D+05 0.39555410D+05 0.12024935D+01  1  2 12  2  6  2        2 0.151122866613D+00 0.100000000000D+01
-.387821244006D-04 0.000000000000D+00 0.000000000000D+00 0.122304101953D-05 0.000000000000D+00  6 21 2 25 24 1 21 4 0.22676096D-01 0.76533059D-01 0.32292897D+05 0.32292897D+05 0.32292897D+05 0.12115556D+01  1  2  4  2  6  2        2 -.119721644596D+00 0.100000000000D+01
-.126300039848D-03 0.000000000000D+00 -.328107267834D-04 0.122304101953D-05 0.000000000000D+00  6 21 2 25 24 1 21 4 0.22676096D-01 0.89077729D-01 0.32292897D+05 0.32292897D+05 0.32292897D+05 0.12115556D+01  1  2  5  2  6  2        2 -.328751678571D+00 0.100000000000D+01
0.130152455832D-03 0.000000000000D+00 0.324363556852D-04 0.122304101953D-05 0.000000000000D+00  6 21 2 25 24 1 21 4 0.22676096D-01 0.76533059D-01 0.32292897D+05 0.32292897D+05 0.32292897D+05 0.12115556D+01  1  2  6  2  6  2        2 0.401784747518D+00 0.100000000000D+01
0.121869821250D-05 0.000000000000D+00 0.000000000000D+00 0.120481335454D-05 0.000000000000D+00  6 21 21 25 24 1 -2 4 0.22676096D-01 0.87447842D-01 0.39555410D+05 0.39555410D+05 0.39555410D+05 0.12024935D+01  1  2 12 10  6  2        2 0.519571010411D-02 0.100000000000D+01
-.267612729469D-05 0.000000000000D+00 -.755644606574D-06 0.122304101953D-05 0.000000000000D+00  6 21 21 25 24 1 -2 4 0.22676096D-01 0.89077729D-01 0.32292897D+05 0.32292897D+05 0.32292897D+05 0.12115556D+01  1  2  5 10  6  2        2 -.114002527699D-01 0.100000000000D+01
  </mgrwgt>
  </event>
  <event>
  5     66 -.42910585E-03 0.26853264E+02 0.75467711E-02 0.12081703E+00
       21 -1    0    0  501  502 0.00000000E+00 0.00000000E+00 0.48854977E+02 0.48860734E+02 0.75000000E+00 0.0000E+00 0.9000E+01
        2 -1    0    0  502    0 -.00000000E+00 -.00000000E+00 -.42651951E+03 0.42651963E+03 0.32000000E+00 0.0000E+00 0.9000E+01
       25  1    1    2    0    0 0.56381867E+02 -.43573943E+02 -.19296725E+03 0.24070513E+03 0.12500000E+03 0.0000E+00 0.9000E+01
       24  1    1    2    0    0 -.50270651E+02 0.69720813E+02 -.14528473E+03 0.18698395E+03 0.80419002E+02 0.0000E+00 0.9000E+01
        1  1    1    2  501    0 -.61112153E+01 -.26146870E+02 -.39412558E+02 0.47691277E+02 0.32000000E+00 0.0000E+00 0.9000E+01
#aMCatNLO 1  0  0  5  1 0.37212150D+01 0.00000000D+00  -5  6  0 0.00000000D+00 0.00000000D+00 0.00000000D+00 0.00000000D+00 0.00000000D+00
  <mgrwgt>
 -.2299308029D+00    8    2    0
 0.144357187632504D+03 0.000000000000000D+00 0.000000000000000D+00 0.144357187632504D+03
 0.144357187632504D+03 -.000000000000000D+00 -.000000000000000D+00 -.144357187632504D+03
 0.143912309998024D+03 0.563820810895044D+02 -.435730253286034D+02 -.286450077619720D+01
 0.117831741896901D+03 -.502704757806096D+02 0.697215641150869D+02 0.537458893538267D+01
 0.269703233700827D+02 -.611160530889482D+01 -.261485387864836D+02 -.251008815918547D+01
 0.000000000000000D+00 -.000000000000000D+00 0.000000000000000D+00 0.000000000000000D+00
 0.144357187632504D+03 0.000000000000000D+00 0.000000000000000D+00 0.144357187632504D+03
 0.144357187632504D+03 -.000000000000000D+00 -.000000000000000D+00 -.144357187632504D+03
 0.144089346464805D+03 0.561905267494952D+02 -.443925916841335D+02 -.294317376903558D+01
 0.117500890958441D+03 -.504269991413530D+02 0.690518780076688D+02 0.531030346297722D+01
 0.576033725959627D+01 0.178681482385757D+01 -.467987128095883D+01 -.284386759944846D+01
 0.213638005821655D+02 -.755034243199979D+01 -.199794150425764D+02 0.476737905506814D+00
0.717237600218D-05 0.000000000000D+00 0.000000000000D+00 0.497020199419D-06 0.000000000000D+00  6 21 2 25 24 1 21 2 0.75166024D-02 0.65618838D-01 0.20800298D+05 0.20800298D+05 0.20800298D+05 0.12319545D+01  1  2  2  3  6  5        1 0.134249060576D+00 0.100000000000D+01
0.188293575751D-06 0.378496680244D-06 -.144789606953D-07 0.497020199419D-06 0.000000000000D+00  6 21 2 25 24 1 21 4 0.75166024D-02 0.65618838D-01 0.20800298D+05 0.20800298D+05 0.20800298D+05 0.12319545D+01  1  2  3  3  6  5        1 0.534900585438D-02 0.100000000000D+01
0.815520234281D-06 0.000000000000D+00 0.000000000000D+00 0.497020199419D-06 0.000000000000D+00  6 21 2 25 24 1 21 4 0.75166024D-02 0.65618838D-01 0.20800298D+05 0.20800298D+05 0.20800298D+05 0.12319545D+01  1  2 15  3  6  5        1 0.231671340359D-01 0.100000000000D+01
0.173245762910D-06 0.000000000000D+00 0.000000000000D+00 0.497190357963D-06 0.000000000000D+00  6 21 2 25 24 1 21 4 0.75166024D-02 0.65618838D-01 0.20708358D+05 0.20708358D+05 0.20708358D+05 0.12321654D+01  1  2 12  3  6  5        1 0.492457400445D-02 0.100000000000D+01
-.257566492956D-04 0.000000000000D+00 0.000000000000D+00 0.497020199419D-06 0.000000000000D+00  6 21 2 25 24 1 21 4 0.75166024D-02 0.65618838D-01 0.20800298D+05 0.20800298D+05 0.20800298D+05 0.12319545D+01  1  2  4  3  6  5        1 -.731689688943D+00 0.100000000000D+01
-.252734012664D-05 0.000000000000D+00 0.000000000000D+00 0.497020199419D-06 0.000000000000D+00  6 21 2 25 24 1 21 4 0.75166024D-02 0.65618838D-01 0.20800298D+05 0.20800298D+05 0.20800298D+05 0.12319545D+01  1  2  5  3  6  5        1 -.717961676573D-01 0.100000000000D+01
0.862352201559D-05 0.000000000000D+00 -.000000000000D+00 0.497020199419D-06 0.000000000000D+00  6 21 2 25 24 1 21 4 0.75166024D-02 0.65618838D-01 0.20800298D+05 0.20800298D+05 0.20800298D+05 0.12319545D+01  1  2  6  3  6  5        1 0.244975270998D+00 0.100000000000D+01
0.566008596822D-05 0.000000000000D+00 0.000000000000D+00 0.497020199419D-06 0.702788527875D-07  6 21 2 25 24 1 21 4 0.75166024D-02 0.65618838D-01 0.20708358D+05 0.20708358D+05 0.20708358D+05 0.12321654D+01  1  2 11  3  6  5        1 0.160890008240D+00 0.100000000000D+01
  </mgrwgt>
  </event>
  <event>
  5     66 0.42910585E-03 0.15673233E+03 0.75467711E-02 0.10600233E+00
       21 -1    0    0  501  502 0.00000000E+00 0.00000000E+00 0.95228197E+02 0.95231151E+02 0.75000000E+00 0.0000E+00 0.9000E+01
        2 -1    0    0  502    0 0.00000000E+00 0.00000000E+00 -.16109671E+04 0.16109671E+04 0.32000000E+00 0.0000E+00 0.9000E+01
       25  1    1    2    0    0 -.72490842E+02 0.23723559E+03 -.10074988E+04 0.10450906E+04 0.12500000E+03 0.0000E+00 0.9000E+01
       24  1    1    2    0    0 -.88894365E+02 -.22993130E+03 -.34338689E+03 0.43029337E+03 0.80419002E+02 0.0000E+00 0.9000E+01
        1  1    1    2  501    0 0.16138521E+03 -.73042925E+01 -.16485322E+03 0.23081427E+03 0.32000000E+00 0.0000E+00 0.9000E+01
#aMCatNLO 1  0  0  1  2 0.14039188D+02 0.00000000D+00  -5  6  0 0.00000000D+00 0.00000000D+00 0.00000000D+00 0.00000000D+00 0.00000000D+00
  <mgrwgt>
 0.1432875088D+00   23    2    0
 0.391678485300728D+03 0.000000000000000D+00 0.000000000000000D+00 0.391678485300728D+03
 0.391678485300728D+03 0.000000000000000D+00 0.000000000000000D+00 -.391678485300728D+03
 0.326832852318560D+03 -.724909442953591D+02 0.237235596757985D+03 -.172218024552413D+03
 0.272775951176579D+03 -.888944505330308D+02 -.229931295792751D+03 0.846692356491676D+02
 0.183748167106317D+03 0.161385394828390D+03 -.730430096523428D+01 0.875487889032454D+02
 0.000000000000000D+00 0.000000000000000D+00 -.000000000000000D+00 0.000000000000000D+00
 0.404537865259771D+03 0.000000000000000D+00 0.000000000000000D+00 0.404537865259771D+03
 0.395592026426448D+03 0.000000000000000D+00 0.000000000000000D+00 -.395592026426448D+03
 0.328657084979750D+03 -.783265681984908D+02 0.237899937454591D+03 -.172218024552413D+03
 0.273936571669516D+03 -.937616628042241D+02 -.229377201278702D+03 0.846692356491676D+02
 0.180889107808522D+03 0.158139142099879D+03 -.693474017193818D+01 0.875487889032454D+02
 0.166471272284306D+02 0.139490889028355D+02 -.158799600395102D+01 0.894583883332266D+01
0.177186840168D-04 0.000000000000D+00 0.000000000000D+00 0.380327496130D-07 0.000000000000D+00  6 21 2 25 24 1 21 2 0.14650722D-01 0.24784132D+00 0.12202142D+06 0.12202142D+06 0.12202142D+06 0.11557140D+01  1  2  2  1  6  1       21 0.141075865222D-01 0.100000000000D+01
-.773584470146D-06 0.935040644358D-06 -.357689180508D-07 0.380327496130D-07 0.000000000000D+00  6 21 2 25 24 1 21 4 0.14650722D-01 0.24784132D+00 0.12202142D+06 0.12202142D+06 0.12202142D+06 0.11557140D+01  1  2  3  1  6  1       21 -.822677736825D-03 0.100000000000D+01
0.182294859089D-05 0.000000000000D+00 0.000000000000D+00 0.380327496130D-07 0.000000000000D+00  6 21 2 25 24 1 21 4 0.14650722D-01 0.24784132D+00 0.12202142D+06 0.12202142D+06 0.12202142D+06 0.11557140D+01  1  2 15  1  6  1       21 0.193863666992D-02 0.100000000000D+01
0.523291905548D-04 0.000000000000D+00 0.000000000000D+00 0.379299487856D-07 0.000000000000D+00  6 21 2 25 24 1 21 4 0.15203316D-01 0.24784132D+00 0.12701232D+06 0.12701232D+06 0.12701232D+06 0.11541510D+01  1  2 12  1  6  1       21 0.516027965762D-01 0.100000000000D+01
-.132163140569D-05 0.000000000000D+00 0.000000000000D+00 0.380327496130D-07 0.000000000000D+00  6 21 2 25 24 1 21 4 0.14650722D-01 0.24784132D+00 0.12202142D+06 0.12202142D+06 0.12202142D+06 0.11557140D+01  1  2  4  1  6  1       21 -.140550486173D-02 0.100000000000D+01
-.989385560397D-03 0.000000000000D+00 -.131616226944D-03 0.380327496130D-07 0.000000000000D+00  6 21 2 25 24 1 21 4 0.15286524D-01 0.24784132D+00 0.12202142D+06 0.12202142D+06 0.12202142D+06 0.11557140D+01  1  2  5  1  6  1       21 -.972851335148D+00 0.100000000000D+01
0.991758873334D-03 0.000000000000D+00 0.131142376512D-03 0.380327496130D-07 0.000000000000D+00  6 21 2 25 24 1 21 4 0.14650722D-01 0.24784132D+00 0.12202142D+06 0.12202142D+06 0.12202142D+06 0.11557140D+01  1  2  6  1  6  1       21 0.105469793782D+01 0.100000000000D+01
0.136766460637D-05 0.000000000000D+00 0.000000000000D+00 0.379299487856D-07 0.000000000000D+00  6 -1 2 25 24 1 -1 4 0.15203316D-01 0.24784132D+00 0.12701232D+06 0.12701232D+06 0.12701232D+06 0.11541510D+01  1  2 12  4  6  1       21 0.102651555297D-03 0.100000000000D+01
-.856601103185D-05 0.000000000000D+00 -.132188599286D-05 0.380327496130D-07 0.000000000000D+00  6 -1 2 25 24 1 -1 4 0.15286524D-01 0.24784132D+00 0.12202142D+06 0.12202142D+06 0.12202142D+06 0.11557140D+01  1  2  5  4  6  1       21 -.641378770216D-03 0.100000000000D+01
0.136766460637D-05 0.000000000000D+00 0.000000000000D+00 0.379299487856D-07 0.000000000000D+00  6 1 2 25 24 1 1 4 0.15203316D-01 0.24784132D+00 0.12701232D+06 0.12701232D+06 0.12701232D+06 0.11541510D+01  1  2 12  5  6  1       21 0.141812707130D-03 0.100000000000D+01
-.856601103185D-05 0.000000000000D+00 -.132188599286D-05 0.380327496130D-07 0.000000000000D+00  6 1 2 25 24 1 1 4 0.15286524D-01 0.24784132D+00 0.12202142D+06 0.12202142D+06 0.12202142D+06 0.11557140D+01  1  2  5  5  6  1       21 -.887428620574D-03 0.100000000000D+01
0.136766460637D-05 0.000000000000D+00 0.000000000000D+00 0.379299487856D-07 0.000000000000D+00  6 -2 2 25 24 1 -2 4 0.15203316D-01 0.24784132D+00 0.12701232D+06 0.12701232D+06 0.12701232D+06 0.11541510D+01  1  2 12  6  6  1       21 0.959926195302D-04 0.100000000000D+01
-.856601103185D-05 0.000000000000D+00 -.132188599286D-05 0.380327496130D-07 0.000000000000D+00  6 -2 2 25 24 1 -2 4 0.15286524D-01 0.24784132D+00 0.12202142D+06 0.12202142D+06 0.12202142D+06 0.11557140D+01  1  2  5  6  6  1       21 -.599541352805D-03 0.100000000000D+01
0.136766460637D-05 0.000000000000D+00 0.000000000000D+00 0.379299487856D-07 0.000000000000D+00  6 2 2 25 24 1 2 4 0.15203316D-01 0.24784132D+00 0.12701232D+06 0.12701232D+06 0.12701232D+06 0.11541510D+01  1  2 12  7  6  1       21 0.169164749822D-03 0.100000000000D+01
-.856601103185D-05 0.000000000000D+00 -.132188599286D-05 0.380327496130D-07 0.000000000000D+00  6 2 2 25 24 1 2 4 0.15286524D-01 0.24784132D+00 0.12202142D+06 0.12202142D+06 0.12202142D+06 0.11557140D+01  1  2  5  7  6  1       21 -.105929413479D-02 0.100000000000D+01
0.136766460637D-05 0.000000000000D+00 0.000000000000D+00 0.379299487856D-07 0.000000000000D+00  6 -3 2 25 24 1 -3 4 0.15203316D-01 0.24784132D+00 0.12701232D+06 0.12701232D+06 0.12701232D+06 0.11541510D+01  1  2 12  8  6  1       21 0.662700532185D-04 0.100000000000D+01
0.136766460637D-05 0.000000000000D+00 0.000000000000D+00 0.379299487856D-07 0.000000000000D+00  6 -4 2 25 24 1 -4 4 0.15203316D-01 0.24784132D+00 0.12701232D+06 0.12701232D+06 0.12701232D+06 0.11541510D+01  1  2 12  8  6  1       21 0.580201314295D-04 0.100000000000D+01
-.856601103185D-05 0.000000000000D+00 -.132188599286D-05 0.380327496130D-07 0.000000000000D+00  6 -3 2 25 24 1 -3 4 0.15286524D-01 0.24784132D+00 0.12202142D+06 0.12202142D+06 0.12202142D+06 0.11557140D+01  1  2  5  8  6  1       21 -.413454321642D-03 0.100000000000D+01
-.856601103185D-05 0.000000000000D+00 -.132188599286D-05 0.380327496130D-07 0.000000000000D+00  6 -4 2 25 24 1 -4 4 0.15286524D-01 0.24784132D+00 0.12202142D+06 0.12202142D+06 0.12202142D+06 0.11557140D+01  1  2  5  8  6  1       21 -.361807651383D-03 0.100000000000D+01
0.136766460637D-05 0.000000000000D+00 0.000000000000D+00 0.379299487856D-07 0.000000000000D+00  6 3 2 25 24 1 3 4 0.15203316D-01 0.24784132D+00 0.12701232D+06 0.12701232D+06 0.12701232D+06 0.11541510D+01  1  2 12  9  6  1       21 0.662636181824D-04 0.100000000000D+01
0.136766460637D-05 0.000000000000D+00 0.000000000000D+00 0.379299487856D-07 0.000000000000D+00  6 4 2 25 24 1 4 4 0.15203316D-01 0.24784132D+00 0.12701232D+06 0.12701232D+06 0.12701232D+06 0.11541510D+01  1  2 12  9  6  1       21 0.580201314295D-04 0.100000000000D+01
-.856601103185D-05 0.000000000000D+00 -.132188599286D-05 0.380327496130D-07 0.000000000000D+00  6 3 2 25 24 1 3 4 0.15286524D-01 0.24784132D+00 0.12202142D+06 0.12202142D+06 0.12202142D+06 0.11557140D+01  1  2  5  9  6  1       21 -.413414142854D-03 0.100000000000D+01
-.856601103185D-05 0.000000000000D+00 -.132188599286D-05 0.380327496130D-07 0.000000000000D+00  6 4 2 25 24 1 4 4 0.15286524D-01 0.24784132D+00 0.12202142D+06 0.12202142D+06 0.12202142D+06 0.11557140D+01  1  2  5  9  6  1       21 -.361807651383D-03 0.100000000000D+01
  </mgrwgt>
  </event>
  <event>
  6     66 0.42910585E-03 0.93991052E+02 0.75467711E-02 0.11371717E+00
       21 -1    0    0  501  502 0.00000000E+00 0.00000000E+00 0.48744263E+02 0.48750033E+02 0.75000000E+00 0.0000E+00 0.9000E+01
        2 -1    0    0  502    0 -.00000000E+00 -.00000000E+00 -.10026361E+04 0.10026362E+04 0.32000000E+00 0.0000E+00 0.9000E+01
       25  1    1    2    0    0 0.93200295E+02 -.14679441E+03 -.45490127E+03 0.50278729E+03 0.12500000E+03 0.0000E+00 0.9000E+01
       24  1    1    2    0    0 -.16521459E+02 0.70972376E+02 -.27870936E+03 0.29909222E+03 0.80419002E+02 0.0000E+00 0.9000E+01
        1  1    1    2  503    0 -.25715054E+02 0.17562229E+02 -.26694045E+02 0.41016708E+02 0.32000000E+00 0.0000E+00 0.9000E+01
       21  1    1    2  501  503 -.50963781E+02 0.58259805E+02 -.19358719E+03 0.20848999E+03 0.75000000E+00 0.0000E+00 0.9000E+01
#aMCatNLO 2  0  0  5  1 0.21290878D+02 0.00000000D+00  -5  6  0 0.00000000D+00 0.00000000D+00 0.00000000D+00 0.00000000D+00 0.00000000D+00
  <mgrwgt>
 0.1371970913D-01    2    2    0
 0.221078762082255D+03 0.000000000000000D+00 0.000000000000000D+00 0.221078762082255D+03
 0.221078762082255D+03 -.000000000000000D+00 -.000000000000000D+00 -.221078762082255D+03
 0.217765961829591D+03 0.964220864062763D+02 -.149980202528839D+03 0.239462607431130D+01
 0.108702365696736D+03 -.148907504295560D+02 0.693598886672505D+02 -.177893155969431D+02
 0.115689196638183D+03 -.815313359767203D+02 0.806203138615884D+02 0.153946895226318D+02
 0.000000000000000D+00 0.000000000000000D+00 0.000000000000000D+00 0.000000000000000D+00
 0.221078762082255D+03 0.000000000000000D+00 0.000000000000000D+00 0.221078762082255D+03
 0.221078762082255D+03 -.000000000000000D+00 -.000000000000000D+00 -.221078762082255D+03
 0.214201018857640D+03 0.932279731800641D+02 -.146821779969932D+03 0.299773628744100D+01
 0.109911252689276D+03 -.165072551188865D+02 0.709583307122792D+02 -.174840883183023D+02
 0.394175085799529D+02 -.253356831777743D+02 0.172476573077369D+02 0.247863159416840D+02
 0.786277440376401D+02 -.513850348834032D+02 0.586157919499160D+02 -.102999639108226D+02
-.144242528612D-05 0.000000000000D+00 0.000000000000D+00 0.988155072162D-07 0.000000000000D+00  6 21 2 25 24 1 21 4 0.74995651D-02 0.15425216D+00 0.46503030D+05 0.46503030D+05 0.46503030D+05 0.11954129D+01  1  2 13  3  6  5        1 -.131140989125D-01 0.100000000000D+01
0.295146189647D-05 0.000000000000D+00 0.000000000000D+00 0.985410826199D-07 0.748834099226D-09  6 21 2 25 24 1 21 4 0.74995651D-02 0.15425216D+00 0.46503030D+05 0.46503030D+05 0.46503030D+05 0.11954129D+01  1  2  1  3  6  5        1 0.268338080449D-01 0.100000000000D+01
  </mgrwgt>
  </event>
  <event>
  5     66 0.42910585E-03 0.55328265E+02 0.75467711E-02 0.11326750E+00
       21 -1    0    0  501  502 0.00000000E+00 0.00000000E+00 0.72516915E+03 0.72516954E+03 0.75000000E+00 0.0000E+00 0.9000E+01
        2 -1    0    0  502    0 0.00000000E+00 0.00000000E+00 -.34724885E+02 0.34726359E+02 0.32000000E+00 0.0000E+00 0.9000E+01
       25  1    1    2    0    0 0.73639093E+02 -.67962409E+02 0.27716497E+03 0.32013595E+03 0.12500000E+03 0.0000E+00 0.9000E+01
       24  1    1    2    0    0 -.32802616E+02 0.30632599E+02 0.29770730E+03 0.31162673E+03 0.80419002E+02 0.0000E+00 0.9000E+01
        1  1    1    2  501    0 -.40836476E+02 0.37329810E+02 0.11557200E+03 0.12813322E+03 0.32000000E+00 0.0000E+00 0.9000E+01
#aMCatNLO 1  0  0  2  1 0.24576770D+02 0.00000000D+00  -5  6  0 0.00000000D+00 0.00000000D+00 0.00000000D+00 0.00000000D+00 0.00000000D+00
  <mgrwgt>
 0.1233349126D+00    3    2    0
 0.158688760199224D+03 0.000000000000000D+00 0.000000000000000D+00 0.158688760199224D+03
 0.158688760199224D+03 0.000000000000000D+00 0.000000000000000D+00 -.158688760199224D+03
 0.163537484175209D+03 0.736394440096508D+02 -.679627303026867D+02 -.328299909550759D+02
 0.984743241789323D+02 -.328024044537784D+02 0.306324056803962D+02 0.348659511903704D+02
 0.553657120443074D+02 -.408370395558724D+02 0.373303246222904D+02 -.203596023529445D+01
 0.000000000000000D+00 0.000000000000000D+00 -.000000000000000D+00 0.000000000000000D+00
 0.506809952167949D+03 0.000000000000000D+00 0.000000000000000D+00 0.506809952167949D+03
 0.178504439216011D+03 0.000000000000000D+00 0.000000000000000D+00 -.178504439216011D+03
 0.145039842319385D+03 0.641701371253604D+02 -.146949329782128D+02 -.328299909550759D+02
 0.117708922475683D+03 -.394364158669619D+02 0.679507838598979D+02 0.348659511903704D+02
 0.747604145491756D+02 -.448302176690391D+02 0.597931938704687D+02 -.203596023529445D+01
 0.347805212039716D+03 0.200964964106406D+02 -.113049044752154D+03 0.328305512951937D+03
0.672834069608D-04 0.000000000000D+00 0.000000000000D+00 0.259010278058D-06 0.000000000000D+00  6 21 2 25 24 1 21 2 0.11156463D+00 0.53424332D-02 0.23659353D+05 0.23659353D+05 0.23659353D+05 0.12258724D+01  1  2  2  2  6  2        2 0.111031311718D+00 0.100000000000D+01
-.327747213744D-05 0.355064293373D-05 -.135825813445D-06 0.259010278058D-06 0.000000000000D+00  6 21 2 25 24 1 21 4 0.11156463D+00 0.53424332D-02 0.23659353D+05 0.23659353D+05 0.23659353D+05 0.12258724D+01  1  2  3  2  6  2        2 -.812768766277D-02 0.100000000000D+01
0.823887208203D-05 0.000000000000D+00 0.000000000000D+00 0.259010278058D-06 0.000000000000D+00  6 21 2 25 24 1 21 4 0.11156463D+00 0.53424332D-02 0.23659353D+05 0.23659353D+05 0.23659353D+05 0.12258724D+01  1  2 15  2  6  2        2 0.204312885566D-01 0.100000000000D+01
  </mgrwgt>
  </event>
  <event>
  5     66 0.42910585E-03 0.13548009E+03 0.75467711E-02 0.11092767E+00
       21 -1    0    0  501  502 0.00000000E+00 0.00000000E+00 0.21849284E+02 0.21862152E+02 0.75000000E+00 0.0000E+00 0.9000E+01
        2 -1    0    0  502    0 0.00000000E+00 0.00000000E+00 -.28547327E+04 0.28547327E+04 0.32000000E+00 0.0000E+00 0.9000E+01
       25  1    1    2    0    0 -.73148968E+01 -.10459872E+03 -.75432261E+03 0.77176551E+03 0.12500000E+03 0.0000E+00 0.9000E+01
       24  1    1    2    0    0 -.41227782E+02 -.80963684E+02 -.11680430E+04 0.11743281E+04 0.80419002E+02 0.0000E+00 0.9000E+01
        1  1    1    2  501    0 0.48542679E+02 0.18556240E+03 -.91051777E+03 0.93050121E+03 0.32000000E+00 0.0000E+00 0.9000E+01
#aMCatNLO 1  0  0  2  1 0.34911602D+02 0.00000000D+00  -5  6  0 0.00000000D+00 0.00000000D+00 0.00000000D+00 0.00000000D+00 0.00000000D+00
  <mgrwgt>
 0.1224802652D+00    9    2    0
 0.249784704492173D+03 0.000000000000000D+00 0.000000000000000D+00 0.249784704492173D+03
 0.249784704492173D+03 0.000000000000000D+00 0.000000000000000D+00 -.249784704492173D+03
 0.166440764676968D+03 -.731491864203267D+01 -.104598803403859D+03 0.329106432327747D+02
 0.138392388302027D+03 -.412278001798672D+02 -.809637534164839D+02 -.665610720362304D+02
 0.194736256005351D+03 0.485427188218999D+02 0.185562556820343D+03 0.336504288034558D+02
 0.000000000000000D+00 0.000000000000000D+00 0.000000000000000D+00 -.000000000000000D+00
 0.265280590606229D+03 0.000000000000000D+00 0.000000000000000D+00 0.265280590606229D+03
 0.270862174660400D+03 0.000000000000000D+00 0.000000000000000D+00 -.270862174660400D+03
 0.168706578547956D+03 -.188077778909910D+02 -.106771094862635D+03 0.329106432327747D+02
 0.142611750880177D+03 -.508639828478239D+02 -.827851102130274D+02 -.665610720362304D+02
 0.189469464279308D+03 0.353675516748555D+02 0.183072288520567D+03 0.336504288034558D+02
 0.353549715591888D+02 0.343042090639594D+02 0.648391655509556D+01 -.558158405417069D+01
0.697580711431D-05 0.000000000000D+00 0.000000000000D+00 0.196574912932D-06 0.000000000000D+00  6 21 2 25 24 1 21 2 0.33624195D-02 0.43919063D+00 0.56714463D+05 0.56714463D+05 0.56714463D+05 0.11868999D+01  1  2  2  2  6  2        2 0.168261298495D-01 0.100000000000D+01
-.646166578154D-06 0.368123455043D-06 -.140821447447D-07 0.196574912932D-06 0.000000000000D+00  6 21 2 25 24 1 21 4 0.33624195D-02 0.43919063D+00 0.56714463D+05 0.56714463D+05 0.56714463D+05 0.11868999D+01  1  2  3  2  6  2        2 -.219564652080D-02 0.100000000000D+01
0.862156068198D-06 0.000000000000D+00 0.000000000000D+00 0.196574912932D-06 0.000000000000D+00  6 21 2 25 24 1 21 4 0.33624195D-02 0.43919063D+00 0.56714463D+05 0.56714463D+05 0.56714463D+05 0.11868999D+01  1  2 15  2  6  2        2 0.292956961180D-02 0.100000000000D+01
0.241792235848D-04 0.000000000000D+00 0.000000000000D+00 0.194513467320D-06 0.000000000000D+00  6 21 2 25 24 1 21 4 0.33624195D-02 0.48888343D+00 0.65782036D+05 0.65782036D+05 0.65782036D+05 0.11806601D+01  1  2 12  2  6  2        2 0.513755440359D-01 0.100000000000D+01
-.138866150180D-04 0.000000000000D+00 0.000000000000D+00 0.196574912932D-06 0.000000000000D+00  6 21 2 25 24 1 21 4 0.33624195D-02 0.43919063D+00 0.56714463D+05 0.56714463D+05 0.56714463D+05 0.11868999D+01  1  2  4  2  6  2        2 -.471861265821D-01 0.100000000000D+01
-.837097644252D-04 0.000000000000D+00 -.168700259941D-04 0.196574912932D-06 0.000000000000D+00  6 21 2 25 24 1 21 4 0.33624195D-02 0.48591613D+00 0.56714463D+05 0.56714463D+05 0.56714463D+05 0.11868999D+01  1  2  5  2  6  2        2 -.188103886138D+00 0.100000000000D+01
0.850660895678D-04 0.000000000000D+00 0.167841714084D-04 0.196574912932D-06 0.000000000000D+00  6 21 2 25 24 1 21 4 0.33624195D-02 0.43919063D+00 0.56714463D+05 0.56714463D+05 0.56714463D+05 0.11868999D+01  1  2  6  2  6  2        2 0.289050950501D+00 0.100000000000D+01
0.416882730833D-06 0.000000000000D+00 0.000000000000D+00 0.194513467320D-06 0.000000000000D+00  6 21 21 25 24 1 -2 4 0.33624195D-02 0.48888343D+00 0.65782036D+05 0.65782036D+05 0.65782036D+05 0.11806601D+01  1  2 12 10  6  2        2 0.880682098499D-04 0.100000000000D+01
-.131577719939D-05 0.000000000000D+00 -.276613702490D-06 0.196574912932D-06 0.000000000000D+00  6 21 21 25 24 1 -2 4 0.33624195D-02 0.48591613D+00 0.56714463D+05 0.56714463D+05 0.56714463D+05 0.11868999D+01  1  2  5 10  6  2        2 -.304337761122D-03 0.100000000000D+01
  </mgrwgt>
  </event>
  <event>
  5     66 0.42910585E-03 0.41653383E+02 0.75467711E-02 0.11637396E+00
       21 -1    0    0  501  502 0.00000000E+00 0.00000000E+00 0.11854868E+02 0.11878569E+02 0.75000000E+00 0.0000E+00 0.9000E+01
        2 -1    0    0  502    0 0.00000000E+00 0.00000000E+00 -.38102348E+04 0.38102348E+04 0.32000000E+00 0.0000E+00 0.9000E+01
       25  1    1    2    0    0 0.10733201E+03 -.39692410E+02 -.27075139E+04 0.27128126E+04 0.12500000E+03 0.0000E+00 0.9000E+01
       24  1    1    2    0    0 -.69027884E+02 0.56056602E+02 -.10205846E+04 0.10276027E+04 0.80419002E+02 0.0000E+00 0.9000E+01
        1  1    1    2  501    0 -.38304122E+02 -.16364192E+02 -.70281379E+02 0.81698024E+02 0.32000000E+00 0.0000E+00 0.9000E+01
#aMCatNLO 1  0  0  1  2 0.38475499D+02 0.00000000D+00  -5  6  0 0.00000000D+00 0.00000000D+00 0.00000000D+00 0.00000000D+00 0.00000000D+00
  <mgrwgt>
 0.1231050208D+00   23    2    0
 0.212638541561941D+03 0.000000000000000D+00 0.000000000000000D+00 0.212638541561941D+03
 0.212638541561941D+03 0.000000000000000D+00 0.000000000000000D+00 -.212638541561941D+03
 0.198719652054884D+03 0.107332086818048D+03 -.396923751841053D+02 -.103773014817636D+03
 0.120029984627240D+03 -.690278349360147D+02 0.560566223395078D+02 0.572663524043650D+01
 0.106527446441758D+03 -.383042518820336D+02 -.163642471554025D+02 0.980463795771992D+02
 0.000000000000000D+00 -.000000000000000D+00 0.000000000000000D+00 0.000000000000000D+00
 0.235778144838627D+03 0.000000000000000D+00 0.000000000000000D+00 0.235778144838627D+03
 0.230124516432307D+03 0.000000000000000D+00 0.000000000000000D+00 -.230124516432307D+03
 0.209831561386322D+03 0.125188230449263D+03 -.443097337665519D+02 -.103773014817636D+03
 0.113204361054030D+03 -.588340921708464D+02 0.534206575636800D+02 0.572663524043650D+01
 0.103978083672133D+03 -.291038949690821D+02 -.187433357106339D+02 0.980463795771992D+02
 0.388886551584493D+02 -.372502433093340D+02 0.963241191350570D+01 0.565362840632017D+01
0.179340660631D-04 0.000000000000D+00 0.000000000000D+00 0.919566566293D-06 0.000000000000D+00  6 21 2 25 24 1 21 2 0.18256500D-02 0.58619179D+00 0.27393294D+05 0.27393294D+05 0.27393294D+05 0.12190636D+01  1  2  2  1  6  1       21 0.320117053961D-01 0.100000000000D+01
0.154806476133D-05 0.946406667204D-06 -.362037123479D-07 0.919566566293D-06 0.000000000000D+00  6 21 2 25 24 1 21 4 0.18256500D-02 0.58619179D+00 0.27393294D+05 0.27393294D+05 0.27393294D+05 0.12190636D+01  1  2  3  1  6  1       21 0.410650075719D-02 0.100000000000D+01
0.176100699682D-05 0.000000000000D+00 0.000000000000D+00 0.919566566293D-06 0.000000000000D+00  6 21 2 25 24 1 21 4 0.18256500D-02 0.58619179D+00 0.27393294D+05 0.27393294D+05 0.27393294D+05 0.12190636D+01  1  2 15  1  6  1       21 0.467136566021D-02 0.100000000000D+01
0.166986816758D-04 0.000000000000D+00 0.000000000000D+00 0.904890696919D-06 0.000000000000D+00  6 21 2 25 24 1 21 4 0.20923035D-02 0.58619179D+00 0.33952958D+05 0.33952958D+05 0.33952958D+05 0.12092966D+01  1  2 12  1  6  1       21 0.339703252115D-01 0.100000000000D+01
-.317308775688D-05 0.000000000000D+00 0.000000000000D+00 0.919566566293D-06 0.000000000000D+00  6 21 2 25 24 1 21 4 0.18256500D-02 0.58619179D+00 0.27393294D+05 0.27393294D+05 0.27393294D+05 0.12190636D+01  1  2  4  1  6  1       21 -.841714610509D-02 0.100000000000D+01
-.696309550611D-04 0.000000000000D+00 -.272201231396D-04 0.919566566293D-06 0.000000000000D+00  6 21 2 25 24 1 21 4 0.23919242D-02 0.58619179D+00 0.27393294D+05 0.27393294D+05 0.27393294D+05 0.12190636D+01  1  2  5  1  6  1       21 -.119062121557D+00 0.100000000000D+01
0.671211457466D-04 0.000000000000D+00 0.236233000046D-04 0.919566566293D-06 0.000000000000D+00  6 21 2 25 24 1 21 4 0.18256500D-02 0.58619179D+00 0.27393294D+05 0.27393294D+05 0.27393294D+05 0.12190636D+01  1  2  6  1  6  1       21 0.178050067876D+00 0.100000000000D+01
0.608392733403D-06 0.000000000000D+00 0.000000000000D+00 0.904890696919D-06 0.000000000000D+00  6 -1 2 25 24 1 -1 4 0.20923035D-02 0.58619179D+00 0.33952958D+05 0.33952958D+05 0.33952958D+05 0.12092966D+01  1  2 12  4  6  1       21 0.606417757596D-04 0.100000000000D+01
-.439160232629D-05 0.000000000000D+00 -.225294595174D-05 0.919566566293D-06 0.000000000000D+00  6 -1 2 25 24 1 -1 4 0.23919242D-02 0.58619179D+00 0.27393294D+05 0.27393294D+05 0.27393294D+05 0.12190636D+01  1  2  5  4  6  1       21 -.375277835694D-03 0.100000000000D+01
0.608392733403D-06 0.000000000000D+00 0.000000000000D+00 0.904890696919D-06 0.000000000000D+00  6 1 2 25 24 1 1 4 0.20923035D-02 0.58619179D+00 0.33952958D+05 0.33952958D+05 0.33952958D+05 0.12092966D+01  1  2 12  5  6  1       21 0.638367755482D-04 0.100000000000D+01
-.439160232629D-05 0.000000000000D+00 -.225294595174D-05 0.919566566293D-06 0.000000000000D+00  6 1 2 25 24 1 1 4 0.23919242D-02 0.58619179D+00 0.27393294D+05 0.27393294D+05 0.27393294D+05 0.12190636D+01  1  2  5  5  6  1       21 -.397982307942D-03 0.100000000000D+01
0.608392733403D-06 0.000000000000D+00 0.000000000000D+00 0.904890696919D-06 0.000000000000D+00  6 -2 2 25 24 1 -2 4 0.20923035D-02 0.58619179D+00 0.33952958D+05 0.33952958D+05 0.33952958D+05 0.12092966D+01  1  2 12  6  6  1       21 0.600690673799D-04 0.100000000000D+01
-.439160232629D-05 0.000000000000D+00 -.225294595174D-05 0.919566566293D-06 0.000000000000D+00  6 -2 2 25 24 1 -2 4 0.23919242D-02 0.58619179D+00 0.27393294D+05 0.27393294D+05 0.27393294D+05 0.12190636D+01  1  2  5  6  6  1       21 -.371204345776D-03 0.100000000000D+01
0.608392733403D-06 0.000000000000D+00 0.000000000000D+00 0.904890696919D-06 0.000000000000D+00  6 2 2 25 24 1 2 4 0.20923035D-02 0.58619179D+00 0.33952958D+05 0.33952958D+05 0.33952958D+05 0.12092966D+01  1  2 12  7  6  1       21 0.660336710288D-04 0.100000000000D+01
-.439160232629D-05 0.000000000000D+00 -.225294595174D-05 0.919566566293D-06 0.000000000000D+00  6 2 2 25 24 1 2 4 0.23919242D-02 0.58619179D+00 0.27393294D+05 0.27393294D+05 0.27393294D+05 0.12190636D+01  1  2  5  7  6  1       21 -.413528784462D-03 0.100000000000D+01
0.608392733403D-06 0.000000000000D+00 0.000000000000D+00 0.904890696919D-06 0.000000000000D+00  6 -3 2 25 24 1 -3 4 0.20923035D-02 0.58619179D+00 0.33952958D+05 0.33952958D+05 0.33952958D+05 0.12092966D+01  1  2 12  8  6  1       21 0.472203131027D-04 0.100000000000D+01
0.608392733403D-06 0.000000000000D+00 0.000000000000D+00 0.904890696919D-06 0.000000000000D+00  6 -4 2 25 24 1 -4 4 0.20923035D-02 0.58619179D+00 0.33952958D+05 0.33952958D+05 0.33952958D+05 0.12092966D+01  1  2 12  8  6  1       21 0.430948817164D-04 0.100000000000D+01
-.439160232629D-05 0.000000000000D+00 -.225294595174D-05 0.919566566293D-06 0.000000000000D+00  6 -3 2 25 24 1 -3 4 0.23919242D-02 0.58619179D+00 0.27393294D+05 0.27393294D+05 0.27393294D+05 0.12190636D+01  1  2  5  8  6  1       21 -.287869052225D-03 0.100000000000D+01
-.439160232629D-05 0.000000000000D+00 -.225294595174D-05 0.919566566293D-06 0.000000000000D+00  6 -4 2 25 24 1 -4 4 0.23919242D-02 0.58619179D+00 0.27393294D+05 0.27393294D+05 0.27393294D+05 0.12190636D+01  1  2  5  8  6  1       21 -.261586033225D-03 0.100000000000D+01
0.608392733403D-06 0.000000000000D+00 0.000000000000D+00 0.904890696919D-06 0.000000000000D+00  6 3 2 25 24 1 3 4 0.20923035D-02 0.58619179D+00 0.33952958D+05 0.33952958D+05 0.33952958D+05 0.12092966D+01  1  2 12  9  6  1       21 0.472176518594D-04 0.100000000000D+01
0.608392733403D-06 0.000000000000D+00 0.000000000000D+00 0.904890696919D-06 0.000000000000D+00  6 4 2 25 24 1 4 4 0.20923035D-02 0.58619179D+00 0.33952958D+05 0.33952958D+05 0.33952958D+05 0.12092966D+01  1  2 12  9  6  1       21 0.430948817164D-04 0.100000000000D+01
-.439160232629D-05 0.000000000000D+00 -.225294595174D-05 0.919566566293D-06 0.000000000000D+00  6 3 2 25 24 1 3 4 0.23919242D-02 0.58619179D+00 0.27393294D+05 0.27393294D+05 0.27393294D+05 0.12190636D+01  1  2  5  9  6  1       21 -.287851041126D-03 0.100000000000D+01
-.439160232629D-05 0.000000000000D+00 -.225294595174D-05 0.919566566293D-06 0.000000000000D+00  6 4 2 25 24 1 4 4 0.23919242D-02 0.58619179D+00 0.27393294D+05 0.27393294D+05 0.27393294D+05 0.12190636D+01  1  2  5  9  6  1       21 -.261586033225D-03 0.100000000000D+01
  </mgrwgt>
  </event>
  <event>
  5     66 0.42910585E-03 0.78420325E+02 0.75467711E-02 0.11615949E+00
       21 -1    0    0  501  502 0.00000000E+00 0.00000000E+00 0.17971365E+02 0.17987009E+02 0.75000000E+00 0.0000E+00 0.9000E+01
        2 -1    0    0  502    0 0.00000000E+00 0.00000000E+00 -.23651486E+04 0.23651486E+04 0.32000000E+00 0.0000E+00 0.9000E+01
       25  1    1    2    0    0 -.97596284E+02 0.77132904E+02 -.14607118E+04 0.14713186E+04 0.12500000E+03 0.0000E+00 0.9000E+01
       24  1    1    2    0    0 0.16758850E+02 -.79286276E+02 -.68964831E+03 0.69903446E+03 0.80419002E+02 0.0000E+00 0.9000E+01
        1  1    1    2  501    0 0.80837434E+02 0.21533715E+01 -.19681707E+03 0.21278249E+03 0.32000000E+00 0.0000E+00 0.9000E+01
#aMCatNLO 1  0  0  1  5 0.17593003D+01 0.00000000D+00  -5  6  0 0.00000000D+00 0.00000000D+00 0.00000000D+00 0.00000000D+00 0.00000000D+00
  <mgrwgt>
 0.7893978555D-01   41    2    0
 0.206212547983960D+03 0.000000000000000D+00 0.000000000000000D+00 0.206212547983960D+03
 0.206212547983960D+03 0.000000000000000D+00 0.000000000000000D+00 -.206212547983960D+03
 0.188646130659953D+03 -.975964423448875D+02 0.771329001648152D+02 -.669911394645428D+02
 0.114365296856899D+03 0.167587540113079D+02 -.792862784184241D+02 -.671084117980688D+01
 0.109413668451068D+03 0.808376883335796D+02 0.215337825360883D+01 0.737019806443497D+02
 0.000000000000000D+00 -.000000000000000D+00 0.000000000000000D+00 0.000000000000000D+00
 0.209249059459541D+03 0.000000000000000D+00 0.000000000000000D+00 0.209249059459541D+03
 0.206469408458198D+03 0.000000000000000D+00 0.000000000000000D+00 -.206469408458198D+03
 0.188275138523829D+03 -.975082637874436D+02 0.763338294111290D+02 -.669911394645428D+02
 0.114710353010806D+03 0.168123449386509D+02 -.797719173758311D+02 -.671084117980688D+01
 0.109443356779345D+03 0.808888886726134D+02 0.168940271707544D+01 0.737019806443497D+02
 0.328961960375923D+01 -.192969823820635D+00 0.174868524762665D+01 0.277965100134254D+01
0.147381930182D-05 0.000000000000D+00 0.000000000000D+00 0.292603789915D-06 0.000000000000D+00  6 21 2 25 24 1 21 2 0.27660304D-02 0.36387022D+00 0.34481750D+05 0.34481750D+05 0.34481750D+05 0.12086028D+01  1  2  2  1  6  1       21 0.967147837249D-02 0.100000000000D+01
-.269970206884D-07 0.777755813207D-07 -.297521654422D-08 0.292603789915D-06 0.000000000000D+00  6 21 2 25 24 1 21 4 0.27660304D-02 0.36387022D+00 0.34481750D+05 0.34481750D+05 0.34481750D+05 0.12086028D+01  1  2  3  1  6  1       21 -.258780573202D-03 0.100000000000D+01
0.167518318122D-06 0.000000000000D+00 0.000000000000D+00 0.292603789915D-06 0.000000000000D+00  6 21 2 25 24 1 21 4 0.27660304D-02 0.36387022D+00 0.34481750D+05 0.34481750D+05 0.34481750D+05 0.12086028D+01  1  2 15  1  6  1       21 0.160575075620D-02 0.100000000000D+01
0.175884625725D-08 0.000000000000D+00 0.000000000000D+00 0.292399943315D-06 0.000000000000D+00  6 21 2 25 24 1 21 4 0.28084694D-02 0.36387022D+00 0.34807142D+05 0.34807142D+05 0.34807142D+05 0.12081818D+01  1  2 12  1  6  1       21 0.164145227537D-04 0.100000000000D+01
0.122438527057D-08 0.000000000000D+00 0.000000000000D+00 0.292399943315D-06 0.000000000000D+00  6 21 2 25 24 1 21 4 0.28266345D-02 0.36387022D+00 0.34807142D+05 0.34807142D+05 0.34807142D+05 0.12081818D+01  1  2 12  1  6  1       21 0.113057936096D-04 0.100000000000D+01
-.105207513862D-03 0.000000000000D+00 0.000000000000D+00 0.292603789915D-06 0.000000000000D+00  6 21 2 25 24 1 21 4 0.27660304D-02 0.36387022D+00 0.34481750D+05 0.34481750D+05 0.34481750D+05 0.12086028D+01  1  2  4  1  6  1       21 -.100846908466D+01 0.100000000000D+01
-.396901861576D-03 0.000000000000D+00 -.288930535285D-04 0.292603789915D-06 0.000000000000D+00  6 21 2 25 24 1 21 4 0.28107218D-02 0.36387022D+00 0.34481750D+05 0.34481750D+05 0.34481750D+05 0.12086028D+01  1  2  5  1  6  1       21 -.370532138304D+01 0.100000000000D+01
0.397122798501D-03 0.000000000000D+00 0.288782137140D-04 0.292603789915D-06 0.000000000000D+00  6 21 2 25 24 1 21 4 0.27660304D-02 0.36387022D+00 0.34481750D+05 0.34481750D+05 0.34481750D+05 0.12086028D+01  1  2  6  1  6  1       21 0.380662987275D+01 0.100000000000D+01
0.104950829538D-03 0.000000000000D+00 0.000000000000D+00 0.292603789915D-06 0.133466481071D-05  6 21 2 25 24 1 21 4 0.28067607D-02 0.36432346D+00 0.34807142D+05 0.34807142D+05 0.34807142D+05 0.12081818D+01  1  2 11  1  6  1       21 0.976907320712D+00 0.100000000000D+01
0.180602050905D-09 0.000000000000D+00 0.000000000000D+00 0.292399943315D-06 0.000000000000D+00  6 -1 2 25 24 1 -1 4 0.28084694D-02 0.36387022D+00 0.34807142D+05 0.34807142D+05 0.34807142D+05 0.12081818D+01  1  2 12  4  6  1       21 0.870901204537D-07 0.100000000000D+01
0.180652707346D-09 0.000000000000D+00 0.000000000000D+00 0.292399943315D-06 0.000000000000D+00  6 -1 2 25 24 1 -1 4 0.28266345D-02 0.36387022D+00 0.34807142D+05 0.34807142D+05 0.34807142D+05 0.12081818D+01  1  2 12  4  6  1       21 0.862954236026D-07 0.100000000000D+01
-.136247310626D-05 0.000000000000D+00 -.105388965450D-06 0.292603789915D-06 0.000000000000D+00  6 -1 2 25 24 1 -1 4 0.28107218D-02 0.36387022D+00 0.34481750D+05 0.34481750D+05 0.34481750D+05 0.12086028D+01  1  2  5  4  6  1       21 -.657216148114D-03 0.100000000000D+01
0.172837630045D-05 0.000000000000D+00 0.000000000000D+00 0.292603789915D-06 0.215992708391D-07  6 -1 2 25 24 1 -1 4 0.28067607D-02 0.36432346D+00 0.34807142D+05 0.34807142D+05 0.34807142D+05 0.12081818D+01  1  2 11  4  6  1       21 0.831195313090D-03 0.100000000000D+01
0.180602050905D-09 0.000000000000D+00 0.000000000000D+00 0.292399943315D-06 0.000000000000D+00  6 1 2 25 24 1 1 4 0.28084694D-02 0.36387022D+00 0.34807142D+05 0.34807142D+05 0.34807142D+05 0.12081818D+01  1  2 12  5  6  1       21 0.932488992897D-07 0.100000000000D+01
0.180652707346D-09 0.000000000000D+00 0.000000000000D+00 0.292399943315D-06 0.000000000000D+00  6 1 2 25 24 1 1 4 0.28266345D-02 0.36387022D+00 0.34807142D+05 0.34807142D+05 0.34807142D+05 0.12081818D+01  1  2 12  5  6  1       21 0.924375749156D-07 0.100000000000D+01
-.136247310626D-05 0.000000000000D+00 -.105388965450D-06 0.292603789915D-06 0.000000000000D+00  6 1 2 25 24 1 1 4 0.28107218D-02 0.36387022D+00 0.34481750D+05 0.34481750D+05 0.34481750D+05 0.12086028D+01  1  2  5  5  6  1       21 -.703738073456D-03 0.100000000000D+01
0.671242176236D-06 0.000000000000D+00 0.000000000000D+00 0.292603789915D-06 0.278778219468D-08  6 1 2 25 24 1 1 4 0.28067607D-02 0.36432346D+00 0.34807142D+05 0.34807142D+05 0.34807142D+05 0.12081818D+01  1  2 11  5  6  1       21 0.345621974796D-03 0.100000000000D+01
0.180602050905D-09 0.000000000000D+00 0.000000000000D+00 0.292399943315D-06 0.000000000000D+00  6 -2 2 25 24 1 -2 4 0.28084694D-02 0.36387022D+00 0.34807142D+05 0.34807142D+05 0.34807142D+05 0.12081818D+01  1  2 12  6  6  1       21 0.859874067255D-07 0.100000000000D+01
0.180652707346D-09 0.000000000000D+00 0.000000000000D+00 0.292399943315D-06 0.000000000000D+00  6 -2 2 25 24 1 -2 4 0.28266345D-02 0.36387022D+00 0.34807142D+05 0.34807142D+05 0.34807142D+05 0.12081818D+01  1  2 12  6  6  1       21 0.851957973303D-07 0.100000000000D+01
-.136247310626D-05 0.000000000000D+00 -.105388965450D-06 0.292603789915D-06 0.000000000000D+00  6 -2 2 25 24 1 -2 4 0.28107218D-02 0.36387022D+00 0.34481750D+05 0.34481750D+05 0.34481750D+05 0.12086028D+01  1  2  5  6  6  1       21 -.648886414061D-03 0.100000000000D+01
0.671897266261D-06 0.000000000000D+00 0.000000000000D+00 0.292603789915D-06 0.557150999709D-08  6 -2 2 25 24 1 -2 4 0.28067607D-02 0.36432346D+00 0.34807142D+05 0.34807142D+05 0.34807142D+05 0.12081818D+01  1  2 11  6  6  1       21 0.319033995081D-03 0.100000000000D+01
0.180602050905D-09 0.000000000000D+00 0.000000000000D+00 0.292399943315D-06 0.000000000000D+00  6 2 2 25 24 1 2 4 0.28084694D-02 0.36387022D+00 0.34807142D+05 0.34807142D+05 0.34807142D+05 0.12081818D+01  1  2 12  7  6  1       21 0.974492453093D-07 0.100000000000D+01
0.180652707346D-09 0.000000000000D+00 0.000000000000D+00 0.292399943315D-06 0.000000000000D+00  6 2 2 25 24 1 2 4 0.28266345D-02 0.36387022D+00 0.34807142D+05 0.34807142D+05 0.34807142D+05 0.12081818D+01  1  2 12  7  6  1       21 0.966258482011D-07 0.100000000000D+01
-.136247310626D-05 0.000000000000D+00 -.105388965450D-06 0.292603789915D-06 0.000000000000D+00  6 2 2 25 24 1 2 4 0.28107218D-02 0.36387022D+00 0.34481750D+05 0.34481750D+05 0.34481750D+05 0.12086028D+01  1  2  5  7  6  1       21 -.735465085512D-03 0.100000000000D+01
0.675884329205D-06 0.000000000000D+00 0.000000000000D+00 0.292603789915D-06 0.574384376947D-08  6 2 2 25 24 1 2 4 0.28067607D-02 0.36432346D+00 0.34807142D+05 0.34807142D+05 0.34807142D+05 0.12081818D+01  1  2 11  7  6  1       21 0.363679565122D-03 0.100000000000D+01
0.180602050905D-09 0.000000000000D+00 0.000000000000D+00 0.292399943315D-06 0.000000000000D+00  6 -3 2 25 24 1 -3 4 0.28084694D-02 0.36387022D+00 0.34807142D+05 0.34807142D+05 0.34807142D+05 0.12081818D+01  1  2 12  8  6  1       21 0.662083954184D-07 0.100000000000D+01
0.180602050905D-09 0.000000000000D+00 0.000000000000D+00 0.292399943315D-06 0.000000000000D+00  6 -4 2 25 24 1 -4 4 0.28084694D-02 0.36387022D+00 0.34807142D+05 0.34807142D+05 0.34807142D+05 0.12081818D+01  1  2 12  8  6  1       21 0.601014028739D-07 0.100000000000D+01
0.180652707346D-09 0.000000000000D+00 0.000000000000D+00 0.292399943315D-06 0.000000000000D+00  6 -3 2 25 24 1 -3 4 0.28266345D-02 0.36387022D+00 0.34807142D+05 0.34807142D+05 0.34807142D+05 0.12081818D+01  1  2 12  8  6  1       21 0.655677025879D-07 0.100000000000D+01
0.180652707346D-09 0.000000000000D+00 0.000000000000D+00 0.292399943315D-06 0.000000000000D+00  6 -4 2 25 24 1 -4 4 0.28266345D-02 0.36387022D+00 0.34807142D+05 0.34807142D+05 0.34807142D+05 0.12081818D+01  1  2 12  8  6  1       21 0.595120713845D-07 0.100000000000D+01
-.136247310626D-05 0.000000000000D+00 -.105388965450D-06 0.292603789915D-06 0.000000000000D+00  6 -3 2 25 24 1 -3 4 0.28107218D-02 0.36387022D+00 0.34481750D+05 0.34481750D+05 0.34481750D+05 0.12086028D+01  1  2  5  8  6  1       21 -.499509507828D-03 0.100000000000D+01
-.136247310626D-05 0.000000000000D+00 -.105388965450D-06 0.292603789915D-06 0.000000000000D+00  6 -4 2 25 24 1 -4 4 0.28107218D-02 0.36387022D+00 0.34481750D+05 0.34481750D+05 0.34481750D+05 0.12086028D+01  1  2  5  8  6  1       21 -.453391126945D-03 0.100000000000D+01
0.671822425032D-06 0.000000000000D+00 0.000000000000D+00 0.292603789915D-06 0.557088939827D-08  6 -3 2 25 24 1 -3 4 0.28067607D-02 0.36432346D+00 0.34807142D+05 0.34807142D+05 0.34807142D+05 0.12081818D+01  1  2 11  8  6  1       21 0.245632749853D-03 0.100000000000D+01
0.671822425032D-06 0.000000000000D+00 0.000000000000D+00 0.292603789915D-06 0.557088939827D-08  6 -4 2 25 24 1 -4 4 0.28067607D-02 0.36432346D+00 0.34807142D+05 0.34807142D+05 0.34807142D+05 0.12081818D+01  1  2 11  8  6  1       21 0.222978575755D-03 0.100000000000D+01
0.180602050905D-09 0.000000000000D+00 0.000000000000D+00 0.292399943315D-06 0.000000000000D+00  6 3 2 25 24 1 3 4 0.28084694D-02 0.36387022D+00 0.34807142D+05 0.34807142D+05 0.34807142D+05 0.12081818D+01  1  2 12  9  6  1       21 0.662038930521D-07 0.100000000000D+01
0.180602050905D-09 0.000000000000D+00 0.000000000000D+00 0.292399943315D-06 0.000000000000D+00  6 4 2 25 24 1 4 4 0.28084694D-02 0.36387022D+00 0.34807142D+05 0.34807142D+05 0.34807142D+05 0.12081818D+01  1  2 12  9  6  1       21 0.601014028739D-07 0.100000000000D+01
0.180652707346D-09 0.000000000000D+00 0.000000000000D+00 0.292399943315D-06 0.000000000000D+00  6 3 2 25 24 1 3 4 0.28266345D-02 0.36387022D+00 0.34807142D+05 0.34807142D+05 0.34807142D+05 0.12081818D+01  1  2 12  9  6  1       21 0.655632258620D-07 0.100000000000D+01
0.180652707346D-09 0.000000000000D+00 0.000000000000D+00 0.292399943315D-06 0.000000000000D+00  6 4 2 25 24 1 4 4 0.28266345D-02 0.36387022D+00 0.34807142D+05 0.34807142D+05 0.34807142D+05 0.12081818D+01  1  2 12  9  6  1       21 0.595120713845D-07 0.100000000000D+01
-.136247310626D-05 0.000000000000D+00 -.105388965450D-06 0.292603789915D-06 0.000000000000D+00  6 3 2 25 24 1 3 4 0.28107218D-02 0.36387022D+00 0.34481750D+05 0.34481750D+05 0.34481750D+05 0.12086028D+01  1  2  5  9  6  1       21 -.499475498030D-03 0.100000000000D+01
-.136247310626D-05 0.000000000000D+00 -.105388965450D-06 0.292603789915D-06 0.000000000000D+00  6 4 2 25 24 1 4 4 0.28107218D-02 0.36387022D+00 0.34481750D+05 0.34481750D+05 0.34481750D+05 0.12086028D+01  1  2  5  9  6  1       21 -.453391126945D-03 0.100000000000D+01
0.671822425032D-06 0.000000000000D+00 0.000000000000D+00 0.292603789915D-06 0.557088939827D-08  6 3 2 25 24 1 3 4 0.28067607D-02 0.36432346D+00 0.34807142D+05 0.34807142D+05 0.34807142D+05 0.12081818D+01  1  2 11  9  6  1       21 0.245616052433D-03 0.100000000000D+01
0.671822425032D-06 0.000000000000D+00 0.000000000000D+00 0.292603789915D-06 0.557088939827D-08  6 4 2 25 24 1 4 4 0.28067607D-02 0.36432346D+00 0.34807142D+05 0.34807142D+05 0.34807142D+05 0.12081818D+01  1  2 11  9  6  1       21 0.222978575755D-03 0.100000000000D+01
  </mgrwgt>
  </event>
  <event>
  5     66 -.42910585E-03 0.91247515E+02 0.75467711E-02 0.11115697E+00
       21 -1    0    0  501  502 0.00000000E+00 0.00000000E+00 0.34501832E+03 0.34501913E+03 0.75000000E+00 0.0000E+00 0.9000E+01
        2 -1    0    0  502    0 0.00000000E+00 0.00000000E+00 -.60554102E+03 0.60554111E+03 0.32000000E+00 0.0000E+00 0.9000E+01
       25  1    1    2    0    0 0.11474537E+03 0.81980129E+01 -.31524098E+03 0.35809996E+03 0.12500000E+03 0.0000E+00 0.9000E+01
       24  1    1    2    0    0 -.97594620E+02 -.97819204E+02 -.23751590E+03 0.28631159E+03 0.80419002E+02 0.0000E+00 0.9000E+01
        1  1    1    2  501    0 -.17150749E+02 0.89621191E+02 0.29223417E+03 0.30614869E+03 0.32000000E+00 0.0000E+00 0.9000E+01
#aMCatNLO 1  0  0  2  5 0.10108010D+03 0.00000000D+00  -5  6  0 0.00000000D+00 0.00000000D+00 0.00000000D+00 0.00000000D+00 0.00000000D+00
  <mgrwgt>
 -.1538868269D+00    7    2    0
 0.457081144161930D+03 0.000000000000000D+00 0.000000000000000D+00 0.457081144161930D+03
 0.457081144161930D+03 0.000000000000000D+00 0.000000000000000D+00 -.457081144161930D+03
 0.282518962970643D+03 0.114745370451406D+03 0.819800412020201D+01 -.225739356618252D+03
 0.230022777039439D+03 -.975946183088190D+02 -.978192112426917D+02 -.165378216194209D+03
 0.401620548313777D+03 -.171507521425875D+02 0.896212071224896D+02 0.391117572812460D+03
 0.000000000000000D+00 0.000000000000000D+00 0.000000000000000D+00 -.000000000000000D+00
 0.467128720208489D+03 0.000000000000000D+00 0.000000000000000D+00 0.467128720208489D+03
 0.811605001009919D+03 0.000000000000000D+00 0.000000000000000D+00 -.811605001009919D+03
 0.278495457817376D+03 0.102780167119631D+03 -.203150226519305D+02 -.225739356618252D+03
 0.245573714471393D+03 -.107738045133414D+03 -.121990952632392D+03 -.165378216194209D+03
 0.395664417319935D+03 -.341550863872852D+02 0.490999536078272D+02 0.391117572812460D+03
 0.359000131609703D+03 0.391129644010685D+02 0.932060216764956D+02 -.344476280801430D+03
0.572262570815D-04 0.000000000000D+00 0.000000000000D+00 0.227568279505D-05 0.000000000000D+00  6 21 2 25 24 1 21 2 0.53079810D-01 0.93160226D-01 0.44310800D+05 0.44310800D+05 0.44310800D+05 0.11975124D+01  1  2  2  2  6  2        2 0.171761273106D-01 0.100000000000D+01
0.602787862962D-05 0.301991255360D-05 -.115523325432D-06 0.227568279505D-05 0.000000000000D+00  6 21 2 25 24 1 21 4 0.53079810D-01 0.93160226D-01 0.44310800D+05 0.44310800D+05 0.44310800D+05 0.11975124D+01  1  2  3  2  6  2        2 0.259450473249D-02 0.100000000000D+01
0.625076036991D-05 0.000000000000D+00 0.000000000000D+00 0.227568279505D-05 0.000000000000D+00  6 21 2 25 24 1 21 4 0.53079810D-01 0.93160226D-01 0.44310800D+05 0.44310800D+05 0.44310800D+05 0.11975124D+01  1  2 15  2  6  2        2 0.269043694439D-02 0.100000000000D+01
-.711825023033D-03 0.000000000000D+00 0.000000000000D+00 0.227568279505D-05 0.000000000000D+00  6 21 2 25 24 1 21 4 0.53079810D-01 0.93160226D-01 0.44310800D+05 0.44310800D+05 0.44310800D+05 0.11975124D+01  1  2  4  2  6  2        2 -.306381980203D+00 0.100000000000D+01
-.746619397552D-03 0.000000000000D+00 -.569852977837D-04 0.227568279505D-05 0.000000000000D+00  6 21 2 25 24 1 21 4 0.53079810D-01 0.16668538D+00 0.44310800D+05 0.44310800D+05 0.44310800D+05 0.11975124D+01  1  2  5  2  6  2        2 -.152102959311D+00 0.100000000000D+01
0.671360332864D-03 0.000000000000D+00 0.485367096901D-04 0.227568279505D-05 0.000000000000D+00  6 21 2 25 24 1 21 4 0.53079810D-01 0.93160226D-01 0.44310800D+05 0.44310800D+05 0.44310800D+05 0.11975124D+01  1  2  6  2  6  2        2 0.288965267526D+00 0.100000000000D+01
-.447038871644D-04 0.000000000000D+00 -.364109419634D-05 0.227568279505D-05 0.000000000000D+00  6 21 21 25 24 1 -2 4 0.53079810D-01 0.16668538D+00 0.44310800D+05 0.44310800D+05 0.44310800D+05 0.11975124D+01  1  2  5 10  6  2        2 -.682822393719D-02 0.100000000000D+01
  </mgrwgt>
  </event>
  <event>
  5     66 0.42910585E-03 0.26326322E+02 0.75467711E-02 0.10756091E+00
       21 -1    0    0  501  502 0.00000000E+00 0.00000000E+00 0.20197750E+03 0.20197889E+03 0.75000000E+00 0.0000E+00 0.9000E+01
        2 -1    0    0  502    0 0.00000000E+00 0.00000000E+00 -.52968215E+03 0.52968224E+03 0.32000000E+00 0.0000E+00 0.9000E+01
       25  1    1    2    0    0 -.77516228E+02 -.98752237E+02 -.24635011E+03 0.30343722E+03 0.12500000E+03 0.0000E+00 0.9000E+01
       24  1    1    2    0    0 0.85257466E+02 0.12391466E+03 -.22491325E+03 0.28227090E+03 0.80419002E+02 0.0000E+00 0.9000E+01
        1  1    1    2  501    0 -.77412382E+01 -.25162425E+02 0.14355871E+03 0.14595301E+03 0.32000000E+00 0.0000E+00 0.9000E+01
#aMCatNLO 1  0  0  1  5 0.13127385D+03 0.00000000D+00  -5  6  0 0.00000000D+00 0.00000000D+00 0.00000000D+00 0.00000000D+00 0.00000000D+00
  <mgrwgt>
 0.6309797067D+00   14    2    0
 0.327084730728502D+03 0.000000000000000D+00 0.000000000000000D+00 0.327084730728502D+03
 0.327084730728502D+03 0.000000000000000D+00 0.000000000000000D+00 -.327084730728502D+03
 0.215973350860590D+03 -.775162254353303D+02 -.987522289913912D+02 -.123526192952922D+03
 0.203038463052249D+03 0.852574681811244D+02 0.123914668634991D+03 -.110153168545775D+03
 0.235157647544165D+03 -.774124274579415D+01 -.251624396435999D+02 0.233679361498697D+03
 0.000000000000000D+00 0.000000000000000D+00 0.000000000000000D+00 0.000000000000000D+00
 0.554813147182388D+03 0.000000000000000D+00 0.000000000000000D+00 0.554813147182388D+03
 0.382618877742588D+03 0.000000000000000D+00 0.000000000000000D+00 -.382618877742588D+03
 0.260502076444099D+03 -.129558369187306D+03 -.142099403446216D+03 -.123526192952922D+03
 0.169393493240403D+03 0.445792793459688D+02 0.900328101868201D+02 -.110153168545775D+03
 0.251255481951582D+03 -.608688135656814D+02 -.694136928522708D+02 0.233679361498697D+03
 0.256280973288892D+03 0.145847903407018D+03 0.121480286111667D+03 0.172194269439800D+03
0.251251454458D-03 0.000000000000D+00 0.000000000000D+00 0.721357616836D-05 0.000000000000D+00  6 21 2 25 24 1 21 2 0.31073576D-01 0.81489675D-01 0.34977817D+05 0.34977817D+05 0.34977817D+05 0.12079626D+01  1  2  2  1  6  1       21 0.267010642663D+00 0.100000000000D+01
0.888723241495D-04 0.132589035195D-04 -.507204297797D-06 0.721357616836D-05 0.000000000000D+00  6 21 2 25 24 1 21 4 0.31073576D-01 0.81489675D-01 0.34977817D+05 0.34977817D+05 0.34977817D+05 0.12079626D+01  1  2  3  1  6  1       21 0.137814061330D+00 0.100000000000D+01
0.287471623603D-04 0.000000000000D+00 0.000000000000D+00 0.721357616836D-05 0.000000000000D+00  6 21 2 25 24 1 21 4 0.31073576D-01 0.81489675D-01 0.34977817D+05 0.34977817D+05 0.34977817D+05 0.12079626D+01  1  2 15  1  6  1       21 0.445781432465D-01 0.100000000000D+01
-.863206639509D-04 0.000000000000D+00 0.000000000000D+00 0.721357616836D-05 0.000000000000D+00  6 21 2 25 24 1 21 4 0.31073576D-01 0.81489675D-01 0.34977817D+05 0.34977817D+05 0.34977817D+05 0.12079626D+01  1  2  4  1  6  1       21 -.133857209088D+00 0.100000000000D+01
-.328232489171D-03 0.000000000000D+00 -.331204296286D-03 0.721357616836D-05 0.000000000000D+00  6 21 2 25 24 1 21 4 0.60014508D-01 0.81489675D-01 0.34977817D+05 0.34977817D+05 0.34977817D+05 0.12079626D+01  1  2  5  1  6  1       21 -.132632798873D+00 0.100000000000D+01
0.300388687367D-03 0.000000000000D+00 0.157716770179D-03 0.721357616836D-05 0.000000000000D+00  6 21 2 25 24 1 21 4 0.31073576D-01 0.81489675D-01 0.34977817D+05 0.34977817D+05 0.34977817D+05 0.12079626D+01  1  2  6  1  6  1       21 0.465811886657D+00 0.100000000000D+01
-.423616488496D-04 0.000000000000D+00 -.777061649907D-04 0.721357616836D-05 0.000000000000D+00  6 -1 2 25 24 1 -1 4 0.60014508D-01 0.81489675D-01 0.34977817D+05 0.34977817D+05 0.34977817D+05 0.12079626D+01  1  2  5  4  6  1       21 -.177981738238D-02 0.100000000000D+01
-.423616488496D-04 0.000000000000D+00 -.777061649907D-04 0.721357616836D-05 0.000000000000D+00  6 1 2 25 24 1 1 4 0.60014508D-01 0.81489675D-01 0.34977817D+05 0.34977817D+05 0.34977817D+05 0.12079626D+01  1  2  5  5  6  1       21 -.453948823229D-02 0.100000000000D+01
-.423616488496D-04 0.000000000000D+00 -.777061649907D-04 0.721357616836D-05 0.000000000000D+00  6 -2 2 25 24 1 -2 4 0.60014508D-01 0.81489675D-01 0.34977817D+05 0.34977817D+05 0.34977817D+05 0.12079626D+01  1  2  5  6  6  1       21 -.141914307580D-02 0.100000000000D+01
-.423616488496D-04 0.000000000000D+00 -.777061649907D-04 0.721357616836D-05 0.000000000000D+00  6 2 2 25 24 1 2 4 0.60014508D-01 0.81489675D-01 0.34977817D+05 0.34977817D+05 0.34977817D+05 0.12079626D+01  1  2  5  7  6  1       21 -.674682275986D-02 0.100000000000D+01
-.423616488496D-04 0.000000000000D+00 -.777061649907D-04 0.721357616836D-05 0.000000000000D+00  6 -3 2 25 24 1 -3 4 0.60014508D-01 0.81489675D-01 0.34977817D+05 0.34977817D+05 0.34977817D+05 0.12079626D+01  1  2  5  8  6  1       21 -.895242465924D-03 0.100000000000D+01
-.423616488496D-04 0.000000000000D+00 -.777061649907D-04 0.721357616836D-05 0.000000000000D+00  6 -4 2 25 24 1 -4 4 0.60014508D-01 0.81489675D-01 0.34977817D+05 0.34977817D+05 0.34977817D+05 0.12079626D+01  1  2  5  8  6  1       21 -.734326166270D-03 0.100000000000D+01
-.423616488496D-04 0.000000000000D+00 -.777061649907D-04 0.721357616836D-05 0.000000000000D+00  6 3 2 25 24 1 3 4 0.60014508D-01 0.81489675D-01 0.34977817D+05 0.34977817D+05 0.34977817D+05 0.12079626D+01  1  2  5  9  6  1       21 -.895853023810D-03 0.100000000000D+01
-.423616488496D-04 0.000000000000D+00 -.777061649907D-04 0.721357616836D-05 0.000000000000D+00  6 4 2 25 24 1 4 4 0.60014508D-01 0.81489675D-01 0.34977817D+05 0.34977817D+05 0.34977817D+05 0.12079626D+01  1  2  5  9  6  1       21 -.734326166270D-03 0.100000000000D+01
  </mgrwgt>
  </event>
  <event>
  5     66 0.42910585E-03 0.38676956E+02 0.75467711E-02 0.11557288E+00
       21 -1    0    0  501  502 0.00000000E+00 0.00000000E+00 0.41683600E+03 0.41683667E+03 0.75000000E+00 0.0000E+00 0.9000E+01
        2 -1    0    0  502    0 0.00000000E+00 0.00000000E+00 -.81088987E+02 0.81089619E+02 0.32000000E+00 0.0000E+00 0.9000E+01
       25  1    1    2    0    0 0.27844707E+02 -.10665908E+03 0.16108038E+03 0.23178304E+03 0.12500000E+03 0.0000E+00 0.9000E+01
       24  1    1    2    0    0 0.12446628E+02 0.12329699E+03 0.95929597E+02 0.17614417E+03 0.80419002E+02 0.0000E+00 0.9000E+01
        1  1    1    2  501    0 -.40291335E+02 -.16637913E+02 0.78737034E+02 0.89999082E+02 0.32000000E+00 0.0000E+00 0.9000E+01
#aMCatNLO 1  0  0  1  2 0.26942060D+02 0.00000000D+00  -5  6  0 0.00000000D+00 0.00000000D+00 0.00000000D+00 0.00000000D+00 0.00000000D+00
  <mgrwgt>
 0.1126637290D+00   23    2    0
 0.183850847645383D+03 0.000000000000000D+00 0.000000000000000D+00 0.183850847645383D+03
 0.183850847645383D+03 0.000000000000000D+00 0.000000000000000D+00 -.183850847645383D+03
 0.166788990965128D+03 0.278450812043555D+02 -.106658924310262D+03 0.648789833969421D+01
 0.150934327188255D+03 0.124469671844634D+02 0.123297131535222D+03 -.309329198831265D+02
 0.499783771373830D+02 -.402920483888190D+02 -.166382072249594D+02 0.244450215434322D+02
 0.000000000000000D+00 0.000000000000000D+00 0.000000000000000D+00 0.000000000000000D+00
 0.201621589920030D+03 0.000000000000000D+00 0.000000000000000D+00 0.201621589920030D+03
 0.194846653690931D+03 0.000000000000000D+00 0.000000000000000D+00 -.194846653690931D+03
 0.172656358142412D+03 0.210414011250540D+02 -.117048642114419D+03 0.648789833969421D+01
 0.143281460032628D+03 0.654984679146442D+01 0.114291796771350D+03 -.309329198831265D+02
 0.527495986129018D+02 -.423510787571442D+02 -.197824974072931D+02 0.244450215434322D+02
 0.277808268230184D+02 0.147598308406257D+02 0.225393427503617D+02 0.677493622909985D+01
0.101711376915D-04 0.000000000000D+00 0.000000000000D+00 0.354830423487D-06 0.000000000000D+00  6 21 2 25 24 1 21 2 0.64128716D-01 0.12475329D-01 0.32038410D+05 0.32038410D+05 0.32038410D+05 0.12119134D+01  1  2  2  1  6  1       21 0.198697605348D-01 0.100000000000D+01
0.219792363022D-06 0.536745682235D-06 -.205325965645D-07 0.354830423487D-06 0.000000000000D+00  6 21 2 25 24 1 21 4 0.64128716D-01 0.12475329D-01 0.32038410D+05 0.32038410D+05 0.32038410D+05 0.12119134D+01  1  2  3  1  6  1       21 0.630636138373D-03 0.100000000000D+01
0.966164558298D-06 0.000000000000D+00 0.000000000000D+00 0.354830423487D-06 0.000000000000D+00  6 21 2 25 24 1 21 4 0.64128716D-01 0.12475329D-01 0.32038410D+05 0.32038410D+05 0.32038410D+05 0.12119134D+01  1  2 15  1  6  1       21 0.277215403529D-02 0.100000000000D+01
0.179449870752D-04 0.000000000000D+00 0.000000000000D+00 0.350867794036D-06 0.000000000000D+00  6 21 2 25 24 1 21 4 0.72093629D-01 0.12475329D-01 0.37272670D+05 0.37272670D+05 0.37272670D+05 0.12051272D+01  1  2 12  1  6  1       21 0.388596501261D-01 0.100000000000D+01
-.709932216636D-05 0.000000000000D+00 0.000000000000D+00 0.354830423487D-06 0.000000000000D+00  6 21 2 25 24 1 21 4 0.64128716D-01 0.12475329D-01 0.32038410D+05 0.32038410D+05 0.32038410D+05 0.12119134D+01  1  2  4  1  6  1       21 -.203696300204D-01 0.100000000000D+01
-.104973015095D-03 0.000000000000D+00 -.235243423960D-04 0.354830423487D-06 0.000000000000D+00  6 21 2 25 24 1 21 4 0.73838511D-01 0.12475329D-01 0.32038410D+05 0.32038410D+05 0.32038410D+05 0.12119134D+01  1  2  5  1  6  1       21 -.221058107929D+00 0.100000000000D+01
0.104156458998D-03 0.000000000000D+00 0.226148269358D-04 0.354830423487D-06 0.000000000000D+00  6 21 2 25 24 1 21 4 0.64128716D-01 0.12475329D-01 0.32038410D+05 0.32038410D+05 0.32038410D+05 0.12119134D+01  1  2  6  1  6  1       21 0.298849451299D+00 0.100000000000D+01
0.548447079786D-06 0.000000000000D+00 0.000000000000D+00 0.350867794036D-06 0.000000000000D+00  6 -1 2 25 24 1 -1 4 0.72093629D-01 0.12475329D-01 0.37272670D+05 0.37272670D+05 0.37272670D+05 0.12051272D+01  1  2 12  4  6  1       21 0.128836783049D-03 0.100000000000D+01
-.329366381199D-05 0.000000000000D+00 -.891280595650D-06 0.354830423487D-06 0.000000000000D+00  6 -1 2 25 24 1 -1 4 0.73838511D-01 0.12475329D-01 0.32038410D+05 0.32038410D+05 0.32038410D+05 0.12119134D+01  1  2  5  4  6  1       21 -.753073158782D-03 0.100000000000D+01
0.548447079786D-06 0.000000000000D+00 0.000000000000D+00 0.350867794036D-06 0.000000000000D+00  6 1 2 25 24 1 1 4 0.72093629D-01 0.12475329D-01 0.37272670D+05 0.37272670D+05 0.37272670D+05 0.12051272D+01  1  2 12  5  6  1       21 0.371763905584D-03 0.100000000000D+01
-.329366381199D-05 0.000000000000D+00 -.891280595650D-06 0.354830423487D-06 0.000000000000D+00  6 1 2 25 24 1 1 4 0.73838511D-01 0.12475329D-01 0.32038410D+05 0.32038410D+05 0.32038410D+05 0.12119134D+01  1  2  5  5  6  1       21 -.220915058527D-02 0.100000000000D+01
0.548447079786D-06 0.000000000000D+00 0.000000000000D+00 0.350867794036D-06 0.000000000000D+00  6 -2 2 25 24 1 -2 4 0.72093629D-01 0.12475329D-01 0.37272670D+05 0.37272670D+05 0.37272670D+05 0.12051272D+01  1  2 12  6  6  1       21 0.999793473512D-04 0.100000000000D+01
-.329366381199D-05 0.000000000000D+00 -.891280595650D-06 0.354830423487D-06 0.000000000000D+00  6 -2 2 25 24 1 -2 4 0.73838511D-01 0.12475329D-01 0.32038410D+05 0.32038410D+05 0.32038410D+05 0.12119134D+01  1  2  5  6  6  1       21 -.581953444140D-03 0.100000000000D+01
0.548447079786D-06 0.000000000000D+00 0.000000000000D+00 0.350867794036D-06 0.000000000000D+00  6 2 2 25 24 1 2 4 0.72093629D-01 0.12475329D-01 0.37272670D+05 0.37272670D+05 0.37272670D+05 0.12051272D+01  1  2 12  7  6  1       21 0.573041297717D-03 0.100000000000D+01
-.329366381199D-05 0.000000000000D+00 -.891280595650D-06 0.354830423487D-06 0.000000000000D+00  6 2 2 25 24 1 2 4 0.73838511D-01 0.12475329D-01 0.32038410D+05 0.32038410D+05 0.32038410D+05 0.12119134D+01  1  2  5  7  6  1       21 -.341968530554D-02 0.100000000000D+01
0.548447079786D-06 0.000000000000D+00 0.000000000000D+00 0.350867794036D-06 0.000000000000D+00  6 -3 2 25 24 1 -3 4 0.72093629D-01 0.12475329D-01 0.37272670D+05 0.37272670D+05 0.37272670D+05 0.12051272D+01  1  2 12  8  6  1       21 0.631404975415D-04 0.100000000000D+01
0.548447079786D-06 0.000000000000D+00 0.000000000000D+00 0.350867794036D-06 0.000000000000D+00  6 -4 2 25 24 1 -4 4 0.72093629D-01 0.12475329D-01 0.37272670D+05 0.37272670D+05 0.37272670D+05 0.12051272D+01  1  2 12  8  6  1       21 0.514387807885D-04 0.100000000000D+01
-.329366381199D-05 0.000000000000D+00 -.891280595650D-06 0.354830423487D-06 0.000000000000D+00  6 -3 2 25 24 1 -3 4 0.73838511D-01 0.12475329D-01 0.32038410D+05 0.32038410D+05 0.32038410D+05 0.12119134D+01  1  2  5  8  6  1       21 -.366533953945D-03 0.100000000000D+01
-.329366381199D-05 0.000000000000D+00 -.891280595650D-06 0.354830423487D-06 0.000000000000D+00  6 -4 2 25 24 1 -4 4 0.73838511D-01 0.12475329D-01 0.32038410D+05 0.32038410D+05 0.32038410D+05 0.12119134D+01  1  2  5  8  6  1       21 -.297850935150D-03 0.100000000000D+01
0.548447079786D-06 0.000000000000D+00 0.000000000000D+00 0.350867794036D-06 0.000000000000D+00  6 3 2 25 24 1 3 4 0.72093629D-01 0.12475329D-01 0.37272670D+05 0.37272670D+05 0.37272670D+05 0.12051272D+01  1  2 12  9  6  1       21 0.632058293306D-04 0.100000000000D+01
0.548447079786D-06 0.000000000000D+00 0.000000000000D+00 0.350867794036D-06 0.000000000000D+00  6 4 2 25 24 1 4 4 0.72093629D-01 0.12475329D-01 0.37272670D+05 0.37272670D+05 0.37272670D+05 0.12051272D+01  1  2 12  9  6  1       21 0.514387807885D-04 0.100000000000D+01
-.329366381199D-05 0.000000000000D+00 -.891280595650D-06 0.354830423487D-06 0.000000000000D+00  6 3 2 25 24 1 3 4 0.73838511D-01 0.12475329D-01 0.32038410D+05 0.32038410D+05 0.32038410D+05 0.12119134D+01  1  2  5  9  6  1       21 -.366932100185D-03 0.100000000000D+01
-.329366381199D-05 0.000000000000D+00 -.891280595650D-06 0.354830423487D-06 0.000000000000D+00  6 4 2 25 24 1 4 4 0.73838511D-01 0.12475329D-01 0.32038410D+05 0.32038410D+05 0.32038410D+05 0.12119134D+01  1  2  5  9  6  1       21 -.297850935150D-03 0.100000000000D+01
  </mgrwgt>
  </event>
  <event>
  5     66 0.42910585E-03 0.27658603E+02 0.75467711E-02 0.12216931E+00
       21 -1    0    0  501  502 0.00000000E+00 0.00000000E+00 0.25198589E+02 0.25209748E+02 0.75000000E+00 0.0000E+00 0.9000E+01
        2 -1    0    0  502    0 0.00000000E+00 0.00000000E+00 -.11649635E+04 0.11649635E+04 0.32000000E+00 0.0000E+00 0.9000E+01
       25  1    1    2    0    0 -.37272564E+02 0.56234599E+02 -.81822187E+03 0.83045987E+03 0.12500000E+03 0.0000E+00 0.9000E+01
       24  1    1    2    0    0 0.11953160E+02 -.45102736E+02 -.31860930E+03 0.33189793E+03 0.80419002E+02 0.0000E+00 0.9000E+01
        1  1    1    2  501    0 0.25319404E+02 -.11131863E+02 -.29337116E+01 0.27815457E+02 0.32000000E+00 0.0000E+00 0.9000E+01
#aMCatNLO 1  0  0  1  2 0.52869809D+01 0.00000000D+00  -5  6  0 0.00000000D+00 0.00000000D+00 0.00000000D+00 0.00000000D+00 0.00000000D+00
  <mgrwgt>
 0.4829354256D-01   41    2    0
 0.171353734282439D+03 0.000000000000000D+00 0.000000000000000D+00 0.171353734282439D+03
 0.171353734282439D+03 0.000000000000000D+00 0.000000000000000D+00 -.171353734282439D+03
 0.162852126815957D+03 -.372726455782383D+02 0.562346352093722D+02 -.796506804926889D+02
 0.930132887026210D+02 0.119531137239468D+02 -.451027158426531D+02 -.266908539126460D+01
 0.868420530463008D+02 0.253195318542915D+02 -.111319193667191D+02 0.823197658839535D+02
 0.000000000000000D+00 0.000000000000000D+00 0.000000000000000D+00 0.000000000000000D+00
 0.223523900879039D+03 0.000000000000000D+00 0.000000000000000D+00 0.223523900879039D+03
 0.171508123213926D+03 0.000000000000000D+00 0.000000000000000D+00 -.171508123213926D+03
 0.162336959551956D+03 -.383548253486343D+02 0.539718899622834D+02 -.796506804926889D+02
 0.935725042006931D+02 0.113321846122766D+02 -.464010254531688D+02 -.266908539126460D+01
 0.868387837657577D+02 0.247415484717532D+02 -.123404331344975D+02 0.823197658839535D+02
 0.522837765745586D+02 0.228109226460449D+01 0.476956862538278D+01 0.520157776651132D+02
0.179426234077D-06 0.000000000000D+00 0.000000000000D+00 0.267987462551D-05 0.000000000000D+00  6 21 2 25 24 1 21 2 0.38775677D-02 0.17922601D+00 0.17249919D+05 0.17249919D+05 0.17249919D+05 0.12409620D+01  1  2  2  1  6  1       21 0.304731174732D-02 0.100000000000D+01
0.235045381412D-07 0.946858250687D-08 -.362209871612D-09 0.267987462551D-05 0.000000000000D+00  6 21 2 25 24 1 21 4 0.38775677D-02 0.17922601D+00 0.17249919D+05 0.17249919D+05 0.17249919D+05 0.12409620D+01  1  2  3  1  6  1       21 0.614751505138D-03 0.100000000000D+01
0.155621500191D-07 0.000000000000D+00 0.000000000000D+00 0.267987462551D-05 0.000000000000D+00  6 21 2 25 24 1 21 4 0.38775677D-02 0.17922601D+00 0.17249919D+05 0.17249919D+05 0.17249919D+05 0.12409620D+01  1  2 15  1  6  1       21 0.407021618121D-03 0.100000000000D+01
0.114096695797D-04 0.000000000000D+00 0.000000000000D+00 0.267158825631D-05 0.000000000000D+00  6 21 2 25 24 1 21 4 0.50595029D-02 0.17922601D+00 0.17945700D+05 0.17945700D+05 0.17945700D+05 0.12390419D+01  1  2 12  1  6  1       21 0.190157369236D+00 0.100000000000D+01
0.103561987637D-04 0.000000000000D+00 0.000000000000D+00 0.267158825631D-05 0.000000000000D+00  6 21 2 25 24 1 21 4 0.52032065D-02 0.17922601D+00 0.17945700D+05 0.17945700D+05 0.17945700D+05 0.12390419D+01  1  2 12  1  6  1       21 0.164651743045D+00 0.100000000000D+01
-.306170529753D-04 0.000000000000D+00 0.000000000000D+00 0.267987462551D-05 0.000000000000D+00  6 21 2 25 24 1 21 4 0.38775677D-02 0.17922601D+00 0.17249919D+05 0.17249919D+05 0.17249919D+05 0.12409620D+01  1  2  4  1  6  1       21 -.800776398429D+00 0.100000000000D+01
-.446073564191D-04 0.000000000000D+00 -.274141671159D-06 0.267987462551D-05 0.000000000000D+00  6 21 2 25 24 1 21 4 0.50606253D-02 0.17922601D+00 0.17249919D+05 0.17249919D+05 0.17249919D+05 0.12409620D+01  1  2  5  1  6  1       21 -.747822009836D+00 0.100000000000D+01
0.361836223540D-04 0.000000000000D+00 0.238853564585D-06 0.267987462551D-05 0.000000000000D+00  6 21 2 25 24 1 21 4 0.38775677D-02 0.17922601D+00 0.17249919D+05 0.17249919D+05 0.17249919D+05 0.12409620D+01  1  2  6  1  6  1       21 0.946367725664D+00 0.100000000000D+01
0.175597519991D-04 0.000000000000D+00 0.000000000000D+00 0.267987462551D-05 0.199954491559D-05  6 21 2 25 24 1 21 4 0.50581277D-02 0.17938749D+00 0.17945700D+05 0.17945700D+05 0.17945700D+05 0.12390419D+01  1  2 11  1  6  1       21 0.292395227932D+00 0.100000000000D+01
0.122162033476D-05 0.000000000000D+00 0.000000000000D+00 0.267158825631D-05 0.000000000000D+00  6 -1 2 25 24 1 -1 4 0.50595029D-02 0.17922601D+00 0.17945700D+05 0.17945700D+05 0.17945700D+05 0.12390419D+01  1  2 12  4  6  1       21 0.116618712432D-02 0.100000000000D+01
0.126373871154D-05 0.000000000000D+00 0.000000000000D+00 0.267158825631D-05 0.000000000000D+00  6 -1 2 25 24 1 -1 4 0.52032065D-02 0.17922601D+00 0.17945700D+05 0.17945700D+05 0.17945700D+05 0.12390419D+01  1  2 12  4  6  1       21 0.115740547534D-02 0.100000000000D+01
-.475884984307D-05 0.000000000000D+00 -.222904849425D-07 0.267987462551D-05 0.000000000000D+00  6 -1 2 25 24 1 -1 4 0.50606253D-02 0.17922601D+00 0.17249919D+05 0.17249919D+05 0.17249919D+05 0.12409620D+01  1  2  5  4  6  1       21 -.456721312703D-02 0.100000000000D+01
0.257404105917D-05 0.000000000000D+00 0.000000000000D+00 0.267987462551D-05 0.289294270572D-06  6 -1 2 25 24 1 -1 4 0.50581277D-02 0.17938749D+00 0.17945700D+05 0.17945700D+05 0.17945700D+05 0.12390419D+01  1  2 11  4  6  1       21 0.245490869092D-02 0.100000000000D+01
0.122162033476D-05 0.000000000000D+00 0.000000000000D+00 0.267158825631D-05 0.000000000000D+00  6 1 2 25 24 1 1 4 0.50595029D-02 0.17922601D+00 0.17945700D+05 0.17945700D+05 0.17945700D+05 0.12390419D+01  1  2 12  5  6  1       21 0.131638057907D-02 0.100000000000D+01
0.126373871154D-05 0.000000000000D+00 0.000000000000D+00 0.267158825631D-05 0.000000000000D+00  6 1 2 25 24 1 1 4 0.52032065D-02 0.17922601D+00 0.17945700D+05 0.17945700D+05 0.17945700D+05 0.12390419D+01  1  2 12  5  6  1       21 0.131068556863D-02 0.100000000000D+01
-.475884984307D-05 0.000000000000D+00 -.222904849425D-07 0.267987462551D-05 0.000000000000D+00  6 1 2 25 24 1 1 4 0.50606253D-02 0.17922601D+00 0.17249919D+05 0.17249919D+05 0.17249919D+05 0.12409620D+01  1  2  5  5  6  1       21 -.515588189011D-02 0.100000000000D+01
0.224136713327D-05 0.000000000000D+00 0.000000000000D+00 0.267987462551D-05 0.115097892998D-06  6 1 2 25 24 1 1 4 0.50581277D-02 0.17938749D+00 0.17945700D+05 0.17945700D+05 0.17945700D+05 0.12390419D+01  1  2 11  5  6  1       21 0.241286307482D-02 0.100000000000D+01
0.122162033476D-05 0.000000000000D+00 0.000000000000D+00 0.267158825631D-05 0.000000000000D+00  6 -2 2 25 24 1 -2 4 0.50595029D-02 0.17922601D+00 0.17945700D+05 0.17945700D+05 0.17945700D+05 0.12390419D+01  1  2 12  6  6  1       21 0.113969523109D-02 0.100000000000D+01
0.126373871154D-05 0.000000000000D+00 0.000000000000D+00 0.267158825631D-05 0.000000000000D+00  6 -2 2 25 24 1 -2 4 0.52032065D-02 0.17922601D+00 0.17945700D+05 0.17945700D+05 0.17945700D+05 0.12390419D+01  1  2 12  6  6  1       21 0.113039291711D-02 0.100000000000D+01
-.475884984307D-05 0.000000000000D+00 -.222904849425D-07 0.267987462551D-05 0.000000000000D+00  6 -2 2 25 24 1 -2 4 0.50606253D-02 0.17922601D+00 0.17249919D+05 0.17249919D+05 0.17249919D+05 0.12409620D+01  1  2  5  6  6  1       21 -.446336898605D-02 0.100000000000D+01
0.216915199861D-05 0.000000000000D+00 0.000000000000D+00 0.267987462551D-05 0.219607438597D-06  6 -2 2 25 24 1 -2 4 0.50581277D-02 0.17938749D+00 0.17945700D+05 0.17945700D+05 0.17945700D+05 0.12390419D+01  1  2 11  6  6  1       21 0.202177580297D-02 0.100000000000D+01
0.122162033476D-05 0.000000000000D+00 0.000000000000D+00 0.267158825631D-05 0.000000000000D+00  6 2 2 25 24 1 2 4 0.50595029D-02 0.17922601D+00 0.17945700D+05 0.17945700D+05 0.17945700D+05 0.12390419D+01  1  2 12  7  6  1       21 0.141723280719D-02 0.100000000000D+01
0.126373871154D-05 0.000000000000D+00 0.000000000000D+00 0.267158825631D-05 0.000000000000D+00  6 2 2 25 24 1 2 4 0.52032065D-02 0.17922601D+00 0.17945700D+05 0.17945700D+05 0.17945700D+05 0.12390419D+01  1  2 12  7  6  1       21 0.141357589118D-02 0.100000000000D+01
-.475884984307D-05 0.000000000000D+00 -.222904849425D-07 0.267987462551D-05 0.000000000000D+00  6 2 2 25 24 1 2 4 0.50606253D-02 0.17922601D+00 0.17249919D+05 0.17249919D+05 0.17249919D+05 0.12409620D+01  1  2  5  7  6  1       21 -.555109258635D-02 0.100000000000D+01
0.216779557707D-05 0.000000000000D+00 0.000000000000D+00 0.267987462551D-05 0.219512644370D-06  6 2 2 25 24 1 2 4 0.50581277D-02 0.17938749D+00 0.17945700D+05 0.17945700D+05 0.17945700D+05 0.12390419D+01  1  2 11  7  6  1       21 0.251240950069D-02 0.100000000000D+01
0.122162033476D-05 0.000000000000D+00 0.000000000000D+00 0.267158825631D-05 0.000000000000D+00  6 -3 2 25 24 1 -3 4 0.50595029D-02 0.17922601D+00 0.17945700D+05 0.17945700D+05 0.17945700D+05 0.12390419D+01  1  2 12  8  6  1       21 0.827088798593D-03 0.100000000000D+01
0.122162033476D-05 0.000000000000D+00 0.000000000000D+00 0.267158825631D-05 0.000000000000D+00  6 -4 2 25 24 1 -4 4 0.50595029D-02 0.17922601D+00 0.17945700D+05 0.17945700D+05 0.17945700D+05 0.12390419D+01  1  2 12  8  6  1       21 0.736121053844D-03 0.100000000000D+01
0.126373871154D-05 0.000000000000D+00 0.000000000000D+00 0.267158825631D-05 0.000000000000D+00  6 -3 2 25 24 1 -3 4 0.52032065D-02 0.17922601D+00 0.17945700D+05 0.17945700D+05 0.17945700D+05 0.12390419D+01  1  2 12  8  6  1       21 0.818487942771D-03 0.100000000000D+01
0.126373871154D-05 0.000000000000D+00 0.000000000000D+00 0.267158825631D-05 0.000000000000D+00  6 -4 2 25 24 1 -4 4 0.52032065D-02 0.17922601D+00 0.17945700D+05 0.17945700D+05 0.17945700D+05 0.12390419D+01  1  2 12  8  6  1       21 0.727934251307D-03 0.100000000000D+01
-.475884984307D-05 0.000000000000D+00 -.222904849425D-07 0.267987462551D-05 0.000000000000D+00  6 -3 2 25 24 1 -3 4 0.50606253D-02 0.17922601D+00 0.17249919D+05 0.17249919D+05 0.17249919D+05 0.12409620D+01  1  2  5  8  6  1       21 -.323617149209D-02 0.100000000000D+01
-.475884984307D-05 0.000000000000D+00 -.222904849425D-07 0.267987462551D-05 0.000000000000D+00  6 -4 2 25 24 1 -4 4 0.50606253D-02 0.17922601D+00 0.17249919D+05 0.17249919D+05 0.17249919D+05 0.12409620D+01  1  2  5  8  6  1       21 -.287904826848D-02 0.100000000000D+01
0.216904175044D-05 0.000000000000D+00 0.000000000000D+00 0.267987462551D-05 0.219596276947D-06  6 -3 2 25 24 1 -3 4 0.50581277D-02 0.17938749D+00 0.17945700D+05 0.17945700D+05 0.17945700D+05 0.12390419D+01  1  2 11  8  6  1       21 0.146718147741D-02 0.100000000000D+01
0.216904175044D-05 0.000000000000D+00 0.000000000000D+00 0.267987462551D-05 0.219596276947D-06  6 -4 2 25 24 1 -4 4 0.50581277D-02 0.17938749D+00 0.17945700D+05 0.17945700D+05 0.17945700D+05 0.12390419D+01  1  2 11  8  6  1       21 0.130582205243D-02 0.100000000000D+01
0.122162033476D-05 0.000000000000D+00 0.000000000000D+00 0.267158825631D-05 0.000000000000D+00  6 3 2 25 24 1 3 4 0.50595029D-02 0.17922601D+00 0.17945700D+05 0.17945700D+05 0.17945700D+05 0.12390419D+01  1  2 12  9  6  1       21 0.827005920169D-03 0.100000000000D+01
0.122162033476D-05 0.000000000000D+00 0.000000000000D+00 0.267158825631D-05 0.000000000000D+00  6 4 2 25 24 1 4 4 0.50595029D-02 0.17922601D+00 0.17945700D+05 0.17945700D+05 0.17945700D+05 0.12390419D+01  1  2 12  9  6  1       21 0.736121053844D-03 0.100000000000D+01
0.126373871154D-05 0.000000000000D+00 0.000000000000D+00 0.267158825631D-05 0.000000000000D+00  6 3 2 25 24 1 3 4 0.52032065D-02 0.17922601D+00 0.17945700D+05 0.17945700D+05 0.17945700D+05 0.12390419D+01  1  2 12  9  6  1       21 0.818404780103D-03 0.100000000000D+01
0.126373871154D-05 0.000000000000D+00 0.000000000000D+00 0.267158825631D-05 0.000000000000D+00  6 4 2 25 24 1 4 4 0.52032065D-02 0.17922601D+00 0.17945700D+05 0.17945700D+05 0.17945700D+05 0.12390419D+01  1  2 12  9  6  1       21 0.727934251307D-03 0.100000000000D+01
-.475884984307D-05 0.000000000000D+00 -.222904849425D-07 0.267987462551D-05 0.000000000000D+00  6 3 2 25 24 1 3 4 0.50606253D-02 0.17922601D+00 0.17249919D+05 0.17249919D+05 0.17249919D+05 0.12409620D+01  1  2  5  9  6  1       21 -.323584608152D-02 0.100000000000D+01
-.475884984307D-05 0.000000000000D+00 -.222904849425D-07 0.267987462551D-05 0.000000000000D+00  6 4 2 25 24 1 4 4 0.50606253D-02 0.17922601D+00 0.17249919D+05 0.17249919D+05 0.17249919D+05 0.12409620D+01  1  2  5  9  6  1       21 -.287904826848D-02 0.100000000000D+01
0.216904175044D-05 0.000000000000D+00 0.000000000000D+00 0.267987462551D-05 0.219596276947D-06  6 3 2 25 24 1 3 4 0.50581277D-02 0.17938749D+00 0.17945700D+05 0.17945700D+05 0.17945700D+05 0.12390419D+01  1  2 11  9  6  1       21 0.146703447848D-02 0.100000000000D+01
0.216904175044D-05 0.000000000000D+00 0.000000000000D+00 0.267987462551D-05 0.219596276947D-06  6 4 2 25 24 1 4 4 0.50581277D-02 0.17938749D+00 0.17945700D+05 0.17945700D+05 0.17945700D+05 0.12390419D+01  1  2 11  9  6  1       21 0.130582205243D-02 0.100000000000D+01
  </mgrwgt>
  </event>
  <event>
  6     66 0.42910585E-03 0.21593296E+02 0.75467711E-02 0.11874036E+00
       21 -1    0    0  501  502 0.00000000E+00 0.00000000E+00 0.92165282E+02 0.92168333E+02 0.75000000E+00 0.0000E+00 0.9000E+01
        2 -1    0    0  502    0 -.00000000E+00 -.00000000E+00 -.28903545E+03 0.28903562E+03 0.32000000E+00 0.0000E+00 0.9000E+01
       25  1    1    2    0    0 0.10155030E+03 0.17385011E+02 -.88367540E+02 0.18452242E+03 0.12500000E+03 0.0000E+00 0.9000E+01
       24  1    1    2    0    0 -.82900721E+02 -.31084701E+02 -.73045932E+02 0.14014889E+03 0.80419002E+02 0.0000E+00 0.9000E+01
        1  1    1    2  503    0 -.27858995E+02 0.51656956E+01 -.13868426E+02 0.31547482E+02 0.32000000E+00 0.0000E+00 0.9000E+01
       21  1    1    2  501  503 0.92094110E+01 0.85339938E+01 -.21588267E+02 0.24985157E+02 0.75000000E+00 0.0000E+00 0.9000E+01
#aMCatNLO 2  0  0  5  1 0.16456093D+02 0.00000000D+00  -5  6  0 0.00000000D+00 0.00000000D+00 0.00000000D+00 0.00000000D+00 0.00000000D+00
  <mgrwgt>
 0.1380757780D+00    2    2    0
 0.163216570075457D+03 0.000000000000000D+00 0.000000000000000D+00 0.163216570075457D+03
 0.163216570075457D+03 -.000000000000000D+00 -.000000000000000D+00 -.163216570075457D+03
 0.167080607085693D+03 0.109697928576635D+03 0.113998954493834D+02 0.112843304569756D+02
 0.116867680463855D+03 -.770491782146570D+02 -.353831515543775D+02 0.151509245827449D+01
 0.424848526013673D+02 -.326487503619777D+02 0.239832561049941D+02 -.127994229152501D+02
 0.000000000000000D+00 0.000000000000000D+00 0.000000000000000D+00 0.000000000000000D+00
 0.163216570075457D+03 0.000000000000000D+00 0.000000000000000D+00 0.163216570075457D+03
 0.163216570075457D+03 -.000000000000000D+00 -.000000000000000D+00 -.163216570075457D+03
 0.162128871020095D+03 0.101444802468369D+03 0.174625114737892D+02 0.804882372972253D+01
 0.119649567029710D+03 -.829785538862683D+02 -.310275258811639D+02 -.809424896997109D+00
 0.281561401849718D+02 -.275825456964025D+02 0.464411637698428D+01 0.322545905239517D+01
 0.164985619161374D+02 0.911629711430180D+01 0.892089803039037D+01 -.104648578851206D+02
-.699508594285D-05 0.000000000000D+00 0.000000000000D+00 0.245227155426D-06 0.000000000000D+00  6 21 2 25 24 1 21 4 0.14179522D-01 0.44467240D-01 0.25969571D+05 0.25969571D+05 0.25969571D+05 0.12215299D+01  1  2 13  3  6  5        1 -.953958989270D-01 0.100000000000D+01
0.171197552911D-04 0.000000000000D+00 0.000000000000D+00 0.245023882575D-06 0.262487971085D-07  6 21 2 25 24 1 21 4 0.14179522D-01 0.44467240D-01 0.25969571D+05 0.25969571D+05 0.25969571D+05 0.12215299D+01  1  2  1  3  6  5        1 0.233471676938D+00 0.100000000000D+01
  </mgrwgt>
  </event>
  <event>
  5     66 0.42910585E-03 0.21768444E+02 0.75467711E-02 0.11674372E+00
       21 -1    0    0  501  502 0.00000000E+00 0.00000000E+00 0.12188545E+02 0.12211599E+02 0.75000000E+00 0.0000E+00 0.9000E+01
        2 -1    0    0  502    0 0.00000000E+00 0.00000000E+00 -.28496311E+04 0.28496311E+04 0.32000000E+00 0.0000E+00 0.9000E+01
       25  1    1    2    0    0 -.81550517E+02 -.11579553E+03 -.14239604E+04 0.14364356E+04 0.12500000E+03 0.0000E+00 0.9000E+01
       24  1    1    2    0    0 0.68816738E+02 0.98140984E+02 -.13603723E+04 0.13680086E+04 0.80419002E+02 0.0000E+00 0.9000E+01
        1  1    1    2  501    0 0.12733779E+02 0.17654545E+02 -.53109788E+02 0.57398468E+02 0.32000000E+00 0.0000E+00 0.9000E+01
#aMCatNLO 1  0  0  2  1 0.54526837D+01 0.00000000D+00  -5  6  0 0.00000000D+00 0.00000000D+00 0.00000000D+00 0.00000000D+00 0.00000000D+00
  <mgrwgt>
 0.2223849884D+00   11    2    0
 0.186456081548866D+03 0.000000000000000D+00 0.000000000000000D+00 0.186456081548866D+03
 0.186456081548866D+03 0.000000000000000D+00 0.000000000000000D+00 -.186456081548866D+03
 0.188910760081654D+03 -.815507659885355D+02 -.115795875178190D+03 0.175018085591283D+01
 0.147613847615868D+03 0.688165430770013D+02 0.981407139365733D+02 -.309081820969981D+02
 0.363875554002088D+02 0.127342229115342D+02 0.176551612416168D+02 0.291580012410853D+02
 0.000000000000000D+00 -.000000000000000D+00 -.000000000000000D+00 -.000000000000000D+00
 0.187582376889956D+03 0.000000000000000D+00 0.000000000000000D+00 0.187582376889956D+03
 0.193194360300329D+03 0.000000000000000D+00 0.000000000000000D+00 -.193194360300329D+03
 0.186860618552340D+03 -.799166202173798D+02 -.113587681751877D+03 0.175018085591283D+01
 0.149381689531023D+03 0.701081103135614D+02 0.998859868074238D+02 -.309081820969981D+02
 0.367097171762254D+02 0.130521066186383D+02 0.180847120961056D+02 0.291580012410853D+02
 0.782471193069562D+01 -.324359671481987D+01 -.438301715165203D+01 -.561198341037323D+01
0.274478733191D-05 0.000000000000D+00 0.000000000000D+00 0.108318611403D-05 0.000000000000D+00  6 21 2 25 24 1 21 2 0.18769355D-02 0.43840655D+00 0.31508525D+05 0.31508525D+05 0.31508525D+05 0.12126685D+01  1  2  2  2  6  2        2 0.185794446497D-01 0.100000000000D+01
0.368284800633D-06 0.144846406935D-06 -.554093481485D-08 0.108318611403D-05 0.000000000000D+00  6 21 2 25 24 1 21 4 0.18769355D-02 0.43840655D+00 0.31508525D+05 0.31508525D+05 0.31508525D+05 0.12126685D+01  1  2  3  2  6  2        2 0.366599631944D-02 0.100000000000D+01
0.273740473891D-06 0.000000000000D+00 0.000000000000D+00 0.108318611403D-05 0.000000000000D+00  6 21 2 25 24 1 21 4 0.18769355D-02 0.43840655D+00 0.31508525D+05 0.31508525D+05 0.31508525D+05 0.12126685D+01  1  2 15  2  6  2        2 0.272487913713D-02 0.100000000000D+01
0.120566964987D-04 0.000000000000D+00 0.000000000000D+00 0.108059330637D-05 0.000000000000D+00  6 21 2 25 24 1 21 4 0.18769355D-02 0.45554515D+00 0.32536411D+05 0.32536411D+05 0.32536411D+05 0.12112163D+01  1  2 12  2  6  2        2 0.102975096456D+00 0.100000000000D+01
-.257333267266D-04 0.000000000000D+00 0.000000000000D+00 0.108318611403D-05 0.000000000000D+00  6 21 2 25 24 1 21 4 0.18769355D-02 0.43840655D+00 0.31508525D+05 0.31508525D+05 0.31508525D+05 0.12126685D+01  1  2  4  2  6  2        2 -.256155781896D+00 0.100000000000D+01
-.160769213137D-03 0.000000000000D+00 -.174064663217D-04 0.108318611403D-05 0.000000000000D+00  6 21 2 25 24 1 21 4 0.18769355D-02 0.45504284D+00 0.31508525D+05 0.31508525D+05 0.31508525D+05 0.12126685D+01  1  2  5  2  6  2        2 -.138725458183D+01 0.100000000000D+01
0.161317679585D-03 0.000000000000D+00 0.173944003319D-04 0.108318611403D-05 0.000000000000D+00  6 21 2 25 24 1 21 4 0.18769355D-02 0.43840655D+00 0.31508525D+05 0.31508525D+05 0.31508525D+05 0.12126685D+01  1  2  6  2  6  2        2 0.160579534807D+01 0.100000000000D+01
0.155280423009D-04 0.000000000000D+00 0.000000000000D+00 0.108318611403D-05 0.285003964718D-06  6 21 2 25 24 1 21 4 0.18882732D-02 0.45424999D+00 0.32536411D+05 0.32536411D+05 0.32536411D+05 0.12112163D+01  1  2 11  2  6  2        2 0.132818746808D+00 0.100000000000D+01
0.256196684712D-06 0.000000000000D+00 0.000000000000D+00 0.108059330637D-05 0.000000000000D+00  6 21 21 25 24 1 -2 4 0.18769355D-02 0.45554515D+00 0.32536411D+05 0.32536411D+05 0.32536411D+05 0.12112163D+01  1  2 12 10  6  2        2 0.292888813834D-03 0.100000000000D+01
-.105392927927D-05 0.000000000000D+00 -.115044148151D-06 0.108318611403D-05 0.000000000000D+00  6 21 21 25 24 1 -2 4 0.18769355D-02 0.45504284D+00 0.31508525D+05 0.31508525D+05 0.31508525D+05 0.12126685D+01  1  2  5 10  6  2        2 -.122537779194D-02 0.100000000000D+01
0.145764414806D-06 0.000000000000D+00 0.000000000000D+00 0.108318611403D-05 0.176630446221D-08  6 21 21 25 24 1 -2 4 0.18882732D-02 0.45424999D+00 0.32536411D+05 0.32536411D+05 0.32536411D+05 0.12112163D+01  1  2 11 10  6  2        2 0.168329670942D-03 0.100000000000D+01
  </mgrwgt>
  </event>
  <event>
  5     66 0.42910585E-03 0.88777048E+02 0.75467711E-02 0.11105906E+00
       21 -1    0    0  501  502 0.00000000E+00 0.00000000E+00 0.30702233E+02 0.30711392E+02 0.75000000E+00 0.0000E+00 0.9000E+01
        2 -1    0    0  502    0 0.00000000E+00 0.00000000E+00 -.23479475E+04 0.23479475E+04 0.32000000E+00 0.0000E+00 0.9000E+01
       25  1    1    2    0    0 -.18889776E+03 -.10135933E+03 -.77976280E+03 0.81829769E+03 0.12500000E+03 0.0000E+00 0.9000E+01
       24  1    1    2    0    0 0.11440651E+03 0.49514823E+02 -.58318793E+03 0.60176070E+03 0.80419002E+02 0.0000E+00 0.9000E+01
        1  1    1    2  501    0 0.74491250E+02 0.51844506E+02 -.95429454E+03 0.95860053E+03 0.32000000E+00 0.0000E+00 0.9000E+01
#aMCatNLO 1  0  0  2  1 0.21952399D+02 0.00000000D+00  -5  6  0 0.00000000D+00 0.00000000D+00 0.00000000D+00 0.00000000D+00 0.00000000D+00
  <mgrwgt>
 0.2497349132D+00    9    2    0
 0.268510986205862D+03 0.000000000000000D+00 0.000000000000000D+00 0.268510986205862D+03
 0.268510986205862D+03 0.000000000000000D+00 0.000000000000000D+00 -.268510986205862D+03
 0.259858095369971D+03 -.188897872348010D+03 -.101359407147443D+03 0.771044365417630D+02
 0.148958450635914D+03 0.114406445317204D+03 0.495147785401783D+02 0.134482726578625D+02
 0.128205426405840D+03 0.744914270308065D+02 0.518446286072650D+02 -.905527091996255D+02
 0.000000000000000D+00 0.000000000000000D+00 0.000000000000000D+00 -.000000000000000D+00
 0.272097414500764D+03 0.000000000000000D+00 0.000000000000000D+00 0.272097414500764D+03
 0.304568232708678D+03 0.000000000000000D+00 0.000000000000000D+00 -.304568232708678D+03
 0.266750820151504D+03 -.192824409988228D+03 -.111376177119567D+03 0.771044365417630D+02
 0.145491597156365D+03 0.112210946605080D+03 0.439139649001448D+02 0.134482726578625D+02
 0.125228053223068D+03 0.726017588772225D+02 0.470240021540199D+02 -.905527091996255D+02
 0.391951766785048D+02 0.801170450592616D+01 0.204382100654020D+02 -.324708182079144D+02
0.592164819333D-05 0.000000000000D+00 0.000000000000D+00 0.462576813572D-07 0.000000000000D+00  6 21 2 25 24 1 21 2 0.47241266D-02 0.36122340D+00 0.59356219D+05 0.59356219D+05 0.59356219D+05 0.11849737D+01  1  2  2  2  6  2        2 0.152961465913D-01 0.100000000000D+01
-.641501596073D-06 0.312493960449D-06 -.119541015999D-07 0.462576813572D-07 0.000000000000D+00  6 21 2 25 24 1 21 4 0.47241266D-02 0.36122340D+00 0.59356219D+05 0.59356219D+05 0.59356219D+05 0.11849737D+01  1  2  3  2  6  2        2 -.232677603092D-02 0.100000000000D+01
0.566874343619D-06 0.000000000000D+00 0.000000000000D+00 0.462576813572D-07 0.000000000000D+00  6 21 2 25 24 1 21 4 0.47241266D-02 0.36122340D+00 0.59356219D+05 0.59356219D+05 0.59356219D+05 0.11849737D+01  1  2 15  2  6  2        2 0.205609719968D-02 0.100000000000D+01
0.708820455256D-04 0.000000000000D+00 0.000000000000D+00 0.459759090322D-07 0.000000000000D+00  6 21 2 25 24 1 21 4 0.47241266D-02 0.41193807D+00 0.64690239D+05 0.64690239D+05 0.64690239D+05 0.11813591D+01  1  2 12  2  6  2        2 0.166957059511D+00 0.100000000000D+01
-.188143625106D-04 0.000000000000D+00 0.000000000000D+00 0.462576813572D-07 0.000000000000D+00  6 21 2 25 24 1 21 4 0.47241266D-02 0.36122340D+00 0.59356219D+05 0.59356219D+05 0.59356219D+05 0.11849737D+01  1  2  4  2  6  2        2 -.682411516896D-01 0.100000000000D+01
-.109069570431D-03 0.000000000000D+00 -.129156494733D-04 0.462576813572D-07 0.000000000000D+00  6 21 2 25 24 1 21 4 0.47241266D-02 0.41134438D+00 0.59356219D+05 0.59356219D+05 0.59356219D+05 0.11849737D+01  1  2  5  2  6  2        2 -.262420902416D+00 0.100000000000D+01
0.109926772652D-03 0.000000000000D+00 0.128073844555D-04 0.462576813572D-07 0.000000000000D+00  6 21 2 25 24 1 21 4 0.47241266D-02 0.36122340D+00 0.59356219D+05 0.59356219D+05 0.59356219D+05 0.11849737D+01  1  2  6  2  6  2        2 0.398712928118D+00 0.100000000000D+01
0.145051833379D-05 0.000000000000D+00 0.000000000000D+00 0.459759090322D-07 0.000000000000D+00  6 21 21 25 24 1 -2 4 0.47241266D-02 0.41193807D+00 0.64690239D+05 0.64690239D+05 0.64690239D+05 0.11813591D+01  1  2 12 10  6  2        2 0.566982255393D-03 0.100000000000D+01
-.214253411236D-05 0.000000000000D+00 -.261895368128D-06 0.462576813572D-07 0.000000000000D+00  6 21 21 25 24 1 -2 4 0.47241266D-02 0.41134438D+00 0.59356219D+05 0.59356219D+05 0.59356219D+05 0.11849737D+01  1  2  5 10  6  2        2 -.865470298002D-03 0.100000000000D+01
  </mgrwgt>
  </event>
  <event>
  5     66 0.42910585E-03 0.45140102E+02 0.75467711E-02 0.11909160E+00
       21 -1    0    0  501  502 0.00000000E+00 0.00000000E+00 0.13849011E+02 0.13869304E+02 0.75000000E+00 0.0000E+00 0.9000E+01
        2 -1    0    0  502    0 0.00000000E+00 0.00000000E+00 -.40752687E+04 0.40752687E+04 0.32000000E+00 0.0000E+00 0.9000E+01
       25  1    1    2    0    0 0.64168548E+02 -.14900419E+02 -.40710244E+03 0.43092577E+03 0.12500000E+03 0.0000E+00 0.9000E+01
       24  1    1    2    0    0 -.72795934E+02 0.59207903E+02 -.27139855E+04 0.27167976E+04 0.80419002E+02 0.0000E+00 0.9000E+01
        1  1    1    2  501    0 0.86273857E+01 -.44307484E+02 -.94033172E+03 0.94141459E+03 0.32000000E+00 0.0000E+00 0.9000E+01
#aMCatNLO 1  0  0  2  1 0.59697361D+01 0.00000000D+00  -5  6  0 0.00000000D+00 0.00000000D+00 0.00000000D+00 0.00000000D+00 0.00000000D+00
  <mgrwgt>
 0.2764407116D+00   11    2    0
 0.237655122985401D+03 0.000000000000000D+00 0.000000000000000D+00 0.237655122985401D+03
 0.237655122985401D+03 0.000000000000000D+00 0.000000000000000D+00 -.237655122985401D+03
 0.228695219625125D+03 0.641684965592593D+02 -.149001532882775D+02 0.179824617226603D+03
 0.182462447371557D+03 -.727959751497270D+02 0.592081141699309D+02 -.134240358927144D+03
 0.641525789741213D+02 0.862747859046771D+01 -.443079608816534D+02 -.455842582994586D+02
 0.000000000000000D+00 -.000000000000000D+00 -.000000000000000D+00 -.000000000000000D+00
 0.238362833632882D+03 0.000000000000000D+00 0.000000000000000D+00 0.238362833632882D+03
 0.250605455988473D+03 0.000000000000000D+00 0.000000000000000D+00 -.250605455988473D+03
 0.228962196386289D+03 0.656306947245351D+02 -.124260340943639D+02 0.179824617226603D+03
 0.182651848334549D+03 -.716294487598562D+02 0.611819405635935D+02 -.134240358927144D+03
 0.637336887056931D+02 0.903607038735170D+01 -.436166012348195D+02 -.455842582994586D+02
 0.136205561948240D+02 -.303731635203055D+01 -.513930523441009D+01 -.122426223555908D+02
0.103378073354D-04 0.000000000000D+00 0.000000000000D+00 0.436293674219D-07 0.000000000000D+00  6 21 2 25 24 1 21 2 0.21321791D-02 0.62696597D+00 0.24027558D+05 0.24027558D+05 0.24027558D+05 0.12251493D+01  1  2  2  2  6  2        2 0.929301332093D-02 0.100000000000D+01
-.635055853839D-06 0.545541080984D-06 -.208690545558D-07 0.436293674219D-07 0.000000000000D+00  6 21 2 25 24 1 21 4 0.21321791D-02 0.62696597D+00 0.24027558D+05 0.24027558D+05 0.24027558D+05 0.12251493D+01  1  2  3  2  6  2        2 -.856876168900D-03 0.100000000000D+01
0.136115234577D-05 0.000000000000D+00 0.000000000000D+00 0.436293674219D-07 0.000000000000D+00  6 21 2 25 24 1 21 4 0.21321791D-02 0.62696597D+00 0.24027558D+05 0.24027558D+05 0.24027558D+05 0.12251493D+01  1  2 15  2  6  2        2 0.183659279775D-02 0.100000000000D+01
0.134414910330D-03 0.000000000000D+00 0.000000000000D+00 0.435002628723D-07 0.000000000000D+00  6 21 2 25 24 1 21 4 0.21321791D-02 0.66203547D+00 0.24979817D+05 0.24979817D+05 0.24979817D+05 0.12233353D+01  1  2 12  2  6  2        2 0.117794772310D+00 0.100000000000D+01
-.568015981492D-04 0.000000000000D+00 0.000000000000D+00 0.436293674219D-07 0.000000000000D+00  6 21 2 25 24 1 21 4 0.21321791D-02 0.62696597D+00 0.24027558D+05 0.24027558D+05 0.24027558D+05 0.12251493D+01  1  2  4  2  6  2        2 -.766419764738D-01 0.100000000000D+01
-.419510606000D-03 0.000000000000D+00 -.305524642523D-04 0.436293674219D-07 0.000000000000D+00  6 21 2 25 24 1 21 4 0.21321791D-02 0.66145964D+00 0.24027558D+05 0.24027558D+05 0.24027558D+05 0.12251493D+01  1  2  5  2  6  2        2 -.373529494562D+00 0.100000000000D+01
0.432528339983D-03 0.000000000000D+00 0.317580596608D-04 0.436293674219D-07 0.000000000000D+00  6 21 2 25 24 1 21 4 0.21321791D-02 0.62696597D+00 0.24027558D+05 0.24027558D+05 0.24027558D+05 0.12251493D+01  1  2  6  2  6  2        2 0.583607291650D+00 0.100000000000D+01
0.169670882563D-04 0.000000000000D+00 0.000000000000D+00 0.436293674219D-07 0.151474075710D-07  6 21 2 25 24 1 21 4 0.21385285D-02 0.66113068D+00 0.24979817D+05 0.24979817D+05 0.24979817D+05 0.12233353D+01  1  2 11  2  6  2        2 0.149668147635D-01 0.100000000000D+01
0.214967148501D-05 0.000000000000D+00 0.000000000000D+00 0.435002628723D-07 0.000000000000D+00  6 21 21 25 24 1 -2 4 0.21321791D-02 0.66203547D+00 0.24979817D+05 0.24979817D+05 0.24979817D+05 0.12233353D+01  1  2 12 10  6  2        2 0.607006098158D-04 0.100000000000D+01
-.386342822270D-05 0.000000000000D+00 -.283605194580D-06 0.436293674219D-07 0.000000000000D+00  6 21 21 25 24 1 -2 4 0.21321791D-02 0.66145964D+00 0.24027558D+05 0.24027558D+05 0.24027558D+05 0.12251493D+01  1  2  5 10  6  2        2 -.111692696734D-03 0.100000000000D+01
0.754013321355D-06 0.000000000000D+00 0.000000000000D+00 0.436293674219D-07 0.110045212794D-09  6 21 21 25 24 1 -2 4 0.21385285D-02 0.66113068D+00 0.24979817D+05 0.24979817D+05 0.24979817D+05 0.12233353D+01  1  2 11 10  6  2        2 0.215660415697D-04 0.100000000000D+01
  </mgrwgt>
  </event>
  <event>
  6     66 -.42910585E-03 0.34154577E+02 0.75467711E-02 0.12308714E+00
       21 -1    0    0  501  502 0.00000000E+00 0.00000000E+00 0.27503142E+02 0.27513366E+02 0.75000000E+00 0.0000E+00 0.9000E+01
        2 -1    0    0  503    0 0.00000000E+00 0.00000000E+00 -.60809878E+03 0.60809887E+03 0.32000000E+00 0.0000E+00 0.9000E+01
       25  1    1    2    0    0 -.19418938E+02 0.15452575E+02 -.29049515E+03 0.31721965E+03 0.12500000E+03 0.0000E+00 0.9000E+01
       24  1    1    2    0    0 0.12761173E+00 0.21715736E+02 -.15600415E+03 0.17685050E+03 0.80419002E+02 0.0000E+00 0.9000E+01
        1  1    1    2  501    0 0.12441025E+02 -.35558369E+02 -.10365234E+03 0.11028639E+03 0.32000000E+00 0.0000E+00 0.9000E+01
       21  1    1    2  503  502 0.68503015E+01 -.16099418E+01 -.30443997E+02 0.31255688E+02 0.75000000E+00 0.0000E+00 0.9000E+01
#aMCatNLO 2  0  0  2  1 0.70369413D+01 0.00000000D+00  -5  6  0 0.00000000D+00 0.00000000D+00 0.00000000D+00 0.00000000D+00 0.00000000D+00
  <mgrwgt>
 -.2706439695D+00    3    2    0
 0.125030481102838D+03 0.000000000000000D+00 0.000000000000000D+00 0.125030481102838D+03
 0.125030481102838D+03 0.000000000000000D+00 0.000000000000000D+00 -.125030481102838D+03
 0.126927092789615D+03 -.159347952257931D+02 0.146342953891057D+02 -.417211979692792D+01
 0.840625410021102D+02 0.243126464556065D+01 0.211747046722172D+02 0.120422456223314D+02
 0.390713284139505D+02 0.135035305802325D+02 -.358090000613229D+02 -.787012582540348D+01
 0.000000000000000D+00 0.000000000000000D+00 -.000000000000000D+00 -.000000000000000D+00
 0.126936656152907D+03 0.000000000000000D+00 0.000000000000000D+00 0.126936656152907D+03
 0.131747603053684D+03 0.000000000000000D+00 0.000000000000000D+00 -.131747603053684D+03
 0.127508084925835D+03 -.194191710436770D+02 0.154531852325199D+02 -.417211979692792D+01
 0.841655430001887D+02 0.127456370896268D+00 0.217161402968170D+02 0.120422456223314D+02
 0.384863276262914D+02 0.124414132125601D+02 -.355593837253247D+02 -.787012582540348D+01
 0.852430365427593D+01 0.685030146022064D+01 -.160994180401209D+01 -.481094690077694D+01
-.657176979617D-05 0.000000000000D+00 0.000000000000D+00 0.527819730506D-06 0.000000000000D+00  6 21 2 25 24 1 21 4 0.41679579D-02 0.94194861D-01 0.16313599D+05 0.16313599D+05 0.16313599D+05 0.12436875D+01  1  2 13  2  6  2        2 -.351293676665D+00 0.100000000000D+01
-.492699969238D-06 0.000000000000D+00 0.000000000000D+00 0.530183766425D-06 0.000000000000D+00  6 21 2 25 24 1 21 4 0.41679579D-02 0.88773179D-01 0.15416266D+05 0.15416266D+05 0.15416266D+05 0.12464696D+01  1  2  8  2  6  2        2 -.283820073162D-01 0.100000000000D+01
0.207520723297D-05 0.000000000000D+00 0.000000000000D+00 0.530183766425D-06 0.135259039924D-06  6 21 2 25 24 1 21 4 0.42315012D-02 0.93542418D-01 0.16313599D+05 0.16313599D+05 0.16313599D+05 0.12436875D+01  1  2  1  2  6  2        2 0.109031714455D+00 0.100000000000D+01
  </mgrwgt>
  </event>
  <event>
  6     66 0.42910585E-03 0.18091009E+02 0.75467711E-02 0.11086135E+00
       21 -1    0    0  501  502 0.00000000E+00 0.00000000E+00 0.25667821E+02 0.25678776E+02 0.75000000E+00 0.0000E+00 0.9000E+01
        2 -1    0    0  502    0 -.00000000E+00 -.00000000E+00 -.35929232E+04 0.35929232E+04 0.32000000E+00 0.0000E+00 0.9000E+01
       25  1    1    2    0    0 0.15106671E+03 0.15136031E+03 -.26383329E+04 0.26499352E+04 0.12500000E+03 0.0000E+00 0.9000E+01
       24  1    1    2    0    0 -.17627390E+03 -.13464897E+03 -.78284671E+03 0.81763013E+03 0.80419002E+02 0.0000E+00 0.9000E+01
        1  1    1    2  503    0 0.16570738E+02 -.15762561E+02 -.55307079E+02 0.59850005E+02 0.32000000E+00 0.0000E+00 0.9000E+01
       21  1    1    2  501  503 0.86364560E+01 -.94878856E+00 -.90768722E+02 0.91186688E+02 0.75000000E+00 0.0000E+00 0.9000E+01
#aMCatNLO 2  0  0  5  1 0.94089689D+01 0.00000000D+00  -5  6  0 0.00000000D+00 0.00000000D+00 0.00000000D+00 0.00000000D+00 0.00000000D+00
  <mgrwgt>
 0.6154412638D-01    3    2    0
 0.303714264219090D+03 0.000000000000000D+00 0.000000000000000D+00 0.303714264219090D+03
 0.303714264219090D+03 -.000000000000000D+00 -.000000000000000D+00 -.303714264219090D+03
 0.292623057718583D+03 0.148486425042731D+03 0.153070939426404D+03 -.156602436091271D+03
 0.273364623900438D+03 -.178686473442475D+03 -.133049530078421D+03 0.136491642236660D+03
 0.414408468191591D+02 0.302000483997439D+02 -.200214093479825D+02 0.201107938546109D+02
 0.000000000000000D+00 0.000000000000000D+00 0.000000000000000D+00 0.000000000000000D+00
 0.303714264219090D+03 0.000000000000000D+00 0.000000000000000D+00 0.303714264219090D+03
 0.303714264219090D+03 -.000000000000000D+00 -.000000000000000D+00 -.303714264219090D+03
 0.292131556081478D+03 0.151108303111451D+03 0.151332740421571D+03 -.154856476990345D+03
 0.273389019184847D+03 -.176234981223402D+03 -.134674770163529D+03 0.138124138118832D+03
 0.315246979682203D+02 0.162480749444753D+02 -.156493568067491D+02 0.220205420941738D+02
 0.103832552036342D+02 0.887860316747563D+01 -.100861345129283D+01 -.528820322266077D+01
-.154133003821D-04 0.000000000000D+00 0.000000000000D+00 0.152357236029D-06 0.000000000000D+00  6 21 2 25 24 1 21 4 0.39497393D-02 0.55275826D+00 0.66341116D+05 0.66341116D+05 0.66341116D+05 0.11803071D+01  1  2 13  3  6  5        1 -.134843873422D-01 0.100000000000D+01
-.142708530373D-03 0.000000000000D+00 0.000000000000D+00 0.152143758580D-06 0.000000000000D+00  6 21 2 25 24 1 21 4 0.39497393D-02 0.55275826D+00 0.67671972D+05 0.67671972D+05 0.67671972D+05 0.11794799D+01  1  2  8  3  6  5        1 -.124337033860D+00 0.100000000000D+01
0.227884366773D-03 0.000000000000D+00 0.000000000000D+00 0.152143758580D-06 0.317895461401D-07  6 21 2 25 24 1 21 4 0.39497393D-02 0.55275826D+00 0.66341116D+05 0.66341116D+05 0.66341116D+05 0.11803071D+01  1  2  1  3  6  5        1 0.199365547587D+00 0.100000000000D+01
  </mgrwgt>
  </event>
  <event>
  5     66 0.42910585E-03 0.41278172E+02 0.75467711E-02 0.12230756E+00
       21 -1    0    0  501  502 0.00000000E+00 0.00000000E+00 0.12608832E+02 0.12631119E+02 0.75000000E+00 0.0000E+00 0.9000E+01
        2 -1    0    0  502    0 0.00000000E+00 0.00000000E+00 -.18361570E+04 0.18361570E+04 0.32000000E+00 0.0000E+00 0.9000E+01
       25  1    1    2    0    0 -.15642945E+02 -.14635566E+02 -.77987610E+03 0.79012065E+03 0.12500000E+03 0.0000E+00 0.9000E+01
       24  1    1    2    0    0 0.10449334E+01 -.23974800E+02 -.24587118E+03 0.25979942E+03 0.80419002E+02 0.0000E+00 0.9000E+01
        1  1    1    2  501    0 0.14598011E+02 0.38610366E+02 -.79780088E+03 0.79886808E+03 0.32000000E+00 0.0000E+00 0.9000E+01
#aMCatNLO 1  0  0  2  1 0.13106403D+02 0.00000000D+00  -5  6  0 0.00000000D+00 0.00000000D+00 0.00000000D+00 0.00000000D+00 0.00000000D+00
  <mgrwgt>
 0.2158468949D+00    9    2    0
 0.152224908755464D+03 0.000000000000000D+00 0.000000000000000D+00 0.152224908755464D+03
 0.152224908755464D+03 0.000000000000000D+00 0.000000000000000D+00 -.152224908755464D+03
 0.126865093632320D+03 -.156430037348681D+02 -.146357222377976D+02 -.329303068105349D+01
 0.104963716329645D+03 0.104488455103351D+01 -.239749296344139D+02 0.630418651108894D+02
 0.726210075489627D+02 0.145981191838346D+02 0.386106518722115D+02 -.597488344298360D+02
 0.000000000000000D+00 0.000000000000000D+00 -.000000000000000D+00 -.000000000000000D+00
 0.156381063060292D+03 0.000000000000000D+00 0.000000000000000D+00 0.156381063060292D+03
 0.163061465775000D+03 0.000000000000000D+00 0.000000000000000D+00 -.163061465775000D+03
 0.126858849177519D+03 -.188038829974260D+02 -.101851631208002D+02 -.329303068105349D+01
 0.104193411766016D+03 -.156078372564642D+01 -.203061148074710D+02 0.630418651108894D+02
 0.736795378256211D+02 0.127755148412794D+02 0.411769024941583D+02 -.597488344298360D+02
 0.147107300661353D+02 0.758915188179307D+01 -.106856245658871D+02 -.668040271470847D+01
0.123392892277D-05 0.000000000000D+00 0.000000000000D+00 0.229710139822D-06 0.000000000000D+00  6 21 2 25 24 1 21 2 0.19415368D-02 0.28248741D+00 0.15878990D+05 0.15878990D+05 0.15878990D+05 0.12450129D+01  1  2  2  2  6  2        2 0.290547937392D-01 0.100000000000D+01
-.142153957332D-06 0.651162182218D-07 -.249094698440D-08 0.229710139822D-06 0.000000000000D+00  6 21 2 25 24 1 21 4 0.19415368D-02 0.28248741D+00 0.15878990D+05 0.15878990D+05 0.15878990D+05 0.12450129D+01  1  2  3  2  6  2        2 -.518841046106D-02 0.100000000000D+01
0.155013049021D-06 0.000000000000D+00 0.000000000000D+00 0.229710139822D-06 0.000000000000D+00  6 21 2 25 24 1 21 4 0.19415368D-02 0.28248741D+00 0.15878990D+05 0.15878990D+05 0.15878990D+05 0.12450129D+01  1  2 15  2  6  2        2 0.565774840344D-02 0.100000000000D+01
0.954534823142D-05 0.000000000000D+00 0.000000000000D+00 0.227769527511D-06 0.000000000000D+00  6 21 2 25 24 1 21 4 0.19415368D-02 0.30625646D+00 0.17688136D+05 0.17688136D+05 0.17688136D+05 0.12397428D+01  1  2 12  2  6  2        2 0.285625301750D+00 0.100000000000D+01
-.745114947604D-05 0.000000000000D+00 0.000000000000D+00 0.229710139822D-06 0.000000000000D+00  6 21 2 25 24 1 21 4 0.19415368D-02 0.28248741D+00 0.15878990D+05 0.15878990D+05 0.15878990D+05 0.12450129D+01  1  2  4  2  6  2        2 -.271956001886D+00 0.100000000000D+01
-.271326649609D-04 0.000000000000D+00 -.472898203171D-05 0.229710139822D-06 0.000000000000D+00  6 21 2 25 24 1 21 4 0.19415368D-02 0.30621611D+00 0.15878990D+05 0.15878990D+05 0.15878990D+05 0.12450129D+01  1  2  5  2  6  2        2 -.826477507041D+00 0.100000000000D+01
0.274401265861D-04 0.000000000000D+00 0.471364125096D-05 0.229710139822D-06 0.000000000000D+00  6 21 2 25 24 1 21 4 0.19415368D-02 0.28248741D+00 0.15878990D+05 0.15878990D+05 0.15878990D+05 0.12450129D+01  1  2  6  2  6  2        2 0.100152428046D+01 0.100000000000D+01
0.129789366208D-06 0.000000000000D+00 0.000000000000D+00 0.227769527511D-06 0.000000000000D+00  6 21 21 25 24 1 -2 4 0.19415368D-02 0.30625646D+00 0.17688136D+05 0.17688136D+05 0.17688136D+05 0.12397428D+01  1  2 12 10  6  2        2 0.132506239211D-02 0.100000000000D+01
-.354643090136D-06 0.000000000000D+00 -.636250895660D-07 0.229710139822D-06 0.000000000000D+00  6 21 21 25 24 1 -2 4 0.19415368D-02 0.30621611D+00 0.15878990D+05 0.15878990D+05 0.15878990D+05 0.12450129D+01  1  2  5 10  6  2        2 -.371837250064D-02 0.100000000000D+01
  </mgrwgt>
  </event>
  <event>
  5     66 0.42910585E-03 0.85089179E+02 0.75467711E-02 0.11630539E+00
       21 -1    0    0  501  502 0.00000000E+00 0.00000000E+00 0.52335737E+02 0.52341111E+02 0.75000000E+00 0.0000E+00 0.9000E+01
        2 -1    0    0  502    0 0.00000000E+00 0.00000000E+00 -.58618242E+03 0.58618251E+03 0.32000000E+00 0.0000E+00 0.9000E+01
       25  1    1    2    0    0 -.17372598E+02 -.68534346E+02 -.33802694E+03 0.36726826E+03 0.12500000E+03 0.0000E+00 0.9000E+01
       24  1    1    2    0    0 0.25845736E+02 -.23685485E+02 -.13308412E+03 0.15939763E+03 0.80419002E+02 0.0000E+00 0.9000E+01
        1  1    1    2  501    0 -.84731381E+01 0.92219831E+02 -.62735625E+02 0.11185773E+03 0.32000000E+00 0.0000E+00 0.9000E+01
#aMCatNLO 1  0  0  1  2 0.44595938D+02 0.00000000D+00  -5  6  0 0.00000000D+00 0.00000000D+00 0.00000000D+00 0.00000000D+00 0.00000000D+00
  <mgrwgt>
 0.1862639186D+00   23    2    0
 0.175157165806203D+03 0.000000000000000D+00 0.000000000000000D+00 0.175157165806203D+03
 0.175157165806203D+03 0.000000000000000D+00 0.000000000000000D+00 -.175157165806203D+03
 0.154304105347273D+03 -.173725812441152D+02 -.685345237099356D+02 -.564443921731050D+02
 0.877287642615564D+02 0.258457448812281D+02 -.236855856106955D+02 0.332611337867338D+00
 0.108281462003577D+03 -.847316363711296D+01 0.922201093206311D+02 0.561117808352376D+02
 0.000000000000000D+00 -.000000000000000D+00 0.000000000000000D+00 0.000000000000000D+00
 0.203973650227982D+03 0.000000000000000D+00 0.000000000000000D+00 0.203973650227982D+03
 0.194714805505606D+03 0.000000000000000D+00 0.000000000000000D+00 -.194714805505606D+03
 0.162387156471734D+03 -.846522418922749D+01 -.865272162883456D+02 -.564443921731050D+02
 0.925987646674561D+02 0.309176931180389D+02 -.339308250050756D+02 0.332611337867338D+00
 0.981555925078092D+02 -.266685075266358D+01 0.804914672441767D+02 0.561117808352376D+02
 0.455469420865894D+02 -.197856181761479D+02 0.399665740492445D+02 0.925884472237600D+01
0.391559537012D-05 0.000000000000D+00 0.000000000000D+00 0.424566848317D-06 0.000000000000D+00  6 21 2 25 24 1 21 2 0.80520719D-02 0.90182332D-01 0.26235338D+05 0.26235338D+05 0.26235338D+05 0.12210583D+01  1  2  2  1  6  1       21 0.450998842664D-01 0.100000000000D+01
-.200566600413D-06 0.206631644565D-06 -.790445891923D-08 0.424566848317D-06 0.000000000000D+00  6 21 2 25 24 1 21 4 0.80520719D-02 0.90182332D-01 0.26235338D+05 0.26235338D+05 0.26235338D+05 0.12210583D+01  1  2  3  1  6  1       21 -.344436368635D-02 0.100000000000D+01
0.350706424701D-06 0.000000000000D+00 0.000000000000D+00 0.424566848317D-06 0.000000000000D+00  6 21 2 25 24 1 21 4 0.80520719D-02 0.90182332D-01 0.26235338D+05 0.26235338D+05 0.26235338D+05 0.12210583D+01  1  2 15  1  6  1       21 0.602273993437D-02 0.100000000000D+01
0.391454843497D-05 0.000000000000D+00 0.000000000000D+00 0.416181729208D-06 0.000000000000D+00  6 21 2 25 24 1 21 4 0.97643595D-02 0.90182332D-01 0.34223413D+05 0.34223413D+05 0.34223413D+05 0.12089403D+01  1  2 12  1  6  1       21 0.461135025304D-01 0.100000000000D+01
-.407534500484D-06 0.000000000000D+00 0.000000000000D+00 0.424566848317D-06 0.000000000000D+00  6 21 2 25 24 1 21 4 0.80520719D-02 0.90182332D-01 0.26235338D+05 0.26235338D+05 0.26235338D+05 0.12210583D+01  1  2  4  1  6  1       21 -.699865795954D-02 0.100000000000D+01
-.184893441564D-04 0.000000000000D+00 -.608237868395D-05 0.424566848317D-06 0.000000000000D+00  6 21 2 25 24 1 21 4 0.10416405D-01 0.90182332D-01 0.26235338D+05 0.26235338D+05 0.26235338D+05 0.12210583D+01  1  2  5  1  6  1       21 -.202400625912D+00 0.100000000000D+01
0.178396182108D-04 0.000000000000D+00 0.534602048136D-05 0.424566848317D-06 0.000000000000D+00  6 21 2 25 24 1 21 4 0.80520719D-02 0.90182332D-01 0.26235338D+05 0.26235338D+05 0.26235338D+05 0.12210583D+01  1  2  6  1  6  1       21 0.306362739444D+00 0.100000000000D+01
0.214895448502D-06 0.000000000000D+00 0.000000000000D+00 0.416181729208D-06 0.000000000000D+00  6 -1 2 25 24 1 -1 4 0.97643595D-02 0.90182332D-01 0.34223413D+05 0.34223413D+05 0.34223413D+05 0.12089403D+01  1  2 12  4  6  1       21 0.168746267602D-03 0.100000000000D+01
-.108425762051D-05 0.000000000000D+00 -.474511969777D-06 0.424566848317D-06 0.000000000000D+00  6 -1 2 25 24 1 -1 4 0.10416405D-01 0.90182332D-01 0.26235338D+05 0.26235338D+05 0.26235338D+05 0.12210583D+01  1  2  5  4  6  1       21 -.798761288998D-03 0.100000000000D+01
0.214895448502D-06 0.000000000000D+00 0.000000000000D+00 0.416181729208D-06 0.000000000000D+00  6 1 2 25 24 1 1 4 0.97643595D-02 0.90182332D-01 0.34223413D+05 0.34223413D+05 0.34223413D+05 0.12089403D+01  1  2 12  5  6  1       21 0.210309997828D-03 0.100000000000D+01
-.108425762051D-05 0.000000000000D+00 -.474511969777D-06 0.424566848317D-06 0.000000000000D+00  6 1 2 25 24 1 1 4 0.10416405D-01 0.90182332D-01 0.26235338D+05 0.26235338D+05 0.26235338D+05 0.12210583D+01  1  2  5  5  6  1       21 -.100896685703D-02 0.100000000000D+01
0.214895448502D-06 0.000000000000D+00 0.000000000000D+00 0.416181729208D-06 0.000000000000D+00  6 -2 2 25 24 1 -2 4 0.97643595D-02 0.90182332D-01 0.34223413D+05 0.34223413D+05 0.34223413D+05 0.12089403D+01  1  2 12  6  6  1       21 0.161538350032D-03 0.100000000000D+01
-.108425762051D-05 0.000000000000D+00 -.474511969777D-06 0.424566848317D-06 0.000000000000D+00  6 -2 2 25 24 1 -2 4 0.10416405D-01 0.90182332D-01 0.26235338D+05 0.26235338D+05 0.26235338D+05 0.12210583D+01  1  2  5  6  6  1       21 -.762304150516D-03 0.100000000000D+01
0.214895448502D-06 0.000000000000D+00 0.000000000000D+00 0.416181729208D-06 0.000000000000D+00  6 2 2 25 24 1 2 4 0.97643595D-02 0.90182332D-01 0.34223413D+05 0.34223413D+05 0.34223413D+05 0.12089403D+01  1  2 12  7  6  1       21 0.238491047955D-03 0.100000000000D+01
-.108425762051D-05 0.000000000000D+00 -.474511969777D-06 0.424566848317D-06 0.000000000000D+00  6 2 2 25 24 1 2 4 0.10416405D-01 0.90182332D-01 0.26235338D+05 0.26235338D+05 0.26235338D+05 0.12210583D+01  1  2  5  7  6  1       21 -.115155881250D-02 0.100000000000D+01
0.214895448502D-06 0.000000000000D+00 0.000000000000D+00 0.416181729208D-06 0.000000000000D+00  6 -3 2 25 24 1 -3 4 0.97643595D-02 0.90182332D-01 0.34223413D+05 0.34223413D+05 0.34223413D+05 0.12089403D+01  1  2 12  8  6  1       21 0.112679245995D-03 0.100000000000D+01
0.214895448502D-06 0.000000000000D+00 0.000000000000D+00 0.416181729208D-06 0.000000000000D+00  6 -4 2 25 24 1 -4 4 0.97643595D-02 0.90182332D-01 0.34223413D+05 0.34223413D+05 0.34223413D+05 0.12089403D+01  1  2 12  8  6  1       21 0.990249841304D-04 0.100000000000D+01
-.108425762051D-05 0.000000000000D+00 -.474511969777D-06 0.424566848317D-06 0.000000000000D+00  6 -3 2 25 24 1 -3 4 0.10416405D-01 0.90182332D-01 0.26235338D+05 0.26235338D+05 0.26235338D+05 0.12210583D+01  1  2  5  8  6  1       21 -.525998178218D-03 0.100000000000D+01
-.108425762051D-05 0.000000000000D+00 -.474511969777D-06 0.424566848317D-06 0.000000000000D+00  6 -4 2 25 24 1 -4 4 0.10416405D-01 0.90182332D-01 0.26235338D+05 0.26235338D+05 0.26235338D+05 0.12210583D+01  1  2  5  8  6  1       21 -.460129173169D-03 0.100000000000D+01
0.214895448502D-06 0.000000000000D+00 0.000000000000D+00 0.416181729208D-06 0.000000000000D+00  6 3 2 25 24 1 3 4 0.97643595D-02 0.90182332D-01 0.34223413D+05 0.34223413D+05 0.34223413D+05 0.12089403D+01  1  2 12  9  6  1       21 0.112665735069D-03 0.100000000000D+01
0.214895448502D-06 0.000000000000D+00 0.000000000000D+00 0.416181729208D-06 0.000000000000D+00  6 4 2 25 24 1 4 4 0.97643595D-02 0.90182332D-01 0.34223413D+05 0.34223413D+05 0.34223413D+05 0.12089403D+01  1  2 12  9  6  1       21 0.990249841304D-04 0.100000000000D+01
-.108425762051D-05 0.000000000000D+00 -.474511969777D-06 0.424566848317D-06 0.000000000000D+00  6 3 2 25 24 1 3 4 0.10416405D-01 0.90182332D-01 0.26235338D+05 0.26235338D+05 0.26235338D+05 0.12210583D+01  1  2  5  9  6  1       21 -.525932978114D-03 0.100000000000D+01
-.108425762051D-05 0.000000000000D+00 -.474511969777D-06 0.424566848317D-06 0.000000000000D+00  6 4 2 25 24 1 4 4 0.10416405D-01 0.90182332D-01 0.26235338D+05 0.26235338D+05 0.26235338D+05 0.12210583D+01  1  2  5  9  6  1       21 -.460129173169D-03 0.100000000000D+01
  </mgrwgt>
  </event>
  <event>
  5     66 -.42910585E-03 0.35346420E+02 0.75467711E-02 0.12125861E+00
       21 -1    0    0  501  502 0.00000000E+00 0.00000000E+00 0.44511789E+02 0.44518107E+02 0.75000000E+00 0.0000E+00 0.9000E+01
        2 -1    0    0  502    0 -.00000000E+00 -.00000000E+00 -.12853829E+04 0.12853829E+04 0.32000000E+00 0.0000E+00 0.9000E+01
       25  1    1    2    0    0 -.24295165E+02 0.60910545E+01 -.95507690E+03 0.96354774E+03 0.12500000E+03 0.0000E+00 0.9000E+01
       24  1    1    2    0    0 -.86595132E+01 -.18872151E+02 -.31166978E+03 0.32254676E+03 0.80419002E+02 0.0000E+00 0.9000E+01
        1  1    1    2  501    0 0.32954678E+02 0.12781097E+02 0.25875562E+02 0.43806556E+02 0.32000000E+00 0.0000E+00 0.9000E+01
#aMCatNLO 1  0  0  5  2 0.23593852D+02 0.00000000D+00  -5  6  0 0.00000000D+00 0.00000000D+00 0.00000000D+00 0.00000000D+00 0.00000000D+00
  <mgrwgt>
 -.1669704641D-01    6    2    0
 0.239204766516958D+03 0.000000000000000D+00 0.000000000000000D+00 0.239204766516958D+03
 0.239204766516958D+03 -.000000000000000D+00 -.000000000000000D+00 -.239204766516958D+03
 0.201283305705221D+03 -.242951850953940D+02 0.609104682097774D+01 -.155764605367930D+03
 0.882366562517419D+02 -.865952196973744D+01 -.188721544374491D+02 -.297883537353482D+02
 0.188889571076953D+03 0.329547070651315D+02 0.127811076164714D+02 0.185552959103278D+03
 0.000000000000000D+00 0.000000000000000D+00 0.000000000000000D+00 0.000000000000000D+00
 0.239204766516958D+03 0.000000000000000D+00 0.000000000000000D+00 0.239204766516958D+03
 0.239204766516958D+03 -.000000000000000D+00 -.000000000000000D+00 -.239204766516958D+03
 0.196803597247561D+03 -.232846637623128D+02 0.648296600512722D+01 -.150074819589539D+03
 0.873411833848604D+02 -.821382744612196D+01 -.186992968951519D+02 -.272788506907746D+02
 0.165109393088747D+03 0.368920795805891D+02 0.329080684511873D+02 0.157534584079706D+03
 0.291553593127468D+02 -.539358837215424D+01 -.206917375611625D+02 0.198190862006075D+02
0.311837735698D-05 0.000000000000D+00 0.000000000000D+00 0.864375366479D-05 0.000000000000D+00  6 21 2 25 24 1 21 2 0.68484566D-02 0.19775171D+00 0.15115169D+05 0.15115169D+05 0.15115169D+05 0.12474440D+01  1  2  2  3  6  5        1 0.176665779828D-01 0.100000000000D+01
0.524103171110D-06 0.164561294194D-06 -.629510543940D-08 0.864375366479D-05 0.000000000000D+00  6 21 2 25 24 1 21 4 0.68484566D-02 0.19775171D+00 0.15115169D+05 0.15115169D+05 0.15115169D+05 0.12474440D+01  1  2  3  3  6  5        1 0.462043314554D-02 0.100000000000D+01
0.310831012100D-06 0.000000000000D+00 0.000000000000D+00 0.864375366479D-05 0.000000000000D+00  6 21 2 25 24 1 21 4 0.68484566D-02 0.19775171D+00 0.15115169D+05 0.15115169D+05 0.15115169D+05 0.12474440D+01  1  2 15  3  6  5        1 0.274025037460D-02 0.100000000000D+01
-.577309676880D-05 0.000000000000D+00 0.000000000000D+00 0.864375366479D-05 0.000000000000D+00  6 21 2 25 24 1 21 4 0.68484566D-02 0.19775171D+00 0.15115169D+05 0.15115169D+05 0.15115169D+05 0.12474440D+01  1  2  4  3  6  5        1 -.508949556753D-01 0.100000000000D+01
-.626281509810D-05 0.000000000000D+00 0.000000000000D+00 0.864375366479D-05 0.000000000000D+00  6 21 2 25 24 1 21 4 0.68484566D-02 0.19775171D+00 0.15115169D+05 0.15115169D+05 0.15115169D+05 0.12474440D+01  1  2  5  3  6  5        1 -.552122560188D-01 0.100000000000D+01
0.730305643940D-05 0.000000000000D+00 -.000000000000D+00 0.864375366479D-05 0.000000000000D+00  6 21 2 25 24 1 21 4 0.68484566D-02 0.19775171D+00 0.15115169D+05 0.15115169D+05 0.15115169D+05 0.12474440D+01  1  2  6  3  6  5        1 0.643829037799D-01 0.100000000000D+01
  </mgrwgt>
  </event>
  <event>
  5     66 0.42910585E-03 0.30846061E+03 0.75467711E-02 0.10208846E+00
       21 -1    0    0  501  502 0.00000000E+00 0.00000000E+00 0.54184293E+02 0.54189483E+02 0.75000000E+00 0.0000E+00 0.9000E+01
        2 -1    0    0  502    0 0.00000000E+00 0.00000000E+00 -.30187211E+04 0.30187211E+04 0.32000000E+00 0.0000E+00 0.9000E+01
       25  1    1    2    0    0 0.78480810E+02 0.50242594E+02 -.73407251E+03 0.75044720E+03 0.12500000E+03 0.0000E+00 0.9000E+01
       24  1    1    2    0    0 -.12981967E+03 0.25391562E+03 -.15091507E+04 0.15379627E+04 0.80419002E+02 0.0000E+00 0.9000E+01
        1  1    1    2  501    0 0.51338860E+02 -.30415822E+03 -.72131365E+03 0.78450072E+03 0.32000000E+00 0.0000E+00 0.9000E+01
#aMCatNLO 1  0  0  1  5 0.16823948D+03 0.00000000D+00  -5  6  0 0.00000000D+00 0.00000000D+00 0.00000000D+00 0.00000000D+00 0.00000000D+00
  <mgrwgt>
 0.2084278995D-01    4    2    0
 0.404444395331301D+03 0.000000000000000D+00 0.000000000000000D+00 0.404444395331301D+03
 0.404444395331301D+03 0.000000000000000D+00 0.000000000000000D+00 -.404444395331301D+03
 0.160556310383151D+03 0.784808056340045D+02 0.502426214992985D+02 -.383375916792730D+02
 0.311648778209121D+03 -.129819679467503D+03 0.253915677652915D+03 -.965992984958148D+02
 0.336683702070330D+03 0.513388738334987D+02 -.304158299152213D+03 0.134936890175088D+03
 0.000000000000000D+00 -.000000000000000D+00 0.000000000000000D+00 -.000000000000000D+00
 0.450692310616853D+03 0.000000000000000D+00 0.000000000000000D+00 0.450692310616853D+03
 0.601331937011775D+03 0.000000000000000D+00 0.000000000000000D+00 -.601331937011775D+03
 0.178641449541314D+03 0.113018577337299D+03 0.452194397920631D+02 -.383375916792730D+02
 0.283997433100917D+03 -.691698306396704D+02 0.245094749256150D+03 -.965992984958148D+02
 0.363560608546418D+03 0.122639103357413D+03 -.314528221443177D+03 0.134936890175088D+03
 0.225824756439980D+03 -.166487850055042D+03 0.242140323949641D+02 -.150639626394922D+03
0.601382888670D-04 0.000000000000D+00 0.000000000000D+00 0.712041914591D-07 0.000000000000D+00  6 21 2 25 24 1 21 2 0.83364456D-02 0.46441903D+00 0.14465562D+06 0.14465562D+06 0.14465562D+06 0.11491241D+01  1  2  2  1  6  1       21 0.217287404939D-01 0.100000000000D+01
-.462783597792D-05 0.317358469283D-05 -.121401878614D-06 0.712041914591D-07 0.000000000000D+00  6 21 2 25 24 1 21 4 0.83364456D-02 0.46441903D+00 0.14465562D+06 0.14465562D+06 0.14465562D+06 0.11491241D+01  1  2  3  1  6  1       21 -.220798094132D-02 0.100000000000D+01
0.737821952991D-05 0.000000000000D+00 0.000000000000D+00 0.712041914591D-07 0.000000000000D+00  6 21 2 25 24 1 21 4 0.83364456D-02 0.46441903D+00 0.14465562D+06 0.14465562D+06 0.14465562D+06 0.11491241D+01  1  2 15  1  6  1       21 0.352021294199D-02 0.100000000000D+01
-.460729893905D-05 0.000000000000D+00 0.000000000000D+00 0.712041914591D-07 0.000000000000D+00  6 21 2 25 24 1 21 4 0.83364456D-02 0.46441903D+00 0.14465562D+06 0.14465562D+06 0.14465562D+06 0.11491241D+01  1  2  4  1  6  1       21 -.219818254080D-02 0.100000000000D+01
  </mgrwgt>
  </event>
  <event>
  5     66 0.42910585E-03 0.10401549E+03 0.75467711E-02 0.11468768E+00
       21 -1    0    0  501  502 0.00000000E+00 0.00000000E+00 0.28958992E+02 0.28968703E+02 0.75000000E+00 0.0000E+00 0.9000E+01
        2 -1    0    0  502    0 0.00000000E+00 0.00000000E+00 -.33307250E+04 0.33307251E+04 0.32000000E+00 0.0000E+00 0.9000E+01
       25  1    1    2    0    0 -.77795608E+01 -.26906167E+02 -.10129972E+04 0.10210645E+04 0.12500000E+03 0.0000E+00 0.9000E+01
       24  1    1    2    0    0 0.10711154E+03 -.51919376E+02 -.21327226E+04 0.21375550E+04 0.80419002E+02 0.0000E+00 0.9000E+01
        1  1    1    2  501    0 -.99331983E+02 0.78825542E+02 -.15604629E+03 0.20107426E+03 0.32000000E+00 0.0000E+00 0.9000E+01
#aMCatNLO 1  0  0  1  2 0.78523558D+01 0.00000000D+00  -5  6  0 0.00000000D+00 0.00000000D+00 0.00000000D+00 0.00000000D+00 0.00000000D+00
  <mgrwgt>
 0.4072668402D-01   22    2    0
 0.310597454015809D+03 0.000000000000000D+00 0.000000000000000D+00 0.310597454015809D+03
 0.310597454015809D+03 0.000000000000000D+00 0.000000000000000D+00 -.310597454015809D+03
 0.138095792120993D+03 -.777954385331390D+01 -.269061802853273D+02 -.515847260476633D+02
 0.225016630036142D+03 0.107111571720498D+03 -.519193974544399D+02 -.173195713601647D+03
 0.258082485874482D+03 -.993320278671843D+02 0.788255777397673D+02 0.224780439649310D+03
 0.000000000000000D+00 -.000000000000000D+00 -.000000000000000D+00 -.000000000000000D+00
 0.313730996180817D+03 0.000000000000000D+00 0.000000000000000D+00 0.313730996180817D+03
 0.315580846306143D+03 0.000000000000000D+00 0.000000000000000D+00 -.315580846306143D+03
 0.137755450837669D+03 -.709360527667878D+01 -.253033799769039D+02 -.515847260476633D+02
 0.224963953814913D+03 0.108230504656561D+03 -.493048396556589D+02 -.173195713601647D+03
 0.258525131143245D+03 -.980474184896978D+02 0.818272638623633D+02 0.224780439649310D+03
 0.806730669113288D+01 -.308948089018410D+01 -.721904422980046D+01 -.184985012532617D+01
0.320613175226D-04 0.000000000000D+00 0.000000000000D+00 0.620656407875D-06 0.000000000000D+00  6 21 2 25 24 1 21 2 0.44559777D-02 0.51241999D+00 0.39712331D+05 0.39712331D+05 0.39712331D+05 0.12023187D+01  1  2  2  1  6  1       21 0.261155776757D-01 0.100000000000D+01
-.206277902643D-06 0.169192220861D-05 -.647225628031D-07 0.620656407875D-06 0.000000000000D+00  6 21 2 25 24 1 21 4 0.44559777D-02 0.51241999D+00 0.39712331D+05 0.39712331D+05 0.39712331D+05 0.12023187D+01  1  2  3  1  6  1       21 -.242890309989D-03 0.100000000000D+01
0.355833586474D-05 0.000000000000D+00 0.000000000000D+00 0.620656407875D-06 0.000000000000D+00  6 21 2 25 24 1 21 4 0.44559777D-02 0.51241999D+00 0.39712331D+05 0.39712331D+05 0.39712331D+05 0.12023187D+01  1  2 15  1  6  1       21 0.418990735390D-02 0.100000000000D+01
0.160390052409D-04 0.000000000000D+00 0.000000000000D+00 0.618783405699D-06 0.000000000000D+00  6 21 2 25 24 1 21 4 0.45362190D-02 0.51241999D+00 0.41383843D+05 0.41383843D+05 0.41383843D+05 0.12005032D+01  1  2 12  1  6  1       21 0.181690862334D-01 0.100000000000D+01
-.700402762673D-05 0.000000000000D+00 0.000000000000D+00 0.620656407875D-06 0.000000000000D+00  6 21 2 25 24 1 21 4 0.44559777D-02 0.51241999D+00 0.39712331D+05 0.39712331D+05 0.39712331D+05 0.12023187D+01  1  2  4  1  6  1       21 -.824717732549D-02 0.100000000000D+01
0.432179828665D-06 0.000000000000D+00 0.000000000000D+00 0.620656407875D-06 0.814814867150D-07  6 21 2 25 24 1 21 4 0.45009330D-02 0.52064153D+00 0.41383843D+05 0.41383843D+05 0.41383843D+05 0.12005032D+01  1  2 11  1  6  1       21 0.458869719553D-03 0.100000000000D+01
0.615768288045D-06 0.000000000000D+00 0.000000000000D+00 0.618783405699D-06 0.000000000000D+00  6 -1 2 25 24 1 -1 4 0.45362190D-02 0.51241999D+00 0.41383843D+05 0.41383843D+05 0.41383843D+05 0.12005032D+01  1  2 12  4  6  1       21 0.396480929941D-04 0.100000000000D+01
0.111786263764D-07 0.000000000000D+00 0.000000000000D+00 0.618783405699D-06 0.105914245861D-08  6 -1 2 25 24 1 -1 4 0.45009330D-02 0.52064153D+00 0.41383843D+05 0.41383843D+05 0.41383843D+05 0.12005032D+01  1  2 11  4  6  1       21 0.673573469041D-06 0.100000000000D+01
0.615768288045D-06 0.000000000000D+00 0.000000000000D+00 0.618783405699D-06 0.000000000000D+00  6 1 2 25 24 1 1 4 0.45362190D-02 0.51241999D+00 0.41383843D+05 0.41383843D+05 0.41383843D+05 0.12005032D+01  1  2 12  5  6  1       21 0.441743544575D-04 0.100000000000D+01
0.998641703856D-08 0.000000000000D+00 0.000000000000D+00 0.618783405699D-06 0.251805117332D-09  6 1 2 25 24 1 1 4 0.45009330D-02 0.52064153D+00 0.41383843D+05 0.41383843D+05 0.41383843D+05 0.12005032D+01  1  2 11  5  6  1       21 0.669893910577D-06 0.100000000000D+01
0.615768288045D-06 0.000000000000D+00 0.000000000000D+00 0.618783405699D-06 0.000000000000D+00  6 -2 2 25 24 1 -2 4 0.45362190D-02 0.51241999D+00 0.41383843D+05 0.41383843D+05 0.41383843D+05 0.12005032D+01  1  2 12  6  6  1       21 0.388489008724D-04 0.100000000000D+01
0.835576933705D-08 0.000000000000D+00 0.000000000000D+00 0.618783405699D-06 0.363469229371D-09  6 -2 2 25 24 1 -2 4 0.45009330D-02 0.52064153D+00 0.41383843D+05 0.41383843D+05 0.41383843D+05 0.12005032D+01  1  2 11  6  6  1       21 0.493408913167D-06 0.100000000000D+01
0.615768288045D-06 0.000000000000D+00 0.000000000000D+00 0.618783405699D-06 0.000000000000D+00  6 2 2 25 24 1 2 4 0.45362190D-02 0.51241999D+00 0.41383843D+05 0.41383843D+05 0.41383843D+05 0.12005032D+01  1  2 12  7  6  1       21 0.472288996624D-04 0.100000000000D+01
0.362730797249D-08 0.000000000000D+00 0.000000000000D+00 0.618783405699D-06 0.472848010632D-09  6 2 2 25 24 1 2 4 0.45009330D-02 0.52064153D+00 0.41383843D+05 0.41383843D+05 0.41383843D+05 0.12005032D+01  1  2 11  7  6  1       21 0.260030582465D-06 0.100000000000D+01
0.615768288045D-06 0.000000000000D+00 0.000000000000D+00 0.618783405699D-06 0.000000000000D+00  6 -3 2 25 24 1 -3 4 0.45362190D-02 0.51241999D+00 0.41383843D+05 0.41383843D+05 0.41383843D+05 0.12005032D+01  1  2 12  8  6  1       21 0.289347674466D-04 0.100000000000D+01
0.615768288045D-06 0.000000000000D+00 0.000000000000D+00 0.618783405699D-06 0.000000000000D+00  6 -4 2 25 24 1 -4 4 0.45362190D-02 0.51241999D+00 0.41383843D+05 0.41383843D+05 0.41383843D+05 0.12005032D+01  1  2 12  8  6  1       21 0.260253899663D-04 0.100000000000D+01
0.834826609380D-08 0.000000000000D+00 0.000000000000D+00 0.618783405699D-06 0.363142844339D-09  6 -3 2 25 24 1 -3 4 0.45009330D-02 0.52064153D+00 0.41383843D+05 0.41383843D+05 0.41383843D+05 0.12005032D+01  1  2 11  8  6  1       21 0.367387156555D-06 0.100000000000D+01
0.834826609380D-08 0.000000000000D+00 0.000000000000D+00 0.618783405699D-06 0.363142844339D-09  6 -4 2 25 24 1 -4 4 0.45009330D-02 0.52064153D+00 0.41383843D+05 0.41383843D+05 0.41383843D+05 0.12005032D+01  1  2 11  8  6  1       21 0.330509477012D-06 0.100000000000D+01
0.615768288045D-06 0.000000000000D+00 0.000000000000D+00 0.618783405699D-06 0.000000000000D+00  6 3 2 25 24 1 3 4 0.45362190D-02 0.51241999D+00 0.41383843D+05 0.41383843D+05 0.41383843D+05 0.12005032D+01  1  2 12  9  6  1       21 0.289322051503D-04 0.100000000000D+01
0.615768288045D-06 0.000000000000D+00 0.000000000000D+00 0.618783405699D-06 0.000000000000D+00  6 4 2 25 24 1 4 4 0.45362190D-02 0.51241999D+00 0.41383843D+05 0.41383843D+05 0.41383843D+05 0.12005032D+01  1  2 12  9  6  1       21 0.260253899663D-04 0.100000000000D+01
0.834826609380D-08 0.000000000000D+00 0.000000000000D+00 0.618783405699D-06 0.363142844339D-09  6 3 2 25 24 1 3 4 0.45009330D-02 0.52064153D+00 0.41383843D+05 0.41383843D+05 0.41383843D+05 0.12005032D+01  1  2 11  9  6  1       21 0.367354756284D-06 0.100000000000D+01
0.834826609380D-08 0.000000000000D+00 0.000000000000D+00 0.618783405699D-06 0.363142844339D-09  6 4 2 25 24 1 4 4 0.45009330D-02 0.52064153D+00 0.41383843D+05 0.41383843D+05 0.41383843D+05 0.12005032D+01  1  2 11  9  6  1       21 0.330509477012D-06 0.100000000000D+01
  </mgrwgt>
  </event>
  <event>
  5     66 0.42910585E-03 0.91287790E+02 0.75467711E-02 0.11249350E+00
       21 -1    0    0  501  502 0.00000000E+00 0.00000000E+00 0.10608326E+03 0.10608591E+03 0.75000000E+00 0.0000E+00 0.9000E+01
        2 -1    0    0  502    0 0.00000000E+00 0.00000000E+00 -.61171248E+03 0.61171256E+03 0.32000000E+00 0.0000E+00 0.9000E+01
       25  1    1    2    0    0 0.97963221E+02 0.46700138E+02 -.23482843E+02 0.16719491E+03 0.12500000E+03 0.0000E+00 0.9000E+01
       24  1    1    2    0    0 -.69273906E+02 0.39962236E+02 -.81430556E+02 0.13962094E+03 0.80419002E+02 0.0000E+00 0.9000E+01
        1  1    1    2  501    0 -.28689314E+02 -.86662374E+02 -.40071582E+03 0.41098262E+03 0.32000000E+00 0.0000E+00 0.9000E+01
#aMCatNLO 1  0  0  1  1 0.95074321D+02 0.00000000D+00  -5  6  0 0.00000000D+00 0.00000000D+00 0.00000000D+00 0.00000000D+00 0.00000000D+00
  <mgrwgt>
 0.4753765034D-01   14    2    0
 0.254741898527128D+03 0.000000000000000D+00 0.000000000000000D+00 0.254741898527128D+03
 0.254741898527128D+03 0.000000000000000D+00 0.000000000000000D+00 -.254741898527128D+03
 0.212251471976272D+03 0.979632393850105D+02 0.467001945493244D+02 0.132845710936953D+03
 0.115893841438681D+03 -.692738962422519D+02 0.399622667190526D+02 0.238392757259240D+02
 0.181338483639304D+03 -.286893431427586D+02 -.866624612683770D+02 -.156684986662877D+03
 0.000000000000000D+00 0.000000000000000D+00 -.000000000000000D+00 0.000000000000000D+00
 0.316628526169413D+03 0.000000000000000D+00 0.000000000000000D+00 0.316628526169413D+03
 0.298447344278355D+03 0.000000000000000D+00 0.000000000000000D+00 -.298447344278355D+03
 0.215501168531283D+03 0.802085795232994D+02 0.820631128757526D+02 0.132845710936953D+03
 0.130359278882418D+03 -.794950847917797D+02 0.603203619284947D+02 0.238392757259240D+02
 0.172418305765813D+03 -.433726691467926D+02 -.574168850486514D+02 -.156684986662877D+03
 0.967971172682542D+02 0.426591744152729D+02 -.849665897555958D+02 0.181811818910587D+02
0.116176230491D-04 0.000000000000D+00 0.000000000000D+00 0.967360393180D-07 0.000000000000D+00  6 21 2 25 24 1 21 2 0.16320712D-01 0.94109823D-01 0.34269580D+05 0.34269580D+05 0.34269580D+05 0.12088798D+01  1  2  2  1  6  1       21 0.354468353404D-01 0.100000000000D+01
-.151694362286D-05 0.613078811689D-06 -.234526337505D-07 0.967360393180D-07 0.000000000000D+00  6 21 2 25 24 1 21 4 0.16320712D-01 0.94109823D-01 0.34269580D+05 0.34269580D+05 0.34269580D+05 0.12088798D+01  1  2  3  1  6  1       21 -.676387924149D-02 0.100000000000D+01
0.142115210930D-05 0.000000000000D+00 0.000000000000D+00 0.967360393180D-07 0.000000000000D+00  6 21 2 25 24 1 21 4 0.16320712D-01 0.94109823D-01 0.34269580D+05 0.34269580D+05 0.34269580D+05 0.12088798D+01  1  2 15  1  6  1       21 0.633675576748D-02 0.100000000000D+01
-.807704160359D-05 0.000000000000D+00 0.000000000000D+00 0.967360393180D-07 0.000000000000D+00  6 21 2 25 24 1 21 4 0.16320712D-01 0.94109823D-01 0.34269580D+05 0.34269580D+05 0.34269580D+05 0.12088798D+01  1  2  4  1  6  1       21 -.360146107026D-01 0.100000000000D+01
-.272256233507D-04 0.000000000000D+00 -.149454783117D-04 0.967360393180D-07 0.000000000000D+00  6 21 2 25 24 1 21 4 0.23658792D-01 0.94109823D-01 0.34269580D+05 0.34269580D+05 0.34269580D+05 0.12088798D+01  1  2  5  1  6  1       21 -.607813967527D-01 0.100000000000D+01
0.253123251703D-04 0.000000000000D+00 0.115110691183D-04 0.967360393180D-07 0.000000000000D+00  6 21 2 25 24 1 21 4 0.16320712D-01 0.94109823D-01 0.34269580D+05 0.34269580D+05 0.34269580D+05 0.12088798D+01  1  2  6  1  6  1       21 0.112864781652D+00 0.100000000000D+01
-.250708663103D-05 0.000000000000D+00 -.182763812923D-05 0.967360393180D-07 0.000000000000D+00  6 -1 2 25 24 1 -1 4 0.23658792D-01 0.94109823D-01 0.34269580D+05 0.34269580D+05 0.34269580D+05 0.12088798D+01  1  2  5  4  6  1       21 -.461283070649D-03 0.100000000000D+01
-.250708663103D-05 0.000000000000D+00 -.182763812923D-05 0.967360393180D-07 0.000000000000D+00  6 1 2 25 24 1 1 4 0.23658792D-01 0.94109823D-01 0.34269580D+05 0.34269580D+05 0.34269580D+05 0.12088798D+01  1  2  5  5  6  1       21 -.736226190561D-03 0.100000000000D+01
-.250708663103D-05 0.000000000000D+00 -.182763812923D-05 0.967360393180D-07 0.000000000000D+00  6 -2 2 25 24 1 -2 4 0.23658792D-01 0.94109823D-01 0.34269580D+05 0.34269580D+05 0.34269580D+05 0.12088798D+01  1  2  5  6  6  1       21 -.415602118909D-03 0.100000000000D+01
-.250708663103D-05 0.000000000000D+00 -.182763812923D-05 0.967360393180D-07 0.000000000000D+00  6 2 2 25 24 1 2 4 0.23658792D-01 0.94109823D-01 0.34269580D+05 0.34269580D+05 0.34269580D+05 0.12088798D+01  1  2  5  7  6  1       21 -.932706185704D-03 0.100000000000D+01
-.250708663103D-05 0.000000000000D+00 -.182763812923D-05 0.967360393180D-07 0.000000000000D+00  6 -3 2 25 24 1 -3 4 0.23658792D-01 0.94109823D-01 0.34269580D+05 0.34269580D+05 0.34269580D+05 0.12088798D+01  1  2  5  8  6  1       21 -.271380304938D-03 0.100000000000D+01
-.250708663103D-05 0.000000000000D+00 -.182763812923D-05 0.967360393180D-07 0.000000000000D+00  6 -4 2 25 24 1 -4 4 0.23658792D-01 0.94109823D-01 0.34269580D+05 0.34269580D+05 0.34269580D+05 0.12088798D+01  1  2  5  8  6  1       21 -.231135610525D-03 0.100000000000D+01
-.250708663103D-05 0.000000000000D+00 -.182763812923D-05 0.967360393180D-07 0.000000000000D+00  6 3 2 25 24 1 3 4 0.23658792D-01 0.94109823D-01 0.34269580D+05 0.34269580D+05 0.34269580D+05 0.12088798D+01  1  2  5  9  6  1       21 -.271366631842D-03 0.100000000000D+01
-.250708663103D-05 0.000000000000D+00 -.182763812923D-05 0.967360393180D-07 0.000000000000D+00  6 4 2 25 24 1 4 4 0.23658792D-01 0.94109823D-01 0.34269580D+05 0.34269580D+05 0.34269580D+05 0.12088798D+01  1  2  5  9  6  1       21 -.231135610525D-03 0.100000000000D+01
  </mgrwgt>
  </event>
  <event>
  5     66 -.42910585E-03 0.44256225E+02 0.75467711E-02 0.11814570E+00
       21 -1    0    0  501  502 0.00000000E+00 0.00000000E+00 0.49676609E+02 0.49682270E+02 0.75000000E+00 0.0000E+00 0.9000E+01
        2 -1    0    0  502    0 0.00000000E+00 0.00000000E+00 -.13179999E+04 0.13179999E+04 0.32000000E+00 0.0000E+00 0.9000E+01
       25  1    1    2    0    0 0.23461519E+02 -.51667065E+02 -.12271858E+04 0.12348400E+04 0.12500000E+03 0.0000E+00 0.9000E+01
       24  1    1    2    0    0 -.12763784E+02 0.87234569E+01 -.29912766E+02 0.87183728E+02 0.80419002E+02 0.0000E+00 0.9000E+01
        1  1    1    2  501    0 -.10697735E+02 0.42943608E+02 -.11224701E+02 0.45658420E+02 0.32000000E+00 0.0000E+00 0.9000E+01
#aMCatNLO 1  0  0  1  2 0.20992458D+02 0.00000000D+00  -5  6  0 0.00000000D+00 0.00000000D+00 0.00000000D+00 0.00000000D+00 0.00000000D+00
  <mgrwgt>
 -.4654716722D+00   12    2    0
 0.255886032224250D+03 0.000000000000000D+00 0.000000000000000D+00 0.255886032224250D+03
 0.255886032224250D+03 0.000000000000000D+00 0.000000000000000D+00 -.255886032224250D+03
 0.258709967494055D+03 0.234615506929442D+02 -.516671898322337D+02 -.219284984471571D+03
 0.158860771963765D+03 -.127637648350570D+02 0.872337994895657D+01 0.136126844759049D+03
 0.942013249906795D+02 -.106977858578872D+02 0.429438098832771D+02 0.831581397125221D+02
 0.000000000000000D+00 0.000000000000000D+00 0.000000000000000D+00 0.000000000000000D+00
 0.123926129769184D+04 0.000000000000000D+00 0.000000000000000D+00 0.123926129769184D+04
 0.258778170806865D+03 0.000000000000000D+00 0.000000000000000D+00 -.258778170806865D+03
 0.259704011739567D+03 -.671917471255797D+01 -.607463742960015D+02 -.219284984471571D+03
 0.161224397685515D+03 -.313982982360267D+02 0.311760461153538D+01 0.136126844759049D+03
 0.946406945624342D+02 -.216916814036410D+02 0.396365465788273D+02 0.831581397125221D+02
 0.982470364511194D+03 0.598091543522256D+02 0.179922231056388D+02 0.980483126884979D+03
0.993807947175D-06 0.000000000000D+00 0.000000000000D+00 0.188749534503D-06 0.000000000000D+00  6 21 2 25 24 1 21 2 0.76429937D-02 0.20276965D+00 0.17348139D+05 0.17348139D+05 0.17348139D+05 0.12406857D+01  1  2  2  1  6  1       21 0.442460184858D-02 0.100000000000D+01
0.343200839609D-08 0.524446862088D-07 -.200621191658D-08 0.188749534503D-06 0.000000000000D+00  6 21 2 25 24 1 21 4 0.76429937D-02 0.20276965D+00 0.17348139D+05 0.17348139D+05 0.17348139D+05 0.12406857D+01  1  2  3  1  6  1       21 0.235203416160D-04 0.100000000000D+01
0.104618194089D-06 0.000000000000D+00 0.000000000000D+00 0.188749534503D-06 0.000000000000D+00  6 21 2 25 24 1 21 4 0.76429937D-02 0.20276965D+00 0.17348139D+05 0.17348139D+05 0.17348139D+05 0.12406857D+01  1  2 15  1  6  1       21 0.716972507124D-03 0.100000000000D+01
-.938475928921D-03 0.000000000000D+00 -.640928054400D-05 0.188749534503D-06 0.000000000000D+00  6 21 2 25 24 1 21 4 0.37135321D-01 0.20276965D+00 0.17348139D+05 0.17348139D+05 0.17348139D+05 0.12406857D+01  1  2  5  1  6  1       21 -.355933496560D+00 0.100000000000D+01
-.395656460232D-03 0.000000000000D+00 -.263585888836D-05 0.188749534503D-06 0.000000000000D+00  6 -1 2 25 24 1 -1 4 0.37135321D-01 0.20276965D+00 0.17348139D+05 0.17348139D+05 0.17348139D+05 0.12406857D+01  1  2  5  4  6  1       21 -.136589428823D-01 0.100000000000D+01
-.395656460232D-03 0.000000000000D+00 -.263585888836D-05 0.188749534503D-06 0.000000000000D+00  6 1 2 25 24 1 1 4 0.37135321D-01 0.20276965D+00 0.17348139D+05 0.17348139D+05 0.17348139D+05 0.12406857D+01  1  2  5  5  6  1       21 -.265039831744D-01 0.100000000000D+01
-.395656460232D-03 0.000000000000D+00 -.263585888836D-05 0.188749534503D-06 0.000000000000D+00  6 -2 2 25 24 1 -2 4 0.37135321D-01 0.20276965D+00 0.17348139D+05 0.17348139D+05 0.17348139D+05 0.12406857D+01  1  2  5  6  6  1       21 -.116624207999D-01 0.100000000000D+01
-.395656460232D-03 0.000000000000D+00 -.263585888836D-05 0.188749534503D-06 0.000000000000D+00  6 2 2 25 24 1 2 4 0.37135321D-01 0.20276965D+00 0.17348139D+05 0.17348139D+05 0.17348139D+05 0.12406857D+01  1  2  5  7  6  1       21 -.360458607412D-01 0.100000000000D+01
-.395656460232D-03 0.000000000000D+00 -.263585888836D-05 0.188749534503D-06 0.000000000000D+00  6 -3 2 25 24 1 -3 4 0.37135321D-01 0.20276965D+00 0.17348139D+05 0.17348139D+05 0.17348139D+05 0.12406857D+01  1  2  5  8  6  1       21 -.732978672772D-02 0.100000000000D+01
-.395656460232D-03 0.000000000000D+00 -.263585888836D-05 0.188749534503D-06 0.000000000000D+00  6 -4 2 25 24 1 -4 4 0.37135321D-01 0.20276965D+00 0.17348139D+05 0.17348139D+05 0.17348139D+05 0.12406857D+01  1  2  5  8  6  1       21 -.608574854021D-02 0.100000000000D+01
-.395656460232D-03 0.000000000000D+00 -.263585888836D-05 0.188749534503D-06 0.000000000000D+00  6 3 2 25 24 1 3 4 0.37135321D-01 0.20276965D+00 0.17348139D+05 0.17348139D+05 0.17348139D+05 0.12406857D+01  1  2  5  9  6  1       21 -.733077889783D-02 0.100000000000D+01
-.395656460232D-03 0.000000000000D+00 -.263585888836D-05 0.188749534503D-06 0.000000000000D+00  6 4 2 25 24 1 4 4 0.37135321D-01 0.20276965D+00 0.17348139D+05 0.17348139D+05 0.17348139D+05 0.12406857D+01  1  2  5  9  6  1       21 -.608574854021D-02 0.100000000000D+01
  </mgrwgt>
  </event>
  <event>
  5     66 -.42910585E-03 0.94179450E+02 0.75467711E-02 0.11472217E+00
       21 -1    0    0  501  502 0.00000000E+00 0.00000000E+00 0.14426164E+03 0.14426359E+03 0.75000000E+00 0.0000E+00 0.9000E+01
        2 -1    0    0  502    0 0.00000000E+00 0.00000000E+00 -.31278639E+03 0.31278656E+03 0.32000000E+00 0.0000E+00 0.9000E+01
       25  1    1    2    0    0 -.14054148E+03 -.43218945E+02 -.61657624E+02 0.20259923E+03 0.12500000E+03 0.0000E+00 0.9000E+01
       24  1    1    2    0    0 0.46802368E+02 0.34124975E+02 0.15209769E+02 0.10026729E+03 0.80419002E+02 0.0000E+00 0.9000E+01
        1  1    1    2  501    0 0.93739110E+02 0.90939699E+01 -.12207690E+03 0.15418363E+03 0.32000000E+00 0.0000E+00 0.9000E+01
#aMCatNLO 1  0  0  2  1 0.18338197D+02 0.00000000D+00  -5  6  0 0.00000000D+00 0.00000000D+00 0.00000000D+00 0.00000000D+00 0.00000000D+00
  <mgrwgt>
 -.1325200468D+00    4    2    0
 0.212423070890964D+03 0.000000000000000D+00 0.000000000000000D+00 0.212423070890964D+03
 0.212423070890964D+03 0.000000000000000D+00 0.000000000000000D+00 -.212423070890964D+03
 0.193498814491086D+03 -.140541636886964D+03 -.432189601122893D+02 0.140342793687777D+02
 0.113900993244968D+03 0.468022746453004D+02 0.341249658305645D+02 0.561360321265078D+02
 0.117446334045875D+03 0.937393622416635D+02 0.909399428172477D+01 -.701703114952855D+02
 0.000000000000000D+00 -.000000000000000D+00 -.000000000000000D+00 0.000000000000000D+00
 0.224546387229844D+03 0.000000000000000D+00 0.000000000000000D+00 0.224546387229844D+03
 0.219670654256355D+03 0.000000000000000D+00 0.000000000000000D+00 -.219670654256355D+03
 0.188615594322908D+03 -.135716740252359D+03 -.365355695132371D+02 0.140342793687777D+02
 0.116383815930239D+03 0.497100435625696D+02 0.381527734537397D+02 0.561360321265078D+02
 0.120242325293204D+03 0.967406183735334D+02 0.132512993052613D+02 -.701703114952855D+02
 0.189753059398473D+02 -.107339216837437D+02 -.148685032457640D+02 0.487573297348885D+01
0.822816141833D-05 0.000000000000D+00 0.000000000000D+00 0.106660108478D-06 0.000000000000D+00  6 21 2 25 24 1 21 2 0.22194261D-01 0.48121146D-01 0.37302204D+05 0.37302204D+05 0.37302204D+05 0.12050920D+01  1  2  2  2  6  2        2 0.294201910814D-01 0.100000000000D+01
-.930474280932D-06 0.434212007346D-06 -.166102872652D-07 0.106660108478D-06 0.000000000000D+00  6 21 2 25 24 1 21 4 0.22194261D-01 0.48121146D-01 0.37302204D+05 0.37302204D+05 0.37302204D+05 0.12050920D+01  1  2  3  2  6  2        2 -.483156129585D-02 0.100000000000D+01
0.962173060894D-06 0.000000000000D+00 0.000000000000D+00 0.106660108478D-06 0.000000000000D+00  6 21 2 25 24 1 21 4 0.22194261D-01 0.48121146D-01 0.37302204D+05 0.37302204D+05 0.37302204D+05 0.12050920D+01  1  2 15  2  6  2        2 0.499615971789D-02 0.100000000000D+01
-.312185589203D-04 0.000000000000D+00 0.000000000000D+00 0.106660108478D-06 0.000000000000D+00  6 21 2 25 24 1 21 4 0.22194261D-01 0.48121146D-01 0.37302204D+05 0.37302204D+05 0.37302204D+05 0.12050920D+01  1  2  4  2  6  2        2 -.162104836300D+00 0.100000000000D+01
  </mgrwgt>
  </event>
  <event>
  5     66 0.42910585E-03 0.74124479E+02 0.75467711E-02 0.10636502E+00
       21 -1    0    0  501  502 0.00000000E+00 0.00000000E+00 0.87710203E+02 0.87713410E+02 0.75000000E+00 0.0000E+00 0.9000E+01
        2 -1    0    0  502    0 -.00000000E+00 -.00000000E+00 -.21897960E+04 0.21897960E+04 0.32000000E+00 0.0000E+00 0.9000E+01
       25  1    1    2    0    0 0.44511483E+02 0.16010328E+03 -.15284659E+04 0.15425457E+04 0.12500000E+03 0.0000E+00 0.9000E+01
       24  1    1    2    0    0 0.15686677E+02 -.20335390E+03 -.61300073E+03 0.65102688E+03 0.80419002E+02 0.0000E+00 0.9000E+01
        1  1    1    2  501    0 -.60198160E+02 0.43250622E+02 0.39380846E+02 0.83936811E+02 0.32000000E+00 0.0000E+00 0.9000E+01
#aMCatNLO 1  0  0  5  1 0.11095792D+02 0.00000000D+00  -5  6  0 0.00000000D+00 0.00000000D+00 0.00000000D+00 0.00000000D+00 0.00000000D+00
  <mgrwgt>
 0.5571443555D-01    4    2    0
 0.438259199409619D+03 0.000000000000000D+00 0.000000000000000D+00 0.438259199409619D+03
 0.438259199409619D+03 -.000000000000000D+00 -.000000000000000D+00 -.438259199409619D+03
 0.342486859994919D+03 0.445114948371399D+02 0.160103271648338D+03 -.272135845680132D+03
 0.221489623373740D+03 0.156866854163391D+02 -.203353907922132D+03 -.314889399840146D+02
 0.312541915450580D+03 -.601981802534790D+02 0.432506362737931D+02 0.303624785664147D+03
 0.000000000000000D+00 0.000000000000000D+00 0.000000000000000D+00 0.000000000000000D+00
 0.438259199409619D+03 0.000000000000000D+00 0.000000000000000D+00 0.438259199409619D+03
 0.438259199409619D+03 -.000000000000000D+00 -.000000000000000D+00 -.438259199409619D+03
 0.309275151660773D+03 0.353259109890658D+02 0.166702845660420D+03 -.225806024490722D+03
 0.214788398326692D+03 0.953801722498362D+01 -.198936269209586D+03 -.476572934723656D+00
 0.216918298450064D+03 -.155885934867388D+03 0.198732936081757D+02 0.149526505055642D+03
 0.135536550381710D+03 0.111022006653338D+03 0.123601299409900D+02 0.767560923698039D+02
0.135257036682D-03 0.000000000000D+00 0.000000000000D+00 0.686328877547D-06 0.000000000000D+00  6 21 2 25 24 1 21 2 0.13494126D-01 0.33689193D+00 0.62826674D+05 0.62826674D+05 0.62826674D+05 0.11825831D+01  1  2  2  3  6  5        1 0.669454071239D-01 0.100000000000D+01
0.173596933305D-04 0.713770992324D-05 -.273044987782D-06 0.686328877547D-06 0.000000000000D+00  6 21 2 25 24 1 21 4 0.13494126D-01 0.33689193D+00 0.62826674D+05 0.62826674D+05 0.62826674D+05 0.11825831D+01  1  2  3  3  6  5        1 0.120161763847D-01 0.100000000000D+01
0.150532156835D-04 0.000000000000D+00 0.000000000000D+00 0.686328877547D-06 0.000000000000D+00  6 21 2 25 24 1 21 4 0.13494126D-01 0.33689193D+00 0.62826674D+05 0.62826674D+05 0.62826674D+05 0.11825831D+01  1  2 15  3  6  5        1 0.104196595739D-01 0.100000000000D+01
-.486382219698D-04 0.000000000000D+00 0.000000000000D+00 0.686328877547D-06 0.000000000000D+00  6 21 2 25 24 1 21 4 0.13494126D-01 0.33689193D+00 0.62826674D+05 0.62826674D+05 0.62826674D+05 0.11825831D+01  1  2  4  3  6  5        1 -.336668075353D-01 0.100000000000D+01
  </mgrwgt>
  </event>
  <event>
  5     66 0.42910585E-03 0.20292407E+02 0.75467711E-02 0.11601302E+00
       21 -1    0    0  501  502 0.00000000E+00 0.00000000E+00 0.43916022E+02 0.43922426E+02 0.75000000E+00 0.0000E+00 0.9000E+01
        2 -1    0    0  502    0 0.00000000E+00 0.00000000E+00 -.72588344E+03 0.72588351E+03 0.32000000E+00 0.0000E+00 0.9000E+01
       25  1    1    2    0    0 -.27246860E+02 0.67621839E+02 -.57711892E+03 0.59498433E+03 0.12500000E+03 0.0000E+00 0.9000E+01
       24  1    1    2    0    0 0.23464714E+02 -.47685167E+02 -.11666657E+03 0.15133662E+03 0.80419002E+02 0.0000E+00 0.9000E+01
        1  1    1    2  501    0 0.37821467E+01 -.19936672E+02 0.11818070E+02 0.23484989E+02 0.32000000E+00 0.0000E+00 0.9000E+01
#aMCatNLO 1  0  0  2  5 0.98669572D+02 0.00000000D+00  -5  6  0 0.00000000D+00 0.00000000D+00 0.00000000D+00 0.00000000D+00 0.00000000D+00
  <mgrwgt>
 0.1226840803D+00    6    2    0
 0.178550847652534D+03 0.000000000000000D+00 0.000000000000000D+00 0.178550847652534D+03
 0.178550847652534D+03 0.000000000000000D+00 0.000000000000000D+00 -.178550847652534D+03
 0.180470315829396D+03 -.272468787338077D+02 0.676219352877497D+02 -.107839771711399D+03
 0.103435504602684D+03 0.234647033326654D+02 -.476851122203610D+02 0.375130034532415D+02
 0.731958748729867D+02 0.378217540114223D+01 -.199368230673887D+02 0.703267682581573D+02
 0.000000000000000D+00 -.000000000000000D+00 -.000000000000000D+00 -.000000000000000D+00
 0.202324849965246D+03 0.000000000000000D+00 0.000000000000000D+00 0.202324849965246D+03
 0.327712598239258D+03 0.000000000000000D+00 0.000000000000000D+00 -.327712598239258D+03
 0.193621931172291D+03 0.113651772121836D+02 0.100527949422319D+03 -.107839771711399D+03
 0.103699731451733D+03 0.448442357528687D+02 -.294650206252970D+02 0.375130034532415D+02
 0.731608676217807D+02 0.188884353532644D+02 -.706294750374813D+01 0.703267682581573D+02
 0.159554917958700D+03 -.750978483183167D+02 -.639999812932744D+02 -.125387748274012D+03
0.259169784416D-05 0.000000000000D+00 0.000000000000D+00 0.266200886586D-05 0.000000000000D+00  6 21 2 25 24 1 21 2 0.67568091D-02 0.11167487D+00 0.17081545D+05 0.17081545D+05 0.17081545D+05 0.12414397D+01  1  2  2  2  6  2        2 0.324281679888D-01 0.100000000000D+01
0.434031379176D-06 0.136767652715D-06 -.523189124610D-08 0.266200886586D-05 0.000000000000D+00  6 21 2 25 24 1 21 4 0.67568091D-02 0.11167487D+00 0.17081545D+05 0.17081545D+05 0.17081545D+05 0.12414397D+01  1  2  3  2  6  2        2 0.836970992478D-02 0.100000000000D+01
0.264223863854D-06 0.000000000000D+00 0.000000000000D+00 0.266200886586D-05 0.000000000000D+00  6 21 2 25 24 1 21 4 0.67568091D-02 0.11167487D+00 0.17081545D+05 0.17081545D+05 0.17081545D+05 0.12414397D+01  1  2 15  2  6  2        2 0.509520095035D-02 0.100000000000D+01
-.563999819522D-05 0.000000000000D+00 -.240307577996D-05 0.266200886586D-05 0.000000000000D+00  6 21 2 25 24 1 21 4 0.67568091D-02 0.21732602D+00 0.17081545D+05 0.17081545D+05 0.17081545D+05 0.12414397D+01  1  2  5  2  6  2        2 -.426391221385D-01 0.100000000000D+01
0.625164828996D-05 0.000000000000D+00 0.195378458845D-05 0.266200886586D-05 0.000000000000D+00  6 21 2 25 24 1 21 4 0.67568091D-02 0.11167487D+00 0.17081545D+05 0.17081545D+05 0.17081545D+05 0.12414397D+01  1  2  6  2  6  2        2 0.120554607913D+00 0.100000000000D+01
-.266285620386D-06 0.000000000000D+00 -.173420412608D-06 0.266200886586D-05 0.000000000000D+00  6 21 21 25 24 1 -2 4 0.67568091D-02 0.21732602D+00 0.17081545D+05 0.17081545D+05 0.17081545D+05 0.12414397D+01  1  2  5 10  6  2        2 -.112448429643D-02 0.100000000000D+01
  </mgrwgt>
  </event>
  <event>
  5     66 0.42910585E-03 0.65260683E+02 0.75467711E-02 0.11619259E+00
       21 -1    0    0  501  502 0.00000000E+00 0.00000000E+00 0.43379130E+02 0.43385613E+02 0.75000000E+00 0.0000E+00 0.9000E+01
        2 -1    0    0  502    0 0.00000000E+00 0.00000000E+00 -.64404587E+03 0.64404595E+03 0.32000000E+00 0.0000E+00 0.9000E+01
       25  1    1    2    0    0 0.21279422E+02 -.38881125E+02 -.26985430E+03 0.30068405E+03 0.12500000E+03 0.0000E+00 0.9000E+01
       24  1    1    2    0    0 -.68167196E+02 0.84272877E+02 -.21679539E+03 0.25537451E+03 0.80419002E+02 0.0000E+00 0.9000E+01
        1  1    1    2  501    0 0.46887774E+02 -.45391752E+02 -.11401705E+03 0.13137300E+03 0.32000000E+00 0.0000E+00 0.9000E+01
#aMCatNLO 1  0  0  1  2 0.37446559D+02 0.00000000D+00  -5  6  0 0.00000000D+00 0.00000000D+00 0.00000000D+00 0.00000000D+00 0.00000000D+00
  <mgrwgt>
 0.8366420520D-01   23    2    0
 0.167153835739358D+03 0.000000000000000D+00 0.000000000000000D+00 0.167153835739358D+03
 0.167153835739358D+03 0.000000000000000D+00 0.000000000000000D+00 -.167153835739358D+03
 0.133431492678465D+03 0.212791972066332D+02 -.388809074732705D+02 -.146435664610549D+02
 0.135596061503241D+03 -.681674241457816D+02 0.842730979862443D+02 0.130507923878277D+02
 0.652801172970111D+02 0.468882269391484D+02 -.453921905129737D+02 0.159277407322722D+01
 0.000000000000000D+00 0.000000000000000D+00 -.000000000000000D+00 0.000000000000000D+00
 0.207692282176441D+03 0.000000000000000D+00 0.000000000000000D+00 0.207692282176441D+03
 0.177075703851926D+03 0.000000000000000D+00 0.000000000000000D+00 -.177075703851926D+03
 0.131274356759062D+03 0.665739885430767D+01 -.367314816513155D+02 -.146435664610549D+02
 0.145371339007459D+03 -.836874766212903D+02 0.865545684829052D+02 0.130507923878277D+02
 0.597526752175715D+02 0.399816765797169D+02 -.443769174716221D+02 0.159277407322722D+01
 0.483696150442734D+02 0.370484011872658D+02 -.544616935996752D+01 0.306165783245149D+02
0.140854924132D-05 0.000000000000D+00 0.000000000000D+00 0.212853443013D-06 0.000000000000D+00  6 21 2 25 24 1 21 2 0.66742171D-02 0.99084484D-01 0.27697739D+05 0.27697739D+05 0.27697739D+05 0.12185548D+01  1  2  2  1  6  1       21 0.200404256015D-01 0.100000000000D+01
-.743138725100D-07 0.743311855984D-07 -.284345509720D-08 0.212853443013D-06 0.000000000000D+00  6 21 2 25 24 1 21 4 0.66742171D-02 0.99084484D-01 0.27697739D+05 0.27697739D+05 0.27697739D+05 0.12185548D+01  1  2  3  1  6  1       21 -.156998292694D-02 0.100000000000D+01
0.127709956169D-06 0.000000000000D+00 0.000000000000D+00 0.212853443013D-06 0.000000000000D+00  6 21 2 25 24 1 21 4 0.66742171D-02 0.99084484D-01 0.27697739D+05 0.27697739D+05 0.27697739D+05 0.12185548D+01  1  2 15  1  6  1       21 0.269804874934D-02 0.100000000000D+01
0.257988050999D-05 0.000000000000D+00 0.000000000000D+00 0.209304643005D-06 0.000000000000D+00  6 21 2 25 24 1 21 4 0.84559237D-02 0.99084484D-01 0.34673679D+05 0.34673679D+05 0.34673679D+05 0.12083539D+01  1  2 12  1  6  1       21 0.350017553985D-01 0.100000000000D+01
-.128981503272D-05 0.000000000000D+00 0.000000000000D+00 0.212853443013D-06 0.000000000000D+00  6 21 2 25 24 1 21 4 0.66742171D-02 0.99084484D-01 0.27697739D+05 0.27697739D+05 0.27697739D+05 0.12185548D+01  1  2  4  1  6  1       21 -.272491193351D-01 0.100000000000D+01
-.898851239458D-05 0.000000000000D+00 -.211200888950D-05 0.212853443013D-06 0.000000000000D+00  6 21 2 25 24 1 21 4 0.87738034D-02 0.99084484D-01 0.27697739D+05 0.27697739D+05 0.27697739D+05 0.12185548D+01  1  2  5  1  6  1       21 -.118295085277D+00 0.100000000000D+01
0.832004647861D-05 0.000000000000D+00 0.182663870774D-05 0.212853443013D-06 0.000000000000D+00  6 21 2 25 24 1 21 4 0.66742171D-02 0.99084484D-01 0.27697739D+05 0.27697739D+05 0.27697739D+05 0.12185548D+01  1  2  6  1  6  1       21 0.175772443039D+00 0.100000000000D+01
0.181516841146D-06 0.000000000000D+00 0.000000000000D+00 0.209304643005D-06 0.000000000000D+00  6 -1 2 25 24 1 -1 4 0.84559237D-02 0.99084484D-01 0.34673679D+05 0.34673679D+05 0.34673679D+05 0.12083539D+01  1  2 12  4  6  1       21 0.159005251385D-03 0.100000000000D+01
-.638848042259D-06 0.000000000000D+00 -.177478238553D-06 0.212853443013D-06 0.000000000000D+00  6 -1 2 25 24 1 -1 4 0.87738034D-02 0.99084484D-01 0.27697739D+05 0.27697739D+05 0.27697739D+05 0.12185548D+01  1  2  5  4  6  1       21 -.544968046787D-03 0.100000000000D+01
0.181516841146D-06 0.000000000000D+00 0.000000000000D+00 0.209304643005D-06 0.000000000000D+00  6 1 2 25 24 1 1 4 0.84559237D-02 0.99084484D-01 0.34673679D+05 0.34673679D+05 0.34673679D+05 0.12083539D+01  1  2 12  5  6  1       21 0.192931931617D-03 0.100000000000D+01
-.638848042259D-06 0.000000000000D+00 -.177478238553D-06 0.212853443013D-06 0.000000000000D+00  6 1 2 25 24 1 1 4 0.87738034D-02 0.99084484D-01 0.27697739D+05 0.27697739D+05 0.27697739D+05 0.12185548D+01  1  2  5  5  6  1       21 -.665822053721D-03 0.100000000000D+01
0.181516841146D-06 0.000000000000D+00 0.000000000000D+00 0.209304643005D-06 0.000000000000D+00  6 -2 2 25 24 1 -2 4 0.84559237D-02 0.99084484D-01 0.34673679D+05 0.34673679D+05 0.34673679D+05 0.12083539D+01  1  2 12  6  6  1       21 0.153107780889D-03 0.100000000000D+01
-.638848042259D-06 0.000000000000D+00 -.177478238553D-06 0.212853443013D-06 0.000000000000D+00  6 -2 2 25 24 1 -2 4 0.87738034D-02 0.99084484D-01 0.27697739D+05 0.27697739D+05 0.27697739D+05 0.12185548D+01  1  2  5  6  6  1       21 -.523957199203D-03 0.100000000000D+01
0.181516841146D-06 0.000000000000D+00 0.000000000000D+00 0.209304643005D-06 0.000000000000D+00  6 2 2 25 24 1 2 4 0.84559237D-02 0.99084484D-01 0.34673679D+05 0.34673679D+05 0.34673679D+05 0.12083539D+01  1  2 12  7  6  1       21 0.215845623217D-03 0.100000000000D+01
-.638848042259D-06 0.000000000000D+00 -.177478238553D-06 0.212853443013D-06 0.000000000000D+00  6 2 2 25 24 1 2 4 0.87738034D-02 0.99084484D-01 0.27697739D+05 0.27697739D+05 0.27697739D+05 0.12185548D+01  1  2  5  7  6  1       21 -.747404870363D-03 0.100000000000D+01
0.181516841146D-06 0.000000000000D+00 0.000000000000D+00 0.209304643005D-06 0.000000000000D+00  6 -3 2 25 24 1 -3 4 0.84559237D-02 0.99084484D-01 0.34673679D+05 0.34673679D+05 0.34673679D+05 0.12083539D+01  1  2 12  8  6  1       21 0.108084457824D-03 0.100000000000D+01
0.181516841146D-06 0.000000000000D+00 0.000000000000D+00 0.209304643005D-06 0.000000000000D+00  6 -4 2 25 24 1 -4 4 0.84559237D-02 0.99084484D-01 0.34673679D+05 0.34673679D+05 0.34673679D+05 0.12083539D+01  1  2 12  8  6  1       21 0.954232043689D-04 0.100000000000D+01
-.638848042259D-06 0.000000000000D+00 -.177478238553D-06 0.212853443013D-06 0.000000000000D+00  6 -3 2 25 24 1 -3 4 0.87738034D-02 0.99084484D-01 0.27697739D+05 0.27697739D+05 0.27697739D+05 0.12185548D+01  1  2  5  8  6  1       21 -.367039911943D-03 0.100000000000D+01
-.638848042259D-06 0.000000000000D+00 -.177478238553D-06 0.212853443013D-06 0.000000000000D+00  6 -4 2 25 24 1 -4 4 0.87738034D-02 0.99084484D-01 0.27697739D+05 0.27697739D+05 0.27697739D+05 0.12185548D+01  1  2  5  8  6  1       21 -.322992662830D-03 0.100000000000D+01
0.181516841146D-06 0.000000000000D+00 0.000000000000D+00 0.209304643005D-06 0.000000000000D+00  6 3 2 25 24 1 3 4 0.84559237D-02 0.99084484D-01 0.34673679D+05 0.34673679D+05 0.34673679D+05 0.12083539D+01  1  2 12  9  6  1       21 0.108071898263D-03 0.100000000000D+01
0.181516841146D-06 0.000000000000D+00 0.000000000000D+00 0.209304643005D-06 0.000000000000D+00  6 4 2 25 24 1 4 4 0.84559237D-02 0.99084484D-01 0.34673679D+05 0.34673679D+05 0.34673679D+05 0.12083539D+01  1  2 12  9  6  1       21 0.954232043689D-04 0.100000000000D+01
-.638848042259D-06 0.000000000000D+00 -.177478238553D-06 0.212853443013D-06 0.000000000000D+00  6 3 2 25 24 1 3 4 0.87738034D-02 0.99084484D-01 0.27697739D+05 0.27697739D+05 0.27697739D+05 0.12185548D+01  1  2  5  9  6  1       21 -.366995997254D-03 0.100000000000D+01
-.638848042259D-06 0.000000000000D+00 -.177478238553D-06 0.212853443013D-06 0.000000000000D+00  6 4 2 25 24 1 4 4 0.87738034D-02 0.99084484D-01 0.27697739D+05 0.27697739D+05 0.27697739D+05 0.12185548D+01  1  2  5  9  6  1       21 -.322992662830D-03 0.100000000000D+01
  </mgrwgt>
  </event>
  <event>
  5     66 0.42910585E-03 0.57011988E+02 0.75467711E-02 0.11920204E+00
       21 -1    0    0  501  502 0.00000000E+00 0.00000000E+00 0.53962679E+03 0.53962731E+03 0.75000000E+00 0.0000E+00 0.9000E+01
        2 -1    0    0  502    0 0.00000000E+00 0.00000000E+00 -.90316689E+03 0.90316695E+03 0.32000000E+00 0.0000E+00 0.9000E+01
       25  1    1    2    0    0 -.66444651E+02 0.31774081E+02 -.69950399E+03 0.71439157E+03 0.12500000E+03 0.0000E+00 0.9000E+01
       24  1    1    2    0    0 0.21653416E+02 0.13287961E+02 -.18513769E+03 0.20344194E+03 0.80419002E+02 0.0000E+00 0.9000E+01
        1  1    1    2  501    0 0.44791235E+02 -.45062042E+02 0.52110157E+03 0.52496076E+03 0.32000000E+00 0.0000E+00 0.9000E+01
#aMCatNLO 1  0  0  1  2 0.28580928D+02 0.00000000D+00  -5  6  0 0.00000000D+00 0.00000000D+00 0.00000000D+00 0.00000000D+00 0.00000000D+00
  <mgrwgt>
 0.1097672315D+01   23    2    0
 0.698121384686608D+03 0.000000000000000D+00 0.000000000000000D+00 0.698121384686608D+03
 0.698121384686608D+03 0.000000000000000D+00 0.000000000000000D+00 -.698121384686608D+03
 0.556079758559106D+03 -.664446530307219D+02 0.317740829165248D+02 -.536819535428429D+03
 0.162020457418609D+03 0.216534157356967D+02 0.132879617115527D+02 -.138340060460786D+03
 0.678142553395501D+03 0.447912372950251D+02 -.450620446280775D+02 0.675159595889215D+03
 0.000000000000000D+00 0.000000000000000D+00 -.000000000000000D+00 0.000000000000000D+00
 0.877223153098469D+03 0.000000000000000D+00 0.000000000000000D+00 0.877223153098469D+03
 0.699408794112319D+03 0.000000000000000D+00 0.000000000000000D+00 -.699408794112319D+03
 0.557241325018191D+03 -.700270514144260D+02 0.425898199178652D+02 -.536819535428429D+03
 0.162173240843377D+03 0.206102387063630D+02 0.164374518538097D+02 -.138340060460786D+03
 0.677120697020006D+03 0.404303274466444D+02 -.318958780115461D+02 0.675159595889215D+03
 0.180096684329213D+03 0.898648526141861D+01 -.271313937601288D+02 0.177814358986150D+03
0.207511079034D-03 0.000000000000D+00 0.000000000000D+00 0.290156432866D-04 0.000000000000D+00  6 21 2 25 24 1 21 2 0.83019550D-01 0.13894880D+00 0.21455969D+05 0.21455969D+05 0.21455969D+05 0.12304803D+01  1  2  2  1  6  1       21 0.157919439626D-01 0.100000000000D+01
0.522960098649D-04 0.109506604930D-04 -.418905081978D-06 0.290156432866D-04 0.000000000000D+00  6 21 2 25 24 1 21 4 0.83019550D-01 0.13894880D+00 0.21455969D+05 0.21455969D+05 0.21455969D+05 0.12304803D+01  1  2  3  1  6  1       21 0.602576545053D-02 0.100000000000D+01
0.214602114151D-04 0.000000000000D+00 0.000000000000D+00 0.290156432866D-04 0.000000000000D+00  6 21 2 25 24 1 21 4 0.83019550D-01 0.13894880D+00 0.21455969D+05 0.21455969D+05 0.21455969D+05 0.12304803D+01  1  2 15  1  6  1       21 0.247273550774D-02 0.100000000000D+01
0.100056224262D-01 0.000000000000D+00 0.000000000000D+00 0.287062447606D-04 0.000000000000D+00  6 21 2 25 24 1 21 4 0.10438141D+00 0.13894880D+00 0.24677659D+05 0.24677659D+05 0.24677659D+05 0.12239024D+01  1  2 12  1  6  1       21 0.657628872015D+00 0.100000000000D+01
-.215206394390D-02 0.000000000000D+00 0.000000000000D+00 0.290156432866D-04 0.000000000000D+00  6 21 2 25 24 1 21 4 0.83019550D-01 0.13894880D+00 0.21455969D+05 0.21455969D+05 0.21455969D+05 0.12304803D+01  1  2  4  1  6  1       21 -.247969827793D+00 0.100000000000D+01
-.199466983967D-01 0.000000000000D+00 -.321739874077D-03 0.290156432866D-04 0.000000000000D+00  6 21 2 25 24 1 21 4 0.10439667D+00 0.13894880D+00 0.21455969D+05 0.21455969D+05 0.21455969D+05 0.12304803D+01  1  2  5  1  6  1       21 -.135245688301D+01 0.100000000000D+01
0.181074635534D-01 0.000000000000D+00 0.290317705959D-03 0.290156432866D-04 0.000000000000D+00  6 21 2 25 24 1 21 4 0.83019550D-01 0.13894880D+00 0.21455969D+05 0.21455969D+05 0.21455969D+05 0.12304803D+01  1  2  6  1  6  1       21 0.208641784638D+01 0.100000000000D+01
0.667929239811D-03 0.000000000000D+00 0.000000000000D+00 0.287062447606D-04 0.000000000000D+00  6 -1 2 25 24 1 -1 4 0.10438141D+00 0.13894880D+00 0.24677659D+05 0.24677659D+05 0.24677659D+05 0.12239024D+01  1  2 12  4  6  1       21 0.502955332109D-02 0.100000000000D+01
-.131852351219D-02 0.000000000000D+00 -.217658045273D-04 0.290156432866D-04 0.000000000000D+00  6 -1 2 25 24 1 -1 4 0.10439667D+00 0.13894880D+00 0.21455969D+05 0.21455969D+05 0.21455969D+05 0.12304803D+01  1  2  5  4  6  1       21 -.102027560115D-01 0.100000000000D+01
0.667929239811D-03 0.000000000000D+00 0.000000000000D+00 0.287062447606D-04 0.000000000000D+00  6 1 2 25 24 1 1 4 0.10438141D+00 0.13894880D+00 0.24677659D+05 0.24677659D+05 0.24677659D+05 0.12239024D+01  1  2 12  5  6  1       21 0.191988263529D-01 0.100000000000D+01
-.131852351219D-02 0.000000000000D+00 -.217658045273D-04 0.290156432866D-04 0.000000000000D+00  6 1 2 25 24 1 1 4 0.10439667D+00 0.13894880D+00 0.21455969D+05 0.21455969D+05 0.21455969D+05 0.12304803D+01  1  2  5  5  6  1       21 -.389369726826D-01 0.100000000000D+01
0.667929239811D-03 0.000000000000D+00 0.000000000000D+00 0.287062447606D-04 0.000000000000D+00  6 -2 2 25 24 1 -2 4 0.10438141D+00 0.13894880D+00 0.24677659D+05 0.24677659D+05 0.24677659D+05 0.12239024D+01  1  2 12  6  6  1       21 0.371871291536D-02 0.100000000000D+01
-.131852351219D-02 0.000000000000D+00 -.217658045273D-04 0.290156432866D-04 0.000000000000D+00  6 -2 2 25 24 1 -2 4 0.10439667D+00 0.13894880D+00 0.21455969D+05 0.21455969D+05 0.21455969D+05 0.12304803D+01  1  2  5  6  6  1       21 -.753633463628D-02 0.100000000000D+01
0.667929239811D-03 0.000000000000D+00 0.000000000000D+00 0.287062447606D-04 0.000000000000D+00  6 2 2 25 24 1 2 4 0.10438141D+00 0.13894880D+00 0.24677659D+05 0.24677659D+05 0.24677659D+05 0.12239024D+01  1  2 12  7  6  1       21 0.320318238706D-01 0.100000000000D+01
-.131852351219D-02 0.000000000000D+00 -.217658045273D-04 0.290156432866D-04 0.000000000000D+00  6 2 2 25 24 1 2 4 0.10439667D+00 0.13894880D+00 0.21455969D+05 0.21455969D+05 0.21455969D+05 0.12304803D+01  1  2  5  7  6  1       21 -.649184851599D-01 0.100000000000D+01
0.667929239811D-03 0.000000000000D+00 0.000000000000D+00 0.287062447606D-04 0.000000000000D+00  6 -3 2 25 24 1 -3 4 0.10438141D+00 0.13894880D+00 0.24677659D+05 0.24677659D+05 0.24677659D+05 0.12239024D+01  1  2 12  8  6  1       21 0.234803005668D-02 0.100000000000D+01
0.667929239811D-03 0.000000000000D+00 0.000000000000D+00 0.287062447606D-04 0.000000000000D+00  6 -4 2 25 24 1 -4 4 0.10438141D+00 0.13894880D+00 0.24677659D+05 0.24677659D+05 0.24677659D+05 0.12239024D+01  1  2 12  8  6  1       21 0.187619179574D-02 0.100000000000D+01
-.131852351219D-02 0.000000000000D+00 -.217658045273D-04 0.290156432866D-04 0.000000000000D+00  6 -3 2 25 24 1 -3 4 0.10439667D+00 0.13894880D+00 0.21455969D+05 0.21455969D+05 0.21455969D+05 0.12304803D+01  1  2  5  8  6  1       21 -.474618667111D-02 0.100000000000D+01
-.131852351219D-02 0.000000000000D+00 -.217658045273D-04 0.290156432866D-04 0.000000000000D+00  6 -4 2 25 24 1 -4 4 0.10439667D+00 0.13894880D+00 0.21455969D+05 0.21455969D+05 0.21455969D+05 0.12304803D+01  1  2  5  8  6  1       21 -.378674984251D-02 0.100000000000D+01
0.667929239811D-03 0.000000000000D+00 0.000000000000D+00 0.287062447606D-04 0.000000000000D+00  6 3 2 25 24 1 3 4 0.10438141D+00 0.13894880D+00 0.24677659D+05 0.24677659D+05 0.24677659D+05 0.12239024D+01  1  2 12  9  6  1       21 0.235300312773D-02 0.100000000000D+01
0.667929239811D-03 0.000000000000D+00 0.000000000000D+00 0.287062447606D-04 0.000000000000D+00  6 4 2 25 24 1 4 4 0.10438141D+00 0.13894880D+00 0.24677659D+05 0.24677659D+05 0.24677659D+05 0.12239024D+01  1  2 12  9  6  1       21 0.187619179574D-02 0.100000000000D+01
-.131852351219D-02 0.000000000000D+00 -.217658045273D-04 0.290156432866D-04 0.000000000000D+00  6 3 2 25 24 1 3 4 0.10439667D+00 0.13894880D+00 0.21455969D+05 0.21455969D+05 0.21455969D+05 0.12304803D+01  1  2  5  9  6  1       21 -.475623603132D-02 0.100000000000D+01
-.131852351219D-02 0.000000000000D+00 -.217658045273D-04 0.290156432866D-04 0.000000000000D+00  6 4 2 25 24 1 4 4 0.10439667D+00 0.13894880D+00 0.21455969D+05 0.21455969D+05 0.21455969D+05 0.12304803D+01  1  2  5  9  6  1       21 -.378674984251D-02 0.100000000000D+01
  </mgrwgt>
  </event>
  <event>
  6     66 0.42910585E-03 0.32477326E+02 0.75467711E-02 0.11875739E+00
       21 -1    0    0  501  502 0.00000000E+00 0.00000000E+00 0.11688618E+02 0.11712655E+02 0.75000000E+00 0.0000E+00 0.9000E+01
        2 -1    0    0  502    0 -.00000000E+00 -.00000000E+00 -.34558004E+04 0.34558004E+04 0.32000000E+00 0.0000E+00 0.9000E+01
       25  1    1    2    0    0 -.76883442E+02 0.33996294E+02 -.78218097E+03 0.79655438E+03 0.12500000E+03 0.0000E+00 0.9000E+01
       24  1    1    2    0    0 0.73591397E+02 -.71473272E+02 -.25156791E+04 0.25190539E+04 0.80419002E+02 0.0000E+00 0.9000E+01
        1  1    1    2  503    0 0.94832736E+01 0.28709551E+02 -.10419961E+03 0.10849807E+03 0.32000000E+00 0.0000E+00 0.9000E+01
       21  1    1    2  501  503 -.61912284E+01 0.87674274E+01 -.42052129E+02 0.43406718E+02 0.75000000E+00 0.0000E+00 0.9000E+01
#aMCatNLO 2  0  0  5  1 0.70280128D+01 0.00000000D+00  -5  6  0 0.00000000D+00 0.00000000D+00 0.00000000D+00 0.00000000D+00 0.00000000D+00
  <mgrwgt>
 0.6436448107D-01    3    2    0
 0.201085129331521D+03 0.000000000000000D+00 0.000000000000000D+00 0.201085129331521D+03
 0.201085129331521D+03 -.000000000000000D+00 -.000000000000000D+00 -.201085129331521D+03
 0.168992658966609D+03 -.769444945444539D+02 0.333012644643789D+02 0.768380721320927D+02
 0.176262787701354D+03 0.735279432742740D+02 -.721956323331990D+02 -.118248833413894D+03
 0.569148119950789D+02 0.341655127017983D+01 0.388943678688201D+02 0.414107612818010D+02
 0.000000000000000D+00 0.000000000000000D+00 0.000000000000000D+00 0.000000000000000D+00
 0.201085129331521D+03 0.000000000000000D+00 0.000000000000000D+00 0.201085129331521D+03
 0.201085129331521D+03 -.000000000000000D+00 -.000000000000000D+00 -.201085129331521D+03
 0.169443349565521D+03 -.768830899094073D+02 0.340003010880050D+02 0.775823351278520D+02
 0.175474355469518D+03 0.735917612202497D+02 -.714691223319954D+02 -.117475319564018D+03
 0.429428339967279D+02 0.955728665936664D+01 0.285702495359264D+02 0.306020604671666D+02
 0.143097196312756D+02 -.626595797020906D+01 0.889857170806402D+01 0.929092396899952D+01
-.195536521415D-04 0.000000000000D+00 0.000000000000D+00 0.356465091462D-06 0.000000000000D+00  6 21 2 25 24 1 21 4 0.18000990D-02 0.53166345D+00 0.25920556D+05 0.25920556D+05 0.25920556D+05 0.12216175D+01  1  2 13  3  6  5        1 -.931300840216D-01 0.100000000000D+01
-.523832107576D-05 0.000000000000D+00 0.000000000000D+00 0.356756297156D-06 0.000000000000D+00  6 21 2 25 24 1 21 4 0.18000990D-02 0.53166345D+00 0.25643318D+05 0.25643318D+05 0.25643318D+05 0.12221164D+01  1  2  8  3  6  5        1 -.250015694908D-01 0.100000000000D+01
0.383170054057D-04 0.000000000000D+00 0.000000000000D+00 0.356756297156D-06 0.579847333843D-07  6 21 2 25 24 1 21 4 0.18000990D-02 0.53166345D+00 0.25920556D+05 0.25920556D+05 0.25920556D+05 0.12216175D+01  1  2  1  3  6  5        1 0.182496134587D+00 0.100000000000D+01
  </mgrwgt>
  </event>
  <event>
  5     66 0.42910585E-03 0.31843316E+02 0.75467711E-02 0.12072752E+00
       21 -1    0    0  501  502 0.00000000E+00 0.00000000E+00 0.13454365E+02 0.13475253E+02 0.75000000E+00 0.0000E+00 0.9000E+01
        2 -1    0    0  502    0 0.00000000E+00 0.00000000E+00 -.38391495E+04 0.38391495E+04 0.32000000E+00 0.0000E+00 0.9000E+01
       25  1    1    2    0    0 -.18237952E+02 0.16251470E+01 -.33771767E+04 0.33795389E+04 0.12500000E+03 0.0000E+00 0.9000E+01
       24  1    1    2    0    0 0.49953801E+02 0.12202742E+01 -.41933762E+03 0.42989315E+03 0.80419002E+02 0.0000E+00 0.9000E+01
        1  1    1    2  501    0 -.31715849E+02 -.28454212E+01 -.29180744E+02 0.43192704E+02 0.32000000E+00 0.0000E+00 0.9000E+01
#aMCatNLO 1  0  0  2  1 0.31573054D+02 0.00000000D+00  -5  6  0 0.00000000D+00 0.00000000D+00 0.00000000D+00 0.00000000D+00 0.00000000D+00
  <mgrwgt>
 0.4103562890D+00    9    2    0
 0.227362223499315D+03 0.000000000000000D+00 0.000000000000000D+00 0.227362223499315D+03
 0.227362223499315D+03 0.000000000000000D+00 0.000000000000000D+00 -.227362223499315D+03
 0.220015904125775D+03 -.182378981231008D+02 0.162515189558084D+01 -.180129775499915D+03
 0.114265050288645D+03 0.499538292061279D+02 0.122027670245158D+01 0.639719597598081D+02
 0.120443492584210D+03 -.317159310830271D+02 -.284542859803242D+01 0.116157815740107D+03
 0.000000000000000D+00 0.000000000000000D+00 -.000000000000000D+00 -.000000000000000D+00
 0.240548457769055D+03 0.000000000000000D+00 0.000000000000000D+00 0.240548457769055D+03
 0.247627766011382D+03 0.000000000000000D+00 0.000000000000000D+00 -.247627766011382D+03
 0.221258278861281D+03 -.256566735309296D+02 0.150074996696253D+02 -.180129775499915D+03
 0.112932571214571D+03 0.461341447738422D+02 0.811040919062604D+01 0.639719597598081D+02
 0.121628390885081D+03 -.357856840965667D+02 0.449578975509074D+01 0.116157815740107D+03
 0.323569828195029D+02 0.153082128536541D+02 -.276136986153421D+02 -.707930824232689D+01
0.393907519495D-04 0.000000000000D+00 0.000000000000D+00 0.119999593536D-05 0.000000000000D+00  6 21 2 25 24 1 21 2 0.20715101D-02 0.59063999D+00 0.15984055D+05 0.15984055D+05 0.15984055D+05 0.12446888D+01  1  2  2  2  6  2        2 0.586518673509D-01 0.100000000000D+01
0.408805786324D-05 0.207870708963D-05 -.795185792074D-07 0.119999593536D-05 0.000000000000D+00  6 21 2 25 24 1 21 4 0.20715101D-02 0.59063999D+00 0.15984055D+05 0.15984055D+05 0.15984055D+05 0.12446888D+01  1  2  3  2  6  2        2 0.943031458657D-02 0.100000000000D+01
0.427849861324D-05 0.000000000000D+00 0.000000000000D+00 0.119999593536D-05 0.000000000000D+00  6 21 2 25 24 1 21 4 0.20715101D-02 0.59063999D+00 0.15984055D+05 0.15984055D+05 0.15984055D+05 0.12446888D+01  1  2 15  2  6  2        2 0.986962250313D-02 0.100000000000D+01
0.105818643565D-03 0.000000000000D+00 0.000000000000D+00 0.117509874061D-05 0.000000000000D+00  6 21 2 25 24 1 21 4 0.20715101D-02 0.65914823D+00 0.20907975D+05 0.20907975D+05 0.20907975D+05 0.12317089D+01  1  2 12  2  6  2        2 0.104819862076D+00 0.100000000000D+01
-.555563090114D-04 0.000000000000D+00 0.000000000000D+00 0.119999593536D-05 0.000000000000D+00  6 21 2 25 24 1 21 4 0.20715101D-02 0.59063999D+00 0.15984055D+05 0.15984055D+05 0.15984055D+05 0.12446888D+01  1  2  4  2  6  2        2 -.128157058626D+00 0.100000000000D+01
-.293725775754D-03 0.000000000000D+00 -.724301315247D-04 0.119999593536D-05 0.000000000000D+00  6 21 2 25 24 1 21 4 0.20715101D-02 0.65068338D+00 0.15984055D+05 0.15984055D+05 0.15984055D+05 0.12446888D+01  1  2  5  2  6  2        2 -.342738876107D+00 0.100000000000D+01
0.302846990602D-03 0.000000000000D+00 0.753423835573D-04 0.119999593536D-05 0.000000000000D+00  6 21 2 25 24 1 21 4 0.20715101D-02 0.59063999D+00 0.15984055D+05 0.15984055D+05 0.15984055D+05 0.12446888D+01  1  2  6  2  6  2        2 0.698606156888D+00 0.100000000000D+01
0.186147368822D-05 0.000000000000D+00 0.000000000000D+00 0.117509874061D-05 0.000000000000D+00  6 21 21 25 24 1 -2 4 0.20715101D-02 0.65914823D+00 0.20907975D+05 0.20907975D+05 0.20907975D+05 0.12317089D+01  1  2 12 10  6  2        2 0.616219116757D-04 0.100000000000D+01
-.441414355498D-05 0.000000000000D+00 -.114393691700D-05 0.119999593536D-05 0.000000000000D+00  6 21 21 25 24 1 -2 4 0.20715101D-02 0.65068338D+00 0.15984055D+05 0.15984055D+05 0.15984055D+05 0.12446888D+01  1  2  5 10  6  2        2 -.187221554946D-03 0.100000000000D+01
  </mgrwgt>
  </event>
  <event>
  5     66 0.42910585E-03 0.41207193E+02 0.75467711E-02 0.11832173E+00
       21 -1    0    0  501  502 0.00000000E+00 0.00000000E+00 0.22442075E+02 0.22454604E+02 0.75000000E+00 0.0000E+00 0.9000E+01
        2 -1    0    0  502    0 -.00000000E+00 -.00000000E+00 -.19039732E+04 0.19039733E+04 0.32000000E+00 0.0000E+00 0.9000E+01
       25  1    1    2    0    0 0.46384472E+02 0.79709571E+02 -.47428127E+03 0.49907200E+03 0.12500000E+03 0.0000E+00 0.9000E+01
       24  1    1    2    0    0 0.33447388E+01 -.62071695E+01 -.18448050E+03 0.20137028E+03 0.80419002E+02 0.0000E+00 0.9000E+01
        1  1    1    2  501    0 -.49729210E+02 -.73502402E+02 -.12227694E+04 0.12259856E+04 0.32000000E+00 0.0000E+00 0.9000E+01
#aMCatNLO 1  0  0  5  1 0.47662992D+02 0.00000000D+00  -5  6  0 0.00000000D+00 0.00000000D+00 0.00000000D+00 0.00000000D+00 0.00000000D+00
  <mgrwgt>
 0.5585857270D-01    7    2    0
 0.206739459065864D+03 0.000000000000000D+00 0.000000000000000D+00 0.206739459065864D+03
 0.206739459065864D+03 -.000000000000000D+00 -.000000000000000D+00 -.206739459065864D+03
 0.167000653676437D+03 0.463845188086599D+02 0.797096407834732D+02 0.613112380352584D+02
 0.987221112641616D+02 0.334476663298194D+01 -.620712838399443D+01 0.568253762986085D+02
 0.147756153191130D+03 -.497292854416419D+02 -.735025123994787D+02 -.118136614333867D+03
 0.000000000000000D+00 0.000000000000000D+00 0.000000000000000D+00 -.000000000000000D+00
 0.206739459065864D+03 0.000000000000000D+00 0.000000000000000D+00 0.206739459065864D+03
 0.206739459065864D+03 -.000000000000000D+00 -.000000000000000D+00 -.206739459065864D+03
 0.159169916718876D+03 0.419874967611353D+02 0.732106097859691D+02 0.508656968771111D+02
 0.955513273344506D+02 0.725816089003640D+00 -.100780757165936D+02 0.506038119301337D+02
 0.771975161956055D+02 -.585589764862659D+02 -.443722427182318D+02 -.236940257408075D+02
 0.815601578827967D+02 0.158456636361269D+02 -.187602913511436D+02 -.777754830664372D+02
0.737330628674D-05 0.000000000000D+00 0.000000000000D+00 0.194720777301D-06 0.000000000000D+00  6 21 2 25 24 1 21 2 0.34535927D-02 0.29291993D+00 0.26375552D+05 0.26375552D+05 0.26375552D+05 0.12208115D+01  1  2  2  3  6  5        1 0.598742886542D-01 0.100000000000D+01
-.971947899773D-06 0.389100062672D-06 -.148845810492D-07 0.194720777301D-06 0.000000000000D+00  6 21 2 25 24 1 21 4 0.34535927D-02 0.29291993D+00 0.26375552D+05 0.26375552D+05 0.26375552D+05 0.12208115D+01  1  2  3  3  6  5        1 -.117630064212D-01 0.100000000000D+01
0.828635120499D-06 0.000000000000D+00 0.000000000000D+00 0.194720777301D-06 0.000000000000D+00  6 21 2 25 24 1 21 4 0.34535927D-02 0.29291993D+00 0.26375552D+05 0.26375552D+05 0.26375552D+05 0.12208115D+01  1  2 15  3  6  5        1 0.100285624831D-01 0.100000000000D+01
0.272164896194D-05 0.000000000000D+00 0.000000000000D+00 0.194262690558D-06 0.000000000000D+00  6 21 2 25 24 1 21 4 0.34535927D-02 0.29291993D+00 0.27208997D+05 0.27208997D+05 0.27208997D+05 0.12193747D+01  1  2 12  3  6  5        1 0.327648261913D-01 0.100000000000D+01
-.432258721926D-05 0.000000000000D+00 0.000000000000D+00 0.194720777301D-06 0.000000000000D+00  6 21 2 25 24 1 21 4 0.34535927D-02 0.29291993D+00 0.26375552D+05 0.26375552D+05 0.26375552D+05 0.12208115D+01  1  2  4  3  6  5        1 -.523141427932D-01 0.100000000000D+01
-.214339853283D-05 0.000000000000D+00 0.000000000000D+00 0.194720777301D-06 0.000000000000D+00  6 21 2 25 24 1 21 4 0.34535927D-02 0.29291993D+00 0.26375552D+05 0.26375552D+05 0.26375552D+05 0.12208115D+01  1  2  5  3  6  5        1 -.259404961014D-01 0.100000000000D+01
0.357021401452D-05 0.000000000000D+00 -.000000000000D+00 0.194720777301D-06 0.000000000000D+00  6 21 2 25 24 1 21 4 0.34535927D-02 0.29291993D+00 0.26375552D+05 0.26375552D+05 0.26375552D+05 0.12208115D+01  1  2  6  3  6  5        1 0.432085406919D-01 0.100000000000D+01
  </mgrwgt>
  </event>
  <event>
  5     66 0.42910585E-03 0.55060091E+02 0.75467711E-02 0.11617871E+00
       21 -1    0    0  501  502 0.00000000E+00 0.00000000E+00 0.55951031E+02 0.55956057E+02 0.75000000E+00 0.0000E+00 0.9000E+01
        2 -1    0    0  502    0 0.00000000E+00 0.00000000E+00 -.14982304E+04 0.14982305E+04 0.32000000E+00 0.0000E+00 0.9000E+01
       25  1    1    2    0    0 0.61418034E+02 0.53356679E+02 -.52015038E+03 0.54111046E+03 0.12500000E+03 0.0000E+00 0.9000E+01
       24  1    1    2    0    0 -.11835451E+03 -.67511726E+02 -.93883492E+03 0.95207344E+03 0.80419002E+02 0.0000E+00 0.9000E+01
        1  1    1    2  501    0 0.56936480E+02 0.14155047E+02 0.16705911E+02 0.61002606E+02 0.32000000E+00 0.0000E+00 0.9000E+01
#aMCatNLO 1  0  0  1  2 0.71955315D+01 0.00000000D+00  -5  6  0 0.00000000D+00 0.00000000D+00 0.00000000D+00 0.00000000D+00 0.00000000D+00
  <mgrwgt>
 0.2536825409D+00   32    2    0
 0.289536644610700D+03 0.000000000000000D+00 0.000000000000000D+00 0.289536644610700D+03
 0.289536644610700D+03 0.000000000000000D+00 0.000000000000000D+00 -.289536644610700D+03
 0.156775335287187D+03 0.614180148988619D+02 0.533566743784695D+02 -.483156134139175D+02
 0.216963033048401D+03 -.118354539385952D+03 -.675117327000904D+02 -.148459121342415D+03
 0.205334920885812D+03 0.569365244870897D+02 0.141550583216209D+02 0.196774734756333D+03
 0.000000000000000D+00 0.000000000000000D+00 0.000000000000000D+00 0.000000000000000D+00
 0.294854552588805D+03 0.000000000000000D+00 0.000000000000000D+00 0.294854552588805D+03
 0.292003294857920D+03 0.000000000000000D+00 0.000000000000000D+00 -.292003294857920D+03
 0.155904524467413D+03 0.607578105171950D+02 0.515297070727540D+02 -.483156134139175D+02
 0.218268561851048D+03 -.119273504253782D+03 -.700547615185111D+02 -.148459121342415D+03
 0.204944906808956D+03 0.560702437481697D+02 0.117578209940194D+02 0.196774734756333D+03
 0.773985431930755D+01 0.244544998841703D+01 0.676723345173778D+01 0.285125773088580D+01
0.115203818650D-04 0.000000000000D+00 0.000000000000D+00 0.118832722699D-05 0.000000000000D+00  6 21 2 25 24 1 21 2 0.86082401D-02 0.23049738D+00 0.33494857D+05 0.33494857D+05 0.33494857D+05 0.12099075D+01  1  2  2  1  6  1       21 0.314102147269D-01 0.100000000000D+01
0.118069030931D-05 0.607947253422D-06 -.232563318162D-07 0.118832722699D-05 0.000000000000D+00  6 21 2 25 24 1 21 4 0.86082401D-02 0.23049738D+00 0.33494857D+05 0.33494857D+05 0.33494857D+05 0.12099075D+01  1  2  3  1  6  1       21 0.471242410381D-02 0.100000000000D+01
0.136602037581D-05 0.000000000000D+00 0.000000000000D+00 0.118832722699D-05 0.000000000000D+00  6 21 2 25 24 1 21 4 0.86082401D-02 0.23049738D+00 0.33494857D+05 0.33494857D+05 0.33494857D+05 0.12099075D+01  1  2 15  1  6  1       21 0.545212177528D-02 0.100000000000D+01
0.136278194563D-04 0.000000000000D+00 0.000000000000D+00 0.118513576568D-05 0.000000000000D+00  6 21 2 25 24 1 21 4 0.88025189D-02 0.23049738D+00 0.34729594D+05 0.34729594D+05 0.34729594D+05 0.12082817D+01  1  2 12  1  6  1       21 0.519790956559D-01 0.100000000000D+01
-.533061464587D-05 0.000000000000D+00 0.000000000000D+00 0.118832722699D-05 0.000000000000D+00  6 21 2 25 24 1 21 4 0.86082401D-02 0.23049738D+00 0.33494857D+05 0.33494857D+05 0.33494857D+05 0.12099075D+01  1  2  4  1  6  1       21 -.212757881955D-01 0.100000000000D+01
-.956763483240D-03 0.000000000000D+00 -.133357572535D-03 0.118832722699D-05 0.000000000000D+00  6 21 2 25 24 1 21 4 0.88452576D-02 0.23049738D+00 0.33494857D+05 0.33494857D+05 0.33494857D+05 0.12099075D+01  1  2  5  1  6  1       21 -.364160842947D+01 0.100000000000D+01
0.958920886635D-03 0.000000000000D+00 0.133161008945D-03 0.118832722699D-05 0.000000000000D+00  6 21 2 25 24 1 21 4 0.86082401D-02 0.23049738D+00 0.33494857D+05 0.33494857D+05 0.33494857D+05 0.12099075D+01  1  2  6  1  6  1       21 0.382728804006D+01 0.100000000000D+01
0.100824382936D-05 0.000000000000D+00 0.000000000000D+00 0.118832722699D-05 0.183518578208D-06  6 21 2 25 24 1 21 4 0.87663473D-02 0.23246105D+00 0.34729594D+05 0.34729594D+05 0.34729594D+05 0.12082817D+01  1  2 11  1  6  1       21 0.381381351140D-02 0.100000000000D+01
0.616676256786D-06 0.000000000000D+00 0.000000000000D+00 0.118513576568D-05 0.000000000000D+00  6 -1 2 25 24 1 -1 4 0.88025189D-02 0.23049738D+00 0.34729594D+05 0.34729594D+05 0.34729594D+05 0.12082817D+01  1  2 12  4  6  1       21 0.153228536033D-03 0.100000000000D+01
-.523937464937D-05 0.000000000000D+00 -.837796157155D-06 0.118832722699D-05 0.000000000000D+00  6 -1 2 25 24 1 -1 4 0.88452576D-02 0.23049738D+00 0.33494857D+05 0.33494857D+05 0.33494857D+05 0.12099075D+01  1  2  5  4  6  1       21 -.129962212130D-02 0.100000000000D+01
0.441944998199D-07 0.000000000000D+00 0.000000000000D+00 0.118832722699D-05 0.653446137909D-08  6 -1 2 25 24 1 -1 4 0.87663473D-02 0.23246105D+00 0.34729594D+05 0.34729594D+05 0.34729594D+05 0.12082817D+01  1  2 11  4  6  1       21 0.108804082360D-04 0.100000000000D+01
0.616676256786D-06 0.000000000000D+00 0.000000000000D+00 0.118513576568D-05 0.000000000000D+00  6 1 2 25 24 1 1 4 0.88025189D-02 0.23049738D+00 0.34729594D+05 0.34729594D+05 0.34729594D+05 0.12082817D+01  1  2 12  5  6  1       21 0.187257971579D-03 0.100000000000D+01
-.523937464937D-05 0.000000000000D+00 -.837796157155D-06 0.118832722699D-05 0.000000000000D+00  6 1 2 25 24 1 1 4 0.88452576D-02 0.23049738D+00 0.33494857D+05 0.33494857D+05 0.33494857D+05 0.12099075D+01  1  2  5  5  6  1       21 -.158972581905D-02 0.100000000000D+01
0.295712418657D-07 0.000000000000D+00 0.000000000000D+00 0.118832722699D-05 0.946016258709D-09  6 1 2 25 24 1 1 4 0.87663473D-02 0.23246105D+00 0.34729594D+05 0.34729594D+05 0.34729594D+05 0.12082817D+01  1  2 11  5  6  1       21 0.889045193236D-05 0.100000000000D+01
0.616676256786D-06 0.000000000000D+00 0.000000000000D+00 0.118513576568D-05 0.000000000000D+00  6 -2 2 25 24 1 -2 4 0.88025189D-02 0.23049738D+00 0.34729594D+05 0.34729594D+05 0.34729594D+05 0.12082817D+01  1  2 12  6  6  1       21 0.147317892325D-03 0.100000000000D+01
-.523937464937D-05 0.000000000000D+00 -.837796157155D-06 0.118832722699D-05 0.000000000000D+00  6 -2 2 25 24 1 -2 4 0.88452576D-02 0.23049738D+00 0.33494857D+05 0.33494857D+05 0.33494857D+05 0.12099075D+01  1  2  5  6  6  1       21 -.124923119284D-02 0.100000000000D+01
0.278498253312D-07 0.000000000000D+00 0.000000000000D+00 0.118832722699D-05 0.121810610633D-08  6 -2 2 25 24 1 -2 4 0.87663473D-02 0.23246105D+00 0.34729594D+05 0.34729594D+05 0.34729594D+05 0.12082817D+01  1  2 11  6  6  1       21 0.659303301597D-05 0.100000000000D+01
0.616676256786D-06 0.000000000000D+00 0.000000000000D+00 0.118513576568D-05 0.000000000000D+00  6 2 2 25 24 1 2 4 0.88025189D-02 0.23049738D+00 0.34729594D+05 0.34729594D+05 0.34729594D+05 0.12082817D+01  1  2 12  7  6  1       21 0.210263506761D-03 0.100000000000D+01
-.523937464937D-05 0.000000000000D+00 -.837796157155D-06 0.118832722699D-05 0.000000000000D+00  6 2 2 25 24 1 2 4 0.88452576D-02 0.23049738D+00 0.33494857D+05 0.33494857D+05 0.33494857D+05 0.12099075D+01  1  2  5  7  6  1       21 -.178583057276D-02 0.100000000000D+01
0.209729670425D-07 0.000000000000D+00 0.000000000000D+00 0.118832722699D-05 0.120921174332D-08  6 2 2 25 24 1 2 4 0.87663473D-02 0.23246105D+00 0.34729594D+05 0.34729594D+05 0.34729594D+05 0.12082817D+01  1  2 11  7  6  1       21 0.707739463364D-05 0.100000000000D+01
0.616676256786D-06 0.000000000000D+00 0.000000000000D+00 0.118513576568D-05 0.000000000000D+00  6 -3 2 25 24 1 -3 4 0.88025189D-02 0.23049738D+00 0.34729594D+05 0.34729594D+05 0.34729594D+05 0.12082817D+01  1  2 12  8  6  1       21 0.103661122718D-03 0.100000000000D+01
0.616676256786D-06 0.000000000000D+00 0.000000000000D+00 0.118513576568D-05 0.000000000000D+00  6 -4 2 25 24 1 -4 4 0.88025189D-02 0.23049738D+00 0.34729594D+05 0.34729594D+05 0.34729594D+05 0.12082817D+01  1  2 12  8  6  1       21 0.914071950800D-04 0.100000000000D+01
-.523937464937D-05 0.000000000000D+00 -.837796157155D-06 0.118832722699D-05 0.000000000000D+00  6 -3 2 25 24 1 -3 4 0.88452576D-02 0.23049738D+00 0.33494857D+05 0.33494857D+05 0.33494857D+05 0.12099075D+01  1  2  5  8  6  1       21 -.878021550402D-03 0.100000000000D+01
-.523937464937D-05 0.000000000000D+00 -.837796157155D-06 0.118832722699D-05 0.000000000000D+00  6 -4 2 25 24 1 -4 4 0.88452576D-02 0.23049738D+00 0.33494857D+05 0.33494857D+05 0.33494857D+05 0.12099075D+01  1  2  5  8  6  1       21 -.773851932511D-03 0.100000000000D+01
0.278527533389D-07 0.000000000000D+00 0.000000000000D+00 0.118832722699D-05 0.121823417263D-08  6 -3 2 25 24 1 -3 4 0.87663473D-02 0.23246105D+00 0.34729594D+05 0.34729594D+05 0.34729594D+05 0.12082817D+01  1  2 11  8  6  1       21 0.464126994164D-05 0.100000000000D+01
0.278527533389D-07 0.000000000000D+00 0.000000000000D+00 0.118832722699D-05 0.121823417263D-08  6 -4 2 25 24 1 -4 4 0.87663473D-02 0.23246105D+00 0.34729594D+05 0.34729594D+05 0.34729594D+05 0.12082817D+01  1  2 11  8  6  1       21 0.409313634494D-05 0.100000000000D+01
0.616676256786D-06 0.000000000000D+00 0.000000000000D+00 0.118513576568D-05 0.000000000000D+00  6 3 2 25 24 1 3 4 0.88025189D-02 0.23049738D+00 0.34729594D+05 0.34729594D+05 0.34729594D+05 0.12082817D+01  1  2 12  9  6  1       21 0.103648957863D-03 0.100000000000D+01
0.616676256786D-06 0.000000000000D+00 0.000000000000D+00 0.118513576568D-05 0.000000000000D+00  6 4 2 25 24 1 4 4 0.88025189D-02 0.23049738D+00 0.34729594D+05 0.34729594D+05 0.34729594D+05 0.12082817D+01  1  2 12  9  6  1       21 0.914071950800D-04 0.100000000000D+01
-.523937464937D-05 0.000000000000D+00 -.837796157155D-06 0.118832722699D-05 0.000000000000D+00  6 3 2 25 24 1 3 4 0.88452576D-02 0.23049738D+00 0.33494857D+05 0.33494857D+05 0.33494857D+05 0.12099075D+01  1  2  5  9  6  1       21 -.877918063218D-03 0.100000000000D+01
-.523937464937D-05 0.000000000000D+00 -.837796157155D-06 0.118832722699D-05 0.000000000000D+00  6 4 2 25 24 1 4 4 0.88452576D-02 0.23049738D+00 0.33494857D+05 0.33494857D+05 0.33494857D+05 0.12099075D+01  1  2  5  9  6  1       21 -.773851932511D-03 0.100000000000D+01
0.278527533389D-07 0.000000000000D+00 0.000000000000D+00 0.118832722699D-05 0.121823417263D-08  6 3 2 25 24 1 3 4 0.87663473D-02 0.23246105D+00 0.34729594D+05 0.34729594D+05 0.34729594D+05 0.12082817D+01  1  2 11  9  6  1       21 0.464072580833D-05 0.100000000000D+01
0.278527533389D-07 0.000000000000D+00 0.000000000000D+00 0.118832722699D-05 0.121823417263D-08  6 4 2 25 24 1 4 4 0.87663473D-02 0.23246105D+00 0.34729594D+05 0.34729594D+05 0.34729594D+05 0.12082817D+01  1  2 11  9  6  1       21 0.409313634494D-05 0.100000000000D+01
  </mgrwgt>
  </event>
  <event>
  5     66 0.42910585E-03 0.27070364E+03 0.75467711E-02 0.98218663E-01
       21 -1    0    0  501  502 0.00000000E+00 0.00000000E+00 0.40304568E+02 0.40311545E+02 0.75000000E+00 0.0000E+00 0.9000E+01
        2 -1    0    0  502    0 0.00000000E+00 0.00000000E+00 -.25962007E+04 0.25962007E+04 0.32000000E+00 0.0000E+00 0.9000E+01
       25  1    1    2    0    0 -.32389417E+02 -.95135487E+02 -.92215139E+03 0.93599574E+03 0.12500000E+03 0.0000E+00 0.9000E+01
       24  1    1    2    0    0 -.12542697E+03 -.12480631E+03 -.82830970E+03 0.85080710E+03 0.80419002E+02 0.0000E+00 0.9000E+01
        1  1    1    2  501    0 0.15781639E+03 0.21994179E+03 -.80543503E+03 0.84970942E+03 0.32000000E+00 0.0000E+00 0.9000E+01
#aMCatNLO 1  0  0  1  2 0.21190508D+02 0.00000000D+00  -5  6  0 0.00000000D+00 0.00000000D+00 0.00000000D+00 0.00000000D+00 0.00000000D+00
  <mgrwgt>
 0.2715111542D-01   12    2    0
 0.323493386148053D+03 0.000000000000000D+00 0.000000000000000D+00 0.323493386148053D+03
 0.323493386148053D+03 0.000000000000000D+00 0.000000000000000D+00 -.323493386148053D+03
 0.171318945588585D+03 -.323894445642129D+02 -.951355248233900D+02 -.602107707556074D+02
 0.194887782582297D+03 -.125427005399780D+03 -.124806349769373D+03 -.143343370674217D+02
 0.280780044125225D+03 0.157816449963993D+03 0.219941874592763D+03 0.745451078230292D+02
 0.000000000000000D+00 -.000000000000000D+00 -.000000000000000D+00 0.000000000000000D+00
 0.751410342074232D+03 0.000000000000000D+00 0.000000000000000D+00 0.751410342074232D+03
 0.578928452623275D+03 0.000000000000000D+00 0.000000000000000D+00 -.578928452623275D+03
 0.179390886820496D+03 0.838954721567836D+02 -.767613386468082D+02 -.602107707556074D+02
 0.135910010939557D+03 -.157443266823235D+02 -.107475383587954D+03 -.143343370674217D+02
 0.496012430325523D+03 0.415377658272629D+03 0.260639135482436D+03 0.745451078230292D+02
 0.519025466611930D+03 -.483528803747090D+03 -.764024132476738D+02 0.172481889450958D+03
0.135382951636D-04 0.000000000000D+00 0.000000000000D+00 0.189593305871D-06 0.000000000000D+00  6 21 2 25 24 1 21 2 0.62012410D-02 0.39941603D+00 0.97797930D+05 0.97797930D+05 0.97797930D+05 0.11644610D+01  1  2  2  1  6  1       21 0.151440082974D-01 0.100000000000D+01
-.120059587745D-05 0.714435463791D-06 -.273299173797D-07 0.189593305871D-06 0.000000000000D+00  6 21 2 25 24 1 21 4 0.62012410D-02 0.39941603D+00 0.97797930D+05 0.97797930D+05 0.97797930D+05 0.11644610D+01  1  2  3  1  6  1       21 -.182105739248D-02 0.100000000000D+01
0.161009668007D-05 0.000000000000D+00 0.000000000000D+00 0.189593305871D-06 0.000000000000D+00  6 21 2 25 24 1 21 4 0.62012410D-02 0.39941603D+00 0.97797930D+05 0.97797930D+05 0.97797930D+05 0.11644610D+01  1  2 15  1  6  1       21 0.244218601524D-02 0.100000000000D+01
0.191567762966D-03 0.000000000000D+00 -.170470060465D-03 0.189593305871D-06 0.000000000000D+00  6 21 2 25 24 1 21 4 0.41717803D-01 0.39941603D+00 0.97797930D+05 0.97797930D+05 0.97797930D+05 0.11644610D+01  1  2  5  1  6  1       21 0.829533627291D-02 0.100000000000D+01
0.830065922263D-04 0.000000000000D+00 -.729137411313D-04 0.189593305871D-06 0.000000000000D+00  6 -1 2 25 24 1 -1 4 0.41717803D-01 0.39941603D+00 0.97797930D+05 0.97797930D+05 0.97797930D+05 0.11644610D+01  1  2  5  4  6  1       21 0.351385326714D-03 0.100000000000D+01
0.830065922263D-04 0.000000000000D+00 -.729137411313D-04 0.189593305871D-06 0.000000000000D+00  6 1 2 25 24 1 1 4 0.41717803D-01 0.39941603D+00 0.97797930D+05 0.97797930D+05 0.97797930D+05 0.11644610D+01  1  2  5  5  6  1       21 0.725163620903D-03 0.100000000000D+01
0.830065922263D-04 0.000000000000D+00 -.729137411313D-04 0.189593305871D-06 0.000000000000D+00  6 -2 2 25 24 1 -2 4 0.41717803D-01 0.39941603D+00 0.97797930D+05 0.97797930D+05 0.97797930D+05 0.11644610D+01  1  2  5  6  6  1       21 0.296389604995D-03 0.100000000000D+01
0.830065922263D-04 0.000000000000D+00 -.729137411313D-04 0.189593305871D-06 0.000000000000D+00  6 2 2 25 24 1 2 4 0.41717803D-01 0.39941603D+00 0.97797930D+05 0.97797930D+05 0.97797930D+05 0.11644610D+01  1  2  5  7  6  1       21 0.101104933608D-02 0.100000000000D+01
0.830065922263D-04 0.000000000000D+00 -.729137411313D-04 0.189593305871D-06 0.000000000000D+00  6 -3 2 25 24 1 -3 4 0.41717803D-01 0.39941603D+00 0.97797930D+05 0.97797930D+05 0.97797930D+05 0.11644610D+01  1  2  5  8  6  1       21 0.191959449470D-03 0.100000000000D+01
0.830065922263D-04 0.000000000000D+00 -.729137411313D-04 0.189593305871D-06 0.000000000000D+00  6 -4 2 25 24 1 -4 4 0.41717803D-01 0.39941603D+00 0.97797930D+05 0.97797930D+05 0.97797930D+05 0.11644610D+01  1  2  5  8  6  1       21 0.161343039016D-03 0.100000000000D+01
0.830065922263D-04 0.000000000000D+00 -.729137411313D-04 0.189593305871D-06 0.000000000000D+00  6 3 2 25 24 1 3 4 0.41717803D-01 0.39941603D+00 0.97797930D+05 0.97797930D+05 0.97797930D+05 0.11644610D+01  1  2  5  9  6  1       21 0.192008812399D-03 0.100000000000D+01
0.830065922263D-04 0.000000000000D+00 -.729137411313D-04 0.189593305871D-06 0.000000000000D+00  6 4 2 25 24 1 4 4 0.41717803D-01 0.39941603D+00 0.97797930D+05 0.97797930D+05 0.97797930D+05 0.11644610D+01  1  2  5  9  6  1       21 0.161343039016D-03 0.100000000000D+01
  </mgrwgt>
  </event>
  <event>
  5     66 0.42910585E-03 0.76241756E+02 0.75467711E-02 0.11706351E+00
       21 -1    0    0  501  502 0.00000000E+00 0.00000000E+00 0.26666386E+02 0.26676931E+02 0.75000000E+00 0.0000E+00 0.9000E+01
        2 -1    0    0  502    0 -.00000000E+00 -.00000000E+00 -.14019433E+04 0.14019433E+04 0.32000000E+00 0.0000E+00 0.9000E+01
       25  1    1    2    0    0 0.88113925E+02 -.15319580E+02 -.89503953E+03 0.90814069E+03 0.12500000E+03 0.0000E+00 0.9000E+01
       24  1    1    2    0    0 -.48853802E+02 0.80675399E+02 -.31469816E+03 0.33822679E+03 0.80419002E+02 0.0000E+00 0.9000E+01
        1  1    1    2  501    0 -.39260123E+02 -.65355819E+02 -.16553919E+03 0.18225276E+03 0.32000000E+00 0.0000E+00 0.9000E+01
#aMCatNLO 1  0  0  5  1 0.24110728D+01 0.00000000D+00  -5  6  0 0.00000000D+00 0.00000000D+00 0.00000000D+00 0.00000000D+00 0.00000000D+00
  <mgrwgt>
 0.6398775644D-01    8    2    0
 0.193370936877659D+03 0.000000000000000D+00 0.000000000000000D+00 0.193370936877659D+03
 0.193370936877659D+03 -.000000000000000D+00 -.000000000000000D+00 -.193370936877659D+03
 0.171848552141833D+03 0.881140496183161D+02 -.153193720361103D+02 -.768645300091293D+02
 0.130320893600638D+03 -.488537074653695D+02 0.806755569273364D+02 0.402627512205832D+02
 0.845724280128471D+02 -.392603421529466D+02 -.653561848912260D+02 0.366017787885461D+02
 0.000000000000000D+00 -.000000000000000D+00 0.000000000000000D+00 0.000000000000000D+00
 0.193370936877659D+03 0.000000000000000D+00 0.000000000000000D+00 0.193370936877659D+03
 0.193370936877659D+03 -.000000000000000D+00 -.000000000000000D+00 -.193370936877659D+03
 0.171596328400846D+03 0.877896577542440D+02 -.158593829856562D+02 -.765621047474412D+02
 0.130231468818725D+03 -.490998053731329D+02 0.802658809164022D+02 0.404921842995204D+02
 0.266091240374619D+01 0.161081310000227D+01 -.189833832186715D+01 0.939173888586482D+00
 0.822531641320007D+02 -.403006654811133D+02 -.625081596088789D+02 0.351307465593343D+02
0.409700541396D-05 0.000000000000D+00 0.000000000000D+00 0.205519018923D-06 0.000000000000D+00  6 21 2 25 24 1 21 2 0.41033349D-02 0.21568439D+00 0.31309064D+05 0.31309064D+05 0.31309064D+05 0.12129564D+01  1  2  2  3  6  5        1 0.448673982504D-01 0.100000000000D+01
-.164824679326D-06 0.216204915589D-06 -.827067353119D-08 0.205519018923D-06 0.000000000000D+00  6 21 2 25 24 1 21 4 0.41033349D-02 0.21568439D+00 0.31309064D+05 0.31309064D+05 0.31309064D+05 0.12129564D+01  1  2  3  3  6  5        1 -.265568766913D-02 0.100000000000D+01
0.555544471226D-06 0.000000000000D+00 0.000000000000D+00 0.205519018923D-06 0.000000000000D+00  6 21 2 25 24 1 21 4 0.41033349D-02 0.21568439D+00 0.31309064D+05 0.31309064D+05 0.31309064D+05 0.12129564D+01  1  2 15  3  6  5        1 0.895104184591D-02 0.100000000000D+01
0.310547395493D-08 0.000000000000D+00 0.000000000000D+00 0.205491098668D-06 0.000000000000D+00  6 21 2 25 24 1 21 4 0.41033349D-02 0.21568439D+00 0.31365998D+05 0.31365998D+05 0.31365998D+05 0.12128740D+01  1  2 12  3  6  5        1 0.500215399503D-04 0.100000000000D+01
-.217630188335D-05 0.000000000000D+00 0.000000000000D+00 0.205519018923D-06 0.000000000000D+00  6 21 2 25 24 1 21 4 0.41033349D-02 0.21568439D+00 0.31309064D+05 0.31309064D+05 0.31309064D+05 0.12129564D+01  1  2  4  3  6  5        1 -.350650042187D-01 0.100000000000D+01
-.674234283227D-06 0.000000000000D+00 0.000000000000D+00 0.205519018923D-06 0.000000000000D+00  6 21 2 25 24 1 21 4 0.41033349D-02 0.21568439D+00 0.31309064D+05 0.31309064D+05 0.31309064D+05 0.12129564D+01  1  2  5  3  6  5        1 -.108633954538D-01 0.100000000000D+01
0.152287241132D-05 0.000000000000D+00 -.000000000000D+00 0.205519018923D-06 0.000000000000D+00  6 21 2 25 24 1 21 4 0.41033349D-02 0.21568439D+00 0.31309064D+05 0.31309064D+05 0.31309064D+05 0.12129564D+01  1  2  6  3  6  5        1 0.245368199771D-01 0.100000000000D+01
0.212115358802D-05 0.000000000000D+00 0.000000000000D+00 0.205519018923D-06 0.108209146405D-07  6 21 2 25 24 1 21 4 0.41033349D-02 0.21568439D+00 0.31365998D+05 0.31365998D+05 0.31365998D+05 0.12128740D+01  1  2 11  3  6  5        1 0.341665621686D-01 0.100000000000D+01
  </mgrwgt>
  </event>
  <event>
  6     66 0.42910585E-03 0.17300515E+03 0.75467711E-02 0.10331101E+00
        1 -1    0    0  501    0 0.00000000E+00 0.00000000E+00 0.24256406E+04 0.24256406E+04 0.32000000E+00 0.0000E+00 0.9000E+01
        4 -1    0    0  502    0 0.00000000E+00 0.00000000E+00 -.13700869E+03 0.13701746E+03 0.15500000E+01 0.0000E+00 0.9000E+01
       25  1    1    2    0    0 -.13121834E+03 0.51455485E+02 0.95414970E+02 0.21117513E+03 0.12500000E+03 0.0000E+00 0.9000E+01
       24  1    1    2    0    0 -.16163070E+03 -.17495501E+03 0.52102862E+03 0.57850824E+03 0.80419002E+02 0.0000E+00 0.9000E+01
        3  1    1    2  501    0 0.38969631E+02 0.16339703E+03 0.13796214E+03 0.21737301E+03 0.50000000E+00 0.0000E+00 0.9000E+01
        1  1    1    2  502    0 0.25387941E+03 -.39897510E+02 0.15342261E+04 0.15556017E+04 0.32000000E+00 0.0000E+00 0.9000E+01
#aMCatNLO 2  0  0  1  5 0.25699527D+03 0.00000000D+00  -5  6  0 0.00000000D+00 0.00000000D+00 0.00000000D+00 0.00000000D+00 0.00000000D+00
  <mgrwgt>
 0.4181811991D-03    1    2    0
 0.307809995805733D+03 0.000000000000000D+00 0.000000000000000D+00 0.307809995805733D+03
 0.307809995805733D+03 0.000000000000000D+00 0.000000000000000D+00 -.307809995805733D+03
 0.171074807169953D+03 -.556203512704226D+02 0.395749942192988D+02 -.947722850063986D+02
 0.252540741838882D+03 -.554189373097739D+02 -.191646574794093D+03 0.132325137790632D+03
 0.192004442602630D+03 0.111039288580196D+03 0.152071580574795D+03 -.375528527842337D+02
 0.000000000000000D+00 0.000000000000000D+00 -.000000000000000D+00 0.000000000000000D+00
 0.918651401801547D+03 0.000000000000000D+00 0.000000000000000D+00 0.918651401801547D+03
 0.361774903774031D+03 0.000000000000000D+00 0.000000000000000D+00 -.361774903774031D+03
 0.210885558083476D+03 -.131218445304840D+03 0.514553419445055D+02 -.947722850063986D+02
 0.284096900593852D+03 -.161630959931861D+03 -.174955204760698D+03 0.132325137790632D+03
 0.172126634828170D+03 0.389699904628305D+02 0.163397373015489D+03 -.375528527842337D+02
 0.613317212070080D+03 0.253879414773871D+03 -.398975101992968D+02 0.556876498027516D+03
0.146452840370D-03 0.000000000000D+00 0.000000000000D+00 0.312702088451D-07 0.126598117638D-10  6 1 4 25 24 3 1 4 0.37317611D+00 0.21078934D-01 0.18695427D+06 0.18695427D+06 0.18695427D+06 0.11394053D+01  1  2  1  9  6  1       21 0.418181199088D-03 0.100000000000D+01
  </mgrwgt>
  </event>
  <event>
  6     66 0.42910585E-03 0.39588624E+02 0.75467711E-02 0.12165828E+00
       21 -1    0    0  501  502 0.00000000E+00 0.00000000E+00 0.18763045E+04 0.18763047E+04 0.75000000E+00 0.0000E+00 0.9000E+01
       21 -1    0    0  502  503 0.00000000E+00 0.00000000E+00 -.59475149E+02 0.59479877E+02 0.75000000E+00 0.0000E+00 0.9000E+01
       25  1    1    2    0    0 0.80926818E+01 0.46185621E+02 0.57038467E+03 0.58580054E+03 0.12500000E+03 0.0000E+00 0.9000E+01
       24  1    1    2    0    0 -.37699738E+02 -.53117953E+01 0.77869255E+03 0.78375940E+03 0.80419002E+02 0.0000E+00 0.9000E+01
        3  1    1    2  501    0 0.30028939E+02 -.32118505E+02 0.51564252E+03 0.51751405E+03 0.50000000E+00 0.0000E+00 0.9000E+01
       -4  1    1    2    0  503 -.42188304E+00 -.87553204E+01 -.47890343E+02 0.48710585E+02 0.15500000E+01 0.0000E+00 0.9000E+01
#aMCatNLO 2  0  0  2  1 0.87654789D+01 0.00000000D+00  -5  6  0 0.00000000D+00 0.00000000D+00 0.00000000D+00 0.00000000D+00 0.00000000D+00
  <mgrwgt>
 0.3689838911D-01    2    2    0
 0.144733976466470D+03 0.000000000000000D+00 0.000000000000000D+00 0.144733976466470D+03
 0.144733976466470D+03 0.000000000000000D+00 0.000000000000000D+00 -.144733976466470D+03
 0.143137600165062D+03 0.788247685234203D+01 0.418376945638396D+02 -.552344679821241D+02
 0.933817129570960D+02 -.378360475843609D+02 -.813120425595680D+01 0.274817281293012D+02
 0.529486398107819D+02 0.299535707320188D+02 -.337064903078828D+02 0.277527398528229D+02
 0.000000000000000D+00 -.000000000000000D+00 -.000000000000000D+00 -.000000000000000D+00
 0.144831016462116D+03 0.000000000000000D+00 0.000000000000000D+00 0.144831016462116D+03
 0.770530634653417D+03 0.000000000000000D+00 0.000000000000000D+00 -.770530634653417D+03
 0.144480132521503D+03 0.809202205388575D+01 0.461863769876175D+02 -.552344679821241D+02
 0.931234344586977D+02 -.377001684146757D+02 -.531130977679748D+01 0.274817281293012D+02
 0.519970707880974D+02 0.300300294046924D+02 -.321197468102920D+02 0.277527398528229D+02
 0.625761013347235D+03 -.421883043902443D+00 -.875532040052804D+01 -.625699618191301D+03
-.898326789276D-03 0.000000000000D+00 0.000000000000D+00 0.573591430722D-06 0.000000000000D+00  6 21 21 25 24 3 -4 4 0.28846729D+00 0.91471154D-02 0.18936255D+05 0.18936255D+05 0.18936255D+05 0.12364477D+01  1  2 13 10  6  2        4 -.852751773552D+00 0.100000000000D+01
0.940131496817D-03 0.000000000000D+00 0.000000000000D+00 0.576518161665D-06 0.359156724650D-07  6 21 21 25 24 3 -4 4 0.28866070D+00 0.91503375D-02 0.18936255D+05 0.18936255D+05 0.18936255D+05 0.12364477D+01  1  2  1 10  6  2        4 0.889650162658D+00 0.100000000000D+01
  </mgrwgt>
  </event>
  <event>
  5     66 0.42910585E-03 0.15353228E+03 0.75467711E-02 0.10962512E+00
       21 -1    0    0  501  502 0.00000000E+00 0.00000000E+00 0.26851643E+02 0.26862115E+02 0.75000000E+00 0.0000E+00 0.9000E+01
        2 -1    0    0  502    0 0.00000000E+00 0.00000000E+00 -.19133923E+04 0.19133923E+04 0.32000000E+00 0.0000E+00 0.9000E+01
       25  1    1    2    0    0 -.18768034E+02 0.46373542E+02 -.68703471E+03 0.70010316E+03 0.12500000E+03 0.0000E+00 0.9000E+01
       24  1    1    2    0    0 0.67911230E+02 0.10430904E+03 -.43998898E+03 0.46427344E+03 0.80419002E+02 0.0000E+00 0.9000E+01
        1  1    1    2  501    0 -.49143196E+02 -.15068258E+03 -.75951695E+03 0.77587782E+03 0.32000000E+00 0.0000E+00 0.9000E+01
#aMCatNLO 1  0  0  2  1 0.10415434D+03 0.00000000D+00  -5  6  0 0.00000000D+00 0.00000000D+00 0.00000000D+00 0.00000000D+00 0.00000000D+00
  <mgrwgt>
 0.5023353665D-01    9    2    0
 0.226689018492119D+03 0.000000000000000D+00 0.000000000000000D+00 0.226689018492119D+03
 0.226689018492119D+03 0.000000000000000D+00 0.000000000000000D+00 -.226689018492119D+03
 0.137323296675711D+03 -.187680040320463D+02 0.463736336086063D+02 -.270173266714769D+02
 0.156054201280466D+03 0.679112638463544D+02 0.104309139336532D+03 0.489219937919177D+02
 0.160000539028061D+03 -.491432598143081D+02 -.150682772945138D+03 -.219046671204408D+02
 0.000000000000000D+00 -.000000000000000D+00 0.000000000000000D+00 -.000000000000000D+00
 0.258044281827118D+03 0.000000000000000D+00 0.000000000000000D+00 0.258044281827118D+03
 0.339155668784256D+03 0.000000000000000D+00 0.000000000000000D+00 -.339155668784256D+03
 0.134685821210920D+03 0.115383135613546D+02 0.406472854560600D+02 -.270173266714769D+02
 0.171000121307234D+03 0.104350528263838D+03 0.974239770651962D+02 0.489219937919177D+02
 0.159501946200683D+03 -.135453950645725D+02 -.157408953597605D+03 -.219046671204408D+02
 0.132012061892536D+03 -.102343446760620D+03 0.193376910763486D+02 -.811113869571382D+02
0.415368278459D-05 0.000000000000D+00 0.000000000000D+00 0.132711916185D-06 0.000000000000D+00  6 21 2 25 24 1 21 2 0.41318296D-02 0.29436885D+00 0.48691041D+05 0.48691041D+05 0.48691041D+05 0.11934244D+01  1  2  2  2  6  2        2 0.232934541637D-01 0.100000000000D+01
-.434666731862D-06 0.219195862609D-06 -.838508881302D-08 0.132711916185D-06 0.000000000000D+00  6 21 2 25 24 1 21 4 0.41318296D-02 0.29436885D+00 0.48691041D+05 0.48691041D+05 0.48691041D+05 0.11934244D+01  1  2  3  2  6  2        2 -.347173701188D-02 0.100000000000D+01
0.468052222990D-06 0.000000000000D+00 0.000000000000D+00 0.132711916185D-06 0.000000000000D+00  6 21 2 25 24 1 21 4 0.41318296D-02 0.29436885D+00 0.48691041D+05 0.48691041D+05 0.48691041D+05 0.11934244D+01  1  2 15  2  6  2        2 0.373839106362D-02 0.100000000000D+01
0.551502824968D-05 0.000000000000D+00 0.000000000000D+00 0.128363047362D-06 0.000000000000D+00  6 21 2 25 24 1 21 4 0.41318296D-02 0.45267471D+00 0.77825899D+05 0.77825899D+05 0.77825899D+05 0.11737078D+01  1  2 12  2  6  2        2 0.110998153758D-01 0.100000000000D+01
-.675853574119D-05 0.000000000000D+00 0.000000000000D+00 0.132711916185D-06 0.000000000000D+00  6 21 2 25 24 1 21 4 0.41318296D-02 0.29436885D+00 0.48691041D+05 0.48691041D+05 0.48691041D+05 0.11934244D+01  1  2  4  2  6  2        2 -.539812618699D-01 0.100000000000D+01
-.106985023702D-04 0.000000000000D+00 -.372262232758D-05 0.132711916185D-06 0.000000000000D+00  6 21 2 25 24 1 21 4 0.41318296D-02 0.45781746D+00 0.48691041D+05 0.48691041D+05 0.48691041D+05 0.11934244D+01  1  2  5  2  6  2        2 -.225383457970D-01 0.100000000000D+01
0.115349423586D-04 0.000000000000D+00 0.338692081276D-05 0.132711916185D-06 0.000000000000D+00  6 21 2 25 24 1 21 4 0.41318296D-02 0.29436885D+00 0.48691041D+05 0.48691041D+05 0.48691041D+05 0.11934244D+01  1  2  6  2  6  2        2 0.921310129824D-01 0.100000000000D+01
0.277113365698D-06 0.000000000000D+00 0.000000000000D+00 0.128363047362D-06 0.000000000000D+00  6 21 21 25 24 1 -2 4 0.41318296D-02 0.45267471D+00 0.77825899D+05 0.77825899D+05 0.77825899D+05 0.11737078D+01  1  2 12 10  6  2        2 0.697843117698D-04 0.100000000000D+01
-.403433448399D-06 0.000000000000D+00 -.190723086700D-06 0.132711916185D-06 0.000000000000D+00  6 21 21 25 24 1 -2 4 0.41318296D-02 0.45781746D+00 0.48691041D+05 0.48691041D+05 0.48691041D+05 0.11934244D+01  1  2  5 10  6  2        2 -.107576567656D-03 0.100000000000D+01
  </mgrwgt>
  </event>
  <event>
  5     66 -.42910585E-03 0.42035625E+02 0.75467711E-02 0.10185080E+00
       21 -1    0    0  501  502 0.00000000E+00 0.00000000E+00 0.14665770E+03 0.14665962E+03 0.75000000E+00 0.0000E+00 0.9000E+01
        2 -1    0    0  502    0 -.00000000E+00 -.00000000E+00 -.18767342E+04 0.18767342E+04 0.32000000E+00 0.0000E+00 0.9000E+01
       25  1    1    2    0    0 0.20510715E+03 0.38726242E+03 -.12151380E+04 0.12977775E+04 0.12500000E+03 0.0000E+00 0.9000E+01
       24  1    1    2    0    0 -.18249512E+03 -.42269677E+03 -.45397580E+03 0.65156602E+03 0.80419002E+02 0.0000E+00 0.9000E+01
        1  1    1    2  501    0 -.22612027E+02 0.35434346E+02 -.60962758E+02 0.74050367E+02 0.32000000E+00 0.0000E+00 0.9000E+01
#aMCatNLO 1  0  0  5  1 0.24240910D+01 0.00000000D+00  -5  6  0 0.00000000D+00 0.00000000D+00 0.00000000D+00 0.00000000D+00 0.00000000D+00
  <mgrwgt>
 -.1851329566D+00    8    2    0
 0.524632718636349D+03 0.000000000000000D+00 0.000000000000000D+00 0.524632718636349D+03
 0.524632718636349D+03 -.000000000000000D+00 -.000000000000000D+00 -.524632718636349D+03
 0.499047316998230D+03 0.205107457346744D+03 0.387261940080167D+03 -.203426510831874D+03
 0.507938283340506D+03 -.182494808358837D+03 -.422697260063676D+03 0.198888800552625D+03
 0.422798369339610D+02 -.226126489879071D+02 0.354353199835085D+02 0.453771027924852D+01
 0.000000000000000D+00 0.000000000000000D+00 0.000000000000000D+00 0.000000000000000D+00
 0.524632718636349D+03 0.000000000000000D+00 0.000000000000000D+00 0.524632718636349D+03
 0.524632718636349D+03 -.000000000000000D+00 -.000000000000000D+00 -.524632718636349D+03
 0.499149335976634D+03 0.204966481461851D+03 0.387482857390378D+03 -.203398221013978D+03
 0.507814075558338D+03 -.182638263646131D+03 -.422472457387470D+03 0.198917587915491D+03
 0.646169166814184D+01 -.360989975608995D+01 0.506674523360880D+01 -.174647522250338D+01
 0.358403340695837D+02 -.187183180596303D+02 0.299228547634835D+02 0.622710832099077D+01
0.100832814699D-03 0.000000000000D+00 0.000000000000D+00 0.516305723318D-07 0.000000000000D+00  6 21 2 25 24 1 21 2 0.22562873D-01 0.28872849D+00 0.23286409D+06 0.23286409D+06 0.23286409D+06 0.11312833D+01  1  2  2  3  6  5        1 0.237758779123D-01 0.100000000000D+01
0.163467842802D-04 0.532109382045D-05 -.203552401655D-06 0.516305723318D-07 0.000000000000D+00  6 21 2 25 24 1 21 4 0.22562873D-01 0.28872849D+00 0.23286409D+06 0.23286409D+06 0.23286409D+06 0.11312833D+01  1  2  3  3  6  5        1 0.493298445320D-02 0.100000000000D+01
0.107228416740D-04 0.000000000000D+00 0.000000000000D+00 0.516305723318D-07 0.000000000000D+00  6 21 2 25 24 1 21 4 0.22562873D-01 0.28872849D+00 0.23286409D+06 0.23286409D+06 0.23286409D+06 0.11312833D+01  1  2 15  3  6  5        1 0.323584200814D-02 0.100000000000D+01
0.402353468646D-06 0.000000000000D+00 0.000000000000D+00 0.516343248489D-07 0.000000000000D+00  6 21 2 25 24 1 21 4 0.22562873D-01 0.28872849D+00 0.23260256D+06 0.23260256D+06 0.23260256D+06 0.11313244D+01  1  2 12  3  6  5        1 0.121444269014D-03 0.100000000000D+01
-.136195901627D-02 0.000000000000D+00 0.000000000000D+00 0.516305723318D-07 0.000000000000D+00  6 21 2 25 24 1 21 4 0.22562873D-01 0.28872849D+00 0.23286409D+06 0.23286409D+06 0.23286409D+06 0.11312833D+01  1  2  4  3  6  5        1 -.410999652164D+00 0.100000000000D+01
-.116890911157D-03 0.000000000000D+00 0.000000000000D+00 0.516305723318D-07 0.000000000000D+00  6 21 2 25 24 1 21 4 0.22562873D-01 0.28872849D+00 0.23286409D+06 0.23286409D+06 0.23286409D+06 0.11312833D+01  1  2  5  3  6  5        1 -.352742801015D-01 0.100000000000D+01
0.581998645438D-03 0.000000000000D+00 -.000000000000D+00 0.516305723318D-07 0.000000000000D+00  6 21 2 25 24 1 21 4 0.22562873D-01 0.28872849D+00 0.23286409D+06 0.23286409D+06 0.23286409D+06 0.11312833D+01  1  2  6  3  6  5        1 0.175630278135D+00 0.100000000000D+01
0.177065577591D-03 0.000000000000D+00 0.000000000000D+00 0.516305723318D-07 0.692832622692D-08  6 21 2 25 24 1 21 4 0.22562873D-01 0.28872849D+00 0.23260256D+06 0.23260256D+06 0.23260256D+06 0.11313244D+01  1  2 11  3  6  5        1 0.534445489198D-01 0.100000000000D+01
  </mgrwgt>
  </event>
  <event>
  5     66 0.42910585E-03 0.24982381E+02 0.75467711E-02 0.11236973E+00
       21 -1    0    0  501  502 0.00000000E+00 0.00000000E+00 0.77508182E+03 0.77508218E+03 0.75000000E+00 0.0000E+00 0.9000E+01
        2 -1    0    0  502    0 0.00000000E+00 0.00000000E+00 -.57526576E+02 0.57527466E+02 0.32000000E+00 0.0000E+00 0.9000E+01
       25  1    1    2    0    0 0.33291821E+02 -.13221257E+03 0.19564431E+03 0.26924005E+03 0.12500000E+03 0.0000E+00 0.9000E+01
       24  1    1    2    0    0 -.84907652E+01 0.12920982E+03 0.26866145E+03 0.30889070E+03 0.80419002E+02 0.0000E+00 0.9000E+01
        1  1    1    2  501    0 -.24801056E+02 0.30027561E+01 0.25324948E+03 0.25447890E+03 0.32000000E+00 0.0000E+00 0.9000E+01
#aMCatNLO 1  0  0  2  1 0.10156858D+03 0.00000000D+00  -5  6  0 0.00000000D+00 0.00000000D+00 0.00000000D+00 0.00000000D+00 0.00000000D+00
  <mgrwgt>
 0.5501586766D-01    4    2    0
 0.211159477081428D+03 0.000000000000000D+00 0.000000000000000D+00 0.211159477081428D+03
 0.211159477081428D+03 0.000000000000000D+00 0.000000000000000D+00 -.211159477081428D+03
 0.198395843687055D+03 0.332919384324868D+02 -.132212587231333D+03 -.717453092912923D+02
 0.152505422035398D+03 -.849067525208230D+01 0.129209806092605D+03 0.483965278707949D+01
 0.714176884404032D+02 -.248012631804045D+02 0.300278113872776D+01 0.669056565042129D+02
 0.000000000000000D+00 -.000000000000000D+00 -.000000000000000D+00 0.000000000000000D+00
 0.285010836773754D+03 0.000000000000000D+00 0.000000000000000D+00 0.285010836773754D+03
 0.255202483009040D+03 0.000000000000000D+00 0.000000000000000D+00 -.255202483009040D+03
 0.196513942654122D+03 0.748504471549718D+02 -.110646964770232D+03 -.717453092912923D+02
 0.169354686608622D+03 0.253804178307983D+02 0.146786259825532D+03 0.483965278707949D+01
 0.684923673806620D+02 -.100777656214461D+02 0.106431272296750D+02 0.669056565042129D+02
 0.105852323139390D+03 -.901530993643240D+02 -.467824222849752D+02 0.298083537647141D+02
0.623456059877D-04 0.000000000000D+00 0.000000000000D+00 0.143860695781D-05 0.000000000000D+00  6 21 2 25 24 1 21 2 0.11924345D+00 0.88503388D-02 0.32829810D+05 0.32829810D+05 0.32829810D+05 0.12108111D+01  1  2  2  2  6  2        2 0.444260081665D-01 0.100000000000D+01
0.104368276370D-04 0.329006801749D-05 -.125857815924D-06 0.143860695781D-05 0.000000000000D+00  6 21 2 25 24 1 21 4 0.11924345D+00 0.88503388D-02 0.32829810D+05 0.32829810D+05 0.32829810D+05 0.12108111D+01  1  2  3  2  6  2        2 0.109031691097D-01 0.100000000000D+01
0.597991759928D-05 0.000000000000D+00 0.000000000000D+00 0.143860695781D-05 0.000000000000D+00  6 21 2 25 24 1 21 4 0.11924345D+00 0.88503388D-02 0.32829810D+05 0.32829810D+05 0.32829810D+05 0.12108111D+01  1  2 15  2  6  2        2 0.624711407665D-02 0.100000000000D+01
-.627982659472D-05 0.000000000000D+00 0.000000000000D+00 0.143860695781D-05 0.000000000000D+00  6 21 2 25 24 1 21 4 0.11924345D+00 0.88503388D-02 0.32829810D+05 0.32829810D+05 0.32829810D+05 0.12108111D+01  1  2  4  2  6  2        2 -.656042369607D-02 0.100000000000D+01
  </mgrwgt>
  </event>
  <event>
  5     66 0.42910585E-03 0.34889642E+02 0.75467711E-02 0.11573716E+00
       21 -1    0    0  501  502 0.00000000E+00 0.00000000E+00 0.12814750E+02 0.12836679E+02 0.75000000E+00 0.0000E+00 0.9000E+01
        2 -1    0    0  502    0 0.00000000E+00 0.00000000E+00 -.19750282E+04 0.19750282E+04 0.32000000E+00 0.0000E+00 0.9000E+01
       25  1    1    2    0    0 0.90462692E+02 0.41605794E+02 -.85905687E+03 0.87379531E+03 0.12500000E+03 0.0000E+00 0.9000E+01
       24  1    1    2    0    0 -.64354535E+02 -.18462934E+02 -.99351770E+03 0.99901303E+03 0.80419002E+02 0.0000E+00 0.9000E+01
        1  1    1    2  501    0 -.26108157E+02 -.23142860E+02 -.10963890E+03 0.11505659E+03 0.32000000E+00 0.0000E+00 0.9000E+01
#aMCatNLO 1  0  0  1  2 0.29636192D+01 0.00000000D+00  -5  6  0 0.00000000D+00 0.00000000D+00 0.00000000D+00 0.00000000D+00 0.00000000D+00
  <mgrwgt>
 0.1025546952D+00    4    2    0
 0.159158141983313D+03 0.000000000000000D+00 0.000000000000000D+00 0.159158141983313D+03
 0.159158141983313D+03 0.000000000000000D+00 0.000000000000000D+00 -.159158141983313D+03
 0.161267803979243D+03 0.904630640150216D+02 0.416061241605878D+02 0.216256579468819D+02
 0.114380290175896D+03 -.643542716418040D+02 -.184627004300800D+02 -.461875658660831D+02
 0.426681898114853D+02 -.261087923732176D+02 -.231434237305079D+02 0.245619079192013D+02
 0.000000000000000D+00 0.000000000000000D+00 -.000000000000000D+00 -.000000000000000D+00
 0.178996354093497D+03 0.000000000000000D+00 0.000000000000000D+00 0.178996354093497D+03
 0.248384208977824D+03 0.000000000000000D+00 0.000000000000000D+00 -.248384208977824D+03
 0.152709638488296D+03 0.600880093994592D+02 0.601414643320308D+02 0.216256579468819D+02
 0.127762181847743D+03 -.877798106062020D+02 -.416806495041074D+01 -.461875658660831D+02
 0.461278803123096D+02 -.346991721739462D+02 -.179014377053430D+02 0.245619079192013D+02
 0.100780862422972D+03 0.623909733806891D+02 -.380719616762771D+02 -.693878548843264D+02
0.473901315604D-05 0.000000000000D+00 0.000000000000D+00 0.569795458356D-06 0.000000000000D+00  6 21 2 25 24 1 21 2 0.19731888D-02 0.30385218D+00 0.22401264D+05 0.22401264D+05 0.22401264D+05 0.12284414D+01  1  2  2  1  6  1       21 0.897738164255D-01 0.100000000000D+01
0.140649528597D-06 0.250084594930D-06 -.956670219182D-08 0.569795458356D-06 0.000000000000D+00  6 21 2 25 24 1 21 4 0.19731888D-02 0.30385218D+00 0.22401264D+05 0.22401264D+05 0.22401264D+05 0.12284414D+01  1  2  3  1  6  1       21 0.402076753127D-02 0.100000000000D+01
0.554206999534D-06 0.000000000000D+00 0.000000000000D+00 0.569795458356D-06 0.000000000000D+00  6 21 2 25 24 1 21 4 0.19731888D-02 0.30385218D+00 0.22401264D+05 0.22401264D+05 0.22401264D+05 0.12284414D+01  1  2 15  1  6  1       21 0.158431921640D-01 0.100000000000D+01
-.247771598329D-06 0.000000000000D+00 0.000000000000D+00 0.569795458356D-06 0.000000000000D+00  6 21 2 25 24 1 21 4 0.19731888D-02 0.30385218D+00 0.22401264D+05 0.22401264D+05 0.22401264D+05 0.12284414D+01  1  2  4  1  6  1       21 -.708308095784D-02 0.100000000000D+01
  </mgrwgt>
  </event>
  <event>
  5     66 0.42910585E-03 0.77766625E+02 0.75467711E-02 0.11405614E+00
       21 -1    0    0  501  502 0.00000000E+00 0.00000000E+00 0.94808275E+03 0.94808304E+03 0.75000000E+00 0.0000E+00 0.9000E+01
        2 -1    0    0  502    0 0.00000000E+00 0.00000000E+00 -.27538250E+03 0.27538268E+03 0.32000000E+00 0.0000E+00 0.9000E+01
       25  1    1    2    0    0 -.14772483E+03 -.30813994E+02 0.22859093E+02 0.19728067E+03 0.12500000E+03 0.0000E+00 0.9000E+01
       24  1    1    2    0    0 0.98373665E+02 -.36101290E+02 -.16260503E+03 0.20949533E+03 0.80419002E+02 0.0000E+00 0.9000E+01
        1  1    1    2  501    0 0.49351161E+02 0.66915284E+02 0.81244619E+03 0.81668972E+03 0.32000000E+00 0.0000E+00 0.9000E+01
#aMCatNLO 1  0  0  1  2 0.17614382D+02 0.00000000D+00  -5  6  0 0.00000000D+00 0.00000000D+00 0.00000000D+00 0.00000000D+00 0.00000000D+00
  <mgrwgt>
 0.2537038356D+00   32    2    0
 0.510965449394855D+03 0.000000000000000D+00 0.000000000000000D+00 0.510965449394855D+03
 0.510965449394855D+03 0.000000000000000D+00 0.000000000000000D+00 -.510965449394855D+03
 0.221139061824599D+03 -.147724828508938D+03 -.308139974696412D+02 -.102495645110460D+03
 0.357846935129626D+03 0.983736605989282D+02 -.361012963304358D+02 -.332575603932287D+03
 0.442944901835486D+03 0.493511679100102D+02 0.669152938000770D+02 0.435071249042747D+03
 0.000000000000000D+00 0.000000000000000D+00 0.000000000000000D+00 0.000000000000000D+00
 0.628800343770962D+03 0.000000000000000D+00 0.000000000000000D+00 0.628800343770962D+03
 0.511700035231407D+03 0.000000000000000D+00 0.000000000000000D+00 -.511700035231407D+03
 0.223756412543452D+03 -.151542236452824D+03 -.311693031456007D+02 -.102495645110460D+03
 0.356269447303562D+03 0.922462133484665D+02 -.366716091760195D+02 -.332575603932287D+03
 0.442056831692711D+03 0.417574456930738D+02 0.662085072462169D+02 0.435071249042747D+03
 0.118417687462645D+03 0.175385774112837D+02 0.163240507540335D+01 0.117100308539554D+03
0.590118618191D-04 0.000000000000D+00 0.000000000000D+00 0.194154876173D-05 0.000000000000D+00  6 21 2 25 24 1 21 2 0.14585892D+00 0.42366575D-01 0.42268884D+05 0.42268884D+05 0.42268884D+05 0.11995746D+01  1  2  2  1  6  1       21 0.402594632485D-02 0.100000000000D+01
0.778591310200D-05 0.311414150440D-05 -.119127946942D-06 0.194154876173D-05 0.000000000000D+00  6 21 2 25 24 1 21 4 0.14585892D+00 0.42366575D-01 0.42268884D+05 0.42268884D+05 0.42268884D+05 0.11995746D+01  1  2  3  1  6  1       21 0.764350866199D-03 0.100000000000D+01
0.670029633972D-05 0.000000000000D+00 0.000000000000D+00 0.194154876173D-05 0.000000000000D+00  6 21 2 25 24 1 21 4 0.14585892D+00 0.42366575D-01 0.42268884D+05 0.42268884D+05 0.42268884D+05 0.11995746D+01  1  2 15  1  6  1       21 0.657774784275D-03 0.100000000000D+01
0.334907124510D-02 0.000000000000D+00 0.000000000000D+00 0.193384771454D-05 0.000000000000D+00  6 21 2 25 24 1 21 4 0.17958474D+00 0.42366575D-01 0.44636542D+05 0.44636542D+05 0.44636542D+05 0.11971932D+01  1  2 12  1  6  1       21 0.184656777703D+00 0.100000000000D+01
0.237449412206D-02 0.000000000000D+00 0.000000000000D+00 0.193384771454D-05 0.000000000000D+00  6 21 2 25 24 1 21 4 0.19340339D+00 0.42366575D-01 0.44636542D+05 0.44636542D+05 0.44636542D+05 0.11971932D+01  1  2 12  1  6  1       21 0.105810501673D+00 0.100000000000D+01
-.277564612712D-02 0.000000000000D+00 0.000000000000D+00 0.194154876173D-05 0.000000000000D+00  6 21 2 25 24 1 21 4 0.14585892D+00 0.42366575D-01 0.42268884D+05 0.42268884D+05 0.42268884D+05 0.11995746D+01  1  2  4  1  6  1       21 -.272487952760D+00 0.100000000000D+01
-.673648658500D-02 0.000000000000D+00 -.912787799571D-04 0.194154876173D-05 0.000000000000D+00  6 21 2 25 24 1 21 4 0.17959200D+00 0.42366575D-01 0.42268884D+05 0.42268884D+05 0.42268884D+05 0.11995746D+01  1  2  5  1  6  1       21 -.375932802068D+00 0.100000000000D+01
0.621001060253D-02 0.000000000000D+00 0.838367982395D-04 0.194154876173D-05 0.000000000000D+00  6 21 2 25 24 1 21 4 0.14585892D+00 0.42366575D-01 0.42268884D+05 0.42268884D+05 0.42268884D+05 0.11995746D+01  1  2  6  1  6  1       21 0.609642943732D+00 0.100000000000D+01
0.200383520464D-03 0.000000000000D+00 0.000000000000D+00 0.193384771454D-05 0.000000000000D+00  6 -1 2 25 24 1 -1 4 0.17958474D+00 0.42366575D-01 0.44636542D+05 0.44636542D+05 0.44636542D+05 0.11971932D+01  1  2 12  4  6  1       21 0.133056238875D-02 0.100000000000D+01
0.205965651910D-03 0.000000000000D+00 0.000000000000D+00 0.193384771454D-05 0.000000000000D+00  6 -1 2 25 24 1 -1 4 0.19340339D+00 0.42366575D-01 0.44636542D+05 0.44636542D+05 0.44636542D+05 0.11971932D+01  1  2 12  4  6  1       21 0.110025206972D-02 0.100000000000D+01
-.399620604394D-03 0.000000000000D+00 -.549233842102D-05 0.194154876173D-05 0.000000000000D+00  6 -1 2 25 24 1 -1 4 0.17959200D+00 0.42366575D-01 0.42268884D+05 0.42268884D+05 0.42268884D+05 0.11995746D+01  1  2  5  4  6  1       21 -.267943172902D-02 0.100000000000D+01
0.200383520464D-03 0.000000000000D+00 0.000000000000D+00 0.193384771454D-05 0.000000000000D+00  6 1 2 25 24 1 1 4 0.17958474D+00 0.42366575D-01 0.44636542D+05 0.44636542D+05 0.44636542D+05 0.11971932D+01  1  2 12  5  6  1       21 0.828841825228D-02 0.100000000000D+01
0.205965651910D-03 0.000000000000D+00 0.000000000000D+00 0.193384771454D-05 0.000000000000D+00  6 1 2 25 24 1 1 4 0.19340339D+00 0.42366575D-01 0.44636542D+05 0.44636542D+05 0.44636542D+05 0.11971932D+01  1  2 12  5  6  1       21 0.738142397550D-02 0.100000000000D+01
-.399620604394D-03 0.000000000000D+00 -.549233842102D-05 0.194154876173D-05 0.000000000000D+00  6 1 2 25 24 1 1 4 0.17959200D+00 0.42366575D-01 0.42268884D+05 0.42268884D+05 0.42268884D+05 0.11995746D+01  1  2  5  5  6  1       21 -.166894139245D-01 0.100000000000D+01
0.200383520464D-03 0.000000000000D+00 0.000000000000D+00 0.193384771454D-05 0.000000000000D+00  6 -2 2 25 24 1 -2 4 0.17958474D+00 0.42366575D-01 0.44636542D+05 0.44636542D+05 0.44636542D+05 0.11971932D+01  1  2 12  6  6  1       21 0.989372204693D-03 0.100000000000D+01
0.205965651910D-03 0.000000000000D+00 0.000000000000D+00 0.193384771454D-05 0.000000000000D+00  6 -2 2 25 24 1 -2 4 0.19340339D+00 0.42366575D-01 0.44636542D+05 0.44636542D+05 0.44636542D+05 0.11971932D+01  1  2 12  6  6  1       21 0.826090823938D-03 0.100000000000D+01
-.399620604394D-03 0.000000000000D+00 -.549233842102D-05 0.194154876173D-05 0.000000000000D+00  6 -2 2 25 24 1 -2 4 0.17959200D+00 0.42366575D-01 0.42268884D+05 0.42268884D+05 0.42268884D+05 0.11995746D+01  1  2  5  6  6  1       21 -.199155179667D-02 0.100000000000D+01
0.200383520464D-03 0.000000000000D+00 0.000000000000D+00 0.193384771454D-05 0.000000000000D+00  6 2 2 25 24 1 2 4 0.17958474D+00 0.42366575D-01 0.44636542D+05 0.44636542D+05 0.44636542D+05 0.11971932D+01  1  2 12  7  6  1       21 0.162260938939D-01 0.100000000000D+01
0.205965651910D-03 0.000000000000D+00 0.000000000000D+00 0.193384771454D-05 0.000000000000D+00  6 2 2 25 24 1 2 4 0.19340339D+00 0.42366575D-01 0.44636542D+05 0.44636542D+05 0.44636542D+05 0.11971932D+01  1  2 12  7  6  1       21 0.148469127002D-01 0.100000000000D+01
-.399620604394D-03 0.000000000000D+00 -.549233842102D-05 0.194154876173D-05 0.000000000000D+00  6 2 2 25 24 1 2 4 0.17959200D+00 0.42366575D-01 0.42268884D+05 0.42268884D+05 0.42268884D+05 0.11995746D+01  1  2  5  7  6  1       21 -.326622794129D-01 0.100000000000D+01
0.200383520464D-03 0.000000000000D+00 0.000000000000D+00 0.193384771454D-05 0.000000000000D+00  6 -3 2 25 24 1 -3 4 0.17958474D+00 0.42366575D-01 0.44636542D+05 0.44636542D+05 0.44636542D+05 0.11971932D+01  1  2 12  8  6  1       21 0.648965909682D-03 0.100000000000D+01
0.200383520464D-03 0.000000000000D+00 0.000000000000D+00 0.193384771454D-05 0.000000000000D+00  6 -4 2 25 24 1 -4 4 0.17958474D+00 0.42366575D-01 0.44636542D+05 0.44636542D+05 0.44636542D+05 0.11971932D+01  1  2 12  8  6  1       21 0.505737111810D-03 0.100000000000D+01
0.205965651910D-03 0.000000000000D+00 0.000000000000D+00 0.193384771454D-05 0.000000000000D+00  6 -3 2 25 24 1 -3 4 0.19340339D+00 0.42366575D-01 0.44636542D+05 0.44636542D+05 0.44636542D+05 0.11971932D+01  1  2 12  8  6  1       21 0.545398938051D-03 0.100000000000D+01
0.205965651910D-03 0.000000000000D+00 0.000000000000D+00 0.193384771454D-05 0.000000000000D+00  6 -4 2 25 24 1 -4 4 0.19340339D+00 0.42366575D-01 0.44636542D+05 0.44636542D+05 0.44636542D+05 0.11971932D+01  1  2 12  8  6  1       21 0.422162138459D-03 0.100000000000D+01
-.399620604394D-03 0.000000000000D+00 -.549233842102D-05 0.194154876173D-05 0.000000000000D+00  6 -3 2 25 24 1 -3 4 0.17959200D+00 0.42366575D-01 0.42268884D+05 0.42268884D+05 0.42268884D+05 0.11995746D+01  1  2  5  8  6  1       21 -.130537458075D-02 0.100000000000D+01
-.399620604394D-03 0.000000000000D+00 -.549233842102D-05 0.194154876173D-05 0.000000000000D+00  6 -4 2 25 24 1 -4 4 0.17959200D+00 0.42366575D-01 0.42268884D+05 0.42268884D+05 0.42268884D+05 0.11995746D+01  1  2  5  8  6  1       21 -.101687414562D-02 0.100000000000D+01
0.200383520464D-03 0.000000000000D+00 0.000000000000D+00 0.193384771454D-05 0.000000000000D+00  6 3 2 25 24 1 3 4 0.17958474D+00 0.42366575D-01 0.44636542D+05 0.44636542D+05 0.44636542D+05 0.11971932D+01  1  2 12  9  6  1       21 0.652399942972D-03 0.100000000000D+01
0.200383520464D-03 0.000000000000D+00 0.000000000000D+00 0.193384771454D-05 0.000000000000D+00  6 4 2 25 24 1 4 4 0.17958474D+00 0.42366575D-01 0.44636542D+05 0.44636542D+05 0.44636542D+05 0.11971932D+01  1  2 12  9  6  1       21 0.505737111810D-03 0.100000000000D+01
0.205965651910D-03 0.000000000000D+00 0.000000000000D+00 0.193384771454D-05 0.000000000000D+00  6 3 2 25 24 1 3 4 0.19340339D+00 0.42366575D-01 0.44636542D+05 0.44636542D+05 0.44636542D+05 0.11971932D+01  1  2 12  9  6  1       21 0.548683610597D-03 0.100000000000D+01
0.205965651910D-03 0.000000000000D+00 0.000000000000D+00 0.193384771454D-05 0.000000000000D+00  6 4 2 25 24 1 4 4 0.19340339D+00 0.42366575D-01 0.44636542D+05 0.44636542D+05 0.44636542D+05 0.11971932D+01  1  2 12  9  6  1       21 0.422162138459D-03 0.100000000000D+01
-.399620604394D-03 0.000000000000D+00 -.549233842102D-05 0.194154876173D-05 0.000000000000D+00  6 3 2 25 24 1 3 4 0.17959200D+00 0.42366575D-01 0.42268884D+05 0.42268884D+05 0.42268884D+05 0.11995746D+01  1  2  5  9  6  1       21 -.131227814947D-02 0.100000000000D+01
-.399620604394D-03 0.000000000000D+00 -.549233842102D-05 0.194154876173D-05 0.000000000000D+00  6 4 2 25 24 1 4 4 0.17959200D+00 0.42366575D-01 0.42268884D+05 0.42268884D+05 0.42268884D+05 0.11995746D+01  1  2  5  9  6  1       21 -.101687414562D-02 0.100000000000D+01
  </mgrwgt>
  </event>
  <event>
  5     66 -.42910585E-03 0.43275385E+02 0.75467711E-02 0.11395170E+00
       21 -1    0    0  501  502 0.00000000E+00 0.00000000E+00 0.21256401E+03 0.21256534E+03 0.75000000E+00 0.0000E+00 0.9000E+01
        2 -1    0    0  502    0 0.00000000E+00 0.00000000E+00 -.27422773E+03 0.27422792E+03 0.32000000E+00 0.0000E+00 0.9000E+01
       25  1    1    2    0    0 0.51459309E+02 0.13206851E+03 0.12406158E+03 0.22606731E+03 0.12500000E+03 0.0000E+00 0.9000E+01
       24  1    1    2    0    0 -.18556930E+02 -.10395968E+03 -.16762864E+03 0.21381897E+03 0.80419002E+02 0.0000E+00 0.9000E+01
        1  1    1    2  501    0 -.32902380E+02 -.28108831E+02 -.18096659E+02 0.46906976E+02 0.32000000E+00 0.0000E+00 0.9000E+01
#aMCatNLO 1  0  0  2  2 0.10877929D+02 0.00000000D+00  -5  6  0 0.00000000D+00 0.00000000D+00 0.00000000D+00 0.00000000D+00 0.00000000D+00
  <mgrwgt>
 -.8770987623D-01    7    2    0
 0.241435944166352D+03 0.000000000000000D+00 0.000000000000000D+00 0.241435944166352D+03
 0.241435944166352D+03 0.000000000000000D+00 0.000000000000000D+00 -.241435944166352D+03
 0.243746483770042D+03 0.514597298199258D+02 0.132068870937294D+03 0.153938487346304D+03
 0.194148586181191D+03 -.185565949941207D+02 -.103959395095919D+03 -.141684701062958D+03
 0.449768183814717D+02 -.329031348258051D+02 -.281094758413750D+02 -.122537862833467D+02
 0.000000000000000D+00 0.000000000000000D+00 0.000000000000000D+00 -.000000000000000D+00
 0.249779469457922D+03 0.000000000000000D+00 0.000000000000000D+00 0.249779469457922D+03
 0.359767957976260D+03 0.000000000000000D+00 0.000000000000000D+00 -.359767957976260D+03
 0.228936654597956D+03 0.417872149428836D+02 0.106507101168667D+03 0.153938487346304D+03
 0.207494630885059D+03 -.267754199891259D+02 -.125679466345392D+03 -.141684701062958D+03
 0.496800756309345D+02 -.348400988112579D+02 -.332283335609720D+02 -.122537862833467D+02
 0.123436066320233D+03 0.198283038575002D+02 0.524006987376971D+02 -.109988488518338D+03
0.112526894893D-04 0.000000000000D+00 0.000000000000D+00 0.634363724808D-07 0.000000000000D+00  6 21 2 25 24 1 21 2 0.32702272D-01 0.42188998D-01 0.33305759D+05 0.33305759D+05 0.33305759D+05 0.12101624D+01  1  2  2  2  6  2        2 0.221830306215D-01 0.100000000000D+01
-.122268004261D-06 0.593820738656D-06 -.227159380354D-07 0.634363724808D-07 0.000000000000D+00  6 21 2 25 24 1 21 4 0.32702272D-01 0.42188998D-01 0.33305759D+05 0.33305759D+05 0.33305759D+05 0.12101624D+01  1  2  3  2  6  2        2 -.352991839499D-03 0.100000000000D+01
0.120168619213D-05 0.000000000000D+00 0.000000000000D+00 0.634363724808D-07 0.000000000000D+00  6 21 2 25 24 1 21 4 0.32702272D-01 0.42188998D-01 0.33305759D+05 0.33305759D+05 0.33305759D+05 0.12101624D+01  1  2 15  2  6  2        2 0.346930844274D-02 0.100000000000D+01
-.665848029327D-04 0.000000000000D+00 0.000000000000D+00 0.634363724808D-07 0.000000000000D+00  6 21 2 25 24 1 21 4 0.32702272D-01 0.42188998D-01 0.33305759D+05 0.33305759D+05 0.33305759D+05 0.12101624D+01  1  2  4  2  6  2        2 -.192232564945D+00 0.100000000000D+01
-.977521873423D-04 0.000000000000D+00 -.141382784362D-04 0.634363724808D-07 0.000000000000D+00  6 21 2 25 24 1 21 4 0.32702272D-01 0.64172765D-01 0.33305759D+05 0.33305759D+05 0.33305759D+05 0.12101624D+01  1  2  5  2  6  2        2 -.179920629634D+00 0.100000000000D+01
0.962499221574D-04 0.000000000000D+00 0.129797894585D-04 0.634363724808D-07 0.000000000000D+00  6 21 2 25 24 1 21 4 0.32702272D-01 0.42188998D-01 0.33305759D+05 0.33305759D+05 0.33305759D+05 0.12101624D+01  1  2  6  2  6  2        2 0.277876761621D+00 0.100000000000D+01
-.430450979623D-05 0.000000000000D+00 -.696935811163D-06 0.634363724808D-07 0.000000000000D+00  6 21 21 25 24 1 -2 4 0.32702272D-01 0.64172765D-01 0.33305759D+05 0.33305759D+05 0.33305759D+05 0.12101624D+01  1  2  5 10  6  2        2 -.187327904966D-01 0.100000000000D+01
  </mgrwgt>
  </event>
  <event>
  6     66 -.42910585E-03 0.13441946E+03 0.75467711E-02 0.11095112E+00
       21 -1    0    0  501  502 0.00000000E+00 0.00000000E+00 0.75479707E+02 0.75483433E+02 0.75000000E+00 0.0000E+00 0.9000E+01
        2 -1    0    0  503    0 0.00000000E+00 0.00000000E+00 -.11176250E+04 0.11176251E+04 0.32000000E+00 0.0000E+00 0.9000E+01
       25  1    1    2    0    0 0.12128946E+02 0.15053716E+02 -.27638468E+03 0.30395266E+03 0.12500000E+03 0.0000E+00 0.9000E+01
       24  1    1    2    0    0 0.63700874E+00 -.11336149E+03 -.48333000E+03 0.50291782E+03 0.80419002E+02 0.0000E+00 0.9000E+01
        1  1    1    2  501    0 -.45108751E+02 0.16582597E+03 -.12690712E+03 0.21363186E+03 0.32000000E+00 0.0000E+00 0.9000E+01
       21  1    1    2  503  502 0.32342796E+02 -.67518195E+02 -.15552352E+03 0.17260617E+03 0.75000000E+00 0.0000E+00 0.9000E+01
#aMCatNLO 2  0  0  2  1 0.74864965D+02 0.00000000D+00  -5  6  0 0.00000000D+00 0.00000000D+00 0.00000000D+00 0.00000000D+00 0.00000000D+00
  <mgrwgt>
 -.1281806785D-01    2    2    0
 0.249860978512480D+03 0.000000000000000D+00 0.000000000000000D+00 0.249860978512480D+03
 0.249860978512480D+03 0.000000000000000D+00 0.000000000000000D+00 -.249860978512480D+03
 0.129094992816964D+03 0.204317254986830D+02 -.227903271142145D+01 -.248569461812735D+02
 0.184847808865683D+03 0.119798517594201D+02 -.137040625335551D+03 -.936901630243912D+02
 0.185779155342312D+03 -.324115772581031D+02 0.139319658046972D+03 0.118547109205665D+03
 0.000000000000000D+00 0.000000000000000D+00 -.000000000000000D+00 -.000000000000000D+00
 0.284884641967203D+03 0.000000000000000D+00 0.000000000000000D+00 0.284884641967203D+03
 0.296116974161193D+03 0.000000000000000D+00 0.000000000000000D+00 -.296116974161193D+03
 0.128905361362105D+03 0.121289582524516D+02 0.150536635456767D+02 -.248569461812735D+02
 0.167619538606670D+03 0.637021020791066D+00 -.113361551352407D+03 -.936901630243912D+02
 0.208773820973501D+03 -.451087750549106D+02 0.165826082495791D+03 0.118547109205665D+03
 0.757028951861202D+02 0.323427957816679D+02 -.675181946890605D+02 -.112323321939900D+02
-.880931445781D-05 0.000000000000D+00 0.000000000000D+00 0.243114157708D-06 0.000000000000D+00  6 21 2 25 24 1 21 4 0.10184842D-01 0.18049308D+00 0.65585635D+05 0.65585635D+05 0.65585635D+05 0.11807849D+01  1  2 13  2  6  2        2 -.350653152303D-01 0.100000000000D+01
0.656227036834D-05 0.000000000000D+00 0.000000000000D+00 0.249362346770D-06 0.404718876219D-09  6 21 2 25 24 1 21 4 0.11612478D-01 0.17194150D+00 0.65585635D+05 0.65585635D+05 0.65585635D+05 0.11807849D+01  1  2  1  2  6  2        2 0.222472473837D-01 0.100000000000D+01
  </mgrwgt>
  </event>
  <event>
  5     66 -.42910585E-03 0.80483306E+02 0.75467711E-02 0.11673145E+00
       21 -1    0    0  501  502 0.00000000E+00 0.00000000E+00 0.60890538E+03 0.60890584E+03 0.75000000E+00 0.0000E+00 0.9000E+01
        2 -1    0    0  502    0 0.00000000E+00 0.00000000E+00 -.13211806E+03 0.13211845E+03 0.32000000E+00 0.0000E+00 0.9000E+01
       25  1    1    2    0    0 0.92362241E+01 0.68502649E+02 0.62211054E+02 0.15579838E+03 0.12500000E+03 0.0000E+00 0.9000E+01
       24  1    1    2    0    0 0.69532190E+02 -.85028103E+02 -.24943737E+02 0.13839765E+03 0.80419002E+02 0.0000E+00 0.9000E+01
        1  1    1    2  501    0 -.78768414E+02 0.16525454E+02 0.43952000E+03 0.44682825E+03 0.32000000E+00 0.0000E+00 0.9000E+01
#aMCatNLO 1  0  0  5  2 0.25560333D+02 0.00000000D+00  -5  6  0 0.00000000D+00 0.00000000D+00 0.00000000D+00 0.00000000D+00 0.00000000D+00
  <mgrwgt>
 -.1493707029D-01    6    2    0
 0.283633057356167D+03 0.000000000000000D+00 0.000000000000000D+00 0.283633057356167D+03
 0.283633057356167D+03 -.000000000000000D+00 -.000000000000000D+00 -.283633057356167D+03
 0.151232290950708D+03 0.923624752382121D+01 0.685026441014971D+02 -.496818408372898D+02
 0.201755251928762D+03 0.695322209039907D+02 -.850281091811393D+02 -.148907543904620D+03
 0.214278571832865D+03 -.787684684278119D+02 0.165254650796422D+02 0.198589384741910D+03
 0.000000000000000D+00 0.000000000000000D+00 0.000000000000000D+00 0.000000000000000D+00
 0.283633057356167D+03 0.000000000000000D+00 0.000000000000000D+00 0.283633057356167D+03
 0.283633057356167D+03 -.000000000000000D+00 -.000000000000000D+00 -.283633057356167D+03
 0.150751163526072D+03 0.861976659744741D+01 0.686319805507693D+02 -.481275822574636D+02
 0.199878108948369D+03 0.687123107310802D+02 -.848560936881214D+02 -.146840403841701D+03
 0.124357715049248D+03 -.683320841466015D+02 0.551589641244589D+01 0.103755204472927D+03
 0.922791271886442D+02 -.899999318192616D+01 0.107082167249063D+02 0.912127816262375D+02
0.143057865686D-04 0.000000000000D+00 0.000000000000D+00 0.923689383110D-06 0.000000000000D+00  6 21 2 25 24 1 21 2 0.93677816D-01 0.20325921D-01 0.32301683D+05 0.32301683D+05 0.32301683D+05 0.12115433D+01  1  2  2  3  6  5        1 0.673398585740D-02 0.100000000000D+01
0.606078242416D-06 0.754937097950D-06 -.288792614022D-07 0.923689383110D-06 0.000000000000D+00  6 21 2 25 24 1 21 4 0.93677816D-01 0.20325921D-01 0.32301683D+05 0.32301683D+05 0.32301683D+05 0.12115433D+01  1  2  3  3  6  5        1 0.418761809528D-03 0.100000000000D+01
0.144392496507D-05 0.000000000000D+00 0.000000000000D+00 0.923689383110D-06 0.000000000000D+00  6 21 2 25 24 1 21 4 0.93677816D-01 0.20325921D-01 0.32301683D+05 0.32301683D+05 0.32301683D+05 0.12115433D+01  1  2 15  3  6  5        1 0.997661009550D-03 0.100000000000D+01
-.520093260241D-04 0.000000000000D+00 0.000000000000D+00 0.923689383110D-06 0.000000000000D+00  6 21 2 25 24 1 21 4 0.93677816D-01 0.20325921D-01 0.32301683D+05 0.32301683D+05 0.32301683D+05 0.12115433D+01  1  2  4  3  6  5        1 -.359351614263D-01 0.100000000000D+01
-.364319251823D-04 0.000000000000D+00 0.000000000000D+00 0.923689383110D-06 0.000000000000D+00  6 21 2 25 24 1 21 4 0.93677816D-01 0.20325921D-01 0.32301683D+05 0.32301683D+05 0.32301683D+05 0.12115433D+01  1  2  5  3  6  5        1 -.251721606985D-01 0.100000000000D+01
0.550265071852D-04 0.000000000000D+00 -.000000000000D+00 0.923689383110D-06 0.000000000000D+00  6 21 2 25 24 1 21 4 0.93677816D-01 0.20325921D-01 0.32301683D+05 0.32301683D+05 0.32301683D+05 0.12115433D+01  1  2  6  3  6  5        1 0.380198431626D-01 0.100000000000D+01
  </mgrwgt>
  </event>
  <event>
  6     66 0.42910585E-03 0.61846826E+02 0.75467711E-02 0.11844093E+00
       21 -1    0    0  501  502 0.00000000E+00 0.00000000E+00 0.61069112E+02 0.61073718E+02 0.75000000E+00 0.0000E+00 0.9000E+01
        2 -1    0    0  502    0 -.00000000E+00 -.00000000E+00 -.11057051E+04 0.11057052E+04 0.32000000E+00 0.0000E+00 0.9000E+01
       25  1    1    2    0    0 -.61454623E+01 -.69052412E+02 -.76200568E+03 0.77529585E+03 0.12500000E+03 0.0000E+00 0.9000E+01
       24  1    1    2    0    0 -.52204844E+02 0.60022548E+02 -.29642537E+03 0.31727475E+03 0.80419002E+02 0.0000E+00 0.9000E+01
        1  1    1    2  503    0 0.63892026E+02 0.12460681E+02 0.82483845E+01 0.65617054E+02 0.32000000E+00 0.0000E+00 0.9000E+01
       21  1    1    2  501  503 -.55417197E+01 -.34308173E+01 0.55466612E+01 0.85912231E+01 0.75000000E+00 0.0000E+00 0.9000E+01
#aMCatNLO 2  0  0  5  2 0.15222449D+02 0.00000000D+00  -5  6  0 0.00000000D+00 0.00000000D+00 0.00000000D+00 0.00000000D+00 0.00000000D+00
  <mgrwgt>
 0.6575077682D-01    1    2    0
 0.259859853990512D+03 0.000000000000000D+00 0.000000000000000D+00 0.259859853990512D+03
 0.259859853990512D+03 -.000000000000000D+00 -.000000000000000D+00 -.259859853990512D+03
 0.210311834916538D+03 -.674011571554257D+01 -.691444358548870D+02 -.154206633243877D+03
 0.116841926267932D+03 -.525357840567008D+02 0.599713336715427D+02 -.287793382626241D+02
 0.192565946796554D+03 0.592758997722434D+02 0.917310218334436D+01 0.182985971506501D+03
 0.000000000000000D+00 0.000000000000000D+00 0.000000000000000D+00 0.000000000000000D+00
 0.259859853990512D+03 0.000000000000000D+00 0.000000000000000D+00 0.259859853990512D+03
 0.259859853990512D+03 -.000000000000000D+00 -.000000000000000D+00 -.259859853990512D+03
 0.208917793500339D+03 -.614417253804920D+01 -.690522120728168D+02 -.152366943897696D+03
 0.116471343511721D+03 -.522041246463940D+02 0.600226588420167D+02 -.277554985632279D+02
 0.163823856809581D+03 0.639130212375581D+02 0.124720092736345D+02 0.150325748828775D+03
 0.305067141593832D+02 -.556472405311480D+01 -.344245604283445D+01 0.297966936321490D+02
0.112715684739D-04 0.000000000000D+00 0.000000000000D+00 0.175568573444D-05 0.383997588601D-06  6 21 2 25 24 1 21 4 0.93956059D-02 0.17010884D+00 0.26849247D+05 0.26849247D+05 0.26849247D+05 0.12199888D+01  1  2  1  3  6  5        1 0.657507768231D-01 0.100000000000D+01
  </mgrwgt>
  </event>
  <event>
  5     66 0.42910585E-03 0.12626623E+03 0.75467711E-02 0.10745027E+00
       21 -1    0    0  501  502 0.00000000E+00 0.00000000E+00 0.69265245E+03 0.69265286E+03 0.75000000E+00 0.0000E+00 0.9000E+01
        4 -1    0    0  502    0 0.00000000E+00 0.00000000E+00 -.91833676E+02 0.91846756E+02 0.15500000E+01 0.0000E+00 0.9000E+01
       25  1    1    2    0    0 0.42962364E+02 -.19056936E+02 0.11275545E+03 0.17477907E+03 0.12500000E+03 0.0000E+00 0.9000E+01
       24  1    1    2    0    0 -.56818231E+01 0.13969376E+03 0.75156960E+02 0.17793935E+03 0.80419002E+02 0.0000E+00 0.9000E+01
        3  1    1    2  501    0 -.37280541E+02 -.12063682E+03 0.41290636E+03 0.43178119E+03 0.50000000E+00 0.0000E+00 0.9000E+01
#aMCatNLO 1  0  0  1  1 0.35596212D+02 0.00000000D+00  -5  6  0 0.00000000D+00 0.00000000D+00 0.00000000D+00 0.00000000D+00 0.00000000D+00
  <mgrwgt>
 0.1575695537D-01    3    2    0
 0.252218379067751D+03 0.000000000000000D+00 0.000000000000000D+00 0.252218379067751D+03
 0.252218379067751D+03 0.000000000000000D+00 0.000000000000000D+00 -.252218379067751D+03
 0.137516810487036D+03 0.429624032447283D+02 -.190568090695021D+02 -.328168112718668D+02
 0.187214257038395D+03 -.568176950280661D+01 0.139693930876793D+03 -.950541175098400D+02
 0.179705690610072D+03 -.372806337419217D+02 -.120637121807291D+03 0.127870928781707D+03
 0.000000000000000D+00 0.000000000000000D+00 -.000000000000000D+00 -.000000000000000D+00
 0.309400780874864D+03 0.000000000000000D+00 0.000000000000000D+00 0.309400780874864D+03
 0.473393485843882D+03 0.000000000000000D+00 0.000000000000000D+00 -.473393485843882D+03
 0.129380871116316D+03 -.213058230370370D+01 -.573823385813587D+01 -.328168112718668D+02
 0.215576639138715D+03 -.737342304730268D+02 0.159793771433524D+03 -.950541175098400D+02
 0.191792524466970D+03 -.100046123284964D+03 -.102098830696374D+03 0.127870928781707D+03
 0.246044231996746D+03 0.175910936061694D+03 -.519567068790141D+02 -.163992704969018D+03
0.799935520826D-04 0.000000000000D+00 0.000000000000D+00 0.265387663437D-06 0.000000000000D+00  6 21 4 25 24 3 21 2 0.10656295D+00 0.14129295D-01 0.44330923D+05 0.44330923D+05 0.44330923D+05 0.11974926D+01  1  2  2  1  6  1       21 0.142271964545D-01 0.100000000000D+01
-.275352318757D-05 0.422137571915D-05 -.161483934491D-06 0.265387663437D-06 0.000000000000D+00  6 21 4 25 24 3 21 4 0.10656295D+00 0.14129295D-01 0.44330923D+05 0.44330923D+05 0.44330923D+05 0.11974926D+01  1  2  3  1  6  1       21 -.702261381779D-03 0.100000000000D+01
0.875161271104D-05 0.000000000000D+00 0.000000000000D+00 0.265387663437D-06 0.000000000000D+00  6 21 4 25 24 3 21 4 0.10656295D+00 0.14129295D-01 0.44330923D+05 0.44330923D+05 0.44330923D+05 0.11974926D+01  1  2 15  1  6  1       21 0.223202029422D-02 0.100000000000D+01
  </mgrwgt>
  </event>
  <event>
  6     66 0.42910585E-03 0.48152542E+02 0.75467711E-02 0.11656922E+00
        2 -1    0    0  501    0 0.00000000E+00 0.00000000E+00 0.58239377E+03 0.58239386E+03 0.32000000E+00 0.0000E+00 0.9000E+01
        2 -1    0    0  502    0 0.00000000E+00 0.00000000E+00 -.78752648E+02 0.78753298E+02 0.32000000E+00 0.0000E+00 0.9000E+01
       25  1    1    2    0    0 0.10469307E+02 -.19166722E+02 0.46944717E+02 0.13529884E+03 0.12500000E+03 0.0000E+00 0.9000E+01
       24  1    1    2    0    0 -.21197126E+02 0.29948518E+01 0.20622858E+03 0.22238645E+03 0.80419002E+02 0.0000E+00 0.9000E+01
        1  1    1    2  501    0 -.70712947E+02 -.23913611E+01 0.51025329E+02 0.87233744E+02 0.32000000E+00 0.0000E+00 0.9000E+01
        2  1    1    2  502    0 0.81440766E+02 0.18563231E+02 0.19944249E+03 0.21622812E+03 0.32000000E+00 0.0000E+00 0.9000E+01
#aMCatNLO 2  0  0  1  1 0.71461460D+00 0.00000000D+00  -5  6  0 0.00000000D+00 0.00000000D+00 0.00000000D+00 0.00000000D+00 0.00000000D+00
  <mgrwgt>
 0.3942294343D-02    1    2    0
 0.156874907144478D+03 0.000000000000000D+00 0.000000000000000D+00 0.156874907144478D+03
 0.156874907144478D+03 0.000000000000000D+00 0.000000000000000D+00 -.156874907144478D+03
 0.147931156621706D+03 0.473808290160994D+02 -.107533871563855D+02 -.624343559736760D+02
 0.110083936478128D+03 0.707250199319485D+01 0.943842065511490D+01 0.742438754864219D+02
 0.557347211891219D+02 -.544533310092943D+02 0.131496650127064D+01 -.118095195127459D+02
 0.000000000000000D+00 0.000000000000000D+00 0.000000000000000D+00 0.000000000000000D+00
 0.252417805147919D+03 0.000000000000000D+00 0.000000000000000D+00 0.252417805147919D+03
 0.181703445700100D+03 0.000000000000000D+00 0.000000000000000D+00 -.181703445700100D+03
 0.141421453612947D+03 0.104697191877261D+02 -.191667346275082D+02 -.624343559736760D+02
 0.111524182079105D+03 -.211968182534472D+02 0.299484268866160D+01 0.742438754864219D+02
 0.717328789181180D+02 -.707136667405046D+02 -.239133913786852D+01 -.118095195127459D+02
 0.109442736237849D+03 0.814407658062257D+02 0.185632310767152D+02 0.707143594478198D+02
0.457479931663D-05 0.000000000000D+00 0.000000000000D+00 0.209581901133D-06 0.117479696732D-09  6 2 2 25 24 1 2 4 0.89598990D-01 0.12115834D-01 0.33196253D+05 0.33196253D+05 0.33196253D+05 0.12103107D+01  1  2  1  7  6  1       21 0.394229434315D-02 0.100000000000D+01
  </mgrwgt>
  </event>
  <event>
  5     66 0.42910585E-03 0.23216230E+02 0.75467711E-02 0.12239373E+00
       21 -1    0    0  501  502 0.00000000E+00 0.00000000E+00 0.41944153E+02 0.41950857E+02 0.75000000E+00 0.0000E+00 0.9000E+01
        2 -1    0    0  502    0 0.00000000E+00 0.00000000E+00 -.95228926E+03 0.95228932E+03 0.32000000E+00 0.0000E+00 0.9000E+01
       25  1    1    2    0    0 -.17499654E+02 -.35113165E+02 -.73652030E+03 0.74808177E+03 0.12500000E+03 0.0000E+00 0.9000E+01
       24  1    1    2    0    0 0.39711062E+02 0.28357121E+02 -.19386937E+03 0.21548468E+03 0.80419002E+02 0.0000E+00 0.9000E+01
        1  1    1    2  501    0 -.22211408E+02 0.67560436E+01 0.20044568E+02 0.30673733E+02 0.32000000E+00 0.0000E+00 0.9000E+01
#aMCatNLO 1  0  0  1  2 0.20534726D+02 0.00000000D+00  -5  6  0 0.00000000D+00 0.00000000D+00 0.00000000D+00 0.00000000D+00 0.00000000D+00
  <mgrwgt>
 0.2105709540D+00   23    2    0
 0.199865769895674D+03 0.000000000000000D+00 0.000000000000000D+00 0.199865769895674D+03
 0.199865769895674D+03 0.000000000000000D+00 0.000000000000000D+00 -.199865769895674D+03
 0.183336399645305D+03 -.174996184827967D+02 -.351131753150238D+02 -.128250004706260D+03
 0.944520972067810D+02 0.397110796266134D+02 0.283571155058189D+02 0.853738059753037D+01
 0.121943042939263D+03 -.222114611438167D+02 0.675605980920492D+01 0.119712624108730D+03
 0.000000000000000D+00 -.000000000000000D+00 -.000000000000000D+00 0.000000000000000D+00
 0.210909602789427D+03 0.000000000000000D+00 0.000000000000000D+00 0.210909602789427D+03
 0.209908167361366D+03 0.000000000000000D+00 0.000000000000000D+00 -.209908167361366D+03
 0.182233592073471D+03 -.845091282783858D+01 -.326282154771093D+02 -.128250004706260D+03
 0.969295928062811D+02 0.444482205843122D+02 0.296580314020026D+02 0.853738059753037D+01
 0.121095455083360D+03 -.161956943105214D+02 0.840811254967684D+01 0.119712624108730D+03
 0.205591301876813D+02 -.198016134459522D+02 -.543792847457015D+01 0.100143542806088D+01
0.332738699529D-05 0.000000000000D+00 0.000000000000D+00 0.543296691677D-05 0.000000000000D+00  6 21 2 25 24 1 21 2 0.64534665D-02 0.14650656D+00 0.15412453D+05 0.15412453D+05 0.15412453D+05 0.12464818D+01  1  2  2  1  6  1       21 0.322081541006D-01 0.100000000000D+01
0.695071672256D-06 0.175591035833D-06 -.671703568080D-08 0.543296691677D-05 0.000000000000D+00  6 21 2 25 24 1 21 4 0.64534665D-02 0.14650656D+00 0.15412453D+05 0.15412453D+05 0.15412453D+05 0.12464818D+01  1  2  3  1  6  1       21 0.104535542432D-01 0.100000000000D+01
0.340631477349D-06 0.000000000000D+00 0.000000000000D+00 0.543296691677D-05 0.000000000000D+00  6 21 2 25 24 1 21 4 0.64534665D-02 0.14650656D+00 0.15412453D+05 0.15412453D+05 0.15412453D+05 0.12464818D+01  1  2 15  1  6  1       21 0.512293878107D-02 0.100000000000D+01
0.699223383362D-05 0.000000000000D+00 0.000000000000D+00 0.537816615155D-05 0.000000000000D+00  6 21 2 25 24 1 21 4 0.69637983D-02 0.14650656D+00 0.17529781D+05 0.17529781D+05 0.17529781D+05 0.12401794D+01  1  2 12  1  6  1       21 0.905000826875D-01 0.100000000000D+01
-.198367162834D-05 0.000000000000D+00 0.000000000000D+00 0.543296691677D-05 0.000000000000D+00  6 21 2 25 24 1 21 4 0.64534665D-02 0.14650656D+00 0.15412453D+05 0.15412453D+05 0.15412453D+05 0.12464818D+01  1  2  4  1  6  1       21 -.298334974583D-01 0.100000000000D+01
-.417713582252D-04 0.000000000000D+00 -.106594276583D-04 0.543296691677D-05 0.000000000000D+00  6 21 2 25 24 1 21 4 0.71626636D-02 0.14650656D+00 0.15412453D+05 0.15412453D+05 0.15412453D+05 0.12464818D+01  1  2  5  1  6  1       21 -.525839336264D+00 0.100000000000D+01
0.420177348022D-04 0.000000000000D+00 0.104311904010D-04 0.543296691677D-05 0.000000000000D+00  6 21 2 25 24 1 21 4 0.64534665D-02 0.14650656D+00 0.15412453D+05 0.15412453D+05 0.15412453D+05 0.12464818D+01  1  2  6  1  6  1       21 0.631927163002D+00 0.100000000000D+01
0.131845086009D-06 0.000000000000D+00 0.000000000000D+00 0.537816615155D-05 0.000000000000D+00  6 -1 2 25 24 1 -1 4 0.69637983D-02 0.14650656D+00 0.17529781D+05 0.17529781D+05 0.17529781D+05 0.12401794D+01  1  2 12  4  6  1       21 0.104418493884D-03 0.100000000000D+01
-.866604808607D-06 0.000000000000D+00 -.285504964817D-06 0.543296691677D-05 0.000000000000D+00  6 -1 2 25 24 1 -1 4 0.71626636D-02 0.14650656D+00 0.15412453D+05 0.15412453D+05 0.15412453D+05 0.12464818D+01  1  2  5  4  6  1       21 -.670262281843D-03 0.100000000000D+01
0.131845086009D-06 0.000000000000D+00 0.000000000000D+00 0.537816615155D-05 0.000000000000D+00  6 1 2 25 24 1 1 4 0.69637983D-02 0.14650656D+00 0.17529781D+05 0.17529781D+05 0.17529781D+05 0.12401794D+01  1  2 12  5  6  1       21 0.122903373112D-03 0.100000000000D+01
-.866604808607D-06 0.000000000000D+00 -.285504964817D-06 0.543296691677D-05 0.000000000000D+00  6 1 2 25 24 1 1 4 0.71626636D-02 0.14650656D+00 0.15412453D+05 0.15412453D+05 0.15412453D+05 0.12464818D+01  1  2  5  5  6  1       21 -.792456762657D-03 0.100000000000D+01
0.131845086009D-06 0.000000000000D+00 0.000000000000D+00 0.537816615155D-05 0.000000000000D+00  6 -2 2 25 24 1 -2 4 0.69637983D-02 0.14650656D+00 0.17529781D+05 0.17529781D+05 0.17529781D+05 0.12401794D+01  1  2 12  6  6  1       21 0.101185265376D-03 0.100000000000D+01
-.866604808607D-06 0.000000000000D+00 -.285504964817D-06 0.543296691677D-05 0.000000000000D+00  6 -2 2 25 24 1 -2 4 0.71626636D-02 0.14650656D+00 0.15412453D+05 0.15412453D+05 0.15412453D+05 0.12464818D+01  1  2  5  6  6  1       21 -.648891892624D-03 0.100000000000D+01
0.131845086009D-06 0.000000000000D+00 0.000000000000D+00 0.537816615155D-05 0.000000000000D+00  6 2 2 25 24 1 2 4 0.69637983D-02 0.14650656D+00 0.17529781D+05 0.17529781D+05 0.17529781D+05 0.12401794D+01  1  2 12  7  6  1       21 0.135302091137D-03 0.100000000000D+01
-.866604808607D-06 0.000000000000D+00 -.285504964817D-06 0.543296691677D-05 0.000000000000D+00  6 2 2 25 24 1 2 4 0.71626636D-02 0.14650656D+00 0.15412453D+05 0.15412453D+05 0.15412453D+05 0.12464818D+01  1  2  5  7  6  1       21 -.874377078251D-03 0.100000000000D+01
0.131845086009D-06 0.000000000000D+00 0.000000000000D+00 0.537816615155D-05 0.000000000000D+00  6 -3 2 25 24 1 -3 4 0.69637983D-02 0.14650656D+00 0.17529781D+05 0.17529781D+05 0.17529781D+05 0.12401794D+01  1  2 12  8  6  1       21 0.715087923710D-04 0.100000000000D+01
0.131845086009D-06 0.000000000000D+00 0.000000000000D+00 0.537816615155D-05 0.000000000000D+00  6 -4 2 25 24 1 -4 4 0.69637983D-02 0.14650656D+00 0.17529781D+05 0.17529781D+05 0.17529781D+05 0.12401794D+01  1  2 12  8  6  1       21 0.630724170584D-04 0.100000000000D+01
-.866604808607D-06 0.000000000000D+00 -.285504964817D-06 0.543296691677D-05 0.000000000000D+00  6 -3 2 25 24 1 -3 4 0.71626636D-02 0.14650656D+00 0.15412453D+05 0.15412453D+05 0.15412453D+05 0.12464818D+01  1  2  5  8  6  1       21 -.456135566001D-03 0.100000000000D+01
-.866604808607D-06 0.000000000000D+00 -.285504964817D-06 0.543296691677D-05 0.000000000000D+00  6 -4 2 25 24 1 -4 4 0.71626636D-02 0.14650656D+00 0.15412453D+05 0.15412453D+05 0.15412453D+05 0.12464818D+01  1  2  5  8  6  1       21 -.401431673238D-03 0.100000000000D+01
0.131845086009D-06 0.000000000000D+00 0.000000000000D+00 0.537816615155D-05 0.000000000000D+00  6 3 2 25 24 1 3 4 0.69637983D-02 0.14650656D+00 0.17529781D+05 0.17529781D+05 0.17529781D+05 0.12401794D+01  1  2 12  9  6  1       21 0.715005143491D-04 0.100000000000D+01
0.131845086009D-06 0.000000000000D+00 0.000000000000D+00 0.537816615155D-05 0.000000000000D+00  6 4 2 25 24 1 4 4 0.69637983D-02 0.14650656D+00 0.17529781D+05 0.17529781D+05 0.17529781D+05 0.12401794D+01  1  2 12  9  6  1       21 0.630724170584D-04 0.100000000000D+01
-.866604808607D-06 0.000000000000D+00 -.285504964817D-06 0.543296691677D-05 0.000000000000D+00  6 3 2 25 24 1 3 4 0.71626636D-02 0.14650656D+00 0.15412453D+05 0.15412453D+05 0.15412453D+05 0.12464818D+01  1  2  5  9  6  1       21 -.456081570556D-03 0.100000000000D+01
-.866604808607D-06 0.000000000000D+00 -.285504964817D-06 0.543296691677D-05 0.000000000000D+00  6 4 2 25 24 1 4 4 0.71626636D-02 0.14650656D+00 0.15412453D+05 0.15412453D+05 0.15412453D+05 0.12464818D+01  1  2  5  9  6  1       21 -.401431673238D-03 0.100000000000D+01
  </mgrwgt>
  </event>
  <event>
  6     66 -.42910585E-03 0.90963211E+02 0.75467711E-02 0.11695270E+00
       21 -1    0    0  501  502 0.00000000E+00 0.00000000E+00 0.56434911E+03 0.56434961E+03 0.75000000E+00 0.0000E+00 0.9000E+01
       21 -1    0    0  502  503 0.00000000E+00 0.00000000E+00 -.66546221E+02 0.66550447E+02 0.75000000E+00 0.0000E+00 0.9000E+01
       25  1    1    2    0    0 -.69861054E+02 0.56481576E+02 0.27247811E+03 0.31295376E+03 0.12500000E+03 0.0000E+00 0.9000E+01
       24  1    1    2    0    0 0.21961045E+02 0.37368059E+02 0.38521064E+02 0.99145084E+02 0.80419002E+02 0.0000E+00 0.9000E+01
        3  1    1    2  501    0 0.20102826E+02 -.74840793E+02 0.15036726E+03 0.16916215E+03 0.50000000E+00 0.0000E+00 0.9000E+01
       -4  1    1    2    0  503 0.27797183E+02 -.19008842E+02 0.36436460E+02 0.49639073E+02 0.15500000E+01 0.0000E+00 0.9000E+01
#aMCatNLO 2  0  0  2  1 0.33675206D+02 0.00000000D+00  -5  6  0 0.00000000D+00 0.00000000D+00 0.00000000D+00 0.00000000D+00 0.00000000D+00
  <mgrwgt>
 -.4197930744D-02    2    2    0
 0.175976794980178D+03 0.000000000000000D+00 0.000000000000000D+00 0.175976794980178D+03
 0.175976794980178D+03 0.000000000000000D+00 0.000000000000000D+00 -.175976794980178D+03
 0.151099573213798D+03 -.576456640059731D+02 0.481286202803183D+02 0.395814900757311D+02
 0.112961002584488D+03 0.308530876066939D+02 0.312876371345997D+02 -.660465207122183D+02
 0.878930141620706D+02 0.267925763992792D+02 -.794162574149181D+02 0.264650306364872D+02
 0.000000000000000D+00 0.000000000000000D+00 -.000000000000000D+00 -.000000000000000D+00
 0.191357379258784D+03 0.000000000000000D+00 0.000000000000000D+00 0.191357379258784D+03
 0.196229389067811D+03 0.000000000000000D+00 0.000000000000000D+00 -.196229389067811D+03
 0.158941881711728D+03 -.698612578971442D+02 0.564821392165556D+02 0.395814900757311D+02
 0.112729956224058D+03 0.219608925343398D+02 0.373684810610921D+02 -.660465207122183D+02
 0.818891171653885D+02 0.201031820188667D+02 -.748417780137059D+02 0.264650306364872D+02
 0.340258132254200D+02 0.277971833439377D+02 -.190088422639418D+02 -.487200980902713D+01
-.771280252536D-06 0.000000000000D+00 0.000000000000D+00 0.228319601159D-06 0.000000000000D+00  6 21 21 25 24 3 -4 4 0.79837493D-01 0.10598459D-01 0.31765987D+05 0.31765987D+05 0.31765987D+05 0.12122998D+01  1  2 13 10  6  2        4 -.169475124620D-01 0.100000000000D+01
0.660228431897D-06 0.000000000000D+00 0.000000000000D+00 0.231921530422D-06 0.446910177991D-10  6 21 21 25 24 3 -4 4 0.86815386D-01 0.10237310D-01 0.31765987D+05 0.31765987D+05 0.31765987D+05 0.12122998D+01  1  2  1 10  6  2        4 0.127495817175D-01 0.100000000000D+01
  </mgrwgt>
  </event>
  <event>
  5     66 0.42910585E-03 0.37574933E+02 0.75467711E-02 0.11986685E+00
       21 -1    0    0  501  502 0.00000000E+00 0.00000000E+00 0.37451551E+02 0.37459059E+02 0.75000000E+00 0.0000E+00 0.9000E+01
        4 -1    0    0  502    0 0.00000000E+00 0.00000000E+00 -.68374293E+03 0.68374469E+03 0.15500000E+01 0.0000E+00 0.9000E+01
       25  1    1    2    0    0 0.43163196E+02 0.47156211E+02 -.54401122E+03 0.56183626E+03 0.12500000E+03 0.0000E+00 0.9000E+01
       24  1    1    2    0    0 -.18608639E+02 -.18716573E+02 -.71006270E+02 0.11047940E+03 0.80419002E+02 0.0000E+00 0.9000E+01
        3  1    1    2  501    0 -.24554557E+02 -.28439638E+02 -.31273888E+02 0.48888090E+02 0.50000000E+00 0.0000E+00 0.9000E+01
#aMCatNLO 1  0  0  1  2 0.37515597D+02 0.00000000D+00  -5  6  0 0.00000000D+00 0.00000000D+00 0.00000000D+00 0.00000000D+00 0.00000000D+00
  <mgrwgt>
 0.1028106080D-01   23    2    0
 0.160033041001222D+03 0.000000000000000D+00 0.000000000000000D+00 0.160033041001222D+03
 0.160033041001222D+03 0.000000000000000D+00 0.000000000000000D+00 -.160033041001222D+03
 0.167493323804457D+03 0.431639224019388D+02 0.471570532650296D+02 -.913351063354247D+02
 0.105563389225884D+03 -.186081805213911D+02 -.187160424856816D+02 0.630861201996315D+02
 0.470093689721029D+02 -.245557418805478D+02 -.284410107793480D+02 0.282489861357932D+02
 0.000000000000000D+00 -.000000000000000D+00 0.000000000000000D+00 0.000000000000000D+00
 0.186045432006465D+03 0.000000000000000D+00 0.000000000000000D+00 0.186045432006465D+03
 0.175249794566174D+03 0.000000000000000D+00 0.000000000000000D+00 -.175249794566174D+03
 0.164018022197245D+03 0.463421266607305D+02 0.280573921231729D+02 -.913351063354247D+02
 0.108092040595281D+03 -.165598627031282D+02 -.310255647989271D+02 0.630861201996315D+02
 0.501471588345231D+02 -.236243007875999D+02 -.340385771408215D+02 0.282489861357932D+02
 0.390380049455907D+02 -.615796317000241D+01 0.370067498165757D+02 0.107956374402916D+02
0.259957996985D-05 0.000000000000D+00 0.000000000000D+00 0.476857133171D-06 0.000000000000D+00  6 21 4 25 24 3 21 2 0.57624898D-02 0.10519193D+00 0.17241411D+05 0.17241411D+05 0.17241411D+05 0.12409860D+01  1  2  2  1  6  1       21 0.262850619660D-02 0.100000000000D+01
0.250918909343D-08 0.137183603916D-06 -.524780298694D-08 0.476857133171D-06 0.000000000000D+00  6 21 4 25 24 3 21 4 0.57624898D-02 0.10519193D+00 0.17241411D+05 0.17241411D+05 0.17241411D+05 0.12409860D+01  1  2  3  1  6  1       21 0.390726579481D-05 0.100000000000D+01
0.258669883663D-06 0.000000000000D+00 0.000000000000D+00 0.476857133171D-06 0.000000000000D+00  6 21 4 25 24 3 21 4 0.57624898D-02 0.10519193D+00 0.17241411D+05 0.17241411D+05 0.17241411D+05 0.12409860D+01  1  2 15  1  6  1       21 0.402796262439D-03 0.100000000000D+01
0.292902088409D-05 0.000000000000D+00 0.000000000000D+00 0.466405310380D-06 0.000000000000D+00  6 21 4 25 24 3 21 4 0.69370827D-02 0.10519193D+00 0.22945595D+05 0.22945595D+05 0.22945595D+05 0.12273106D+01  1  2 12  1  6  1       21 0.321431231966D-02 0.100000000000D+01
-.111370962732D-05 0.000000000000D+00 0.000000000000D+00 0.476857133171D-06 0.000000000000D+00  6 21 4 25 24 3 21 4 0.57624898D-02 0.10519193D+00 0.17241411D+05 0.17241411D+05 0.17241411D+05 0.12409860D+01  1  2  4  1  6  1       21 -.173424934118D-02 0.100000000000D+01
-.129926715011D-04 0.000000000000D+00 -.421527856269D-05 0.476857133171D-06 0.000000000000D+00  6 21 4 25 24 3 21 4 0.73380366D-02 0.10519193D+00 0.17241411D+05 0.17241411D+05 0.17241411D+05 0.12409860D+01  1  2  5  1  6  1       21 -.134011325021D-01 0.100000000000D+01
0.124825740309D-04 0.000000000000D+00 0.376076872536D-05 0.476857133171D-06 0.000000000000D+00  6 21 4 25 24 3 21 4 0.57624898D-02 0.10519193D+00 0.17241411D+05 0.17241411D+05 0.17241411D+05 0.12409860D+01  1  2  6  1  6  1       21 0.194376480712D-01 0.100000000000D+01
0.153517370639D-06 0.000000000000D+00 0.000000000000D+00 0.466405310380D-06 0.000000000000D+00  6 -3 4 25 24 3 -3 4 0.69370827D-02 0.10519193D+00 0.22945595D+05 0.22945595D+05 0.22945595D+05 0.12273106D+01  1  2 12  4  6  1       21 0.712974514004D-05 0.100000000000D+01
-.766346898233D-06 0.000000000000D+00 -.304388521540D-06 0.476857133171D-06 0.000000000000D+00  6 -3 4 25 24 3 -3 4 0.73380366D-02 0.10519193D+00 0.17241411D+05 0.17241411D+05 0.17241411D+05 0.12409860D+01  1  2  5  4  6  1       21 -.332755330055D-04 0.100000000000D+01
0.153517370639D-06 0.000000000000D+00 0.000000000000D+00 0.466405310380D-06 0.000000000000D+00  6 3 4 25 24 3 3 4 0.69370827D-02 0.10519193D+00 0.22945595D+05 0.22945595D+05 0.22945595D+05 0.12273106D+01  1  2 12  5  6  1       21 0.712894006096D-05 0.100000000000D+01
-.766346898233D-06 0.000000000000D+00 -.304388521540D-06 0.476857133171D-06 0.000000000000D+00  6 3 4 25 24 3 3 4 0.73380366D-02 0.10519193D+00 0.17241411D+05 0.17241411D+05 0.17241411D+05 0.12409860D+01  1  2  5  5  6  1       21 -.332715995021D-04 0.100000000000D+01
0.153517370639D-06 0.000000000000D+00 0.000000000000D+00 0.466405310380D-06 0.000000000000D+00  6 -4 4 25 24 3 -4 4 0.69370827D-02 0.10519193D+00 0.22945595D+05 0.22945595D+05 0.22945595D+05 0.12273106D+01  1  2 12  6  6  1       21 0.630656535277D-05 0.100000000000D+01
-.766346898233D-06 0.000000000000D+00 -.304388521540D-06 0.476857133171D-06 0.000000000000D+00  6 -4 4 25 24 3 -4 4 0.73380366D-02 0.10519193D+00 0.17241411D+05 0.17241411D+05 0.17241411D+05 0.12409860D+01  1  2  5  6  6  1       21 -.292996533241D-04 0.100000000000D+01
0.153517370639D-06 0.000000000000D+00 0.000000000000D+00 0.466405310380D-06 0.000000000000D+00  6 4 4 25 24 3 4 4 0.69370827D-02 0.10519193D+00 0.22945595D+05 0.22945595D+05 0.22945595D+05 0.12273106D+01  1  2 12  7  6  1       21 0.630656535277D-05 0.100000000000D+01
-.766346898233D-06 0.000000000000D+00 -.304388521540D-06 0.476857133171D-06 0.000000000000D+00  6 4 4 25 24 3 4 4 0.73380366D-02 0.10519193D+00 0.17241411D+05 0.17241411D+05 0.17241411D+05 0.12409860D+01  1  2  5  7  6  1       21 -.292996533241D-04 0.100000000000D+01
0.153517370639D-06 0.000000000000D+00 0.000000000000D+00 0.466405310380D-06 0.000000000000D+00  6 -1 4 25 24 3 -1 4 0.69370827D-02 0.10519193D+00 0.22945595D+05 0.22945595D+05 0.22945595D+05 0.12273106D+01  1  2 12  8  6  1       21 0.103429212121D-04 0.100000000000D+01
0.153517370639D-06 0.000000000000D+00 0.000000000000D+00 0.466405310380D-06 0.000000000000D+00  6 -2 4 25 24 3 -2 4 0.69370827D-02 0.10519193D+00 0.22945595D+05 0.22945595D+05 0.22945595D+05 0.12273106D+01  1  2 12  8  6  1       21 0.100250624547D-04 0.100000000000D+01
-.766346898233D-06 0.000000000000D+00 -.304388521540D-06 0.476857133171D-06 0.000000000000D+00  6 -1 4 25 24 3 -1 4 0.73380366D-02 0.10519193D+00 0.17241411D+05 0.17241411D+05 0.17241411D+05 0.12409860D+01  1  2  5  8  6  1       21 -.488998570725D-04 0.100000000000D+01
-.766346898233D-06 0.000000000000D+00 -.304388521540D-06 0.476857133171D-06 0.000000000000D+00  6 -2 4 25 24 3 -2 4 0.73380366D-02 0.10519193D+00 0.17241411D+05 0.17241411D+05 0.17241411D+05 0.12409860D+01  1  2  5  8  6  1       21 -.473062002158D-04 0.100000000000D+01
0.153517370639D-06 0.000000000000D+00 0.000000000000D+00 0.466405310380D-06 0.000000000000D+00  6 1 4 25 24 3 1 4 0.69370827D-02 0.10519193D+00 0.22945595D+05 0.22945595D+05 0.22945595D+05 0.12273106D+01  1  2 12  9  6  1       21 0.121616409260D-04 0.100000000000D+01
0.153517370639D-06 0.000000000000D+00 0.000000000000D+00 0.466405310380D-06 0.000000000000D+00  6 2 4 25 24 3 2 4 0.69370827D-02 0.10519193D+00 0.22945595D+05 0.22945595D+05 0.22945595D+05 0.12273106D+01  1  2 12  9  6  1       21 0.133833411449D-04 0.100000000000D+01
-.766346898233D-06 0.000000000000D+00 -.304388521540D-06 0.476857133171D-06 0.000000000000D+00  6 1 4 25 24 3 1 4 0.73380366D-02 0.10519193D+00 0.17241411D+05 0.17241411D+05 0.17241411D+05 0.12409860D+01  1  2  5  9  6  1       21 -.580200436776D-04 0.100000000000D+01
-.766346898233D-06 0.000000000000D+00 -.304388521540D-06 0.476857133171D-06 0.000000000000D+00  6 2 4 25 24 3 2 4 0.73380366D-02 0.10519193D+00 0.17241411D+05 0.17241411D+05 0.17241411D+05 0.12409860D+01  1  2  5  9  6  1       21 -.641397167104D-04 0.100000000000D+01
  </mgrwgt>
  </event>
  <event>
  5     66 -.42910585E-03 0.35245969E+02 0.75467711E-02 0.12001231E+00
       21 -1    0    0  501  502 0.00000000E+00 0.00000000E+00 0.22541191E+02 0.22553665E+02 0.75000000E+00 0.0000E+00 0.9000E+01
        2 -1    0    0  502    0 0.00000000E+00 0.00000000E+00 -.15767915E+04 0.15767916E+04 0.32000000E+00 0.0000E+00 0.9000E+01
       25  1    1    2    0    0 -.13085902E+02 0.19947976E+01 -.12307976E+04 0.12371996E+04 0.12500000E+03 0.0000E+00 0.9000E+01
       24  1    1    2    0    0 0.45100476E+02 0.12747575E+02 -.31121198E+03 0.32483329E+03 0.80419002E+02 0.0000E+00 0.9000E+01
        1  1    1    2  501    0 -.32014574E+02 -.14742373E+02 -.12240791E+02 0.37312329E+02 0.32000000E+00 0.0000E+00 0.9000E+01
#aMCatNLO 1  0  0  2  1 0.21977581D+02 0.00000000D+00  -5  6  0 0.00000000D+00 0.00000000D+00 0.00000000D+00 0.00000000D+00 0.00000000D+00
  <mgrwgt>
 -.7436379058D-01    7    2    0
 0.188554396936191D+03 0.000000000000000D+00 0.000000000000000D+00 0.188554396936191D+03
 0.188554396936191D+03 0.000000000000000D+00 0.000000000000000D+00 -.188554396936191D+03
 0.174331142453616D+03 -.130858370093222D+02 0.199482761243449D+01 -.120793744712817D+03
 0.949838501798439D+02 0.451005118790540D+02 0.127475915772652D+02 0.189250780141863D+02
 0.107793801238922D+03 -.320146748697318D+02 -.147424191896996D+02 0.101868666698631D+03
 0.000000000000000D+00 0.000000000000000D+00 -.000000000000000D+00 -.000000000000000D+00
 0.191610887120634D+03 0.000000000000000D+00 0.000000000000000D+00 0.191610887120634D+03
 0.363488625065236D+03 0.000000000000000D+00 0.000000000000000D+00 -.363488625065236D+03
 0.176549408530622D+03 -.300813535092463D+02 0.697689485508978D+01 -.120793744712817D+03
 0.914517914595259D+02 0.360701737347259D+02 0.153947457169560D+02 0.189250780141863D+02
 0.111034040364214D+03 -.426139861800242D+02 -.116353361143515D+02 0.101868666698631D+03
 0.176064271831509D+03 0.366251659545446D+02 -.107363044576942D+02 -.171877737944602D+03
0.170377996258D-05 0.000000000000D+00 0.000000000000D+00 0.194658062259D-05 0.000000000000D+00  6 21 2 25 24 1 21 2 0.34688376D-02 0.24258428D+00 0.16132084D+05 0.16132084D+05 0.16132084D+05 0.12442362D+01  1  2  2  2  6  2        2 0.211138423566D-01 0.100000000000D+01
0.153208119619D-06 0.899109387887D-07 -.343944086367D-08 0.194658062259D-05 0.000000000000D+00  6 21 2 25 24 1 21 4 0.34688376D-02 0.24258428D+00 0.16132084D+05 0.16132084D+05 0.16132084D+05 0.12442362D+01  1  2  3  2  6  2        2 0.293928175451D-02 0.100000000000D+01
0.182343232620D-06 0.000000000000D+00 0.000000000000D+00 0.194658062259D-05 0.000000000000D+00  6 21 2 25 24 1 21 4 0.34688376D-02 0.24258428D+00 0.16132084D+05 0.16132084D+05 0.16132084D+05 0.12442362D+01  1  2 15  2  6  2        2 0.349823585088D-02 0.100000000000D+01
-.251205595743D-04 0.000000000000D+00 0.000000000000D+00 0.194658062259D-05 0.000000000000D+00  6 21 2 25 24 1 21 4 0.34688376D-02 0.24258428D+00 0.16132084D+05 0.16132084D+05 0.16132084D+05 0.12442362D+01  1  2  4  2  6  2        2 -.481935308672D+00 0.100000000000D+01
-.290967903256D-04 0.000000000000D+00 -.135114958090D-05 0.194658062259D-05 0.000000000000D+00  6 21 2 25 24 1 21 4 0.34688376D-02 0.46907323D+00 0.16132084D+05 0.16132084D+05 0.16132084D+05 0.12442362D+01  1  2  5  2  6  2        2 -.925217077937D-01 0.100000000000D+01
0.246745531143D-04 0.000000000000D+00 0.110261601391D-05 0.194658062259D-05 0.000000000000D+00  6 21 2 25 24 1 21 4 0.34688376D-02 0.24258428D+00 0.16132084D+05 0.16132084D+05 0.16132084D+05 0.12442362D+01  1  2  6  2  6  2        2 0.473378721374D+00 0.100000000000D+01
-.200218641005D-05 0.000000000000D+00 -.966253275726D-07 0.194658062259D-05 0.000000000000D+00  6 21 21 25 24 1 -2 4 0.34688376D-02 0.46907323D+00 0.16132084D+05 0.16132084D+05 0.16132084D+05 0.12442362D+01  1  2  5 10  6  2        2 -.836855448675D-03 0.100000000000D+01
  </mgrwgt>
  </event>
  <event>
  5     66 0.42910585E-03 0.88866901E+02 0.75467711E-02 0.11318755E+00
       21 -1    0    0  501  502 0.00000000E+00 0.00000000E+00 0.52849238E+03 0.52849291E+03 0.75000000E+00 0.0000E+00 0.9000E+01
        2 -1    0    0  502    0 0.00000000E+00 0.00000000E+00 -.18054588E+03 0.18054617E+03 0.32000000E+00 0.0000E+00 0.9000E+01
       25  1    1    2    0    0 -.54526758E+02 -.62457049E+02 -.36708022E+02 0.15442321E+03 0.12500000E+03 0.0000E+00 0.9000E+01
       24  1    1    2    0    0 -.43717209E+02 0.85879219E+02 -.28991447E+02 0.12881830E+03 0.80419002E+02 0.0000E+00 0.9000E+01
        1  1    1    2  501    0 0.98243967E+02 -.23422170E+02 0.41364597E+03 0.42579756E+03 0.32000000E+00 0.0000E+00 0.9000E+01
#aMCatNLO 1  0  0  1  2 0.56505718D+02 0.00000000D+00  -5  6  0 0.00000000D+00 0.00000000D+00 0.00000000D+00 0.00000000D+00 0.00000000D+00
  <mgrwgt>
 0.1736540203D-01   23    2    0
 0.308897090086448D+03 0.000000000000000D+00 0.000000000000000D+00 0.308897090086448D+03
 0.308897090086448D+03 0.000000000000000D+00 0.000000000000000D+00 -.308897090086448D+03
 0.197904986011558D+03 -.545267827120090D+02 -.624570434011111D+02 -.129102018515994D+03
 0.164172323936971D+03 -.437172296621469D+02 0.858792239077377D+02 -.105824849275427D+03
 0.255716870224368D+03 0.982440123741558D+02 -.234221805066266D+02 0.234926867791421D+03
 0.000000000000000D+00 -.000000000000000D+00 -.000000000000000D+00 0.000000000000000D+00
 0.571907760269503D+03 0.000000000000000D+00 0.000000000000000D+00 0.571907760269503D+03
 0.313236355027338D+03 0.000000000000000D+00 0.000000000000000D+00 -.313236355027338D+03
 0.192224358452948D+03 -.375916064321828D+02 -.569626537618405D+02 -.129102018515994D+03
 0.163478228495907D+03 -.294942035238553D+02 0.904936929963409D+02 -.105824849275427D+03
 0.264670321276303D+03 0.120833568753013D+03 -.160933034714604D+02 0.234926867791421D+03
 0.264771207071683D+03 -.537477587969748D+02 -.174377357630399D+02 0.258671405242165D+03
0.130404009671D-04 0.000000000000D+00 0.000000000000D+00 0.126507697984D-05 0.000000000000D+00  6 21 2 25 24 1 21 2 0.81306583D-01 0.27776352D-01 0.35439540D+05 0.35439540D+05 0.35439540D+05 0.12073758D+01  1  2  2  1  6  1       21 0.593220849321D-02 0.100000000000D+01
0.346940070470D-06 0.688160865187D-06 -.263248124465D-07 0.126507697984D-05 0.000000000000D+00  6 21 2 25 24 1 21 4 0.81306583D-01 0.27776352D-01 0.35439540D+05 0.35439540D+05 0.35439540D+05 0.12073758D+01  1  2  3  1  6  1       21 0.230072581950D-03 0.100000000000D+01
0.134324704320D-05 0.000000000000D+00 0.000000000000D+00 0.126507697984D-05 0.000000000000D+00  6 21 2 25 24 1 21 4 0.81306583D-01 0.27776352D-01 0.35439540D+05 0.35439540D+05 0.35439540D+05 0.12073758D+01  1  2 15  1  6  1       21 0.890771466693D-03 0.100000000000D+01
0.166993789038D-03 0.000000000000D+00 0.000000000000D+00 0.123435625991D-05 0.000000000000D+00  6 21 2 25 24 1 21 4 0.15064891D+00 0.27776352D-01 0.49601644D+05 0.49601644D+05 0.49601644D+05 0.11926260D+01  1  2 12  1  6  1       21 0.230519535781D-01 0.100000000000D+01
-.119872661734D-03 0.000000000000D+00 0.000000000000D+00 0.126507697984D-05 0.000000000000D+00  6 21 2 25 24 1 21 4 0.81306583D-01 0.27776352D-01 0.35439540D+05 0.35439540D+05 0.35439540D+05 0.12073758D+01  1  2  4  1  6  1       21 -.794933048609D-01 0.100000000000D+01
-.340777209131D-03 0.000000000000D+00 -.158129410021D-04 0.126507697984D-05 0.000000000000D+00  6 21 2 25 24 1 21 4 0.15123725D+00 0.27776352D-01 0.35439540D+05 0.35439540D+05 0.35439540D+05 0.12073758D+01  1  2  5  1  6  1       21 -.499145834595D-01 0.100000000000D+01
0.193127127585D-03 0.000000000000D+00 0.809445081570D-05 0.126507697984D-05 0.000000000000D+00  6 21 2 25 24 1 21 4 0.81306583D-01 0.27776352D-01 0.35439540D+05 0.35439540D+05 0.35439540D+05 0.12073758D+01  1  2  6  1  6  1       21 0.128071850646D+00 0.100000000000D+01
0.348290366455D-04 0.000000000000D+00 0.000000000000D+00 0.123435625991D-05 0.000000000000D+00  6 -1 2 25 24 1 -1 4 0.15064891D+00 0.27776352D-01 0.49601644D+05 0.49601644D+05 0.49601644D+05 0.11926260D+01  1  2 12  4  6  1       21 0.582179064472D-03 0.100000000000D+01
-.684770911994D-04 0.000000000000D+00 -.349300216724D-05 0.126507697984D-05 0.000000000000D+00  6 -1 2 25 24 1 -1 4 0.15123725D+00 0.27776352D-01 0.35439540D+05 0.35439540D+05 0.35439540D+05 0.12073758D+01  1  2  5  4  6  1       21 -.119915570257D-02 0.100000000000D+01
0.348290366455D-04 0.000000000000D+00 0.000000000000D+00 0.123435625991D-05 0.000000000000D+00  6 1 2 25 24 1 1 4 0.15064891D+00 0.27776352D-01 0.49601644D+05 0.49601644D+05 0.49601644D+05 0.11926260D+01  1  2 12  5  6  1       21 0.306622218268D-02 0.100000000000D+01
-.684770911994D-04 0.000000000000D+00 -.349300216724D-05 0.126507697984D-05 0.000000000000D+00  6 1 2 25 24 1 1 4 0.15123725D+00 0.27776352D-01 0.35439540D+05 0.35439540D+05 0.35439540D+05 0.12073758D+01  1  2  5  5  6  1       21 -.633339281208D-02 0.100000000000D+01
0.348290366455D-04 0.000000000000D+00 0.000000000000D+00 0.123435625991D-05 0.000000000000D+00  6 -2 2 25 24 1 -2 4 0.15064891D+00 0.27776352D-01 0.49601644D+05 0.49601644D+05 0.49601644D+05 0.11926260D+01  1  2 12  6  6  1       21 0.427533821808D-03 0.100000000000D+01
-.684770911994D-04 0.000000000000D+00 -.349300216724D-05 0.126507697984D-05 0.000000000000D+00  6 -2 2 25 24 1 -2 4 0.15123725D+00 0.27776352D-01 0.35439540D+05 0.35439540D+05 0.35439540D+05 0.12073758D+01  1  2  5  6  6  1       21 -.878538317462D-03 0.100000000000D+01
0.348290366455D-04 0.000000000000D+00 0.000000000000D+00 0.123435625991D-05 0.000000000000D+00  6 2 2 25 24 1 2 4 0.15064891D+00 0.27776352D-01 0.49601644D+05 0.49601644D+05 0.49601644D+05 0.11926260D+01  1  2 12  7  6  1       21 0.566875423190D-02 0.100000000000D+01
-.684770911994D-04 0.000000000000D+00 -.349300216724D-05 0.126507697984D-05 0.000000000000D+00  6 2 2 25 24 1 2 4 0.15123725D+00 0.27776352D-01 0.35439540D+05 0.35439540D+05 0.35439540D+05 0.12073758D+01  1  2  5  7  6  1       21 -.117003277732D-01 0.100000000000D+01
0.348290366455D-04 0.000000000000D+00 0.000000000000D+00 0.123435625991D-05 0.000000000000D+00  6 -3 2 25 24 1 -3 4 0.15064891D+00 0.27776352D-01 0.49601644D+05 0.49601644D+05 0.49601644D+05 0.11926260D+01  1  2 12  8  6  1       21 0.277508659785D-03 0.100000000000D+01
0.348290366455D-04 0.000000000000D+00 0.000000000000D+00 0.123435625991D-05 0.000000000000D+00  6 -4 2 25 24 1 -4 4 0.15064891D+00 0.27776352D-01 0.49601644D+05 0.49601644D+05 0.49601644D+05 0.11926260D+01  1  2 12  8  6  1       21 0.219164232872D-03 0.100000000000D+01
-.684770911994D-04 0.000000000000D+00 -.349300216724D-05 0.126507697984D-05 0.000000000000D+00  6 -3 2 25 24 1 -3 4 0.15123725D+00 0.27776352D-01 0.35439540D+05 0.35439540D+05 0.35439540D+05 0.12073758D+01  1  2  5  8  6  1       21 -.567585369419D-03 0.100000000000D+01
-.684770911994D-04 0.000000000000D+00 -.349300216724D-05 0.126507697984D-05 0.000000000000D+00  6 -4 2 25 24 1 -4 4 0.15123725D+00 0.27776352D-01 0.35439540D+05 0.35439540D+05 0.35439540D+05 0.12073758D+01  1  2  5  8  6  1       21 -.446930234451D-03 0.100000000000D+01
0.348290366455D-04 0.000000000000D+00 0.000000000000D+00 0.123435625991D-05 0.000000000000D+00  6 3 2 25 24 1 3 4 0.15064891D+00 0.27776352D-01 0.49601644D+05 0.49601644D+05 0.49601644D+05 0.11926260D+01  1  2 12  9  6  1       21 0.278605463547D-03 0.100000000000D+01
0.348290366455D-04 0.000000000000D+00 0.000000000000D+00 0.123435625991D-05 0.000000000000D+00  6 4 2 25 24 1 4 4 0.15064891D+00 0.27776352D-01 0.49601644D+05 0.49601644D+05 0.49601644D+05 0.11926260D+01  1  2 12  9  6  1       21 0.219164232872D-03 0.100000000000D+01
-.684770911994D-04 0.000000000000D+00 -.349300216724D-05 0.126507697984D-05 0.000000000000D+00  6 3 2 25 24 1 3 4 0.15123725D+00 0.27776352D-01 0.35439540D+05 0.35439540D+05 0.35439540D+05 0.12073758D+01  1  2  5  9  6  1       21 -.569837862761D-03 0.100000000000D+01
-.684770911994D-04 0.000000000000D+00 -.349300216724D-05 0.126507697984D-05 0.000000000000D+00  6 4 2 25 24 1 4 4 0.15123725D+00 0.27776352D-01 0.35439540D+05 0.35439540D+05 0.35439540D+05 0.12073758D+01  1  2  5  9  6  1       21 -.446930234451D-03 0.100000000000D+01
  </mgrwgt>
  </event>
  <event>
  5     66 0.42910585E-03 0.80461283E+02 0.75467711E-02 0.11395155E+00
       21 -1    0    0  501  502 0.00000000E+00 0.00000000E+00 0.84312161E+02 0.84315497E+02 0.75000000E+00 0.0000E+00 0.9000E+01
        2 -1    0    0  502    0 -.00000000E+00 -.00000000E+00 -.71139660E+03 0.71139667E+03 0.32000000E+00 0.0000E+00 0.9000E+01
       25  1    1    2    0    0 0.10021842E+03 0.54606172E+02 -.18612500E+03 0.25158116E+03 0.12500000E+03 0.0000E+00 0.9000E+01
       24  1    1    2    0    0 -.12510383E+03 0.21909868E+02 -.43858698E+03 0.46363430E+03 0.80419002E+02 0.0000E+00 0.9000E+01
        1  1    1    2  501    0 0.24885410E+02 -.76516041E+02 -.23724578E+01 0.80496702E+02 0.32000000E+00 0.0000E+00 0.9000E+01
#aMCatNLO 1  0  0  5  1 0.26214386D+02 0.00000000D+00  -5  6  0 0.00000000D+00 0.00000000D+00 0.00000000D+00 0.00000000D+00 0.00000000D+00
  <mgrwgt>
 0.6896497322D-01    4    2    0
 0.244909657450213D+03 0.000000000000000D+00 0.000000000000000D+00 0.244909657450213D+03
 0.244909657450213D+03 -.000000000000000D+00 -.000000000000000D+00 -.244909657450213D+03
 0.170409982601142D+03 0.100218394708084D+03 0.546062558667308D+02 0.197228890498713D+02
 0.191679737120676D+03 -.125103861997102D+03 0.219099623850811D+02 -.118923853494474D+03
 0.127729595178608D+03 0.248854672890184D+02 -.765162182518120D+02 0.992009644446032D+02
 0.000000000000000D+00 0.000000000000000D+00 0.000000000000000D+00 -.000000000000000D+00
 0.244909657450213D+03 0.000000000000000D+00 0.000000000000000D+00 0.244909657450213D+03
 0.244909657450213D+03 -.000000000000000D+00 -.000000000000000D+00 -.244909657450213D+03
 0.170981839033547D+03 0.102556847592715D+03 0.474161328437635D+02 0.290446662449538D+02
 0.183011634544325D+03 -.122537315104674D+03 0.140185107240083D+02 -.108692824916061D+03
 0.264632349746153D+02 -.176578146029293D+02 0.157188347221135D+02 0.118921244422165D+02
 0.109362606347940D+03 0.376382821148883D+02 -.771534782898854D+02 0.677560342288911D+02
0.194758698942D-04 0.000000000000D+00 0.000000000000D+00 0.239239321162D-06 0.000000000000D+00  6 21 2 25 24 1 21 2 0.12971364D-01 0.10944589D+00 0.40010637D+05 0.40010637D+05 0.40010637D+05 0.12019885D+01  1  2  2  3  6  5        1 0.744039599212D-01 0.100000000000D+01
-.618787320025D-07 0.102776989070D-05 -.393161700696D-07 0.239239321162D-06 0.000000000000D+00  6 21 2 25 24 1 21 4 0.12971364D-01 0.10944589D+00 0.40010637D+05 0.40010637D+05 0.40010637D+05 0.12019885D+01  1  2  3  3  6  5        1 -.341539738227D-03 0.100000000000D+01
0.206289924271D-05 0.000000000000D+00 0.000000000000D+00 0.239239321162D-06 0.000000000000D+00  6 21 2 25 24 1 21 4 0.12971364D-01 0.10944589D+00 0.40010637D+05 0.40010637D+05 0.40010637D+05 0.12019885D+01  1  2 15  3  6  5        1 0.113861749351D-01 0.100000000000D+01
-.298643322575D-05 0.000000000000D+00 0.000000000000D+00 0.239239321162D-06 0.000000000000D+00  6 21 2 25 24 1 21 4 0.12971364D-01 0.10944589D+00 0.40010637D+05 0.40010637D+05 0.40010637D+05 0.12019885D+01  1  2  4  3  6  5        1 -.164836219028D-01 0.100000000000D+01
  </mgrwgt>
  </event>
  <event>
  5     66 -.42910585E-03 0.61906873E+02 0.75467711E-02 0.12077037E+00
       21 -1    0    0  501  502 0.00000000E+00 0.00000000E+00 0.94101448E+02 0.94104437E+02 0.75000000E+00 0.0000E+00 0.9000E+01
        2 -1    0    0  502    0 -.00000000E+00 -.00000000E+00 -.11134710E+04 0.11134711E+04 0.32000000E+00 0.0000E+00 0.9000E+01
       25  1    1    2    0    0 -.22221724E+02 -.80666210E+01 -.25895412E+03 0.28851536E+03 0.12500000E+03 0.0000E+00 0.9000E+01
       24  1    1    2    0    0 -.32411347E+02 0.37181655E+02 -.82454505E+03 0.82992453E+03 0.80419002E+02 0.0000E+00 0.9000E+01
        1  1    1    2  501    0 0.54633071E+02 -.29115034E+02 0.64129573E+02 0.89135639E+02 0.32000000E+00 0.0000E+00 0.9000E+01
#aMCatNLO 1  0  0  5  5 0.68237232D+01 0.00000000D+00  -5  6  0 0.00000000D+00 0.00000000D+00 0.00000000D+00 0.00000000D+00 0.00000000D+00
  <mgrwgt>
 -.1902313591D+00    7    2    0
 0.323699041576687D+03 0.000000000000000D+00 0.000000000000000D+00 0.323699041576687D+03
 0.323699041576687D+03 -.000000000000000D+00 -.000000000000000D+00 -.323699041576687D+03
 0.130420735606541D+03 -.222217316029354D+02 -.806661681447317D+01 -.287348675634139D+02
 0.249738833502107D+03 -.324113625864138D+02 0.371816626450609D+02 -.231234289288729D+03
 0.267238514044726D+03 0.546330941893492D+02 -.291150458305877D+02 0.259969156852143D+03
 0.000000000000000D+00 0.000000000000000D+00 0.000000000000000D+00 0.000000000000000D+00
 0.323699041576687D+03 0.000000000000000D+00 0.000000000000000D+00 0.323699041576687D+03
 0.323699041576687D+03 -.000000000000000D+00 -.000000000000000D+00 -.323699041576687D+03
 0.130356673960385D+03 -.221674945730680D+02 -.809552078987008D+01 -.284767830610803D+02
 0.249259932820087D+03 -.323075797816158D+02 0.371263547558967D+02 -.230740443412718D+03
 0.248119464941345D+03 0.563798531647366D+02 -.233125765342957D+02 0.240501777156084D+03
 0.196620114315581D+02 -.190477881005297D+01 -.571825743173090D+01 0.187154493177147D+02
0.359147954271D-05 0.000000000000D+00 0.000000000000D+00 0.221845598028D-05 0.000000000000D+00  6 21 2 25 24 1 21 2 0.14477379D-01 0.17130347D+00 0.20087895D+05 0.20087895D+05 0.20087895D+05 0.12336164D+01  1  2  2  3  6  5        1 0.664636131880D-02 0.100000000000D+01
0.339361574510D-06 0.189527582445D-06 -.725016244561D-08 0.221845598028D-05 0.000000000000D+00  6 21 2 25 24 1 21 4 0.14477379D-01 0.17130347D+00 0.20087895D+05 0.20087895D+05 0.20087895D+05 0.12336164D+01  1  2  3  3  6  5        1 0.955726244865D-03 0.100000000000D+01
0.441504762570D-06 0.000000000000D+00 0.000000000000D+00 0.221845598028D-05 0.000000000000D+00  6 21 2 25 24 1 21 4 0.14477379D-01 0.17130347D+00 0.20087895D+05 0.20087895D+05 0.20087895D+05 0.12336164D+01  1  2 15  3  6  5        1 0.124338676065D-02 0.100000000000D+01
-.864264412754D-04 0.000000000000D+00 0.000000000000D+00 0.221845598028D-05 0.000000000000D+00  6 21 2 25 24 1 21 4 0.14477379D-01 0.17130347D+00 0.20087895D+05 0.20087895D+05 0.20087895D+05 0.12336164D+01  1  2  4  3  6  5        1 -.243398264215D+00 0.100000000000D+01
-.117147927876D-03 0.000000000000D+00 0.000000000000D+00 0.221845598028D-05 0.000000000000D+00  6 21 2 25 24 1 21 4 0.14477379D-01 0.17130347D+00 0.20087895D+05 0.20087895D+05 0.20087895D+05 0.12336164D+01  1  2  5  3  6  5        1 -.329917579396D+00 0.100000000000D+01
0.126083211021D-03 0.000000000000D+00 -.000000000000D+00 0.221845598028D-05 0.000000000000D+00  6 21 2 25 24 1 21 4 0.14477379D-01 0.17130347D+00 0.20087895D+05 0.20087895D+05 0.20087895D+05 0.12336164D+01  1  2  6  3  6  5        1 0.355081549770D+00 0.100000000000D+01
0.684547959993D-05 0.000000000000D+00 0.000000000000D+00 0.221845598028D-05 0.690959477019D-06  6 21 2 25 24 1 21 4 0.14477379D-01 0.17130347D+00 0.20812152D+05 0.20812152D+05 0.20812152D+05 0.12319274D+01  1  2 11  3  6  5        1 0.191574604313D-01 0.100000000000D+01
  </mgrwgt>
  </event>
  <event>
  5     66 -.42910585E-03 0.30855982E+02 0.75467711E-02 0.12122028E+00
       21 -1    0    0  501  502 0.00000000E+00 0.00000000E+00 0.17281257E+02 0.17297525E+02 0.75000000E+00 0.0000E+00 0.9000E+01
        2 -1    0    0  502    0 -.00000000E+00 -.00000000E+00 -.22134487E+04 0.22134487E+04 0.32000000E+00 0.0000E+00 0.9000E+01
       25  1    1    2    0    0 0.28294038E+02 0.82626587E+02 -.71064778E+03 0.72682389E+03 0.12500000E+03 0.0000E+00 0.9000E+01
       24  1    1    2    0    0 -.20324027E+02 -.52817783E+02 -.25938823E+03 0.27740269E+03 0.80419002E+02 0.0000E+00 0.9000E+01
        1  1    1    2  501    0 -.79700115E+01 -.29808804E+02 -.12261315E+04 0.12265197E+04 0.32000000E+00 0.0000E+00 0.9000E+01
#aMCatNLO 1  0  0  5  1 0.78741262D+01 0.00000000D+00  -5  6  0 0.00000000D+00 0.00000000D+00 0.00000000D+00 0.00000000D+00 0.00000000D+00
  <mgrwgt>
 -.8275603378D-01    7    2    0
 0.195625527532512D+03 0.000000000000000D+00 0.000000000000000D+00 0.195625527532512D+03
 0.195625527532512D+03 -.000000000000000D+00 -.000000000000000D+00 -.195625527532512D+03
 0.155036465523669D+03 0.282940514015912D+02 0.826266368372750D+02 0.279926987322933D+02
 0.125635594816464D+03 -.203240159161462D+02 -.528177429713055D+02 0.781940351623674D+02
 0.110578994724891D+03 -.797003548544503D+01 -.298088938659694D+02 -.106186733894661D+03
 0.000000000000000D+00 -.000000000000000D+00 0.000000000000000D+00 0.000000000000000D+00
 0.195625527532512D+03 0.000000000000000D+00 0.000000000000000D+00 0.195625527532512D+03
 0.195625527532512D+03 -.000000000000000D+00 -.000000000000000D+00 -.195625527532512D+03
 0.154754034415052D+03 0.282319371560325D+02 0.823943220681871D+02 0.271651354327002D+02
 0.125307134408531D+03 -.203743309461660D+02 -.530059272513456D+02 0.775236756999326D+02
 0.934067374551066D+02 -.348717947771578D+01 -.182389637214439D+02 -.915423311024209D+02
 0.177831487863334D+02 -.437042673215079D+01 -.111494310953975D+02 -.131464800302117D+02
0.135254162321D-05 0.000000000000D+00 0.000000000000D+00 0.137571721091D-06 0.000000000000D+00  6 21 2 25 24 1 21 2 0.26599081D-02 0.34053183D+00 0.19835980D+05 0.19835980D+05 0.19835980D+05 0.12342200D+01  1  2  2  3  6  5        1 0.120049725907D-01 0.100000000000D+01
-.184838412701D-06 0.713755823903D-07 -.273039185275D-08 0.137571721091D-06 0.000000000000D+00  6 21 2 25 24 1 21 4 0.26599081D-02 0.34053183D+00 0.19835980D+05 0.19835980D+05 0.19835980D+05 0.12342200D+01  1  2  3  3  6  5        1 -.249912453500D-02 0.100000000000D+01
0.133451100901D-06 0.000000000000D+00 0.000000000000D+00 0.137571721091D-06 0.000000000000D+00  6 21 2 25 24 1 21 4 0.26599081D-02 0.34053183D+00 0.19835980D+05 0.19835980D+05 0.19835980D+05 0.12342200D+01  1  2 15  3  6  5        1 0.180433772186D-02 0.100000000000D+01
0.100092985585D-04 0.000000000000D+00 0.000000000000D+00 0.137597263475D-06 0.000000000000D+00  6 21 2 25 24 1 21 4 0.26599081D-02 0.34053183D+00 0.19788557D+05 0.19788557D+05 0.19788557D+05 0.12343345D+01  1  2 12  3  6  5        1 0.135387450697D+00 0.100000000000D+01
-.186398579332D-04 0.000000000000D+00 0.000000000000D+00 0.137571721091D-06 0.000000000000D+00  6 21 2 25 24 1 21 4 0.26599081D-02 0.34053183D+00 0.19835980D+05 0.19835980D+05 0.19835980D+05 0.12342200D+01  1  2  4  3  6  5        1 -.252021890954D+00 0.100000000000D+01
-.961763118764D-05 0.000000000000D+00 0.000000000000D+00 0.137571721091D-06 0.000000000000D+00  6 21 2 25 24 1 21 4 0.26599081D-02 0.34053183D+00 0.19835980D+05 0.19835980D+05 0.19835980D+05 0.12342200D+01  1  2  5  3  6  5        1 -.130036055376D+00 0.100000000000D+01
0.112868053459D-04 0.000000000000D+00 -.000000000000D+00 0.137571721091D-06 0.000000000000D+00  6 21 2 25 24 1 21 4 0.26599081D-02 0.34053183D+00 0.19835980D+05 0.19835980D+05 0.19835980D+05 0.12342200D+01  1  2  6  3  6  5        1 0.152604276078D+00 0.100000000000D+01
  </mgrwgt>
  </event>
  <event>
  5     66 -.42910585E-03 0.35959425E+02 0.75467711E-02 0.11878410E+00
       21 -1    0    0  501  502 0.00000000E+00 0.00000000E+00 0.25373970E+02 0.25385052E+02 0.75000000E+00 0.0000E+00 0.9000E+01
        2 -1    0    0  502    0 -.00000000E+00 -.00000000E+00 -.12220823E+04 0.12220823E+04 0.32000000E+00 0.0000E+00 0.9000E+01
       25  1    1    2    0    0 -.49307334E+02 -.59442037E+02 -.65113184E+03 0.66750448E+03 0.12500000E+03 0.0000E+00 0.9000E+01
       24  1    1    2    0    0 0.67900755E+02 0.90220859E+02 -.51313705E+03 0.53153284E+03 0.80419002E+02 0.0000E+00 0.9000E+01
        1  1    1    2  501    0 -.18593421E+02 -.30778822E+02 -.32439441E+02 0.48430062E+02 0.32000000E+00 0.0000E+00 0.9000E+01
#aMCatNLO 1  0  0  5  1 0.78741262D+01 0.00000000D+00  -5  6  0 0.00000000D+00 0.00000000D+00 0.00000000D+00 0.00000000D+00 0.00000000D+00
  <mgrwgt>
 -.4189803254D-02    1    2    0
 0.176113649136653D+03 0.000000000000000D+00 0.000000000000000D+00 0.176113649136653D+03
 0.176113649136653D+03 -.000000000000000D+00 -.000000000000000D+00 -.176113649136653D+03
 0.151820076933633D+03 -.493072245837350D+02 -.594418567513516D+02 -.382073164450887D+02
 0.139099302437559D+03 0.679008547081745D+02 0.902210247140633D+02 -.114472972219907D+02
 0.613079189021141D+02 -.185936301244396D+02 -.307791679627117D+02 0.496546136670795D+02
 0.000000000000000D+00 0.000000000000000D+00 0.000000000000000D+00 0.000000000000000D+00
 0.176113649136653D+03 0.000000000000000D+00 0.000000000000000D+00 0.176113649136653D+03
 0.176113649136653D+03 -.000000000000000D+00 -.000000000000000D+00 -.176113649136653D+03
 0.152484892140186D+03 -.511276046744994D+02 -.624552427440077D+02 -.333459596508961D+02
 0.136241468375971D+03 0.662537410941899D+02 0.874944572692335D+02 -.704865157717415D+01
 0.242672210297865D+02 -.992526309051396D+00 -.239454782523734D+02 0.381142746218053D+01
 0.392337167273631D+02 -.141336101106391D+02 -.109373627285240D+01 0.365831837658897D+02
-.185420310804D-06 0.000000000000D+00 0.000000000000D+00 0.782639146033D-06 0.000000000000D+00  6 21 2 25 24 1 21 4 0.39045433D-02 0.18801352D+00 0.25843887D+05 0.25843887D+05 0.25843887D+05 0.12217549D+01  1  2 14  3  6  5        1 -.418980325406D-02 0.100000000000D+01
  </mgrwgt>
  </event>
  <event>
  6     66 0.42910585E-03 0.27541442E+03 0.75467711E-02 0.10202583E+00
        2 -1    0    0  501    0 0.00000000E+00 0.00000000E+00 0.63671371E+03 0.63671379E+03 0.32000000E+00 0.0000E+00 0.9000E+01
        2 -1    0    0  502    0 0.00000000E+00 0.00000000E+00 -.14566086E+04 0.14566086E+04 0.32000000E+00 0.0000E+00 0.9000E+01
       25  1    1    2    0    0 0.36481746E+03 -.83249069E+02 -.59973165E+03 0.71786158E+03 0.12500000E+03 0.0000E+00 0.9000E+01
       24  1    1    2    0    0 -.36133319E+02 0.15192506E+03 -.31564118E+03 0.36122487E+03 0.80419002E+02 0.0000E+00 0.9000E+01
        1  1    1    2  501    0 -.30893400E+01 -.55758506E+02 -.40947910E+03 0.41326963E+03 0.32000000E+00 0.0000E+00 0.9000E+01
        2  1    1    2  502    0 -.32559480E+03 -.12917483E+02 0.50495704E+03 0.60096635E+03 0.32000000E+00 0.0000E+00 0.9000E+01
#aMCatNLO 2  0  0  1  2 0.32585094D+03 0.00000000D+00  -5  6  0 0.00000000D+00 0.00000000D+00 0.00000000D+00 0.00000000D+00 0.00000000D+00
  <mgrwgt>
 0.6727620148D-02    1    2    0
 0.302371959576682D+03 0.000000000000000D+00 0.000000000000000D+00 0.302371959576682D+03
 0.302371959576682D+03 0.000000000000000D+00 0.000000000000000D+00 -.302371959576682D+03
 0.262990986670227D+03 0.196974773379576D+03 -.899078967110979D+02 0.815890178322484D+02
 0.216125611839840D+03 -.134974444673173D+03 0.148003750066149D+03 0.109477573182841D+02
 0.125627320643297D+03 -.620003287064023D+02 -.580958533550510D+02 -.925367751505325D+02
 0.000000000000000D+00 -.000000000000000D+00 -.000000000000000D+00 0.000000000000000D+00
 0.261120454915666D+04 0.000000000000000D+00 0.000000000000000D+00 0.261120454915666D+04
 0.355178123442418D+03 0.000000000000000D+00 0.000000000000000D+00 -.355178123442418D+03
 0.402869763209440D+03 0.364817604745951D+03 -.832489852492264D+02 0.815890178322484D+02
 0.175994101836882D+03 -.361332335190882D+02 0.151925126204177D+03 0.109477573182841D+02
 0.108081580693690D+03 -.308956737527738D+01 -.557586576543951D+02 -.925367751505325D+02
 0.227943722685906D+04 -.325594803851586D+03 -.129174833005555D+02 0.225602642571424D+04
0.407862134986D-03 0.000000000000D+00 0.000000000000D+00 0.387840412449D-07 0.484687011680D-10  6 2 2 25 24 1 2 4 0.97955961D-01 0.22409363D+00 0.22651412D+06 0.22651412D+06 0.22651412D+06 0.11322961D+01  1  2  1  7  6  1       21 0.672762014781D-02 0.100000000000D+01
  </mgrwgt>
  </event>
  <event>
  6     66 0.42910585E-03 0.32734361E+02 0.75467711E-02 0.11932163E+00
       21 -1    0    0  501  502 0.00000000E+00 0.00000000E+00 0.29831969E+02 0.29841396E+02 0.75000000E+00 0.0000E+00 0.9000E+01
        2 -1    0    0  502    0 -.00000000E+00 -.00000000E+00 -.10542025E+04 0.10542026E+04 0.32000000E+00 0.0000E+00 0.9000E+01
       25  1    1    2    0    0 -.41649881E+02 -.45822615E+02 -.26294133E+03 0.29765344E+03 0.12500000E+03 0.0000E+00 0.9000E+01
       24  1    1    2    0    0 0.36211045E+02 -.18933854E+01 -.57401421E+03 0.58075327E+03 0.80419002E+02 0.0000E+00 0.9000E+01
        1  1    1    2  503    0 -.28145307E+02 0.41599818E+02 -.10358388E+03 0.11511918E+03 0.32000000E+00 0.0000E+00 0.9000E+01
       21  1    1    2  501  503 0.33584143E+02 0.61161822E+01 -.83831113E+02 0.90518066E+02 0.75000000E+00 0.0000E+00 0.9000E+01
#aMCatNLO 2  0  0  5  2 0.32903504D+02 0.00000000D+00  -5  6  0 0.00000000D+00 0.00000000D+00 0.00000000D+00 0.00000000D+00 0.00000000D+00
  <mgrwgt>
 0.1023371278D+00    1    2    0
 0.177352960181213D+03 0.000000000000000D+00 0.000000000000000D+00 0.177352960181213D+03
 0.177352960181213D+03 -.000000000000000D+00 -.000000000000000D+00 -.177352960181213D+03
 0.153548388325346D+03 -.432735412256592D+02 -.600673171629243D+02 0.497134347631625D+02
 0.120782593168322D+03 0.349396312325953D+02 -.130477532405296D+02 -.820377788753347D+02
 0.803749388687583D+02 0.833390999306386D+01 0.731150704034539D+02 0.323243441121722D+02
 0.000000000000000D+00 0.000000000000000D+00 -.000000000000000D+00 0.000000000000000D+00
 0.177352960181213D+03 0.000000000000000D+00 0.000000000000000D+00 0.177352960181213D+03
 0.177352960181213D+03 -.000000000000000D+00 -.000000000000000D+00 -.177352960181213D+03
 0.150310286128771D+03 -.416421826195586D+02 -.457550796372495D+02 0.560409085417175D+02
 0.117149854596206D+03 0.362170446453556D+02 -.184074816295905D+01 -.770831356452143D+02
 0.523601559065177D+02 -.284224688851324D+02 0.410962339175988D+02 0.156476434909069D+02
 0.348856237309327D+02 0.338476068593354D+02 0.649959388260976D+01 0.539458361258989D+01
0.472268200379D-05 0.000000000000D+00 0.000000000000D+00 0.229848225274D-06 0.267801551996D-08  6 21 2 25 24 1 21 4 0.45902626D-02 0.16218573D+00 0.24355217D+05 0.24355217D+05 0.24355217D+05 0.12245162D+01  1  2  1  3  6  5        1 0.102337127811D+00 0.100000000000D+01
  </mgrwgt>
  </event>
  <event>
  5     66 0.42910585E-03 0.19485995E+03 0.75467711E-02 0.10529151E+00
       21 -1    0    0  501  502 0.00000000E+00 0.00000000E+00 0.53139714E+03 0.53139767E+03 0.75000000E+00 0.0000E+00 0.9000E+01
        2 -1    0    0  502    0 0.00000000E+00 0.00000000E+00 -.14206096E+03 0.14206132E+03 0.32000000E+00 0.0000E+00 0.9000E+01
       25  1    1    2    0    0 0.75036161E+02 -.71045119E+02 0.86463665E+00 0.16218379E+03 0.12500000E+03 0.0000E+00 0.9000E+01
       24  1    1    2    0    0 0.58280458E+02 -.71071158E+02 0.78620695E+02 0.14524514E+03 0.80419002E+02 0.0000E+00 0.9000E+01
        1  1    1    2  501    0 -.13331662E+03 0.14211628E+03 0.30985084E+03 0.36603006E+03 0.32000000E+00 0.0000E+00 0.9000E+01
#aMCatNLO 1  0  0  1  2 0.35875597D+02 0.00000000D+00  -5  6  0 0.00000000D+00 0.00000000D+00 0.00000000D+00 0.00000000D+00 0.00000000D+00
  <mgrwgt>
 0.6638340759D-01    3    2    0
 0.274756417341514D+03 0.000000000000000D+00 0.000000000000000D+00 0.274756417341514D+03
 0.274756417341514D+03 0.000000000000000D+00 0.000000000000000D+00 -.274756417341514D+03
 0.198152843201057D+03 0.750362083534118D+02 -.710451685378014D+02 -.113849465225101D+03
 0.122302482098726D+03 0.582804869389857D+02 -.710711892562807D+02 -.655378310530615D+01
 0.229057509383245D+03 -.133316695292397D+03 0.142116357794082D+03 0.120403248330407D+03
 0.000000000000000D+00 0.000000000000000D+00 -.000000000000000D+00 -.000000000000000D+00
 0.340808813335112D+03 0.000000000000000D+00 0.000000000000000D+00 0.340808813335112D+03
 0.574737084187201D+03 0.000000000000000D+00 0.000000000000000D+00 -.574737084187201D+03
 0.174535132499090D+03 0.428918748861477D+02 -.600822878928169D+01 -.113849465225101D+03
 0.957048916275820D+02 0.394773535504829D+02 -.330272131845157D+02 -.655378310530615D+01
 0.322557241955236D+03 -.180893461028333D+03 0.238377406409344D+03 0.120403248330407D+03
 0.322748631440406D+03 0.985242325917028D+02 -.199341964435547D+03 -.233928270852089D+03
0.112793274914D-03 0.000000000000D+00 0.000000000000D+00 0.340071046048D-06 0.000000000000D+00  6 21 2 25 24 1 21 2 0.81753474D-01 0.21855601D-01 0.57400550D+05 0.57400550D+05 0.57400550D+05 0.11863902D+01  1  2  2  1  6  1       21 0.629191839890D-01 0.100000000000D+01
-.776754874571D-05 0.595226464646D-05 -.227697124869D-06 0.340071046048D-06 0.000000000000D+00  6 21 2 25 24 1 21 4 0.81753474D-01 0.21855601D-01 0.57400550D+05 0.57400550D+05 0.57400550D+05 0.11863902D+01  1  2  3  1  6  1       21 -.609872363393D-02 0.100000000000D+01
0.121797056609D-04 0.000000000000D+00 0.000000000000D+00 0.340071046048D-06 0.000000000000D+00  6 21 2 25 24 1 21 4 0.81753474D-01 0.21855601D-01 0.57400550D+05 0.57400550D+05 0.57400550D+05 0.11863902D+01  1  2 15  1  6  1       21 0.956294723086D-02 0.100000000000D+01
  </mgrwgt>
  </event>
  <event>
  5     66 0.42910585E-03 0.41353501E+02 0.75467711E-02 0.11785234E+00
       21 -1    0    0  501  502 0.00000000E+00 0.00000000E+00 0.15169530E+02 0.15188059E+02 0.75000000E+00 0.0000E+00 0.9000E+01
        2 -1    0    0  502    0 0.00000000E+00 0.00000000E+00 -.26148602E+04 0.26148602E+04 0.32000000E+00 0.0000E+00 0.9000E+01
       25  1    1    2    0    0 0.59832871E+02 -.54220389E+02 -.69862920E+03 0.71430216E+03 0.12500000E+03 0.0000E+00 0.9000E+01
       24  1    1    2    0    0 -.10110268E+03 0.56843865E+02 -.18126990E+04 0.18181853E+04 0.80419002E+02 0.0000E+00 0.9000E+01
        1  1    1    2  501    0 0.41269813E+02 -.26234760E+01 -.88362473E+02 0.97560797E+02 0.32000000E+00 0.0000E+00 0.9000E+01
#aMCatNLO 1  0  0  1  2 0.72020006D+01 0.00000000D+00  -5  6  0 0.00000000D+00 0.00000000D+00 0.00000000D+00 0.00000000D+00 0.00000000D+00
  <mgrwgt>
 0.2398356478D+00   32    2    0
 0.199224977384590D+03 0.000000000000000D+00 0.000000000000000D+00 0.199224977384590D+03
 0.199224977384590D+03 0.000000000000000D+00 0.000000000000000D+00 -.199224977384590D+03
 0.156680418694431D+03 0.598326880963222D+02 -.542203770080986D+02 0.490301310882415D+02
 0.174322024247525D+03 -.101102886549059D+03 0.568438774998327D+02 -.102312912702240D+03
 0.674475118272234D+02 0.412701984527365D+02 -.262350049173414D+01 0.532827816139985D+02
 0.000000000000000D+00 0.000000000000000D+00 -.000000000000000D+00 0.000000000000000D+00
 0.213110978027471D+03 0.000000000000000D+00 0.000000000000000D+00 0.213110978027471D+03
 0.200193545231359D+03 0.000000000000000D+00 0.000000000000000D+00 -.200193545231359D+03
 0.155471336613953D+03 0.590744218630124D+02 -.515033536340089D+02 0.490301310882415D+02
 0.175831367020709D+03 -.101953464796858D+03 0.598916737476952D+02 -.102312912702240D+03
 0.672123340599926D+02 0.409430882815375D+02 -.145139768402951D+01 0.532827816139985D+02
 0.147894855641751D+02 0.193595465230769D+01 -.693692242965683D+01 0.129174327961123D+02
0.226342311844D-05 0.000000000000D+00 0.000000000000D+00 0.444232924592D-06 0.000000000000D+00  6 21 2 25 24 1 21 2 0.23352006D-02 0.40228761D+00 0.27440561D+05 0.27440561D+05 0.27440561D+05 0.12189842D+01  1  2  2  1  6  1       21 0.147241365053D-01 0.100000000000D+01
0.822400230393D-07 0.119444119502D-06 -.456919915501D-08 0.444232924592D-06 0.000000000000D+00  6 21 2 25 24 1 21 4 0.23352006D-02 0.40228761D+00 0.27440561D+05 0.27440561D+05 0.27440561D+05 0.12189842D+01  1  2  3  1  6  1       21 0.794956684829D-03 0.100000000000D+01
0.257136318819D-06 0.000000000000D+00 0.000000000000D+00 0.444232924592D-06 0.000000000000D+00  6 21 2 25 24 1 21 4 0.23352006D-02 0.40228761D+00 0.27440561D+05 0.27440561D+05 0.27440561D+05 0.12189842D+01  1  2 15  1  6  1       21 0.248555664265D-02 0.100000000000D+01
0.317104439847D-04 0.000000000000D+00 0.000000000000D+00 0.442754165482D-06 0.000000000000D+00  6 21 2 25 24 1 21 4 0.25034108D-02 0.40228761D+00 0.28680713D+05 0.28680713D+05 0.28680713D+05 0.12169536D+01  1  2 12  1  6  1       21 0.271398380263D+00 0.100000000000D+01
-.177375699142D-04 0.000000000000D+00 0.000000000000D+00 0.444232924592D-06 0.000000000000D+00  6 21 2 25 24 1 21 4 0.23352006D-02 0.40228761D+00 0.27440561D+05 0.27440561D+05 0.27440561D+05 0.12189842D+01  1  2  4  1  6  1       21 -.171456661305D+00 0.100000000000D+01
-.117751638799D-03 0.000000000000D+00 -.101145991152D-04 0.444232924592D-06 0.000000000000D+00  6 21 2 25 24 1 21 4 0.25123100D-02 0.40228761D+00 0.27440561D+05 0.27440561D+05 0.27440561D+05 0.12189842D+01  1  2  5  1  6  1       21 -.101000272715D+01 0.100000000000D+01
0.117022739947D-03 0.000000000000D+00 0.100073010682D-04 0.444232924592D-06 0.000000000000D+00  6 21 2 25 24 1 21 4 0.23352006D-02 0.40228761D+00 0.27440561D+05 0.27440561D+05 0.27440561D+05 0.12189842D+01  1  2  6  1  6  1       21 0.113117684018D+01 0.100000000000D+01
0.580456332488D-06 0.000000000000D+00 0.000000000000D+00 0.444232924592D-06 0.133437263274D-06  6 21 2 25 24 1 21 4 0.24979644D-02 0.40424340D+00 0.28680713D+05 0.28680713D+05 0.28680713D+05 0.12169536D+01  1  2 11  1  6  1       21 0.490642014385D-02 0.100000000000D+01
0.643850124216D-06 0.000000000000D+00 0.000000000000D+00 0.442754165482D-06 0.000000000000D+00  6 -1 2 25 24 1 -1 4 0.25034108D-02 0.40228761D+00 0.28680713D+05 0.28680713D+05 0.28680713D+05 0.12169536D+01  1  2 12  4  6  1       21 0.277878865976D-03 0.100000000000D+01
-.205727365358D-05 0.000000000000D+00 -.182357517005D-06 0.444232924592D-06 0.000000000000D+00  6 -1 2 25 24 1 -1 4 0.25123100D-02 0.40228761D+00 0.27440561D+05 0.27440561D+05 0.27440561D+05 0.12189842D+01  1  2  5  4  6  1       21 -.889702647062D-03 0.100000000000D+01
0.118515988966D-06 0.000000000000D+00 0.000000000000D+00 0.444232924592D-06 0.267218366855D-07  6 -1 2 25 24 1 -1 4 0.24979644D-02 0.40424340D+00 0.28680713D+05 0.28680713D+05 0.28680713D+05 0.12169536D+01  1  2 11  4  6  1       21 0.504972455594D-04 0.100000000000D+01
0.643850124216D-06 0.000000000000D+00 0.000000000000D+00 0.442754165482D-06 0.000000000000D+00  6 1 2 25 24 1 1 4 0.25034108D-02 0.40228761D+00 0.28680713D+05 0.28680713D+05 0.28680713D+05 0.12169536D+01  1  2 12  5  6  1       21 0.295457556956D-03 0.100000000000D+01
-.205727365358D-05 0.000000000000D+00 -.182357517005D-06 0.444232924592D-06 0.000000000000D+00  6 1 2 25 24 1 1 4 0.25123100D-02 0.40228761D+00 0.27440561D+05 0.27440561D+05 0.27440561D+05 0.12189842D+01  1  2  5  5  6  1       21 -.946235066407D-03 0.100000000000D+01
0.329020083206D-07 0.000000000000D+00 0.000000000000D+00 0.444232924592D-06 0.111111308520D-08  6 1 2 25 24 1 1 4 0.24979644D-02 0.40424340D+00 0.28680713D+05 0.28680713D+05 0.28680713D+05 0.12169536D+01  1  2 11  5  6  1       21 0.149037832677D-04 0.100000000000D+01
0.643850124216D-06 0.000000000000D+00 0.000000000000D+00 0.442754165482D-06 0.000000000000D+00  6 -2 2 25 24 1 -2 4 0.25034108D-02 0.40228761D+00 0.28680713D+05 0.28680713D+05 0.28680713D+05 0.12169536D+01  1  2 12  6  6  1       21 0.274725963981D-03 0.100000000000D+01
-.205727365358D-05 0.000000000000D+00 -.182357517005D-06 0.444232924592D-06 0.000000000000D+00  6 -2 2 25 24 1 -2 4 0.25123100D-02 0.40228761D+00 0.27440561D+05 0.27440561D+05 0.27440561D+05 0.12189842D+01  1  2  5  6  6  1       21 -.879562189992D-03 0.100000000000D+01
0.331151025889D-07 0.000000000000D+00 0.000000000000D+00 0.444232924592D-06 0.213159760508D-08  6 -2 2 25 24 1 -2 4 0.24979644D-02 0.40424340D+00 0.28680713D+05 0.28680713D+05 0.28680713D+05 0.12169536D+01  1  2 11  6  6  1       21 0.139499230738D-04 0.100000000000D+01
0.643850124216D-06 0.000000000000D+00 0.000000000000D+00 0.442754165482D-06 0.000000000000D+00  6 2 2 25 24 1 2 4 0.25034108D-02 0.40228761D+00 0.28680713D+05 0.28680713D+05 0.28680713D+05 0.12169536D+01  1  2 12  7  6  1       21 0.307479724584D-03 0.100000000000D+01
-.205727365358D-05 0.000000000000D+00 -.182357517005D-06 0.444232924592D-06 0.000000000000D+00  6 2 2 25 24 1 2 4 0.25123100D-02 0.40228761D+00 0.27440561D+05 0.27440561D+05 0.27440561D+05 0.12189842D+01  1  2  5  7  6  1       21 -.984890459936D-03 0.100000000000D+01
0.326688928368D-07 0.000000000000D+00 0.000000000000D+00 0.444232924592D-06 0.214343948393D-08  6 2 2 25 24 1 2 4 0.24979644D-02 0.40424340D+00 0.28680713D+05 0.28680713D+05 0.28680713D+05 0.12169536D+01  1  2 11  7  6  1       21 0.153991311962D-04 0.100000000000D+01
0.643850124216D-06 0.000000000000D+00 0.000000000000D+00 0.442754165482D-06 0.000000000000D+00  6 -3 2 25 24 1 -3 4 0.25034108D-02 0.40228761D+00 0.28680713D+05 0.28680713D+05 0.28680713D+05 0.12169536D+01  1  2 12  8  6  1       21 0.212534569208D-03 0.100000000000D+01
0.643850124216D-06 0.000000000000D+00 0.000000000000D+00 0.442754165482D-06 0.000000000000D+00  6 -4 2 25 24 1 -4 4 0.25034108D-02 0.40228761D+00 0.28680713D+05 0.28680713D+05 0.28680713D+05 0.12169536D+01  1  2 12  8  6  1       21 0.193040747952D-03 0.100000000000D+01
-.205727365358D-05 0.000000000000D+00 -.182357517005D-06 0.444232924592D-06 0.000000000000D+00  6 -3 2 25 24 1 -3 4 0.25123100D-02 0.40228761D+00 0.27440561D+05 0.27440561D+05 0.27440561D+05 0.12189842D+01  1  2  5  8  6  1       21 -.679695741107D-03 0.100000000000D+01
-.205727365358D-05 0.000000000000D+00 -.182357517005D-06 0.444232924592D-06 0.000000000000D+00  6 -4 2 25 24 1 -4 4 0.25123100D-02 0.40228761D+00 0.27440561D+05 0.27440561D+05 0.27440561D+05 0.12189842D+01  1  2  5  8  6  1       21 -.617069067504D-03 0.100000000000D+01
0.331133844666D-07 0.000000000000D+00 0.000000000000D+00 0.444232924592D-06 0.213148701067D-08  6 -3 2 25 24 1 -3 4 0.24979644D-02 0.40424340D+00 0.28680713D+05 0.28680713D+05 0.28680713D+05 0.12169536D+01  1  2 11  8  6  1       21 0.107931437232D-04 0.100000000000D+01
0.331133844666D-07 0.000000000000D+00 0.000000000000D+00 0.444232924592D-06 0.213148701067D-08  6 -4 2 25 24 1 -4 4 0.24979644D-02 0.40424340D+00 0.28680713D+05 0.28680713D+05 0.28680713D+05 0.12169536D+01  1  2 11  8  6  1       21 0.980359960173D-05 0.100000000000D+01
0.643850124216D-06 0.000000000000D+00 0.000000000000D+00 0.442754165482D-06 0.000000000000D+00  6 3 2 25 24 1 3 4 0.25034108D-02 0.40228761D+00 0.28680713D+05 0.28680713D+05 0.28680713D+05 0.12169536D+01  1  2 12  9  6  1       21 0.212520925151D-03 0.100000000000D+01
0.643850124216D-06 0.000000000000D+00 0.000000000000D+00 0.442754165482D-06 0.000000000000D+00  6 4 2 25 24 1 4 4 0.25034108D-02 0.40228761D+00 0.28680713D+05 0.28680713D+05 0.28680713D+05 0.12169536D+01  1  2 12  9  6  1       21 0.193040747952D-03 0.100000000000D+01
-.205727365358D-05 0.000000000000D+00 -.182357517005D-06 0.444232924592D-06 0.000000000000D+00  6 3 2 25 24 1 3 4 0.25123100D-02 0.40228761D+00 0.27440561D+05 0.27440561D+05 0.27440561D+05 0.12189842D+01  1  2  5  9  6  1       21 -.679651855690D-03 0.100000000000D+01
-.205727365358D-05 0.000000000000D+00 -.182357517005D-06 0.444232924592D-06 0.000000000000D+00  6 4 2 25 24 1 4 4 0.25123100D-02 0.40228761D+00 0.27440561D+05 0.27440561D+05 0.27440561D+05 0.12189842D+01  1  2  5  9  6  1       21 -.617069067504D-03 0.100000000000D+01
0.331133844666D-07 0.000000000000D+00 0.000000000000D+00 0.444232924592D-06 0.213148701067D-08  6 3 2 25 24 1 3 4 0.24979644D-02 0.40424340D+00 0.28680713D+05 0.28680713D+05 0.28680713D+05 0.12169536D+01  1  2 11  9  6  1       21 0.107924518030D-04 0.100000000000D+01
0.331133844666D-07 0.000000000000D+00 0.000000000000D+00 0.444232924592D-06 0.213148701067D-08  6 4 2 25 24 1 4 4 0.24979644D-02 0.40424340D+00 0.28680713D+05 0.28680713D+05 0.28680713D+05 0.12169536D+01  1  2 11  9  6  1       21 0.980359960173D-05 0.100000000000D+01
  </mgrwgt>
  </event>
  <event>
  5     66 -.42910585E-03 0.22843031E+02 0.75467711E-02 0.12233548E+00
       21 -1    0    0  501  502 0.00000000E+00 0.00000000E+00 0.14572776E+02 0.14592063E+02 0.75000000E+00 0.0000E+00 0.9000E+01
        2 -1    0    0  502    0 -.00000000E+00 -.00000000E+00 -.12269871E+04 0.12269871E+04 0.32000000E+00 0.0000E+00 0.9000E+01
       25  1    1    2    0    0 0.44807581E+02 -.32411078E+02 -.67673157E+03 0.69039758E+03 0.12500000E+03 0.0000E+00 0.9000E+01
       24  1    1    2    0    0 -.65401316E+02 0.22530844E+02 -.46288750E+03 0.47488633E+03 0.80419002E+02 0.0000E+00 0.9000E+01
        1  1    1    2  501    0 0.20593734E+02 0.98802336E+01 -.72795217E+02 0.76295262E+02 0.32000000E+00 0.0000E+00 0.9000E+01
#aMCatNLO 1  0  0  5  1 0.45533490D+01 0.00000000D+00  -5  6  0 0.00000000D+00 0.00000000D+00 0.00000000D+00 0.00000000D+00 0.00000000D+00
  <mgrwgt>
 -.1315019755D+00    7    2    0
 0.133763247221173D+03 0.000000000000000D+00 0.000000000000000D+00 0.133763247221173D+03
 0.133763247221173D+03 -.000000000000000D+00 -.000000000000000D+00 -.133763247221173D+03
 0.137198302688352D+03 0.448066564193507D+02 -.324115213824656D+02 -.118419205687618D+02
 0.106148923189884D+03 -.654020315503868D+02 0.225305006192677D+02 0.391519487749813D+01
 0.241792685641105D+02 0.205953751310361D+02 0.988102076319786D+01 0.792672569126361D+01
 0.000000000000000D+00 0.000000000000000D+00 0.000000000000000D+00 0.000000000000000D+00
 0.133763247221173D+03 0.000000000000000D+00 0.000000000000000D+00 0.133763247221173D+03
 0.133763247221173D+03 -.000000000000000D+00 -.000000000000000D+00 -.133763247221173D+03
 0.137536910780534D+03 0.466001388386191D+02 -.315510642696200D+02 -.111516469962148D+02
 0.105468261556177D+03 -.640205861373104D+02 0.231932751850615D+02 0.444688409302542D+01
 0.198227437927822D+02 0.177358953590110D+02 0.384507482223153D+01 0.797462142674747D+01
 0.469857831285406D+01 -.315448060319742D+00 0.451271426232704D+01 -.126985852355809D+01
0.191906389662D-05 0.000000000000D+00 0.000000000000D+00 0.953008058320D-06 0.000000000000D+00  6 21 2 25 24 1 21 2 0.22434523D-02 0.18876873D+00 0.17636639D+05 0.17636639D+05 0.17636639D+05 0.12398843D+01  1  2  2  3  6  5        1 0.737659523363D-01 0.100000000000D+01
0.113638431167D-06 0.101271784110D-06 -.387403710047D-08 0.953008058320D-06 0.000000000000D+00  6 21 2 25 24 1 21 4 0.22434523D-02 0.18876873D+00 0.17636639D+05 0.17636639D+05 0.17636639D+05 0.12398843D+01  1  2  3  3  6  5        1 0.671512430834D-02 0.100000000000D+01
0.236447235840D-06 0.000000000000D+00 0.000000000000D+00 0.953008058320D-06 0.000000000000D+00  6 21 2 25 24 1 21 4 0.22434523D-02 0.18876873D+00 0.17636639D+05 0.17636639D+05 0.17636639D+05 0.12398843D+01  1  2 15  3  6  5        1 0.139721445001D-01 0.100000000000D+01
0.136679872491D-06 0.000000000000D+00 0.000000000000D+00 0.953275747640D-06 0.000000000000D+00  6 21 2 25 24 1 21 4 0.22434523D-02 0.18876873D+00 0.17573503D+05 0.17573503D+05 0.17573503D+05 0.12400584D+01  1  2 12  3  6  5        1 0.808087492221D-02 0.100000000000D+01
-.468482133339D-05 0.000000000000D+00 0.000000000000D+00 0.953008058320D-06 0.000000000000D+00  6 21 2 25 24 1 21 4 0.22434523D-02 0.18876873D+00 0.17636639D+05 0.17636639D+05 0.17636639D+05 0.12398843D+01  1  2  4  3  6  5        1 -.276835550202D+00 0.100000000000D+01
-.160046386256D-05 0.000000000000D+00 0.000000000000D+00 0.953008058320D-06 0.000000000000D+00  6 21 2 25 24 1 21 4 0.22434523D-02 0.18876873D+00 0.17636639D+05 0.17636639D+05 0.17636639D+05 0.12398843D+01  1  2  5  3  6  5        1 -.945746406192D-01 0.100000000000D+01
0.232474913073D-05 0.000000000000D+00 -.000000000000D+00 0.953008058320D-06 0.000000000000D+00  6 21 2 25 24 1 21 4 0.22434523D-02 0.18876873D+00 0.17636639D+05 0.17636639D+05 0.17636639D+05 0.12398843D+01  1  2  6  3  6  5        1 0.137374119286D+00 0.100000000000D+01
  </mgrwgt>
  </event>
  <event>
  5     66 0.42910585E-03 0.45876629E+02 0.75467711E-02 0.11228408E+00
       21 -1    0    0  501  502 0.00000000E+00 0.00000000E+00 0.45433661E+02 0.45439851E+02 0.75000000E+00 0.0000E+00 0.9000E+01
        2 -1    0    0  502    0 0.00000000E+00 0.00000000E+00 -.19815036E+04 0.19815036E+04 0.32000000E+00 0.0000E+00 0.9000E+01
       25  1    1    2    0    0 -.93037592E+02 -.98877694E+02 -.19237983E+03 0.26658543E+03 0.12500000E+03 0.0000E+00 0.9000E+01
       24  1    1    2    0    0 0.13678539E+03 0.11268916E+03 -.13374682E+04 0.13515537E+04 0.80419002E+02 0.0000E+00 0.9000E+01
        1  1    1    2  501    0 -.43747798E+02 -.13811469E+02 -.40622188E+03 0.40880428E+03 0.32000000E+00 0.0000E+00 0.9000E+01
#aMCatNLO 1  0  0  1  2 0.44990660D+02 0.00000000D+00  -5  6  0 0.00000000D+00 0.00000000D+00 0.00000000D+00 0.00000000D+00 0.00000000D+00
  <mgrwgt>
 0.2269317651D+00   23    2    0
 0.300055429039077D+03 0.000000000000000D+00 0.000000000000000D+00 0.300055429039077D+03
 0.300055429039077D+03 0.000000000000000D+00 0.000000000000000D+00 -.300055429039077D+03
 0.279769718891551D+03 -.930373804454384D+02 -.988776274879051D+02 0.210269722572870D+03
 0.250105515837087D+03 0.136785579770362D+03 0.112689222728999D+03 -.157087228460448D+03
 0.702356233495141D+02 -.437481993249239D+02 -.138115952410937D+02 -.531824941124214D+02
 0.000000000000000D+00 -.000000000000000D+00 0.000000000000000D+00 0.000000000000000D+00
 0.324991682870332D+03 0.000000000000000D+00 0.000000000000000D+00 0.324991682870332D+03
 0.321900058517130D+03 0.000000000000000D+00 0.000000000000000D+00 -.321900058517130D+03
 0.277556665093581D+03 -.743066271664671D+02 -.108064199743219D+03 0.210269722572870D+03
 0.256294353620352D+03 0.153804783037731D+03 0.104342086967028D+03 -.157087228460448D+03
 0.679439642050976D+02 -.391042279698113D+02 -.160892494160193D+02 -.531824941124214D+02
 0.450967584684312D+02 -.403939279014527D+02 0.198113621922106D+02 0.309162435320228D+01
0.228341924525D-04 0.000000000000D+00 0.000000000000D+00 0.316081286879D-07 0.000000000000D+00  6 21 2 25 24 1 21 2 0.69902722D-02 0.30484718D+00 0.45165292D+05 0.45165292D+05 0.45165292D+05 0.11966806D+01  1  2  2  1  6  1       21 0.484838653552D-01 0.100000000000D+01
-.116623511261D-05 0.120499344104D-05 -.460956557391D-07 0.316081286879D-07 0.000000000000D+00  6 21 2 25 24 1 21 4 0.69902722D-02 0.30484718D+00 0.45165292D+05 0.45165292D+05 0.45165292D+05 0.11966806D+01  1  2  3  1  6  1       21 -.354612635801D-02 0.100000000000D+01
0.256903051657D-05 0.000000000000D+00 0.000000000000D+00 0.316081286879D-07 0.000000000000D+00  6 21 2 25 24 1 21 4 0.69902722D-02 0.30484718D+00 0.45165292D+05 0.45165292D+05 0.45165292D+05 0.11966806D+01  1  2 15  1  6  1       21 0.781155251702D-02 0.100000000000D+01
0.314206096491D-04 0.000000000000D+00 0.000000000000D+00 0.311437091172D-07 0.000000000000D+00  6 21 2 25 24 1 21 4 0.78062906D-02 0.30484718D+00 0.55450974D+05 0.55450974D+05 0.55450974D+05 0.11878566D+01  1  2 12  1  6  1       21 0.759361827365D-01 0.100000000000D+01
-.609272308969D-05 0.000000000000D+00 0.000000000000D+00 0.316081286879D-07 0.000000000000D+00  6 21 2 25 24 1 21 4 0.69902722D-02 0.30484718D+00 0.45165292D+05 0.45165292D+05 0.45165292D+05 0.11966806D+01  1  2  4  1  6  1       21 -.185259093186D-01 0.100000000000D+01
-.162952893085D-03 0.000000000000D+00 -.494656129081D-04 0.316081286879D-07 0.000000000000D+00  6 21 2 25 24 1 21 4 0.82335853D-02 0.30484718D+00 0.45165292D+05 0.45165292D+05 0.45165292D+05 0.11966806D+01  1  2  5  1  6  1       21 -.372721496235D+00 0.100000000000D+01
0.162597853256D-03 0.000000000000D+00 0.469118315139D-04 0.316081286879D-07 0.000000000000D+00  6 21 2 25 24 1 21 4 0.69902722D-02 0.30484718D+00 0.45165292D+05 0.45165292D+05 0.45165292D+05 0.11966806D+01  1  2  6  1  6  1       21 0.494405053450D+00 0.100000000000D+01
0.898138722936D-06 0.000000000000D+00 0.000000000000D+00 0.311437091172D-07 0.000000000000D+00  6 -1 2 25 24 1 -1 4 0.78062906D-02 0.30484718D+00 0.55450974D+05 0.55450974D+05 0.55450974D+05 0.11878566D+01  1  2 12  4  6  1       21 0.139078504968D-03 0.100000000000D+01
-.562526028328D-05 0.000000000000D+00 -.223379336777D-05 0.316081286879D-07 0.000000000000D+00  6 -1 2 25 24 1 -1 4 0.82335853D-02 0.30484718D+00 0.45165292D+05 0.45165292D+05 0.45165292D+05 0.11966806D+01  1  2  5  4  6  1       21 -.830459039182D-03 0.100000000000D+01
0.898138722936D-06 0.000000000000D+00 0.000000000000D+00 0.311437091172D-07 0.000000000000D+00  6 1 2 25 24 1 1 4 0.78062906D-02 0.30484718D+00 0.55450974D+05 0.55450974D+05 0.55450974D+05 0.11878566D+01  1  2 12  5  6  1       21 0.166371694075D-03 0.100000000000D+01
-.562526028328D-05 0.000000000000D+00 -.223379336777D-05 0.316081286879D-07 0.000000000000D+00  6 1 2 25 24 1 1 4 0.82335853D-02 0.30484718D+00 0.45165292D+05 0.45165292D+05 0.45165292D+05 0.11966806D+01  1  2  5  5  6  1       21 -.100263888484D-02 0.100000000000D+01
0.898138722936D-06 0.000000000000D+00 0.000000000000D+00 0.311437091172D-07 0.000000000000D+00  6 -2 2 25 24 1 -2 4 0.78062906D-02 0.30484718D+00 0.55450974D+05 0.55450974D+05 0.55450974D+05 0.11878566D+01  1  2 12  6  6  1       21 0.134334330092D-03 0.100000000000D+01
-.562526028328D-05 0.000000000000D+00 -.223379336777D-05 0.316081286879D-07 0.000000000000D+00  6 -2 2 25 24 1 -2 4 0.82335853D-02 0.30484718D+00 0.45165292D+05 0.45165292D+05 0.45165292D+05 0.11966806D+01  1  2  5  6  6  1       21 -.800541918551D-03 0.100000000000D+01
0.898138722936D-06 0.000000000000D+00 0.000000000000D+00 0.311437091172D-07 0.000000000000D+00  6 2 2 25 24 1 2 4 0.78062906D-02 0.30484718D+00 0.55450974D+05 0.55450974D+05 0.55450974D+05 0.11878566D+01  1  2 12  7  6  1       21 0.184825080721D-03 0.100000000000D+01
-.562526028328D-05 0.000000000000D+00 -.223379336777D-05 0.316081286879D-07 0.000000000000D+00  6 2 2 25 24 1 2 4 0.82335853D-02 0.30484718D+00 0.45165292D+05 0.45165292D+05 0.45165292D+05 0.11966806D+01  1  2  5  7  6  1       21 -.111904052981D-02 0.100000000000D+01
0.898138722936D-06 0.000000000000D+00 0.000000000000D+00 0.311437091172D-07 0.000000000000D+00  6 -3 2 25 24 1 -3 4 0.78062906D-02 0.30484718D+00 0.55450974D+05 0.55450974D+05 0.55450974D+05 0.11878566D+01  1  2 12  8  6  1       21 0.963351558196D-04 0.100000000000D+01
0.898138722936D-06 0.000000000000D+00 0.000000000000D+00 0.311437091172D-07 0.000000000000D+00  6 -4 2 25 24 1 -4 4 0.78062906D-02 0.30484718D+00 0.55450974D+05 0.55450974D+05 0.55450974D+05 0.11878566D+01  1  2 12  8  6  1       21 0.856041060125D-04 0.100000000000D+01
-.562526028328D-05 0.000000000000D+00 -.223379336777D-05 0.316081286879D-07 0.000000000000D+00  6 -3 2 25 24 1 -3 4 0.82335853D-02 0.30484718D+00 0.45165292D+05 0.45165292D+05 0.45165292D+05 0.11966806D+01  1  2  5  8  6  1       21 -.569357045755D-03 0.100000000000D+01
-.562526028328D-05 0.000000000000D+00 -.223379336777D-05 0.316081286879D-07 0.000000000000D+00  6 -4 2 25 24 1 -4 4 0.82335853D-02 0.30484718D+00 0.45165292D+05 0.45165292D+05 0.45165292D+05 0.11966806D+01  1  2  5  8  6  1       21 -.504252185583D-03 0.100000000000D+01
0.898138722936D-06 0.000000000000D+00 0.000000000000D+00 0.311437091172D-07 0.000000000000D+00  6 3 2 25 24 1 3 4 0.78062906D-02 0.30484718D+00 0.55450974D+05 0.55450974D+05 0.55450974D+05 0.11878566D+01  1  2 12  9  6  1       21 0.963246375690D-04 0.100000000000D+01
0.898138722936D-06 0.000000000000D+00 0.000000000000D+00 0.311437091172D-07 0.000000000000D+00  6 4 2 25 24 1 4 4 0.78062906D-02 0.30484718D+00 0.55450974D+05 0.55450974D+05 0.55450974D+05 0.11878566D+01  1  2 12  9  6  1       21 0.856041060125D-04 0.100000000000D+01
-.562526028328D-05 0.000000000000D+00 -.223379336777D-05 0.316081286879D-07 0.000000000000D+00  6 3 2 25 24 1 3 4 0.82335853D-02 0.30484718D+00 0.45165292D+05 0.45165292D+05 0.45165292D+05 0.11966806D+01  1  2  5  9  6  1       21 -.569292829931D-03 0.100000000000D+01
-.562526028328D-05 0.000000000000D+00 -.223379336777D-05 0.316081286879D-07 0.000000000000D+00  6 4 2 25 24 1 4 4 0.82335853D-02 0.30484718D+00 0.45165292D+05 0.45165292D+05 0.45165292D+05 0.11966806D+01  1  2  5  9  6  1       21 -.504252185583D-03 0.100000000000D+01
  </mgrwgt>
  </event>
  <event>
  5     66 -.42910585E-03 0.22159614E+02 0.75467711E-02 0.11301852E+00
       21 -1    0    0  501  502 0.00000000E+00 0.00000000E+00 0.83529215E+02 0.83532582E+02 0.75000000E+00 0.0000E+00 0.9000E+01
        2 -1    0    0  502    0 -.00000000E+00 -.00000000E+00 -.15659507E+04 0.15659508E+04 0.32000000E+00 0.0000E+00 0.9000E+01
       25  1    1    2    0    0 0.18213509E+02 -.17412880E+03 -.66842096E+03 0.70218527E+03 0.12500000E+03 0.0000E+00 0.9000E+01
       24  1    1    2    0    0 -.23890860E+02 0.19554878E+03 -.86547860E+03 0.89125222E+03 0.80419002E+02 0.0000E+00 0.9000E+01
        1  1    1    2  501    0 0.56773515E+01 -.21419981E+02 0.51478037E+02 0.56045862E+02 0.32000000E+00 0.0000E+00 0.9000E+01
#aMCatNLO 1  0  0  5  1 0.45533490D+01 0.00000000D+00  -5  6  0 0.00000000D+00 0.00000000D+00 0.00000000D+00 0.00000000D+00 0.00000000D+00
  <mgrwgt>
 -.5776324164D-01    1    2    0
 0.361670346858388D+03 0.000000000000000D+00 0.000000000000000D+00 0.361670346858388D+03
 0.361670346858388D+03 -.000000000000000D+00 -.000000000000000D+00 -.361670346858388D+03
 0.231372726922053D+03 0.182135071755474D+02 -.174128795816857D+03 -.851808040997760D+02
 0.258663222031724D+03 -.238908622985439D+02 0.195548790022394D+03 -.147069180649352D+03
 0.233304744762999D+03 0.567735512299647D+01 -.214199942055371D+02 0.232249984749128D+03
 0.000000000000000D+00 0.000000000000000D+00 0.000000000000000D+00 0.000000000000000D+00
 0.361670346858388D+03 0.000000000000000D+00 0.000000000000000D+00 0.361670346858388D+03
 0.361670346858388D+03 -.000000000000000D+00 -.000000000000000D+00 -.361670346858388D+03
 0.230195507356499D+03 0.183131991176122D+02 -.174504921807764D+03 -.811025931155148D+02
 0.255775852518490D+03 -.237797510334975D+02 0.195129580266812D+03 -.142523826509367D+03
 0.895422486197270D+02 0.760875233035948D+01 -.439160430999526D+02 0.776614597744297D+02
 0.147827085222061D+03 -.214220041447418D+01 0.232913846409042D+02 0.145964959850452D+03
-.344872938020D-04 0.000000000000D+00 0.000000000000D+00 0.582398241217D-05 0.000000000000D+00  6 21 2 25 24 1 21 4 0.12850910D-01 0.24091576D+00 0.50639966D+05 0.50639966D+05 0.50639966D+05 0.11917351D+01  1  2 14  3  6  5        1 -.577632416367D-01 0.100000000000D+01
  </mgrwgt>
  </event>
  <event>
  5     66 0.42910585E-03 0.15544857E+03 0.75467711E-02 0.11338473E+00
       21 -1    0    0  501  502 0.00000000E+00 0.00000000E+00 0.83272826E+03 0.83272860E+03 0.75000000E+00 0.0000E+00 0.9000E+01
        2 -1    0    0  502    0 0.00000000E+00 0.00000000E+00 -.57203227E+02 0.57204122E+02 0.32000000E+00 0.0000E+00 0.9000E+01
       25  1    1    2    0    0 0.27014349E+02 -.10994158E+02 0.26997758E+03 0.29893735E+03 0.12500000E+03 0.0000E+00 0.9000E+01
       24  1    1    2    0    0 0.99448731E+02 -.79400981E+02 0.25675305E+03 0.29763049E+03 0.80419002E+02 0.0000E+00 0.9000E+01
        1  1    1    2  501    0 -.12646308E+03 0.90395139E+02 0.24879440E+03 0.29336487E+03 0.32000000E+00 0.0000E+00 0.9000E+01
#aMCatNLO 1  0  0  1  2 0.57115971D+01 0.00000000D+00  -5  6  0 0.00000000D+00 0.00000000D+00 0.00000000D+00 0.00000000D+00 0.00000000D+00
  <mgrwgt>
 0.1182480548D-01   13    2    0
 0.218255106956203D+03 0.000000000000000D+00 0.000000000000000D+00 0.218255106956203D+03
 0.218255106956203D+03 0.000000000000000D+00 0.000000000000000D+00 -.218255106956203D+03
 0.129801701322909D+03 0.270144276598583D+02 -.109942148212616D+02 0.193087960524676D+02
 0.150632758673003D+03 0.994488224708470D+02 -.794010465253850D+02 -.533081146769280D+01
 0.156075753916494D+03 -.126463250130705D+03 0.903952613466466D+02 -.139779845847748D+02
 0.000000000000000D+00 0.000000000000000D+00 -.000000000000000D+00 -.000000000000000D+00
 0.219858637492795D+03 0.000000000000000D+00 0.000000000000000D+00 0.219858637492795D+03
 0.223419763796897D+03 0.000000000000000D+00 0.000000000000000D+00 -.223419763796897D+03
 0.129440735705965D+03 0.253407406557864D+02 -.107201361055706D+02 0.193087960524676D+02
 0.149193603697958D+03 0.975131228534170D+02 -.790840612922930D+02 -.533081146769280D+01
 0.157913240123098D+03 -.128490384672289D+03 0.907272197297485D+02 -.139779845847748D+02
 0.673082176267075D+01 0.563652116308607D+01 -.923022331884878D+00 -.356112630410196D+01
0.300720380292D-04 0.000000000000D+00 0.000000000000D+00 0.168264800031D-06 0.000000000000D+00  6 21 2 25 24 1 21 2 0.12811213D+00 0.88005912D-02 0.47163783D+05 0.47163783D+05 0.47163783D+05 0.11948016D+01  1  2  2  1  6  1       21 0.173583285544D-01 0.100000000000D+01
-.305425872688D-05 0.158694504566D-05 -.607067806428D-07 0.168264800031D-06 0.000000000000D+00  6 21 2 25 24 1 21 4 0.12811213D+00 0.88005912D-02 0.47163783D+05 0.47163783D+05 0.47163783D+05 0.11948016D+01  1  2  3  1  6  1       21 -.251676395487D-02 0.100000000000D+01
0.289788012242D-05 0.000000000000D+00 0.000000000000D+00 0.168264800031D-06 0.000000000000D+00  6 21 2 25 24 1 21 4 0.12811213D+00 0.88005912D-02 0.47163783D+05 0.47163783D+05 0.47163783D+05 0.11948016D+01  1  2 15  1  6  1       21 0.238790518088D-02 0.100000000000D+01
-.245921982387D-04 0.000000000000D+00 0.000000000000D+00 0.168264800031D-06 0.000000000000D+00  6 21 2 25 24 1 21 4 0.12811213D+00 0.88005912D-02 0.47163783D+05 0.47163783D+05 0.47163783D+05 0.11948016D+01  1  2  4  1  6  1       21 -.202644122954D-01 0.100000000000D+01
0.182098928587D-04 0.000000000000D+00 0.000000000000D+00 0.168264800031D-06 0.485935545256D-07  6 21 2 25 24 1 21 4 0.12905338D+00 0.90088431D-02 0.48421076D+05 0.48421076D+05 0.48421076D+05 0.11936643D+01  1  2 11  1  6  1       21 0.142350535741D-01 0.100000000000D+01
0.912184831996D-06 0.000000000000D+00 0.000000000000D+00 0.167944621683D-06 0.715754409974D-09  6 -1 2 25 24 1 -1 4 0.12905338D+00 0.90088431D-02 0.48421076D+05 0.48421076D+05 0.48421076D+05 0.11936643D+01  1  2 11  4  6  1       21 0.855088408726D-04 0.100000000000D+01
0.442815502889D-06 0.000000000000D+00 0.000000000000D+00 0.167944621683D-06 0.739084018996D-10  6 1 2 25 24 1 1 4 0.12905338D+00 0.90088431D-02 0.48421076D+05 0.48421076D+05 0.48421076D+05 0.11936643D+01  1  2 11  5  6  1       21 0.190078531170D-03 0.100000000000D+01
0.441544177441D-06 0.000000000000D+00 0.000000000000D+00 0.167944621683D-06 0.145264162887D-09  6 -2 2 25 24 1 -2 4 0.12905338D+00 0.90088431D-02 0.48421076D+05 0.48421076D+05 0.48421076D+05 0.11936643D+01  1  2 11  6  6  1       21 0.303597811040D-04 0.100000000000D+01
0.328543488605D-06 0.000000000000D+00 0.000000000000D+00 0.167944621683D-06 0.725436113213D-09  6 2 2 25 24 1 2 4 0.12905338D+00 0.90088431D-02 0.48421076D+05 0.48421076D+05 0.48421076D+05 0.11936643D+01  1  2 11  7  6  1       21 0.249265009359D-03 0.100000000000D+01
0.436547296860D-06 0.000000000000D+00 0.000000000000D+00 0.167944621683D-06 0.143620232989D-09  6 -3 2 25 24 1 -3 4 0.12905338D+00 0.90088431D-02 0.48421076D+05 0.48421076D+05 0.48421076D+05 0.11936643D+01  1  2 11  8  6  1       21 0.193233796386D-04 0.100000000000D+01
0.436547296860D-06 0.000000000000D+00 0.000000000000D+00 0.167944621683D-06 0.143620232989D-09  6 -4 2 25 24 1 -4 4 0.12905338D+00 0.90088431D-02 0.48421076D+05 0.48421076D+05 0.48421076D+05 0.11936643D+01  1  2 11  8  6  1       21 0.153881697626D-04 0.100000000000D+01
0.436547296860D-06 0.000000000000D+00 0.000000000000D+00 0.167944621683D-06 0.143620232989D-09  6 3 2 25 24 1 3 4 0.12905338D+00 0.90088431D-02 0.48421076D+05 0.48421076D+05 0.48421076D+05 0.11936643D+01  1  2 11  9  6  1       21 0.193825426946D-04 0.100000000000D+01
0.436547296860D-06 0.000000000000D+00 0.000000000000D+00 0.167944621683D-06 0.143620232989D-09  6 4 2 25 24 1 4 4 0.12905338D+00 0.90088431D-02 0.48421076D+05 0.48421076D+05 0.48421076D+05 0.11936643D+01  1  2 11  9  6  1       21 0.153881697626D-04 0.100000000000D+01
  </mgrwgt>
  </event>
  <event>
  5     66 -.42910585E-03 0.14853000E+03 0.75467711E-02 0.10321661E+00
       21 -1    0    0  501  502 0.00000000E+00 0.00000000E+00 0.21732880E+03 0.21733010E+03 0.75000000E+00 0.0000E+00 0.9000E+01
        2 -1    0    0  502    0 0.00000000E+00 0.00000000E+00 -.11579060E+04 0.11579060E+04 0.32000000E+00 0.0000E+00 0.9000E+01
       25  1    1    2    0    0 0.48889249E+02 0.19509014E+03 0.94008210E+02 0.25478003E+03 0.12500000E+03 0.0000E+00 0.9000E+01
       24  1    1    2    0    0 -.55599571E+02 0.55004017E+02 -.91537624E+02 0.14478642E+03 0.80419002E+02 0.0000E+00 0.9000E+01
        1  1    1    2  501    0 0.67103222E+01 -.25009416E+03 -.94304777E+03 0.97566967E+03 0.32000000E+00 0.0000E+00 0.9000E+01
#aMCatNLO 1  0  0  1  5 0.22467243D+03 0.00000000D+00  -5  6  0 0.00000000D+00 0.00000000D+00 0.00000000D+00 0.00000000D+00 0.00000000D+00
  <mgrwgt>
 -.3934797855D-01   30    2    0
 0.501644535144150D+03 0.000000000000000D+00 0.000000000000000D+00 0.501644535144150D+03
 0.501644535144150D+03 0.000000000000000D+00 0.000000000000000D+00 -.501644535144150D+03
 0.437366199224225D+03 0.488892481031245D+02 0.195090166701722D+03 0.367714373529306D+03
 0.112646812717073D+03 -.555995712631781D+02 0.550040243553066D+02 0.102632081249676D+02
 0.453276058347002D+03 0.671032316005360D+01 -.250094191057029D+03 -.377977581654274D+03
 0.000000000000000D+00 -.000000000000000D+00 0.000000000000000D+00 0.000000000000000D+00
 0.147077006819715D+04 0.000000000000000D+00 0.000000000000000D+00 0.147077006819715D+04
 0.527259294172702D+03 0.000000000000000D+00 0.000000000000000D+00 -.527259294172702D+03
 0.425901757100187D+03 0.117866893508145D+03 0.129076882576688D+03 0.367714373529306D+03
 0.979251788471559D+02 -.387742506197602D+02 0.389017833233459D+02 0.102632081249676D+02
 0.504310534935157D+03 0.832243047020680D+02 -.323319932141879D+03 -.377977581654274D+03
 0.969891891487349D+03 -.162316947590453D+03 0.155341266241845D+03 0.943510774024444D+03
0.265956497326D-04 0.000000000000D+00 0.000000000000D+00 0.432080514323D-07 0.000000000000D+00  6 21 2 25 24 1 21 2 0.33435303D-01 0.17813948D+00 0.89749615D+05 0.89749615D+05 0.89749615D+05 0.11679110D+01  1  2  2  1  6  1       21 0.806198077554D-02 0.100000000000D+01
-.290316082727D-05 0.140349099513D-05 -.536889542638D-07 0.432080514323D-07 0.000000000000D+00  6 21 2 25 24 1 21 4 0.33435303D-01 0.17813948D+00 0.89749615D+05 0.89749615D+05 0.89749615D+05 0.11679110D+01  1  2  3  1  6  1       21 -.120038828512D-02 0.100000000000D+01
0.307417036321D-05 0.000000000000D+00 0.000000000000D+00 0.432080514323D-07 0.000000000000D+00  6 21 2 25 24 1 21 4 0.33435303D-01 0.17813948D+00 0.89749615D+05 0.89749615D+05 0.89749615D+05 0.11679110D+01  1  2 15  1  6  1       21 0.127109668049D-02 0.100000000000D+01
0.539512120231D-04 0.000000000000D+00 0.000000000000D+00 0.410870205570D-07 0.000000000000D+00  6 21 2 25 24 1 21 4 0.96931570D-01 0.17813948D+00 0.18957723D+06 0.18957723D+06 0.18957723D+06 0.11388846D+01  1  2 12  1  6  1       21 0.190287806652D-02 0.100000000000D+01
0.539212593463D-04 0.000000000000D+00 0.000000000000D+00 0.410870205570D-07 0.000000000000D+00  6 21 2 25 24 1 21 4 0.97190709D-01 0.17813948D+00 0.18957723D+06 0.18957723D+06 0.18957723D+06 0.11388846D+01  1  2 12  1  6  1       21 0.188964160720D-02 0.100000000000D+01
-.882928209210D-03 0.000000000000D+00 -.652817247140D-04 0.432080514323D-07 0.000000000000D+00  6 21 2 25 24 1 21 4 0.10004357D+00 0.17813948D+00 0.89749615D+05 0.89749615D+05 0.89749615D+05 0.11679110D+01  1  2  5  1  6  1       21 -.338417719499D-01 0.100000000000D+01
0.188156835000D-04 0.000000000000D+00 0.000000000000D+00 0.410870205570D-07 0.000000000000D+00  6 -1 2 25 24 1 -1 4 0.96931570D-01 0.17813948D+00 0.18957723D+06 0.18957723D+06 0.18957723D+06 0.11388846D+01  1  2 12  4  6  1       21 0.800045014545D-04 0.100000000000D+01
0.188332019873D-04 0.000000000000D+00 0.000000000000D+00 0.410870205570D-07 0.000000000000D+00  6 -1 2 25 24 1 -1 4 0.97190709D-01 0.17813948D+00 0.18957723D+06 0.18957723D+06 0.18957723D+06 0.11388846D+01  1  2 12  4  6  1       21 0.796034057888D-04 0.100000000000D+01
-.322205412391D-03 0.000000000000D+00 -.230612105744D-04 0.432080514323D-07 0.000000000000D+00  6 -1 2 25 24 1 -1 4 0.10004357D+00 0.17813948D+00 0.89749615D+05 0.89749615D+05 0.89749615D+05 0.11679110D+01  1  2  5  4  6  1       21 -.146356150539D-02 0.100000000000D+01
0.188156835000D-04 0.000000000000D+00 0.000000000000D+00 0.410870205570D-07 0.000000000000D+00  6 1 2 25 24 1 1 4 0.96931570D-01 0.17813948D+00 0.18957723D+06 0.18957723D+06 0.18957723D+06 0.11388846D+01  1  2 12  5  6  1       21 0.289285476175D-03 0.100000000000D+01
0.188332019873D-04 0.000000000000D+00 0.000000000000D+00 0.410870205570D-07 0.000000000000D+00  6 1 2 25 24 1 1 4 0.97190709D-01 0.17813948D+00 0.18957723D+06 0.18957723D+06 0.18957723D+06 0.11388846D+01  1  2 12  5  6  1       21 0.288446141062D-03 0.100000000000D+01
-.322205412391D-03 0.000000000000D+00 -.230612105744D-04 0.432080514323D-07 0.000000000000D+00  6 1 2 25 24 1 1 4 0.10004357D+00 0.17813948D+00 0.89749615D+05 0.89749615D+05 0.89749615D+05 0.11679110D+01  1  2  5  5  6  1       21 -.541556613175D-02 0.100000000000D+01
0.188156835000D-04 0.000000000000D+00 0.000000000000D+00 0.410870205570D-07 0.000000000000D+00  6 -2 2 25 24 1 -2 4 0.96931570D-01 0.17813948D+00 0.18957723D+06 0.18957723D+06 0.18957723D+06 0.11388846D+01  1  2 12  6  6  1       21 0.602718509806D-04 0.100000000000D+01
0.188332019873D-04 0.000000000000D+00 0.000000000000D+00 0.410870205570D-07 0.000000000000D+00  6 -2 2 25 24 1 -2 4 0.97190709D-01 0.17813948D+00 0.18957723D+06 0.18957723D+06 0.18957723D+06 0.11388846D+01  1  2 12  6  6  1       21 0.599538930205D-04 0.100000000000D+01
-.322205412391D-03 0.000000000000D+00 -.230612105744D-04 0.432080514323D-07 0.000000000000D+00  6 -2 2 25 24 1 -2 4 0.10004357D+00 0.17813948D+00 0.89749615D+05 0.89749615D+05 0.89749615D+05 0.11679110D+01  1  2  5  6  6  1       21 -.109499621137D-02 0.100000000000D+01
0.188156835000D-04 0.000000000000D+00 0.000000000000D+00 0.410870205570D-07 0.000000000000D+00  6 2 2 25 24 1 2 4 0.96931570D-01 0.17813948D+00 0.18957723D+06 0.18957723D+06 0.18957723D+06 0.11388846D+01  1  2 12  7  6  1       21 0.478845937883D-03 0.100000000000D+01
0.188332019873D-04 0.000000000000D+00 0.000000000000D+00 0.410870205570D-07 0.000000000000D+00  6 2 2 25 24 1 2 4 0.97190709D-01 0.17813948D+00 0.18957723D+06 0.18957723D+06 0.18957723D+06 0.11388846D+01  1  2 12  7  6  1       21 0.477755203849D-03 0.100000000000D+01
-.322205412391D-03 0.000000000000D+00 -.230612105744D-04 0.432080514323D-07 0.000000000000D+00  6 2 2 25 24 1 2 4 0.10004357D+00 0.17813948D+00 0.89749615D+05 0.89749615D+05 0.89749615D+05 0.11679110D+01  1  2  5  7  6  1       21 -.900091378613D-02 0.100000000000D+01
0.188156835000D-04 0.000000000000D+00 0.000000000000D+00 0.410870205570D-07 0.000000000000D+00  6 -3 2 25 24 1 -3 4 0.96931570D-01 0.17813948D+00 0.18957723D+06 0.18957723D+06 0.18957723D+06 0.11388846D+01  1  2 12  8  6  1       21 0.392110184757D-04 0.100000000000D+01
0.188156835000D-04 0.000000000000D+00 0.000000000000D+00 0.410870205570D-07 0.000000000000D+00  6 -4 2 25 24 1 -4 4 0.96931570D-01 0.17813948D+00 0.18957723D+06 0.18957723D+06 0.18957723D+06 0.11388846D+01  1  2 12  8  6  1       21 0.319830747146D-04 0.100000000000D+01
0.188332019873D-04 0.000000000000D+00 0.000000000000D+00 0.410870205570D-07 0.000000000000D+00  6 -3 2 25 24 1 -3 4 0.97190709D-01 0.17813948D+00 0.18957723D+06 0.18957723D+06 0.18957723D+06 0.11388846D+01  1  2 12  8  6  1       21 0.390062387048D-04 0.100000000000D+01
0.188332019873D-04 0.000000000000D+00 0.000000000000D+00 0.410870205570D-07 0.000000000000D+00  6 -4 2 25 24 1 -4 4 0.97190709D-01 0.17813948D+00 0.18957723D+06 0.18957723D+06 0.18957723D+06 0.11388846D+01  1  2 12  8  6  1       21 0.318122832462D-04 0.100000000000D+01
-.322205412391D-03 0.000000000000D+00 -.230612105744D-04 0.432080514323D-07 0.000000000000D+00  6 -3 2 25 24 1 -3 4 0.10004357D+00 0.17813948D+00 0.89749615D+05 0.89749615D+05 0.89749615D+05 0.11679110D+01  1  2  5  8  6  1       21 -.705348313559D-03 0.100000000000D+01
-.322205412391D-03 0.000000000000D+00 -.230612105744D-04 0.432080514323D-07 0.000000000000D+00  6 -4 2 25 24 1 -4 4 0.10004357D+00 0.17813948D+00 0.89749615D+05 0.89749615D+05 0.89749615D+05 0.11679110D+01  1  2  5  8  6  1       21 -.571313040801D-03 0.100000000000D+01
0.188156835000D-04 0.000000000000D+00 0.000000000000D+00 0.410870205570D-07 0.000000000000D+00  6 3 2 25 24 1 3 4 0.96931570D-01 0.17813948D+00 0.18957723D+06 0.18957723D+06 0.18957723D+06 0.11388846D+01  1  2 12  9  6  1       21 0.392846262126D-04 0.100000000000D+01
0.188156835000D-04 0.000000000000D+00 0.000000000000D+00 0.410870205570D-07 0.000000000000D+00  6 4 2 25 24 1 4 4 0.96931570D-01 0.17813948D+00 0.18957723D+06 0.18957723D+06 0.18957723D+06 0.11388846D+01  1  2 12  9  6  1       21 0.319830747146D-04 0.100000000000D+01
0.188332019873D-04 0.000000000000D+00 0.000000000000D+00 0.410870205570D-07 0.000000000000D+00  6 3 2 25 24 1 3 4 0.97190709D-01 0.17813948D+00 0.18957723D+06 0.18957723D+06 0.18957723D+06 0.11388846D+01  1  2 12  9  6  1       21 0.390798173119D-04 0.100000000000D+01
0.188332019873D-04 0.000000000000D+00 0.000000000000D+00 0.410870205570D-07 0.000000000000D+00  6 4 2 25 24 1 4 4 0.97190709D-01 0.17813948D+00 0.18957723D+06 0.18957723D+06 0.18957723D+06 0.11388846D+01  1  2 12  9  6  1       21 0.318122832462D-04 0.100000000000D+01
-.322205412391D-03 0.000000000000D+00 -.230612105744D-04 0.432080514323D-07 0.000000000000D+00  6 3 2 25 24 1 3 4 0.10004357D+00 0.17813948D+00 0.89749615D+05 0.89749615D+05 0.89749615D+05 0.11679110D+01  1  2  5  9  6  1       21 -.706742241478D-03 0.100000000000D+01
-.322205412391D-03 0.000000000000D+00 -.230612105744D-04 0.432080514323D-07 0.000000000000D+00  6 4 2 25 24 1 4 4 0.10004357D+00 0.17813948D+00 0.89749615D+05 0.89749615D+05 0.89749615D+05 0.11679110D+01  1  2  5  9  6  1       21 -.571313040801D-03 0.100000000000D+01
  </mgrwgt>
  </event>
  <event>
  6     66 0.42910585E-03 0.43217680E+02 0.75467711E-02 0.11574434E+00
       21 -1    0    0  503  502 0.00000000E+00 0.00000000E+00 0.11889933E+04 0.11889935E+04 0.75000000E+00 0.0000E+00 0.9000E+01
        2 -1    0    0  502    0 0.00000000E+00 0.00000000E+00 -.55438823E+03 0.55438832E+03 0.32000000E+00 0.0000E+00 0.9000E+01
       25  1    1    2    0    0 0.52646875E+02 -.15014349E+02 -.22442284E+03 0.26265517E+03 0.12500000E+03 0.0000E+00 0.9000E+01
       24  1    1    2    0    0 -.29379303E+02 0.25137286E+02 -.63861226E+02 0.10972921E+03 0.80419002E+02 0.0000E+00 0.9000E+01
        1  1    1    2  501    0 -.57107234E+02 0.57446334E+02 -.21543882E+03 0.23016365E+03 0.32000000E+00 0.0000E+00 0.9000E+01
       21  1    1    2  503  501 0.33839663E+02 -.67569271E+02 0.11383280E+04 0.11408338E+04 0.75000000E+00 0.0000E+00 0.9000E+01
#aMCatNLO 2  0  0  1  2 0.31282414D+02 0.00000000D+00  -5  6  0 0.00000000D+00 0.00000000D+00 0.00000000D+00 0.00000000D+00 0.00000000D+00
  <mgrwgt>
 0.4141491897D+00    1    2    0
 0.160947693252768D+03 0.000000000000000D+00 0.000000000000000D+00 0.160947693252768D+03
 0.160947693252768D+03 0.000000000000000D+00 0.000000000000000D+00 -.160947693252768D+03
 0.149152591905246D+03 0.674733763792693D+02 -.446188988717860D+02 -.883136543823385D+01
 0.971000880474159D+02 -.190192641334603D+02 0.445105440188793D+01 0.507904208584501D+02
 0.756427065528737D+02 -.484541122458090D+02 0.401678444698981D+02 -.419590554202163D+02
 0.000000000000000D+00 0.000000000000000D+00 -.000000000000000D+00 0.000000000000000D+00
 0.397810655394586D+04 0.000000000000000D+00 0.000000000000000D+00 0.397810655394586D+04
 0.165697893612536D+03 0.000000000000000D+00 0.000000000000000D+00 -.165697893612536D+03
 0.136748460600801D+03 0.526470646900848D+02 -.150144943538966D+02 -.883136543823385D+01
 0.102673738011297D+03 -.293791735724952D+02 0.251371802726681D+02 0.507904208584501D+02
 0.912246961380130D+02 -.571075540620382D+02 0.574465849530450D+02 -.419590554202163D+02
 0.381315755280828D+04 0.338396629444486D+02 -.675692708718165D+02 0.381240866033332D+04
0.161960603307D-01 0.000000000000D+00 0.000000000000D+00 0.212594143108D-06 0.428424202066D-06  6 21 2 25 24 1 21 4 0.18292203D+00 0.85290503D-01 0.36531833D+05 0.36531833D+05 0.36531833D+05 0.12060208D+01  1  2  1  1  6  1       21 0.414149189743D+00 0.100000000000D+01
  </mgrwgt>
  </event>
  <event>
  5     66 0.42910585E-03 0.50195231E+02 0.75467711E-02 0.11451466E+00
       21 -1    0    0  501  502 0.00000000E+00 0.00000000E+00 0.41602978E+03 0.41603046E+03 0.75000000E+00 0.0000E+00 0.9000E+01
        2 -1    0    0  502    0 0.00000000E+00 0.00000000E+00 -.11144962E+03 0.11145008E+03 0.32000000E+00 0.0000E+00 0.9000E+01
       25  1    1    2    0    0 0.13135107E+03 -.89516249E+02 0.23148626E+03 0.30737136E+03 0.12500000E+03 0.0000E+00 0.9000E+01
       24  1    1    2    0    0 -.83512101E+02 0.10471247E+03 0.65253137E+02 0.16930493E+03 0.80419002E+02 0.0000E+00 0.9000E+01
        1  1    1    2  501    0 -.47838964E+02 -.15196217E+02 0.78407651E+01 0.50804247E+02 0.32000000E+00 0.0000E+00 0.9000E+01
#aMCatNLO 1  0  0  1  2 0.24172342D+01 0.00000000D+00  -5  6  0 0.00000000D+00 0.00000000D+00 0.00000000D+00 0.00000000D+00 0.00000000D+00
  <mgrwgt>
 0.2679364770D+00   32    2    0
 0.215329188027797D+03 0.000000000000000D+00 0.000000000000000D+00 0.215329188027797D+03
 0.215329188027797D+03 0.000000000000000D+00 0.000000000000000D+00 -.215329188027797D+03
 0.212758870524709D+03 0.131351442160836D+03 -.895161292694939D+02 0.661437693953536D+02
 0.161218711940007D+03 -.835118158565870D+02 0.104712556114999D+03 -.398160059451364D+02
 0.566807935908770D+02 -.478396263042491D+02 -.151964268455056D+02 -.263277634502172D+02
 0.000000000000000D+00 0.000000000000000D+00 0.000000000000000D+00 0.000000000000000D+00
 0.216729262689769D+03 0.000000000000000D+00 0.000000000000000D+00 0.216729262689769D+03
 0.216378454727925D+03 0.000000000000000D+00 0.000000000000000D+00 -.216378454727925D+03
 0.212753941196421D+03 0.130669807784911D+03 -.904966441269464D+02 0.661437693953536D+02
 0.161006225970652D+03 -.840279920759868D+02 0.103970048885228D+03 -.398160059451364D+02
 0.569049926592148D+02 -.480215808174668D+02 -.154581640904153D+02 -.263277634502172D+02
 0.244255759140616D+01 0.137976510854300D+01 0.198475933213321D+01 0.350807961844206D+00
0.224960965736D-04 0.000000000000D+00 0.000000000000D+00 0.100783599008D-06 0.000000000000D+00  6 21 2 25 24 1 21 2 0.64004669D-01 0.17146182D-01 0.41745846D+05 0.41745846D+05 0.41745846D+05 0.12001207D+01  1  2  2  1  6  1       21 0.295438874202D-01 0.100000000000D+01
-.910661552348D-06 0.118715163134D-05 -.454131375694D-07 0.100783599008D-06 0.000000000000D+00  6 21 2 25 24 1 21 4 0.64004669D-01 0.17146182D-01 0.41745846D+05 0.41745846D+05 0.41745846D+05 0.12001207D+01  1  2  3  1  6  1       21 -.172253220054D-02 0.100000000000D+01
0.246468992886D-05 0.000000000000D+00 0.000000000000D+00 0.100783599008D-06 0.000000000000D+00  6 21 2 25 24 1 21 4 0.64004669D-01 0.17146182D-01 0.41745846D+05 0.41745846D+05 0.41745846D+05 0.12001207D+01  1  2 15  1  6  1       21 0.466200396389D-02 0.100000000000D+01
0.296937154114D-07 0.000000000000D+00 0.000000000000D+00 0.100695699345D-06 0.000000000000D+00  6 21 2 25 24 1 21 4 0.64575885D-01 0.17146182D-01 0.42247061D+05 0.42247061D+05 0.42247061D+05 0.11995973D+01  1  2 12  1  6  1       21 0.549800354992D-04 0.100000000000D+01
-.221055440419D-03 0.000000000000D+00 0.000000000000D+00 0.100783599008D-06 0.000000000000D+00  6 21 2 25 24 1 21 4 0.64004669D-01 0.17146182D-01 0.41745846D+05 0.41745846D+05 0.41745846D+05 0.12001207D+01  1  2  4  1  6  1       21 -.418130218898D+00 0.100000000000D+01
-.585769593107D-02 0.000000000000D+00 -.619927847080D-03 0.100783599008D-06 0.000000000000D+00  6 21 2 25 24 1 21 4 0.64691294D-01 0.17146182D-01 0.41745846D+05 0.41745846D+05 0.41745846D+05 0.12001207D+01  1  2  5  1  6  1       21 -.108256350675D+02 0.100000000000D+01
0.586299054547D-02 0.000000000000D+00 0.619786698065D-03 0.100783599008D-06 0.000000000000D+00  6 21 2 25 24 1 21 4 0.64004669D-01 0.17146182D-01 0.41745846D+05 0.41745846D+05 0.41745846D+05 0.12001207D+01  1  2  6  1  6  1       21 0.110899488180D+02 0.100000000000D+01
0.219580429514D-03 0.000000000000D+00 0.000000000000D+00 0.100783599008D-06 0.216120120610D-06  6 21 2 25 24 1 21 4 0.64420829D-01 0.17229733D-01 0.42247061D+05 0.42247061D+05 0.42247061D+05 0.11995973D+01  1  2 11  1  6  1       21 0.406394076808D+00 0.100000000000D+01
0.373621913649D-08 0.000000000000D+00 0.000000000000D+00 0.100695699345D-06 0.000000000000D+00  6 -1 2 25 24 1 -1 4 0.64575885D-01 0.17146182D-01 0.42247061D+05 0.42247061D+05 0.42247061D+05 0.11995973D+01  1  2 12  4  6  1       21 0.735250007893D-06 0.100000000000D+01
-.126441548159D-04 0.000000000000D+00 -.149355206434D-05 0.100783599008D-06 0.000000000000D+00  6 -1 2 25 24 1 -1 4 0.64691294D-01 0.17146182D-01 0.41745846D+05 0.41745846D+05 0.41745846D+05 0.12001207D+01  1  2  5  4  6  1       21 -.248373121544D-02 0.100000000000D+01
0.225914320462D-04 0.000000000000D+00 0.000000000000D+00 0.100783599008D-06 0.187488306263D-07  6 -1 2 25 24 1 -1 4 0.64420829D-01 0.17229733D-01 0.42247061D+05 0.42247061D+05 0.42247061D+05 0.11995973D+01  1  2 11  4  6  1       21 0.444144714802D-02 0.100000000000D+01
0.373621913649D-08 0.000000000000D+00 0.000000000000D+00 0.100695699345D-06 0.000000000000D+00  6 1 2 25 24 1 1 4 0.64575885D-01 0.17146182D-01 0.42247061D+05 0.42247061D+05 0.42247061D+05 0.11995973D+01  1  2 12  5  6  1       21 0.196828237731D-05 0.100000000000D+01
-.126441548159D-04 0.000000000000D+00 -.149355206434D-05 0.100783599008D-06 0.000000000000D+00  6 1 2 25 24 1 1 4 0.64691294D-01 0.17146182D-01 0.41745846D+05 0.41745846D+05 0.41745846D+05 0.12001207D+01  1  2  5  5  6  1       21 -.665675954399D-02 0.100000000000D+01
0.176343970742D-05 0.000000000000D+00 0.000000000000D+00 0.100783599008D-06 0.209040631960D-09  6 1 2 25 24 1 1 4 0.64420829D-01 0.17229733D-01 0.42247061D+05 0.42247061D+05 0.42247061D+05 0.11995973D+01  1  2 11  5  6  1       21 0.926611955270D-03 0.100000000000D+01
0.373621913649D-08 0.000000000000D+00 0.000000000000D+00 0.100695699345D-06 0.000000000000D+00  6 -2 2 25 24 1 -2 4 0.64575885D-01 0.17146182D-01 0.42247061D+05 0.42247061D+05 0.42247061D+05 0.11995973D+01  1  2 12  6  6  1       21 0.580244595950D-06 0.100000000000D+01
-.126441548159D-04 0.000000000000D+00 -.149355206434D-05 0.100783599008D-06 0.000000000000D+00  6 -2 2 25 24 1 -2 4 0.64691294D-01 0.17146182D-01 0.41745846D+05 0.41745846D+05 0.41745846D+05 0.12001207D+01  1  2  5  6  6  1       21 -.195949804735D-02 0.100000000000D+01
0.177190902369D-05 0.000000000000D+00 0.000000000000D+00 0.100783599008D-06 0.418422184733D-09  6 -2 2 25 24 1 -2 4 0.64420829D-01 0.17229733D-01 0.42247061D+05 0.42247061D+05 0.42247061D+05 0.11995973D+01  1  2 11  6  6  1       21 0.275013668844D-03 0.100000000000D+01
0.373621913649D-08 0.000000000000D+00 0.000000000000D+00 0.100695699345D-06 0.000000000000D+00  6 2 2 25 24 1 2 4 0.64575885D-01 0.17146182D-01 0.42247061D+05 0.42247061D+05 0.42247061D+05 0.11995973D+01  1  2 12  7  6  1       21 0.296939322629D-05 0.100000000000D+01
-.126441548159D-04 0.000000000000D+00 -.149355206434D-05 0.100783599008D-06 0.000000000000D+00  6 2 2 25 24 1 2 4 0.64691294D-01 0.17146182D-01 0.41745846D+05 0.41745846D+05 0.41745846D+05 0.12001207D+01  1  2  5  7  6  1       21 -.100456047981D-01 0.100000000000D+01
0.276950434367D-05 0.000000000000D+00 0.000000000000D+00 0.100783599008D-06 0.107881497261D-08  6 2 2 25 24 1 2 4 0.64420829D-01 0.17229733D-01 0.42247061D+05 0.42247061D+05 0.42247061D+05 0.11995973D+01  1  2 11  7  6  1       21 0.219439340597D-02 0.100000000000D+01
0.373621913649D-08 0.000000000000D+00 0.000000000000D+00 0.100695699345D-06 0.000000000000D+00  6 -3 2 25 24 1 -3 4 0.64575885D-01 0.17146182D-01 0.42247061D+05 0.42247061D+05 0.42247061D+05 0.11995973D+01  1  2 12  8  6  1       21 0.367204190835D-06 0.100000000000D+01
0.373621913649D-08 0.000000000000D+00 0.000000000000D+00 0.100695699345D-06 0.000000000000D+00  6 -4 2 25 24 1 -4 4 0.64575885D-01 0.17146182D-01 0.42247061D+05 0.42247061D+05 0.42247061D+05 0.11995973D+01  1  2 12  8  6  1       21 0.300860202354D-06 0.100000000000D+01
-.126441548159D-04 0.000000000000D+00 -.149355206434D-05 0.100783599008D-06 0.000000000000D+00  6 -3 2 25 24 1 -3 4 0.64691294D-01 0.17146182D-01 0.41745846D+05 0.41745846D+05 0.41745846D+05 0.12001207D+01  1  2  5  8  6  1       21 -.123977944323D-02 0.100000000000D+01
-.126441548159D-04 0.000000000000D+00 -.149355206434D-05 0.100783599008D-06 0.000000000000D+00  6 -4 2 25 24 1 -4 4 0.64691294D-01 0.17146182D-01 0.41745846D+05 0.41745846D+05 0.41745846D+05 0.12001207D+01  1  2  5  8  6  1       21 -.101559352905D-02 0.100000000000D+01
0.177017145049D-05 0.000000000000D+00 0.000000000000D+00 0.100783599008D-06 0.418011870677D-09  6 -3 2 25 24 1 -3 4 0.64420829D-01 0.17229733D-01 0.42247061D+05 0.42247061D+05 0.42247061D+05 0.11995973D+01  1  2 11  8  6  1       21 0.173871147395D-03 0.100000000000D+01
0.177017145049D-05 0.000000000000D+00 0.000000000000D+00 0.100783599008D-06 0.418011870677D-09  6 -4 2 25 24 1 -4 4 0.64420829D-01 0.17229733D-01 0.42247061D+05 0.42247061D+05 0.42247061D+05 0.11995973D+01  1  2 11  8  6  1       21 0.142471286452D-03 0.100000000000D+01
0.373621913649D-08 0.000000000000D+00 0.000000000000D+00 0.100695699345D-06 0.000000000000D+00  6 3 2 25 24 1 3 4 0.64575885D-01 0.17146182D-01 0.42247061D+05 0.42247061D+05 0.42247061D+05 0.11995973D+01  1  2 12  9  6  1       21 0.367502875478D-06 0.100000000000D+01
0.373621913649D-08 0.000000000000D+00 0.000000000000D+00 0.100695699345D-06 0.000000000000D+00  6 4 2 25 24 1 4 4 0.64575885D-01 0.17146182D-01 0.42247061D+05 0.42247061D+05 0.42247061D+05 0.11995973D+01  1  2 12  9  6  1       21 0.300860202354D-06 0.100000000000D+01
-.126441548159D-04 0.000000000000D+00 -.149355206434D-05 0.100783599008D-06 0.000000000000D+00  6 3 2 25 24 1 3 4 0.64691294D-01 0.17146182D-01 0.41745846D+05 0.41745846D+05 0.41745846D+05 0.12001207D+01  1  2  5  9  6  1       21 -.124079175022D-02 0.100000000000D+01
-.126441548159D-04 0.000000000000D+00 -.149355206434D-05 0.100783599008D-06 0.000000000000D+00  6 4 2 25 24 1 4 4 0.64691294D-01 0.17146182D-01 0.41745846D+05 0.41745846D+05 0.41745846D+05 0.12001207D+01  1  2  5  9  6  1       21 -.101559352905D-02 0.100000000000D+01
0.177017145049D-05 0.000000000000D+00 0.000000000000D+00 0.100783599008D-06 0.418011870677D-09  6 3 2 25 24 1 3 4 0.64420829D-01 0.17229733D-01 0.42247061D+05 0.42247061D+05 0.42247061D+05 0.11995973D+01  1  2 11  9  6  1       21 0.174011800591D-03 0.100000000000D+01
0.177017145049D-05 0.000000000000D+00 0.000000000000D+00 0.100783599008D-06 0.418011870677D-09  6 4 2 25 24 1 4 4 0.64420829D-01 0.17229733D-01 0.42247061D+05 0.42247061D+05 0.42247061D+05 0.11995973D+01  1  2 11  9  6  1       21 0.142471286452D-03 0.100000000000D+01
  </mgrwgt>
  </event>
  <event>
  5     66 -.42910585E-03 0.11604787E+03 0.75467711E-02 0.10911225E+00
       21 -1    0    0  501  502 0.00000000E+00 0.00000000E+00 0.17456338E+03 0.17456499E+03 0.75000000E+00 0.0000E+00 0.9000E+01
        2 -1    0    0  502    0 -.00000000E+00 -.00000000E+00 -.52877746E+03 0.52877756E+03 0.32000000E+00 0.0000E+00 0.9000E+01
       25  1    1    2    0    0 -.24241078E+03 -.70383367E+01 -.22541121E+03 0.35390357E+03 0.12500000E+03 0.0000E+00 0.9000E+01
       24  1    1    2    0    0 0.15525232E+03 -.69580579E+02 -.13750420E+03 0.23306514E+03 0.80419002E+02 0.0000E+00 0.9000E+01
        1  1    1    2  501    0 0.87158455E+02 0.76618915E+02 0.87013254E+01 0.11637384E+03 0.32000000E+00 0.0000E+00 0.9000E+01
#aMCatNLO 1  0  0  5  1 0.18200658D+01 0.00000000D+00  -5  6  0 0.00000000D+00 0.00000000D+00 0.00000000D+00 0.00000000D+00 0.00000000D+00
  <mgrwgt>
 -.1957863138D-01    8    2    0
 0.303818666461831D+03 0.000000000000000D+00 0.000000000000000D+00 0.303818666461831D+03
 0.303818666461831D+03 -.000000000000000D+00 -.000000000000000D+00 -.303818666461831D+03
 0.278244397015263D+03 -.242410882846030D+03 -.703842865712948D+01 -.546110691182114D+02
 0.189617534478669D+03 0.155252252424843D+03 -.695806412995275D+02 -.232994828431394D+02
 0.139775401429731D+03 0.871586304211866D+02 0.766190699566570D+02 0.779105519613508D+02
 0.000000000000000D+00 0.000000000000000D+00 0.000000000000000D+00 0.000000000000000D+00
 0.303818666461831D+03 0.000000000000000D+00 0.000000000000000D+00 0.303818666461831D+03
 0.303818666461831D+03 -.000000000000000D+00 -.000000000000000D+00 -.303818666461831D+03
 0.278213093886703D+03 -.242381595344386D+03 -.701268271405481D+01 -.545848892045574D+02
 0.189625248651564D+03 0.155272212752120D+03 -.695630946526307D+02 -.232816404320324D+02
 0.186774839557689D+02 0.111798268787054D+02 0.116618205605144D+02 0.937346355914109D+01
 0.121121506429626D+03 0.759295557135603D+02 0.649139568061711D+02 0.684930660774487D+02
0.214941765684D-05 0.000000000000D+00 0.000000000000D+00 0.814907419229D-07 0.000000000000D+00  6 21 2 25 24 1 21 2 0.26856036D-01 0.81350511D-01 0.83249847D+05 0.83249847D+05 0.83249847D+05 0.11709570D+01  1  2  2  3  6  5        1 0.279006060841D-02 0.100000000000D+01
-.482424831716D-07 0.113427886007D-06 -.433905497449D-08 0.814907419229D-07 0.000000000000D+00  6 21 2 25 24 1 21 4 0.26856036D-01 0.81350511D-01 0.83249847D+05 0.83249847D+05 0.83249847D+05 0.11709570D+01  1  2  3  3  6  5        1 -.858626741860D-04 0.100000000000D+01
0.209636751732D-06 0.000000000000D+00 0.000000000000D+00 0.814907419229D-07 0.000000000000D+00  6 21 2 25 24 1 21 4 0.26856036D-01 0.81350511D-01 0.83249847D+05 0.83249847D+05 0.83249847D+05 0.11709570D+01  1  2 15  3  6  5        1 0.373114544029D-03 0.100000000000D+01
0.261090446583D-07 0.000000000000D+00 0.000000000000D+00 0.814910157883D-07 0.000000000000D+00  6 21 2 25 24 1 21 4 0.26856036D-01 0.81350511D-01 0.83245821D+05 0.83245821D+05 0.83245821D+05 0.11709590D+01  1  2 12  3  6  5        1 0.464696304433D-04 0.100000000000D+01
-.968027956276D-04 0.000000000000D+00 0.000000000000D+00 0.814907419229D-07 0.000000000000D+00  6 21 2 25 24 1 21 4 0.26856036D-01 0.81350511D-01 0.83249847D+05 0.83249847D+05 0.83249847D+05 0.11709570D+01  1  2  4  3  6  5        1 -.172291025561D+00 0.100000000000D+01
-.384718346405D-04 0.000000000000D+00 0.000000000000D+00 0.814907419229D-07 0.000000000000D+00  6 21 2 25 24 1 21 4 0.26856036D-01 0.81350511D-01 0.83249847D+05 0.83249847D+05 0.83249847D+05 0.11709570D+01  1  2  5  3  6  5        1 -.684727316238D-01 0.100000000000D+01
0.810506106752D-04 0.000000000000D+00 -.000000000000D+00 0.814907419229D-07 0.000000000000D+00  6 21 2 25 24 1 21 4 0.26856036D-01 0.81350511D-01 0.83249847D+05 0.83249847D+05 0.83249847D+05 0.11709570D+01  1  2  6  3  6  5        1 0.144255057357D+00 0.100000000000D+01
0.414681934808D-04 0.000000000000D+00 0.000000000000D+00 0.814907419229D-07 0.131565828458D-07  6 21 2 25 24 1 21 4 0.26856036D-01 0.81350511D-01 0.83245821D+05 0.83245821D+05 0.83245821D+05 0.11709590D+01  1  2 11  3  6  5        1 0.738062863434D-01 0.100000000000D+01
  </mgrwgt>
  </event>
  <event>
  5     66 -.42910585E-03 0.18552834E+03 0.75467711E-02 0.11116711E+00
       21 -1    0    0  501  502 0.00000000E+00 0.00000000E+00 0.20958844E+03 0.20958978E+03 0.75000000E+00 0.0000E+00 0.9000E+01
        2 -1    0    0  502    0 0.00000000E+00 0.00000000E+00 -.63843884E+03 0.63843892E+03 0.32000000E+00 0.0000E+00 0.9000E+01
       25  1    1    2    0    0 -.95569730E+02 -.45334632E+02 -.24562262E+03 0.29520209E+03 0.12500000E+03 0.0000E+00 0.9000E+01
       24  1    1    2    0    0 0.28545633E+02 -.12900557E+03 -.29647394E+03 0.33439692E+03 0.80419002E+02 0.0000E+00 0.9000E+01
        1  1    1    2  501    0 0.67024096E+02 0.17434020E+03 0.11324616E+03 0.21842969E+03 0.32000000E+00 0.0000E+00 0.9000E+01
#aMCatNLO 1  0  0  1  2 0.13829110D+02 0.00000000D+00  -5  6  0 0.00000000D+00 0.00000000D+00 0.00000000D+00 0.00000000D+00 0.00000000D+00
  <mgrwgt>
 -.3192822248D-02    1    2    0
 0.365800498001185D+03 0.000000000000000D+00 0.000000000000000D+00 0.365800498001185D+03
 0.365800498001185D+03 0.000000000000000D+00 0.000000000000000D+00 -.365800498001185D+03
 0.198201627610561D+03 -.955697388089087D+02 -.453346557025981D+02 -.111669508836564D+03
 0.213825914241962D+03 0.285456234797058D+02 -.129005595572326D+03 -.147638102596263D+03
 0.319573454149846D+03 0.670241153292029D+02 0.174340251274924D+03 0.259307611432827D+03
 0.000000000000000D+00 -.000000000000000D+00 0.000000000000000D+00 -.000000000000000D+00
 0.368992191376632D+03 0.000000000000000D+00 0.000000000000000D+00 0.368992191376632D+03
 0.378468950334198D+03 0.000000000000000D+00 0.000000000000000D+00 -.378468950334198D+03
 0.198888959585957D+03 -.953213033367721D+02 -.487400058633990D+02 -.111669508836564D+03
 0.216106059597097D+03 0.288146058135893D+02 -.132692585300747D+03 -.147638102596263D+03
 0.316714166564928D+03 0.674222018630161D+02 0.168883606818015D+03 0.259307611432827D+03
 0.157519559628478D+02 -.915504339833239D+00 0.125489843461310D+02 -.947675895756565D+01
-.305261323699D-05 0.000000000000D+00 0.000000000000D+00 0.507901357569D-06 0.000000000000D+00  6 21 2 25 24 1 21 4 0.32244485D-01 0.98221470D-01 0.63807944D+05 0.63807944D+05 0.63807944D+05 0.11819337D+01  1  2 14  1  6  1       21 -.319282224822D-02 0.100000000000D+01
  </mgrwgt>
  </event>
  <event>
  5     66 0.42910585E-03 0.71376456E+02 0.75467711E-02 0.12030267E+00
       21 -1    0    0  501  502 0.00000000E+00 0.00000000E+00 0.66778858E+03 0.66778900E+03 0.75000000E+00 0.0000E+00 0.9000E+01
        2 -1    0    0  502    0 0.00000000E+00 0.00000000E+00 -.37786310E+02 0.37787665E+02 0.32000000E+00 0.0000E+00 0.9000E+01
       25  1    1    2    0    0 0.24833471E+02 -.30423309E+02 0.15636731E+03 0.20400493E+03 0.12500000E+03 0.0000E+00 0.9000E+01
       24  1    1    2    0    0 0.45004188E+02 0.15684468E+02 0.25623793E+03 0.27275717E+03 0.80419002E+02 0.0000E+00 0.9000E+01
        1  1    1    2  501    0 -.69837659E+02 0.14738841E+02 0.21739704E+03 0.22881457E+03 0.32000000E+00 0.0000E+00 0.9000E+01
#aMCatNLO 1  0  0  1  2 0.13829110D+02 0.00000000D+00  -5  6  0 0.00000000D+00 0.00000000D+00 0.00000000D+00 0.00000000D+00 0.00000000D+00
  <mgrwgt>
 0.5239286263D-02    1    2    0
 0.158851795280888D+03 0.000000000000000D+00 0.000000000000000D+00 0.158851795280888D+03
 0.158851795280888D+03 0.000000000000000D+00 0.000000000000000D+00 -.158851795280888D+03
 0.142993023971460D+03 0.248337419410141D+02 -.304233660713663D+02 -.572687433299981D+02
 0.976401712909883D+02 0.450043727762478D+02 0.156844290812242D+02 0.281956062317444D+02
 0.770703952993279D+02 -.698381147172619D+02 0.147389369901421D+02 0.290731370982537D+02
 0.000000000000000D+00 -.000000000000000D+00 -.000000000000000D+00 -.000000000000000D+00
 0.159237493495221D+03 0.000000000000000D+00 0.000000000000000D+00 0.159237493495221D+03
 0.195262438693266D+03 0.000000000000000D+00 0.000000000000000D+00 -.195262438693266D+03
 0.143056197573573D+03 0.273701992562570D+02 -.284822557794279D+02 -.572687433299981D+02
 0.986756401787202D+02 0.467451454775704D+02 0.170166146402542D+02 0.281956062317444D+02
 0.760509828395715D+02 -.684803559455277D+02 0.157780081032037D+02 0.290731370982537D+02
 0.367171115966225D+02 -.563498878829972D+01 -.431236696402992D+01 -.360249451980445D+02
0.191128972509D-05 0.000000000000D+00 0.000000000000D+00 0.352044803565D-06 0.000000000000D+00  6 21 2 25 24 1 21 4 0.10273684D+00 0.58134151D-02 0.21886395D+05 0.21886395D+05 0.21886395D+05 0.12295397D+01  1  2 14  1  6  1       21 0.523928626281D-02 0.100000000000D+01
  </mgrwgt>
  </event>
  <event>
  5     66 0.42910585E-03 0.20432048E+02 0.75467711E-02 0.10236397E+00
       21 -1    0    0  501  502 0.00000000E+00 0.00000000E+00 0.79185047E+02 0.79188599E+02 0.75000000E+00 0.0000E+00 0.9000E+01
        2 -1    0    0  502    0 0.00000000E+00 0.00000000E+00 -.72368921E+03 0.72368929E+03 0.32000000E+00 0.0000E+00 0.9000E+01
       25  1    1    2    0    0 0.43086928E+02 0.13239879E+03 -.24928506E+03 0.31169530E+03 0.12500000E+03 0.0000E+00 0.9000E+01
       24  1    1    2    0    0 -.39291817E+02 -.15247518E+03 -.42197383E+03 0.45751684E+03 0.80419002E+02 0.0000E+00 0.9000E+01
        1  1    1    2  501    0 -.37951111E+01 0.20076396E+02 0.26754722E+02 0.33665740E+02 0.32000000E+00 0.0000E+00 0.9000E+01
#aMCatNLO 1  0  0  1  1 0.52363939D+01 0.00000000D+00  -5  6  0 0.00000000D+00 0.00000000D+00 0.00000000D+00 0.00000000D+00 0.00000000D+00
  <mgrwgt>
 0.3421820626D+00    3    2    0
 0.239388426793952D+03 0.000000000000000D+00 0.000000000000000D+00 0.239388426793952D+03
 0.239388426793952D+03 0.000000000000000D+00 0.000000000000000D+00 -.239388426793952D+03
 0.187118469059823D+03 0.430869373555285D+02 0.132398741087795D+03 0.155262712189177D+01
 0.199187421411576D+03 -.392918079154175D+02 -.152475233923826D+03 -.917380497113087D+02
 0.924709631165055D+02 -.379512944011094D+01 0.200764928360308D+02 0.901854225894170D+02
 0.000000000000000D+00 0.000000000000000D+00 0.000000000000000D+00 -.000000000000000D+00
 0.451259876015692D+03 0.000000000000000D+00 0.000000000000000D+00 0.451259876015692D+03
 0.546924548451125D+03 0.000000000000000D+00 0.000000000000000D+00 -.546924548451125D+03
 0.152858648985845D+03 -.556114766520989D+02 0.681595157213670D+02 0.155262712189177D+01
 0.344902891117681D+03 -.197246117406148D+03 -.255281976939873D+03 -.917380497113087D+02
 0.111568590386776D+03 -.630296462845450D+02 -.184771102314616D+02 0.901854225894170D+02
 0.388854293976515D+03 0.315887240342792D+03 0.205599571449968D+03 -.956646724354325D+02
0.525770322613D-04 0.000000000000D+00 0.000000000000D+00 0.235243553505D-05 0.000000000000D+00  6 21 2 25 24 1 21 2 0.12182594D-01 0.11133708D+00 0.36930918D+05 0.36930918D+05 0.36930918D+05 0.12055370D+01  1  2  2  1  6  1       21 0.221763473341D+00 0.100000000000D+01
0.139206102980D-04 0.277456621933D-05 -.106137880021D-06 0.235243553505D-05 0.000000000000D+00  6 21 2 25 24 1 21 4 0.12182594D-01 0.11133708D+00 0.36930918D+05 0.36930918D+05 0.36930918D+05 0.12055370D+01  1  2  3  1  6  1       21 0.853322690281D-01 0.100000000000D+01
0.572377830726D-05 0.000000000000D+00 0.000000000000D+00 0.235243553505D-05 0.000000000000D+00  6 21 2 25 24 1 21 4 0.12182594D-01 0.11133708D+00 0.36930918D+05 0.36930918D+05 0.36930918D+05 0.12055370D+01  1  2 15  1  6  1       21 0.350863202055D-01 0.100000000000D+01
  </mgrwgt>
  </event>
  <event>
  5     66 0.42910585E-03 0.15666012E+03 0.75467711E-02 0.10730178E+00
       21 -1    0    0  501  502 0.00000000E+00 0.00000000E+00 0.10383451E+03 0.10383722E+03 0.75000000E+00 0.0000E+00 0.9000E+01
        2 -1    0    0  502    0 0.00000000E+00 0.00000000E+00 -.96578882E+03 0.96578887E+03 0.32000000E+00 0.0000E+00 0.9000E+01
       25  1    1    2    0    0 0.65255647E+02 0.25315794E+03 -.39103948E+03 0.48670742E+03 0.12500000E+03 0.0000E+00 0.9000E+01
       24  1    1    2    0    0 -.87515860E+02 -.48318852E+02 -.11829450E+03 0.17451230E+03 0.80419002E+02 0.0000E+00 0.9000E+01
        1  1    1    2  501    0 0.22260213E+02 -.20483908E+03 -.35262033E+03 0.40840637E+03 0.32000000E+00 0.0000E+00 0.9000E+01
#aMCatNLO 1  0  0  1  5 0.26947902D+02 0.00000000D+00  -5  6  0 0.00000000D+00 0.00000000D+00 0.00000000D+00 0.00000000D+00 0.00000000D+00
  <mgrwgt>
 0.8481568051D-01   32    2    0
 0.316675997513955D+03 0.000000000000000D+00 0.000000000000000D+00 0.316675997513955D+03
 0.316675997513955D+03 0.000000000000000D+00 0.000000000000000D+00 -.316675997513955D+03
 0.289786492103507D+03 0.652556355626669D+02 0.253158044955386D+03 0.197921886995540D+01
 0.133730447205779D+03 -.875158657557946D+02 -.483188017867299D+02 0.377211239280531D+02
 0.209835055718625D+03 0.222602301931277D+02 -.204839243168656D+03 -.397003427980085D+02
 0.000000000000000D+00 0.000000000000000D+00 -.000000000000000D+00 0.000000000000000D+00
 0.339240300802509D+03 0.000000000000000D+00 0.000000000000000D+00 0.339240300802509D+03
 0.325111767575400D+03 0.000000000000000D+00 0.000000000000000D+00 -.325111767575400D+03
 0.295942338219910D+03 0.566740020057021D+02 0.262185063915529D+03 0.197921886995540D+01
 0.134927013184733D+03 -.914520214614018D+02 -.441783602322483D+02 0.377211239280531D+02
 0.203055674951683D+03 0.162108831809215D+02 -.198475936018195D+03 -.397003427980085D+02
 0.304270420215842D+02 0.185671362747783D+02 -.195307676650853D+02 0.141285332271090D+02
0.628298833577D-05 0.000000000000D+00 0.000000000000D+00 0.452946004691D-07 0.000000000000D+00  6 21 2 25 24 1 21 2 0.15974753D-01 0.14858311D+00 0.97383062D+05 0.97383062D+05 0.97383062D+05 0.11646311D+01  1  2  2  1  6  1       21 0.101534705423D-01 0.100000000000D+01
-.648500292712D-06 0.331562403641D-06 -.126835432407D-07 0.452946004691D-07 0.000000000000D+00  6 21 2 25 24 1 21 4 0.15974753D-01 0.14858311D+00 0.97383062D+05 0.97383062D+05 0.97383062D+05 0.11646311D+01  1  2  3  1  6  1       21 -.142146177526D-02 0.100000000000D+01
0.809993053384D-06 0.000000000000D+00 0.000000000000D+00 0.452946004691D-07 0.000000000000D+00  6 21 2 25 24 1 21 4 0.15974753D-01 0.14858311D+00 0.97383062D+05 0.97383062D+05 0.97383062D+05 0.11646311D+01  1  2 15  1  6  1       21 0.177544123966D-02 0.100000000000D+01
0.222456721186D-04 0.000000000000D+00 0.000000000000D+00 0.450283960158D-07 0.000000000000D+00  6 21 2 25 24 1 21 4 0.17314968D-01 0.14858311D+00 0.10613503D+06 0.10613503D+06 0.10613503D+06 0.11612037D+01  1  2 12  1  6  1       21 0.413831143497D-01 0.100000000000D+01
0.177131583279D-04 0.000000000000D+00 0.000000000000D+00 0.450283960158D-07 0.000000000000D+00  6 21 2 25 24 1 21 4 0.17639251D-01 0.14858311D+00 0.10613503D+06 0.10613503D+06 0.10613503D+06 0.11612037D+01  1  2 12  1  6  1       21 0.318298288408D-01 0.100000000000D+01
-.190581067783D-04 0.000000000000D+00 0.000000000000D+00 0.452946004691D-07 0.000000000000D+00  6 21 2 25 24 1 21 4 0.15974753D-01 0.14858311D+00 0.97383062D+05 0.97383062D+05 0.97383062D+05 0.11646311D+01  1  2  4  1  6  1       21 -.417738751990D-01 0.100000000000D+01
-.126588715912D-03 0.000000000000D+00 -.218315719299D-04 0.452946004691D-07 0.000000000000D+00  6 21 2 25 24 1 21 4 0.17555823D-01 0.14858311D+00 0.97383062D+05 0.97383062D+05 0.97383062D+05 0.11646311D+01  1  2  5  1  6  1       21 -.232849600022D+00 0.100000000000D+01
0.126583350111D-03 0.000000000000D+00 0.214475238236D-04 0.452946004691D-07 0.000000000000D+00  6 21 2 25 24 1 21 4 0.15974753D-01 0.14858311D+00 0.97383062D+05 0.97383062D+05 0.97383062D+05 0.11646311D+01  1  2  6  1  6  1       21 0.277460774635D+00 0.100000000000D+01
0.451062826104D-06 0.000000000000D+00 0.000000000000D+00 0.450283960158D-07 0.000000000000D+00  6 -1 2 25 24 1 -1 4 0.17314968D-01 0.14858311D+00 0.10613503D+06 0.10613503D+06 0.10613503D+06 0.11612037D+01  1  2 12  4  6  1       21 0.656760272690D-04 0.100000000000D+01
0.452724749521D-06 0.000000000000D+00 0.000000000000D+00 0.450283960158D-07 0.000000000000D+00  6 -1 2 25 24 1 -1 4 0.17639251D-01 0.14858311D+00 0.10613503D+06 0.10613503D+06 0.10613503D+06 0.11612037D+01  1  2 12  4  6  1       21 0.639670891260D-04 0.100000000000D+01
-.251659304789D-05 0.000000000000D+00 -.522609249972D-06 0.452946004691D-07 0.000000000000D+00  6 -1 2 25 24 1 -1 4 0.17555823D-01 0.14858311D+00 0.97383062D+05 0.97383062D+05 0.97383062D+05 0.11646311D+01  1  2  5  4  6  1       21 -.362848704025D-03 0.100000000000D+01
0.451062826104D-06 0.000000000000D+00 0.000000000000D+00 0.450283960158D-07 0.000000000000D+00  6 1 2 25 24 1 1 4 0.17314968D-01 0.14858311D+00 0.10613503D+06 0.10613503D+06 0.10613503D+06 0.11612037D+01  1  2 12  5  6  1       21 0.942408445242D-04 0.100000000000D+01
0.452724749521D-06 0.000000000000D+00 0.000000000000D+00 0.450283960158D-07 0.000000000000D+00  6 1 2 25 24 1 1 4 0.17639251D-01 0.14858311D+00 0.10613503D+06 0.10613503D+06 0.10613503D+06 0.11612037D+01  1  2 12  5  6  1       21 0.923124509828D-04 0.100000000000D+01
-.251659304789D-05 0.000000000000D+00 -.522609249972D-06 0.452946004691D-07 0.000000000000D+00  6 1 2 25 24 1 1 4 0.17555823D-01 0.14858311D+00 0.97383062D+05 0.97383062D+05 0.97383062D+05 0.11646311D+01  1  2  5  5  6  1       21 -.522891355836D-03 0.100000000000D+01
0.451062826104D-06 0.000000000000D+00 0.000000000000D+00 0.450283960158D-07 0.000000000000D+00  6 -2 2 25 24 1 -2 4 0.17314968D-01 0.14858311D+00 0.10613503D+06 0.10613503D+06 0.10613503D+06 0.11612037D+01  1  2 12  6  6  1       21 0.608485523925D-04 0.100000000000D+01
0.452724749521D-06 0.000000000000D+00 0.000000000000D+00 0.450283960158D-07 0.000000000000D+00  6 -2 2 25 24 1 -2 4 0.17639251D-01 0.14858311D+00 0.10613503D+06 0.10613503D+06 0.10613503D+06 0.11612037D+01  1  2 12  6  6  1       21 0.591825453795D-04 0.100000000000D+01
-.251659304789D-05 0.000000000000D+00 -.522609249972D-06 0.452946004691D-07 0.000000000000D+00  6 -2 2 25 24 1 -2 4 0.17555823D-01 0.14858311D+00 0.97383062D+05 0.97383062D+05 0.97383062D+05 0.11646311D+01  1  2  5  6  6  1       21 -.335809139057D-03 0.100000000000D+01
0.451062826104D-06 0.000000000000D+00 0.000000000000D+00 0.450283960158D-07 0.000000000000D+00  6 2 2 25 24 1 2 4 0.17314968D-01 0.14858311D+00 0.10613503D+06 0.10613503D+06 0.10613503D+06 0.11612037D+01  1  2 12  7  6  1       21 0.114338015221D-03 0.100000000000D+01
0.452724749521D-06 0.000000000000D+00 0.000000000000D+00 0.450283960158D-07 0.000000000000D+00  6 2 2 25 24 1 2 4 0.17639251D-01 0.14858311D+00 0.10613503D+06 0.10613503D+06 0.10613503D+06 0.11612037D+01  1  2 12  7  6  1       21 0.112280992712D-03 0.100000000000D+01
-.251659304789D-05 0.000000000000D+00 -.522609249972D-06 0.452946004691D-07 0.000000000000D+00  6 2 2 25 24 1 2 4 0.17555823D-01 0.14858311D+00 0.97383062D+05 0.97383062D+05 0.97383062D+05 0.11646311D+01  1  2  5  7  6  1       21 -.635532075700D-03 0.100000000000D+01
0.451062826104D-06 0.000000000000D+00 0.000000000000D+00 0.450283960158D-07 0.000000000000D+00  6 -3 2 25 24 1 -3 4 0.17314968D-01 0.14858311D+00 0.10613503D+06 0.10613503D+06 0.10613503D+06 0.11612037D+01  1  2 12  8  6  1       21 0.414758137853D-04 0.100000000000D+01
0.451062826104D-06 0.000000000000D+00 0.000000000000D+00 0.450283960158D-07 0.000000000000D+00  6 -4 2 25 24 1 -4 4 0.17314968D-01 0.14858311D+00 0.10613503D+06 0.10613503D+06 0.10613503D+06 0.11612037D+01  1  2 12  8  6  1       21 0.360968058008D-04 0.100000000000D+01
0.452724749521D-06 0.000000000000D+00 0.000000000000D+00 0.450283960158D-07 0.000000000000D+00  6 -3 2 25 24 1 -3 4 0.17639251D-01 0.14858311D+00 0.10613503D+06 0.10613503D+06 0.10613503D+06 0.11612037D+01  1  2 12  8  6  1       21 0.402858275251D-04 0.100000000000D+01
0.452724749521D-06 0.000000000000D+00 0.000000000000D+00 0.450283960158D-07 0.000000000000D+00  6 -4 2 25 24 1 -4 4 0.17639251D-01 0.14858311D+00 0.10613503D+06 0.10613503D+06 0.10613503D+06 0.11612037D+01  1  2 12  8  6  1       21 0.350377633751D-04 0.100000000000D+01
-.251659304789D-05 0.000000000000D+00 -.522609249972D-06 0.452946004691D-07 0.000000000000D+00  6 -3 2 25 24 1 -3 4 0.17555823D-01 0.14858311D+00 0.97383062D+05 0.97383062D+05 0.97383062D+05 0.11646311D+01  1  2  5  8  6  1       21 -.228317861295D-03 0.100000000000D+01
-.251659304789D-05 0.000000000000D+00 -.522609249972D-06 0.452946004691D-07 0.000000000000D+00  6 -4 2 25 24 1 -4 4 0.17555823D-01 0.14858311D+00 0.97383062D+05 0.97383062D+05 0.97383062D+05 0.11646311D+01  1  2  5  8  6  1       21 -.198473455332D-03 0.100000000000D+01
0.451062826104D-06 0.000000000000D+00 0.000000000000D+00 0.450283960158D-07 0.000000000000D+00  6 3 2 25 24 1 3 4 0.17314968D-01 0.14858311D+00 0.10613503D+06 0.10613503D+06 0.10613503D+06 0.11612037D+01  1  2 12  9  6  1       21 0.414721674513D-04 0.100000000000D+01
0.451062826104D-06 0.000000000000D+00 0.000000000000D+00 0.450283960158D-07 0.000000000000D+00  6 4 2 25 24 1 4 4 0.17314968D-01 0.14858311D+00 0.10613503D+06 0.10613503D+06 0.10613503D+06 0.11612037D+01  1  2 12  9  6  1       21 0.360968058008D-04 0.100000000000D+01
0.452724749521D-06 0.000000000000D+00 0.000000000000D+00 0.450283960158D-07 0.000000000000D+00  6 3 2 25 24 1 3 4 0.17639251D-01 0.14858311D+00 0.10613503D+06 0.10613503D+06 0.10613503D+06 0.11612037D+01  1  2 12  9  6  1       21 0.402823685535D-04 0.100000000000D+01
0.452724749521D-06 0.000000000000D+00 0.000000000000D+00 0.450283960158D-07 0.000000000000D+00  6 4 2 25 24 1 4 4 0.17639251D-01 0.14858311D+00 0.10613503D+06 0.10613503D+06 0.10613503D+06 0.11612037D+01  1  2 12  9  6  1       21 0.350377633751D-04 0.100000000000D+01
-.251659304789D-05 0.000000000000D+00 -.522609249972D-06 0.452946004691D-07 0.000000000000D+00  6 3 2 25 24 1 3 4 0.17555823D-01 0.14858311D+00 0.97383062D+05 0.97383062D+05 0.97383062D+05 0.11646311D+01  1  2  5  9  6  1       21 -.228297888695D-03 0.100000000000D+01
-.251659304789D-05 0.000000000000D+00 -.522609249972D-06 0.452946004691D-07 0.000000000000D+00  6 4 2 25 24 1 4 4 0.17555823D-01 0.14858311D+00 0.97383062D+05 0.97383062D+05 0.97383062D+05 0.11646311D+01  1  2  5  9  6  1       21 -.198473455332D-03 0.100000000000D+01
  </mgrwgt>
  </event>
  <event>
  5     66 0.42910585E-03 0.61359935E+02 0.75467711E-02 0.12099471E+00
       21 -1    0    0  501  502 0.00000000E+00 0.00000000E+00 0.11759304E+02 0.11783197E+02 0.75000000E+00 0.0000E+00 0.9000E+01
        2 -1    0    0  502    0 -.00000000E+00 -.00000000E+00 -.17892466E+04 0.17892466E+04 0.32000000E+00 0.0000E+00 0.9000E+01
       25  1    1    2    0    0 0.40097630E+02 -.56664525E+02 -.10256882E+04 0.10356060E+04 0.12500000E+03 0.0000E+00 0.9000E+01
       24  1    1    2    0    0 -.81171372E+01 0.42984201E+01 -.37241307E+03 0.38110769E+03 0.80419002E+02 0.0000E+00 0.9000E+01
        1  1    1    2  501    0 -.31980493E+02 0.52366105E+02 -.37938606E+03 0.38431607E+03 0.32000000E+00 0.0000E+00 0.9000E+01
#aMCatNLO 1  0  0  5  1 0.11101645D+02 0.00000000D+00  -5  6  0 0.00000000D+00 0.00000000D+00 0.00000000D+00 0.00000000D+00 0.00000000D+00
  <mgrwgt>
 0.6230941378D+00    5    2    0
 0.145126966187834D+03 0.000000000000000D+00 0.000000000000000D+00 0.145126966187834D+03
 0.145126966187834D+03 -.000000000000000D+00 -.000000000000000D+00 -.145126966187834D+03
 0.144734529735412D+03 0.400978465876201D+02 -.566648802229845D+02 -.224574741696666D+02
 0.841567160973241D+02 -.811701112182372D+01 0.429821360342600D+01 0.230385850299578D+02
 0.613626865429332D+02 -.319808354657964D+02 0.523666666195585D+02 -.581110860291194D+00
 0.000000000000000D+00 0.000000000000000D+00 0.000000000000000D+00 0.000000000000000D+00
 0.145126966187834D+03 0.000000000000000D+00 0.000000000000000D+00 0.145126966187834D+03
 0.145126966187834D+03 -.000000000000000D+00 -.000000000000000D+00 -.145126966187834D+03
 0.140945855448081D+03 0.357500758342122D+02 -.495456709132252D+02 -.225364757581512D+02
 0.847492921318894D+02 -.106875922353369D+02 0.850738332114164D+01 0.229918760375076D+02
 0.116758100795218D+02 -.743517206957564D+01 -.879942790600286D+01 -.190074349556236D+01
 0.528829747161770D+02 -.176273115292997D+02 0.498377154980864D+02 0.144534321620590D+01
0.338581775657D-04 0.000000000000D+00 0.000000000000D+00 0.344999468068D-06 0.000000000000D+00  6 21 2 25 24 1 21 2 0.18109638D-02 0.27527055D+00 0.20346651D+05 0.20346651D+05 0.20346651D+05 0.12330053D+01  1  2  2  3  6  5        1 0.924310714122D+00 0.100000000000D+01
-.213552544140D-05 0.178674511819D-05 -.683499055318D-07 0.344999468068D-06 0.000000000000D+00  6 21 2 25 24 1 21 4 0.18109638D-02 0.27527055D+00 0.20346651D+05 0.20346651D+05 0.20346651D+05 0.12330053D+01  1  2  3  3  6  5        1 -.886316912611D-01 0.100000000000D+01
0.415026259580D-05 0.000000000000D+00 0.000000000000D+00 0.344999468068D-06 0.000000000000D+00  6 21 2 25 24 1 21 4 0.18109638D-02 0.27527055D+00 0.20346651D+05 0.20346651D+05 0.20346651D+05 0.12330053D+01  1  2 15  3  6  5        1 0.172250250880D+00 0.100000000000D+01
0.391674695315D-05 0.000000000000D+00 0.000000000000D+00 0.345036306375D-06 0.000000000000D+00  6 21 2 25 24 1 21 4 0.18109638D-02 0.27527055D+00 0.20318601D+05 0.20318601D+05 0.20318601D+05 0.12330711D+01  1  2 12  3  6  5        1 0.162593149358D+00 0.100000000000D+01
-.131899438446D-04 0.000000000000D+00 0.000000000000D+00 0.344999468068D-06 0.000000000000D+00  6 21 2 25 24 1 21 4 0.18109638D-02 0.27527055D+00 0.20346651D+05 0.20346651D+05 0.20346651D+05 0.12330053D+01  1  2  4  3  6  5        1 -.547428285293D+00 0.100000000000D+01
  </mgrwgt>
  </event>
  <event>
  5     66 0.42910585E-03 0.30151624E+02 0.75467711E-02 0.11877131E+00
       21 -1    0    0  501  502 0.00000000E+00 0.00000000E+00 0.14399846E+02 0.14419364E+02 0.75000000E+00 0.0000E+00 0.9000E+01
        2 -1    0    0  502    0 0.00000000E+00 0.00000000E+00 -.24674472E+04 0.24674472E+04 0.32000000E+00 0.0000E+00 0.9000E+01
       25  1    1    2    0    0 0.29681647E+02 -.89614966E+02 -.63614007E+03 0.65514199E+03 0.12500000E+03 0.0000E+00 0.9000E+01
       24  1    1    2    0    0 0.10513182E+00 0.84943064E+02 -.17427560E+04 0.17466772E+04 0.80419002E+02 0.0000E+00 0.9000E+01
        1  1    1    2  501    0 -.29786779E+02 0.46719017E+01 -.74151230E+02 0.80047400E+02 0.32000000E+00 0.0000E+00 0.9000E+01
#aMCatNLO 1  0  0  2  1 0.16548881D+02 0.00000000D+00  -5  6  0 0.00000000D+00 0.00000000D+00 0.00000000D+00 0.00000000D+00 0.00000000D+00
  <mgrwgt>
 0.2660926384D+00    9    2    0
 0.188560616763301D+03 0.000000000000000D+00 0.000000000000000D+00 0.188560616763301D+03
 0.188560616763301D+03 0.000000000000000D+00 0.000000000000000D+00 -.188560616763301D+03
 0.173666369498404D+03 0.296820025109947D+02 -.896150219091175D+02 0.749875621014712D+02
 0.158985247969119D+03 0.105456951153863D+00 0.849430134853423D+02 -.107674353753771D+03
 0.444696160590784D+02 -.297874594621486D+02 0.467200842377523D+01 0.326867916523001D+02
 0.000000000000000D+00 0.000000000000000D+00 -.000000000000000D+00 -.000000000000000D+00
 0.191457475371857D+03 0.000000000000000D+00 0.000000000000000D+00 0.191457475371857D+03
 0.213956215395141D+03 0.000000000000000D+00 0.000000000000000D+00 -.213956215395141D+03
 0.169812760385228D+03 0.291048296534502D+02 -.821044944602447D+02 0.749875621014712D+02
 0.162854415646149D+03 -.435353544036659D+00 0.919803715587059D+02 -.107674353753771D+03
 0.448169828733838D+02 -.299374942006892D+02 0.662435252202059D+01 0.326867916523001D+02
 0.279295318622378D+02 0.126801809127569D+01 -.165002296204818D+02 -.224987400232842D+02
0.384928672212D-05 0.000000000000D+00 0.000000000000D+00 0.501874201887D-06 0.000000000000D+00  6 21 2 25 24 1 21 2 0.22168639D-02 0.37960876D+00 0.23068526D+05 0.23068526D+05 0.23068526D+05 0.12270593D+01  1  2  2  2  6  2        2 0.333166214201D-01 0.100000000000D+01
0.185047970119D-06 0.203132441075D-06 -.777060086329D-08 0.501874201887D-06 0.000000000000D+00  6 21 2 25 24 1 21 4 0.22168639D-02 0.37960876D+00 0.23068526D+05 0.23068526D+05 0.23068526D+05 0.12270593D+01  1  2  3  2  6  2        2 0.241154925252D-02 0.100000000000D+01
0.384218172953D-06 0.000000000000D+00 0.000000000000D+00 0.501874201887D-06 0.000000000000D+00  6 21 2 25 24 1 21 4 0.22168639D-02 0.37960876D+00 0.23068526D+05 0.23068526D+05 0.23068526D+05 0.12270593D+01  1  2 15  2  6  2        2 0.500713975513D-02 0.100000000000D+01
0.395871511212D-04 0.000000000000D+00 0.000000000000D+00 0.497490917494D-06 0.000000000000D+00  6 21 2 25 24 1 21 4 0.22168639D-02 0.43340026D+00 0.25880569D+05 0.25880569D+05 0.25880569D+05 0.12216891D+01  1  2 12  2  6  2        2 0.325172909595D+00 0.100000000000D+01
-.298756298368D-04 0.000000000000D+00 0.000000000000D+00 0.501874201887D-06 0.000000000000D+00  6 21 2 25 24 1 21 4 0.22168639D-02 0.37960876D+00 0.23068526D+05 0.23068526D+05 0.23068526D+05 0.12270593D+01  1  2  4  2  6  2        2 -.389339870928D+00 0.100000000000D+01
-.615285451470D-04 0.000000000000D+00 -.810845850495D-05 0.501874201887D-06 0.000000000000D+00  6 21 2 25 24 1 21 4 0.22168639D-02 0.43262412D+00 0.23068526D+05 0.23068526D+05 0.23068526D+05 0.12270593D+01  1  2  5  2  6  2        2 -.519515870600D+00 0.100000000000D+01
0.621257289661D-04 0.000000000000D+00 0.803966234017D-05 0.501874201887D-06 0.000000000000D+00  6 21 2 25 24 1 21 4 0.22168639D-02 0.37960876D+00 0.23068526D+05 0.23068526D+05 0.23068526D+05 0.12270593D+01  1  2  6  2  6  2        2 0.809623878361D+00 0.100000000000D+01
0.815940943237D-06 0.000000000000D+00 0.000000000000D+00 0.497490917494D-06 0.000000000000D+00  6 21 21 25 24 1 -2 4 0.22168639D-02 0.43340026D+00 0.25880569D+05 0.25880569D+05 0.25880569D+05 0.12216891D+01  1  2 12 10  6  2        2 0.106066090303D-02 0.100000000000D+01
-.121008576226D-05 0.000000000000D+00 -.165251196257D-06 0.501874201887D-06 0.000000000000D+00  6 21 21 25 24 1 -2 4 0.22168639D-02 0.43262412D+00 0.23068526D+05 0.23068526D+05 0.23068526D+05 0.12270593D+01  1  2  5 10  6  2        2 -.164437933379D-02 0.100000000000D+01
  </mgrwgt>
  </event>
  <event>
  5     66 -.42910585E-03 0.13867349E+03 0.75467711E-02 0.10245498E+00
       21 -1    0    0  501  502 0.00000000E+00 0.00000000E+00 0.21231792E+02 0.21245034E+02 0.75000000E+00 0.0000E+00 0.9000E+01
        2 -1    0    0  502    0 0.00000000E+00 0.00000000E+00 -.27073568E+04 0.27073568E+04 0.32000000E+00 0.0000E+00 0.9000E+01
       25  1    1    2    0    0 0.52590881E+02 0.44788559E+02 -.53103730E+03 0.54990675E+03 0.12500000E+03 0.0000E+00 0.9000E+01
       24  1    1    2    0    0 0.26122542E+02 0.69380087E+02 -.16858703E+04 0.16894146E+04 0.80419002E+02 0.0000E+00 0.9000E+01
        1  1    1    2  501    0 -.78713423E+02 -.11416865E+03 -.46921737E+03 0.48928042E+03 0.32000000E+00 0.0000E+00 0.9000E+01
#aMCatNLO 1  0  0  1  2 0.10104491D+02 0.00000000D+00  -5  6  0 0.00000000D+00 0.00000000D+00 0.00000000D+00 0.00000000D+00 0.00000000D+00
  <mgrwgt>
 -.1564628791D+00   12    2    0
 0.239791840817221D+03 0.000000000000000D+00 0.000000000000000D+00 0.239791840817221D+03
 0.239791840817221D+03 0.000000000000000D+00 0.000000000000000D+00 -.239791840817221D+03
 0.154392253398848D+03 0.525909346281401D+02 0.447886363578989D+02 0.586527029020211D+02
 0.169483701302525D+03 0.261226008288076D+02 0.693801717857092D+02 -.129466252520714D+03
 0.155707726933069D+03 -.787135354569478D+02 -.114168808143608D+03 0.708135496186929D+02
 0.000000000000000D+00 -.000000000000000D+00 0.000000000000000D+00 0.000000000000000D+00
 0.390840592428874D+04 0.000000000000000D+00 0.000000000000000D+00 0.390840592428874D+04
 0.316541161514727D+03 0.000000000000000D+00 0.000000000000000D+00 -.316541161514727D+03
 0.194165513845839D+03 0.126113528369336D+03 -.522540445472172D+02 0.586527029020211D+02
 0.185137443379010D+03 0.100924165454838D+03 -.293506264333966D+02 -.129466252520714D+03
 0.233566956444945D+03 0.339762971941934D+01 -.222547568950203D+03 0.708135496186929D+02
 0.361207717213368D+04 -.230435323543593D+03 0.304152239930817D+03 0.359186476277402D+04
0.387270300148D-05 0.000000000000D+00 0.000000000000D+00 0.145095539185D-06 0.000000000000D+00  6 21 2 25 24 1 21 2 0.32674496D-02 0.41651744D+00 0.38194338D+05 0.38194338D+05 0.38194338D+05 0.12040428D+01  1  2  2  1  6  1       21 0.124284205645D-01 0.100000000000D+01
-.282864553147D-06 0.204368152086D-06 -.781787158479D-08 0.145095539185D-06 0.000000000000D+00  6 21 2 25 24 1 21 4 0.32674496D-02 0.41651744D+00 0.38194338D+05 0.38194338D+05 0.38194338D+05 0.12040428D+01  1  2  3  1  6  1       21 -.131602494456D-02 0.100000000000D+01
0.503605096986D-06 0.000000000000D+00 0.000000000000D+00 0.145095539185D-06 0.000000000000D+00  6 21 2 25 24 1 21 4 0.32674496D-02 0.41651744D+00 0.38194338D+05 0.38194338D+05 0.38194338D+05 0.12040428D+01  1  2 15  1  6  1       21 0.234301846050D-02 0.100000000000D+01
-.856818758136D-02 0.000000000000D+00 -.637615155990D-03 0.145095539185D-06 0.000000000000D+00  6 21 2 25 24 1 21 4 0.76641058D-01 0.41651744D+00 0.38194338D+05 0.38194338D+05 0.38194338D+05 0.12040428D+01  1  2  5  1  6  1       21 -.109730202706D+00 0.100000000000D+01
-.379915166408D-02 0.000000000000D+00 -.282579532720D-03 0.145095539185D-06 0.000000000000D+00  6 -1 2 25 24 1 -1 4 0.76641058D-01 0.41651744D+00 0.38194338D+05 0.38194338D+05 0.38194338D+05 0.12040428D+01  1  2  5  4  6  1       21 -.534933080750D-02 0.100000000000D+01
-.379915166408D-02 0.000000000000D+00 -.282579532720D-03 0.145095539185D-06 0.000000000000D+00  6 1 2 25 24 1 1 4 0.76641058D-01 0.41651744D+00 0.38194338D+05 0.38194338D+05 0.38194338D+05 0.12040428D+01  1  2  5  5  6  1       21 -.161218713661D-01 0.100000000000D+01
-.379915166408D-02 0.000000000000D+00 -.282579532720D-03 0.145095539185D-06 0.000000000000D+00  6 -2 2 25 24 1 -2 4 0.76641058D-01 0.41651744D+00 0.38194338D+05 0.38194338D+05 0.38194338D+05 0.12040428D+01  1  2  5  6  6  1       21 -.411518438866D-02 0.100000000000D+01
-.379915166408D-02 0.000000000000D+00 -.282579532720D-03 0.145095539185D-06 0.000000000000D+00  6 2 2 25 24 1 2 4 0.76641058D-01 0.41651744D+00 0.38194338D+05 0.38194338D+05 0.38194338D+05 0.12040428D+01  1  2  5  7  6  1       21 -.251668503567D-01 0.100000000000D+01
-.379915166408D-02 0.000000000000D+00 -.282579532720D-03 0.145095539185D-06 0.000000000000D+00  6 -3 2 25 24 1 -3 4 0.76641058D-01 0.41651744D+00 0.38194338D+05 0.38194338D+05 0.38194338D+05 0.12040428D+01  1  2  5  8  6  1       21 -.260138982526D-02 0.100000000000D+01
-.379915166408D-02 0.000000000000D+00 -.282579532720D-03 0.145095539185D-06 0.000000000000D+00  6 -4 2 25 24 1 -4 4 0.76641058D-01 0.41651744D+00 0.38194338D+05 0.38194338D+05 0.38194338D+05 0.12040428D+01  1  2  5  8  6  1       21 -.211450643873D-02 0.100000000000D+01
-.379915166408D-02 0.000000000000D+00 -.282579532720D-03 0.145095539185D-06 0.000000000000D+00  6 3 2 25 24 1 3 4 0.76641058D-01 0.41651744D+00 0.38194338D+05 0.38194338D+05 0.38194338D+05 0.12040428D+01  1  2  5  9  6  1       21 -.260445080440D-02 0.100000000000D+01
-.379915166408D-02 0.000000000000D+00 -.282579532720D-03 0.145095539185D-06 0.000000000000D+00  6 4 2 25 24 1 4 4 0.76641058D-01 0.41651744D+00 0.38194338D+05 0.38194338D+05 0.38194338D+05 0.12040428D+01  1  2  5  9  6  1       21 -.211450643873D-02 0.100000000000D+01
  </mgrwgt>
  </event>
  <event>
  5     66 0.42910585E-03 0.94759123E+02 0.75467711E-02 0.97931665E-01
       21 -1    0    0  501  502 0.00000000E+00 0.00000000E+00 0.29837460E+03 0.29837554E+03 0.75000000E+00 0.0000E+00 0.9000E+01
        4 -1    0    0  502    0 0.00000000E+00 0.00000000E+00 -.89810719E+03 0.89810853E+03 0.15500000E+01 0.0000E+00 0.9000E+01
       25  1    1    2    0    0 0.39622805E+03 0.13022713E+03 -.35423033E+03 0.56130197E+03 0.12500000E+03 0.0000E+00 0.9000E+01
       24  1    1    2    0    0 -.47622273E+03 -.79434262E+02 -.18785750E+03 0.52426668E+03 0.80419002E+02 0.0000E+00 0.9000E+01
        3  1    1    2  501    0 0.79994682E+02 -.50792866E+02 -.57644761E+02 0.11091543E+03 0.50000000E+00 0.0000E+00 0.9000E+01
#aMCatNLO 1  0  0  1  2 0.26223558D+03 0.00000000D+00  -5  6  0 0.00000000D+00 0.00000000D+00 0.00000000D+00 0.00000000D+00 0.00000000D+00
  <mgrwgt>
 0.1516920582D-01   14    2    0
 0.517661798185316D+03 0.000000000000000D+00 0.000000000000000D+00 0.517661798185316D+03
 0.517661798185316D+03 0.000000000000000D+00 0.000000000000000D+00 -.517661798185316D+03
 0.443479735567653D+03 0.396227569938839D+03 0.130227430695358D+03 -.842247289933520D+02
 0.497055159072580D+03 -.476223262773849D+03 -.794339223764179D+02 0.865925584286809D+02
 0.947887017303974D+02 0.799956928350096D+02 -.507935083189401D+02 -.236782943532891D+01
 0.000000000000000D+00 0.000000000000000D+00 -.000000000000000D+00 0.000000000000000D+00
 0.676715266861697D+03 0.000000000000000D+00 0.000000000000000D+00 0.676715266861697D+03
 0.654479356765204D+03 0.000000000000000D+00 0.000000000000000D+00 -.654479356765204D+03
 0.378961668394284D+03 0.302404094882758D+03 0.171595176320069D+03 -.842247289933520D+02
 0.615004557790247D+03 -.603086169484685D+03 -.234987478277413D+02 0.865925584286809D+02
 0.740517739670823D+02 0.607345028174013D+02 -.423010493836750D+02 -.236782943532891D+01
 0.263176623475287D+03 0.239947571784526D+03 -.105795379108653D+03 0.222359100964931D+02
0.721741649278D-03 0.000000000000D+00 0.000000000000D+00 0.239449984723D-07 0.000000000000D+00  6 21 4 25 24 3 21 2 0.45903960D-01 0.13817051D+00 0.25990719D+06 0.25990719D+06 0.25990719D+06 0.11272859D+01  1  2  2  1  6  1       21 0.645760670824D-02 0.100000000000D+01
0.220251545033D-04 0.380873532234D-04 -.145698844691D-05 0.239449984723D-07 0.000000000000D+00  6 21 4 25 24 3 21 4 0.45903960D-01 0.13817051D+00 0.25990719D+06 0.25990719D+06 0.25990719D+06 0.11272859D+01  1  2  3  1  6  1       21 0.250424554918D-03 0.100000000000D+01
0.759896636225D-04 0.000000000000D+00 0.000000000000D+00 0.239449984723D-07 0.000000000000D+00  6 21 4 25 24 3 21 4 0.45903960D-01 0.13817051D+00 0.25990719D+06 0.25990719D+06 0.25990719D+06 0.11272859D+01  1  2 15  1  6  1       21 0.863997466542D-03 0.100000000000D+01
-.313947926714D-05 0.000000000000D+00 0.000000000000D+00 0.239449984723D-07 0.000000000000D+00  6 21 4 25 24 3 21 4 0.45903960D-01 0.13817051D+00 0.25990719D+06 0.25990719D+06 0.25990719D+06 0.11272859D+01  1  2  4  1  6  1       21 -.356956723291D-04 0.100000000000D+01
-.148874843883D-02 0.000000000000D+00 -.860547027039D-03 0.239449984723D-07 0.000000000000D+00  6 21 4 25 24 3 21 4 0.74427164D-01 0.13817051D+00 0.25990719D+06 0.25990719D+06 0.25990719D+06 0.11272859D+01  1  2  5  1  6  1       21 -.587369273040D-02 0.100000000000D+01
0.127278402802D-02 0.000000000000D+00 0.561360397613D-03 0.239449984723D-07 0.000000000000D+00  6 21 4 25 24 3 21 4 0.45903960D-01 0.13817051D+00 0.25990719D+06 0.25990719D+06 0.25990719D+06 0.11272859D+01  1  2  6  1  6  1       21 0.144714705032D-01 0.100000000000D+01
-.188667067396D-03 0.000000000000D+00 -.144136180977D-03 0.239449984723D-07 0.000000000000D+00  6 -3 4 25 24 3 -3 4 0.74427164D-01 0.13817051D+00 0.25990719D+06 0.25990719D+06 0.25990719D+06 0.11272859D+01  1  2  5  4  6  1       21 -.435603723024D-04 0.100000000000D+01
-.188667067396D-03 0.000000000000D+00 -.144136180977D-03 0.239449984723D-07 0.000000000000D+00  6 3 4 25 24 3 3 4 0.74427164D-01 0.13817051D+00 0.25990719D+06 0.25990719D+06 0.25990719D+06 0.11272859D+01  1  2  5  5  6  1       21 -.436098879912D-04 0.100000000000D+01
-.188667067396D-03 0.000000000000D+00 -.144136180977D-03 0.239449984723D-07 0.000000000000D+00  6 -4 4 25 24 3 -4 4 0.74427164D-01 0.13817051D+00 0.25990719D+06 0.25990719D+06 0.25990719D+06 0.11272859D+01  1  2  5  6  6  1       21 -.360150398269D-04 0.100000000000D+01
-.188667067396D-03 0.000000000000D+00 -.144136180977D-03 0.239449984723D-07 0.000000000000D+00  6 4 4 25 24 3 4 4 0.74427164D-01 0.13817051D+00 0.25990719D+06 0.25990719D+06 0.25990719D+06 0.11272859D+01  1  2  5  7  6  1       21 -.360150398269D-04 0.100000000000D+01
-.188667067396D-03 0.000000000000D+00 -.144136180977D-03 0.239449984723D-07 0.000000000000D+00  6 -1 4 25 24 3 -1 4 0.74427164D-01 0.13817051D+00 0.25990719D+06 0.25990719D+06 0.25990719D+06 0.11272859D+01  1  2  5  8  6  1       21 -.858803145169D-04 0.100000000000D+01
-.188667067396D-03 0.000000000000D+00 -.144136180977D-03 0.239449984723D-07 0.000000000000D+00  6 -2 4 25 24 3 -2 4 0.74427164D-01 0.13817051D+00 0.25990719D+06 0.25990719D+06 0.25990719D+06 0.11272859D+01  1  2  5  8  6  1       21 -.668637706721D-04 0.100000000000D+01
-.188667067396D-03 0.000000000000D+00 -.144136180977D-03 0.239449984723D-07 0.000000000000D+00  6 1 4 25 24 3 1 4 0.74427164D-01 0.13817051D+00 0.25990719D+06 0.25990719D+06 0.25990719D+06 0.11272859D+01  1  2  5  9  6  1       21 -.254727583684D-03 0.100000000000D+01
-.188667067396D-03 0.000000000000D+00 -.144136180977D-03 0.239449984723D-07 0.000000000000D+00  6 2 4 25 24 3 2 4 0.74427164D-01 0.13817051D+00 0.25990719D+06 0.25990719D+06 0.25990719D+06 0.11272859D+01  1  2  5  9  6  1       21 -.398232997429D-03 0.100000000000D+01
  </mgrwgt>
  </event>
  <event>
  5     66 -.42910585E-03 0.10530724E+03 0.75467711E-02 0.11619590E+00
       21 -1    0    0  501  502 0.00000000E+00 0.00000000E+00 0.17306886E+03 0.17307049E+03 0.75000000E+00 0.0000E+00 0.9000E+01
        2 -1    0    0  502    0 -.00000000E+00 -.00000000E+00 -.12508552E+04 0.12508552E+04 0.32000000E+00 0.0000E+00 0.9000E+01
       25  1    1    2    0    0 0.27919032E+02 -.63581795E+02 -.81055066E+03 0.82306712E+03 0.12500000E+03 0.0000E+00 0.9000E+01
       24  1    1    2    0    0 -.46825809E+02 -.54699846E+02 -.40451351E+03 0.41866828E+03 0.80419002E+02 0.0000E+00 0.9000E+01
        1  1    1    2  501    0 0.18906777E+02 0.11828164E+03 0.13727783E+03 0.18219034E+03 0.32000000E+00 0.0000E+00 0.9000E+01
#aMCatNLO 1  0  0  5  1 0.78781375D+01 0.00000000D+00  -5  6  0 0.00000000D+00 0.00000000D+00 0.00000000D+00 0.00000000D+00 0.00000000D+00
  <mgrwgt>
 -.1795176974D+00    8    2    0
 0.465279782965136D+03 0.000000000000000D+00 0.000000000000000D+00 0.465279782965136D+03
 0.465279782965136D+03 -.000000000000000D+00 -.000000000000000D+00 -.465279782965136D+03
 0.320652298365727D+03 0.279190306697849D+02 -.635818061470336D+02 -.287003097719804D+03
 0.172125913227718D+03 -.468258099325428D+02 -.546998522917232D+02 -.134072307854867D+03
 0.437781354336828D+03 0.189067792627579D+02 0.118281658438757D+03 0.421075405574672D+03
 0.000000000000000D+00 0.000000000000000D+00 0.000000000000000D+00 0.000000000000000D+00
 0.465279782965136D+03 0.000000000000000D+00 0.000000000000000D+00 0.465279782965136D+03
 0.465279782965136D+03 -.000000000000000D+00 -.000000000000000D+00 -.465279782965136D+03
 0.320395535908114D+03 0.279312077585831D+02 -.635056257337547D+02 -.286731900149178D+03
 0.171997760528186D+03 -.468192730965864D+02 -.546589575530093D+02 -.133926725108420D+03
 0.395850802894733D+03 0.225557288545746D+02 0.112327507777745D+03 0.378908469481331D+03
 0.423154665992399D+02 -.366766351657138D+01 0.583707550901882D+01 0.417501557762676D+02
0.313183809193D-05 0.000000000000D+00 0.000000000000D+00 0.408684725502D-05 0.000000000000D+00  6 21 2 25 24 1 21 2 0.26626107D-01 0.19243939D+00 0.34358480D+05 0.34358480D+05 0.34358480D+05 0.12087635D+01  1  2  2  3  6  5        1 0.147471974058D-02 0.100000000000D+01
0.184517586300D-06 0.165271636693D-06 -.632227878506D-08 0.408684725502D-05 0.000000000000D+00  6 21 2 25 24 1 21 4 0.26626107D-01 0.19243939D+00 0.34358480D+05 0.34358480D+05 0.34358480D+05 0.12087635D+01  1  2  3  3  6  5        1 0.126949392438D-03 0.100000000000D+01
0.329250672317D-06 0.000000000000D+00 0.000000000000D+00 0.408684725502D-05 0.000000000000D+00  6 21 2 25 24 1 21 4 0.26626107D-01 0.19243939D+00 0.34358480D+05 0.34358480D+05 0.34358480D+05 0.12087635D+01  1  2 15  3  6  5        1 0.226526769880D-03 0.100000000000D+01
0.206084633568D-03 0.000000000000D+00 0.000000000000D+00 0.408419433395D-05 0.000000000000D+00  6 21 2 25 24 1 21 4 0.26626107D-01 0.19243939D+00 0.34660393D+05 0.34660393D+05 0.34660393D+05 0.12083711D+01  1  2 12  3  6  5        1 0.141547636827D+00 0.100000000000D+01
-.499458868630D-03 0.000000000000D+00 0.000000000000D+00 0.408684725502D-05 0.000000000000D+00  6 21 2 25 24 1 21 4 0.26626107D-01 0.19243939D+00 0.34358480D+05 0.34358480D+05 0.34358480D+05 0.12087635D+01  1  2  4  3  6  5        1 -.343631201730D+00 0.100000000000D+01
-.263269620728D-03 0.000000000000D+00 0.000000000000D+00 0.408684725502D-05 0.000000000000D+00  6 21 2 25 24 1 21 4 0.26626107D-01 0.19243939D+00 0.34358480D+05 0.34358480D+05 0.34358480D+05 0.12087635D+01  1  2  5  3  6  5        1 -.181131344004D+00 0.100000000000D+01
0.289940503539D-03 0.000000000000D+00 -.000000000000D+00 0.408684725502D-05 0.000000000000D+00  6 21 2 25 24 1 21 4 0.26626107D-01 0.19243939D+00 0.34358480D+05 0.34358480D+05 0.34358480D+05 0.12087635D+01  1  2  6  3  6  5        1 0.199481098283D+00 0.100000000000D+01
0.347666044702D-05 0.000000000000D+00 0.000000000000D+00 0.408684725502D-05 0.208640377842D-05  6 21 2 25 24 1 21 4 0.26626107D-01 0.19243939D+00 0.34660393D+05 0.34660393D+05 0.34660393D+05 0.12083711D+01  1  2 11  3  6  5        1 0.238791734155D-02 0.100000000000D+01
  </mgrwgt>
  </event>
  <event>
  5     66 -.42910585E-03 0.66694977E+02 0.75467711E-02 0.11459859E+00
       21 -1    0    0  501  502 0.00000000E+00 0.00000000E+00 0.15544665E+03 0.15544846E+03 0.75000000E+00 0.0000E+00 0.9000E+01
        2 -1    0    0  502    0 -.00000000E+00 -.00000000E+00 -.42348645E+03 0.42348657E+03 0.32000000E+00 0.0000E+00 0.9000E+01
       25  1    1    2    0    0 0.11817251E+03 -.55068678E+02 -.23498867E+03 0.29638147E+03 0.12500000E+03 0.0000E+00 0.9000E+01
       24  1    1    2    0    0 -.41252977E+02 -.46057502E+02 -.96962897E+02 0.14032862E+03 0.80419002E+02 0.0000E+00 0.9000E+01
        1  1    1    2  501    0 -.76919530E+02 0.10112618E+03 0.63911763E+02 0.14222494E+03 0.32000000E+00 0.0000E+00 0.9000E+01
#aMCatNLO 1  0  0  5  1 0.35914973D+01 0.00000000D+00  -5  6  0 0.00000000D+00 0.00000000D+00 0.00000000D+00 0.00000000D+00 0.00000000D+00
  <mgrwgt>
 -.3602582928D-01    8    2    0
 0.256573786645434D+03 0.000000000000000D+00 0.000000000000000D+00 0.256573786645434D+03
 0.256573786645434D+03 -.000000000000000D+00 -.000000000000000D+00 -.256573786645434D+03
 0.211633739787791D+03 0.118172550321891D+03 -.550687351379202D+02 -.110301960895063D+03
 0.107671259915071D+03 -.412529551009109D+02 -.460575307678910D+02 -.360940689357012D+02
 0.193842573588008D+03 -.769195952209805D+02 0.101126265905811D+03 0.146396029830764D+03
 0.000000000000000D+00 0.000000000000000D+00 0.000000000000000D+00 0.000000000000000D+00
 0.256573786645434D+03 0.000000000000000D+00 0.000000000000000D+00 0.256573786645434D+03
 0.256573786645434D+03 -.000000000000000D+00 -.000000000000000D+00 -.256573786645434D+03
 0.211587920960551D+03 0.118148336653742D+03 -.550369014050885D+02 -.110255876605689D+03
 0.107661195590648D+03 -.412652748593328D+02 -.460413339696307D+02 -.360706215460438D+02
 0.662560539015863D+02 -.281476162352791D+02 0.364669863401554D+02 0.476207442838548D+02
 0.127642402838083D+03 -.487354455591306D+02 0.646112490345637D+02 0.987057538678781D+02
0.611111292548D-06 0.000000000000D+00 0.000000000000D+00 0.411832512798D-06 0.000000000000D+00  6 21 2 25 24 1 21 2 0.23915017D-01 0.65151910D-01 0.41843439D+05 0.41843439D+05 0.41843439D+05 0.12000183D+01  1  2  2  3  6  5        1 0.135414197745D-02 0.100000000000D+01
-.182332407881D-07 0.322492289053D-07 -.123365763069D-08 0.411832512798D-06 0.000000000000D+00  6 21 2 25 24 1 21 4 0.23915017D-01 0.65151910D-01 0.41843439D+05 0.41843439D+05 0.41843439D+05 0.12000183D+01  1  2  3  3  6  5        1 -.581813063613D-04 0.100000000000D+01
0.538992309994D-07 0.000000000000D+00 0.000000000000D+00 0.411832512798D-06 0.000000000000D+00  6 21 2 25 24 1 21 4 0.23915017D-01 0.65151910D-01 0.41843439D+05 0.41843439D+05 0.41843439D+05 0.12000183D+01  1  2 15  3  6  5        1 0.171989593504D-03 0.100000000000D+01
0.151580169586D-05 0.000000000000D+00 0.000000000000D+00 0.411845238454D-06 0.000000000000D+00  6 21 2 25 24 1 21 4 0.23915017D-01 0.65151910D-01 0.41825763D+05 0.41825763D+05 0.41825763D+05 0.12000368D+01  1  2 12  3  6  5        1 0.483718090981D-02 0.100000000000D+01
-.697888326177D-04 0.000000000000D+00 0.000000000000D+00 0.411832512798D-06 0.000000000000D+00  6 21 2 25 24 1 21 4 0.23915017D-01 0.65151910D-01 0.41843439D+05 0.41843439D+05 0.41843439D+05 0.12000183D+01  1  2  4  3  6  5        1 -.222692471312D+00 0.100000000000D+01
-.295081065598D-04 0.000000000000D+00 0.000000000000D+00 0.411832512798D-06 0.000000000000D+00  6 21 2 25 24 1 21 4 0.23915017D-01 0.65151910D-01 0.41843439D+05 0.41843439D+05 0.41843439D+05 0.12000183D+01  1  2  5  3  6  5        1 -.941588063168D-01 0.100000000000D+01
0.528519534040D-04 0.000000000000D+00 -.000000000000D+00 0.411832512798D-06 0.000000000000D+00  6 21 2 25 24 1 21 4 0.23915017D-01 0.65151910D-01 0.41843439D+05 0.41843439D+05 0.41843439D+05 0.12000183D+01  1  2  6  3  6  5        1 0.168647786124D+00 0.100000000000D+01
0.331767128619D-04 0.000000000000D+00 0.000000000000D+00 0.411832512798D-06 0.554171810701D-07  6 21 2 25 24 1 21 4 0.23915017D-01 0.65151910D-01 0.41825763D+05 0.41825763D+05 0.41825763D+05 0.12000368D+01  1  2 11  3  6  5        1 0.105872531047D+00 0.100000000000D+01
  </mgrwgt>
  </event>
  <event>
  5     66 -.42910585E-03 0.55410256E+02 0.75467711E-02 0.12153989E+00
       21 -1    0    0  501  502 0.00000000E+00 0.00000000E+00 0.14482495E+02 0.14501902E+02 0.75000000E+00 0.0000E+00 0.9000E+01
        2 -1    0    0  502    0 -.00000000E+00 -.00000000E+00 -.13344151E+04 0.13344151E+04 0.32000000E+00 0.0000E+00 0.9000E+01
       25  1    1    2    0    0 -.45378938E+02 0.25620565E+02 -.64248701E+03 0.65660507E+03 0.12500000E+03 0.0000E+00 0.9000E+01
       24  1    1    2    0    0 -.10017987E+02 -.26803343E+02 -.35334782E+03 0.36351160E+03 0.80419002E+02 0.0000E+00 0.9000E+01
        1  1    1    2  501    0 0.55396925E+02 0.11827775E+01 -.32409776E+03 0.32880036E+03 0.32000000E+00 0.0000E+00 0.9000E+01
#aMCatNLO 1  0  0  5  2 0.91279470D+01 0.00000000D+00  -5  6  0 0.00000000D+00 0.00000000D+00 0.00000000D+00 0.00000000D+00 0.00000000D+00
  <mgrwgt>
 -.2807683054D+00    5    2    0
 0.139063923539750D+03 0.000000000000000D+00 0.000000000000000D+00 0.139063923539750D+03
 0.139063923539750D+03 -.000000000000000D+00 -.000000000000000D+00 -.139063923539750D+03
 0.135427848542777D+03 -.453793693791533D+02 0.256205558242680D+02 0.459883810994590D-01
 0.861175284750486D+02 -.100182612390182D+02 -.268033484022385D+02 0.114117357336770D+02
 0.565824700616737D+02 0.553976306181714D+02 0.118279257797055D+01 -.114577241147764D+02
 0.000000000000000D+00 0.000000000000000D+00 -.000000000000000D+00 0.000000000000000D+00
 0.139063923539750D+03 0.000000000000000D+00 0.000000000000000D+00 0.139063923539750D+03
 0.139063923539750D+03 -.000000000000000D+00 -.000000000000000D+00 -.139063923539750D+03
 0.132277005537109D+03 -.346300433375703D+02 0.258500642512222D+02 -.217726215921950D+01
 0.853659240979346D+02 -.313257532652717D+01 -.266563323999177D+02 0.998759017643999D+01
 0.479855168318459D+02 0.468880740174399D+02 0.888097189093288D+01 -.502460733061844D+01
 0.124994006126099D+02 -.912545535334243D+01 -.807470374223744D+01 -.278572068660204D+01
0.128832202075D-04 0.000000000000D+00 0.000000000000D+00 0.364736853870D-06 0.000000000000D+00  6 21 2 25 24 1 21 2 0.22295720D-02 0.20529612D+00 0.19071081D+05 0.19071081D+05 0.19071081D+05 0.12361064D+01  1  2  2  3  6  5        1 0.435190053572D+00 0.100000000000D+01
-.885595628514D-06 0.679866208617D-06 -.260075097786D-07 0.364736853870D-06 0.000000000000D+00  6 21 2 25 24 1 21 4 0.22295720D-02 0.20529612D+00 0.19071081D+05 0.19071081D+05 0.19071081D+05 0.12361064D+01  1  2  3  3  6  5        1 -.457090017425D-01 0.100000000000D+01
0.160168316318D-05 0.000000000000D+00 0.000000000000D+00 0.364736853870D-06 0.000000000000D+00  6 21 2 25 24 1 21 4 0.22295720D-02 0.20529612D+00 0.19071081D+05 0.19071081D+05 0.19071081D+05 0.12361064D+01  1  2 15  3  6  5        1 0.826690378086D-01 0.100000000000D+01
-.145892284282D-04 0.000000000000D+00 0.000000000000D+00 0.364736853870D-06 0.000000000000D+00  6 21 2 25 24 1 21 4 0.22295720D-02 0.20529612D+00 0.19071081D+05 0.19071081D+05 0.19071081D+05 0.12361064D+01  1  2  4  3  6  5        1 -.753006277556D+00 0.100000000000D+01
0.170404559249D-08 0.000000000000D+00 0.000000000000D+00 0.364736853870D-06 0.319718481968D-07  6 21 2 25 24 1 21 4 0.22295720D-02 0.20529612D+00 0.19174700D+05 0.19174700D+05 0.19174700D+05 0.12358460D+01  1  2 11  3  6  5        1 0.878825378776D-04 0.100000000000D+01
  </mgrwgt>
  </event>
  <event>
  6     66 -.42910585E-03 0.10518485E+03 0.75467711E-02 0.11344558E+00
       21 -1    0    0  503  502 0.00000000E+00 0.00000000E+00 0.17841230E+03 0.17841388E+03 0.75000000E+00 0.0000E+00 0.9000E+01
        2 -1    0    0  502    0 0.00000000E+00 0.00000000E+00 -.15468437E+04 0.15468437E+04 0.32000000E+00 0.0000E+00 0.9000E+01
       25  1    1    2    0    0 0.57358049E+02 0.91254058E+02 -.71390672E+03 0.73273806E+03 0.12500000E+03 0.0000E+00 0.9000E+01
       24  1    1    2    0    0 0.38846121E+02 -.11748557E+03 -.77475221E+03 0.78868249E+03 0.80419002E+02 0.0000E+00 0.9000E+01
        1  1    1    2  501    0 -.10963801E+03 0.23215474E+02 0.14024996E+03 0.17952606E+03 0.32000000E+00 0.0000E+00 0.9000E+01
       21  1    1    2  503  501 0.13433845E+02 0.30160325E+01 -.20022388E+02 0.24310968E+02 0.75000000E+00 0.0000E+00 0.9000E+01
#aMCatNLO 2  0  0  1  2 0.13768248D+02 0.00000000D+00  -5  6  0 0.00000000D+00 0.00000000D+00 0.00000000D+00 0.00000000D+00 0.00000000D+00
  <mgrwgt>
 -.6896274675D-01    3    2    0
 0.518368365052312D+03 0.000000000000000D+00 0.000000000000000D+00 0.518368365052312D+03
 0.518368365052312D+03 0.000000000000000D+00 0.000000000000000D+00 -.518368365052312D+03
 0.274665554940720D+03 0.609102727473909D+02 0.920515653389084D+02 -.218248974942355D+03
 0.286467643296362D+03 0.425567483193379D+02 -.116652495501591D+03 -.245311257726052D+03
 0.475603531867541D+03 -.103467021066729D+03 0.246009301626824D+02 0.463560232668406D+03
 0.000000000000000D+00 0.000000000000000D+00 0.000000000000000D+00 -.000000000000000D+00
 0.524710367779847D+03 0.000000000000000D+00 0.000000000000000D+00 0.524710367779847D+03
 0.525940910252099D+03 0.000000000000000D+00 0.000000000000000D+00 -.525940910252099D+03
 0.273632718156836D+03 0.573580550144074D+02 0.912540569370703D+02 -.218248974942355D+03
 0.286280822235307D+03 0.388461270104163D+02 -.117485567090201D+03 -.245311257726052D+03
 0.476914609393426D+03 -.109638026883072D+03 0.232154776492770D+02 0.463560232668406D+03
 0.138231282463771D+02 0.134338448582478D+02 0.301603250385334D+01 -.123054247225251D+01
-.848730754962D-04 0.000000000000D+00 0.000000000000D+00 0.279185109081D-05 0.000000000000D+00  6 21 2 25 24 1 21 4 0.27643066D-01 0.23454513D+00 0.48063308D+05 0.48063308D+05 0.48063308D+05 0.11939846D+01  1  2 13  1  6  1       21 -.361715780686D-01 0.100000000000D+01
-.308227681824D-03 0.000000000000D+00 0.000000000000D+00 0.280832751398D-05 0.000000000000D+00  6 21 2 25 24 1 21 4 0.27115889D-01 0.23454513D+00 0.44320758D+05 0.44320758D+05 0.44320758D+05 0.11975026D+01  1  2  8  1  6  1       21 -.138586187868D+00 0.100000000000D+01
0.251591078857D-03 0.000000000000D+00 0.000000000000D+00 0.280832751398D-05 0.114922598878D-06  6 21 2 25 24 1 21 4 0.27447639D-01 0.23797147D+00 0.48063308D+05 0.48063308D+05 0.48063308D+05 0.11939846D+01  1  2  1  1  6  1       21 0.105795019190D+00 0.100000000000D+01
  </mgrwgt>
  </event>
  <event>
  5     66 0.42910585E-03 0.57322731E+03 0.75467711E-02 0.86733242E-01
       21 -1    0    0  501  502 0.00000000E+00 0.00000000E+00 0.77655039E+03 0.77655076E+03 0.75000000E+00 0.0000E+00 0.9000E+01
        2 -1    0    0  502    0 0.00000000E+00 0.00000000E+00 -.27982102E+04 0.27982102E+04 0.32000000E+00 0.0000E+00 0.9000E+01
       25  1    1    2    0    0 -.35565275E+03 -.32880439E+03 -.18387394E+04 0.19055678E+04 0.12500000E+03 0.0000E+00 0.9000E+01
       24  1    1    2    0    0 -.26104572E+02 -.98806282E+02 -.80954872E+03 0.81992712E+03 0.80419002E+02 0.0000E+00 0.9000E+01
        1  1    1    2  501    0 0.38175733E+03 0.42761067E+03 0.62662834E+03 0.84926599E+03 0.32000000E+00 0.0000E+00 0.9000E+01
#aMCatNLO 1  0  0  1  5 0.40693084D+01 0.00000000D+00  -5  6  0 0.00000000D+00 0.00000000D+00 0.00000000D+00 0.00000000D+00 0.00000000D+00
  <mgrwgt>
 0.3365156034D-02    3    2    0
 0.147409358660940D+04 0.000000000000000D+00 0.000000000000000D+00 0.147409358660940D+04
 0.147409358660940D+04 0.000000000000000D+00 0.000000000000000D+00 -.147409358660940D+04
 0.104967692827820D+04 -.355652757415938D+03 -.328804393345655D+03 -.922819289362001D+03
 0.439053321082869D+03 -.261045732937902D+02 -.988062831489201D+02 -.419352444207699D+03
 0.145945692385773D+04 0.381757330709728D+03 0.427610676494576D+03 0.134217173356970D+04
 0.000000000000000D+00 -.000000000000000D+00 0.000000000000000D+00 -.000000000000000D+00
 0.224892699510944D+04 0.000000000000000D+00 0.000000000000000D+00 0.224892699510944D+04
 0.295865182802198D+04 0.000000000000000D+00 0.000000000000000D+00 -.295865182802198D+04
 0.125014515171775D+04 -.186145548440629D+02 -.833844084882041D+03 -.922819289362001D+03
 0.543266083919562D+03 0.117854026588022D+03 -.314523096031031D+03 -.419352444207699D+03
 0.159654949929930D+04 0.829614110965862D+03 -.243486689996992D+03 0.134217173356970D+04
 0.181761808819480D+04 -.928853582709821D+03 0.139185387091006D+04 -.709724832912536D+03
0.158990684087D-02 0.000000000000D+00 0.000000000000D+00 0.790843612738D-06 0.000000000000D+00  6 21 2 25 24 1 21 2 0.11946932D+00 0.43049390D+00 0.36210132D+06 0.36210132D+06 0.36210132D+06 0.11154797D+01  1  2  2  1  6  1       21 0.286346918074D-02 0.100000000000D+01
0.127467887568D-04 0.839016890612D-04 -.320956383924D-05 0.790843612738D-06 0.000000000000D+00  6 21 2 25 24 1 21 4 0.11946932D+00 0.43049390D+00 0.36210132D+06 0.36210132D+06 0.36210132D+06 0.11154797D+01  1  2  3  1  6  1       21 0.285657066773D-04 0.100000000000D+01
0.211119415866D-03 0.000000000000D+00 0.000000000000D+00 0.790843612738D-06 0.000000000000D+00  6 21 2 25 24 1 21 4 0.11946932D+00 0.43049390D+00 0.36210132D+06 0.36210132D+06 0.36210132D+06 0.11154797D+01  1  2 15  1  6  1       21 0.473121146241D-03 0.100000000000D+01
  </mgrwgt>
  </event>
  <event>
  5     66 0.42910585E-03 0.43693868E+02 0.75467711E-02 0.11232154E+00
       21 -1    0    0  501  502 0.00000000E+00 0.00000000E+00 0.17111213E+02 0.17127642E+02 0.75000000E+00 0.0000E+00 0.9000E+01
        2 -1    0    0  502    0 0.00000000E+00 0.00000000E+00 -.30790048E+04 0.30790048E+04 0.32000000E+00 0.0000E+00 0.9000E+01
       25  1    1    2    0    0 -.16964027E+03 -.15814525E+02 -.16747191E+04 0.16879980E+04 0.12500000E+03 0.0000E+00 0.9000E+01
       24  1    1    2    0    0 0.15303455E+03 -.24600442E+02 -.12877097E+04 0.12994953E+04 0.80419002E+02 0.0000E+00 0.9000E+01
        1  1    1    2  501    0 0.16605719E+02 0.40414968E+02 -.99464757E+02 0.10863913E+03 0.32000000E+00 0.0000E+00 0.9000E+01
#aMCatNLO 1  0  0  1  2 0.40228978D+02 0.00000000D+00  -5  6  0 0.00000000D+00 0.00000000D+00 0.00000000D+00 0.00000000D+00 0.00000000D+00
  <mgrwgt>
 0.1974531978D+00   23    2    0
 0.229588689671298D+03 0.000000000000000D+00 0.000000000000000D+00 0.229588689671298D+03
 0.229588689671298D+03 0.000000000000000D+00 0.000000000000000D+00 -.229588689671298D+03
 0.214412878969684D+03 -.169640356555525D+03 -.158147267450733D+02 -.363307929140221D+02
 0.175487192619704D+03 0.153034487276702D+03 -.246006068890991D+02 -.174297063606846D+02
 0.692773077532071D+02 0.166058692788230D+02 0.404153336341724D+02 0.537604992747067D+02
 0.000000000000000D+00 0.000000000000000D+00 0.000000000000000D+00 0.000000000000000D+00
 0.341489736158302D+03 0.000000000000000D+00 0.000000000000000D+00 0.341489736158302D+03
 0.234112400014953D+03 0.000000000000000D+00 0.000000000000000D+00 -.234112400014953D+03
 0.228255012325739D+03 -.185571973418440D+03 -.268042313757972D+02 -.363307929140221D+02
 0.166346667880139D+03 0.140731887058019D+03 -.330868442394251D+02 -.174297063606846D+02
 0.663345804529843D+02 0.117251975891845D+02 0.370486844989439D+02 0.537604992747067D+02
 0.114665875514393D+03 0.331148887712363D+02 0.228423911162783D+02 0.107377336143349D+03
0.853044981216D-05 0.000000000000D+00 0.000000000000D+00 0.392069481761D-06 0.000000000000D+00  6 21 2 25 24 1 21 2 0.26337594D-02 0.47369431D+00 0.46144582D+05 0.46144582D+05 0.46144582D+05 0.11957486D+01  1  2  2  1  6  1       21 0.233708996060D-01 0.100000000000D+01
0.571159239193D-06 0.450164204151D-06 -.172205204392D-07 0.392069481761D-06 0.000000000000D+00  6 21 2 25 24 1 21 4 0.26337594D-02 0.47369431D+00 0.46144582D+05 0.46144582D+05 0.46144582D+05 0.11957486D+01  1  2  3  1  6  1       21 0.223738362086D-02 0.100000000000D+01
0.897237526200D-06 0.000000000000D+00 0.000000000000D+00 0.392069481761D-06 0.000000000000D+00  6 21 2 25 24 1 21 4 0.26337594D-02 0.47369431D+00 0.46144582D+05 0.46144582D+05 0.46144582D+05 0.11957486D+01  1  2 15  1  6  1       21 0.351471955172D-02 0.100000000000D+01
0.572724611454D-04 0.000000000000D+00 0.000000000000D+00 0.387040323605D-06 0.000000000000D+00  6 21 2 25 24 1 21 4 0.39333467D-02 0.47369431D+00 0.55193262D+05 0.55193262D+05 0.55193262D+05 0.11880548D+01  1  2 12  1  6  1       21 0.111088508852D+00 0.100000000000D+01
-.179552147342D-04 0.000000000000D+00 0.000000000000D+00 0.392069481761D-06 0.000000000000D+00  6 21 2 25 24 1 21 4 0.26337594D-02 0.47369431D+00 0.46144582D+05 0.46144582D+05 0.46144582D+05 0.11957486D+01  1  2  4  1  6  1       21 -.703353821466D-01 0.100000000000D+01
-.122107980548D-03 0.000000000000D+00 -.107621111720D-04 0.392069481761D-06 0.000000000000D+00  6 21 2 25 24 1 21 4 0.40182292D-02 0.47369431D+00 0.46144582D+05 0.46144582D+05 0.46144582D+05 0.11957486D+01  1  2  5  1  6  1       21 -.236746200242D+00 0.100000000000D+01
0.944849976859D-04 0.000000000000D+00 0.771458500495D-05 0.392069481761D-06 0.000000000000D+00  6 21 2 25 24 1 21 4 0.26337594D-02 0.47369431D+00 0.46144582D+05 0.46144582D+05 0.46144582D+05 0.11957486D+01  1  2  6  1  6  1       21 0.370123026527D+00 0.100000000000D+01
0.768440459679D-05 0.000000000000D+00 0.000000000000D+00 0.387040323605D-06 0.000000000000D+00  6 -1 2 25 24 1 -1 4 0.39333467D-02 0.47369431D+00 0.55193262D+05 0.55193262D+05 0.55193262D+05 0.11880548D+01  1  2 12  4  6  1       21 0.828592110370D-03 0.100000000000D+01
-.153062109122D-04 0.000000000000D+00 -.153810029169D-05 0.392069481761D-06 0.000000000000D+00  6 -1 2 25 24 1 -1 4 0.40182292D-02 0.47369431D+00 0.46144582D+05 0.46144582D+05 0.46144582D+05 0.11957486D+01  1  2  5  4  6  1       21 -.165053058910D-02 0.100000000000D+01
0.768440459679D-05 0.000000000000D+00 0.000000000000D+00 0.387040323605D-06 0.000000000000D+00  6 1 2 25 24 1 1 4 0.39333467D-02 0.47369431D+00 0.55193262D+05 0.55193262D+05 0.55193262D+05 0.11880548D+01  1  2 12  5  6  1       21 0.910221559122D-03 0.100000000000D+01
-.153062109122D-04 0.000000000000D+00 -.153810029169D-05 0.392069481761D-06 0.000000000000D+00  6 1 2 25 24 1 1 4 0.40182292D-02 0.47369431D+00 0.46144582D+05 0.46144582D+05 0.46144582D+05 0.11957486D+01  1  2  5  5  6  1       21 -.181708108619D-02 0.100000000000D+01
0.768440459679D-05 0.000000000000D+00 0.000000000000D+00 0.387040323605D-06 0.000000000000D+00  6 -2 2 25 24 1 -2 4 0.39333467D-02 0.47369431D+00 0.55193262D+05 0.55193262D+05 0.55193262D+05 0.11880548D+01  1  2 12  6  6  1       21 0.814124297062D-03 0.100000000000D+01
-.153062109122D-04 0.000000000000D+00 -.153810029169D-05 0.392069481761D-06 0.000000000000D+00  6 -2 2 25 24 1 -2 4 0.40182292D-02 0.47369431D+00 0.46144582D+05 0.46144582D+05 0.46144582D+05 0.11957486D+01  1  2  5  6  6  1       21 -.162101625518D-02 0.100000000000D+01
0.768440459679D-05 0.000000000000D+00 0.000000000000D+00 0.387040323605D-06 0.000000000000D+00  6 2 2 25 24 1 2 4 0.39333467D-02 0.47369431D+00 0.55193262D+05 0.55193262D+05 0.55193262D+05 0.11880548D+01  1  2 12  7  6  1       21 0.965504008024D-03 0.100000000000D+01
-.153062109122D-04 0.000000000000D+00 -.153810029169D-05 0.392069481761D-06 0.000000000000D+00  6 2 2 25 24 1 2 4 0.40182292D-02 0.47369431D+00 0.46144582D+05 0.46144582D+05 0.46144582D+05 0.11957486D+01  1  2  5  7  6  1       21 -.192975995984D-02 0.100000000000D+01
0.768440459679D-05 0.000000000000D+00 0.000000000000D+00 0.387040323605D-06 0.000000000000D+00  6 -3 2 25 24 1 -3 4 0.39333467D-02 0.47369431D+00 0.55193262D+05 0.55193262D+05 0.55193262D+05 0.11880548D+01  1  2 12  8  6  1       21 0.616384129322D-03 0.100000000000D+01
0.768440459679D-05 0.000000000000D+00 0.000000000000D+00 0.387040323605D-06 0.000000000000D+00  6 -4 2 25 24 1 -4 4 0.39333467D-02 0.47369431D+00 0.55193262D+05 0.55193262D+05 0.55193262D+05 0.11880548D+01  1  2 12  8  6  1       21 0.557598777788D-03 0.100000000000D+01
-.153062109122D-04 0.000000000000D+00 -.153810029169D-05 0.392069481761D-06 0.000000000000D+00  6 -3 2 25 24 1 -3 4 0.40182292D-02 0.47369431D+00 0.46144582D+05 0.46144582D+05 0.46144582D+05 0.11957486D+01  1  2  5  8  6  1       21 -.122126790715D-02 0.100000000000D+01
-.153062109122D-04 0.000000000000D+00 -.153810029169D-05 0.392069481761D-06 0.000000000000D+00  6 -4 2 25 24 1 -4 4 0.40182292D-02 0.47369431D+00 0.46144582D+05 0.46144582D+05 0.46144582D+05 0.11957486D+01  1  2  5  8  6  1       21 -.110264655452D-02 0.100000000000D+01
0.768440459679D-05 0.000000000000D+00 0.000000000000D+00 0.387040323605D-06 0.000000000000D+00  6 3 2 25 24 1 3 4 0.39333467D-02 0.47369431D+00 0.55193262D+05 0.55193262D+05 0.55193262D+05 0.11880548D+01  1  2 12  9  6  1       21 0.616334690353D-03 0.100000000000D+01
0.768440459679D-05 0.000000000000D+00 0.000000000000D+00 0.387040323605D-06 0.000000000000D+00  6 4 2 25 24 1 4 4 0.39333467D-02 0.47369431D+00 0.55193262D+05 0.55193262D+05 0.55193262D+05 0.11880548D+01  1  2 12  9  6  1       21 0.557598777788D-03 0.100000000000D+01
-.153062109122D-04 0.000000000000D+00 -.153810029169D-05 0.392069481761D-06 0.000000000000D+00  6 3 2 25 24 1 3 4 0.40182292D-02 0.47369431D+00 0.46144582D+05 0.46144582D+05 0.46144582D+05 0.11957486D+01  1  2  5  9  6  1       21 -.122116744422D-02 0.100000000000D+01
-.153062109122D-04 0.000000000000D+00 -.153810029169D-05 0.392069481761D-06 0.000000000000D+00  6 4 2 25 24 1 4 4 0.40182292D-02 0.47369431D+00 0.46144582D+05 0.46144582D+05 0.46144582D+05 0.11957486D+01  1  2  5  9  6  1       21 -.110264655452D-02 0.100000000000D+01
  </mgrwgt>
  </event>
  <event>
  5     66 -.42910585E-03 0.10077719E+03 0.75467711E-02 0.10861935E+00
       21 -1    0    0  501  502 0.00000000E+00 0.00000000E+00 0.62556304E+02 0.62560800E+02 0.75000000E+00 0.0000E+00 0.9000E+01
        2 -1    0    0  502    0 0.00000000E+00 0.00000000E+00 -.19925716E+04 0.19925716E+04 0.32000000E+00 0.0000E+00 0.9000E+01
       25  1    1    2    0    0 -.10596847E+03 0.77664282E+01 -.12273503E+04 0.12382663E+04 0.12500000E+03 0.0000E+00 0.9000E+01
       24  1    1    2    0    0 -.10412120E+02 0.96244207E+02 -.63395535E+03 0.64632652E+03 0.80419002E+02 0.0000E+00 0.9000E+01
        1  1    1    2  501    0 0.11638059E+03 -.10401063E+03 -.68709675E+02 0.17053966E+03 0.32000000E+00 0.0000E+00 0.9000E+01
#aMCatNLO 1  0  0  1  5 0.12466956D+03 0.00000000D+00  -5  6  0 0.00000000D+00 0.00000000D+00 0.00000000D+00 0.00000000D+00 0.00000000D+00
  <mgrwgt>
 -.2304978280D+00   30    2    0
 0.353061696827913D+03 0.000000000000000D+00 0.000000000000000D+00 0.353061696827913D+03
 0.353061696827913D+03 0.000000000000000D+00 0.000000000000000D+00 -.353061696827913D+03
 0.249243084124978D+03 -.105968487540157D+03 0.776644795975816D+01 -.187636555390123D+03
 0.148335362657234D+03 -.104121331294775D+02 0.962442184506168D+02 -.785162515585578D+02
 0.308544946873614D+03 0.116380620669635D+03 -.104010666410375D+03 0.266152806948680D+03
 0.000000000000000D+00 -.000000000000000D+00 0.000000000000000D+00 0.000000000000000D+00
 0.111500367313619D+05 0.000000000000000D+00 0.000000000000000D+00 0.111500367313619D+05
 0.358882288624879D+03 0.000000000000000D+00 0.000000000000000D+00 -.358882288624879D+03
 0.235532659917199D+03 -.674015389068512D+02 -.100094716138579D+02 -.187636555390123D+03
 0.141847224611849D+03 0.126737103250022D+02 0.856037060150147D+02 -.785162515585578D+02
 0.339664566822800D+03 0.167949749953824D+03 -.127779430264447D+03 0.266152806948680D+03
 0.107918745686349D+05 -.113221921371975D+03 0.521851958632897D+02 0.107911544427370D+05
0.185883681289D-05 0.000000000000D+00 0.000000000000D+00 0.794596430070D-06 0.000000000000D+00  6 21 2 25 24 1 21 2 0.96243946D-02 0.30654983D+00 0.49727590D+05 0.49727590D+05 0.49727590D+05 0.11925168D+01  1  2  2  1  6  1       21 0.220217474669D-02 0.100000000000D+01
-.241687937063D-07 0.980935135835D-07 -.375245597061D-08 0.794596430070D-06 0.000000000000D+00  6 21 2 25 24 1 21 4 0.96243946D-02 0.30654983D+00 0.49727590D+05 0.49727590D+05 0.49727590D+05 0.11925168D+01  1  2  3  1  6  1       21 -.407187560003D-04 0.100000000000D+01
0.180637180031D-06 0.000000000000D+00 0.000000000000D+00 0.794596430070D-06 0.000000000000D+00  6 21 2 25 24 1 21 4 0.96243946D-02 0.30654983D+00 0.49727590D+05 0.49727590D+05 0.49727590D+05 0.11925168D+01  1  2 15  1  6  1       21 0.304331335177D-03 0.100000000000D+01
0.498011682455D-01 0.000000000000D+00 0.000000000000D+00 0.762666461942D-06 0.000000000000D+00  6 21 2 25 24 1 21 4 0.29947346D+00 0.30654983D+00 0.88864537D+05 0.88864537D+05 0.88864537D+05 0.11683112D+01  1  2 12  1  6  1       21 0.266867575947D-01 0.100000000000D+01
0.498157587998D-01 0.000000000000D+00 0.000000000000D+00 0.762666461942D-06 0.000000000000D+00  6 21 2 25 24 1 21 4 0.30187828D+00 0.30654983D+00 0.88864537D+05 0.88864537D+05 0.88864537D+05 0.11683112D+01  1  2 12  1  6  1       21 0.258377476339D-01 0.100000000000D+01
-.211504947135D+00 0.000000000000D+00 -.557341300229D-03 0.794596430070D-06 0.000000000000D+00  6 21 2 25 24 1 21 4 0.30414432D+00 0.30654983D+00 0.49727590D+05 0.49727590D+05 0.49727590D+05 0.11925168D+01  1  2  5  1  6  1       21 -.127622136011D+00 0.100000000000D+01
0.220894247866D-01 0.000000000000D+00 0.000000000000D+00 0.762666461942D-06 0.000000000000D+00  6 -1 2 25 24 1 -1 4 0.29947346D+00 0.30654983D+00 0.88864537D+05 0.88864537D+05 0.88864537D+05 0.11683112D+01  1  2 12  4  6  1       21 0.136671366927D-02 0.100000000000D+01
0.220966118679D-01 0.000000000000D+00 0.000000000000D+00 0.762666461942D-06 0.000000000000D+00  6 -1 2 25 24 1 -1 4 0.30187828D+00 0.30654983D+00 0.88864537D+05 0.88864537D+05 0.88864537D+05 0.11683112D+01  1  2 12  4  6  1       21 0.132054667961D-02 0.100000000000D+01
-.938187289210D-01 0.000000000000D+00 -.247323551450D-03 0.794596430070D-06 0.000000000000D+00  6 -1 2 25 24 1 -1 4 0.30414432D+00 0.30654983D+00 0.49727590D+05 0.49727590D+05 0.49727590D+05 0.11925168D+01  1  2  5  4  6  1       21 -.627127616125D-02 0.100000000000D+01
0.220894247866D-01 0.000000000000D+00 0.000000000000D+00 0.762666461942D-06 0.000000000000D+00  6 1 2 25 24 1 1 4 0.29947346D+00 0.30654983D+00 0.88864537D+05 0.88864537D+05 0.88864537D+05 0.11683112D+01  1  2 12  5  6  1       21 0.152793351567D-01 0.100000000000D+01
0.220966118679D-01 0.000000000000D+00 0.000000000000D+00 0.762666461942D-06 0.000000000000D+00  6 1 2 25 24 1 1 4 0.30187828D+00 0.30654983D+00 0.88864537D+05 0.88864537D+05 0.88864537D+05 0.11683112D+01  1  2 12  5  6  1       21 0.149300790274D-01 0.100000000000D+01
-.938187289210D-01 0.000000000000D+00 -.247323551450D-03 0.794596430070D-06 0.000000000000D+00  6 1 2 25 24 1 1 4 0.30414432D+00 0.30654983D+00 0.49727590D+05 0.49727590D+05 0.49727590D+05 0.11925168D+01  1  2  5  5  6  1       21 -.714775342512D-01 0.100000000000D+01
0.220894247866D-01 0.000000000000D+00 0.000000000000D+00 0.762666461942D-06 0.000000000000D+00  6 -2 2 25 24 1 -2 4 0.29947346D+00 0.30654983D+00 0.88864537D+05 0.88864537D+05 0.88864537D+05 0.11683112D+01  1  2 12  6  6  1       21 0.113551728673D-02 0.100000000000D+01
0.220966118679D-01 0.000000000000D+00 0.000000000000D+00 0.762666461942D-06 0.000000000000D+00  6 -2 2 25 24 1 -2 4 0.30187828D+00 0.30654983D+00 0.88864537D+05 0.88864537D+05 0.88864537D+05 0.11683112D+01  1  2 12  6  6  1       21 0.109954682124D-02 0.100000000000D+01
-.938187289210D-01 0.000000000000D+00 -.247323551450D-03 0.794596430070D-06 0.000000000000D+00  6 -2 2 25 24 1 -2 4 0.30414432D+00 0.30654983D+00 0.49727590D+05 0.49727590D+05 0.49727590D+05 0.11925168D+01  1  2  5  6  6  1       21 -.521847590549D-02 0.100000000000D+01
0.220894247866D-01 0.000000000000D+00 0.000000000000D+00 0.762666461942D-06 0.000000000000D+00  6 2 2 25 24 1 2 4 0.29947346D+00 0.30654983D+00 0.88864537D+05 0.88864537D+05 0.88864537D+05 0.11683112D+01  1  2 12  7  6  1       21 0.377446975535D-01 0.100000000000D+01
0.220966118679D-01 0.000000000000D+00 0.000000000000D+00 0.762666461942D-06 0.000000000000D+00  6 2 2 25 24 1 2 4 0.30187828D+00 0.30654983D+00 0.88864537D+05 0.88864537D+05 0.88864537D+05 0.11683112D+01  1  2 12  7  6  1       21 0.370464663339D-01 0.100000000000D+01
-.938187289210D-01 0.000000000000D+00 -.247323551450D-03 0.794596430070D-06 0.000000000000D+00  6 2 2 25 24 1 2 4 0.30414432D+00 0.30654983D+00 0.49727590D+05 0.49727590D+05 0.49727590D+05 0.11925168D+01  1  2  5  7  6  1       21 -.177482216187D+00 0.100000000000D+01
0.220894247866D-01 0.000000000000D+00 0.000000000000D+00 0.762666461942D-06 0.000000000000D+00  6 -3 2 25 24 1 -3 4 0.29947346D+00 0.30654983D+00 0.88864537D+05 0.88864537D+05 0.88864537D+05 0.11683112D+01  1  2 12  8  6  1       21 0.819057550087D-03 0.100000000000D+01
0.220894247866D-01 0.000000000000D+00 0.000000000000D+00 0.762666461942D-06 0.000000000000D+00  6 -4 2 25 24 1 -4 4 0.29947346D+00 0.30654983D+00 0.88864537D+05 0.88864537D+05 0.88864537D+05 0.11683112D+01  1  2 12  8  6  1       21 0.580953112097D-03 0.100000000000D+01
0.220966118679D-01 0.000000000000D+00 0.000000000000D+00 0.762666461942D-06 0.000000000000D+00  6 -3 2 25 24 1 -3 4 0.30187828D+00 0.30654983D+00 0.88864537D+05 0.88864537D+05 0.88864537D+05 0.11683112D+01  1  2 12  8  6  1       21 0.795289331377D-03 0.100000000000D+01
0.220966118679D-01 0.000000000000D+00 0.000000000000D+00 0.762666461942D-06 0.000000000000D+00  6 -4 2 25 24 1 -4 4 0.30187828D+00 0.30654983D+00 0.88864537D+05 0.88864537D+05 0.88864537D+05 0.11683112D+01  1  2 12  8  6  1       21 0.562265899154D-03 0.100000000000D+01
-.938187289210D-01 0.000000000000D+00 -.247323551450D-03 0.794596430070D-06 0.000000000000D+00  6 -3 2 25 24 1 -3 4 0.30414432D+00 0.30654983D+00 0.49727590D+05 0.49727590D+05 0.49727590D+05 0.11925168D+01  1  2  5  8  6  1       21 -.376102880038D-02 0.100000000000D+01
-.938187289210D-01 0.000000000000D+00 -.247323551450D-03 0.794596430070D-06 0.000000000000D+00  6 -4 2 25 24 1 -4 4 0.30414432D+00 0.30654983D+00 0.49727590D+05 0.49727590D+05 0.49727590D+05 0.11925168D+01  1  2  5  8  6  1       21 -.264756673736D-02 0.100000000000D+01
0.220894247866D-01 0.000000000000D+00 0.000000000000D+00 0.762666461942D-06 0.000000000000D+00  6 3 2 25 24 1 3 4 0.29947346D+00 0.30654983D+00 0.88864537D+05 0.88864537D+05 0.88864537D+05 0.11683112D+01  1  2 12  9  6  1       21 0.832741405536D-03 0.100000000000D+01
0.220894247866D-01 0.000000000000D+00 0.000000000000D+00 0.762666461942D-06 0.000000000000D+00  6 4 2 25 24 1 4 4 0.29947346D+00 0.30654983D+00 0.88864537D+05 0.88864537D+05 0.88864537D+05 0.11683112D+01  1  2 12  9  6  1       21 0.580953112097D-03 0.100000000000D+01
0.220966118679D-01 0.000000000000D+00 0.000000000000D+00 0.762666461942D-06 0.000000000000D+00  6 3 2 25 24 1 3 4 0.30187828D+00 0.30654983D+00 0.88864537D+05 0.88864537D+05 0.88864537D+05 0.11683112D+01  1  2 12  9  6  1       21 0.808901440796D-03 0.100000000000D+01
0.220966118679D-01 0.000000000000D+00 0.000000000000D+00 0.762666461942D-06 0.000000000000D+00  6 4 2 25 24 1 4 4 0.30187828D+00 0.30654983D+00 0.88864537D+05 0.88864537D+05 0.88864537D+05 0.11683112D+01  1  2 12  9  6  1       21 0.562265899154D-03 0.100000000000D+01
-.938187289210D-01 0.000000000000D+00 -.247323551450D-03 0.794596430070D-06 0.000000000000D+00  6 3 2 25 24 1 3 4 0.30414432D+00 0.30654983D+00 0.49727590D+05 0.49727590D+05 0.49727590D+05 0.11925168D+01  1  2  5  9  6  1       21 -.382564999752D-02 0.100000000000D+01
-.938187289210D-01 0.000000000000D+00 -.247323551450D-03 0.794596430070D-06 0.000000000000D+00  6 4 2 25 24 1 4 4 0.30414432D+00 0.30654983D+00 0.49727590D+05 0.49727590D+05 0.49727590D+05 0.11925168D+01  1  2  5  9  6  1       21 -.264756673736D-02 0.100000000000D+01
  </mgrwgt>
  </event>
  <event>
  5     66 0.42910585E-03 0.47297548E+02 0.75467711E-02 0.11657816E+00
       21 -1    0    0  501  502 0.00000000E+00 0.00000000E+00 0.12127679E+03 0.12127911E+03 0.75000000E+00 0.0000E+00 0.9000E+01
        2 -1    0    0  502    0 -.00000000E+00 -.00000000E+00 -.28066507E+03 0.28066525E+03 0.32000000E+00 0.0000E+00 0.9000E+01
       25  1    1    2    0    0 0.34816888E+02 0.12960454E+03 -.49046515E+02 0.18984234E+03 0.12500000E+03 0.0000E+00 0.9000E+01
       24  1    1    2    0    0 -.58923552E+02 -.88912491E+02 -.76427492E+02 0.15390190E+03 0.80419002E+02 0.0000E+00 0.9000E+01
        1  1    1    2  501    0 0.24106664E+02 -.40692053E+02 -.33914272E+02 0.58200126E+02 0.32000000E+00 0.0000E+00 0.9000E+01
#aMCatNLO 1  0  0  5  1 0.89644608D+01 0.00000000D+00  -5  6  0 0.00000000D+00 0.00000000D+00 0.00000000D+00 0.00000000D+00 0.00000000D+00
  <mgrwgt>
 0.1449766077D-01    8    2    0
 0.184495695531708D+03 0.000000000000000D+00 0.000000000000000D+00 0.184495695531708D+03
 0.184495695531708D+03 -.000000000000000D+00 -.000000000000000D+00 -.184495695531708D+03
 0.185610621793852D+03 0.348166263812430D+02 0.129604985108398D+03 0.285771462042867D+02
 0.134632683890547D+03 -.589237412467982D+02 -.889121713975477D+02 -.167738520338893D+02
 0.487480853790173D+02 0.241071148655552D+02 -.406928137108501D+02 -.118032941703974D+02
 0.000000000000000D+00 0.000000000000000D+00 0.000000000000000D+00 -.000000000000000D+00
 0.184495695531708D+03 0.000000000000000D+00 0.000000000000000D+00 0.184495695531708D+03
 0.184495695531708D+03 -.000000000000000D+00 -.000000000000000D+00 -.184495695531708D+03
 0.183627257524631D+03 0.367031947054105D+02 0.126420457478431D+03 0.276534470794894D+02
 0.135677001161070D+03 -.575426324329481D+02 -.912434832940500D+02 -.174500687318275D+02
 0.941545758620607D+01 0.921213766049353D+01 0.178053938461161D+01 0.785519434265889D+00
 0.402716747915085D+02 0.116273000670440D+02 -.369575135689927D+02 -.109888977819277D+02
0.954421805514D-05 0.000000000000D+00 0.000000000000D+00 0.175273936650D-06 0.000000000000D+00  6 21 2 25 24 1 21 2 0.18658160D-01 0.43179434D-01 0.33174750D+05 0.33174750D+05 0.33174750D+05 0.12103399D+01  1  2  2  3  6  5        1 0.535102241257D-01 0.100000000000D+01
-.259915572322D-06 0.503662224108D-06 -.192670264422D-07 0.175273936650D-06 0.000000000000D+00  6 21 2 25 24 1 21 4 0.18658160D-01 0.43179434D-01 0.33174750D+05 0.33174750D+05 0.33174750D+05 0.12103399D+01  1  2  3  3  6  5        1 -.213473233692D-02 0.100000000000D+01
0.103177105145D-05 0.000000000000D+00 0.000000000000D+00 0.175273936650D-06 0.000000000000D+00  6 21 2 25 24 1 21 4 0.18658160D-01 0.43179434D-01 0.33174750D+05 0.33174750D+05 0.33174750D+05 0.12103399D+01  1  2 15  3  6  5        1 0.847411722258D-02 0.100000000000D+01
0.149920473269D-05 0.000000000000D+00 0.000000000000D+00 0.175278914168D-06 0.000000000000D+00  6 21 2 25 24 1 21 4 0.18658160D-01 0.43179434D-01 0.33162098D+05 0.33162098D+05 0.33162098D+05 0.12103571D+01  1  2 12  3  6  5        1 0.123139429499D-01 0.100000000000D+01
-.949285899850D-05 0.000000000000D+00 0.000000000000D+00 0.175273936650D-06 0.000000000000D+00  6 21 2 25 24 1 21 4 0.18658160D-01 0.43179434D-01 0.33174750D+05 0.33174750D+05 0.33174750D+05 0.12103399D+01  1  2  4  3  6  5        1 -.779665215627D-01 0.100000000000D+01
-.125756727492D-05 0.000000000000D+00 0.000000000000D+00 0.175273936650D-06 0.000000000000D+00  6 21 2 25 24 1 21 4 0.18658160D-01 0.43179434D-01 0.33174750D+05 0.33174750D+05 0.33174750D+05 0.12103399D+01  1  2  5  3  6  5        1 -.103286213428D-01 0.100000000000D+01
0.372767530071D-05 0.000000000000D+00 -.000000000000D+00 0.175273936650D-06 0.000000000000D+00  6 21 2 25 24 1 21 4 0.18658160D-01 0.43179434D-01 0.33174750D+05 0.33174750D+05 0.33174750D+05 0.12103399D+01  1  2  6  3  6  5        1 0.306160532625D-01 0.100000000000D+01
0.160689274791D-08 0.000000000000D+00 0.000000000000D+00 0.175273936650D-06 0.711881246803D-08  6 21 2 25 24 1 21 4 0.18658160D-01 0.43179434D-01 0.33162098D+05 0.33162098D+05 0.33162098D+05 0.12103571D+01  1  2 11  3  6  5        1 0.131984546158D-04 0.100000000000D+01
  </mgrwgt>
  </event>
  <event>
  6     66 -.42910585E-03 0.19486237E+02 0.75467711E-02 0.11576514E+00
       21 -1    0    0  501  502 0.00000000E+00 0.00000000E+00 0.18763606E+02 0.18778590E+02 0.75000000E+00 0.0000E+00 0.9000E+01
        2 -1    0    0  503    0 0.00000000E+00 0.00000000E+00 -.21610264E+04 0.21610265E+04 0.32000000E+00 0.0000E+00 0.9000E+01
       25  1    1    2    0    0 0.56102084E+02 -.10389010E+03 -.10561178E+04 0.10700236E+04 0.12500000E+03 0.0000E+00 0.9000E+01
       24  1    1    2    0    0 -.67271340E+02 0.12501511E+03 -.94095128E+03 0.95499254E+03 0.80419002E+02 0.0000E+00 0.9000E+01
        1  1    1    2  501    0 0.26300140E+02 -.11121643E+02 -.47504178E+02 0.55426868E+02 0.32000000E+00 0.0000E+00 0.9000E+01
       21  1    1    2  503  502 -.15130884E+02 -.10003373E+02 -.97689564E+02 0.99362088E+02 0.75000000E+00 0.0000E+00 0.9000E+01
#aMCatNLO 2  0  0  2  1 0.18138664D+02 0.00000000D+00  -5  6  0 0.00000000D+00 0.00000000D+00 0.00000000D+00 0.00000000D+00 0.00000000D+00
  <mgrwgt>
 -.1410542620D+00    3    2    0
 0.192115893470594D+03 0.000000000000000D+00 0.000000000000000D+00 0.192115893470594D+03
 0.192115893470594D+03 0.000000000000000D+00 0.000000000000000D+00 -.192115893470594D+03
 0.174381951609006D+03 0.492521096963773D+02 -.108418465781376D+03 -.245709384239685D+02
 0.163263573110608D+03 -.737055786250219D+02 0.120761576579958D+03 -.131113558393450D+02
 0.465862622215735D+02 0.244534689286446D+02 -.123431107985821D+02 0.376822942633135D+02
 0.000000000000000D+00 -.000000000000000D+00 -.000000000000000D+00 -.000000000000000D+00
 0.201290012803272D+03 0.000000000000000D+00 0.000000000000000D+00 0.201290012803272D+03
 0.201509671149115D+03 0.000000000000000D+00 0.000000000000000D+00 -.201509671149115D+03
 0.173693034684467D+03 0.561018179572077D+02 -.103889967295988D+03 -.245709384239685D+02
 0.163686894454800D+03 -.672715761636186D+02 0.125015242472280D+03 -.131113558393450D+02
 0.472797610046328D+02 0.263006423827053D+02 -.111219022637898D+02 0.376822942633135D+02
 0.181399938084864D+02 -.151308841762943D+02 -.100033729125027D+02 -.219658345843267D+00
-.143448973209D-04 0.000000000000D+00 0.000000000000D+00 0.847108382735D-06 0.000000000000D+00  6 21 2 25 24 1 21 4 0.27561380D-02 0.33966386D+00 0.36443096D+05 0.36443096D+05 0.36443096D+05 0.12061292D+01  1  2 13  2  6  2        2 -.165917643132D+00 0.100000000000D+01
-.397654040668D-07 0.000000000000D+00 0.000000000000D+00 0.853560685381D-06 0.000000000000D+00  6 21 2 25 24 1 21 4 0.27561380D-02 0.31695596D+00 0.32900612D+05 0.32900612D+05 0.32900612D+05 0.12107139D+01  1  2  8  2  6  2        2 -.558879363564D-03 0.100000000000D+01
0.224319260824D-05 0.000000000000D+00 0.000000000000D+00 0.853560685381D-06 0.202952374135D-07  6 21 2 25 24 1 21 4 0.28877519D-02 0.33245397D+00 0.36443096D+05 0.36443096D+05 0.36443096D+05 0.12061292D+01  1  2  1  2  6  2        2 0.254222605066D-01 0.100000000000D+01
  </mgrwgt>
  </event>
  <event>
  5     66 0.42910585E-03 0.30527230E+03 0.75467711E-02 0.10709476E+00
       21 -1    0    0  501  502 0.00000000E+00 0.00000000E+00 0.40014415E+03 0.40014485E+03 0.75000000E+00 0.0000E+00 0.9000E+01
        2 -1    0    0  502    0 0.00000000E+00 0.00000000E+00 -.31270870E+03 0.31270886E+03 0.32000000E+00 0.0000E+00 0.9000E+01
       25  1    1    2    0    0 -.40542311E+01 -.98508262E+02 0.37096514E+02 0.16346702E+03 0.12500000E+03 0.0000E+00 0.9000E+01
       24  1    1    2    0    0 -.23583673E+02 -.20551027E+03 -.51014892E+02 0.22772877E+03 0.80419002E+02 0.0000E+00 0.9000E+01
        1  1    1    2  501    0 0.27637905E+02 0.30401853E+03 0.10135383E+03 0.32165792E+03 0.32000000E+00 0.0000E+00 0.9000E+01
#aMCatNLO 1  0  0  5  5 0.11315824D+03 0.00000000D+00  -5  6  0 0.00000000D+00 0.00000000D+00 0.00000000D+00 0.00000000D+00 0.00000000D+00
  <mgrwgt>
 0.9551546447D-02    4    2    0
 0.353735587197520D+03 0.000000000000000D+00 0.000000000000000D+00 0.353735587197520D+03
 0.353735587197520D+03 -.000000000000000D+00 -.000000000000000D+00 -.353735587197520D+03
 0.160126009506257D+03 -.405423441869041D+01 -.985082986592932D+02 0.171760647101613D+02
 0.235766282216734D+03 -.235836782876162D+02 -.205510319952210D+03 -.795477365328295D+02
 0.311578882672050D+03 0.276379127063066D+02 0.304018618611503D+03 0.623716718226682D+02
 0.000000000000000D+00 0.000000000000000D+00 0.000000000000000D+00 0.000000000000000D+00
 0.353735587197520D+03 0.000000000000000D+00 0.000000000000000D+00 0.353735587197520D+03
 0.353735587197520D+03 -.000000000000000D+00 -.000000000000000D+00 -.353735587197520D+03
 0.148973612519681D+03 -.220344086921371D+01 -.781494638867023D+02 0.213528304849924D+02
 0.208285576586446D+03 -.209248322155330D+02 -.176262861270176D+03 -.735474037147465D+02
 0.142380397342478D+03 -.842095906643275D+02 0.105505942524711D+03 -.452705034158064D+02
 0.207831587946436D+03 0.107337863749074D+03 0.148906382632167D+03 0.974650766455605D+02
0.295011962021D-04 0.000000000000D+00 0.000000000000D+00 0.151654225012D-06 0.000000000000D+00  6 21 2 25 24 1 21 2 0.61560705D-01 0.48109097D-01 0.11779161D+06 0.11779161D+06 0.11779161D+06 0.11570949D+01  1  2  2  3  6  5        1 0.120319260910D-01 0.100000000000D+01
-.277353416028D-05 0.155682089482D-05 -.595544154607D-07 0.151654225012D-06 0.000000000000D+00  6 21 2 25 24 1 21 4 0.61560705D-01 0.48109097D-01 0.11779161D+06 0.11779161D+06 0.11779161D+06 0.11570949D+01  1  2  3  3  6  5        1 -.151449215342D-02 0.100000000000D+01
0.336699098449D-05 0.000000000000D+00 0.000000000000D+00 0.151654225012D-06 0.000000000000D+00  6 21 2 25 24 1 21 4 0.61560705D-01 0.48109097D-01 0.11779161D+06 0.11779161D+06 0.11779161D+06 0.11570949D+01  1  2 15  3  6  5        1 0.183855007075D-02 0.100000000000D+01
-.513584924148D-05 0.000000000000D+00 0.000000000000D+00 0.151654225012D-06 0.000000000000D+00  6 21 2 25 24 1 21 4 0.61560705D-01 0.48109097D-01 0.11779161D+06 0.11779161D+06 0.11779161D+06 0.11570949D+01  1  2  5  3  6  5        1 -.280443756155D-02 0.100000000000D+01
  </mgrwgt>
  </event>
  <event>
  5     66 0.42910585E-03 0.24688082E+02 0.75467711E-02 0.12229752E+00
       21 -1    0    0  501  502 0.00000000E+00 0.00000000E+00 0.17976942E+04 0.17976943E+04 0.75000000E+00 0.0000E+00 0.9000E+01
        2 -1    0    0  502    0 0.00000000E+00 0.00000000E+00 -.26813889E+02 0.26815798E+02 0.32000000E+00 0.0000E+00 0.9000E+01
       25  1    1    2    0    0 0.40030162E+02 0.10708515E+02 0.25516515E+03 0.28714342E+03 0.12500000E+03 0.0000E+00 0.9000E+01
       24  1    1    2    0    0 -.22979334E+02 0.71455946E+01 0.15370619E+03 0.17513400E+03 0.80419002E+02 0.0000E+00 0.9000E+01
        1  1    1    2  501    0 -.17050829E+02 -.17854110E+02 0.13620090E+04 0.13622327E+04 0.32000000E+00 0.0000E+00 0.9000E+01
#aMCatNLO 1  0  0  2  1 0.20631145D+02 0.00000000D+00  -5  6  0 0.00000000D+00 0.00000000D+00 0.00000000D+00 0.00000000D+00 0.00000000D+00
  <mgrwgt>
 0.6964401339D-02    9    2    0
 0.219556500232284D+03 0.000000000000000D+00 0.000000000000000D+00 0.219556500232284D+03
 0.219556500232284D+03 0.000000000000000D+00 0.000000000000000D+00 -.219556500232284D+03
 0.164033321628721D+03 0.400301740944376D+02 0.107085272534889D+02 -.978000164140154D+02
 0.107804863309610D+03 -.229793260982846D+02 0.714560265803364D+01 -.676429119239806D+02
 0.167274815526237D+03 -.170508479961529D+02 -.178541299115226D+02 0.165442928337996D+03
 0.000000000000000D+00 -.000000000000000D+00 0.000000000000000D+00 -.000000000000000D+00
 0.224916424280154D+03 0.000000000000000D+00 0.000000000000000D+00 0.224916424280154D+03
 0.240591338483765D+03 0.000000000000000D+00 0.000000000000000D+00 -.240591338483765D+03
 0.163879927265123D+03 0.407129808170386D+02 0.303982611865987D+01 -.978000164140154D+02
 0.107493630228563D+03 -.225310146645452D+02 0.211055205458066D+01 -.676429119239806D+02
 0.168223839341494D+03 -.163522463454418D+02 -.257002261702032D+02 0.165442928337996D+03
 0.259103659287393D+02 -.182971980705150D+01 0.205498479969627D+02 -.156749142036117D+02
0.159694702738D-04 0.000000000000D+00 0.000000000000D+00 0.161222659043D-04 0.000000000000D+00  6 21 2 25 24 1 21 2 0.27656849D+00 0.41253726D-02 0.14438405D+05 0.14438405D+05 0.14438405D+05 0.12497162D+01  1  2  2  2  6  2        2 0.302552244470D-02 0.100000000000D+01
0.398537200391D-05 0.842732099107D-06 -.322377594745D-07 0.161222659043D-04 0.000000000000D+00  6 21 2 25 24 1 21 4 0.27656849D+00 0.41253726D-02 0.14438405D+05 0.14438405D+05 0.14438405D+05 0.12497162D+01  1  2  3  2  6  2        2 0.117923818137D-02 0.100000000000D+01
0.161173965180D-05 0.000000000000D+00 0.000000000000D+00 0.161222659043D-04 0.000000000000D+00  6 21 2 25 24 1 21 4 0.27656849D+00 0.41253726D-02 0.14438405D+05 0.14438405D+05 0.14438405D+05 0.12497162D+01  1  2 15  2  6  2        2 0.476900257735D-03 0.100000000000D+01
0.155721135415D-03 0.000000000000D+00 0.000000000000D+00 0.158646604364D-04 0.000000000000D+00  6 21 2 25 24 1 21 4 0.27656849D+00 0.45677124D-02 0.17706707D+05 0.17706707D+05 0.17706707D+05 0.12396919D+01  1  2 12  2  6  2        2 0.384340469212D-01 0.100000000000D+01
-.136074139810D-03 0.000000000000D+00 0.000000000000D+00 0.161222659043D-04 0.000000000000D+00  6 21 2 25 24 1 21 4 0.27656849D+00 0.41253726D-02 0.14438405D+05 0.14438405D+05 0.14438405D+05 0.12497162D+01  1  2  4  2  6  2        2 -.402631977652D-01 0.100000000000D+01
-.283544764184D-03 0.000000000000D+00 -.594474696454D-04 0.161222659043D-04 0.000000000000D+00  6 21 2 25 24 1 21 4 0.27656849D+00 0.46411698D-02 0.14438405D+05 0.14438405D+05 0.14438405D+05 0.12497162D+01  1  2  5  2  6  2        2 -.718803260909D-01 0.100000000000D+01
0.288950919779D-03 0.000000000000D+00 0.590372996825D-04 0.161222659043D-04 0.000000000000D+00  6 21 2 25 24 1 21 4 0.27656849D+00 0.41253726D-02 0.14438405D+05 0.14438405D+05 0.14438405D+05 0.12497162D+01  1  2  6  2  6  2        2 0.854981559592D-01 0.100000000000D+01
0.256972233125D-05 0.000000000000D+00 0.000000000000D+00 0.158646604364D-04 0.000000000000D+00  6 21 21 25 24 1 -2 4 0.27656849D+00 0.45677124D-02 0.17706707D+05 0.17706707D+05 0.17706707D+05 0.12396919D+01  1  2 12 10  6  2        2 0.946385192620D-02 0.100000000000D+01
-.503134474404D-05 0.000000000000D+00 -.111058462763D-05 0.161222659043D-04 0.000000000000D+00  6 21 21 25 24 1 -2 4 0.27656849D+00 0.46411698D-02 0.14438405D+05 0.14438405D+05 0.14438405D+05 0.12497162D+01  1  2  5 10  6  2        2 -.189697904958D-01 0.100000000000D+01
  </mgrwgt>
  </event>
  <event>
  6     66 0.42910585E-03 0.35912716E+02 0.75467711E-02 0.11263576E+00
       21 -1    0    0  501  502 0.00000000E+00 0.00000000E+00 0.35854106E+02 0.35861950E+02 0.75000000E+00 0.0000E+00 0.9000E+01
        2 -1    0    0  502    0 -.00000000E+00 -.00000000E+00 -.27345036E+04 0.27345036E+04 0.32000000E+00 0.0000E+00 0.9000E+01
       25  1    1    2    0    0 0.17914032E+03 -.56603022E+02 -.11153066E+04 0.11379055E+04 0.12500000E+03 0.0000E+00 0.9000E+01
       24  1    1    2    0    0 -.15950257E+03 0.19945104E+02 -.15626567E+04 0.15729597E+04 0.80419002E+02 0.0000E+00 0.9000E+01
        1  1    1    2  503    0 -.12151884E+02 -.51025474E+01 -.69271212E+01 0.14892672E+02 0.32000000E+00 0.0000E+00 0.9000E+01
       21  1    1    2  501  503 -.74858624E+01 0.41760465E+02 -.13759068E+02 0.44607724E+02 0.75000000E+00 0.0000E+00 0.9000E+01
#aMCatNLO 2  0  0  5  1 0.14665650D+02 0.00000000D+00  -5  6  0 0.00000000D+00 0.00000000D+00 0.00000000D+00 0.00000000D+00 0.00000000D+00
  <mgrwgt>
 0.7977524429D-01    1    2    0
 0.313135870133212D+03 0.000000000000000D+00 0.000000000000000D+00 0.313135870133212D+03
 0.313135870133212D+03 -.000000000000000D+00 -.000000000000000D+00 -.313135870133212D+03
 0.228090817476287D+03 0.179309743807562D+03 -.569192855792337D+02 -.317589628580230D+02
 0.225218288977548D+03 -.159335394895353D+03 0.196330299073587D+02 -.135951600968148D+03
 0.172962633812588D+03 -.199743489122089D+02 0.372862556718751D+02 0.167710563826171D+03
 0.000000000000000D+00 0.000000000000000D+00 0.000000000000000D+00 0.000000000000000D+00
 0.313135870133212D+03 0.000000000000000D+00 0.000000000000000D+00 0.313135870133212D+03
 0.313135870133212D+03 -.000000000000000D+00 -.000000000000000D+00 -.313135870133212D+03
 0.227691783063381D+03 0.179143185742315D+03 -.566083704834623D+02 -.303604918913280D+02
 0.224531754359297D+03 -.159499748464300D+03 0.199398298545960D+02 -.134571639606895D+03
 0.354816494817172D+02 -.119781599266312D+02 -.504418854872225D+01 0.330155614309439D+02
 0.138566553362028D+03 -.766527735138314D+01 0.417127291775886D+02 0.131916570067279D+03
0.457279302859D-04 0.000000000000D+00 0.000000000000D+00 0.100746432788D-05 0.145783212872D-07  6 21 2 25 24 1 21 4 0.55166211D-02 0.42069347D+00 0.53084746D+05 0.53084746D+05 0.53084746D+05 0.11897154D+01  1  2  1  3  6  5        1 0.797752442852D-01 0.100000000000D+01
  </mgrwgt>
  </event>
  <event>
  6     66 0.42910585E-03 0.37653953E+02 0.75467711E-02 0.11843456E+00
       21 -1    0    0  501  502 0.00000000E+00 0.00000000E+00 0.93785218E+01 0.94084628E+01 0.75000000E+00 0.0000E+00 0.9000E+01
        2 -1    0    0  502    0 -.00000000E+00 -.00000000E+00 -.34588081E+04 0.34588081E+04 0.32000000E+00 0.0000E+00 0.9000E+01
       25  1    1    2    0    0 -.17554975E+02 -.73075882E+02 -.17329210E+04 0.17390481E+04 0.12500000E+03 0.0000E+00 0.9000E+01
       24  1    1    2    0    0 0.53181213E+02 0.86128604E+02 -.14436290E+04 0.14494062E+04 0.80419002E+02 0.0000E+00 0.9000E+01
        1  1    1    2  503    0 -.36093530E+02 -.23101543E+02 -.25945304E+03 0.26296845E+03 0.32000000E+00 0.0000E+00 0.9000E+01
       21  1    1    2  501  503 0.46729282E+00 0.10048820E+02 -.13426533E+02 0.16793791E+02 0.75000000E+00 0.0000E+00 0.9000E+01
#aMCatNLO 2  0  0  5  1 0.23795030D+02 0.00000000D+00  -5  6  0 0.00000000D+00 0.00000000D+00 0.00000000D+00 0.00000000D+00 0.00000000D+00
  <mgrwgt>
 0.7170886040D-01    1    2    0
 0.180251084007036D+03 0.000000000000000D+00 0.000000000000000D+00 0.180251084007036D+03
 0.180251084007036D+03 -.000000000000000D+00 -.000000000000000D+00 -.180251084007036D+03
 0.149456762069986D+03 -.136992778744523D+02 -.716632331995578D+02 -.372697534409430D+02
 0.133888713087495D+03 0.565979057996359D+02 0.873804106112991D+02 -.249060723188402D+02
 0.771566928565914D+02 -.428986279251835D+02 -.157171774117412D+02 0.621758257597831D+02
 0.000000000000000D+00 0.000000000000000D+00 0.000000000000000D+00 0.000000000000000D+00
 0.180251084007036D+03 0.000000000000000D+00 0.000000000000000D+00 0.180251084007036D+03
 0.180251084007036D+03 -.000000000000000D+00 -.000000000000000D+00 -.180251084007036D+03
 0.149254603709625D+03 -.175671631918240D+02 -.730803470486866D+02 -.316637707980681D+02
 0.130802635714919D+03 0.531705310862695D+02 0.861246908125110D+02 -.199385509015257D+02
 0.469931316169157D+02 -.358943844107477D+02 -.230707493211437D+02 0.196897971726269D+02
 0.334517969726121D+02 0.291016516302239D+00 0.100264055573192D+02 0.319125245269668D+02
0.106948112753D-04 0.000000000000D+00 0.000000000000D+00 0.669518402840D-06 0.788558966749D-07  6 21 2 25 24 1 21 4 0.14451538D-02 0.53212662D+00 0.26868328D+05 0.26868328D+05 0.26868328D+05 0.12199560D+01  1  2  1  3  6  5        1 0.717088603951D-01 0.100000000000D+01
  </mgrwgt>
  </event>
  <event>
  5     66 0.42910585E-03 0.23974292E+02 0.75467711E-02 0.11964527E+00
       21 -1    0    0  501  502 0.00000000E+00 0.00000000E+00 0.11005210E+03 0.11005465E+03 0.75000000E+00 0.0000E+00 0.9000E+01
        2 -1    0    0  502    0 0.00000000E+00 0.00000000E+00 -.66391303E+03 0.66391311E+03 0.32000000E+00 0.0000E+00 0.9000E+01
       25  1    1    2    0    0 0.85510456E+02 -.33801143E+01 -.28710780E+03 0.32462186E+03 0.12500000E+03 0.0000E+00 0.9000E+01
       24  1    1    2    0    0 -.10022641E+03 0.22306455E+02 -.34430123E+03 0.36817586E+03 0.80419002E+02 0.0000E+00 0.9000E+01
        1  1    1    2  501    0 0.14715954E+02 -.18926341E+02 0.77548096E+02 0.81170039E+02 0.32000000E+00 0.0000E+00 0.9000E+01
#aMCatNLO 1  0  0  2  1 0.10241965D+01 0.00000000D+00  -5  6  0 0.00000000D+00 0.00000000D+00 0.00000000D+00 0.00000000D+00 0.00000000D+00
  <mgrwgt>
 0.3286144850D+00   11    2    0
 0.270307306318976D+03 0.000000000000000D+00 0.000000000000000D+00 0.270307306318976D+03
 0.270307306318976D+03 0.000000000000000D+00 0.000000000000000D+00 -.270307306318976D+03
 0.170600417773061D+03 0.855104502876554D+02 -.338010628936910D+01 -.784604379124789D+02
 0.174359470173987D+03 -.100226417337539D+03 0.223064634816677D+02 -.115719902521587D+03
 0.195654724690904D+03 0.147159670498838D+02 -.189263571922986D+02 0.194180340434065D+03
 0.000000000000000D+00 0.000000000000000D+00 -.000000000000000D+00 -.000000000000000D+00
 0.270340860070051D+03 0.000000000000000D+00 0.000000000000000D+00 0.270340860070051D+03
 0.278238097531879D+03 0.000000000000000D+00 0.000000000000000D+00 -.278238097531879D+03
 0.170467783462046D+03 0.852530442049759D+02 -.318486025271771D+01 -.784604379124789D+02
 0.174536604982808D+03 -.100489731160532D+03 0.225061906202017D+02 -.115719902521587D+03
 0.195611194364449D+03 0.144206764682778D+02 -.187023752447126D+02 0.194180340434065D+03
 0.796337479262737D+01 0.816010487277873D+00 -.618955122771389D+00 -.789723746182806D+01
0.403716204530D-05 0.000000000000D+00 0.000000000000D+00 0.979644404146D-05 0.000000000000D+00  6 21 2 25 24 1 21 2 0.16931294D-01 0.10214067D+00 0.23391359D+05 0.23391359D+05 0.23391359D+05 0.12264066D+01  1  2  2  2  6  2        2 0.108338392069D-01 0.100000000000D+01
0.128832606906D-05 0.213046894263D-06 -.814986701151D-08 0.979644404146D-05 0.000000000000D+00  6 21 2 25 24 1 21 4 0.16931294D-01 0.10214067D+00 0.23391359D+05 0.23391359D+05 0.23391359D+05 0.12264066D+01  1  2  3  2  6  2        2 0.519997138639D-02 0.100000000000D+01
0.424803229170D-06 0.000000000000D+00 0.000000000000D+00 0.979644404146D-05 0.000000000000D+00  6 21 2 25 24 1 21 4 0.16931294D-01 0.10214067D+00 0.23391359D+05 0.23391359D+05 0.23391359D+05 0.12264066D+01  1  2 15  2  6  2        2 0.171460058876D-02 0.100000000000D+01
0.989934883769D-08 0.000000000000D+00 0.000000000000D+00 0.979275565371D-05 0.000000000000D+00  6 21 2 25 24 1 21 4 0.16931294D-01 0.10514371D+00 0.23506764D+05 0.23506764D+05 0.23506764D+05 0.12261757D+01  1  2 12  2  6  2        2 0.385821469940D-04 0.100000000000D+01
-.614274050676D-02 0.000000000000D+00 0.000000000000D+00 0.979644404146D-05 0.000000000000D+00  6 21 2 25 24 1 21 4 0.16931294D-01 0.10214067D+00 0.23391359D+05 0.23391359D+05 0.23391359D+05 0.12264066D+01  1  2  4  2  6  2        2 -.247934708737D+02 0.100000000000D+01
-.640455114104D-02 0.000000000000D+00 -.523879745369D-04 0.979644404146D-05 0.000000000000D+00  6 21 2 25 24 1 21 4 0.16931294D-01 0.10514328D+00 0.23391359D+05 0.23391359D+05 0.23391359D+05 0.12264066D+01  1  2  5  2  6  2        2 -.249819156298D+02 0.100000000000D+01
0.640340314427D-02 0.000000000000D+00 0.523659940074D-04 0.979644404146D-05 0.000000000000D+00  6 21 2 25 24 1 21 4 0.16931294D-01 0.10214067D+00 0.23391359D+05 0.23391359D+05 0.23391359D+05 0.12264066D+01  1  2  6  2  6  2        2 0.258455634216D+02 0.100000000000D+01
0.622160006334D-02 0.000000000000D+00 0.000000000000D+00 0.979644404146D-05 0.765324414457D-04  6 21 2 25 24 1 21 4 0.16933396D-01 0.10513747D+00 0.23506764D+05 0.23506764D+05 0.23506764D+05 0.12261757D+01  1  2 11  2  6  2        2 0.242445319475D+02 0.100000000000D+01
0.371875775774D-09 0.000000000000D+00 0.000000000000D+00 0.979275565371D-05 0.000000000000D+00  6 21 21 25 24 1 -2 4 0.16931294D-01 0.10514371D+00 0.23506764D+05 0.23506764D+05 0.23506764D+05 0.12261757D+01  1  2 12 10  6  2        2 0.197254185287D-05 0.100000000000D+01
-.333130908627D-04 0.000000000000D+00 -.272622007823D-06 0.979644404146D-05 0.000000000000D+00  6 21 21 25 24 1 -2 4 0.16931294D-01 0.10514328D+00 0.23391359D+05 0.23391359D+05 0.23391359D+05 0.12264066D+01  1  2  5 10  6  2        2 -.176880132872D+00 0.100000000000D+01
0.326172102787D-04 0.000000000000D+00 0.000000000000D+00 0.979644404146D-05 0.401043663930D-06  6 21 21 25 24 1 -2 4 0.16933396D-01 0.10513747D+00 0.23506764D+05 0.23506764D+05 0.23506764D+05 0.12261757D+01  1  2 11 10  6  2        2 0.172996786370D+00 0.100000000000D+01
  </mgrwgt>
  </event>
  <event>
  5     66 0.42910585E-03 0.35706690E+02 0.75467711E-02 0.12186385E+00
       21 -1    0    0  501  502 0.00000000E+00 0.00000000E+00 0.14622740E+02 0.14641961E+02 0.75000000E+00 0.0000E+00 0.9000E+01
        2 -1    0    0  502    0 -.00000000E+00 -.00000000E+00 -.14098149E+04 0.14098149E+04 0.32000000E+00 0.0000E+00 0.9000E+01
       25  1    1    2    0    0 -.53415742E+01 -.52613164E+01 -.53708857E+03 0.55149374E+03 0.12500000E+03 0.0000E+00 0.9000E+01
       24  1    1    2    0    0 0.16288475E+00 0.45329879E+02 -.31209417E+03 0.32546093E+03 0.80419002E+02 0.0000E+00 0.9000E+01
        1  1    1    2  501    0 0.51786894E+01 -.40068563E+02 -.54600941E+03 0.54750223E+03 0.32000000E+00 0.0000E+00 0.9000E+01
#aMCatNLO 1  0  0  5  1 0.18391616D+02 0.00000000D+00  -5  6  0 0.00000000D+00 0.00000000D+00 0.00000000D+00 0.00000000D+00 0.00000000D+00
  <mgrwgt>
 0.8979967069D-01    5    2    0
 0.143628242406412D+03 0.000000000000000D+00 0.000000000000000D+00 0.143628242406412D+03
 0.143628242406412D+03 -.000000000000000D+00 -.000000000000000D+00 -.143628242406412D+03
 0.126149658396154D+03 -.534160347620662D+01 -.526108956841851D+01 0.152487547794066D+02
 0.980787568741460D+02 0.162861961723485D+00 0.453300552504544D+02 0.331268193851974D+02
 0.630280695425229D+02 0.517874151448313D+01 -.400689656820359D+02 -.483755741646040D+02
 0.000000000000000D+00 -.000000000000000D+00 0.000000000000000D+00 0.000000000000000D+00
 0.143628242406412D+03 0.000000000000000D+00 0.000000000000000D+00 0.143628242406412D+03
 0.143628242406412D+03 -.000000000000000D+00 -.000000000000000D+00 -.143628242406412D+03
 0.125843518065854D+03 -.457678794094265D+01 -.111786213374546D+02 0.810447261260376D+01
 0.943349571369683D+02 0.746849987668011D+00 0.408116223252253D+02 0.276716801431030D+02
 0.486161156156962D+02 0.133441117191547D+02 -.401463095498481D+02 -.239527703932809D+02
 0.184618939943044D+02 -.951417376588005D+01 0.105133085620774D+02 -.118233823624259D+02
0.763100864557D-05 0.000000000000D+00 0.000000000000D+00 0.281679638064D-06 0.000000000000D+00  6 21 2 25 24 1 21 2 0.22511336D-02 0.21689608D+00 0.16633503D+05 0.16633503D+05 0.16633503D+05 0.12427370D+01  1  2  2  3  6  5        1 0.233655208179D+00 0.100000000000D+01
-.806195005046D-06 0.402699389768D-06 -.154048078644D-07 0.281679638064D-06 0.000000000000D+00  6 21 2 25 24 1 21 4 0.22511336D-02 0.21689608D+00 0.16633503D+05 0.16633503D+05 0.16633503D+05 0.12427370D+01  1  2  3  3  6  5        1 -.381234398621D-01 0.100000000000D+01
0.824599436456D-06 0.000000000000D+00 0.000000000000D+00 0.281679638064D-06 0.000000000000D+00  6 21 2 25 24 1 21 4 0.22511336D-02 0.21689608D+00 0.16633503D+05 0.16633503D+05 0.16633503D+05 0.12427370D+01  1  2 15  3  6  5        1 0.389937506798D-01 0.100000000000D+01
0.630316196830D-05 0.000000000000D+00 0.000000000000D+00 0.279306947387D-06 0.000000000000D+00  6 21 2 25 24 1 21 4 0.22511336D-02 0.21689608D+00 0.18530362D+05 0.18530362D+05 0.18530362D+05 0.12374919D+01  1  2 12  3  6  5        1 0.293303315260D+00 0.100000000000D+01
-.926298689227D-05 0.000000000000D+00 0.000000000000D+00 0.281679638064D-06 0.000000000000D+00  6 21 2 25 24 1 21 4 0.22511336D-02 0.21689608D+00 0.16633503D+05 0.16633503D+05 0.16633503D+05 0.12427370D+01  1  2  4  3  6  5        1 -.438029163565D+00 0.100000000000D+01
  </mgrwgt>
  </event>
  <event>
  5     66 0.42910585E-03 0.25233498E+02 0.75467711E-02 0.11594013E+00
       21 -1    0    0  501  502 0.00000000E+00 0.00000000E+00 0.45187695E+02 0.45193919E+02 0.75000000E+00 0.0000E+00 0.9000E+01
        4 -1    0    0  502    0 0.00000000E+00 0.00000000E+00 -.11840377E+04 0.11840387E+04 0.15500000E+01 0.0000E+00 0.9000E+01
       25  1    1    2    0    0 0.83622960E+02 0.10409706E+03 -.70862766E+03 0.73185187E+03 0.12500000E+03 0.0000E+00 0.9000E+01
       24  1    1    2    0    0 -.59020572E+02 -.98489614E+02 -.44607089E+03 0.46757896E+03 0.80419002E+02 0.0000E+00 0.9000E+01
        3  1    1    2  501    0 -.24602388E+02 -.56074464E+01 0.15848545E+02 0.29801801E+02 0.50000000E+00 0.0000E+00 0.9000E+01
#aMCatNLO 1  0  0  1  5 0.34533401D+02 0.00000000D+00  -5  6  0 0.00000000D+00 0.00000000D+00 0.00000000D+00 0.00000000D+00 0.00000000D+00
  <mgrwgt>
 0.2294772807D-02   14    2    0
 0.231318790582144D+03 0.000000000000000D+00 0.000000000000000D+00 0.231318790582144D+03
 0.231318790582144D+03 0.000000000000000D+00 0.000000000000000D+00 -.231318790582144D+03
 0.200147365426905D+03 0.836230550797605D+02 0.104097082366909D+03 -.812708434135851D+02
 0.144293297540898D+03 -.590205035231712D+02 -.984895985837625D+02 -.342011534240622D+02
 0.118196918196485D+03 -.246025515565893D+02 -.560748378314637D+01 0.115471996837647D+03
 0.000000000000000D+00 -.000000000000000D+00 -.000000000000000D+00 0.000000000000000D+00
 0.250579412692000D+03 0.000000000000000D+00 0.000000000000000D+00 0.250579412692000D+03
 0.247976595191431D+03 0.000000000000000D+00 0.000000000000000D+00 -.247976595191431D+03
 0.209776543694041D+03 0.972643964628792D+02 0.110976959211246D+03 -.812708434135851D+02
 0.137450564975104D+03 -.496447044403095D+02 -.937610061971547D+02 -.342011534240622D+02
 0.116697548268720D+03 -.167857945078757D+02 -.166517896818134D+01 0.115471996837647D+03
 0.346313509455645D+02 -.308338975146939D+02 -.155507740459096D+02 0.260281750056860D+01
0.345675175442D-05 0.000000000000D+00 0.000000000000D+00 0.274981076708D-05 0.000000000000D+00  6 21 4 25 24 3 21 2 0.69525099D-02 0.18216020D+00 0.30331590D+05 0.30331590D+05 0.30331590D+05 0.12143977D+01  1  2  2  1  6  1       21 0.619817330257D-03 0.100000000000D+01
0.817147901007D-06 0.182417801727D-06 -.697818585785D-08 0.274981076708D-05 0.000000000000D+00  6 21 4 25 24 3 21 4 0.69525099D-02 0.18216020D+00 0.30331590D+05 0.30331590D+05 0.30331590D+05 0.12143977D+01  1  2  3  1  6  1       21 0.216081730186D-03 0.100000000000D+01
0.372826225949D-06 0.000000000000D+00 0.000000000000D+00 0.274981076708D-05 0.000000000000D+00  6 21 4 25 24 3 21 4 0.69525099D-02 0.18216020D+00 0.30331590D+05 0.30331590D+05 0.30331590D+05 0.12143977D+01  1  2 15  1  6  1       21 0.985879494553D-04 0.100000000000D+01
-.114833848844D-05 0.000000000000D+00 0.000000000000D+00 0.274981076708D-05 0.000000000000D+00  6 21 4 25 24 3 21 4 0.69525099D-02 0.18216020D+00 0.30331590D+05 0.30331590D+05 0.30331590D+05 0.12143977D+01  1  2  4  1  6  1       21 -.303659799059D-03 0.100000000000D+01
-.280014220962D-04 0.000000000000D+00 -.790954590578D-05 0.274981076708D-05 0.000000000000D+00  6 21 4 25 24 3 21 4 0.81035347D-02 0.18216020D+00 0.30331590D+05 0.30331590D+05 0.30331590D+05 0.12143977D+01  1  2  5  1  6  1       21 -.568049681293D-02 0.100000000000D+01
0.280698617359D-04 0.000000000000D+00 0.755027455126D-05 0.274981076708D-05 0.000000000000D+00  6 21 4 25 24 3 21 4 0.69525099D-02 0.18216020D+00 0.30331590D+05 0.30331590D+05 0.30331590D+05 0.12143977D+01  1  2  6  1  6  1       21 0.742262726552D-02 0.100000000000D+01
-.853517564377D-06 0.000000000000D+00 -.330294265068D-06 0.274981076708D-05 0.000000000000D+00  6 -3 4 25 24 3 -3 4 0.81035347D-02 0.18216020D+00 0.30331590D+05 0.30331590D+05 0.30331590D+05 0.12143977D+01  1  2  5  4  6  1       21 -.752599672759D-05 0.100000000000D+01
-.853517564377D-06 0.000000000000D+00 -.330294265068D-06 0.274981076708D-05 0.000000000000D+00  6 3 4 25 24 3 3 4 0.81035347D-02 0.18216020D+00 0.30331590D+05 0.30331590D+05 0.30331590D+05 0.12143977D+01  1  2  5  5  6  1       21 -.752512231114D-05 0.100000000000D+01
-.853517564377D-06 0.000000000000D+00 -.330294265068D-06 0.274981076708D-05 0.000000000000D+00  6 -4 4 25 24 3 -4 4 0.81035347D-02 0.18216020D+00 0.30331590D+05 0.30331590D+05 0.30331590D+05 0.12143977D+01  1  2  5  6  6  1       21 -.664460374812D-05 0.100000000000D+01
-.853517564377D-06 0.000000000000D+00 -.330294265068D-06 0.274981076708D-05 0.000000000000D+00  6 4 4 25 24 3 4 4 0.81035347D-02 0.18216020D+00 0.30331590D+05 0.30331590D+05 0.30331590D+05 0.12143977D+01  1  2  5  7  6  1       21 -.664460374812D-05 0.100000000000D+01
-.853517564377D-06 0.000000000000D+00 -.330294265068D-06 0.274981076708D-05 0.000000000000D+00  6 -1 4 25 24 3 -1 4 0.81035347D-02 0.18216020D+00 0.30331590D+05 0.30331590D+05 0.30331590D+05 0.12143977D+01  1  2  5  8  6  1       21 -.110473932414D-04 0.100000000000D+01
-.853517564377D-06 0.000000000000D+00 -.330294265068D-06 0.274981076708D-05 0.000000000000D+00  6 -2 4 25 24 3 -2 4 0.81035347D-02 0.18216020D+00 0.30331590D+05 0.30331590D+05 0.30331590D+05 0.12143977D+01  1  2  5  8  6  1       21 -.106537026205D-04 0.100000000000D+01
-.853517564377D-06 0.000000000000D+00 -.330294265068D-06 0.274981076708D-05 0.000000000000D+00  6 1 4 25 24 3 1 4 0.81035347D-02 0.18216020D+00 0.30331590D+05 0.30331590D+05 0.30331590D+05 0.12143977D+01  1  2  5  9  6  1       21 -.133092085619D-04 0.100000000000D+01
-.853517564377D-06 0.000000000000D+00 -.330294265068D-06 0.274981076708D-05 0.000000000000D+00  6 2 4 25 24 3 2 4 0.81035347D-02 0.18216020D+00 0.30331590D+05 0.30331590D+05 0.30331590D+05 0.12143977D+01  1  2  5  9  6  1       21 -.148342259290D-04 0.100000000000D+01
  </mgrwgt>
  </event>
  <event>
  5     66 0.42910585E-03 0.39199954E+02 0.75467711E-02 0.12112915E+00
       21 -1    0    0  501  502 0.00000000E+00 0.00000000E+00 0.10758245E+03 0.10758506E+03 0.75000000E+00 0.0000E+00 0.9000E+01
        2 -1    0    0  502    0 -.00000000E+00 -.00000000E+00 -.23559421E+03 0.23559443E+03 0.32000000E+00 0.0000E+00 0.9000E+01
       25  1    1    2    0    0 -.14968331E+02 -.67202763E+02 -.23397696E+02 0.14461229E+03 0.12500000E+03 0.0000E+00 0.9000E+01
       24  1    1    2    0    0 -.23067686E+02 0.57723996E+02 -.11927954E+03 0.15671312E+03 0.80419002E+02 0.0000E+00 0.9000E+01
        1  1    1    2  501    0 0.38036017E+02 0.94787667E+01 0.14665472E+02 0.41854081E+02 0.32000000E+00 0.0000E+00 0.9000E+01
#aMCatNLO 1  0  0  5  1 0.84057859D+00 0.00000000D+00  -5  6  0 0.00000000D+00 0.00000000D+00 0.00000000D+00 0.00000000D+00 0.00000000D+00
  <mgrwgt>
 0.1294986086D+00    5    2    0
 0.159205175480811D+03 0.000000000000000D+00 0.000000000000000D+00 0.159205175480811D+03
 0.159205175480811D+03 -.000000000000000D+00 -.000000000000000D+00 -.159205175480811D+03
 0.146455019974043D+03 -.149686749709299D+02 -.672028486480258D+02 0.329209474165395D+02
 0.120949565096795D+03 -.230679704618921D+02 0.577239253007497D+02 -.655545462144004D+02
 0.510057658907845D+02 0.380366454328221D+02 0.947892334727614D+01 0.326335987978609D+02
 0.000000000000000D+00 -.000000000000000D+00 0.000000000000000D+00 0.000000000000000D+00
 0.159205175480811D+03 0.000000000000000D+00 0.000000000000000D+00 0.159205175480811D+03
 0.159205175480811D+03 -.000000000000000D+00 -.000000000000000D+00 -.159205175480811D+03
 0.146441702722672D+03 -.142862320087827D+02 -.670327804295099D+02 0.335064504117622D+02
 0.120649373577694D+03 -.225050502153198D+02 0.578642078574045D+02 -.650715879179261D+02
 0.116697327107338D+01 -.111761199172043D+00 -.689903983127537D+00 -.934541889817257D+00
 0.501523013901828D+02 0.369030434232746D+02 0.985847655523294D+01 0.324996793959812D+02
0.142869793421D-04 0.000000000000D+00 0.000000000000D+00 0.565573864251D-06 0.000000000000D+00  6 21 2 25 24 1 21 2 0.16551364D-01 0.36245481D-01 0.20100211D+05 0.20100211D+05 0.20100211D+05 0.12335871D+01  1  2  2  3  6  5        1 0.124870048257D+00 0.100000000000D+01
0.183019174298D-06 0.753944613340D-06 -.288412950304D-07 0.565573864251D-06 0.000000000000D+00  6 21 2 25 24 1 21 4 0.16551364D-01 0.36245481D-01 0.20100211D+05 0.20100211D+05 0.20100211D+05 0.12335871D+01  1  2  3  3  6  5        1 0.243418805970D-02 0.100000000000D+01
0.154147539679D-05 0.000000000000D+00 0.000000000000D+00 0.565573864251D-06 0.000000000000D+00  6 21 2 25 24 1 21 4 0.16551364D-01 0.36245481D-01 0.20100211D+05 0.20100211D+05 0.20100211D+05 0.12335871D+01  1  2 15  3  6  5        1 0.205019010690D-01 0.100000000000D+01
-.521052957254D-05 0.000000000000D+00 0.000000000000D+00 0.565573864251D-06 0.000000000000D+00  6 21 2 25 24 1 21 4 0.16551364D-01 0.36245481D-01 0.20100211D+05 0.20100211D+05 0.20100211D+05 0.12335871D+01  1  2  4  3  6  5        1 -.693009840026D-01 0.100000000000D+01
0.383205408048D-05 0.000000000000D+00 0.000000000000D+00 0.565573864251D-06 0.466465394414D-07  6 21 2 25 24 1 21 4 0.16551364D-01 0.36245481D-01 0.20029338D+05 0.20029338D+05 0.20029338D+05 0.12337560D+01  1  2 11  3  6  5        1 0.509934552336D-01 0.100000000000D+01
  </mgrwgt>
  </event>
  <event>
  5     66 0.42910585E-03 0.11754222E+03 0.75467711E-02 0.11562682E+00
       21 -1    0    0  501  502 0.00000000E+00 0.00000000E+00 0.60489444E+02 0.60494094E+02 0.75000000E+00 0.0000E+00 0.9000E+01
        2 -1    0    0  502    0 -.00000000E+00 -.00000000E+00 -.64577723E+03 0.64577731E+03 0.32000000E+00 0.0000E+00 0.9000E+01
       25  1    1    2    0    0 -.60385951E+02 0.32337952E+02 -.27382904E+03 0.30870625E+03 0.12500000E+03 0.0000E+00 0.9000E+01
       24  1    1    2    0    0 -.54160630E+02 0.42809534E+02 -.10072347E+03 0.14621376E+03 0.80419002E+02 0.0000E+00 0.9000E+01
        1  1    1    2  501    0 0.11454658E+03 -.75147486E+02 -.21073527E+03 0.25135139E+03 0.32000000E+00 0.0000E+00 0.9000E+01
#aMCatNLO 1  0  0  5  1 0.26611620D+02 0.00000000D+00  -5  6  0 0.00000000D+00 0.00000000D+00 0.00000000D+00 0.00000000D+00 0.00000000D+00
  <mgrwgt>
 0.2139514272D-01    7    2    0
 0.197647098481506D+03 0.000000000000000D+00 0.000000000000000D+00 0.197647098481506D+03
 0.197647098481506D+03 -.000000000000000D+00 -.000000000000000D+00 -.197647098481506D+03
 0.146123140869624D+03 -.603860665728585D+02 0.323380272635591D+02 -.321674875326547D+02
 0.112104873339601D+03 -.541607183342276D+02 0.428095924391860D+02 0.365272782565134D+02
 0.137066182753787D+03 0.114546784907086D+03 -.751476197027452D+02 -.435979072385868D+01
 0.000000000000000D+00 0.000000000000000D+00 0.000000000000000D+00 -.000000000000000D+00
 0.197647098481506D+03 0.000000000000000D+00 0.000000000000000D+00 0.197647098481506D+03
 0.197647098481506D+03 -.000000000000000D+00 -.000000000000000D+00 -.197647098481506D+03
 0.143584481137329D+03 -.556075524532243D+02 0.292031163876429D+02 -.323493636241531D+02
 0.109432146441306D+03 -.505066281528539D+02 0.404123520493126D+02 0.363881991152715D+02
 0.106627235223833D+03 0.100763406389718D+03 -.348330476393545D+02 0.166193151890897D+01
 0.356503341605443D+02 0.535077421636034D+01 -.347824207976010D+02 -.570076701002737D+01
0.637111291539D-05 0.000000000000D+00 0.000000000000D+00 0.225487861848D-06 0.000000000000D+00  6 21 2 25 24 1 21 2 0.93064321D-02 0.99350707D-01 0.37156882D+05 0.37156882D+05 0.37156882D+05 0.12052656D+01  1  2  2  3  6  5        1 0.496306159284D-01 0.100000000000D+01
-.625911657848D-06 0.336212865472D-06 -.128614413772D-07 0.225487861848D-06 0.000000000000D+00  6 21 2 25 24 1 21 4 0.93064321D-02 0.99350707D-01 0.37156882D+05 0.37156882D+05 0.37156882D+05 0.12052656D+01  1  2  3  3  6  5        1 -.708292958587D-02 0.100000000000D+01
0.705622932346D-06 0.000000000000D+00 0.000000000000D+00 0.225487861848D-06 0.000000000000D+00  6 21 2 25 24 1 21 4 0.93064321D-02 0.99350707D-01 0.37156882D+05 0.37156882D+05 0.37156882D+05 0.12052656D+01  1  2 15  3  6  5        1 0.798495679272D-02 0.100000000000D+01
0.772743841026D-05 0.000000000000D+00 0.000000000000D+00 0.225541315239D-06 0.000000000000D+00  6 21 2 25 24 1 21 4 0.93064321D-02 0.99350707D-01 0.37037746D+05 0.37037746D+05 0.37037746D+05 0.12054084D+01  1  2 12  3  6  5        1 0.874874723778D-01 0.100000000000D+01
-.122809942912D-04 0.000000000000D+00 0.000000000000D+00 0.225487861848D-06 0.000000000000D+00  6 21 2 25 24 1 21 4 0.93064321D-02 0.99350707D-01 0.37156882D+05 0.37156882D+05 0.37156882D+05 0.12052656D+01  1  2  4  3  6  5        1 -.138973953782D+00 0.100000000000D+01
-.675333288921D-05 0.000000000000D+00 0.000000000000D+00 0.225487861848D-06 0.000000000000D+00  6 21 2 25 24 1 21 4 0.93064321D-02 0.99350707D-01 0.37156882D+05 0.37156882D+05 0.37156882D+05 0.12052656D+01  1  2  5  3  6  5        1 -.764219370649D-01 0.100000000000D+01
0.872829078928D-05 0.000000000000D+00 -.000000000000D+00 0.225487861848D-06 0.000000000000D+00  6 21 2 25 24 1 21 4 0.93064321D-02 0.99350707D-01 0.37156882D+05 0.37156882D+05 0.37156882D+05 0.12052656D+01  1  2  6  3  6  5        1 0.987709180526D-01 0.100000000000D+01
  </mgrwgt>
  </event>
  <event>
  5     66 0.42910585E-03 0.28642930E+02 0.75467711E-02 0.12159109E+00
       21 -1    0    0  501  502 0.00000000E+00 0.00000000E+00 0.20133387E+02 0.20147351E+02 0.75000000E+00 0.0000E+00 0.9000E+01
        2 -1    0    0  502    0 0.00000000E+00 0.00000000E+00 -.90767100E+03 0.90767106E+03 0.32000000E+00 0.0000E+00 0.9000E+01
       25  1    1    2    0    0 0.17744006E+02 -.46783799E+02 -.55985493E+03 0.57581778E+03 0.12500000E+03 0.0000E+00 0.9000E+01
       24  1    1    2    0    0 -.20944758E+02 0.17554637E+02 -.29935035E+03 0.31116666E+03 0.80419002E+02 0.0000E+00 0.9000E+01
        1  1    1    2  501    0 0.32007517E+01 0.29229162E+02 -.28332339E+02 0.40833963E+02 0.32000000E+00 0.0000E+00 0.9000E+01
#aMCatNLO 1  0  0  1  2 0.24692214D+02 0.00000000D+00  -5  6  0 0.00000000D+00 0.00000000D+00 0.00000000D+00 0.00000000D+00 0.00000000D+00
  <mgrwgt>
 0.8977004649D-01   23    2    0
 0.135207232593571D+03 0.000000000000000D+00 0.000000000000000D+00 0.135207232593571D+03
 0.135207232593571D+03 0.000000000000000D+00 0.000000000000000D+00 -.135207232593571D+03
 0.138165997901450D+03 0.177439683000481D+02 -.467841433290760D+02 -.310038465038575D+02
 0.851339931017419D+02 -.209447809158188D+02 0.175544242598293D+02 -.580854270632287D+01
 0.471144741839508D+02 0.320081261577070D+01 0.292297190692467D+02 0.368123892101804D+02
 0.000000000000000D+00 0.000000000000000D+00 -.000000000000000D+00 0.000000000000000D+00
 0.165014563989801D+03 0.000000000000000D+00 0.000000000000000D+00 0.165014563989801D+03
 0.140981819238931D+03 0.000000000000000D+00 0.000000000000000D+00 -.140981819238931D+03
 0.134264709973500D+03 0.157590023801897D+02 -.345315463050024D+02 -.310038465038575D+02
 0.873763347851712D+02 -.222017138230896D+02 0.253130926807893D+02 -.580854270632287D+01
 0.498984338420174D+02 0.249396382577933D+01 0.335928838440537D+02 0.368123892101804D+02
 0.344569046280430D+02 0.394874761712054D+01 -.243744302198407D+02 0.240327447508696D+02
0.503634308911D-06 0.000000000000D+00 0.000000000000D+00 0.153665438583D-05 0.000000000000D+00  6 21 2 25 24 1 21 2 0.30985227D-02 0.13964277D+00 0.15498079D+05 0.15498079D+05 0.15498079D+05 0.12462085D+01  1  2  2  1  6  1       21 0.176716524259D-01 0.100000000000D+01
0.258543303197D-07 0.265775126572D-07 -.101669256622D-08 0.153665438583D-05 0.000000000000D+00  6 21 2 25 24 1 21 4 0.30985227D-02 0.13964277D+00 0.15498079D+05 0.15498079D+05 0.15498079D+05 0.12462085D+01  1  2  3  1  6  1       21 0.140888826388D-02 0.100000000000D+01
0.585448762272D-07 0.000000000000D+00 0.000000000000D+00 0.153665438583D-05 0.000000000000D+00  6 21 2 25 24 1 21 4 0.30985227D-02 0.13964277D+00 0.15498079D+05 0.15498079D+05 0.15498079D+05 0.12462085D+01  1  2 15  1  6  1       21 0.319030460302D-02 0.100000000000D+01
0.122376519737D-05 0.000000000000D+00 0.000000000000D+00 0.151184205814D-05 0.000000000000D+00  6 21 2 25 24 1 21 4 0.38374747D-02 0.13964277D+00 0.19071146D+05 0.19071146D+05 0.19071146D+05 0.12361063D+01  1  2 12  1  6  1       21 0.454848144229D-01 0.100000000000D+01
-.681380503729D-06 0.000000000000D+00 0.000000000000D+00 0.153665438583D-05 0.000000000000D+00  6 21 2 25 24 1 21 4 0.30985227D-02 0.13964277D+00 0.15498079D+05 0.15498079D+05 0.15498079D+05 0.12462085D+01  1  2  4  1  6  1       21 -.371306849983D-01 0.100000000000D+01
-.390729696623D-05 0.000000000000D+00 -.819668176497D-06 0.153665438583D-05 0.000000000000D+00  6 21 2 25 24 1 21 4 0.39442518D-02 0.13964277D+00 0.15498079D+05 0.15498079D+05 0.15498079D+05 0.12462085D+01  1  2  5  1  6  1       21 -.142994725277D+00 0.100000000000D+01
0.374416992003D-05 0.000000000000D+00 0.731535871113D-06 0.153665438583D-05 0.000000000000D+00  6 21 2 25 24 1 21 4 0.30985227D-02 0.13964277D+00 0.15498079D+05 0.15498079D+05 0.15498079D+05 0.12462085D+01  1  2  6  1  6  1       21 0.204032245008D+00 0.100000000000D+01
0.761466359827D-07 0.000000000000D+00 0.000000000000D+00 0.151184205814D-05 0.000000000000D+00  6 -1 2 25 24 1 -1 4 0.38374747D-02 0.13964277D+00 0.19071146D+05 0.19071146D+05 0.19071146D+05 0.12361063D+01  1  2 12  4  6  1       21 0.153606453803D-03 0.100000000000D+01
-.213201593924D-06 0.000000000000D+00 -.590787799742D-07 0.153665438583D-05 0.000000000000D+00  6 -1 2 25 24 1 -1 4 0.39442518D-02 0.13964277D+00 0.15498079D+05 0.15498079D+05 0.15498079D+05 0.12462085D+01  1  2  5  4  6  1       21 -.424455650358D-03 0.100000000000D+01
0.761466359827D-07 0.000000000000D+00 0.000000000000D+00 0.151184205814D-05 0.000000000000D+00  6 1 2 25 24 1 1 4 0.38374747D-02 0.13964277D+00 0.19071146D+05 0.19071146D+05 0.19071146D+05 0.12361063D+01  1  2 12  5  6  1       21 0.168608486623D-03 0.100000000000D+01
-.213201593924D-06 0.000000000000D+00 -.590787799742D-07 0.153665438583D-05 0.000000000000D+00  6 1 2 25 24 1 1 4 0.39442518D-02 0.13964277D+00 0.15498079D+05 0.15498079D+05 0.15498079D+05 0.12462085D+01  1  2  5  5  6  1       21 -.467207828786D-03 0.100000000000D+01
0.761466359827D-07 0.000000000000D+00 0.000000000000D+00 0.151184205814D-05 0.000000000000D+00  6 -2 2 25 24 1 -2 4 0.38374747D-02 0.13964277D+00 0.19071146D+05 0.19071146D+05 0.19071146D+05 0.12361063D+01  1  2 12  6  6  1       21 0.150937166538D-03 0.100000000000D+01
-.213201593924D-06 0.000000000000D+00 -.590787799742D-07 0.153665438583D-05 0.000000000000D+00  6 -2 2 25 24 1 -2 4 0.39442518D-02 0.13964277D+00 0.15498079D+05 0.15498079D+05 0.15498079D+05 0.12462085D+01  1  2  5  6  6  1       21 -.416850615013D-03 0.100000000000D+01
0.761466359827D-07 0.000000000000D+00 0.000000000000D+00 0.151184205814D-05 0.000000000000D+00  6 2 2 25 24 1 2 4 0.38374747D-02 0.13964277D+00 0.19071146D+05 0.19071146D+05 0.19071146D+05 0.12361063D+01  1  2 12  7  6  1       21 0.178737507592D-03 0.100000000000D+01
-.213201593924D-06 0.000000000000D+00 -.590787799742D-07 0.153665438583D-05 0.000000000000D+00  6 2 2 25 24 1 2 4 0.39442518D-02 0.13964277D+00 0.15498079D+05 0.15498079D+05 0.15498079D+05 0.12462085D+01  1  2  5  7  6  1       21 -.496034254023D-03 0.100000000000D+01
0.761466359827D-07 0.000000000000D+00 0.000000000000D+00 0.151184205814D-05 0.000000000000D+00  6 -3 2 25 24 1 -3 4 0.38374747D-02 0.13964277D+00 0.19071146D+05 0.19071146D+05 0.19071146D+05 0.12361063D+01  1  2 12  8  6  1       21 0.112117232868D-03 0.100000000000D+01
0.761466359827D-07 0.000000000000D+00 0.000000000000D+00 0.151184205814D-05 0.000000000000D+00  6 -4 2 25 24 1 -4 4 0.38374747D-02 0.13964277D+00 0.19071146D+05 0.19071146D+05 0.19071146D+05 0.12361063D+01  1  2 12  8  6  1       21 0.100528049626D-03 0.100000000000D+01
-.213201593924D-06 0.000000000000D+00 -.590787799742D-07 0.153665438583D-05 0.000000000000D+00  6 -3 2 25 24 1 -3 4 0.39442518D-02 0.13964277D+00 0.15498079D+05 0.15498079D+05 0.15498079D+05 0.12462085D+01  1  2  5  8  6  1       21 -.307550804699D-03 0.100000000000D+01
-.213201593924D-06 0.000000000000D+00 -.590787799742D-07 0.153665438583D-05 0.000000000000D+00  6 -4 2 25 24 1 -4 4 0.39442518D-02 0.13964277D+00 0.15498079D+05 0.15498079D+05 0.15498079D+05 0.12462085D+01  1  2  5  8  6  1       21 -.274997932460D-03 0.100000000000D+01
0.761466359827D-07 0.000000000000D+00 0.000000000000D+00 0.151184205814D-05 0.000000000000D+00  6 3 2 25 24 1 3 4 0.38374747D-02 0.13964277D+00 0.19071146D+05 0.19071146D+05 0.19071146D+05 0.12361063D+01  1  2 12  9  6  1       21 0.112107593581D-03 0.100000000000D+01
0.761466359827D-07 0.000000000000D+00 0.000000000000D+00 0.151184205814D-05 0.000000000000D+00  6 4 2 25 24 1 4 4 0.38374747D-02 0.13964277D+00 0.19071146D+05 0.19071146D+05 0.19071146D+05 0.12361063D+01  1  2 12  9  6  1       21 0.100528049626D-03 0.100000000000D+01
-.213201593924D-06 0.000000000000D+00 -.590787799742D-07 0.153665438583D-05 0.000000000000D+00  6 3 2 25 24 1 3 4 0.39442518D-02 0.13964277D+00 0.15498079D+05 0.15498079D+05 0.15498079D+05 0.12462085D+01  1  2  5  9  6  1       21 -.307523476695D-03 0.100000000000D+01
-.213201593924D-06 0.000000000000D+00 -.590787799742D-07 0.153665438583D-05 0.000000000000D+00  6 4 2 25 24 1 4 4 0.39442518D-02 0.13964277D+00 0.15498079D+05 0.15498079D+05 0.15498079D+05 0.12462085D+01  1  2  5  9  6  1       21 -.274997932460D-03 0.100000000000D+01
  </mgrwgt>
  </event>
  <event>
  5     66 -.42910585E-03 0.22442641E+02 0.75467711E-02 0.11813480E+00
       21 -1    0    0  501  502 0.00000000E+00 0.00000000E+00 0.13800748E+03 0.13800952E+03 0.75000000E+00 0.0000E+00 0.9000E+01
        2 -1    0    0  502    0 -.00000000E+00 -.00000000E+00 -.20887647E+03 0.20887672E+03 0.32000000E+00 0.0000E+00 0.9000E+01
       25  1    1    2    0    0 0.10137677E+03 -.19651684E+02 -.52335786E+02 0.17037451E+03 0.12500000E+03 0.0000E+00 0.9000E+01
       24  1    1    2    0    0 -.12178915E+03 0.28975312E+02 -.22960817E+01 0.14881080E+03 0.80419002E+02 0.0000E+00 0.9000E+01
        1  1    1    2  501    0 0.20412375E+02 -.93236284E+01 -.16237125E+02 0.27700934E+02 0.32000000E+00 0.0000E+00 0.9000E+01
#aMCatNLO 1  0  0  5  1 0.60119231D+01 0.00000000D+00  -5  6  0 0.00000000D+00 0.00000000D+00 0.00000000D+00 0.00000000D+00 0.00000000D+00
  <mgrwgt>
 -.7327395846D-01    5    2    0
 0.169784899156461D+03 0.000000000000000D+00 0.000000000000000D+00 0.169784899156461D+03
 0.169784899156461D+03 -.000000000000000D+00 -.000000000000000D+00 -.169784899156461D+03
 0.163122239328950D+03 0.101375962733261D+03 -.196513141768100D+02 -.179054459514417D+02
 0.151538651200319D+03 -.121789898653593D+03 0.289756556472136D+02 0.287119978232654D+02
 0.249089077836522D+02 0.204139359203311D+02 -.932434147040349D+01 -.108065518718237D+02
 0.000000000000000D+00 -.000000000000000D+00 0.000000000000000D+00 0.000000000000000D+00
 0.169784899156461D+03 0.000000000000000D+00 0.000000000000000D+00 0.169784899156461D+03
 0.169784899156461D+03 -.000000000000000D+00 -.000000000000000D+00 -.169784899156461D+03
 0.165200905148834D+03 0.104174954843639D+03 -.209297916988314D+02 -.193871520539625D+02
 0.149009815469207D+03 -.119227688827258D+03 0.278053316375367D+02 0.273556374671419D+02
 0.601196377346443D+01 0.250681299826873D+01 -.729101260109015D+00 0.541553398638280D+01
 0.193471139214159D+02 0.125459209853499D+02 -.614643867859628D+01 -.133840193995622D+02
0.127441833195D-04 0.000000000000D+00 0.000000000000D+00 0.303183623206D-06 0.000000000000D+00  6 21 2 25 24 1 21 2 0.21232096D-01 0.32135018D-01 0.27784381D+05 0.27784381D+05 0.27784381D+05 0.12184111D+01  1  2  2  3  6  5        1 0.782343404082D-01 0.100000000000D+01
0.555275024763D-06 0.672529030463D-06 -.257268343601D-07 0.303183623206D-06 0.000000000000D+00  6 21 2 25 24 1 21 4 0.21232096D-01 0.32135018D-01 0.27784381D+05 0.27784381D+05 0.27784381D+05 0.12184111D+01  1  2  3  3  6  5        1 0.506035839708D-02 0.100000000000D+01
0.149092128254D-05 0.000000000000D+00 0.000000000000D+00 0.303183623206D-06 0.000000000000D+00  6 21 2 25 24 1 21 4 0.21232096D-01 0.32135018D-01 0.27784381D+05 0.27784381D+05 0.27784381D+05 0.12184111D+01  1  2 15  3  6  5        1 0.135871337536D-01 0.100000000000D+01
0.125589039320D-05 0.000000000000D+00 0.000000000000D+00 0.304053186791D-06 0.000000000000D+00  6 21 2 25 24 1 21 4 0.21232096D-01 0.32135018D-01 0.26751544D+05 0.26751544D+05 0.26751544D+05 0.12201572D+01  1  2 12  3  6  5        1 0.115112302924D-01 0.100000000000D+01
-.199343903811D-04 0.000000000000D+00 0.000000000000D+00 0.303183623206D-06 0.000000000000D+00  6 21 2 25 24 1 21 4 0.21232096D-01 0.32135018D-01 0.27784381D+05 0.27784381D+05 0.27784381D+05 0.12184111D+01  1  2  4  3  6  5        1 -.181667021309D+00 0.100000000000D+01
  </mgrwgt>
  </event>
  <event>
  6     66 -.42910585E-03 0.24207336E+02 0.75467711E-02 0.10151939E+00
       21 -1    0    0  501  503 0.00000000E+00 0.00000000E+00 0.27726090E+03 0.27726192E+03 0.75000000E+00 0.0000E+00 0.9000E+01
        2 -1    0    0  502    0 0.00000000E+00 0.00000000E+00 -.27136880E+04 0.27136880E+04 0.32000000E+00 0.0000E+00 0.9000E+01
       25  1    1    2    0    0 0.14544302E+03 0.37032661E+03 -.21423575E+03 0.46884691E+03 0.12500000E+03 0.0000E+00 0.9000E+01
       24  1    1    2    0    0 -.13193299E+03 -.45009722E+03 -.23290706E+04 0.23771897E+04 0.80419002E+02 0.0000E+00 0.9000E+01
        1  1    1    2  501    0 -.32498745E+02 0.35421706E+02 0.40544510E+02 0.62887402E+02 0.32000000E+00 0.0000E+00 0.9000E+01
       21  1    1    2  502  503 0.18988710E+02 0.44348906E+02 0.66334724E+02 0.82025939E+02 0.75000000E+00 0.0000E+00 0.9000E+01
#aMCatNLO 2  0  0  1  2 0.48243099D+02 0.00000000D+00  -5  6  0 0.00000000D+00 0.00000000D+00 0.00000000D+00 0.00000000D+00 0.00000000D+00
  <mgrwgt>
 -.3861720274D+00    2    2    0
 0.740893836092667D+03 0.000000000000000D+00 0.000000000000000D+00 0.740893836092667D+03
 0.740893836092667D+03 0.000000000000000D+00 0.000000000000000D+00 -.740893836092667D+03
 0.571501730162581D+03 0.152679906638439D+03 0.387228592972640D+03 0.371122743135114D+03
 0.717706610767603D+03 -.122643550435527D+03 -.428401441565760D+03 -.556835997027937D+03
 0.192579331255149D+03 -.300363562029117D+02 0.411728485931208D+02 0.185713253892823D+03
 0.000000000000000D+00 0.000000000000000D+00 0.000000000000000D+00 0.000000000000000D+00
 0.101205867439449D+04 0.000000000000000D+00 0.000000000000000D+00 0.101205867439449D+04
 0.743435249622833D+03 0.000000000000000D+00 0.000000000000000D+00 -.743435249622833D+03
 0.558258498069531D+03 0.145443037171639D+03 0.370326589827150D+03 0.371122743135114D+03
 0.732480298396232D+03 -.131932966987660D+03 -.450097251957839D+03 -.556835997027937D+03
 0.191834001751097D+03 -.324987805676080D+02 0.354217562805448D+02 0.185713253892823D+03
 0.272921125800465D+03 0.189887103836285D+02 0.443489058501448D+02 0.268623424771659D+03
-.166023562811D-01 0.000000000000D+00 0.000000000000D+00 0.998452431358D-07 0.000000000000D+00  6 21 2 25 24 1 21 4 0.42694753D-01 0.41606307D+00 0.24464479D+06 0.24464479D+06 0.24464479D+06 0.11294823D+01  1  2 13  1  6  1       21 -.485309831201D+00 0.100000000000D+01
0.342687132245D-02 0.000000000000D+00 0.000000000000D+00 0.100529293722D-06 0.545777428317D-09  6 21 2 25 24 1 21 4 0.42655574D-01 0.41749025D+00 0.24464479D+06 0.24464479D+06 0.24464479D+06 0.11294823D+01  1  2  1  1  6  1       21 0.991378038299D-01 0.100000000000D+01
  </mgrwgt>
  </event>
  <event>
  6     66 -.42910585E-03 0.16723346E+03 0.75467711E-02 0.11136260E+00
       21 -1    0    0  503  502 0.00000000E+00 0.00000000E+00 0.30728674E+03 0.30728765E+03 0.75000000E+00 0.0000E+00 0.9000E+01
        2 -1    0    0  502    0 0.00000000E+00 0.00000000E+00 -.28789834E+03 0.28789851E+03 0.32000000E+00 0.0000E+00 0.9000E+01
       25  1    1    2    0    0 -.50384159E+01 0.23351475E+02 0.37280507E+02 0.13261038E+03 0.12500000E+03 0.0000E+00 0.9000E+01
       24  1    1    2    0    0 -.13919973E+03 0.79646141E+02 0.89846839E+02 0.20064831E+03 0.80419002E+02 0.0000E+00 0.9000E+01
        1  1    1    2  501    0 0.15187883E+03 -.88124747E+02 -.14066685E+03 0.22498981E+03 0.32000000E+00 0.0000E+00 0.9000E+01
       21  1    1    2  503  501 -.76406788E+01 -.14872868E+02 0.32927899E+02 0.36937667E+02 0.75000000E+00 0.0000E+00 0.9000E+01
#aMCatNLO 2  0  0  1  2 0.16720711D+02 0.00000000D+00  -5  6  0 0.00000000D+00 0.00000000D+00 0.00000000D+00 0.00000000D+00 0.00000000D+00
  <mgrwgt>
 -.5231278472D-03    3    2    0
 0.278916871947188D+03 0.000000000000000D+00 0.000000000000000D+00 0.278916871947188D+03
 0.278916871947188D+03 0.000000000000000D+00 0.000000000000000D+00 -.278916871947188D+03
 0.133060268780027D+03 -.686395673750617D+01 0.197980858955317D+02 0.405087277088769D+02
 0.202761407468981D+03 -.141977260003626D+03 0.742397257672178D+02 0.947411904311045D+02
 0.222012067645367D+03 0.148841216741132D+03 -.940378116627495D+02 -.135249918139981D+03
 0.000000000000000D+00 -.000000000000000D+00 -.000000000000000D+00 0.000000000000000D+00
 0.314828548302580D+03 0.000000000000000D+00 0.000000000000000D+00 0.314828548302580D+03
 0.280995273149465D+03 0.000000000000000D+00 0.000000000000000D+00 -.280995273149465D+03
 0.133553867394116D+03 -.503845259253130D+01 0.233514982561304D+02 0.405087277088769D+02
 0.202887170515739D+03 -.139199788519403D+03 0.796461782972842D+02 0.947411904311045D+02
 0.221643246055680D+03 0.151878919939181D+03 -.881248083307699D+02 -.135249918139981D+03
 0.377395374865098D+02 -.764067882724671D+01 -.148728682226448D+02 0.338332751531150D+02
-.372348314057D-04 0.000000000000D+00 0.000000000000D+00 0.100125191571D-06 0.000000000000D+00  6 21 2 25 24 1 21 4 0.47418066D-01 0.43963947D-01 0.62246506D+05 0.62246506D+05 0.62246506D+05 0.11829724D+01  1  2 13  1  6  1       21 -.436602278905D-01 0.100000000000D+01
-.365901962812D-04 0.000000000000D+00 0.000000000000D+00 0.100125191571D-06 0.000000000000D+00  6 21 2 25 24 1 21 4 0.47510169D-01 0.43963947D-01 0.62246506D+05 0.62246506D+05 0.62246506D+05 0.11829724D+01  1  2 13  1  6  1       21 -.427313192314D-01 0.100000000000D+01
0.733557478591D-04 0.000000000000D+00 0.000000000000D+00 0.100617851206D-06 0.617792487203D-08  6 21 2 25 24 1 21 4 0.47274344D-01 0.44291552D-01 0.62246506D+05 0.62246506D+05 0.62246506D+05 0.11829724D+01  1  2  1  1  6  1       21 0.858684192748D-01 0.100000000000D+01
  </mgrwgt>
  </event>
  <event>
  5     66 0.42910585E-03 0.26791177E+02 0.75467711E-02 0.11398325E+00
       21 -1    0    0  501  502 0.00000000E+00 0.00000000E+00 0.10663021E+03 0.10663285E+03 0.75000000E+00 0.0000E+00 0.9000E+01
        2 -1    0    0  502    0 0.00000000E+00 0.00000000E+00 -.28949497E+03 0.28949515E+03 0.32000000E+00 0.0000E+00 0.9000E+01
       25  1    1    2    0    0 0.63146726E+02 0.86433669E+02 -.14675728E+03 0.22050167E+03 0.12500000E+03 0.0000E+00 0.9000E+01
       24  1    1    2    0    0 -.75221499E+02 -.62519049E+02 0.48105455E+01 0.12671726E+03 0.80419002E+02 0.0000E+00 0.9000E+01
        1  1    1    2  501    0 0.12074772E+02 -.23914620E+02 -.40918033E+02 0.48909068E+02 0.32000000E+00 0.0000E+00 0.9000E+01
#aMCatNLO 1  0  0  2  1 0.30189247D+02 0.00000000D+00  -5  6  0 0.00000000D+00 0.00000000D+00 0.00000000D+00 0.00000000D+00 0.00000000D+00
  <mgrwgt>
 0.7928453779D-01    7    2    0
 0.175697086794027D+03 0.000000000000000D+00 0.000000000000000D+00 0.175697086794027D+03
 0.175697086794027D+03 0.000000000000000D+00 0.000000000000000D+00 -.175697086794027D+03
 0.172200239331025D+03 0.631464618191831D+02 0.864341930816389D+02 -.506909957655858D+02
 0.145352355843533D+03 -.752217220733217D+02 -.625186071781797D+02 0.713667126867911D+02
 0.338415784134950D+02 0.120752602541385D+02 -.239155859034592D+02 -.206757169212053D+02
 0.000000000000000D+00 -.000000000000000D+00 0.000000000000000D+00 -.000000000000000D+00
 0.228879148384814D+03 0.000000000000000D+00 0.000000000000000D+00 0.228879148384814D+03
 0.229060941629597D+03 0.000000000000000D+00 0.000000000000000D+00 -.229060941629597D+03
 0.191858383642571D+03 0.110620774732135D+03 0.798630485261822D+02 -.506909957655858D+02
 0.132811755293618D+03 -.389483055960086D+02 -.675393825947667D+02 0.713667126867911D+02
 0.391186682577488D+02 0.215894905514059D+02 -.252324955916917D+02 -.206757169212053D+02
 0.941512828204738D+02 -.932619596875326D+02 0.129088296602763D+02 -.181793244782956D+00
0.540814509872D-05 0.000000000000D+00 0.000000000000D+00 0.191931851285D-06 0.000000000000D+00  6 21 2 25 24 1 21 2 0.16404864D-01 0.44537904D-01 0.25278963D+05 0.25278963D+05 0.25278963D+05 0.12227813D+01  1  2  2  2  6  2        2 0.379459537737D-01 0.100000000000D+01
-.667795186911D-07 0.285395657662D-06 -.109174867986D-07 0.191931851285D-06 0.000000000000D+00  6 21 2 25 24 1 21 4 0.16404864D-01 0.44537904D-01 0.25278963D+05 0.25278963D+05 0.25278963D+05 0.12227813D+01  1  2  3  2  6  2        2 -.700580424538D-03 0.100000000000D+01
0.547640044517D-06 0.000000000000D+00 0.000000000000D+00 0.191931851285D-06 0.000000000000D+00  6 21 2 25 24 1 21 4 0.16404864D-01 0.44537904D-01 0.25278963D+05 0.25278963D+05 0.25278963D+05 0.12227813D+01  1  2 15  2  6  2        2 0.574526295490D-02 0.100000000000D+01
-.214212624224D-05 0.000000000000D+00 0.000000000000D+00 0.191931851285D-06 0.000000000000D+00  6 21 2 25 24 1 21 4 0.16404864D-01 0.44537904D-01 0.25278963D+05 0.25278963D+05 0.25278963D+05 0.12227813D+01  1  2  4  2  6  2        2 -.224729339417D-01 0.100000000000D+01
-.830270647934D-05 0.000000000000D+00 -.610728829521D-05 0.191931851285D-06 0.000000000000D+00  6 21 2 25 24 1 21 4 0.16404864D-01 0.73454170D-01 0.25278963D+05 0.25278963D+05 0.25278963D+05 0.12227813D+01  1  2  5  2  6  2        2 -.508985123374D-01 0.100000000000D+01
0.106848875363D-04 0.000000000000D+00 0.541525487194D-05 0.191931851285D-06 0.000000000000D+00  6 21 2 25 24 1 21 4 0.16404864D-01 0.44537904D-01 0.25278963D+05 0.25278963D+05 0.25278963D+05 0.12227813D+01  1  2  6  2  6  2        2 0.112094594167D+00 0.100000000000D+01
-.192701013678D-06 0.000000000000D+00 -.344519804166D-06 0.191931851285D-06 0.000000000000D+00  6 21 21 25 24 1 -2 4 0.16404864D-01 0.73454170D-01 0.25278963D+05 0.25278963D+05 0.25278963D+05 0.12227813D+01  1  2  5 10  6  2        2 -.242924640329D-02 0.100000000000D+01
  </mgrwgt>
  </event>
  <event>
  6     66 -.42910585E-03 0.20286728E+02 0.75467711E-02 0.11409750E+00
       21 -1    0    0  503  502 0.00000000E+00 0.00000000E+00 0.14183940E+03 0.14184138E+03 0.75000000E+00 0.0000E+00 0.9000E+01
        2 -1    0    0  502    0 0.00000000E+00 0.00000000E+00 -.10619231E+04 0.10619231E+04 0.32000000E+00 0.0000E+00 0.9000E+01
       25  1    1    2    0    0 -.16178670E+03 0.30409094E+02 -.50646721E+03 0.54702256E+03 0.12500000E+03 0.0000E+00 0.9000E+01
       24  1    1    2    0    0 0.11680472E+03 -.21446750E+02 -.51040167E+03 0.53017015E+03 0.80419002E+02 0.0000E+00 0.9000E+01
        1  1    1    2  501    0 0.30306319E+02 0.21770423E+02 0.80678521E+02 0.88890666E+02 0.32000000E+00 0.0000E+00 0.9000E+01
       21  1    1    2  503  501 0.14675660E+02 -.30732767E+02 0.16106695E+02 0.37681110E+02 0.75000000E+00 0.0000E+00 0.9000E+01
#aMCatNLO 2  0  0  1  2 0.34056981D+02 0.00000000D+00  -5  6  0 0.00000000D+00 0.00000000D+00 0.00000000D+00 0.00000000D+00 0.00000000D+00
  <mgrwgt>
 -.1479474733D+00    2    2    0
 0.347180853123713D+03 0.000000000000000D+00 0.000000000000000D+00 0.347180853123713D+03
 0.347180853123713D+03 0.000000000000000D+00 0.000000000000000D+00 -.347180853123713D+03
 0.231025620958281D+03 -.156859472855825D+03 0.200908022851452D+02 -.112868520757964D+03
 0.205602935466006D+03 0.121108956754439D+03 -.304604004847594D+02 -.142162356881235D+03
 0.257733149823140D+03 0.357505161013858D+02 0.103695981996142D+02 0.255030877639199D+03
 0.000000000000000D+00 0.000000000000000D+00 -.000000000000000D+00 0.000000000000000D+00
 0.428923355270550D+03 0.000000000000000D+00 0.000000000000000D+00 0.428923355270550D+03
 0.351163765581894D+03 0.000000000000000D+00 0.000000000000000D+00 -.351163765581894D+03
 0.235507869405730D+03 -.161786713385826D+03 0.304090931424783D+02 -.112868520757964D+03
 0.201942210120921D+03 0.116804714935542D+03 -.214467510115373D+02 -.142162356881235D+03
 0.257746336643451D+03 0.303063379864974D+02 0.217704244687014D+02 0.255030877639199D+03
 0.848907046823418D+02 0.146756604637869D+02 -.307327665996424D+02 0.777595896886559D+02
-.134887840256D-03 0.000000000000D+00 0.000000000000D+00 0.411062278254D-05 0.000000000000D+00  6 21 2 25 24 1 21 4 0.21906783D-01 0.16151920D+00 0.44414697D+05 0.44414697D+05 0.44414697D+05 0.11974103D+01  1  2 13  1  6  1       21 -.167039332608D+00 0.100000000000D+01
0.155580384213D-04 0.000000000000D+00 0.000000000000D+00 0.416184998823D-05 0.252660295551D-07  6 21 2 25 24 1 21 4 0.21821500D-01 0.16337217D+00 0.44414697D+05 0.44414697D+05 0.44414697D+05 0.11974103D+01  1  2  1  1  6  1       21 0.190918593559D-01 0.100000000000D+01
  </mgrwgt>
  </event>
  <event>
  6     66 -.42910585E-03 0.72737790E+02 0.75467711E-02 0.11519109E+00
       21 -1    0    0  501  503 0.00000000E+00 0.00000000E+00 0.38933114E+02 0.38940337E+02 0.75000000E+00 0.0000E+00 0.9000E+01
        2 -1    0    0  502    0 0.00000000E+00 0.00000000E+00 -.20163680E+04 0.20163681E+04 0.32000000E+00 0.0000E+00 0.9000E+01
       25  1    1    2    0    0 0.13313589E+03 0.70432654E+02 -.13315665E+04 0.13458753E+04 0.12500000E+03 0.0000E+00 0.9000E+01
       24  1    1    2    0    0 -.52166861E+02 -.47934519E+02 -.58707982E+03 0.59678223E+03 0.80419002E+02 0.0000E+00 0.9000E+01
        1  1    1    2  501    0 -.78533295E+02 -.98977252E+01 -.37053502E+02 0.87398557E+02 0.32000000E+00 0.0000E+00 0.9000E+01
       21  1    1    2  502  503 -.24357303E+01 -.12600410E+02 -.21735089E+02 0.25252321E+02 0.75000000E+00 0.0000E+00 0.9000E+01
#aMCatNLO 2  0  0  1  2 0.12833671D+02 0.00000000D+00  -5  6  0 0.00000000D+00 0.00000000D+00 0.00000000D+00 0.00000000D+00 0.00000000D+00
  <mgrwgt>
 -.3721403637D-01    3    2    0
 0.272121819123468D+03 0.000000000000000D+00 0.000000000000000D+00 0.272121819123468D+03
 0.272121819123468D+03 0.000000000000000D+00 0.000000000000000D+00 -.272121819123468D+03
 0.233068764265852D+03 0.132088156954352D+03 0.650123575009099D+02 -.130469004138867D+03
 0.117742397591703D+03 -.526906351970999D+02 -.506442029624596D+02 -.453312023345445D+02
 0.193432476389381D+03 -.793975217572520D+02 -.143681545384503D+02 0.175800206473412D+03
 0.000000000000000D+00 -.000000000000000D+00 -.000000000000000D+00 0.000000000000000D+00
 0.285064078225998D+03 0.000000000000000D+00 0.000000000000000D+00 0.285064078225998D+03
 0.275397668951670D+03 0.000000000000000D+00 0.000000000000000D+00 -.275397668951670D+03
 0.235229882948339D+03 0.133135932793745D+03 0.704326642264845D+02 -.130469004138867D+03
 0.116366792487829D+03 -.521668370725389D+02 -.479345141238188D+02 -.453312023345445D+02
 0.192798255552766D+03 -.785333654506568D+02 -.989774010009282D+01 0.175800206473412D+03
 0.160668161887359D+02 -.243573027054941D+01 -.126004100025729D+02 0.966640927432811D+01
-.130919666997D-04 0.000000000000D+00 0.000000000000D+00 0.679634954902D-06 0.000000000000D+00  6 21 2 25 24 1 21 4 0.60234312D-02 0.30651140D+00 0.38985379D+05 0.38985379D+05 0.38985379D+05 0.12031350D+01  1  2 13  1  6  1       21 -.521632117885D-01 0.100000000000D+01
-.280636355053D-05 0.000000000000D+00 0.000000000000D+00 0.682842014293D-06 0.000000000000D+00  6 21 2 25 24 1 21 4 0.57181215D-02 0.30651140D+00 0.36573228D+05 0.36573228D+05 0.36573228D+05 0.12059704D+01  1  2  8  1  6  1       21 -.123640089503D-01 0.100000000000D+01
0.698805937357D-05 0.000000000000D+00 0.000000000000D+00 0.682842014293D-06 0.380289462961D-07  6 21 2 25 24 1 21 4 0.59900784D-02 0.31020124D+00 0.38985379D+05 0.38985379D+05 0.38985379D+05 0.12031350D+01  1  2  1  1  6  1       21 0.273131843694D-01 0.100000000000D+01
  </mgrwgt>
  </event>
  <event>
  5     66 0.42910585E-03 0.29836581E+02 0.75467711E-02 0.11909876E+00
       21 -1    0    0  501  502 0.00000000E+00 0.00000000E+00 0.55261266E+02 0.55266356E+02 0.75000000E+00 0.0000E+00 0.9000E+01
        2 -1    0    0  502    0 0.00000000E+00 0.00000000E+00 -.14222063E+04 0.14222063E+04 0.32000000E+00 0.0000E+00 0.9000E+01
       25  1    1    2    0    0 -.59364161E+02 0.52531454E+02 -.89942525E+03 0.91152314E+03 0.12500000E+03 0.0000E+00 0.9000E+01
       24  1    1    2    0    0 0.87277362E+02 -.41992313E+02 -.50361919E+03 0.51911482E+03 0.80419002E+02 0.0000E+00 0.9000E+01
        1  1    1    2  501    0 -.27913201E+02 -.10539141E+02 0.36099419E+02 0.46834717E+02 0.32000000E+00 0.0000E+00 0.9000E+01
#aMCatNLO 1  0  0  1  2 0.16593769D+02 0.00000000D+00  -5  6  0 0.00000000D+00 0.00000000D+00 0.00000000D+00 0.00000000D+00 0.00000000D+00
  <mgrwgt>
 0.4042127200D+00   23    2    0
 0.280351041235293D+03 0.000000000000000D+00 0.000000000000000D+00 0.280351041235293D+03
 0.280351041235293D+03 0.000000000000000D+00 0.000000000000000D+00 -.280351041235293D+03
 0.209176509535986D+03 -.593641490502279D+02 0.525314587658811D+02 -.147804451181720D+03
 0.140106911118056D+03 0.872773700203209D+02 -.419923098418407D+02 -.614982697736703D+02
 0.211418661816544D+03 -.279132209700929D+02 -.105391489240405D+02 0.209302720955390D+03
 0.000000000000000D+00 -.000000000000000D+00 0.000000000000000D+00 0.000000000000000D+00
 0.292755257090255D+03 0.000000000000000D+00 0.000000000000000D+00 0.292755257090255D+03
 0.286078838801224D+03 0.000000000000000D+00 0.000000000000000D+00 -.286078838801224D+03
 0.207138757732437D+03 -.534646152019140D+02 0.507626249037538D+02 -.147804451181720D+03
 0.142999291565638D+03 0.912892205497496D+02 -.431951670927191D+02 -.614982697736703D+02
 0.210809522641378D+03 -.219298961637135D+02 -.123331054971780D+02 0.209302720955390D+03
 0.178865239520248D+02 -.158947091841221D+02 0.476564768614322D+01 0.667641828903041D+01
0.150177281112D-04 0.000000000000D+00 0.000000000000D+00 0.802322888505D-05 0.000000000000D+00  6 21 2 25 24 1 21 2 0.85021275D-02 0.21880136D+00 0.23064617D+05 0.23064617D+05 0.23064617D+05 0.12270673D+01  1  2  2  1  6  1       21 0.476381817413D-01 0.100000000000D+01
0.391947137342D-05 0.792507285336D-06 -.303164662572D-07 0.802322888505D-05 0.000000000000D+00  6 21 2 25 24 1 21 4 0.85021275D-02 0.21880136D+00 0.23064617D+05 0.23064617D+05 0.23064617D+05 0.12270673D+01  1  2  3  1  6  1       21 0.187204029759D-01 0.100000000000D+01
0.155975380955D-05 0.000000000000D+00 0.000000000000D+00 0.802322888505D-05 0.000000000000D+00  6 21 2 25 24 1 21 4 0.85021275D-02 0.21880136D+00 0.23064617D+05 0.23064617D+05 0.23064617D+05 0.12270673D+01  1  2 15  1  6  1       21 0.744978520729D-02 0.100000000000D+01
0.497001616298D-04 0.000000000000D+00 0.000000000000D+00 0.797497847405D-05 0.000000000000D+00  6 21 2 25 24 1 21 4 0.89623029D-02 0.21880136D+00 0.24960095D+05 0.24960095D+05 0.24960095D+05 0.12233720D+01  1  2 12  1  6  1       21 0.213612234901D+00 0.100000000000D+01
-.164936369534D-04 0.000000000000D+00 0.000000000000D+00 0.802322888505D-05 0.000000000000D+00  6 21 2 25 24 1 21 4 0.85021275D-02 0.21880136D+00 0.23064617D+05 0.23064617D+05 0.23064617D+05 0.12270673D+01  1  2  4  1  6  1       21 -.787778506054D-01 0.100000000000D+01
-.385329642595D-03 0.000000000000D+00 -.750859630701D-04 0.802322888505D-05 0.000000000000D+00  6 21 2 25 24 1 21 4 0.90686579D-02 0.21880136D+00 0.23064617D+05 0.23064617D+05 0.23064617D+05 0.12270673D+01  1  2  5  1  6  1       21 -.164490150409D+01 0.100000000000D+01
0.387030903072D-03 0.000000000000D+00 0.744647231493D-04 0.802322888505D-05 0.000000000000D+00  6 21 2 25 24 1 21 4 0.85021275D-02 0.21880136D+00 0.23064617D+05 0.23064617D+05 0.23064617D+05 0.12270673D+01  1  2  6  1  6  1       21 0.184855909876D+01 0.100000000000D+01
0.873612435731D-06 0.000000000000D+00 0.000000000000D+00 0.797497847405D-05 0.000000000000D+00  6 -1 2 25 24 1 -1 4 0.89623029D-02 0.21880136D+00 0.24960095D+05 0.24960095D+05 0.24960095D+05 0.12233720D+01  1  2 12  4  6  1       21 0.244063264591D-03 0.100000000000D+01
-.498833540791D-05 0.000000000000D+00 -.118070302898D-05 0.802322888505D-05 0.000000000000D+00  6 -1 2 25 24 1 -1 4 0.90686579D-02 0.21880136D+00 0.23064617D+05 0.23064617D+05 0.23064617D+05 0.12270673D+01  1  2  5  4  6  1       21 -.138605362685D-02 0.100000000000D+01
0.873612435731D-06 0.000000000000D+00 0.000000000000D+00 0.797497847405D-05 0.000000000000D+00  6 1 2 25 24 1 1 4 0.89623029D-02 0.21880136D+00 0.24960095D+05 0.24960095D+05 0.24960095D+05 0.12233720D+01  1  2 12  5  6  1       21 0.299391006288D-03 0.100000000000D+01
-.498833540791D-05 0.000000000000D+00 -.118070302898D-05 0.802322888505D-05 0.000000000000D+00  6 1 2 25 24 1 1 4 0.90686579D-02 0.21880136D+00 0.23064617D+05 0.23064617D+05 0.23064617D+05 0.12270673D+01  1  2  5  5  6  1       21 -.170418352551D-02 0.100000000000D+01
0.873612435731D-06 0.000000000000D+00 0.000000000000D+00 0.797497847405D-05 0.000000000000D+00  6 -2 2 25 24 1 -2 4 0.89623029D-02 0.21880136D+00 0.24960095D+05 0.24960095D+05 0.24960095D+05 0.12233720D+01  1  2 12  6  6  1       21 0.234443997136D-03 0.100000000000D+01
-.498833540791D-05 0.000000000000D+00 -.118070302898D-05 0.802322888505D-05 0.000000000000D+00  6 -2 2 25 24 1 -2 4 0.90686579D-02 0.21880136D+00 0.23064617D+05 0.23064617D+05 0.23064617D+05 0.12270673D+01  1  2  5  6  6  1       21 -.133073539158D-02 0.100000000000D+01
0.873612435731D-06 0.000000000000D+00 0.000000000000D+00 0.797497847405D-05 0.000000000000D+00  6 2 2 25 24 1 2 4 0.89623029D-02 0.21880136D+00 0.24960095D+05 0.24960095D+05 0.24960095D+05 0.12233720D+01  1  2 12  7  6  1       21 0.336735894582D-03 0.100000000000D+01
-.498833540791D-05 0.000000000000D+00 -.118070302898D-05 0.802322888505D-05 0.000000000000D+00  6 2 2 25 24 1 2 4 0.90686579D-02 0.21880136D+00 0.23064617D+05 0.23064617D+05 0.23064617D+05 0.12270673D+01  1  2  5  7  6  1       21 -.191887219046D-02 0.100000000000D+01
0.873612435731D-06 0.000000000000D+00 0.000000000000D+00 0.797497847405D-05 0.000000000000D+00  6 -3 2 25 24 1 -3 4 0.89623029D-02 0.21880136D+00 0.24960095D+05 0.24960095D+05 0.24960095D+05 0.12233720D+01  1  2 12  8  6  1       21 0.163581639175D-03 0.100000000000D+01
0.873612435731D-06 0.000000000000D+00 0.000000000000D+00 0.797497847405D-05 0.000000000000D+00  6 -4 2 25 24 1 -4 4 0.89623029D-02 0.21880136D+00 0.24960095D+05 0.24960095D+05 0.24960095D+05 0.12233720D+01  1  2 12  8  6  1       21 0.143710415980D-03 0.100000000000D+01
-.498833540791D-05 0.000000000000D+00 -.118070302898D-05 0.802322888505D-05 0.000000000000D+00  6 -3 2 25 24 1 -3 4 0.90686579D-02 0.21880136D+00 0.23064617D+05 0.23064617D+05 0.23064617D+05 0.12270673D+01  1  2  5  8  6  1       21 -.925991865055D-03 0.100000000000D+01
-.498833540791D-05 0.000000000000D+00 -.118070302898D-05 0.802322888505D-05 0.000000000000D+00  6 -4 2 25 24 1 -4 4 0.90686579D-02 0.21880136D+00 0.23064617D+05 0.23064617D+05 0.23064617D+05 0.12270673D+01  1  2  5  8  6  1       21 -.812556205544D-03 0.100000000000D+01
0.873612435731D-06 0.000000000000D+00 0.000000000000D+00 0.797497847405D-05 0.000000000000D+00  6 3 2 25 24 1 3 4 0.89623029D-02 0.21880136D+00 0.24960095D+05 0.24960095D+05 0.24960095D+05 0.12233720D+01  1  2 12  9  6  1       21 0.163561783538D-03 0.100000000000D+01
0.873612435731D-06 0.000000000000D+00 0.000000000000D+00 0.797497847405D-05 0.000000000000D+00  6 4 2 25 24 1 4 4 0.89623029D-02 0.21880136D+00 0.24960095D+05 0.24960095D+05 0.24960095D+05 0.12233720D+01  1  2 12  9  6  1       21 0.143710415980D-03 0.100000000000D+01
-.498833540791D-05 0.000000000000D+00 -.118070302898D-05 0.802322888505D-05 0.000000000000D+00  6 3 2 25 24 1 3 4 0.90686579D-02 0.21880136D+00 0.23064617D+05 0.23064617D+05 0.23064617D+05 0.12270673D+01  1  2  5  9  6  1       21 -.925878342586D-03 0.100000000000D+01
-.498833540791D-05 0.000000000000D+00 -.118070302898D-05 0.802322888505D-05 0.000000000000D+00  6 4 2 25 24 1 4 4 0.90686579D-02 0.21880136D+00 0.23064617D+05 0.23064617D+05 0.23064617D+05 0.12270673D+01  1  2  5  9  6  1       21 -.812556205544D-03 0.100000000000D+01
  </mgrwgt>
  </event>
  <event>
  5     66 0.42910585E-03 0.50486058E+02 0.75467711E-02 0.11482276E+00
       21 -1    0    0  501  502 0.00000000E+00 0.00000000E+00 0.28629959E+03 0.28630057E+03 0.75000000E+00 0.0000E+00 0.9000E+01
        2 -1    0    0  502    0 0.00000000E+00 0.00000000E+00 -.15743933E+03 0.15743966E+03 0.32000000E+00 0.0000E+00 0.9000E+01
       25  1    1    2    0    0 0.11303911E+03 -.10660496E+03 -.22011956E+02 0.20062897E+03 0.12500000E+03 0.0000E+00 0.9000E+01
       24  1    1    2    0    0 -.67977457E+02 0.83840012E+02 0.81634569E+02 0.15742141E+03 0.80419002E+02 0.0000E+00 0.9000E+01
        1  1    1    2  501    0 -.45061653E+02 0.22764949E+02 0.69237643E+02 0.85689842E+02 0.32000000E+00 0.0000E+00 0.9000E+01
#aMCatNLO 1  0  0  1  1 0.18319314D+02 0.00000000D+00  -5  6  0 0.00000000D+00 0.00000000D+00 0.00000000D+00 0.00000000D+00 0.00000000D+00
  <mgrwgt>
 0.2015531911D-01    4    2    0
 0.212308986041142D+03 0.000000000000000D+00 0.000000000000000D+00 0.212308986041142D+03
 0.212308986041142D+03 0.000000000000000D+00 0.000000000000000D+00 -.212308986041142D+03
 0.216344435693542D+03 0.113039359478118D+03 -.106605087118253D+03 -.838890544996397D+02
 0.139736639225929D+03 -.679772950271279D+02 0.838399305063976D+02 0.375375252416054D+02
 0.685368971628122D+02 -.450620644509899D+02 0.227651566118556D+02 0.463515292580344D+02
 0.000000000000000D+00 0.000000000000000D+00 -.000000000000000D+00 -.000000000000000D+00
 0.215977113798134D+03 0.000000000000000D+00 0.000000000000000D+00 0.215977113798134D+03
 0.236680558690231D+03 0.000000000000000D+00 0.000000000000000D+00 -.236680558690231D+03
 0.210291458044922D+03 0.104523934452873D+03 -.103125510851133D+03 -.838890544996397D+02
 0.143949676586458D+03 -.736395226747368D+02 0.861536321576061D+02 0.375375252416054D+02
 0.707718292849052D+02 -.478425923738353D+02 0.239013370070460D+02 0.463515292580344D+02
 0.276447085720798D+02 0.169581805956990D+02 -.692945831351895D+01 -.207034448920967D+02
0.126335193522D-04 0.000000000000D+00 0.000000000000D+00 0.288238230579D-06 0.000000000000D+00  6 21 2 25 24 1 21 2 0.44046191D-01 0.24221536D-01 0.36960917D+05 0.36960917D+05 0.36960917D+05 0.12055008D+01  1  2  2  1  6  1       21 0.248720464290D-01 0.100000000000D+01
0.290404129102D-06 0.666689132465D-06 -.255034356938D-07 0.288238230579D-06 0.000000000000D+00  6 21 2 25 24 1 21 4 0.44046191D-01 0.24221536D-01 0.36960917D+05 0.36960917D+05 0.36960917D+05 0.12055008D+01  1  2  3  1  6  1       21 0.830854531100D-03 0.100000000000D+01
0.117328004871D-05 0.000000000000D+00 0.000000000000D+00 0.288238230579D-06 0.000000000000D+00  6 21 2 25 24 1 21 4 0.44046191D-01 0.24221536D-01 0.36960917D+05 0.36960917D+05 0.36960917D+05 0.12055008D+01  1  2 15  1  6  1       21 0.335678782439D-02 0.100000000000D+01
-.311229658514D-05 0.000000000000D+00 0.000000000000D+00 0.288238230579D-06 0.000000000000D+00  6 21 2 25 24 1 21 4 0.44046191D-01 0.24221536D-01 0.36960917D+05 0.36960917D+05 0.36960917D+05 0.12055008D+01  1  2  4  1  6  1       21 -.890436967232D-02 0.100000000000D+01
  </mgrwgt>
  </event>
  <event>
  5     66 0.42910585E-03 0.19671066E+03 0.75467711E-02 0.10733882E+00
       21 -1    0    0  501  502 0.00000000E+00 0.00000000E+00 0.25874655E+03 0.25874764E+03 0.75000000E+00 0.0000E+00 0.9000E+01
        2 -1    0    0  502    0 0.00000000E+00 0.00000000E+00 -.63871457E+03 0.63871465E+03 0.32000000E+00 0.0000E+00 0.9000E+01
       25  1    1    2    0    0 -.21570566E+02 0.23186410E+03 -.53069387E+02 0.26956930E+03 0.12500000E+03 0.0000E+00 0.9000E+01
       24  1    1    2    0    0 -.37267207E+02 -.44159069E+02 0.11045023E+03 0.14834196E+03 0.80419002E+02 0.0000E+00 0.9000E+01
        1  1    1    2  501    0 0.58837773E+02 -.18770503E+03 -.43734886E+03 0.47955103E+03 0.32000000E+00 0.0000E+00 0.9000E+01
#aMCatNLO 1  0  0  1  1 0.97337958D+02 0.00000000D+00  -5  6  0 0.00000000D+00 0.00000000D+00 0.00000000D+00 0.00000000D+00 0.00000000D+00
  <mgrwgt>
 0.5436593301D-01    4    2    0
 0.406528862751074D+03 0.000000000000000D+00 0.000000000000000D+00 0.406528862751074D+03
 0.406528862751074D+03 0.000000000000000D+00 0.000000000000000D+00 -.406528862751074D+03
 0.272752644164095D+03 -.215705756236632D+02 0.231864128954344D+03 0.673998580860002D+02
 0.215358494652189D+03 -.372672147150706D+02 -.441590444671480D+02 0.191241205715755D+03
 0.324946586685864D+03 0.588377903387338D+02 -.187705084487196D+03 -.258641063801755D+03
 0.000000000000000D+00 0.000000000000000D+00 -.000000000000000D+00 -.000000000000000D+00
 0.422755820657632D+03 0.000000000000000D+00 0.000000000000000D+00 0.422755820657632D+03
 0.587205949880849D+03 0.000000000000000D+00 0.000000000000000D+00 -.587205949880849D+03
 0.297356137774436D+03 -.438606440359509D+02 0.257544512088431D+03 0.673998580860002D+02
 0.215828395475593D+03 -.541257259043722D+02 -.247363572683545D+02 0.191241205715755D+03
 0.305679034756377D+03 0.341816392850834D+02 -.159298738039168D+03 -.258641063801755D+03
 0.191098202532074D+03 0.638047306552397D+02 -.735094167809087D+02 -.164450129223216D+03
0.118022233873D-03 0.000000000000D+00 0.000000000000D+00 0.469630117187D-07 0.000000000000D+00  6 21 2 25 24 1 21 2 0.39807251D-01 0.98263870D-01 0.78408463D+05 0.78408463D+05 0.78408463D+05 0.11734023D+01  1  2  2  1  6  1       21 0.566041900139D-01 0.100000000000D+01
-.146831203484D-04 0.622820439172D-05 -.238252886476D-06 0.469630117187D-07 0.000000000000D+00  6 21 2 25 24 1 21 4 0.39807251D-01 0.98263870D-01 0.78408463D+05 0.78408463D+05 0.78408463D+05 0.11734023D+01  1  2  3  1  6  1       21 -.969609744922D-02 0.100000000000D+01
0.139177290715D-04 0.000000000000D+00 0.000000000000D+00 0.469630117187D-07 0.000000000000D+00  6 21 2 25 24 1 21 4 0.39807251D-01 0.98263870D-01 0.78408463D+05 0.78408463D+05 0.78408463D+05 0.11734023D+01  1  2 15  1  6  1       21 0.919066616271D-02 0.100000000000D+01
-.262407517505D-05 0.000000000000D+00 0.000000000000D+00 0.469630117187D-07 0.000000000000D+00  6 21 2 25 24 1 21 4 0.39807251D-01 0.98263870D-01 0.78408463D+05 0.78408463D+05 0.78408463D+05 0.11734023D+01  1  2  4  1  6  1       21 -.173282572149D-02 0.100000000000D+01
  </mgrwgt>
  </event>
  <event>
  5     66 0.42910585E-03 0.11388900E+03 0.75467711E-02 0.11030083E+00
       21 -1    0    0  501  502 0.00000000E+00 0.00000000E+00 0.99698559E+02 0.99701380E+02 0.75000000E+00 0.0000E+00 0.9000E+01
        2 -1    0    0  502    0 -.00000000E+00 -.00000000E+00 -.10187837E+04 0.10187838E+04 0.32000000E+00 0.0000E+00 0.9000E+01
       25  1    1    2    0    0 0.88035236E+02 0.28999073E+01 -.26834693E+03 0.30885868E+03 0.12500000E+03 0.0000E+00 0.9000E+01
       24  1    1    2    0    0 -.19396062E+03 0.38939069E+02 -.66160861E+03 0.69521949E+03 0.80419002E+02 0.0000E+00 0.9000E+01
        1  1    1    2  501    0 0.10592538E+03 -.41838976E+02 0.10870388E+02 0.11440697E+03 0.32000000E+00 0.0000E+00 0.9000E+01
#aMCatNLO 1  0  0  5  2 0.71119055D+02 0.00000000D+00  -5  6  0 0.00000000D+00 0.00000000D+00 0.00000000D+00 0.00000000D+00 0.00000000D+00
  <mgrwgt>
 0.2032938077D-01    6    2    0
 0.318704994411641D+03 0.000000000000000D+00 0.000000000000000D+00 0.318704994411641D+03
 0.318704994411641D+03 -.000000000000000D+00 -.000000000000000D+00 -.318704994411641D+03
 0.155033914145987D+03 0.880352076606436D+02 0.289991840384700D+01 -.255324738484872D+02
 0.265948258414000D+03 -.193960664506466D+03 0.389390882455579D+02 -.158506366527922D+03
 0.216427816263295D+03 0.105925456845822D+03 -.418390066494049D+02 0.184038840376409D+03
 0.000000000000000D+00 0.000000000000000D+00 0.000000000000000D+00 0.000000000000000D+00
 0.318704994411641D+03 0.000000000000000D+00 0.000000000000000D+00 0.318704994411641D+03
 0.318704994411641D+03 -.000000000000000D+00 -.000000000000000D+00 -.318704994411641D+03
 0.157326828339258D+03 0.944413664270626D+02 0.369579359707030D+00 -.144021746197101D+02
 0.246966152322374D+03 -.183441381184822D+03 0.347841251427615D+02 -.140229771252773D+03
 0.136699841051757D+03 0.893881338300880D+02 0.406794989292155D+02 0.950883086442172D+02
 0.964171671098920D+02 -.388119072329044D+00 -.758332034316840D+02 0.595436372282662D+02
0.184220265541D-04 0.000000000000D+00 0.000000000000D+00 0.197396560380D-06 0.000000000000D+00  6 21 2 25 24 1 21 2 0.15338461D-01 0.15673618D+00 0.57685811D+05 0.57685811D+05 0.57685811D+05 0.11861803D+01  1  2  2  3  6  5        1 0.313500651137D-01 0.100000000000D+01
0.995408039806D-07 0.972157049765D-06 -.371887639915D-07 0.197396560380D-06 0.000000000000D+00  6 21 2 25 24 1 21 4 0.15338461D-01 0.15673618D+00 0.57685811D+05 0.57685811D+05 0.57685811D+05 0.11861803D+01  1  2  3  3  6  5        1 0.238343642228D-03 0.100000000000D+01
0.200324423080D-05 0.000000000000D+00 0.000000000000D+00 0.197396560380D-06 0.000000000000D+00  6 21 2 25 24 1 21 4 0.15338461D-01 0.15673618D+00 0.57685811D+05 0.57685811D+05 0.57685811D+05 0.11861803D+01  1  2 15  3  6  5        1 0.479663120195D-02 0.100000000000D+01
-.101311790718D-04 0.000000000000D+00 0.000000000000D+00 0.197396560380D-06 0.000000000000D+00  6 21 2 25 24 1 21 4 0.15338461D-01 0.15673618D+00 0.57685811D+05 0.57685811D+05 0.57685811D+05 0.11861803D+01  1  2  4  3  6  5        1 -.242584148759D-01 0.100000000000D+01
-.646781716666D-05 0.000000000000D+00 0.000000000000D+00 0.197396560380D-06 0.000000000000D+00  6 21 2 25 24 1 21 4 0.15338461D-01 0.15673618D+00 0.57685811D+05 0.57685811D+05 0.57685811D+05 0.11861803D+01  1  2  5  3  6  5        1 -.154867455267D-01 0.100000000000D+01
0.989358043870D-05 0.000000000000D+00 -.000000000000D+00 0.197396560380D-06 0.000000000000D+00  6 21 2 25 24 1 21 4 0.15338461D-01 0.15673618D+00 0.57685811D+05 0.57685811D+05 0.57685811D+05 0.11861803D+01  1  2  6  3  6  5        1 0.236895012109D-01 0.100000000000D+01
  </mgrwgt>
  </event>
  <event>
  5     66 0.42910585E-03 0.84422489E+02 0.75467711E-02 0.11303946E+00
       21 -1    0    0  501  502 0.00000000E+00 0.00000000E+00 0.93054348E+02 0.93057370E+02 0.75000000E+00 0.0000E+00 0.9000E+01
        2 -1    0    0  502    0 0.00000000E+00 0.00000000E+00 -.49878793E+03 0.49878803E+03 0.32000000E+00 0.0000E+00 0.9000E+01
       25  1    1    2    0    0 0.20364320E+02 -.13498341E+03 -.18650841E+03 0.26276533E+03 0.12500000E+03 0.0000E+00 0.9000E+01
       24  1    1    2    0    0 -.41751812E+02 0.53315222E+02 -.22089838E+03 0.24464063E+03 0.80419002E+02 0.0000E+00 0.9000E+01
        1  1    1    2  501    0 0.21387492E+02 0.81668191E+02 0.16732147E+01 0.84439448E+02 0.32000000E+00 0.0000E+00 0.9000E+01
#aMCatNLO 1  0  0  1  1 0.65653772D+02 0.00000000D+00  -5  6  0 0.00000000D+00 0.00000000D+00 0.00000000D+00 0.00000000D+00 0.00000000D+00
  <mgrwgt>
 0.4354097204D-01    4    2    0
 0.215442127615175D+03 0.000000000000000D+00 0.000000000000000D+00 0.215442127615175D+03
 0.215442127615175D+03 0.000000000000000D+00 0.000000000000000D+00 -.215442127615175D+03
 0.185302116381622D+03 0.203642859359036D+02 -.134983543140563D+03 -.875290095045957D+01
 0.128024055509161D+03 -.417518352097873D+02 0.533151318714290D+02 -.730563057154485D+02
 0.117558083339567D+03 0.213875492738836D+02 0.816684112691341D+02 0.818092066659081D+02
 0.000000000000000D+00 0.000000000000000D+00 -.000000000000000D+00 -.000000000000000D+00
 0.232198894522750D+03 0.000000000000000D+00 0.000000000000000D+00 0.232198894522750D+03
 0.293442998947936D+03 0.000000000000000D+00 0.000000000000000D+00 -.293442998947936D+03
 0.173424595926480D+03 -.221960538088246D+01 -.119873060147673D+03 -.875290095045957D+01
 0.139306496203583D+03 -.585818172501314D+02 0.645757757447125D+02 -.730563057154485D+02
 0.123126291900507D+03 0.623509592827977D+01 0.918066503072015D+02 0.818092066659081D+02
 0.897845094401163D+02 0.545663267027341D+02 -.365093659042412D+02 -.612441044251858D+02
0.931855154127D-05 0.000000000000D+00 0.000000000000D+00 0.270878510122D-06 0.000000000000D+00  6 21 2 25 24 1 21 2 0.14316294D-01 0.76736845D-01 0.35090788D+05 0.35090788D+05 0.35090788D+05 0.12078183D+01  1  2  2  1  6  1       21 0.453909628475D-01 0.100000000000D+01
-.186139118376D-06 0.491753474996D-06 -.188114707681D-07 0.270878510122D-06 0.000000000000D+00  6 21 2 25 24 1 21 4 0.14316294D-01 0.76736845D-01 0.35090788D+05 0.35090788D+05 0.35090788D+05 0.12078183D+01  1  2  3  1  6  1       21 -.132270143003D-02 0.100000000000D+01
0.104654074741D-05 0.000000000000D+00 0.000000000000D+00 0.270878510122D-06 0.000000000000D+00  6 21 2 25 24 1 21 4 0.14316294D-01 0.76736845D-01 0.35090788D+05 0.35090788D+05 0.35090788D+05 0.12078183D+01  1  2 15  1  6  1       21 0.743670086796D-02 0.100000000000D+01
-.112074432604D-05 0.000000000000D+00 0.000000000000D+00 0.270878510122D-06 0.000000000000D+00  6 21 2 25 24 1 21 4 0.14316294D-01 0.76736845D-01 0.35090788D+05 0.35090788D+05 0.35090788D+05 0.12078183D+01  1  2  4  1  6  1       21 -.796399024390D-02 0.100000000000D+01
  </mgrwgt>
  </event>
  <event>
  6     66 -.42910585E-03 0.57093259E+02 0.75467711E-02 0.11679934E+00
       21 -1    0    0  501  503 0.00000000E+00 0.00000000E+00 0.16826665E+03 0.16826832E+03 0.75000000E+00 0.0000E+00 0.9000E+01
        2 -1    0    0  502    0 0.00000000E+00 0.00000000E+00 -.27990076E+03 0.27990095E+03 0.32000000E+00 0.0000E+00 0.9000E+01
       25  1    1    2    0    0 -.58242691E+02 -.12279051E+03 -.15028592E+03 0.23807683E+03 0.12500000E+03 0.0000E+00 0.9000E+01
       24  1    1    2    0    0 0.18586482E+02 0.74733209E+02 -.29610691E+02 0.11521510E+03 0.80419002E+02 0.0000E+00 0.9000E+01
        1  1    1    2  501    0 0.36330389E+02 0.36152400E+02 0.43639317E+02 0.67315567E+02 0.32000000E+00 0.0000E+00 0.9000E+01
       21  1    1    2  502  503 0.33258205E+01 0.11904901E+02 0.24623179E+02 0.27561771E+02 0.75000000E+00 0.0000E+00 0.9000E+01
#aMCatNLO 2  0  0  1  5 0.12360734D+02 0.00000000D+00  -5  6  0 0.00000000D+00 0.00000000D+00 0.00000000D+00 0.00000000D+00 0.00000000D+00
  <mgrwgt>
 -.8775192622D-01    3    2    0
 0.198866682097175D+03 0.000000000000000D+00 0.000000000000000D+00 0.198866682097175D+03
 0.198866682097175D+03 0.000000000000000D+00 0.000000000000000D+00 -.198866682097175D+03
 0.196121123717565D+03 -.565862641293048D+02 -.116860957339498D+03 -.773305019369773D+02
 0.114089345638807D+03 0.195299634817222D+02 0.781106181514686D+02 0.815320135399385D+01
 0.875228948379782D+02 0.370563006475827D+02 0.387503391880293D+02 0.691773005829834D+02
 0.000000000000000D+00 0.000000000000000D+00 0.000000000000000D+00 0.000000000000000D+00
 0.235472643026464D+03 0.000000000000000D+00 0.000000000000000D+00 0.235472643026464D+03
 0.200008901734057D+03 0.000000000000000D+00 0.000000000000000D+00 -.200008901734057D+03
 0.200186848403585D+03 -.582428149512987D+02 -.122790643985948D+03 -.773305019369773D+02
 0.111643123628857D+03 0.185864111592326D+02 0.747331367409320D+02 0.815320135399385D+01
 0.860954188868223D+02 0.363305833253328D+02 0.361526064425512D+02 0.691773005829834D+02
 0.375561538412577D+02 0.332582046673333D+01 0.119049008024647D+02 0.354637412924067D+02
-.219601276245D-04 0.000000000000D+00 0.000000000000D+00 0.433452734107D-06 0.000000000000D+00  6 21 2 25 24 1 21 4 0.25942260D-01 0.42815082D-01 0.32329289D+05 0.32329289D+05 0.32329289D+05 0.12115047D+01  1  2 13  1  6  1       21 -.982602927454D-01 0.100000000000D+01
-.163694238130D-04 0.000000000000D+00 0.000000000000D+00 0.433452734107D-06 0.000000000000D+00  6 21 2 25 24 1 21 4 0.27274810D-01 0.42815082D-01 0.32329289D+05 0.32329289D+05 0.32329289D+05 0.12115047D+01  1  2 13  1  6  1       21 -.665339434840D-01 0.100000000000D+01
0.172532068557D-04 0.000000000000D+00 0.000000000000D+00 0.435651640796D-06 0.856071451336D-07  6 21 2 25 24 1 21 4 0.25886837D-01 0.43060996D-01 0.32329289D+05 0.32329289D+05 0.32329289D+05 0.12115047D+01  1  2  1  1  6  1       21 0.770423100089D-01 0.100000000000D+01
  </mgrwgt>
  </event>
  <event>
  5     66 0.42910585E-03 0.23213150E+02 0.75467711E-02 0.12019106E+00
       21 -1    0    0  501  502 0.00000000E+00 0.00000000E+00 0.67621485E+01 0.68036132E+01 0.75000000E+00 0.0000E+00 0.9000E+01
        2 -1    0    0  502    0 0.00000000E+00 0.00000000E+00 -.33105654E+04 0.33105655E+04 0.32000000E+00 0.0000E+00 0.9000E+01
       25  1    1    2    0    0 0.73315603E+02 0.56656400E+02 -.19144750E+04 0.19207875E+04 0.12500000E+03 0.0000E+00 0.9000E+01
       24  1    1    2    0    0 -.69354905E+02 -.33784717E+02 -.12785313E+04 0.12833787E+04 0.80419002E+02 0.0000E+00 0.9000E+01
        1  1    1    2  501    0 -.39606978E+01 -.22871684E+02 -.11079699E+03 0.11320281E+03 0.32000000E+00 0.0000E+00 0.9000E+01
#aMCatNLO 1  0  0  2  1 0.72403378D+01 0.00000000D+00  -5  6  0 0.00000000D+00 0.00000000D+00 0.00000000D+00 0.00000000D+00 0.00000000D+00
  <mgrwgt>
 0.2202404667D+00   11    2    0
 0.149851049807827D+03 0.000000000000000D+00 0.000000000000000D+00 0.149851049807827D+03
 0.149851049807827D+03 0.000000000000000D+00 0.000000000000000D+00 -.149851049807827D+03
 0.156529967567458D+03 0.733157085997552D+02 0.566570109485533D+02 -.170710494569277D+02
 0.111527400778524D+03 -.693548296170444D+02 -.337842813914457D+02 -.443566338863403D+01
 0.316447312696713D+02 -.396087898271081D+01 -.228727295571076D+02 0.215067128455617D+02
 0.000000000000000D+00 0.000000000000000D+00 0.000000000000000D+00 -.000000000000000D+00
 0.151897080220051D+03 0.000000000000000D+00 0.000000000000000D+00 0.151897080220051D+03
 0.156440030685978D+03 0.000000000000000D+00 0.000000000000000D+00 -.156440030685978D+03
 0.154428317261635D+03 0.698164825826022D+02 0.552932473498586D+02 -.170710494569277D+02
 0.113417451834796D+03 -.718861430410357D+02 -.347708175819074D+02 -.443566338863403D+01
 0.319437754279624D+02 -.467644299204590D+01 -.231516084130842D+02 0.215067128455617D+02
 0.854756638163503D+01 0.674610345047936D+01 0.262917864513293D+01 -.454295046592684D+01
0.154421226429D-05 0.000000000000D+00 0.000000000000D+00 0.117046879733D-05 0.000000000000D+00  6 21 2 25 24 1 21 2 0.10435213D-02 0.50932095D+00 0.21061064D+05 0.21061064D+05 0.21061064D+05 0.12313621D+01  1  2  2  2  6  2        2 0.148918462876D-01 0.100000000000D+01
0.133246936717D-06 0.814903200066D-07 -.311731965432D-08 0.117046879733D-05 0.000000000000D+00  6 21 2 25 24 1 21 4 0.10435213D-02 0.50932095D+00 0.21061064D+05 0.21061064D+05 0.21061064D+05 0.12313621D+01  1  2  3  2  6  2        2 0.194836509375D-02 0.100000000000D+01
0.155347657242D-06 0.000000000000D+00 0.000000000000D+00 0.117046879733D-05 0.000000000000D+00  6 21 2 25 24 1 21 4 0.10435213D-02 0.50932095D+00 0.21061064D+05 0.21061064D+05 0.21061064D+05 0.12313621D+01  1  2 15  2  6  2        2 0.227152653731D-02 0.100000000000D+01
0.944993566807D-05 0.000000000000D+00 0.000000000000D+00 0.116592416585D-05 0.000000000000D+00  6 21 2 25 24 1 21 4 0.10435213D-02 0.53508976D+00 0.22152167D+05 0.22152167D+05 0.22152167D+05 0.12289692D+01  1  2 12  2  6  2        2 0.107275619285D+00 0.100000000000D+01
-.453156814226D-05 0.000000000000D+00 0.000000000000D+00 0.117046879733D-05 0.000000000000D+00  6 21 2 25 24 1 21 4 0.10435213D-02 0.50932095D+00 0.21061064D+05 0.21061064D+05 0.21061064D+05 0.12313621D+01  1  2  4  2  6  2        2 -.662615547186D-01 0.100000000000D+01
-.514112379357D-04 0.000000000000D+00 -.688704184247D-05 0.117046879733D-05 0.000000000000D+00  6 21 2 25 24 1 21 4 0.10435213D-02 0.53356537D+00 0.21061064D+05 0.21061064D+05 0.21061064D+05 0.12313621D+01  1  2  5  2  6  2        2 -.597870147907D+00 0.100000000000D+01
0.517158400768D-04 0.000000000000D+00 0.689159012874D-05 0.117046879733D-05 0.000000000000D+00  6 21 2 25 24 1 21 4 0.10435213D-02 0.50932095D+00 0.21061064D+05 0.21061064D+05 0.21061064D+05 0.12313621D+01  1  2  6  2  6  2        2 0.756200030428D+00 0.100000000000D+01
0.178604665492D-06 0.000000000000D+00 0.000000000000D+00 0.117046879733D-05 0.185919544121D-06  6 21 2 25 24 1 21 4 0.10577693D-02 0.53171590D+00 0.22152167D+05 0.22152167D+05 0.22152167D+05 0.12289692D+01  1  2 11  2  6  2        2 0.205003226031D-02 0.100000000000D+01
0.135680706953D-06 0.000000000000D+00 0.000000000000D+00 0.116592416585D-05 0.000000000000D+00  6 21 21 25 24 1 -2 4 0.10435213D-02 0.53508976D+00 0.22152167D+05 0.22152167D+05 0.22152167D+05 0.12289692D+01  1  2 12 10  6  2        2 0.123379601841D-03 0.100000000000D+01
-.413335623654D-06 0.000000000000D+00 -.560758023900D-07 0.117046879733D-05 0.000000000000D+00  6 21 21 25 24 1 -2 4 0.10435213D-02 0.53356537D+00 0.21061064D+05 0.21061064D+05 0.21061064D+05 0.12313621D+01  1  2  5 10  6  2        2 -.391317427651D-03 0.100000000000D+01
0.285291681493D-08 0.000000000000D+00 0.000000000000D+00 0.117046879733D-05 0.143196697411D-08  6 21 21 25 24 1 -2 4 0.10577693D-02 0.53171590D+00 0.22152167D+05 0.22152167D+05 0.22152167D+05 0.12289692D+01  1  2 11 10  6  2        2 0.268729165267D-05 0.100000000000D+01
  </mgrwgt>
  </event>
  <event>
  6     66 0.42910585E-03 0.10886809E+03 0.75467711E-02 0.11035534E+00
       21 -1    0    0  501  502 0.00000000E+00 0.00000000E+00 0.60313023E+02 0.60317686E+02 0.75000000E+00 0.0000E+00 0.9000E+01
        2 -1    0    0  502    0 -.00000000E+00 -.00000000E+00 -.19724169E+04 0.19724169E+04 0.32000000E+00 0.0000E+00 0.9000E+01
       25  1    1    2    0    0 0.78052660E+02 -.67703775E+02 -.64475467E+03 0.66483802E+03 0.12500000E+03 0.0000E+00 0.9000E+01
       24  1    1    2    0    0 0.12284333E+02 0.18165402E+03 -.10912795E+04 0.11092823E+04 0.80419002E+02 0.0000E+00 0.9000E+01
        1  1    1    2  503    0 -.41111993E+02 0.56602132E+01 -.17365120E+01 0.41537355E+02 0.32000000E+00 0.0000E+00 0.9000E+01
       21  1    1    2  501  503 -.49225000E+02 -.11961046E+03 -.17433320E+03 0.21707692E+03 0.75000000E+00 0.0000E+00 0.9000E+01
#aMCatNLO 2  0  0  5  1 0.59867318D+02 0.00000000D+00  -5  6  0 0.00000000D+00 0.00000000D+00 0.00000000D+00 0.00000000D+00 0.00000000D+00
  <mgrwgt>
 0.7016658464D-02    1    2    0
 0.344916206070722D+03 0.000000000000000D+00 0.000000000000000D+00 0.344916206070722D+03
 0.344916206070722D+03 -.000000000000000D+00 -.000000000000000D+00 -.344916206070722D+03
 0.173897338223293D+03 0.807209195814913D+02 -.643380568074012D+02 -.629287837901899D+02
 0.252591516750442D+03 0.161149301563278D+02 0.186485898447003D+03 -.149327080887523D+03
 0.263343557167709D+03 -.968358497378191D+02 -.122147841639602D+03 0.212255864677713D+03
 0.000000000000000D+00 0.000000000000000D+00 -.000000000000000D+00 0.000000000000000D+00
 0.344916206070722D+03 0.000000000000000D+00 0.000000000000000D+00 0.344916206070722D+03
 0.344916206070722D+03 -.000000000000000D+00 -.000000000000000D+00 -.344916206070722D+03
 0.171929824760417D+03 0.780556229781416D+02 -.677000371928677D+02 -.570866825776921D+02
 0.243890146844093D+03 0.122885364162089D+02 0.181659320915188D+03 -.140939954486451D+03
 0.117187916689985D+03 -.409516808529827D+02 0.580384796926121D+01 0.109646171853850D+03
 0.156824523846949D+03 -.493924785413678D+02 -.119763131691581D+03 0.883804652102926D+02
0.407019949473D-05 0.000000000000D+00 0.000000000000D+00 0.221282255444D-06 0.371804206332D-09  6 21 2 25 24 1 21 4 0.92792873D-02 0.30344911D+00 0.70790252D+05 0.70790252D+05 0.70790252D+05 0.11776103D+01  1  2  1  3  6  5        1 0.701665846419D-02 0.100000000000D+01
  </mgrwgt>
  </event>
  <event>
  5     66 0.42910585E-03 0.32732576E+02 0.75467711E-02 0.11800780E+00
       21 -1    0    0  501  502 0.00000000E+00 0.00000000E+00 0.37026015E+02 0.37033610E+02 0.75000000E+00 0.0000E+00 0.9000E+01
        2 -1    0    0  502    0 0.00000000E+00 0.00000000E+00 -.89988741E+03 0.89988746E+03 0.32000000E+00 0.0000E+00 0.9000E+01
       25  1    1    2    0    0 0.11616589E+03 -.44576906E+02 -.53656320E+03 0.56480676E+03 0.12500000E+03 0.0000E+00 0.9000E+01
       24  1    1    2    0    0 -.95286751E+02 0.19368673E+02 -.31170195E+03 0.33627374E+03 0.80419002E+02 0.0000E+00 0.9000E+01
        1  1    1    2  501    0 -.20879141E+02 0.25208233E+02 -.14596250E+02 0.35840570E+02 0.32000000E+00 0.0000E+00 0.9000E+01
#aMCatNLO 1  0  0  2  1 0.44943341D+00 0.00000000D+00  -5  6  0 0.00000000D+00 0.00000000D+00 0.00000000D+00 0.00000000D+00 0.00000000D+00
  <mgrwgt>
 0.1037642298D+00    9    2    0
 0.182545416671903D+03 0.000000000000000D+00 0.000000000000000D+00 0.182545416671903D+03
 0.182545416671903D+03 0.000000000000000D+00 0.000000000000000D+00 -.182545416671903D+03
 0.181324129407556D+03 0.116166053022422D+03 -.445771001009723D+02 -.420924004683514D+02
 0.126287328083702D+03 -.952866395656679D+02 0.193685380652586D+02 -.515648462105441D+01
 0.574793758525470D+02 -.208794134567536D+02 0.252085620357137D+02 0.472488850894058D+02
 0.000000000000000D+00 0.000000000000000D+00 -.000000000000000D+00 -.000000000000000D+00
 0.182735218268103D+03 0.000000000000000D+00 0.000000000000000D+00 0.182735218268103D+03
 0.182811803662188D+03 0.000000000000000D+00 0.000000000000000D+00 -.182811803662188D+03
 0.181261835300056D+03 0.116154138283551D+03 -.443542435259844D+02 -.420924004683514D+02
 0.126317495115435D+03 -.952949402744620D+02 0.195237968209829D+02 -.515648462105441D+01
 0.575117795585307D+02 -.208831921181539D+02 0.252792391648450D+02 0.472488850894058D+02
 0.455911956269384D+00 0.239941090648430D-01 -.448792459843440D+00 -.765853940855276D-01
0.101301419398D-05 0.000000000000D+00 0.000000000000D+00 0.822655688561D-06 0.000000000000D+00  6 21 2 25 24 1 21 2 0.56968986D-02 0.13844480D+00 0.28104078D+05 0.28104078D+05 0.28104078D+05 0.12178853D+01  1  2  2  2  6  2        2 0.124826689753D-01 0.100000000000D+01
0.803950158397D-07 0.534582276982D-07 -.204498379532D-08 0.822655688561D-06 0.000000000000D+00  6 21 2 25 24 1 21 4 0.56968986D-02 0.13844480D+00 0.28104078D+05 0.28104078D+05 0.28104078D+05 0.12178853D+01  1  2  3  2  6  2        2 0.146937909057D-02 0.100000000000D+01
0.120349090623D-06 0.000000000000D+00 0.000000000000D+00 0.822655688561D-06 0.000000000000D+00  6 21 2 25 24 1 21 4 0.56968986D-02 0.13844480D+00 0.28104078D+05 0.28104078D+05 0.28104078D+05 0.12178853D+01  1  2 15  2  6  2        2 0.219961941026D-02 0.100000000000D+01
-.979828515557D-04 0.000000000000D+00 0.000000000000D+00 0.822655688561D-06 0.000000000000D+00  6 21 2 25 24 1 21 4 0.56968986D-02 0.13844480D+00 0.28104078D+05 0.28104078D+05 0.28104078D+05 0.12178853D+01  1  2  4  2  6  2        2 -.179083182964D+01 0.100000000000D+01
-.205012067709D-02 0.000000000000D+00 -.163123939728D-03 0.822655688561D-06 0.000000000000D+00  6 21 2 25 24 1 21 4 0.56968986D-02 0.13875107D+00 0.28104078D+05 0.28104078D+05 0.28104078D+05 0.12178853D+01  1  2  5  2  6  2        2 -.373609734260D+02 0.100000000000D+01
0.205047653343D-02 0.000000000000D+00 0.163123541459D-03 0.822655688561D-06 0.000000000000D+00  6 21 2 25 24 1 21 4 0.56968986D-02 0.13844480D+00 0.28104078D+05 0.28104078D+05 0.28104078D+05 0.12178853D+01  1  2  6  2  6  2        2 0.374765439430D+02 0.100000000000D+01
0.976077672779D-04 0.000000000000D+00 0.000000000000D+00 0.822655688561D-06 0.351549698825D-04  6 21 2 25 24 1 21 4 0.57028219D-02 0.13864684D+00 0.28183336D+05 0.28183336D+05 0.28183336D+05 0.12177560D+01  1  2 11  2  6  2        2 0.177664018441D+01 0.100000000000D+01
-.846318997922D-06 0.000000000000D+00 -.673635858225D-07 0.822655688561D-06 0.000000000000D+00  6 21 21 25 24 1 -2 4 0.56968986D-02 0.13875107D+00 0.28104078D+05 0.28104078D+05 0.28104078D+05 0.12178853D+01  1  2  5 10  6  2        2 -.148744634671D-01 0.100000000000D+01
0.630757126051D-07 0.000000000000D+00 0.000000000000D+00 0.822655688561D-06 0.973574633488D-08  6 21 21 25 24 1 -2 4 0.57028219D-02 0.13864684D+00 0.28183336D+05 0.28183336D+05 0.28183336D+05 0.12177560D+01  1  2 11 10  6  2        2 0.110815398298D-02 0.100000000000D+01
  </mgrwgt>
  </event>
  <event>
  6     66 0.42910585E-03 0.50822532E+02 0.75467711E-02 0.11463974E+00
       21 -1    0    0  501  502 0.00000000E+00 0.00000000E+00 0.43467296E+02 0.43473765E+02 0.75000000E+00 0.0000E+00 0.9000E+01
        2 -1    0    0  503    0 0.00000000E+00 0.00000000E+00 -.11780371E+04 0.11780372E+04 0.32000000E+00 0.0000E+00 0.9000E+01
       25  1    1    2    0    0 0.97444634E+02 -.44683882E+02 -.66939990E+03 0.68935719E+03 0.12500000E+03 0.0000E+00 0.9000E+01
       24  1    1    2    0    0 -.90357759E+02 -.38068236E+02 -.28128422E+03 0.30854780E+03 0.80419002E+02 0.0000E+00 0.9000E+01
        1  1    1    2  501    0 -.43453743E+02 0.58319383E+02 -.15474036E+03 0.17097971E+03 0.32000000E+00 0.0000E+00 0.9000E+01
       21  1    1    2  503  502 0.36366869E+02 0.24432734E+02 -.29145349E+02 0.52626244E+02 0.75000000E+00 0.0000E+00 0.9000E+01
#aMCatNLO 2  0  0  2  1 0.43812186D+02 0.00000000D+00  -5  6  0 0.00000000D+00 0.00000000D+00 0.00000000D+00 0.00000000D+00 0.00000000D+00
  <mgrwgt>
 0.1758552657D-01    1    2    0
 0.188685341208838D+03 0.000000000000000D+00 0.000000000000000D+00 0.188685341208838D+03
 0.188685341208838D+03 0.000000000000000D+00 0.000000000000000D+00 -.188685341208838D+03
 0.180883418753850D+03 0.114450082503578D+03 -.332593062283184D+02 -.537476357081499D+02
 0.120576882211844D+03 -.782823413121809D+02 -.299557296160701D+02 0.323434362956454D+02
 0.759103814519821D+02 -.361677411913967D+02 0.632150358443884D+02 0.214041994125045D+02
 0.000000000000000D+00 0.000000000000000D+00 0.000000000000000D+00 0.000000000000000D+00
 0.260234723637255D+03 0.000000000000000D+00 0.000000000000000D+00 0.260234723637255D+03
 0.196780594758542D+03 0.000000000000000D+00 0.000000000000000D+00 -.196780594758542D+03
 0.173222302670629D+03 0.974447710183525D+02 -.446841627366990D+02 -.537476357081499D+02
 0.130870253571603D+03 -.903576527442136D+02 -.380684125577996D+02 0.323434362956454D+02
 0.758128788140030D+02 -.434539869204909D+02 0.583198410688014D+02 0.214041994125045D+02
 0.771098833395620D+02 0.363668686463521D+02 0.244327342256972D+02 0.634541288787127D+02
0.197420005740D-05 0.000000000000D+00 0.000000000000D+00 0.196173256755D-06 0.176771572642D-08  6 21 2 25 24 1 21 4 0.66877170D-02 0.18123535D+00 0.41620953D+05 0.41620953D+05 0.41620953D+05 0.12002523D+01  1  2  1  2  6  2        2 0.175855265746D-01 0.100000000000D+01
  </mgrwgt>
  </event>
  <event>
  5     66 0.42910585E-03 0.66647746E+02 0.75467711E-02 0.11609785E+00
       21 -1    0    0  501  502 0.00000000E+00 0.00000000E+00 0.53963938E+02 0.53969150E+02 0.75000000E+00 0.0000E+00 0.9000E+01
        2 -1    0    0  502    0 0.00000000E+00 0.00000000E+00 -.65594969E+03 0.65594977E+03 0.32000000E+00 0.0000E+00 0.9000E+01
       25  1    1    2    0    0 -.48916835E+02 0.80168499E+02 -.40133771E+03 0.43071662E+03 0.12500000E+03 0.0000E+00 0.9000E+01
       24  1    1    2    0    0 -.19016352E+02 -.85859993E+02 -.16111616E+03 0.20039759E+03 0.80419002E+02 0.0000E+00 0.9000E+01
        1  1    1    2  501    0 0.67933187E+02 0.56914944E+01 -.39531880E+02 0.78804714E+02 0.32000000E+00 0.0000E+00 0.9000E+01
#aMCatNLO 1  0  0  1  2 0.30347994D+02 0.00000000D+00  -5  6  0 0.00000000D+00 0.00000000D+00 0.00000000D+00 0.00000000D+00 0.00000000D+00
  <mgrwgt>
 0.9967280846D-01   23    2    0
 0.188147565231589D+03 0.000000000000000D+00 0.000000000000000D+00 0.188147565231589D+03
 0.188147565231589D+03 0.000000000000000D+00 0.000000000000000D+00 -.188147565231589D+03
 0.170542561276189D+03 -.489170511507040D+02 0.801684807981680D+02 -.681168261142270D+02
 0.120321547334855D+03 -.190165040143468D+02 -.858600060305445D+02 0.166280106504208D+02
 0.854310218521332D+02 0.679335551650507D+02 0.569152523237646D+01 0.514888154638062D+02
 0.000000000000000D+00 0.000000000000000D+00 0.000000000000000D+00 0.000000000000000D+00
 0.224166034146190D+03 0.000000000000000D+00 0.000000000000000D+00 0.224166034146190D+03
 0.195261312203410D+03 0.000000000000000D+00 0.000000000000000D+00 -.195261312203410D+03
 0.165899667378590D+03 -.524882255736615D+02 0.671027854308549D+02 -.681168261142270D+02
 0.127796129837109D+03 -.216501552838172D+02 -.954956275698984D+02 0.166280106504208D+02
 0.838211242270174D+02 0.661370240413412D+02 -.881362451123188D+00 0.514888154638062D+02
 0.419104249068836D+02 0.800135681613751D+01 0.292742045901667D+02 0.289047219427802D+02
0.203767501072D-05 0.000000000000D+00 0.000000000000D+00 0.308362873351D-06 0.000000000000D+00  6 21 2 25 24 1 21 2 0.83025513D-02 0.10091574D+00 0.29530211D+05 0.29530211D+05 0.29530211D+05 0.12156185D+01  1  2  2  1  6  1       21 0.193659779539D-01 0.100000000000D+01
-.403089489131D-07 0.107531064565D-06 -.411347876644D-08 0.308362873351D-06 0.000000000000D+00  6 21 2 25 24 1 21 4 0.83025513D-02 0.10091574D+00 0.29530211D+05 0.29530211D+05 0.29530211D+05 0.12156185D+01  1  2  3  1  6  1       21 -.566109674556D-03 0.100000000000D+01
0.181400122947D-06 0.000000000000D+00 0.000000000000D+00 0.308362873351D-06 0.000000000000D+00  6 21 2 25 24 1 21 4 0.83025513D-02 0.10091574D+00 0.29530211D+05 0.29530211D+05 0.29530211D+05 0.12156185D+01  1  2 15  1  6  1       21 0.254763191140D-02 0.100000000000D+01
0.545147869281D-05 0.000000000000D+00 0.000000000000D+00 0.304439871274D-06 0.000000000000D+00  6 21 2 25 24 1 21 4 0.10028036D-01 0.10091574D+00 0.35057179D+05 0.35057179D+05 0.35057179D+05 0.12078612D+01  1  2 12  1  6  1       21 0.535695019183D-01 0.100000000000D+01
-.267961331964D-05 0.000000000000D+00 0.000000000000D+00 0.308362873351D-06 0.000000000000D+00  6 21 2 25 24 1 21 4 0.83025513D-02 0.10091574D+00 0.29530211D+05 0.29530211D+05 0.29530211D+05 0.12156185D+01  1  2  4  1  6  1       21 -.376332071468D-01 0.100000000000D+01
-.187432441876D-04 0.000000000000D+00 -.362427080883D-05 0.308362873351D-06 0.000000000000D+00  6 21 2 25 24 1 21 4 0.10251076D-01 0.10091574D+00 0.29530211D+05 0.29530211D+05 0.29530211D+05 0.12156185D+01  1  2  5  1  6  1       21 -.181930438184D+00 0.100000000000D+01
0.176615543882D-04 0.000000000000D+00 0.332133286858D-05 0.308362873351D-06 0.000000000000D+00  6 21 2 25 24 1 21 4 0.83025513D-02 0.10091574D+00 0.29530211D+05 0.29530211D+05 0.29530211D+05 0.12156185D+01  1  2  6  1  6  1       21 0.248043600155D+00 0.100000000000D+01
0.291849461713D-06 0.000000000000D+00 0.000000000000D+00 0.304439871274D-06 0.000000000000D+00  6 -1 2 25 24 1 -1 4 0.10028036D-01 0.10091574D+00 0.35057179D+05 0.35057179D+05 0.35057179D+05 0.12078612D+01  1  2 12  4  6  1       21 0.192417681636D-03 0.100000000000D+01
-.109574198620D-05 0.000000000000D+00 -.221598363074D-06 0.308362873351D-06 0.000000000000D+00  6 -1 2 25 24 1 -1 4 0.10251076D-01 0.10091574D+00 0.29530211D+05 0.29530211D+05 0.29530211D+05 0.12156185D+01  1  2  5  4  6  1       21 -.714796673588D-03 0.100000000000D+01
0.291849461713D-06 0.000000000000D+00 0.000000000000D+00 0.304439871274D-06 0.000000000000D+00  6 1 2 25 24 1 1 4 0.10028036D-01 0.10091574D+00 0.35057179D+05 0.35057179D+05 0.35057179D+05 0.12078612D+01  1  2 12  5  6  1       21 0.241079494340D-03 0.100000000000D+01
-.109574198620D-05 0.000000000000D+00 -.221598363074D-06 0.308362873351D-06 0.000000000000D+00  6 1 2 25 24 1 1 4 0.10251076D-01 0.10091574D+00 0.29530211D+05 0.29530211D+05 0.29530211D+05 0.12156185D+01  1  2  5  5  6  1       21 -.899788155004D-03 0.100000000000D+01
0.291849461713D-06 0.000000000000D+00 0.000000000000D+00 0.304439871274D-06 0.000000000000D+00  6 -2 2 25 24 1 -2 4 0.10028036D-01 0.10091574D+00 0.35057179D+05 0.35057179D+05 0.35057179D+05 0.12078612D+01  1  2 12  6  6  1       21 0.183983377811D-03 0.100000000000D+01
-.109574198620D-05 0.000000000000D+00 -.221598363074D-06 0.308362873351D-06 0.000000000000D+00  6 -2 2 25 24 1 -2 4 0.10251076D-01 0.10091574D+00 0.29530211D+05 0.29530211D+05 0.29530211D+05 0.12156185D+01  1  2  5  6  6  1       21 -.682720902086D-03 0.100000000000D+01
0.291849461713D-06 0.000000000000D+00 0.000000000000D+00 0.304439871274D-06 0.000000000000D+00  6 2 2 25 24 1 2 4 0.10028036D-01 0.10091574D+00 0.35057179D+05 0.35057179D+05 0.35057179D+05 0.12078612D+01  1  2 12  7  6  1       21 0.274107613742D-03 0.100000000000D+01
-.109574198620D-05 0.000000000000D+00 -.221598363074D-06 0.308362873351D-06 0.000000000000D+00  6 2 2 25 24 1 2 4 0.10251076D-01 0.10091574D+00 0.29530211D+05 0.29530211D+05 0.29530211D+05 0.12156185D+01  1  2  5  7  6  1       21 -.102530271062D-02 0.100000000000D+01
0.291849461713D-06 0.000000000000D+00 0.000000000000D+00 0.304439871274D-06 0.000000000000D+00  6 -3 2 25 24 1 -3 4 0.10028036D-01 0.10091574D+00 0.35057179D+05 0.35057179D+05 0.35057179D+05 0.12078612D+01  1  2 12  8  6  1       21 0.128123179960D-03 0.100000000000D+01
0.291849461713D-06 0.000000000000D+00 0.000000000000D+00 0.304439871274D-06 0.000000000000D+00  6 -4 2 25 24 1 -4 4 0.10028036D-01 0.10091574D+00 0.35057179D+05 0.35057179D+05 0.35057179D+05 0.12078612D+01  1  2 12  8  6  1       21 0.112527729159D-03 0.100000000000D+01
-.109574198620D-05 0.000000000000D+00 -.221598363074D-06 0.308362873351D-06 0.000000000000D+00  6 -3 2 25 24 1 -3 4 0.10251076D-01 0.10091574D+00 0.29530211D+05 0.29530211D+05 0.29530211D+05 0.12156185D+01  1  2  5  8  6  1       21 -.472882992236D-03 0.100000000000D+01
-.109574198620D-05 0.000000000000D+00 -.221598363074D-06 0.308362873351D-06 0.000000000000D+00  6 -4 2 25 24 1 -4 4 0.10251076D-01 0.10091574D+00 0.29530211D+05 0.29530211D+05 0.29530211D+05 0.12156185D+01  1  2  5  8  6  1       21 -.414353255059D-03 0.100000000000D+01
0.291849461713D-06 0.000000000000D+00 0.000000000000D+00 0.304439871274D-06 0.000000000000D+00  6 3 2 25 24 1 3 4 0.10028036D-01 0.10091574D+00 0.35057179D+05 0.35057179D+05 0.35057179D+05 0.12078612D+01  1  2 12  9  6  1       21 0.128107793992D-03 0.100000000000D+01
0.291849461713D-06 0.000000000000D+00 0.000000000000D+00 0.304439871274D-06 0.000000000000D+00  6 4 2 25 24 1 4 4 0.10028036D-01 0.10091574D+00 0.35057179D+05 0.35057179D+05 0.35057179D+05 0.12078612D+01  1  2 12  9  6  1       21 0.112527729159D-03 0.100000000000D+01
-.109574198620D-05 0.000000000000D+00 -.221598363074D-06 0.308362873351D-06 0.000000000000D+00  6 3 2 25 24 1 3 4 0.10251076D-01 0.10091574D+00 0.29530211D+05 0.29530211D+05 0.29530211D+05 0.12156185D+01  1  2  5  9  6  1       21 -.472825129692D-03 0.100000000000D+01
-.109574198620D-05 0.000000000000D+00 -.221598363074D-06 0.308362873351D-06 0.000000000000D+00  6 4 2 25 24 1 4 4 0.10251076D-01 0.10091574D+00 0.29530211D+05 0.29530211D+05 0.29530211D+05 0.12156185D+01  1  2  5  9  6  1       21 -.414353255059D-03 0.100000000000D+01
  </mgrwgt>
  </event>
  <event>
  6     66 -.42910585E-03 0.73055847E+02 0.75467711E-02 0.10782527E+00
       21 -1    0    0  503  502 0.00000000E+00 0.00000000E+00 0.14971827E+03 0.14972015E+03 0.75000000E+00 0.0000E+00 0.9000E+01
        2 -1    0    0  502    0 0.00000000E+00 0.00000000E+00 -.10606944E+04 0.10606944E+04 0.32000000E+00 0.0000E+00 0.9000E+01
       25  1    1    2    0    0 0.17751866E+03 0.12841574E+03 -.52684914E+03 0.58412199E+03 0.12500000E+03 0.0000E+00 0.9000E+01
       24  1    1    2    0    0 -.24723198E+03 -.15395875E+03 -.43934957E+03 0.53321872E+03 0.80419002E+02 0.0000E+00 0.9000E+01
        1  1    1    2  501    0 0.65461979E+02 0.25225062E+02 0.49329093E+02 0.85761508E+02 0.32000000E+00 0.0000E+00 0.9000E+01
       21  1    1    2  503  501 0.42513346E+01 0.31794183E+00 0.58935001E+01 0.73123714E+01 0.75000000E+00 0.0000E+00 0.9000E+01
#aMCatNLO 2  0  0  1  5 0.42632069D+01 0.00000000D+00  -5  6  0 0.00000000D+00 0.00000000D+00 0.00000000D+00 0.00000000D+00 0.00000000D+00
  <mgrwgt>
 -.3821343468D-01    6    2    0
 0.389482630180013D+03 0.000000000000000D+00 0.000000000000000D+00 0.389482630180013D+03
 0.389482630180013D+03 0.000000000000000D+00 0.000000000000000D+00 -.389482630180013D+03
 0.283070413473152D+03 0.179060722070807D+03 0.128531059684106D+03 -.126177983387844D+03
 0.305007673015527D+03 -.245563552818717D+03 -.153833984527324D+03 -.509520497671323D+02
 0.190887173871347D+03 0.665028307479097D+02 0.253029248432180D+02 0.177130033154977D+03
 0.000000000000000D+00 0.000000000000000D+00 0.000000000000000D+00 0.000000000000000D+00
 0.407450172716476D+03 0.000000000000000D+00 0.000000000000000D+00 0.407450172716476D+03
 0.389741430924382D+03 0.000000000000000D+00 0.000000000000000D+00 -.389741430924382D+03
 0.282044937508850D+03 0.177518627327591D+03 0.128415732035744D+03 -.126177983387844D+03
 0.306415234255423D+03 -.247232012274908D+03 -.153958762532253D+03 -.509520497671323D+02
 0.190516754582604D+03 0.654620503265518D+02 0.252250886668194D+02 0.177130033154977D+03
 0.182146772939811D+02 0.425133462076517D+01 0.317941829689399D+00 0.177087417920949D+02
-.399405551588D-04 0.000000000000D+00 0.000000000000D+00 0.246162156090D-06 0.000000000000D+00  6 21 2 25 24 1 21 4 0.23040405D-01 0.16307231D+00 0.98851549D+05 0.98851549D+05 0.98851549D+05 0.11640328D+01  1  2 13  1  6  1       21 -.383633688377D-01 0.100000000000D+01
-.281184187689D-04 0.000000000000D+00 0.000000000000D+00 0.246162156090D-06 0.000000000000D+00  6 21 2 25 24 1 21 4 0.23448952D-01 0.16307231D+00 0.98851549D+05 0.98851549D+05 0.98851549D+05 0.11640328D+01  1  2 13  1  6  1       21 -.261133666103D-01 0.100000000000D+01
-.363386502232D-04 0.000000000000D+00 0.000000000000D+00 0.246353323323D-06 0.000000000000D+00  6 21 2 25 24 1 21 4 0.22017563D-01 0.16307231D+00 0.97740169D+05 0.97740169D+05 0.97740169D+05 0.11644847D+01  1  2  8  1  6  1       21 -.381432207543D-01 0.100000000000D+01
-.103726185150D-03 0.000000000000D+00 0.000000000000D+00 0.246353323323D-06 0.000000000000D+00  6 21 2 25 24 1 21 4 0.23041823D-01 0.16307231D+00 0.97740169D+05 0.97740169D+05 0.97740169D+05 0.11644847D+01  1  2  9  1  6  1       21 -.998180924240D-01 0.100000000000D+01
0.103482389623D-03 0.000000000000D+00 0.000000000000D+00 0.246353323323D-06 0.000000000000D+00  6 21 2 25 24 1 21 4 0.22017563D-01 0.16307231D+00 0.97740169D+05 0.97740169D+05 0.97740169D+05 0.11644847D+01  1  2 10  1  6  1       21 0.108621305617D+00 0.100000000000D+01
0.579114736040D-04 0.000000000000D+00 0.000000000000D+00 0.246353323323D-06 0.638580904410D-06  6 21 2 25 24 1 21 4 0.23033273D-01 0.16318067D+00 0.98851549D+05 0.98851549D+05 0.98851549D+05 0.11640328D+01  1  2  1  1  6  1       21 0.556033083293D-01 0.100000000000D+01
  </mgrwgt>
  </event>
  <event>
  5     66 0.42910585E-03 0.67903542E+02 0.75467711E-02 0.11024365E+00
       21 -1    0    0  501  502 0.00000000E+00 0.00000000E+00 0.15494210E+03 0.15494392E+03 0.75000000E+00 0.0000E+00 0.9000E+01
        2 -1    0    0  502    0 0.00000000E+00 0.00000000E+00 -.61721718E+03 0.61721726E+03 0.32000000E+00 0.0000E+00 0.9000E+01
       25  1    1    2    0    0 -.19541027E+03 0.12031249E+03 -.57900062E+02 0.26765217E+03 0.12500000E+03 0.0000E+00 0.9000E+01
       24  1    1    2    0    0 0.12775862E+03 -.12614954E+03 -.38743881E+03 0.43452505E+03 0.80419002E+02 0.0000E+00 0.9000E+01
        1  1    1    2  501    0 0.67651649E+02 0.58370466E+01 -.16936202E+02 0.69983955E+02 0.32000000E+00 0.0000E+00 0.9000E+01
#aMCatNLO 1  0  0  1  2 0.96574841D+01 0.00000000D+00  -5  6  0 0.00000000D+00 0.00000000D+00 0.00000000D+00 0.00000000D+00 0.00000000D+00
  <mgrwgt>
 0.1670302206D+00   22    2    0
 0.309246923819648D+03 0.000000000000000D+00 0.000000000000000D+00 0.309246923819648D+03
 0.309246923819648D+03 0.000000000000000D+00 0.000000000000000D+00 -.309246923819648D+03
 0.290875875236138D+03 -.195410557331982D+03 0.120312469034623D+03 0.127763056758934D+03
 0.252904766071580D+03 0.127758362927630D+03 -.126149562748955D+03 -.158926691489031D+03
 0.747132063315784D+02 0.676521944043520D+02 0.583709371433231D+01 0.311636347300965D+02
 0.000000000000000D+00 0.000000000000000D+00 0.000000000000000D+00 -.000000000000000D+00
 0.313937384012063D+03 0.000000000000000D+00 0.000000000000000D+00 0.313937384012063D+03
 0.314295997521009D+03 0.000000000000000D+00 0.000000000000000D+00 -.314295997521009D+03
 0.289521429381118D+03 -.196103479720805D+03 0.115834729852021D+03 0.127763056758934D+03
 0.254577116162932D+03 0.127152492508651D+03 -.130064762717088D+03 -.158926691489031D+03
 0.744706959851639D+02 0.674740873298621D+02 0.468614659672358D+01 0.311636347300965D+02
 0.966414000385880D+01 0.147689988229111D+01 0.954388626834340D+01 -.358613508946204D+00
0.503491811486D-04 0.000000000000D+00 0.000000000000D+00 0.691017017959D-07 0.000000000000D+00  6 21 2 25 24 1 21 2 0.23837393D-01 0.94956635D-01 0.69155681D+05 0.69155681D+05 0.69155681D+05 0.11785787D+01  1  2  2  1  6  1       21 0.700276996089D-01 0.100000000000D+01
0.222900220034D-06 0.265699928615D-05 -.101640490497D-06 0.691017017959D-07 0.000000000000D+00  6 21 2 25 24 1 21 4 0.23837393D-01 0.94956635D-01 0.69155681D+05 0.69155681D+05 0.69155681D+05 0.11785787D+01  1  2  3  1  6  1       21 0.430630813331D-03 0.100000000000D+01
0.490035179410D-05 0.000000000000D+00 0.000000000000D+00 0.691017017959D-07 0.000000000000D+00  6 21 2 25 24 1 21 4 0.23837393D-01 0.94956635D-01 0.69155681D+05 0.69155681D+05 0.69155681D+05 0.11785787D+01  1  2 15  1  6  1       21 0.946720679944D-02 0.100000000000D+01
0.538321607886D-04 0.000000000000D+00 0.000000000000D+00 0.689183732389D-07 0.000000000000D+00  6 21 2 25 24 1 21 4 0.24390503D-01 0.94956635D-01 0.71817751D+05 0.71817751D+05 0.71817751D+05 0.11770142D+01  1  2 12  1  6  1       21 0.988986683877D-01 0.100000000000D+01
-.718118234852D-05 0.000000000000D+00 0.000000000000D+00 0.691017017959D-07 0.000000000000D+00  6 21 2 25 24 1 21 4 0.23837393D-01 0.94956635D-01 0.69155681D+05 0.69155681D+05 0.69155681D+05 0.11785787D+01  1  2  4  1  6  1       21 -.138736444269D-01 0.100000000000D+01
0.814792922765D-10 0.000000000000D+00 0.000000000000D+00 0.691017017959D-07 0.739066501923D-08  6 21 2 25 24 1 21 4 0.24198943D-01 0.96506991D-01 0.71817751D+05 0.71817751D+05 0.71817751D+05 0.11770142D+01  1  2 11  1  6  1       21 0.149099793872D-06 0.100000000000D+01
0.172143858038D-05 0.000000000000D+00 0.000000000000D+00 0.689183732389D-07 0.000000000000D+00  6 -1 2 25 24 1 -1 4 0.24390503D-01 0.94956635D-01 0.71817751D+05 0.71817751D+05 0.71817751D+05 0.11770142D+01  1  2 12  4  6  1       21 0.267350547900D-03 0.100000000000D+01
0.279192387288D-10 0.000000000000D+00 0.000000000000D+00 0.689183732389D-07 0.232035412016D-08  6 -1 2 25 24 1 -1 4 0.24198943D-01 0.96506991D-01 0.71817751D+05 0.71817751D+05 0.71817751D+05 0.11770142D+01  1  2 11  4  6  1       21 0.431026823518D-08 0.100000000000D+01
0.172143858038D-05 0.000000000000D+00 0.000000000000D+00 0.689183732389D-07 0.000000000000D+00  6 1 2 25 24 1 1 4 0.24390503D-01 0.94956635D-01 0.71817751D+05 0.71817751D+05 0.71817751D+05 0.11770142D+01  1  2 12  5  6  1       21 0.431638889832D-03 0.100000000000D+01
0.476629129483D-11 0.000000000000D+00 0.000000000000D+00 0.689183732389D-07 0.163939682279D-10  6 1 2 25 24 1 1 4 0.24198943D-01 0.96506991D-01 0.71817751D+05 0.71817751D+05 0.71817751D+05 0.11770142D+01  1  2 11  5  6  1       21 0.118442625190D-08 0.100000000000D+01
0.172143858038D-05 0.000000000000D+00 0.000000000000D+00 0.689183732389D-07 0.000000000000D+00  6 -2 2 25 24 1 -2 4 0.24390503D-01 0.94956635D-01 0.71817751D+05 0.71817751D+05 0.71817751D+05 0.11770142D+01  1  2 12  6  6  1       21 0.240346626791D-03 0.100000000000D+01
0.495144003996D-11 0.000000000000D+00 0.000000000000D+00 0.689183732389D-07 0.306491867201D-10  6 -2 2 25 24 1 -2 4 0.24198943D-01 0.96506991D-01 0.71817751D+05 0.71817751D+05 0.71817751D+05 0.11770142D+01  1  2 11  6  6  1       21 0.687748400051D-09 0.100000000000D+01
0.172143858038D-05 0.000000000000D+00 0.000000000000D+00 0.689183732389D-07 0.000000000000D+00  6 2 2 25 24 1 2 4 0.24390503D-01 0.94956635D-01 0.71817751D+05 0.71817751D+05 0.71817751D+05 0.11770142D+01  1  2 12  7  6  1       21 0.550031685569D-03 0.100000000000D+01
0.409219470983D-11 0.000000000000D+00 0.000000000000D+00 0.689183732389D-07 0.535968094672D-10  6 2 2 25 24 1 2 4 0.24198943D-01 0.96506991D-01 0.71817751D+05 0.71817751D+05 0.71817751D+05 0.11770142D+01  1  2 11  7  6  1       21 0.129427218342D-08 0.100000000000D+01
0.172143858038D-05 0.000000000000D+00 0.000000000000D+00 0.689183732389D-07 0.000000000000D+00  6 -3 2 25 24 1 -3 4 0.24390503D-01 0.94956635D-01 0.71817751D+05 0.71817751D+05 0.71817751D+05 0.11770142D+01  1  2 12  8  6  1       21 0.158937312940D-03 0.100000000000D+01
0.172143858038D-05 0.000000000000D+00 0.000000000000D+00 0.689183732389D-07 0.000000000000D+00  6 -4 2 25 24 1 -4 4 0.24390503D-01 0.94956635D-01 0.71817751D+05 0.71817751D+05 0.71817751D+05 0.11770142D+01  1  2 12  8  6  1       21 0.136131824582D-03 0.100000000000D+01
0.494394441710D-11 0.000000000000D+00 0.000000000000D+00 0.689183732389D-07 0.306027891583D-10  6 -3 2 25 24 1 -3 4 0.24198943D-01 0.96506991D-01 0.71817751D+05 0.71817751D+05 0.71817751D+05 0.11770142D+01  1  2 11  8  6  1       21 0.454331101427D-09 0.100000000000D+01
0.494394441710D-11 0.000000000000D+00 0.000000000000D+00 0.689183732389D-07 0.306027891583D-10  6 -4 2 25 24 1 -4 4 0.24198943D-01 0.96506991D-01 0.71817751D+05 0.71817751D+05 0.71817751D+05 0.11770142D+01  1  2 11  8  6  1       21 0.389258936755D-09 0.100000000000D+01
0.172143858038D-05 0.000000000000D+00 0.000000000000D+00 0.689183732389D-07 0.000000000000D+00  6 3 2 25 24 1 3 4 0.24390503D-01 0.94956635D-01 0.71817751D+05 0.71817751D+05 0.71817751D+05 0.11770142D+01  1  2 12  9  6  1       21 0.158932458238D-03 0.100000000000D+01
0.172143858038D-05 0.000000000000D+00 0.000000000000D+00 0.689183732389D-07 0.000000000000D+00  6 4 2 25 24 1 4 4 0.24390503D-01 0.94956635D-01 0.71817751D+05 0.71817751D+05 0.71817751D+05 0.11770142D+01  1  2 12  9  6  1       21 0.136131824582D-03 0.100000000000D+01
0.494394441710D-11 0.000000000000D+00 0.000000000000D+00 0.689183732389D-07 0.306027891583D-10  6 3 2 25 24 1 3 4 0.24198943D-01 0.96506991D-01 0.71817751D+05 0.71817751D+05 0.71817751D+05 0.11770142D+01  1  2 11  9  6  1       21 0.454316247086D-09 0.100000000000D+01
0.494394441710D-11 0.000000000000D+00 0.000000000000D+00 0.689183732389D-07 0.306027891583D-10  6 4 2 25 24 1 4 4 0.24198943D-01 0.96506991D-01 0.71817751D+05 0.71817751D+05 0.71817751D+05 0.11770142D+01  1  2 11  9  6  1       21 0.389258936755D-09 0.100000000000D+01
  </mgrwgt>
  </event>
  <event>
  5     66 0.42910585E-03 0.28461220E+02 0.75467711E-02 0.11723416E+00
       21 -1    0    0  501  502 0.00000000E+00 0.00000000E+00 0.20635765E+03 0.20635902E+03 0.75000000E+00 0.0000E+00 0.9000E+01
        2 -1    0    0  502    0 0.00000000E+00 0.00000000E+00 -.29492786E+03 0.29492803E+03 0.32000000E+00 0.0000E+00 0.9000E+01
       25  1    1    2    0    0 -.84509052E+02 0.97755232E+02 -.17769364E+03 0.25278033E+03 0.12500000E+03 0.0000E+00 0.9000E+01
       24  1    1    2    0    0 0.56391060E+02 -.93348857E+02 -.18883004E+02 0.13681281E+03 0.80419002E+02 0.0000E+00 0.9000E+01
        1  1    1    2  501    0 0.28117992E+02 -.44063748E+01 0.10800644E+03 0.11169391E+03 0.32000000E+00 0.0000E+00 0.9000E+01
#aMCatNLO 1  0  0  1  2 0.60021212D+01 0.00000000D+00  -5  6  0 0.00000000D+00 0.00000000D+00 0.00000000D+00 0.00000000D+00 0.00000000D+00
  <mgrwgt>
 0.1044354814D+00   32    2    0
 0.246700235366249D+03 0.000000000000000D+00 0.000000000000000D+00 0.246700235366249D+03
 0.246700235366249D+03 0.000000000000000D+00 0.000000000000000D+00 -.246700235366249D+03
 0.224923177460752D+03 -.845090888495876D+02 0.977552379996815D+02 -.135157549195298D+03
 0.135609943065424D+03 0.563910373201140D+02 -.933488538261326D+02 0.537430024709945D+01
 0.132867350206321D+03 0.281180515294736D+02 -.440638417354882D+01 0.129783248948198D+03
 0.000000000000000D+00 -.000000000000000D+00 0.000000000000000D+00 0.000000000000000D+00
 0.267675720689712D+03 0.000000000000000D+00 0.000000000000000D+00 0.267675720689712D+03
 0.247148238076536D+03 0.000000000000000D+00 0.000000000000000D+00 -.247148238076536D+03
 0.223878476751390D+03 -.817804947707303D+02 0.976778374202563D+02 -.135157549195298D+03
 0.136337886054769D+03 0.580444074209842D+02 -.933957540978891D+02 0.537430024709945D+01
 0.133220613897417D+03 0.297357952175694D+02 -.445227384977079D+01 0.129783248948198D+03
 0.213869820626726D+02 -.599970786782330D+01 0.170190527403550D+00 0.205274826131759D+02
0.224288115975D-05 0.000000000000D+00 0.000000000000D+00 0.209989773456D-05 0.000000000000D+00  6 21 2 25 24 1 21 2 0.31747449D-01 0.45373635D-01 0.29541060D+05 0.29541060D+05 0.29541060D+05 0.12156017D+01  1  2  2  1  6  1       21 0.438259604155D-02 0.100000000000D+01
0.471075766739D-06 0.118360090560D-06 -.452773085883D-08 0.209989773456D-05 0.000000000000D+00  6 21 2 25 24 1 21 4 0.31747449D-01 0.45373635D-01 0.29541060D+05 0.29541060D+05 0.29541060D+05 0.12156017D+01  1  2  3  1  6  1       21 0.136018677494D-02 0.100000000000D+01
0.171820454004D-06 0.000000000000D+00 0.000000000000D+00 0.209989773456D-05 0.000000000000D+00  6 21 2 25 24 1 21 4 0.31747449D-01 0.45373635D-01 0.29541060D+05 0.29541060D+05 0.29541060D+05 0.12156017D+01  1  2 15  1  6  1       21 0.496115329424D-03 0.100000000000D+01
0.738990823413D-04 0.000000000000D+00 0.000000000000D+00 0.209353181910D-05 0.000000000000D+00  6 21 2 25 24 1 21 4 0.34474179D-01 0.45373635D-01 0.30761340D+05 0.30761340D+05 0.30761340D+05 0.12137577D+01  1  2 12  1  6  1       21 0.180240389754D+00 0.100000000000D+01
-.727393974891D-04 0.000000000000D+00 0.000000000000D+00 0.209989773456D-05 0.000000000000D+00  6 21 2 25 24 1 21 4 0.31747449D-01 0.45373635D-01 0.29541060D+05 0.29541060D+05 0.29541060D+05 0.12156017D+01  1  2  4  1  6  1       21 -.210028138714D+00 0.100000000000D+01
-.223508445248D-03 0.000000000000D+00 -.867532715830D-05 0.209989773456D-05 0.000000000000D+00  6 21 2 25 24 1 21 4 0.34481038D-01 0.45373635D-01 0.29541060D+05 0.29541060D+05 0.29541060D+05 0.12156017D+01  1  2  5  1  6  1       21 -.548639296572D+00 0.100000000000D+01
0.222542346110D-03 0.000000000000D+00 0.855809042640D-05 0.209989773456D-05 0.000000000000D+00  6 21 2 25 24 1 21 4 0.31747449D-01 0.45373635D-01 0.29541060D+05 0.29541060D+05 0.29541060D+05 0.12156017D+01  1  2  6  1  6  1       21 0.642570001291D+00 0.100000000000D+01
0.152204619880D-04 0.000000000000D+00 0.000000000000D+00 0.209989773456D-05 0.580923857598D-06  6 21 2 25 24 1 21 4 0.34446750D-01 0.45456033D-01 0.30761340D+05 0.30761340D+05 0.30761340D+05 0.12137577D+01  1  2 11  1  6  1       21 0.371092695561D-01 0.100000000000D+01
0.146780282245D-05 0.000000000000D+00 0.000000000000D+00 0.209353181910D-05 0.000000000000D+00  6 -1 2 25 24 1 -1 4 0.34474179D-01 0.45373635D-01 0.30761340D+05 0.30761340D+05 0.30761340D+05 0.12137577D+01  1  2 12  4  6  1       21 0.323757813936D-03 0.100000000000D+01
-.398192206744D-05 0.000000000000D+00 -.178970367517D-06 0.209989773456D-05 0.000000000000D+00  6 -1 2 25 24 1 -1 4 0.34481038D-01 0.45373635D-01 0.29541060D+05 0.29541060D+05 0.29541060D+05 0.12156017D+01  1  2  5  4  6  1       21 -.883157666353D-03 0.100000000000D+01
0.186533975968D-05 0.000000000000D+00 0.000000000000D+00 0.209989773456D-05 0.655904237790D-07  6 -1 2 25 24 1 -1 4 0.34446750D-01 0.45456033D-01 0.30761340D+05 0.30761340D+05 0.30761340D+05 0.12137577D+01  1  2 11  4  6  1       21 0.411210669515D-03 0.100000000000D+01
0.146780282245D-05 0.000000000000D+00 0.000000000000D+00 0.209353181910D-05 0.000000000000D+00  6 1 2 25 24 1 1 4 0.34474179D-01 0.45373635D-01 0.30761340D+05 0.30761340D+05 0.30761340D+05 0.12137577D+01  1  2 12  5  6  1       21 0.606222212421D-03 0.100000000000D+01
-.398192206744D-05 0.000000000000D+00 -.178970367517D-06 0.209989773456D-05 0.000000000000D+00  6 1 2 25 24 1 1 4 0.34481038D-01 0.45373635D-01 0.29541060D+05 0.29541060D+05 0.29541060D+05 0.12156017D+01  1  2  5  5  6  1       21 -.165378931299D-02 0.100000000000D+01
0.894175831306D-06 0.000000000000D+00 0.000000000000D+00 0.209989773456D-05 0.117751068226D-07  6 1 2 25 24 1 1 4 0.34446750D-01 0.45456033D-01 0.30761340D+05 0.30761340D+05 0.30761340D+05 0.12137577D+01  1  2 11  5  6  1       21 0.368957940350D-03 0.100000000000D+01
0.146780282245D-05 0.000000000000D+00 0.000000000000D+00 0.209353181910D-05 0.000000000000D+00  6 -2 2 25 24 1 -2 4 0.34474179D-01 0.45373635D-01 0.30761340D+05 0.30761340D+05 0.30761340D+05 0.12137577D+01  1  2 12  6  6  1       21 0.279477332125D-03 0.100000000000D+01
-.398192206744D-05 0.000000000000D+00 -.178970367517D-06 0.209989773456D-05 0.000000000000D+00  6 -2 2 25 24 1 -2 4 0.34481038D-01 0.45373635D-01 0.29541060D+05 0.29541060D+05 0.29541060D+05 0.12156017D+01  1  2  5  6  6  1       21 -.762290605520D-03 0.100000000000D+01
0.665805292934D-06 0.000000000000D+00 0.000000000000D+00 0.209989773456D-05 0.155866692040D-07  6 -2 2 25 24 1 -2 4 0.34446750D-01 0.45456033D-01 0.30761340D+05 0.30761340D+05 0.30761340D+05 0.12137577D+01  1  2 11  6  6  1       21 0.126713896947D-03 0.100000000000D+01
0.146780282245D-05 0.000000000000D+00 0.000000000000D+00 0.209353181910D-05 0.000000000000D+00  6 2 2 25 24 1 2 4 0.34474179D-01 0.45373635D-01 0.30761340D+05 0.30761340D+05 0.30761340D+05 0.12137577D+01  1  2 12  7  6  1       21 0.815370809832D-03 0.100000000000D+01
-.398192206744D-05 0.000000000000D+00 -.178970367517D-06 0.209989773456D-05 0.000000000000D+00  6 2 2 25 24 1 2 4 0.34481038D-01 0.45373635D-01 0.29541060D+05 0.29541060D+05 0.29541060D+05 0.12156017D+01  1  2  5  7  6  1       21 -.222421005197D-02 0.100000000000D+01
0.666878798858D-06 0.000000000000D+00 0.000000000000D+00 0.209989773456D-05 0.156634719411D-07  6 2 2 25 24 1 2 4 0.34446750D-01 0.45456033D-01 0.30761340D+05 0.30761340D+05 0.30761340D+05 0.12137577D+01  1  2 11  7  6  1       21 0.370054913406D-03 0.100000000000D+01
0.146780282245D-05 0.000000000000D+00 0.000000000000D+00 0.209353181910D-05 0.000000000000D+00  6 -3 2 25 24 1 -3 4 0.34474179D-01 0.45373635D-01 0.30761340D+05 0.30761340D+05 0.30761340D+05 0.12137577D+01  1  2 12  8  6  1       21 0.178407615121D-03 0.100000000000D+01
0.146780282245D-05 0.000000000000D+00 0.000000000000D+00 0.209353181910D-05 0.000000000000D+00  6 -4 2 25 24 1 -4 4 0.34474179D-01 0.45373635D-01 0.30761340D+05 0.30761340D+05 0.30761340D+05 0.12137577D+01  1  2 12  8  6  1       21 0.149516809201D-03 0.100000000000D+01
-.398192206744D-05 0.000000000000D+00 -.178970367517D-06 0.209989773456D-05 0.000000000000D+00  6 -3 2 25 24 1 -3 4 0.34481038D-01 0.45373635D-01 0.29541060D+05 0.29541060D+05 0.29541060D+05 0.12156017D+01  1  2  5  8  6  1       21 -.486201195528D-03 0.100000000000D+01
-.398192206744D-05 0.000000000000D+00 -.178970367517D-06 0.209989773456D-05 0.000000000000D+00  6 -4 2 25 24 1 -4 4 0.34481038D-01 0.45373635D-01 0.29541060D+05 0.29541060D+05 0.29541060D+05 0.12156017D+01  1  2  5  8  6  1       21 -.407293416671D-03 0.100000000000D+01
0.665421556661D-06 0.000000000000D+00 0.000000000000D+00 0.209989773456D-05 0.155776858414D-07  6 -3 2 25 24 1 -3 4 0.34446750D-01 0.45456033D-01 0.30761340D+05 0.30761340D+05 0.30761340D+05 0.12137577D+01  1  2 11  8  6  1       21 0.808455144465D-04 0.100000000000D+01
0.665421556661D-06 0.000000000000D+00 0.000000000000D+00 0.209989773456D-05 0.155776858414D-07  6 -4 2 25 24 1 -4 4 0.34446750D-01 0.45456033D-01 0.30761340D+05 0.30761340D+05 0.30761340D+05 0.12137577D+01  1  2 11  8  6  1       21 0.677558323086D-04 0.100000000000D+01
0.146780282245D-05 0.000000000000D+00 0.000000000000D+00 0.209353181910D-05 0.000000000000D+00  6 3 2 25 24 1 3 4 0.34474179D-01 0.45373635D-01 0.30761340D+05 0.30761340D+05 0.30761340D+05 0.12137577D+01  1  2 12  9  6  1       21 0.178425362535D-03 0.100000000000D+01
0.146780282245D-05 0.000000000000D+00 0.000000000000D+00 0.209353181910D-05 0.000000000000D+00  6 4 2 25 24 1 4 4 0.34474179D-01 0.45373635D-01 0.30761340D+05 0.30761340D+05 0.30761340D+05 0.12137577D+01  1  2 12  9  6  1       21 0.149516809201D-03 0.100000000000D+01
-.398192206744D-05 0.000000000000D+00 -.178970367517D-06 0.209989773456D-05 0.000000000000D+00  6 3 2 25 24 1 3 4 0.34481038D-01 0.45373635D-01 0.29541060D+05 0.29541060D+05 0.29541060D+05 0.12156017D+01  1  2  5  9  6  1       21 -.486249247932D-03 0.100000000000D+01
-.398192206744D-05 0.000000000000D+00 -.178970367517D-06 0.209989773456D-05 0.000000000000D+00  6 4 2 25 24 1 4 4 0.34481038D-01 0.45373635D-01 0.29541060D+05 0.29541060D+05 0.29541060D+05 0.12156017D+01  1  2  5  9  6  1       21 -.407293416671D-03 0.100000000000D+01
0.665421556661D-06 0.000000000000D+00 0.000000000000D+00 0.209989773456D-05 0.155776858414D-07  6 3 2 25 24 1 3 4 0.34446750D-01 0.45456033D-01 0.30761340D+05 0.30761340D+05 0.30761340D+05 0.12137577D+01  1  2 11  9  6  1       21 0.808535188351D-04 0.100000000000D+01
0.665421556661D-06 0.000000000000D+00 0.000000000000D+00 0.209989773456D-05 0.155776858414D-07  6 4 2 25 24 1 4 4 0.34446750D-01 0.45456033D-01 0.30761340D+05 0.30761340D+05 0.30761340D+05 0.12137577D+01  1  2 11  9  6  1       21 0.677558323086D-04 0.100000000000D+01
  </mgrwgt>
  </event>
  <event>
  6     66 0.42910585E-03 0.30632631E+02 0.75467711E-02 0.11870504E+00
        2 -1    0    0  501    0 0.00000000E+00 0.00000000E+00 0.12337407E+04 0.12337408E+04 0.32000000E+00 0.0000E+00 0.9000E+01
        2 -1    0    0  502    0 0.00000000E+00 0.00000000E+00 -.49715052E+03 0.49715063E+03 0.32000000E+00 0.0000E+00 0.9000E+01
       25  1    1    2    0    0 0.60125863E+01 -.23548790E+02 -.22472063E+03 0.25829258E+03 0.12500000E+03 0.0000E+00 0.9000E+01
       24  1    1    2    0    0 0.10847518E+02 0.23841412E+02 -.62628831E+02 0.10524100E+03 0.80419002E+02 0.0000E+00 0.9000E+01
        1  1    1    2  501    0 0.32771514E+01 0.53488041E+02 -.16681893E+03 0.17521521E+03 0.32000000E+00 0.0000E+00 0.9000E+01
        2  1    1    2  502    0 -.20137256E+02 -.53780663E+02 0.11907586E+04 0.11921426E+04 0.32000000E+00 0.0000E+00 0.9000E+01
#aMCatNLO 2  0  0  1  2 0.11227762D+02 0.00000000D+00  -5  6  0 0.00000000D+00 0.00000000D+00 0.00000000D+00 0.00000000D+00 0.00000000D+00
  <mgrwgt>
 0.5910002220D+00    1    2    0
 0.142024170276672D+03 0.000000000000000D+00 0.000000000000000D+00 0.142024170276672D+03
 0.142024170276672D+03 0.000000000000000D+00 0.000000000000000D+00 -.142024170276672D+03
 0.134622253116956D+03 -.320331391020342D+01 -.481620933321359D+02 -.129731484283947D+02
 0.941875036647174D+02 0.412092531175963D+01 0.587642054353706D+01 0.485031498811265D+02
 0.552385837716702D+02 -.917611401556213D+00 0.422856727885988D+02 -.355300014527318D+02
 0.000000000000000D+00 -.000000000000000D+00 -.000000000000000D+00 0.000000000000000D+00
 0.422712963933679D+04 0.000000000000000D+00 0.000000000000000D+00 0.422712963933679D+04
 0.145099625755777D+03 0.000000000000000D+00 0.000000000000000D+00 -.145099625755777D+03
 0.128000057404188D+03 0.601259797124494D+01 -.235491142289130D+02 -.129731484283947D+02
 0.974979111323589D+02 0.108475278164105D+02 0.238411894142047D+02 0.485031498811265D+02
 0.642973533555170D+02 0.327712994027589D+01 0.534885881721293D+02 -.355300014527318D+02
 0.408243394320050D+04 -.201372557279314D+02 -.537806633574210D+02 0.408203001358101D+04
0.136581426768D-01 0.000000000000D+00 0.000000000000D+00 0.282690699824D-06 0.621662740970D-06  6 2 2 25 24 1 2 4 0.18980627D+00 0.76484704D-01 0.26071591D+05 0.26071591D+05 0.26071591D+05 0.12213482D+01  1  2  1  7  6  1       21 0.591000221997D+00 0.100000000000D+01
  </mgrwgt>
  </event>
  <event>
  5     66 -.42910585E-03 0.37277522E+02 0.75467711E-02 0.12352792E+00
       21 -1    0    0  501  502 0.00000000E+00 0.00000000E+00 0.23777223E+02 0.23789049E+02 0.75000000E+00 0.0000E+00 0.9000E+01
        2 -1    0    0  502    0 -.00000000E+00 -.00000000E+00 -.69291522E+03 0.69291529E+03 0.32000000E+00 0.0000E+00 0.9000E+01
       25  1    1    2    0    0 0.71433637E+01 -.50146331E+02 -.40886461E+03 0.43053566E+03 0.12500000E+03 0.0000E+00 0.9000E+01
       24  1    1    2    0    0 -.59419796E+01 0.12889324E+02 -.17655342E+03 0.19452447E+03 0.80419002E+02 0.0000E+00 0.9000E+01
        1  1    1    2  501    0 -.12013841E+01 0.37257007E+02 -.83719961E+02 0.91644215E+02 0.32000000E+00 0.0000E+00 0.9000E+01
#aMCatNLO 1  0  0  5  1 0.67754594D+01 0.00000000D+00  -5  6  0 0.00000000D+00 0.00000000D+00 0.00000000D+00 0.00000000D+00 0.00000000D+00
  <mgrwgt>
 -.1933521470D+00    8    2    0
 0.128373923053748D+03 0.000000000000000D+00 0.000000000000000D+00 0.128373923053748D+03
 0.128373923053748D+03 -.000000000000000D+00 -.000000000000000D+00 -.128373923053748D+03
 0.136242623755578D+03 0.714338678460244D+01 -.501470462906239D+02 -.192691022462274D+02
 0.828747264619287D+02 -.594196561583211D+01 0.128888896354280D+02 0.141270626938157D+02
 0.376304958899887D+02 -.120142116877032D+01 0.372581566551960D+02 0.514203955241166D+01
 0.000000000000000D+00 0.000000000000000D+00 0.000000000000000D+00 0.000000000000000D+00
 0.128373923053748D+03 0.000000000000000D+00 0.000000000000000D+00 0.128373923053748D+03
 0.128373923053748D+03 -.000000000000000D+00 -.000000000000000D+00 -.128373923053748D+03
 0.135150232543697D+03 0.705070003817404D+01 -.472726693376824D+02 -.188724062927118D+02
 0.832121067419899D+02 -.599868799387913D+01 0.146479490744205D+02 0.143698324393523D+02
 0.311457621902133D+02 0.134447939024087D+01 0.310428239414913D+02 -.214335235463274D+01
 0.723974463159533D+01 -.239649143453578D+01 0.158189632177063D+01 0.664592620799228D+01
0.427685738525D-05 0.000000000000D+00 0.000000000000D+00 0.620037804647D-06 0.000000000000D+00  6 21 2 25 24 1 21 2 0.36589497D-02 0.10660326D+00 0.16105184D+05 0.16105184D+05 0.16105184D+05 0.12443181D+01  1  2  2  3  6  5        1 0.159042777514D+00 0.100000000000D+01
-.762074576559D-07 0.225695964866D-06 -.863374284359D-08 0.620037804647D-06 0.000000000000D+00  6 21 2 25 24 1 21 4 0.36589497D-02 0.10660326D+00 0.16105184D+05 0.16105184D+05 0.16105184D+05 0.12443181D+01  1  2  3  3  6  5        1 -.438782700000D-02 0.100000000000D+01
0.362703067962D-06 0.000000000000D+00 0.000000000000D+00 0.620037804647D-06 0.000000000000D+00  6 21 2 25 24 1 21 4 0.36589497D-02 0.10660326D+00 0.16105184D+05 0.16105184D+05 0.16105184D+05 0.12443181D+01  1  2 15  3  6  5        1 0.208834983286D-01 0.100000000000D+01
0.347652901033D-05 0.000000000000D+00 0.000000000000D+00 0.621627671778D-06 0.000000000000D+00  6 21 2 25 24 1 21 4 0.36589497D-02 0.10660326D+00 0.15591451D+05 0.15591451D+05 0.15591451D+05 0.12459124D+01  1  2 12  3  6  5        1 0.201057811776D+00 0.100000000000D+01
-.127908881909D-04 0.000000000000D+00 0.000000000000D+00 0.620037804647D-06 0.000000000000D+00  6 21 2 25 24 1 21 4 0.36589497D-02 0.10660326D+00 0.16105184D+05 0.16105184D+05 0.16105184D+05 0.12443181D+01  1  2  4  3  6  5        1 -.736466039998D+00 0.100000000000D+01
-.412509713568D-05 0.000000000000D+00 0.000000000000D+00 0.620037804647D-06 0.000000000000D+00  6 21 2 25 24 1 21 4 0.36589497D-02 0.10660326D+00 0.16105184D+05 0.16105184D+05 0.16105184D+05 0.12443181D+01  1  2  5  3  6  5        1 -.237512353073D+00 0.100000000000D+01
0.550634494431D-05 0.000000000000D+00 -.000000000000D+00 0.620037804647D-06 0.000000000000D+00  6 21 2 25 24 1 21 4 0.36589497D-02 0.10660326D+00 0.16105184D+05 0.16105184D+05 0.16105184D+05 0.12443181D+01  1  2  6  3  6  5        1 0.317041005712D+00 0.100000000000D+01
0.150414305756D-05 0.000000000000D+00 0.000000000000D+00 0.620037804647D-06 0.158731567801D-05  6 21 2 25 24 1 21 4 0.36589497D-02 0.10660326D+00 0.15591451D+05 0.15591451D+05 0.15591451D+05 0.12459124D+01  1  2 11  3  6  5        1 0.869889797708D-01 0.100000000000D+01
  </mgrwgt>
  </event>
  <event>
  6     66 0.42910585E-03 0.89964962E+02 0.75467711E-02 0.11432646E+00
       21 -1    0    0  501  502 0.00000000E+00 0.00000000E+00 0.10374039E+02 0.10401114E+02 0.75000000E+00 0.0000E+00 0.9000E+01
        2 -1    0    0  502    0 -.00000000E+00 -.00000000E+00 -.48222414E+04 0.48222414E+04 0.32000000E+00 0.0000E+00 0.9000E+01
       25  1    1    2    0    0 0.85586748E+02 -.41145893E+02 -.26205787E+04 0.26252763E+04 0.12500000E+03 0.0000E+00 0.9000E+01
       24  1    1    2    0    0 -.30700433E+02 0.12734006E+03 -.10991616E+04 0.11098565E+04 0.80419002E+02 0.0000E+00 0.9000E+01
        1  1    1    2  503    0 -.74492987E+01 -.32580938E+02 -.49065356E+03 0.49179064E+03 0.32000000E+00 0.0000E+00 0.9000E+01
       21  1    1    2  501  503 -.47437017E+02 -.53613232E+02 -.60147346E+03 0.60571903E+03 0.75000000E+00 0.0000E+00 0.9000E+01
#aMCatNLO 2  0  0  5  1 0.16801074D+02 0.00000000D+00  -5  6  0 0.00000000D+00 0.00000000D+00 0.00000000D+00 0.00000000D+00 0.00000000D+00
  <mgrwgt>
 0.6722934601D-02    2    2    0
 0.223811455769133D+03 0.000000000000000D+00 0.000000000000000D+00 0.223811455769133D+03
 0.223811455769133D+03 -.000000000000000D+00 -.000000000000000D+00 -.223811455769133D+03
 0.172593379106536D+03 0.869097297871813D+02 -.390682657806485D+02 -.713010798559466D+02
 0.167730644956398D+03 -.294185945041116D+02 0.129353078272599D+03 0.637862112209554D+02
 0.107298887475332D+03 -.574911352830697D+02 -.902848124919505D+02 0.751486863499118D+01
 0.000000000000000D+00 0.000000000000000D+00 0.000000000000000D+00 0.000000000000000D+00
 0.223811455769133D+03 0.000000000000000D+00 0.000000000000000D+00 0.223811455769133D+03
 0.223811455769133D+03 -.000000000000000D+00 -.000000000000000D+00 -.223811455769133D+03
 0.172346179254471D+03 0.856018673439568D+02 -.411221496510991D+02 -.711301245529233D+02
 0.166493271094284D+03 -.306858278406042D+02 0.127362998869828D+03 0.639518557504422D+02
 0.345144635733757D+02 -.725852657358193D+01 -.320795431715769D+02 -.104625473782159D+02
 0.742689976161360D+02 -.476575129297706D+02 -.541613060471515D+02 0.176408161806971D+02
-.176686836679D-04 0.000000000000D+00 0.000000000000D+00 0.940318971533D-07 0.000000000000D+00  6 21 2 25 24 1 21 4 0.15980895D-02 0.74188537D+00 0.43209565D+05 0.43209565D+05 0.43209565D+05 0.11986111D+01  1  2 13  3  6  5        1 -.702544250434D-02 0.100000000000D+01
0.345765730580D-04 0.000000000000D+00 0.000000000000D+00 0.939136668735D-07 0.888675527676D-09  6 21 2 25 24 1 21 4 0.15980895D-02 0.74188537D+00 0.43209565D+05 0.43209565D+05 0.43209565D+05 0.11986111D+01  1  2  1  3  6  5        1 0.137483771051D-01 0.100000000000D+01
  </mgrwgt>
  </event>
  <event>
  5     66 -.42910585E-03 0.91320391E+02 0.75467711E-02 0.10804199E+00
       21 -1    0    0  501  502 0.00000000E+00 0.00000000E+00 0.70309251E+02 0.70313251E+02 0.75000000E+00 0.0000E+00 0.9000E+01
        2 -1    0    0  502    0 0.00000000E+00 0.00000000E+00 -.16280694E+04 0.16280694E+04 0.32000000E+00 0.0000E+00 0.9000E+01
       25  1    1    2    0    0 0.21800808E+03 -.16973058E+03 -.93357555E+03 0.98159274E+03 0.12500000E+03 0.0000E+00 0.9000E+01
       24  1    1    2    0    0 -.12787406E+03 0.15505954E+03 -.57203895E+03 0.61162979E+03 0.80419002E+02 0.0000E+00 0.9000E+01
        1  1    1    2  501    0 -.90134022E+02 0.14671044E+02 -.52145610E+02 0.10516011E+03 0.32000000E+00 0.0000E+00 0.9000E+01
#aMCatNLO 1  0  0  1  2 0.91381599D+01 0.00000000D+00  -5  6  0 0.00000000D+00 0.00000000D+00 0.00000000D+00 0.00000000D+00 0.00000000D+00
  <mgrwgt>
 -.1766887728D+00   41    2    0
 0.338336755491920D+03 0.000000000000000D+00 0.000000000000000D+00 0.338336755491920D+03
 0.338336755491920D+03 0.000000000000000D+00 0.000000000000000D+00 -.338336755491920D+03
 0.314528923804124D+03 0.218008181556439D+03 -.169730595934630D+03 -.834709619419274D+02
 0.218246977686269D+03 -.127873984190079D+03 0.155059523801202D+03 -.277365383694563D+02
 0.143897609493447D+03 -.901341973663599D+02 0.146710721334275D+02 0.111207500311384D+03
 0.000000000000000D+00 -.000000000000000D+00 0.000000000000000D+00 0.000000000000000D+00
 0.484732978889899D+03 0.000000000000000D+00 0.000000000000000D+00 0.484732978889899D+03
 0.338510238452578D+03 0.000000000000000D+00 0.000000000000000D+00 -.338510238452578D+03
 0.318241051728341D+03 0.221754672675814D+03 -.171784256158975D+03 -.834709619419274D+02
 0.215746041845092D+03 -.125304407477503D+03 0.153650995842674D+03 -.277365383694563D+02
 0.142748117889025D+03 -.884370313920393D+02 0.137407610384542D+02 0.111207500311384D+03
 0.146508005880019D+03 -.801323380627198D+01 0.439249927784681D+01 0.146222740437320D+03
0.225299280965D-05 0.000000000000D+00 0.000000000000D+00 0.113438619818D-06 0.000000000000D+00  6 21 2 25 24 1 21 2 0.10817118D-01 0.25047252D+00 0.93345067D+05 0.93345067D+05 0.93345067D+05 0.11663292D+01  1  2  2  1  6  1       21 0.313958157492D-02 0.100000000000D+01
0.606675755858D-07 0.118893696985D-06 -.454814336669D-08 0.113438619818D-06 0.000000000000D+00  6 21 2 25 24 1 21 4 0.10817118D-01 0.25047252D+00 0.93345067D+05 0.93345067D+05 0.93345067D+05 0.11663292D+01  1  2  3  1  6  1       21 0.115003452629D-03 0.100000000000D+01
0.252713722093D-06 0.000000000000D+00 0.000000000000D+00 0.113438619818D-06 0.000000000000D+00  6 21 2 25 24 1 21 4 0.10817118D-01 0.25047252D+00 0.93345067D+05 0.93345067D+05 0.93345067D+05 0.11663292D+01  1  2 15  1  6  1       21 0.479052447484D-03 0.100000000000D+01
0.485182032779D-03 0.000000000000D+00 0.000000000000D+00 0.113219462067D-06 0.000000000000D+00  6 21 2 25 24 1 21 4 0.15499471D-01 0.25047252D+00 0.96004318D+05 0.96004318D+05 0.96004318D+05 0.11652020D+01  1  2 12  1  6  1       21 0.475665263096D+00 0.100000000000D+01
0.478298362239D-03 0.000000000000D+00 0.000000000000D+00 0.113219462067D-06 0.000000000000D+00  6 21 2 25 24 1 21 4 0.15563531D-01 0.25047252D+00 0.96004318D+05 0.96004318D+05 0.96004318D+05 0.11652020D+01  1  2 12  1  6  1       21 0.465360162342D+00 0.100000000000D+01
-.915659355388D-03 0.000000000000D+00 0.000000000000D+00 0.113438619818D-06 0.000000000000D+00  6 21 2 25 24 1 21 4 0.10817118D-01 0.25047252D+00 0.93345067D+05 0.93345067D+05 0.93345067D+05 0.11663292D+01  1  2  4  1  6  1       21 -.173575400507D+01 0.100000000000D+01
-.973415576651D-03 0.000000000000D+00 -.294664469815D-05 0.113438619818D-06 0.000000000000D+00  6 21 2 25 24 1 21 4 0.15500982D-01 0.25047252D+00 0.93345067D+05 0.93345067D+05 0.93345067D+05 0.11663292D+01  1  2  5  1  6  1       21 -.959081651716D+00 0.100000000000D+01
0.830228325470D-03 0.000000000000D+00 0.230423139778D-05 0.113438619818D-06 0.000000000000D+00  6 21 2 25 24 1 21 4 0.10817118D-01 0.25047252D+00 0.93345067D+05 0.93345067D+05 0.93345067D+05 0.11663292D+01  1  2  6  1  6  1       21 0.157380813354D+01 0.100000000000D+01
0.995392967138D-07 0.000000000000D+00 0.000000000000D+00 0.113438619818D-06 0.270090073254D-07  6 21 2 25 24 1 21 4 0.15497618D-01 0.25060095D+00 0.96004318D+05 0.96004318D+05 0.96004318D+05 0.11652020D+01  1  2 11  1  6  1       21 0.975085323441D-04 0.100000000000D+01
0.428250381031D-04 0.000000000000D+00 0.000000000000D+00 0.113219462067D-06 0.000000000000D+00  6 -1 2 25 24 1 -1 4 0.15499471D-01 0.25047252D+00 0.96004318D+05 0.96004318D+05 0.96004318D+05 0.11652020D+01  1  2 12  4  6  1       21 0.319089190398D-02 0.100000000000D+01
0.427409850965D-04 0.000000000000D+00 0.000000000000D+00 0.113219462067D-06 0.000000000000D+00  6 -1 2 25 24 1 -1 4 0.15563531D-01 0.25047252D+00 0.96004318D+05 0.96004318D+05 0.96004318D+05 0.11652020D+01  1  2 12  4  6  1       21 0.316365392400D-02 0.100000000000D+01
-.858882557344D-04 0.000000000000D+00 -.346736607477D-06 0.113438619818D-06 0.000000000000D+00  6 -1 2 25 24 1 -1 4 0.15500982D-01 0.25047252D+00 0.93345067D+05 0.93345067D+05 0.93345067D+05 0.11663292D+01  1  2  5  4  6  1       21 -.642758478006D-02 0.100000000000D+01
0.755318089385D-08 0.000000000000D+00 0.000000000000D+00 0.113438619818D-06 0.204762569460D-08  6 -1 2 25 24 1 -1 4 0.15497618D-01 0.25060095D+00 0.96004318D+05 0.96004318D+05 0.96004318D+05 0.11652020D+01  1  2 11  4  6  1       21 0.562319175976D-06 0.100000000000D+01
0.428250381031D-04 0.000000000000D+00 0.000000000000D+00 0.113219462067D-06 0.000000000000D+00  6 1 2 25 24 1 1 4 0.15499471D-01 0.25047252D+00 0.96004318D+05 0.96004318D+05 0.96004318D+05 0.11652020D+01  1  2 12  5  6  1       21 0.443279225118D-02 0.100000000000D+01
0.427409850965D-04 0.000000000000D+00 0.000000000000D+00 0.113219462067D-06 0.000000000000D+00  6 1 2 25 24 1 1 4 0.15563531D-01 0.25047252D+00 0.96004318D+05 0.96004318D+05 0.96004318D+05 0.11652020D+01  1  2 12  5  6  1       21 0.440006439492D-02 0.100000000000D+01
-.858882557344D-04 0.000000000000D+00 -.346736607477D-06 0.113438619818D-06 0.000000000000D+00  6 1 2 25 24 1 1 4 0.15500982D-01 0.25047252D+00 0.93345067D+05 0.93345067D+05 0.93345067D+05 0.11663292D+01  1  2  5  5  6  1       21 -.892961344329D-02 0.100000000000D+01
0.764024217610D-08 0.000000000000D+00 0.000000000000D+00 0.113438619818D-06 0.102958734022D-08  6 1 2 25 24 1 1 4 0.15497618D-01 0.25060095D+00 0.96004318D+05 0.96004318D+05 0.96004318D+05 0.11652020D+01  1  2 11  5  6  1       21 0.790152300631D-06 0.100000000000D+01
0.428250381031D-04 0.000000000000D+00 0.000000000000D+00 0.113219462067D-06 0.000000000000D+00  6 -2 2 25 24 1 -2 4 0.15499471D-01 0.25047252D+00 0.96004318D+05 0.96004318D+05 0.96004318D+05 0.11652020D+01  1  2 12  6  6  1       21 0.297954688159D-02 0.100000000000D+01
0.427409850965D-04 0.000000000000D+00 0.000000000000D+00 0.113219462067D-06 0.000000000000D+00  6 -2 2 25 24 1 -2 4 0.15563531D-01 0.25047252D+00 0.96004318D+05 0.96004318D+05 0.96004318D+05 0.11652020D+01  1  2 12  6  6  1       21 0.295328608852D-02 0.100000000000D+01
-.858882557344D-04 0.000000000000D+00 -.346736607477D-06 0.113438619818D-06 0.000000000000D+00  6 -2 2 25 24 1 -2 4 0.15500982D-01 0.25047252D+00 0.93345067D+05 0.93345067D+05 0.93345067D+05 0.11663292D+01  1  2  5  6  6  1       21 -.600171824289D-02 0.100000000000D+01
0.743551050940D-08 0.000000000000D+00 0.000000000000D+00 0.113438619818D-06 0.200227379536D-08  6 -2 2 25 24 1 -2 4 0.15497618D-01 0.25060095D+00 0.96004318D+05 0.96004318D+05 0.96004318D+05 0.11652020D+01  1  2 11  6  6  1       21 0.516898710228D-06 0.100000000000D+01
0.428250381031D-04 0.000000000000D+00 0.000000000000D+00 0.113219462067D-06 0.000000000000D+00  6 2 2 25 24 1 2 4 0.15499471D-01 0.25047252D+00 0.96004318D+05 0.96004318D+05 0.96004318D+05 0.11652020D+01  1  2 12  7  6  1       21 0.529960226100D-02 0.100000000000D+01
0.427409850965D-04 0.000000000000D+00 0.000000000000D+00 0.113219462067D-06 0.000000000000D+00  6 2 2 25 24 1 2 4 0.15563531D-01 0.25047252D+00 0.96004318D+05 0.96004318D+05 0.96004318D+05 0.11652020D+01  1  2 12  7  6  1       21 0.526326579030D-02 0.100000000000D+01
-.858882557344D-04 0.000000000000D+00 -.346736607477D-06 0.113438619818D-06 0.000000000000D+00  6 2 2 25 24 1 2 4 0.15500982D-01 0.25047252D+00 0.93345067D+05 0.93345067D+05 0.93345067D+05 0.11663292D+01  1  2  5  7  6  1       21 -.106756325341D-01 0.100000000000D+01
0.743098089102D-08 0.000000000000D+00 0.000000000000D+00 0.113438619818D-06 0.200115834570D-08  6 2 2 25 24 1 2 4 0.15497618D-01 0.25060095D+00 0.96004318D+05 0.96004318D+05 0.96004318D+05 0.11652020D+01  1  2 11  7  6  1       21 0.918774760362D-06 0.100000000000D+01
0.428250381031D-04 0.000000000000D+00 0.000000000000D+00 0.113219462067D-06 0.000000000000D+00  6 -3 2 25 24 1 -3 4 0.15499471D-01 0.25047252D+00 0.96004318D+05 0.96004318D+05 0.96004318D+05 0.11652020D+01  1  2 12  8  6  1       21 0.204405240722D-02 0.100000000000D+01
0.428250381031D-04 0.000000000000D+00 0.000000000000D+00 0.113219462067D-06 0.000000000000D+00  6 -4 2 25 24 1 -4 4 0.15499471D-01 0.25047252D+00 0.96004318D+05 0.96004318D+05 0.96004318D+05 0.11652020D+01  1  2 12  8  6  1       21 0.178454918292D-02 0.100000000000D+01
0.427409850965D-04 0.000000000000D+00 0.000000000000D+00 0.113219462067D-06 0.000000000000D+00  6 -3 2 25 24 1 -3 4 0.15563531D-01 0.25047252D+00 0.96004318D+05 0.96004318D+05 0.96004318D+05 0.11652020D+01  1  2 12  8  6  1       21 0.202540819982D-02 0.100000000000D+01
0.427409850965D-04 0.000000000000D+00 0.000000000000D+00 0.113219462067D-06 0.000000000000D+00  6 -4 2 25 24 1 -4 4 0.15563531D-01 0.25047252D+00 0.96004318D+05 0.96004318D+05 0.96004318D+05 0.11652020D+01  1  2 12  8  6  1       21 0.176801638097D-02 0.100000000000D+01
-.858882557344D-04 0.000000000000D+00 -.346736607477D-06 0.113438619818D-06 0.000000000000D+00  6 -3 2 25 24 1 -3 4 0.15500982D-01 0.25047252D+00 0.93345067D+05 0.93345067D+05 0.93345067D+05 0.11663292D+01  1  2  5  8  6  1       21 -.411526928741D-02 0.100000000000D+01
-.858882557344D-04 0.000000000000D+00 -.346736607477D-06 0.113438619818D-06 0.000000000000D+00  6 -4 2 25 24 1 -4 4 0.15500982D-01 0.25047252D+00 0.93345067D+05 0.93345067D+05 0.93345067D+05 0.11663292D+01  1  2  5  8  6  1       21 -.359200676000D-02 0.100000000000D+01
0.744284164640D-08 0.000000000000D+00 0.000000000000D+00 0.113438619818D-06 0.200424796290D-08  6 -3 2 25 24 1 -3 4 0.15497618D-01 0.25060095D+00 0.96004318D+05 0.96004318D+05 0.96004318D+05 0.11652020D+01  1  2 11  8  6  1       21 0.354959780669D-06 0.100000000000D+01
0.744284164640D-08 0.000000000000D+00 0.000000000000D+00 0.113438619818D-06 0.200424796290D-08  6 -4 2 25 24 1 -4 4 0.15497618D-01 0.25060095D+00 0.96004318D+05 0.96004318D+05 0.96004318D+05 0.11652020D+01  1  2 11  8  6  1       21 0.309897063833D-06 0.100000000000D+01
0.428250381031D-04 0.000000000000D+00 0.000000000000D+00 0.113219462067D-06 0.000000000000D+00  6 3 2 25 24 1 3 4 0.15499471D-01 0.25047252D+00 0.96004318D+05 0.96004318D+05 0.96004318D+05 0.11652020D+01  1  2 12  9  6  1       21 0.204385007212D-02 0.100000000000D+01
0.428250381031D-04 0.000000000000D+00 0.000000000000D+00 0.113219462067D-06 0.000000000000D+00  6 4 2 25 24 1 4 4 0.15499471D-01 0.25047252D+00 0.96004318D+05 0.96004318D+05 0.96004318D+05 0.11652020D+01  1  2 12  9  6  1       21 0.178454918292D-02 0.100000000000D+01
0.427409850965D-04 0.000000000000D+00 0.000000000000D+00 0.113219462067D-06 0.000000000000D+00  6 3 2 25 24 1 3 4 0.15563531D-01 0.25047252D+00 0.96004318D+05 0.96004318D+05 0.96004318D+05 0.11652020D+01  1  2 12  9  6  1       21 0.202520831528D-02 0.100000000000D+01
0.427409850965D-04 0.000000000000D+00 0.000000000000D+00 0.113219462067D-06 0.000000000000D+00  6 4 2 25 24 1 4 4 0.15563531D-01 0.25047252D+00 0.96004318D+05 0.96004318D+05 0.96004318D+05 0.11652020D+01  1  2 12  9  6  1       21 0.176801638097D-02 0.100000000000D+01
-.858882557344D-04 0.000000000000D+00 -.346736607477D-06 0.113438619818D-06 0.000000000000D+00  6 3 2 25 24 1 3 4 0.15500982D-01 0.25047252D+00 0.93345067D+05 0.93345067D+05 0.93345067D+05 0.11663292D+01  1  2  5  9  6  1       21 -.411486058881D-02 0.100000000000D+01
-.858882557344D-04 0.000000000000D+00 -.346736607477D-06 0.113438619818D-06 0.000000000000D+00  6 4 2 25 24 1 4 4 0.15500982D-01 0.25047252D+00 0.93345067D+05 0.93345067D+05 0.93345067D+05 0.11663292D+01  1  2  5  9  6  1       21 -.359200676000D-02 0.100000000000D+01
0.744284164640D-08 0.000000000000D+00 0.000000000000D+00 0.113438619818D-06 0.200424796290D-08  6 3 2 25 24 1 3 4 0.15497618D-01 0.25060095D+00 0.96004318D+05 0.96004318D+05 0.96004318D+05 0.11652020D+01  1  2 11  9  6  1       21 0.354924641133D-06 0.100000000000D+01
0.744284164640D-08 0.000000000000D+00 0.000000000000D+00 0.113438619818D-06 0.200424796290D-08  6 4 2 25 24 1 4 4 0.15497618D-01 0.25060095D+00 0.96004318D+05 0.96004318D+05 0.96004318D+05 0.11652020D+01  1  2 11  9  6  1       21 0.309897063833D-06 0.100000000000D+01
  </mgrwgt>
  </event>
  <event>
  5     66 0.42910585E-03 0.50097194E+02 0.75467711E-02 0.11708390E+00
       21 -1    0    0  501  502 0.00000000E+00 0.00000000E+00 0.32545252E+02 0.32553893E+02 0.75000000E+00 0.0000E+00 0.9000E+01
        2 -1    0    0  502    0 0.00000000E+00 0.00000000E+00 -.95840222E+03 0.95840227E+03 0.32000000E+00 0.0000E+00 0.9000E+01
       25  1    1    2    0    0 -.11243272E+03 0.55172451E+02 -.55029008E+03 0.57803917E+03 0.12500000E+03 0.0000E+00 0.9000E+01
       24  1    1    2    0    0 0.84242373E+02 -.13760303E+02 -.30143558E+03 0.32344512E+03 0.80419002E+02 0.0000E+00 0.9000E+01
        1  1    1    2  501    0 0.28190348E+02 -.41412148E+02 -.74131311E+02 0.89471870E+02 0.32000000E+00 0.0000E+00 0.9000E+01
#aMCatNLO 1  0  0  1  5 0.92306154D+01 0.00000000D+00  -5  6  0 0.00000000D+00 0.00000000D+00 0.00000000D+00 0.00000000D+00 0.00000000D+00
  <mgrwgt>
 0.6339845394D-01   13    2    0
 0.176623185076453D+03 0.000000000000000D+00 0.000000000000000D+00 0.176623185076453D+03
 0.176623185076453D+03 0.000000000000000D+00 0.000000000000000D+00 -.176623185076453D+03
 0.179256418755361D+03 -.112432949339831D+03 0.551727861117976D+02 -.286820368943047D+02
 0.117293944405822D+03 0.842422242008482D+02 -.137600840800166D+02 0.213569373049310D+01
 0.566960069917237D+02 0.281907251389825D+02 -.414127020317810D+02 0.265463431638116D+02
 0.000000000000000D+00 -.000000000000000D+00 0.000000000000000D+00 -.000000000000000D+00
 0.177255284957166D+03 0.000000000000000D+00 0.000000000000000D+00 0.177255284957166D+03
 0.213935520221101D+03 0.000000000000000D+00 0.000000000000000D+00 -.213935520221101D+03
 0.176214635220977D+03 -.109130480071221D+03 0.519083494736713D+02 -.286820368943047D+02
 0.119152310550089D+03 0.864389051455694D+02 -.159314671194840D+02 0.213569373049310D+01
 0.580000055523676D+02 0.292562972929508D+02 -.424660026069126D+02 0.265463431638116D+02
 0.378238538548319D+02 -.656472236729943D+01 0.648912025272531D+01 -.366802352639352D+02
0.423855900740D-05 0.000000000000D+00 0.000000000000D+00 0.330566638515D-06 0.000000000000D+00  6 21 2 25 24 1 21 2 0.50076306D-02 0.14744716D+00 0.29638823D+05 0.29638823D+05 0.29638823D+05 0.12154509D+01  1  2  2  1  6  1       21 0.594994646675D-01 0.100000000000D+01
0.482214768547D-08 0.223674903941D-06 -.855642945295D-08 0.330566638515D-06 0.000000000000D+00  6 21 2 25 24 1 21 4 0.50076306D-02 0.14744716D+00 0.29638823D+05 0.29638823D+05 0.29638823D+05 0.12154509D+01  1  2  3  1  6  1       21 0.100002337695D-03 0.100000000000D+01
0.385844740223D-06 0.000000000000D+00 0.000000000000D+00 0.330566638515D-06 0.000000000000D+00  6 21 2 25 24 1 21 4 0.50076306D-02 0.14744716D+00 0.29638823D+05 0.29638823D+05 0.29638823D+05 0.12154509D+01  1  2 15  1  6  1       21 0.800169935188D-02 0.100000000000D+01
-.202665927147D-06 0.000000000000D+00 0.000000000000D+00 0.330566638515D-06 0.000000000000D+00  6 21 2 25 24 1 21 4 0.50076306D-02 0.14744716D+00 0.29638823D+05 0.29638823D+05 0.29638823D+05 0.12154509D+01  1  2  4  1  6  1       21 -.420291285288D-02 0.100000000000D+01
0.118949704013D-10 0.000000000000D+00 0.000000000000D+00 0.330566638515D-06 0.305006760230D-07  6 21 2 25 24 1 21 4 0.50255520D-02 0.17859595D+00 0.31293048D+05 0.31293048D+05 0.31293048D+05 0.12129796D+01  1  2 11  1  6  1       21 0.184750003844D-06 0.100000000000D+01
0.645123872238D-11 0.000000000000D+00 0.000000000000D+00 0.329223803968D-06 0.321180053690D-09  6 -1 2 25 24 1 -1 4 0.50255520D-02 0.17859595D+00 0.31293048D+05 0.31293048D+05 0.31293048D+05 0.12129796D+01  1  2 11  4  6  1       21 0.578298760642D-08 0.100000000000D+01
0.317749929561D-11 0.000000000000D+00 0.000000000000D+00 0.329223803968D-06 0.463689067953D-10  6 1 2 25 24 1 1 4 0.50255520D-02 0.17859595D+00 0.31293048D+05 0.31293048D+05 0.31293048D+05 0.12129796D+01  1  2 11  5  6  1       21 0.321004208764D-08 0.100000000000D+01
0.180224985055D-11 0.000000000000D+00 0.000000000000D+00 0.329223803968D-06 0.113226748085D-10  6 -2 2 25 24 1 -2 4 0.50255520D-02 0.17859595D+00 0.31293048D+05 0.31293048D+05 0.31293048D+05 0.12129796D+01  1  2 11  6  6  1       21 0.157943236173D-08 0.100000000000D+01
0.812914055208D-12 0.000000000000D+00 0.000000000000D+00 0.329223803968D-06 0.203046359282D-08  6 2 2 25 24 1 2 4 0.50255520D-02 0.17859595D+00 0.31293048D+05 0.31293048D+05 0.31293048D+05 0.12129796D+01  1  2 11  7  6  1       21 0.883528167869D-09 0.100000000000D+01
0.173222984717D-11 0.000000000000D+00 0.000000000000D+00 0.329223803968D-06 0.108827725785D-10  6 -3 2 25 24 1 -3 4 0.50255520D-02 0.17859595D+00 0.31293048D+05 0.31293048D+05 0.31293048D+05 0.12129796D+01  1  2 11  8  6  1       21 0.111539061264D-08 0.100000000000D+01
0.173222984717D-11 0.000000000000D+00 0.000000000000D+00 0.329223803968D-06 0.108827725785D-10  6 -4 2 25 24 1 -4 4 0.50255520D-02 0.17859595D+00 0.31293048D+05 0.31293048D+05 0.31293048D+05 0.12129796D+01  1  2 11  8  6  1       21 0.998221578414D-09 0.100000000000D+01
0.173222984717D-11 0.000000000000D+00 0.000000000000D+00 0.329223803968D-06 0.108827725785D-10  6 3 2 25 24 1 3 4 0.50255520D-02 0.17859595D+00 0.31293048D+05 0.31293048D+05 0.31293048D+05 0.12129796D+01  1  2 11  9  6  1       21 0.111528421053D-08 0.100000000000D+01
0.173222984717D-11 0.000000000000D+00 0.000000000000D+00 0.329223803968D-06 0.108827725785D-10  6 4 2 25 24 1 4 4 0.50255520D-02 0.17859595D+00 0.31293048D+05 0.31293048D+05 0.31293048D+05 0.12129796D+01  1  2 11  9  6  1       21 0.998221578414D-09 0.100000000000D+01
  </mgrwgt>
  </event>
  <event>
  5     66 0.42910585E-03 0.52718262E+02 0.75467711E-02 0.11518026E+00
       21 -1    0    0  501  502 0.00000000E+00 0.00000000E+00 0.50989783E+02 0.50995299E+02 0.75000000E+00 0.0000E+00 0.9000E+01
        2 -1    0    0  502    0 0.00000000E+00 0.00000000E+00 -.54960329E+03 0.54960338E+03 0.32000000E+00 0.0000E+00 0.9000E+01
       25  1    1    2    0    0 -.73081323E+02 0.28733317E+02 -.14240001E+03 0.20510789E+03 0.12500000E+03 0.0000E+00 0.9000E+01
       24  1    1    2    0    0 0.84746057E+02 0.22677507E+02 -.24056871E+03 0.26839651E+03 0.80419002E+02 0.0000E+00 0.9000E+01
        1  1    1    2  501    0 -.11664734E+02 -.51410824E+02 -.11564478E+03 0.12709428E+03 0.32000000E+00 0.0000E+00 0.9000E+01
#aMCatNLO 1  0  0  1  5 0.92306154D+01 0.00000000D+00  -5  6  0 0.00000000D+00 0.00000000D+00 0.00000000D+00 0.00000000D+00 0.00000000D+00
  <mgrwgt>
 0.6537536325D-01    4    2    0
 0.167409189563598D+03 0.000000000000000D+00 0.000000000000000D+00 0.167409189563598D+03
 0.167409189563598D+03 0.000000000000000D+00 0.000000000000000D+00 -.167409189563598D+03
 0.155860573634727D+03 -.730812334857993D+02 0.287337110490094D+02 0.500102547013329D+02
 0.123194565756833D+03 0.847461279435666D+02 0.226778184093032D+02 -.318354429592466D+02
 0.557632397356366D+02 -.116648944577673D+02 -.514115294583126D+02 -.181748117420863D+02
 0.000000000000000D+00 -.000000000000000D+00 0.000000000000000D+00 -.000000000000000D+00
 0.187547634537236D+03 0.000000000000000D+00 0.000000000000000D+00 0.187547634537236D+03
 0.241676289995521D+03 0.000000000000000D+00 0.000000000000000D+00 -.241676289995521D+03
 0.147430308253576D+03 -.600747114071027D+02 0.836221146283108D+00 0.500102547013329D+02
 0.128887671463777D+03 0.955565854279581D+02 -.509366196228594D+00 -.318354429592466D+02
 0.654693674934752D+02 -.646587702352707D+01 -.625628222864990D+02 -.181748117420863D+02
 0.874365773219292D+02 -.290159969973283D+02 0.622359673364444D+02 -.541286554582853D+02
0.542647945291D-05 0.000000000000D+00 0.000000000000D+00 0.195189250673D-06 0.000000000000D+00  6 21 2 25 24 1 21 2 0.78450135D-02 0.84554783D-01 0.25495752D+05 0.25495752D+05 0.25495752D+05 0.12223844D+01  1  2  2  1  6  1       21 0.704775624355D-01 0.100000000000D+01
-.321770650914D-06 0.286363188114D-06 -.109544985774D-07 0.195189250673D-06 0.000000000000D+00  6 21 2 25 24 1 21 4 0.78450135D-02 0.84554783D-01 0.25495752D+05 0.25495752D+05 0.25495752D+05 0.12223844D+01  1  2  3  1  6  1       21 -.624445795029D-02 0.100000000000D+01
0.624189245774D-06 0.000000000000D+00 0.000000000000D+00 0.195189250673D-06 0.000000000000D+00  6 21 2 25 24 1 21 4 0.78450135D-02 0.84554783D-01 0.25495752D+05 0.25495752D+05 0.25495752D+05 0.12223844D+01  1  2 15  1  6  1       21 0.121133592737D-01 0.100000000000D+01
-.565329797899D-06 0.000000000000D+00 0.000000000000D+00 0.195189250673D-06 0.000000000000D+00  6 21 2 25 24 1 21 4 0.78450135D-02 0.84554783D-01 0.25495752D+05 0.25495752D+05 0.25495752D+05 0.12223844D+01  1  2  4  1  6  1       21 -.109711005059D-01 0.100000000000D+01
  </mgrwgt>
  </event>
  <event>
  5     66 0.42910585E-03 0.73585287E+02 0.75467711E-02 0.10081915E+00
       21 -1    0    0  501  502 0.00000000E+00 0.00000000E+00 0.74117601E+02 0.74121395E+02 0.75000000E+00 0.0000E+00 0.9000E+01
        2 -1    0    0  502    0 0.00000000E+00 0.00000000E+00 -.40266159E+03 0.40266172E+03 0.32000000E+00 0.0000E+00 0.9000E+01
       25  1    1    2    0    0 0.37560712E+02 0.77267575E+01 -.20450122E+03 0.24272672E+03 0.12500000E+03 0.0000E+00 0.9000E+01
       24  1    1    2    0    0 -.43092981E+02 0.65649949E+02 -.11346628E+03 0.15971454E+03 0.80419002E+02 0.0000E+00 0.9000E+01
        1  1    1    2  501    0 0.55322690E+01 -.73376706E+02 -.10576485E+02 0.74341856E+02 0.32000000E+00 0.0000E+00 0.9000E+01
#aMCatNLO 1  0  0  1  1 0.49083928D+03 0.00000000D+00  -5  6  0 0.00000000D+00 0.00000000D+00 0.00000000D+00 0.00000000D+00 0.00000000D+00
  <mgrwgt>
 0.1325774040D+00   12    2    0
 0.172757766265530D+03 0.000000000000000D+00 0.000000000000000D+00 0.172757766265530D+03
 0.172757766265530D+03 0.000000000000000D+00 0.000000000000000D+00 -.172757766265530D+03
 0.140486801495781D+03 0.375606986735864D+02 0.772693594359707D+01 -.513909502791157D+02
 0.112500186383184D+03 -.430929919050368D+02 0.656500918543351D+02 -.470483475485437D+01
 0.925285446520945D+02 0.553229323145036D+01 -.733770277979322D+02 0.560957850339701D+02
 0.000000000000000D+00 0.000000000000000D+00 -.000000000000000D+00 0.000000000000000D+00
 0.780381639319676D+03 0.000000000000000D+00 0.000000000000000D+00 0.780381639319676D+03
 0.425540944913780D+03 0.000000000000000D+00 0.000000000000000D+00 -.425540944913780D+03
 0.239178103628430D+03 -.192903198690660D+02 0.196387420788732D+03 -.513909502791157D+02
 0.302402255193990D+03 -.105220478752363D+03 0.271820572019657D+03 -.470483475485437D+01
 0.586730748995723D+02 -.171086355475703D+02 0.175704561518620D+01 0.560957850339701D+02
 0.605669150511464D+03 0.141619434168999D+03 -.469965038423575D+03 0.354840694405896D+03
0.492893951589D-05 0.000000000000D+00 0.000000000000D+00 0.425018739067D-06 0.000000000000D+00  6 21 2 25 24 1 21 2 0.11403009D-01 0.61948239D-01 0.25080559D+05 0.25080559D+05 0.25080559D+05 0.12231479D+01  1  2  2  1  6  1       21 0.468028894562D-01 0.100000000000D+01
-.147852936458D-06 0.260107284297D-06 -.995010879215D-08 0.425018739067D-06 0.000000000000D+00  6 21 2 25 24 1 21 4 0.11403009D-01 0.61948239D-01 0.25080559D+05 0.25080559D+05 0.25080559D+05 0.12231479D+01  1  2  3  1  6  1       21 -.210042442882D-02 0.100000000000D+01
0.555765966231D-06 0.000000000000D+00 0.000000000000D+00 0.425018739067D-06 0.000000000000D+00  6 21 2 25 24 1 21 4 0.11403009D-01 0.61948239D-01 0.25080559D+05 0.25080559D+05 0.25080559D+05 0.12231479D+01  1  2 15  1  6  1       21 0.789530759512D-02 0.100000000000D+01
0.348771438151D-03 0.000000000000D+00 -.144240683325D-03 0.425018739067D-06 0.000000000000D+00  6 21 2 25 24 1 21 4 0.11566190D+00 0.61948239D-01 0.25080559D+05 0.25080559D+05 0.25080559D+05 0.12231479D+01  1  2  5  1  6  1       21 0.456571700631D-01 0.100000000000D+01
0.153883840983D-03 0.000000000000D+00 -.630847911009D-04 0.425018739067D-06 0.000000000000D+00  6 -1 2 25 24 1 -1 4 0.11566190D+00 0.61948239D-01 0.25080559D+05 0.25080559D+05 0.25080559D+05 0.12231479D+01  1  2  5  4  6  1       21 0.233838594932D-02 0.100000000000D+01
0.153883840983D-03 0.000000000000D+00 -.630847911009D-04 0.425018739067D-06 0.000000000000D+00  6 1 2 25 24 1 1 4 0.11566190D+00 0.61948239D-01 0.25080559D+05 0.25080559D+05 0.25080559D+05 0.12231479D+01  1  2  5  5  6  1       21 0.972279608312D-02 0.100000000000D+01
0.153883840983D-03 0.000000000000D+00 -.630847911009D-04 0.425018739067D-06 0.000000000000D+00  6 -2 2 25 24 1 -2 4 0.11566190D+00 0.61948239D-01 0.25080559D+05 0.25080559D+05 0.25080559D+05 0.12231479D+01  1  2  5  6  6  1       21 0.171547038853D-02 0.100000000000D+01
0.153883840983D-03 0.000000000000D+00 -.630847911009D-04 0.425018739067D-06 0.000000000000D+00  6 2 2 25 24 1 2 4 0.11566190D+00 0.61948239D-01 0.25080559D+05 0.25080559D+05 0.25080559D+05 0.12231479D+01  1  2  5  7  6  1       21 0.166372871841D-01 0.100000000000D+01
0.153883840983D-03 0.000000000000D+00 -.630847911009D-04 0.425018739067D-06 0.000000000000D+00  6 -3 2 25 24 1 -3 4 0.11566190D+00 0.61948239D-01 0.25080559D+05 0.25080559D+05 0.25080559D+05 0.12231479D+01  1  2  5  8  6  1       21 0.108756015302D-02 0.100000000000D+01
0.153883840983D-03 0.000000000000D+00 -.630847911009D-04 0.425018739067D-06 0.000000000000D+00  6 -4 2 25 24 1 -4 4 0.11566190D+00 0.61948239D-01 0.25080559D+05 0.25080559D+05 0.25080559D+05 0.12231479D+01  1  2  5  8  6  1       21 0.865321645235D-03 0.100000000000D+01
0.153883840983D-03 0.000000000000D+00 -.630847911009D-04 0.425018739067D-06 0.000000000000D+00  6 3 2 25 24 1 3 4 0.11566190D+00 0.61948239D-01 0.25080559D+05 0.25080559D+05 0.25080559D+05 0.12231479D+01  1  2  5  9  6  1       21 0.109031829172D-02 0.100000000000D+01
0.153883840983D-03 0.000000000000D+00 -.630847911009D-04 0.425018739067D-06 0.000000000000D+00  6 4 2 25 24 1 4 4 0.11566190D+00 0.61948239D-01 0.25080559D+05 0.25080559D+05 0.25080559D+05 0.12231479D+01  1  2  5  9  6  1       21 0.865321645235D-03 0.100000000000D+01
  </mgrwgt>
  </event>
  <event>
  5     66 0.42910585E-03 0.55619791E+02 0.75467711E-02 0.11902495E+00
       21 -1    0    0  501  502 0.00000000E+00 0.00000000E+00 0.14075644E+02 0.14095611E+02 0.75000000E+00 0.0000E+00 0.9000E+01
        2 -1    0    0  502    0 0.00000000E+00 0.00000000E+00 -.15766359E+04 0.15766360E+04 0.32000000E+00 0.0000E+00 0.9000E+01
       25  1    1    2    0    0 0.37781711E+02 -.31291868E+02 -.54259829E+03 0.55896739E+03 0.12500000E+03 0.0000E+00 0.9000E+01
       24  1    1    2    0    0 0.19168022E+02 0.18184386E+02 -.38909362E+03 0.39819486E+03 0.80419002E+02 0.0000E+00 0.9000E+01
        1  1    1    2  501    0 -.56949733E+02 0.13107482E+02 -.63086838E+03 0.63356933E+03 0.32000000E+00 0.0000E+00 0.9000E+01
#aMCatNLO 1  0  0  1  5 0.39001922D+02 0.00000000D+00  -5  6  0 0.00000000D+00 0.00000000D+00 0.00000000D+00 0.00000000D+00 0.00000000D+00
  <mgrwgt>
 0.1479931894D+00   32    2    0
 0.149023732410014D+03 0.000000000000000D+00 0.000000000000000D+00 0.149023732410014D+03
 0.149023732410014D+03 0.000000000000000D+00 0.000000000000000D+00 -.149023732410014D+03
 0.138650986796720D+03 0.377819583918006D+02 -.312919250241790D+02 0.345316548700708D+02
 0.853518739889514D+02 0.191681740736898D+02 0.181843513306370D+02 0.109378658073683D+02
 0.740446040343562D+02 -.569501324654904D+02 0.131075736935420D+02 -.454695206774391D+02
 0.000000000000000D+00 -.000000000000000D+00 0.000000000000000D+00 0.000000000000000D+00
 0.197199180869131D+03 0.000000000000000D+00 0.000000000000000D+00 0.197199180869131D+03
 0.158401867500115D+03 0.000000000000000D+00 0.000000000000000D+00 -.158401867500115D+03
 0.146252634397238D+03 0.521152933195155D+02 -.430858919170452D+02 0.345316548700708D+02
 0.865044999132128D+02 0.278141679584967D+02 0.110701266126917D+02 0.109378658073683D+02
 0.678313571221122D+02 -.498124356509501D+02 0.723442830577661D+01 -.454695206774391D+02
 0.550125569366826D+02 -.301170256270622D+02 0.247813369985769D+02 0.387973133690155D+02
0.217883679891D-05 0.000000000000D+00 0.000000000000D+00 0.282993180572D-06 0.000000000000D+00  6 21 2 25 24 1 21 2 0.21670221D-02 0.24256091D+00 0.19233422D+05 0.19233422D+05 0.19233422D+05 0.12356991D+01  1  2  2  1  6  1       21 0.574772775549D-01 0.100000000000D+01
-.231392417798D-06 0.114980376786D-06 -.439844374629D-08 0.282993180572D-06 0.000000000000D+00  6 21 2 25 24 1 21 4 0.21670221D-02 0.24256091D+00 0.19233422D+05 0.19233422D+05 0.19233422D+05 0.12356991D+01  1  2  3  1  6  1       21 -.932064664476D-02 0.100000000000D+01
0.236841411751D-06 0.000000000000D+00 0.000000000000D+00 0.282993180572D-06 0.000000000000D+00  6 21 2 25 24 1 21 4 0.21670221D-02 0.24256091D+00 0.19233422D+05 0.19233422D+05 0.19233422D+05 0.12356991D+01  1  2 15  1  6  1       21 0.954013589031D-02 0.100000000000D+01
0.389766176806D-05 0.000000000000D+00 0.000000000000D+00 0.277203307608D-06 0.000000000000D+00  6 21 2 25 24 1 21 4 0.29192970D-02 0.24256091D+00 0.25164224D+05 0.25164224D+05 0.25164224D+05 0.12229929D+01  1  2 12  1  6  1       21 0.925856046560D-01 0.100000000000D+01
0.344388668807D-05 0.000000000000D+00 0.000000000000D+00 0.277203307608D-06 0.000000000000D+00  6 21 2 25 24 1 21 4 0.30261028D-02 0.24256091D+00 0.25164224D+05 0.25164224D+05 0.25164224D+05 0.12229929D+01  1  2 12  1  6  1       21 0.771044382017D-01 0.100000000000D+01
-.545036513830D-05 0.000000000000D+00 0.000000000000D+00 0.282993180572D-06 0.000000000000D+00  6 21 2 25 24 1 21 4 0.21670221D-02 0.24256091D+00 0.19233422D+05 0.19233422D+05 0.19233422D+05 0.12356991D+01  1  2  4  1  6  1       21 -.219544477829D+00 0.100000000000D+01
-.118954968082D-04 0.000000000000D+00 -.291853566201D-05 0.282993180572D-06 0.000000000000D+00  6 21 2 25 24 1 21 4 0.30622089D-02 0.24256091D+00 0.19233422D+05 0.19233422D+05 0.19233422D+05 0.12356991D+01  1  2  5  1  6  1       21 -.272479096055D+00 0.100000000000D+01
0.103308907512D-04 0.000000000000D+00 0.232347736534D-05 0.282993180572D-06 0.000000000000D+00  6 21 2 25 24 1 21 4 0.21670221D-02 0.24256091D+00 0.19233422D+05 0.19233422D+05 0.19233422D+05 0.12356991D+01  1  2  6  1  6  1       21 0.416135425412D+00 0.100000000000D+01
0.363933462882D-06 0.000000000000D+00 0.000000000000D+00 0.277203307608D-06 0.000000000000D+00  6 -1 2 25 24 1 -1 4 0.29192970D-02 0.24256091D+00 0.25164224D+05 0.25164224D+05 0.25164224D+05 0.12229929D+01  1  2 12  4  6  1       21 0.447305778733D-03 0.100000000000D+01
0.369875495310D-06 0.000000000000D+00 0.000000000000D+00 0.277203307608D-06 0.000000000000D+00  6 -1 2 25 24 1 -1 4 0.30261028D-02 0.24256091D+00 0.25164224D+05 0.25164224D+05 0.25164224D+05 0.12229929D+01  1  2 12  4  6  1       21 0.431347478448D-03 0.100000000000D+01
-.115857832373D-05 0.000000000000D+00 -.327160725884D-06 0.282993180572D-06 0.000000000000D+00  6 -1 2 25 24 1 -1 4 0.30622089D-02 0.24256091D+00 0.19233422D+05 0.19233422D+05 0.19233422D+05 0.12356991D+01  1  2  5  4  6  1       21 -.138003080493D-02 0.100000000000D+01
0.363933462882D-06 0.000000000000D+00 0.000000000000D+00 0.277203307608D-06 0.000000000000D+00  6 1 2 25 24 1 1 4 0.29192970D-02 0.24256091D+00 0.25164224D+05 0.25164224D+05 0.25164224D+05 0.12229929D+01  1  2 12  5  6  1       21 0.480384217774D-03 0.100000000000D+01
0.369875495310D-06 0.000000000000D+00 0.000000000000D+00 0.277203307608D-06 0.000000000000D+00  6 1 2 25 24 1 1 4 0.30261028D-02 0.24256091D+00 0.25164224D+05 0.25164224D+05 0.25164224D+05 0.12229929D+01  1  2 12  5  6  1       21 0.464413534890D-03 0.100000000000D+01
-.115857832373D-05 0.000000000000D+00 -.327160725884D-06 0.282993180572D-06 0.000000000000D+00  6 1 2 25 24 1 1 4 0.30622089D-02 0.24256091D+00 0.19233422D+05 0.19233422D+05 0.19233422D+05 0.12356991D+01  1  2  5  5  6  1       21 -.148761980635D-02 0.100000000000D+01
0.363933462882D-06 0.000000000000D+00 0.000000000000D+00 0.277203307608D-06 0.000000000000D+00  6 -2 2 25 24 1 -2 4 0.29192970D-02 0.24256091D+00 0.25164224D+05 0.25164224D+05 0.25164224D+05 0.12229929D+01  1  2 12  6  6  1       21 0.441381829164D-03 0.100000000000D+01
0.369875495310D-06 0.000000000000D+00 0.000000000000D+00 0.277203307608D-06 0.000000000000D+00  6 -2 2 25 24 1 -2 4 0.30261028D-02 0.24256091D+00 0.25164224D+05 0.25164224D+05 0.25164224D+05 0.12229929D+01  1  2 12  6  6  1       21 0.425430309473D-03 0.100000000000D+01
-.115857832373D-05 0.000000000000D+00 -.327160725884D-06 0.282993180572D-06 0.000000000000D+00  6 -2 2 25 24 1 -2 4 0.30622089D-02 0.24256091D+00 0.19233422D+05 0.19233422D+05 0.19233422D+05 0.12356991D+01  1  2  5  6  6  1       21 -.136076877336D-02 0.100000000000D+01
0.363933462882D-06 0.000000000000D+00 0.000000000000D+00 0.277203307608D-06 0.000000000000D+00  6 2 2 25 24 1 2 4 0.29192970D-02 0.24256091D+00 0.25164224D+05 0.25164224D+05 0.25164224D+05 0.12229929D+01  1  2 12  7  6  1       21 0.502902491074D-03 0.100000000000D+01
0.369875495310D-06 0.000000000000D+00 0.000000000000D+00 0.277203307608D-06 0.000000000000D+00  6 2 2 25 24 1 2 4 0.30261028D-02 0.24256091D+00 0.25164224D+05 0.25164224D+05 0.25164224D+05 0.12229929D+01  1  2 12  7  6  1       21 0.486899635798D-03 0.100000000000D+01
-.115857832373D-05 0.000000000000D+00 -.327160725884D-06 0.282993180572D-06 0.000000000000D+00  6 2 2 25 24 1 2 4 0.30622089D-02 0.24256091D+00 0.19233422D+05 0.19233422D+05 0.19233422D+05 0.12356991D+01  1  2  5  7  6  1       21 -.156070898848D-02 0.100000000000D+01
0.363933462882D-06 0.000000000000D+00 0.000000000000D+00 0.277203307608D-06 0.000000000000D+00  6 -3 2 25 24 1 -3 4 0.29192970D-02 0.24256091D+00 0.25164224D+05 0.25164224D+05 0.25164224D+05 0.12229929D+01  1  2 12  8  6  1       21 0.336750308153D-03 0.100000000000D+01
0.363933462882D-06 0.000000000000D+00 0.000000000000D+00 0.277203307608D-06 0.000000000000D+00  6 -4 2 25 24 1 -4 4 0.29192970D-02 0.24256091D+00 0.25164224D+05 0.25164224D+05 0.25164224D+05 0.12229929D+01  1  2 12  8  6  1       21 0.304569517154D-03 0.100000000000D+01
0.369875495310D-06 0.000000000000D+00 0.000000000000D+00 0.277203307608D-06 0.000000000000D+00  6 -3 2 25 24 1 -3 4 0.30261028D-02 0.24256091D+00 0.25164224D+05 0.25164224D+05 0.25164224D+05 0.12229929D+01  1  2 12  8  6  1       21 0.323706003676D-03 0.100000000000D+01
0.369875495310D-06 0.000000000000D+00 0.000000000000D+00 0.277203307608D-06 0.000000000000D+00  6 -4 2 25 24 1 -4 4 0.30261028D-02 0.24256091D+00 0.25164224D+05 0.25164224D+05 0.25164224D+05 0.12229929D+01  1  2 12  8  6  1       21 0.292553121400D-03 0.100000000000D+01
-.115857832373D-05 0.000000000000D+00 -.327160725884D-06 0.282993180572D-06 0.000000000000D+00  6 -3 2 25 24 1 -3 4 0.30622089D-02 0.24256091D+00 0.19233422D+05 0.19233422D+05 0.19233422D+05 0.12356991D+01  1  2  5  8  6  1       21 -.102870979875D-02 0.100000000000D+01
-.115857832373D-05 0.000000000000D+00 -.327160725884D-06 0.282993180572D-06 0.000000000000D+00  6 -4 2 25 24 1 -4 4 0.30622089D-02 0.24256091D+00 0.19233422D+05 0.19233422D+05 0.19233422D+05 0.12356991D+01  1  2  5  8  6  1       21 -.927088323187D-03 0.100000000000D+01
0.363933462882D-06 0.000000000000D+00 0.000000000000D+00 0.277203307608D-06 0.000000000000D+00  6 3 2 25 24 1 3 4 0.29192970D-02 0.24256091D+00 0.25164224D+05 0.25164224D+05 0.25164224D+05 0.12229929D+01  1  2 12  9  6  1       21 0.336726248675D-03 0.100000000000D+01
0.363933462882D-06 0.000000000000D+00 0.000000000000D+00 0.277203307608D-06 0.000000000000D+00  6 4 2 25 24 1 4 4 0.29192970D-02 0.24256091D+00 0.25164224D+05 0.25164224D+05 0.25164224D+05 0.12229929D+01  1  2 12  9  6  1       21 0.304569517154D-03 0.100000000000D+01
0.369875495310D-06 0.000000000000D+00 0.000000000000D+00 0.277203307608D-06 0.000000000000D+00  6 3 2 25 24 1 3 4 0.30261028D-02 0.24256091D+00 0.25164224D+05 0.25164224D+05 0.25164224D+05 0.12229929D+01  1  2 12  9  6  1       21 0.323682358898D-03 0.100000000000D+01
0.369875495310D-06 0.000000000000D+00 0.000000000000D+00 0.277203307608D-06 0.000000000000D+00  6 4 2 25 24 1 4 4 0.30261028D-02 0.24256091D+00 0.25164224D+05 0.25164224D+05 0.25164224D+05 0.12229929D+01  1  2 12  9  6  1       21 0.292553121400D-03 0.100000000000D+01
-.115857832373D-05 0.000000000000D+00 -.327160725884D-06 0.282993180572D-06 0.000000000000D+00  6 3 2 25 24 1 3 4 0.30622089D-02 0.24256091D+00 0.19233422D+05 0.19233422D+05 0.19233422D+05 0.12356991D+01  1  2  5  9  6  1       21 -.102863243366D-02 0.100000000000D+01
-.115857832373D-05 0.000000000000D+00 -.327160725884D-06 0.282993180572D-06 0.000000000000D+00  6 4 2 25 24 1 4 4 0.30622089D-02 0.24256091D+00 0.19233422D+05 0.19233422D+05 0.19233422D+05 0.12356991D+01  1  2  5  9  6  1       21 -.927088323187D-03 0.100000000000D+01
  </mgrwgt>
  </event>
  <event>
  5     66 -.42910585E-03 0.50715412E+02 0.75467711E-02 0.11848495E+00
       21 -1    0    0  501  502 0.00000000E+00 0.00000000E+00 0.21182952E+03 0.21183085E+03 0.75000000E+00 0.0000E+00 0.9000E+01
        2 -1    0    0  502    0 0.00000000E+00 0.00000000E+00 -.14361632E+03 0.14361668E+03 0.32000000E+00 0.0000E+00 0.9000E+01
       25  1    1    2    0    0 -.15138552E+01 -.68966300E+01 0.40088011E+02 0.13146066E+03 0.12500000E+03 0.0000E+00 0.9000E+01
       24  1    1    2    0    0 -.44454732E+02 -.14525768E+02 -.68048076E+02 0.11526048E+03 0.80419002E+02 0.0000E+00 0.9000E+01
        1  1    1    2  501    0 0.45968587E+02 0.21422398E+02 0.96173259E+02 0.10872639E+03 0.32000000E+00 0.0000E+00 0.9000E+01
#aMCatNLO 1  0  0  2  1 0.11851933D+02 0.00000000D+00  -5  6  0 0.00000000D+00 0.00000000D+00 0.00000000D+00 0.00000000D+00 0.00000000D+00
  <mgrwgt>
 -.5602790988D-01    5    2    0
 0.174420399303118D+03 0.000000000000000D+00 0.000000000000000D+00 0.174420399303118D+03
 0.174420399303118D+03 0.000000000000000D+00 0.000000000000000D+00 -.174420399303118D+03
 0.126111474553606D+03 -.151395573706174D+01 -.689667684967525D+01 0.151409312970553D+02
 0.130749858164306D+03 -.444548359613114D+02 -.145258161548984D+02 -.918753377153116D+02
 0.919794658883251D+02 0.459687916983732D+02 0.214224930045736D+02 0.767344064182563D+02
 0.000000000000000D+00 -.000000000000000D+00 -.000000000000000D+00 -.000000000000000D+00
 0.178091294754932D+03 0.000000000000000D+00 0.000000000000000D+00 0.178091294754932D+03
 0.534536987449453D+03 0.000000000000000D+00 0.000000000000000D+00 -.534536987449453D+03
 0.126824020250328D+03 0.151409008313449D+02 0.915114161607894D+00 0.151409312970553D+02
 0.125352920080331D+03 -.275914256212908D+02 -.661620511906133D+01 -.918753377153116D+02
 0.100373928107384D+03 0.586345434542826D+02 0.273632349924479D+02 0.767344064182563D+02
 0.360077413766343D+03 -.461840186643367D+02 -.216621440349944D+02 -.356445692694522D+03
0.753880133055D-06 0.000000000000D+00 0.000000000000D+00 0.760202677488D-06 0.000000000000D+00  6 21 2 25 24 1 21 2 0.32589286D-01 0.22094948D-01 0.18082714D+05 0.18082714D+05 0.18082714D+05 0.12386736D+01  1  2  2  2  6  2        2 0.318545693413D-02 0.100000000000D+01
0.851556770268D-08 0.397833476071D-07 -.152186678614D-08 0.760202677488D-06 0.000000000000D+00  6 21 2 25 24 1 21 4 0.32589286D-01 0.22094948D-01 0.18082714D+05 0.18082714D+05 0.18082714D+05 0.12386736D+01  1  2  3  2  6  2        2 0.552073415410D-04 0.100000000000D+01
0.833244181254D-07 0.000000000000D+00 0.000000000000D+00 0.760202677488D-06 0.000000000000D+00  6 21 2 25 24 1 21 4 0.32589286D-01 0.22094948D-01 0.18082714D+05 0.18082714D+05 0.18082714D+05 0.12386736D+01  1  2 15  2  6  2        2 0.540201166942D-03 0.100000000000D+01
-.240878464176D-04 0.000000000000D+00 -.767244595889D-06 0.760202677488D-06 0.000000000000D+00  6 21 2 25 24 1 21 4 0.32589286D-01 0.68204187D-01 0.18082714D+05 0.18082714D+05 0.18082714D+05 0.12386736D+01  1  2  5  2  6  2        2 -.464585441573D-01 0.100000000000D+01
-.306973284824D-05 0.000000000000D+00 -.989295357668D-07 0.760202677488D-06 0.000000000000D+00  6 21 21 25 24 1 -2 4 0.32589286D-01 0.68204187D-01 0.18082714D+05 0.18082714D+05 0.18082714D+05 0.12386736D+01  1  2  5 10  6  2        2 -.133502311652D-01 0.100000000000D+01
  </mgrwgt>
  </event>
  <event>
  5     66 0.42910585E-03 0.10116335E+03 0.75467711E-02 0.11055803E+00
       21 -1    0    0  501  502 0.00000000E+00 0.00000000E+00 0.12478809E+02 0.12501327E+02 0.75000000E+00 0.0000E+00 0.9000E+01
        2 -1    0    0  502    0 0.00000000E+00 0.00000000E+00 -.26593195E+04 0.26593195E+04 0.32000000E+00 0.0000E+00 0.9000E+01
       25  1    1    2    0    0 0.27873461E+02 -.59727224E+02 -.15255450E+04 0.15320760E+04 0.12500000E+03 0.0000E+00 0.9000E+01
       24  1    1    2    0    0 -.43176580E+02 -.40271679E+02 -.65907250E+03 0.66658068E+03 0.80419002E+02 0.0000E+00 0.9000E+01
        1  1    1    2  501    0 0.15303119E+02 0.99998902E+02 -.46222321E+03 0.47316421E+03 0.32000000E+00 0.0000E+00 0.9000E+01
#aMCatNLO 1  0  0  1  5 0.44079768D+01 0.00000000D+00  -5  6  0 0.00000000D+00 0.00000000D+00 0.00000000D+00 0.00000000D+00 0.00000000D+00
  <mgrwgt>
 0.9185413006D-01   12    2    0
 0.182250512224776D+03 0.000000000000000D+00 0.000000000000000D+00 0.182250512224776D+03
 0.182250512224776D+03 0.000000000000000D+00 0.000000000000000D+00 -.182250512224776D+03
 0.152422077110672D+03 0.278734346709040D+02 -.597273948023448D+02 -.571244215769684D+02
 0.100203449927134D+03 -.431765971595180D+02 -.402717909763194D+02 0.935306004543004D+01
 0.111875497411746D+03 0.153031624886140D+02 0.999991857786641D+02 0.477713615315384D+02
 0.000000000000000D+00 -.000000000000000D+00 -.000000000000000D+00 0.000000000000000D+00
 0.274446899907474D+03 0.000000000000000D+00 0.000000000000000D+00 0.274446899907474D+03
 0.270301355536535D+03 0.000000000000000D+00 0.000000000000000D+00 -.270301355536535D+03
 0.144553582099093D+03 0.446822496719964D+02 -.332191532485707D+01 -.571244215769684D+02
 0.873861400466922D+02 -.325590309845958D+02 -.464233637517589D+01 0.935306004543004D+01
 0.162365783932230D+03 0.308252122621190D+02 0.152086656542729D+03 0.477713615315384D+02
 0.150442749365993D+03 -.429484309495196D+02 -.144122404842696D+03 0.414554437093913D+01
0.785929040378D-05 0.000000000000D+00 0.000000000000D+00 0.323851267604D-06 0.000000000000D+00  6 21 2 25 24 1 21 2 0.19215505D-02 0.40912781D+00 0.29282410D+05 0.29282410D+05 0.29282410D+05 0.12160035D+01  1  2  2  1  6  1       21 0.659334395955D-01 0.100000000000D+01
-.474352461371D-06 0.414746149115D-06 -.158656429633D-07 0.323851267604D-06 0.000000000000D+00  6 21 2 25 24 1 21 4 0.19215505D-02 0.40912781D+00 0.29282410D+05 0.29282410D+05 0.29282410D+05 0.12160035D+01  1  2  3  1  6  1       21 -.588427808481D-02 0.100000000000D+01
0.958858230189D-06 0.000000000000D+00 0.000000000000D+00 0.323851267604D-06 0.000000000000D+00  6 21 2 25 24 1 21 4 0.19215505D-02 0.40912781D+00 0.29282410D+05 0.29282410D+05 0.29282410D+05 0.12160035D+01  1  2 15  1  6  1       21 0.118945065744D-01 0.100000000000D+01
0.787413175859D-05 0.000000000000D+00 -.191485807360D-04 0.323851267604D-06 0.000000000000D+00  6 21 2 25 24 1 21 4 0.56227529D-02 0.40912781D+00 0.29282410D+05 0.29282410D+05 0.29282410D+05 0.12160035D+01  1  2  5  1  6  1       21 0.164586732827D-01 0.100000000000D+01
0.397811227280D-05 0.000000000000D+00 -.668346143649D-05 0.323851267604D-06 0.000000000000D+00  6 -1 2 25 24 1 -1 4 0.56227529D-02 0.40912781D+00 0.29282410D+05 0.29282410D+05 0.29282410D+05 0.12160035D+01  1  2  5  4  6  1       21 0.490476119763D-03 0.100000000000D+01
0.397811227280D-05 0.000000000000D+00 -.668346143649D-05 0.323851267604D-06 0.000000000000D+00  6 1 2 25 24 1 1 4 0.56227529D-02 0.40912781D+00 0.29282410D+05 0.29282410D+05 0.29282410D+05 0.12160035D+01  1  2  5  5  6  1       21 0.560220185555D-03 0.100000000000D+01
0.397811227280D-05 0.000000000000D+00 -.668346143649D-05 0.323851267604D-06 0.000000000000D+00  6 -2 2 25 24 1 -2 4 0.56227529D-02 0.40912781D+00 0.29282410D+05 0.29282410D+05 0.29282410D+05 0.12160035D+01  1  2  5  6  6  1       21 0.478232324262D-03 0.100000000000D+01
0.397811227280D-05 0.000000000000D+00 -.668346143649D-05 0.323851267604D-06 0.000000000000D+00  6 2 2 25 24 1 2 4 0.56227529D-02 0.40912781D+00 0.29282410D+05 0.29282410D+05 0.29282410D+05 0.12160035D+01  1  2  5  7  6  1       21 0.607113494190D-03 0.100000000000D+01
0.397811227280D-05 0.000000000000D+00 -.668346143649D-05 0.323851267604D-06 0.000000000000D+00  6 -3 2 25 24 1 -3 4 0.56227529D-02 0.40912781D+00 0.29282410D+05 0.29282410D+05 0.29282410D+05 0.12160035D+01  1  2  5  8  6  1       21 0.347760854610D-03 0.100000000000D+01
0.397811227280D-05 0.000000000000D+00 -.668346143649D-05 0.323851267604D-06 0.000000000000D+00  6 -4 2 25 24 1 -4 4 0.56227529D-02 0.40912781D+00 0.29282410D+05 0.29282410D+05 0.29282410D+05 0.12160035D+01  1  2  5  8  6  1       21 0.310130029837D-03 0.100000000000D+01
0.397811227280D-05 0.000000000000D+00 -.668346143649D-05 0.323851267604D-06 0.000000000000D+00  6 3 2 25 24 1 3 4 0.56227529D-02 0.40912781D+00 0.29282410D+05 0.29282410D+05 0.29282410D+05 0.12160035D+01  1  2  5  9  6  1       21 0.347725654172D-03 0.100000000000D+01
0.397811227280D-05 0.000000000000D+00 -.668346143649D-05 0.323851267604D-06 0.000000000000D+00  6 4 2 25 24 1 4 4 0.56227529D-02 0.40912781D+00 0.29282410D+05 0.29282410D+05 0.29282410D+05 0.12160035D+01  1  2  5  9  6  1       21 0.310130029837D-03 0.100000000000D+01
  </mgrwgt>
  </event>
  <event>
  5     66 0.42910585E-03 0.34936624E+02 0.75467711E-02 0.12180324E+00
       21 -1    0    0  501  502 0.00000000E+00 0.00000000E+00 0.36627507E+03 0.36627584E+03 0.75000000E+00 0.0000E+00 0.9000E+01
        4 -1    0    0  502    0 0.00000000E+00 0.00000000E+00 -.11411277E+03 0.11412329E+03 0.15500000E+01 0.0000E+00 0.9000E+01
       25  1    1    2    0    0 0.22695441E+02 -.29415467E+02 -.13826472E+02 0.13113552E+03 0.12500000E+03 0.0000E+00 0.9000E+01
       24  1    1    2    0    0 -.53961642E+02 0.45003317E+02 0.30310543E+02 0.11100947E+03 0.80419002E+02 0.0000E+00 0.9000E+01
        3  1    1    2  501    0 0.31266201E+02 -.15587850E+02 0.23567823E+03 0.23825414E+03 0.50000000E+00 0.0000E+00 0.9000E+01
#aMCatNLO 1  0  0  1  5 0.80052309D+00 0.00000000D+00  -5  6  0 0.00000000D+00 0.00000000D+00 0.00000000D+00 0.00000000D+00 0.00000000D+00
  <mgrwgt>
 0.6290044191D-01   31    2    0
 0.204448952166994D+03 0.000000000000000D+00 0.000000000000000D+00 0.204448952166994D+03
 0.204448952166994D+03 0.000000000000000D+00 0.000000000000000D+00 -.204448952166994D+03
 0.162593112388982D+03 0.226953550500915D+02 -.294154245259982D+02 -.971142309625210D+02
 0.111728922386735D+03 -.539617012927915D+02 0.450033465143599D+02 -.328476747948243D+02
 0.134575869558271D+03 0.312663462427001D+02 -.155879219883617D+02 0.129961905757345D+03
 0.000000000000000D+00 -.000000000000000D+00 0.000000000000000D+00 0.000000000000000D+00
 0.205121796806112D+03 0.000000000000000D+00 0.000000000000000D+00 0.205121796806112D+03
 0.204687590131992D+03 0.000000000000000D+00 0.000000000000000D+00 -.204687590131992D+03
 0.162666151813223D+03 0.228937383313131D+02 -.296644540738220D+02 -.971142309625210D+02
 0.111594399168672D+03 -.538254911423685D+02 0.448323625889001D+02 -.328476747948243D+02
 0.134638136966528D+03 0.314305462020654D+02 -.157940413820003D+02 0.129961905757345D+03
 0.910698989681117D+00 -.498793391010013D+00 0.626132866922185D+00 0.434206674120453D+00
0.114382193012D-04 0.000000000000D+00 0.000000000000D+00 0.364818326822D-05 0.000000000000D+00  6 21 4 25 24 3 21 2 0.56350880D-01 0.17556679D-01 0.18514021D+05 0.18514021D+05 0.18514021D+05 0.12375345D+01  1  2  2  1  6  1       21 0.614171653133D-02 0.100000000000D+01
0.158449865043D-05 0.603611415812D-06 -.230904692721D-07 0.364818326822D-05 0.000000000000D+00  6 21 4 25 24 3 21 4 0.56350880D-01 0.17556679D-01 0.18514021D+05 0.18514021D+05 0.18514021D+05 0.12375345D+01  1  2  3  1  6  1       21 0.130298028185D-02 0.100000000000D+01
0.109880966109D-05 0.000000000000D+00 0.000000000000D+00 0.364818326822D-05 0.000000000000D+00  6 21 4 25 24 3 21 4 0.56350880D-01 0.17556679D-01 0.18514021D+05 0.18514021D+05 0.18514021D+05 0.12375345D+01  1  2 15  1  6  1       21 0.903583806474D-03 0.100000000000D+01
-.427037492522D-03 0.000000000000D+00 0.000000000000D+00 0.364818326822D-05 0.000000000000D+00  6 21 4 25 24 3 21 4 0.56350880D-01 0.17556679D-01 0.18514021D+05 0.18514021D+05 0.18514021D+05 0.12375345D+01  1  2  4  1  6  1       21 -.351165608263D+00 0.100000000000D+01
-.903322905056D-02 0.000000000000D+00 -.797417086104D-03 0.364818326822D-05 0.000000000000D+00  6 21 4 25 24 3 21 4 0.56590197D-01 0.17556679D-01 0.18514021D+05 0.18514021D+05 0.18514021D+05 0.12375345D+01  1  2  5  1  6  1       21 -.736232674794D+01 0.100000000000D+01
0.903629790670D-02 0.000000000000D+00 0.797388443540D-03 0.364818326822D-05 0.000000000000D+00  6 21 4 25 24 3 21 4 0.56350880D-01 0.17556679D-01 0.18514021D+05 0.18514021D+05 0.18514021D+05 0.12375345D+01  1  2  6  1  6  1       21 0.743081604407D+01 0.100000000000D+01
0.420370684298D-03 0.000000000000D+00 0.000000000000D+00 0.364818326822D-05 0.499319051995D-04  6 21 4 25 24 3 21 4 0.56536331D-01 0.17577171D-01 0.18648961D+05 0.18648961D+05 0.18648961D+05 0.12371842D+01  1  2 11  1  6  1       21 0.342261919394D+00 0.100000000000D+01
0.860970260763D-12 0.000000000000D+00 0.000000000000D+00 0.364611823459D-05 0.000000000000D+00  6 -3 4 25 24 3 -3 4 0.56569145D-01 0.17556679D-01 0.18648961D+05 0.18648961D+05 0.18648961D+05 0.12371842D+01  1  2 12  4  6  1       21 0.354444365656D-10 0.100000000000D+01
-.780566472020D-05 0.000000000000D+00 -.755753178479D-06 0.364818326822D-05 0.000000000000D+00  6 -3 4 25 24 3 -3 4 0.56590197D-01 0.17556679D-01 0.18514021D+05 0.18514021D+05 0.18514021D+05 0.12375345D+01  1  2  5  4  6  1       21 -.321298621000D-03 0.100000000000D+01
0.302488184959D-05 0.000000000000D+00 0.000000000000D+00 0.364818326822D-05 0.321876357453D-06  6 -3 4 25 24 3 -3 4 0.56536331D-01 0.17577171D-01 0.18648961D+05 0.18648961D+05 0.18648961D+05 0.12371842D+01  1  2 11  4  6  1       21 0.124417991091D-03 0.100000000000D+01
0.860970260763D-12 0.000000000000D+00 0.000000000000D+00 0.364611823459D-05 0.000000000000D+00  6 3 4 25 24 3 3 4 0.56569145D-01 0.17556679D-01 0.18648961D+05 0.18648961D+05 0.18648961D+05 0.12371842D+01  1  2 12  5  6  1       21 0.354649172013D-10 0.100000000000D+01
-.780566472020D-05 0.000000000000D+00 -.755753178479D-06 0.364818326822D-05 0.000000000000D+00  6 3 4 25 24 3 3 4 0.56590197D-01 0.17556679D-01 0.18514021D+05 0.18514021D+05 0.18514021D+05 0.12375345D+01  1  2  5  5  6  1       21 -.321484409254D-03 0.100000000000D+01
0.133065192283D-05 0.000000000000D+00 0.000000000000D+00 0.364818326822D-05 0.348181531884D-07  6 3 4 25 24 3 3 4 0.56536331D-01 0.17577171D-01 0.18648961D+05 0.18648961D+05 0.18648961D+05 0.12371842D+01  1  2 11  5  6  1       21 0.547633154952D-04 0.100000000000D+01
0.860970260763D-12 0.000000000000D+00 0.000000000000D+00 0.364611823459D-05 0.000000000000D+00  6 -4 4 25 24 3 -4 4 0.56569145D-01 0.17556679D-01 0.18648961D+05 0.18648961D+05 0.18648961D+05 0.12371842D+01  1  2 12  6  6  1       21 0.289456270124D-10 0.100000000000D+01
-.780566472020D-05 0.000000000000D+00 -.755753178479D-06 0.364818326822D-05 0.000000000000D+00  6 -4 4 25 24 3 -4 4 0.56590197D-01 0.17556679D-01 0.18514021D+05 0.18514021D+05 0.18514021D+05 0.12375345D+01  1  2  5  6  6  1       21 -.262362197930D-03 0.100000000000D+01
0.141533129450D-05 0.000000000000D+00 0.000000000000D+00 0.364818326822D-05 0.717345013639D-07  6 -4 4 25 24 3 -4 4 0.56536331D-01 0.17577171D-01 0.18648961D+05 0.18648961D+05 0.18648961D+05 0.12371842D+01  1  2 11  6  6  1       21 0.475420726784D-04 0.100000000000D+01
0.860970260763D-12 0.000000000000D+00 0.000000000000D+00 0.364611823459D-05 0.000000000000D+00  6 4 4 25 24 3 4 4 0.56569145D-01 0.17556679D-01 0.18648961D+05 0.18648961D+05 0.18648961D+05 0.12371842D+01  1  2 12  7  6  1       21 0.289456270124D-10 0.100000000000D+01
-.780566472020D-05 0.000000000000D+00 -.755753178479D-06 0.364818326822D-05 0.000000000000D+00  6 4 4 25 24 3 4 4 0.56590197D-01 0.17556679D-01 0.18514021D+05 0.18514021D+05 0.18514021D+05 0.12375345D+01  1  2  5  7  6  1       21 -.262362197930D-03 0.100000000000D+01
0.123217729913D-05 0.000000000000D+00 0.000000000000D+00 0.364818326822D-05 0.756635795490D-07  6 4 4 25 24 3 4 4 0.56536331D-01 0.17577171D-01 0.18648961D+05 0.18648961D+05 0.18648961D+05 0.12371842D+01  1  2 11  7  6  1       21 0.413897883384D-04 0.100000000000D+01
0.860970260763D-12 0.000000000000D+00 0.000000000000D+00 0.364611823459D-05 0.000000000000D+00  6 -1 4 25 24 3 -1 4 0.56569145D-01 0.17556679D-01 0.18648961D+05 0.18648961D+05 0.18648961D+05 0.12371842D+01  1  2 12  8  6  1       21 0.708640222259D-10 0.100000000000D+01
0.860970260763D-12 0.000000000000D+00 0.000000000000D+00 0.364611823459D-05 0.000000000000D+00  6 -2 4 25 24 3 -2 4 0.56569145D-01 0.17556679D-01 0.18648961D+05 0.18648961D+05 0.18648961D+05 0.12371842D+01  1  2 12  8  6  1       21 0.568844505849D-10 0.100000000000D+01
-.780566472020D-05 0.000000000000D+00 -.755753178479D-06 0.364818326822D-05 0.000000000000D+00  6 -1 4 25 24 3 -1 4 0.56590197D-01 0.17556679D-01 0.18514021D+05 0.18514021D+05 0.18514021D+05 0.12375345D+01  1  2  5  8  6  1       21 -.642527261744D-03 0.100000000000D+01
-.780566472020D-05 0.000000000000D+00 -.755753178479D-06 0.364818326822D-05 0.000000000000D+00  6 -2 4 25 24 3 -2 4 0.56590197D-01 0.17556679D-01 0.18514021D+05 0.18514021D+05 0.18514021D+05 0.12375345D+01  1  2  5  8  6  1       21 -.515730227441D-03 0.100000000000D+01
0.141522874450D-05 0.000000000000D+00 0.000000000000D+00 0.364818326822D-05 0.717293037308D-07  6 -1 4 25 24 3 -1 4 0.56536331D-01 0.17577171D-01 0.18648961D+05 0.18648961D+05 0.18648961D+05 0.12371842D+01  1  2 11  8  6  1       21 0.116369068718D-03 0.100000000000D+01
0.141522874450D-05 0.000000000000D+00 0.000000000000D+00 0.364818326822D-05 0.717293037308D-07  6 -2 4 25 24 3 -2 4 0.56536331D-01 0.17577171D-01 0.18648961D+05 0.18648961D+05 0.18648961D+05 0.12371842D+01  1  2 11  8  6  1       21 0.934210390022D-04 0.100000000000D+01
0.860970260763D-12 0.000000000000D+00 0.000000000000D+00 0.364611823459D-05 0.000000000000D+00  6 1 4 25 24 3 1 4 0.56569145D-01 0.17556679D-01 0.18648961D+05 0.18648961D+05 0.18648961D+05 0.12371842D+01  1  2 12  9  6  1       21 0.173893503550D-09 0.100000000000D+01
0.860970260763D-12 0.000000000000D+00 0.000000000000D+00 0.364611823459D-05 0.000000000000D+00  6 2 4 25 24 3 2 4 0.56569145D-01 0.17556679D-01 0.18648961D+05 0.18648961D+05 0.18648961D+05 0.12371842D+01  1  2 12  9  6  1       21 0.254979303855D-09 0.100000000000D+01
-.780566472020D-05 0.000000000000D+00 -.755753178479D-06 0.364818326822D-05 0.000000000000D+00  6 1 4 25 24 3 1 4 0.56590197D-01 0.17556679D-01 0.18514021D+05 0.18514021D+05 0.18514021D+05 0.12375345D+01  1  2  5  9  6  1       21 -.157704411712D-02 0.100000000000D+01
-.780566472020D-05 0.000000000000D+00 -.755753178479D-06 0.364818326822D-05 0.000000000000D+00  6 2 4 25 24 3 2 4 0.56590197D-01 0.17556679D-01 0.18514021D+05 0.18514021D+05 0.18514021D+05 0.12375345D+01  1  2  5  9  6  1       21 -.231251359502D-02 0.100000000000D+01
0.141522874450D-05 0.000000000000D+00 0.000000000000D+00 0.364818326822D-05 0.717293037308D-07  6 1 4 25 24 3 1 4 0.56536331D-01 0.17577171D-01 0.18648961D+05 0.18648961D+05 0.18648961D+05 0.12371842D+01  1  2 11  9  6  1       21 0.285455693464D-03 0.100000000000D+01
0.141522874450D-05 0.000000000000D+00 0.000000000000D+00 0.364818326822D-05 0.717293037308D-07  6 2 4 25 24 3 2 4 0.56536331D-01 0.17577171D-01 0.18648961D+05 0.18648961D+05 0.18648961D+05 0.12371842D+01  1  2 11  9  6  1       21 0.418516997363D-03 0.100000000000D+01
  </mgrwgt>
  </event>
  <event>
  5     66 0.42910585E-03 0.30119682E+02 0.75467711E-02 0.12114627E+00
       21 -1    0    0  501  502 0.00000000E+00 0.00000000E+00 0.68690305E+02 0.68694400E+02 0.75000000E+00 0.0000E+00 0.9000E+01
        2 -1    0    0  502    0 0.00000000E+00 0.00000000E+00 -.10875397E+04 0.10875398E+04 0.32000000E+00 0.0000E+00 0.9000E+01
       25  1    1    2    0    0 0.41258018E+02 -.58287490E+01 -.56592858E+03 0.58106485E+03 0.12500000E+03 0.0000E+00 0.9000E+01
       24  1    1    2    0    0 -.44852294E+02 0.35733185E+02 -.50523719E+03 0.51480134E+03 0.80419002E+02 0.0000E+00 0.9000E+01
        1  1    1    2  501    0 0.35942756E+01 -.29904436E+02 0.52316333E+02 0.60367999E+02 0.32000000E+00 0.0000E+00 0.9000E+01
#aMCatNLO 1  0  0  1  2 0.18060783D+02 0.00000000D+00  -5  6  0 0.00000000D+00 0.00000000D+00 0.00000000D+00 0.00000000D+00 0.00000000D+00
  <mgrwgt>
 0.2107830395D+00   23    2    0
 0.273323674316584D+03 0.000000000000000D+00 0.000000000000000D+00 0.273323674316584D+03
 0.273323674316584D+03 0.000000000000000D+00 0.000000000000000D+00 -.273323674316584D+03
 0.174245886633449D+03 0.412580169878835D+02 -.582873936759694D+01 -.114019431853912D+03
 0.147206993058025D+03 -.448522947212368D+02 0.357331935861632D+02 -.109151698956947D+03
 0.225194468941695D+03 0.359427773335325D+01 -.299044542185662D+02 0.223171130810858D+03
 0.000000000000000D+00 0.000000000000000D+00 0.000000000000000D+00 0.000000000000000D+00
 0.329143651196790D+03 0.000000000000000D+00 0.000000000000000D+00 0.329143651196790D+03
 0.274937635877098D+03 0.000000000000000D+00 0.000000000000000D+00 -.274937635877098D+03
 0.173384768409101D+03 0.367318078736480D+02 -.936062852175534D+01 -.114019431853912D+03
 0.147729314474717D+03 -.486924146413579D+02 0.327366731969733D+02 -.109151698956947D+03
 0.225831541160032D+03 -.227815615033239D+01 -.344868287882849D+02 0.223171130810858D+03
 0.571356630300381D+02 0.142387629180423D+02 0.111107841130669D+02 0.542060153196918D+02
0.395008477385D-05 0.000000000000D+00 0.000000000000D+00 0.160733929816D-04 0.000000000000D+00  6 21 2 25 24 1 21 2 0.10568058D-01 0.16731412D+00 0.16985005D+05 0.16985005D+05 0.16985005D+05 0.12417159D+01  1  2  2  1  6  1       21 0.134563103363D-01 0.100000000000D+01
0.979851861474D-06 0.208451700403D-06 -.797408308853D-08 0.160733929816D-04 0.000000000000D+00  6 21 2 25 24 1 21 4 0.10568058D-01 0.16731412D+00 0.16985005D+05 0.16985005D+05 0.16985005D+05 0.12417159D+01  1  2  3  1  6  1       21 0.514664861266D-02 0.100000000000D+01
0.389979015728D-06 0.000000000000D+00 0.000000000000D+00 0.160733929816D-04 0.000000000000D+00  6 21 2 25 24 1 21 4 0.10568058D-01 0.16731412D+00 0.16985005D+05 0.16985005D+05 0.16985005D+05 0.12417159D+01  1  2 15  1  6  1       21 0.204835551084D-02 0.100000000000D+01
0.626821528394D-04 0.000000000000D+00 0.000000000000D+00 0.158702209416D-04 0.000000000000D+00  6 21 2 25 24 1 21 4 0.12753408D-01 0.16731412D+00 0.19992835D+05 0.19992835D+05 0.19992835D+05 0.12338432D+01  1  2 12  1  6  1       21 0.229497404197D+00 0.100000000000D+01
-.354673761698D-04 0.000000000000D+00 0.000000000000D+00 0.160733929816D-04 0.000000000000D+00  6 21 2 25 24 1 21 4 0.10568058D-01 0.16731412D+00 0.16985005D+05 0.16985005D+05 0.16985005D+05 0.12417159D+01  1  2  4  1  6  1       21 -.186291550321D+00 0.100000000000D+01
-.133567717492D-03 0.000000000000D+00 -.757144034588D-05 0.160733929816D-04 0.000000000000D+00  6 21 2 25 24 1 21 4 0.12781565D-01 0.16731412D+00 0.16985005D+05 0.16985005D+05 0.16985005D+05 0.12417159D+01  1  2  5  1  6  1       21 -.501240807675D+00 0.100000000000D+01
0.124835951855D-03 0.000000000000D+00 0.705066689867D-05 0.160733929816D-04 0.000000000000D+00  6 21 2 25 24 1 21 4 0.10568058D-01 0.16731412D+00 0.16985005D+05 0.16985005D+05 0.16985005D+05 0.12417159D+01  1  2  6  1  6  1       21 0.655697869941D+00 0.100000000000D+01
0.339036011413D-05 0.000000000000D+00 0.000000000000D+00 0.158702209416D-04 0.000000000000D+00  6 -1 2 25 24 1 -1 4 0.12753408D-01 0.16731412D+00 0.19992835D+05 0.19992835D+05 0.19992835D+05 0.12338432D+01  1  2 12  4  6  1       21 0.871269198941D-03 0.100000000000D+01
-.731187395325D-05 0.000000000000D+00 -.408814034970D-06 0.160733929816D-04 0.000000000000D+00  6 -1 2 25 24 1 -1 4 0.12781565D-01 0.16731412D+00 0.16985005D+05 0.16985005D+05 0.16985005D+05 0.12417159D+01  1  2  5  4  6  1       21 -.192170576633D-02 0.100000000000D+01
0.339036011413D-05 0.000000000000D+00 0.000000000000D+00 0.158702209416D-04 0.000000000000D+00  6 1 2 25 24 1 1 4 0.12753408D-01 0.16731412D+00 0.19992835D+05 0.19992835D+05 0.19992835D+05 0.12338432D+01  1  2 12  5  6  1       21 0.115205536356D-02 0.100000000000D+01
-.731187395325D-05 0.000000000000D+00 -.408814034970D-06 0.160733929816D-04 0.000000000000D+00  6 1 2 25 24 1 1 4 0.12781565D-01 0.16731412D+00 0.16985005D+05 0.16985005D+05 0.16985005D+05 0.12417159D+01  1  2  5  5  6  1       21 -.254294884435D-02 0.100000000000D+01
0.339036011413D-05 0.000000000000D+00 0.000000000000D+00 0.158702209416D-04 0.000000000000D+00  6 -2 2 25 24 1 -2 4 0.12753408D-01 0.16731412D+00 0.19992835D+05 0.19992835D+05 0.19992835D+05 0.12338432D+01  1  2 12  6  6  1       21 0.822707043074D-03 0.100000000000D+01
-.731187395325D-05 0.000000000000D+00 -.408814034970D-06 0.160733929816D-04 0.000000000000D+00  6 -2 2 25 24 1 -2 4 0.12781565D-01 0.16731412D+00 0.16985005D+05 0.16985005D+05 0.16985005D+05 0.12417159D+01  1  2  5  6  6  1       21 -.181416883935D-02 0.100000000000D+01
0.339036011413D-05 0.000000000000D+00 0.000000000000D+00 0.158702209416D-04 0.000000000000D+00  6 2 2 25 24 1 2 4 0.12753408D-01 0.16731412D+00 0.19992835D+05 0.19992835D+05 0.19992835D+05 0.12338432D+01  1  2 12  7  6  1       21 0.134379728811D-02 0.100000000000D+01
-.731187395325D-05 0.000000000000D+00 -.408814034970D-06 0.160733929816D-04 0.000000000000D+00  6 2 2 25 24 1 2 4 0.12781565D-01 0.16731412D+00 0.16985005D+05 0.16985005D+05 0.16985005D+05 0.12417159D+01  1  2  5  7  6  1       21 -.296672074800D-02 0.100000000000D+01
0.339036011413D-05 0.000000000000D+00 0.000000000000D+00 0.158702209416D-04 0.000000000000D+00  6 -3 2 25 24 1 -3 4 0.12753408D-01 0.16731412D+00 0.19992835D+05 0.19992835D+05 0.19992835D+05 0.12338432D+01  1  2 12  8  6  1       21 0.555156243889D-03 0.100000000000D+01
0.339036011413D-05 0.000000000000D+00 0.000000000000D+00 0.158702209416D-04 0.000000000000D+00  6 -4 2 25 24 1 -4 4 0.12753408D-01 0.16731412D+00 0.19992835D+05 0.19992835D+05 0.19992835D+05 0.12338432D+01  1  2 12  8  6  1       21 0.481008788324D-03 0.100000000000D+01
-.731187395325D-05 0.000000000000D+00 -.408814034970D-06 0.160733929816D-04 0.000000000000D+00  6 -3 2 25 24 1 -3 4 0.12781565D-01 0.16731412D+00 0.16985005D+05 0.16985005D+05 0.16985005D+05 0.12417159D+01  1  2  5  8  6  1       21 -.121937292701D-02 0.100000000000D+01
-.731187395325D-05 0.000000000000D+00 -.408814034970D-06 0.160733929816D-04 0.000000000000D+00  6 -4 2 25 24 1 -4 4 0.12781565D-01 0.16731412D+00 0.16985005D+05 0.16985005D+05 0.16985005D+05 0.12417159D+01  1  2  5  8  6  1       21 -.105457369147D-02 0.100000000000D+01
0.339036011413D-05 0.000000000000D+00 0.000000000000D+00 0.158702209416D-04 0.000000000000D+00  6 3 2 25 24 1 3 4 0.12753408D-01 0.16731412D+00 0.19992835D+05 0.19992835D+05 0.19992835D+05 0.12338432D+01  1  2 12  9  6  1       21 0.555085502280D-03 0.100000000000D+01
0.339036011413D-05 0.000000000000D+00 0.000000000000D+00 0.158702209416D-04 0.000000000000D+00  6 4 2 25 24 1 4 4 0.12753408D-01 0.16731412D+00 0.19992835D+05 0.19992835D+05 0.19992835D+05 0.12338432D+01  1  2 12  9  6  1       21 0.481008788324D-03 0.100000000000D+01
-.731187395325D-05 0.000000000000D+00 -.408814034970D-06 0.160733929816D-04 0.000000000000D+00  6 3 2 25 24 1 3 4 0.12781565D-01 0.16731412D+00 0.16985005D+05 0.16985005D+05 0.16985005D+05 0.12417159D+01  1  2  5  9  6  1       21 -.121921478778D-02 0.100000000000D+01
-.731187395325D-05 0.000000000000D+00 -.408814034970D-06 0.160733929816D-04 0.000000000000D+00  6 4 2 25 24 1 4 4 0.12781565D-01 0.16731412D+00 0.16985005D+05 0.16985005D+05 0.16985005D+05 0.12417159D+01  1  2  5  9  6  1       21 -.105457369147D-02 0.100000000000D+01
  </mgrwgt>
  </event>
  <event>
  6     66 0.42910585E-03 0.56663883E+02 0.75467711E-02 0.11541604E+00
       21 -1    0    0  501  502 0.00000000E+00 0.00000000E+00 0.12951985E+04 0.12951987E+04 0.75000000E+00 0.0000E+00 0.9000E+01
        2 -1    0    0  503    0 0.00000000E+00 0.00000000E+00 -.22815894E+03 0.22815916E+03 0.32000000E+00 0.0000E+00 0.9000E+01
       25  1    1    2    0    0 -.17309179E+02 0.32069124E+02 0.25679446E+03 0.28791740E+03 0.12500000E+03 0.0000E+00 0.9000E+01
       24  1    1    2    0    0 -.24068314E+02 -.20143345E+02 0.11230014E+02 0.87053818E+02 0.80419002E+02 0.0000E+00 0.9000E+01
        1  1    1    2  501    0 0.76277702E+02 0.57458495E+02 0.96258600E+03 0.96731157E+03 0.32000000E+00 0.0000E+00 0.9000E+01
       21  1    1    2  503  502 -.34900209E+02 -.69384274E+02 -.16357088E+03 0.18107512E+03 0.75000000E+00 0.0000E+00 0.9000E+01
#aMCatNLO 2  0  0  2  5 0.41759446D+02 0.00000000D+00  -5  6  0 0.00000000D+00 0.00000000D+00 0.00000000D+00 0.00000000D+00 0.00000000D+00
  <mgrwgt>
 0.2513511313D-01    1    2    0
 0.265183311796068D+03 0.000000000000000D+00 0.000000000000000D+00 0.265183311796068D+03
 0.265183311796068D+03 0.000000000000000D+00 0.000000000000000D+00 -.265183311796068D+03
 0.129781226426746D+03 -.258581601093030D+02 0.150731267495175D+02 -.179533600917773D+02
 0.198482955829535D+03 -.368548443857809D+02 -.455638967009070D+02 -.171737938625068D+03
 0.202102441335854D+03 0.627130044950838D+02 0.304907699513895D+02 0.189691298716845D+03
 0.000000000000000D+00 -.000000000000000D+00 -.000000000000000D+00 -.000000000000000D+00
 0.269834842785135D+03 0.000000000000000D+00 0.000000000000000D+00 0.269834842785135D+03
 0.109515540794572D+04 0.000000000000000D+00 0.000000000000000D+00 -.109515540794572D+04
 0.131435762386900D+03 -.173091973103730D+02 0.320691157363456D+02 -.179533600917773D+02
 0.192213877998850D+03 -.240683379903588D+02 -.201433483855251D+02 -.171737938625068D+03
 0.212373640348419D+03 0.762777447497574D+02 0.574585064359225D+02 0.189691298716845D+03
 0.828966969996682D+03 -.349002094490255D+02 -.693842737867430D+02 -.825320565160581D+03
0.484468563403D-03 0.000000000000D+00 0.000000000000D+00 0.120025334145D-05 0.225156597782D-08  6 21 2 25 24 1 21 4 0.19926122D+00 0.35101387D-01 0.37965555D+05 0.37965555D+05 0.37965555D+05 0.12043092D+01  1  2  1  2  6  2        2 0.251351131269D-01 0.100000000000D+01
  </mgrwgt>
  </event>
  <event>
  5     66 -.42910585E-03 0.11761983E+03 0.75467711E-02 0.11166091E+00
       21 -1    0    0  501  502 0.00000000E+00 0.00000000E+00 0.10080232E+03 0.10080511E+03 0.75000000E+00 0.0000E+00 0.9000E+01
        2 -1    0    0  502    0 -.00000000E+00 -.00000000E+00 -.97597749E+03 0.97597755E+03 0.32000000E+00 0.0000E+00 0.9000E+01
       25  1    1    2    0    0 0.70969524E+02 -.19710263E+02 -.61275308E+03 0.62969556E+03 0.12500000E+03 0.0000E+00 0.9000E+01
       24  1    1    2    0    0 -.19487002E+03 0.48612860E+02 -.23006847E+03 0.31581047E+03 0.80419002E+02 0.0000E+00 0.9000E+01
        1  1    1    2  501    0 0.12390050E+03 -.28902596E+02 -.32353617E+02 0.13127662E+03 0.32000000E+00 0.0000E+00 0.9000E+01
#aMCatNLO 1  0  0  5  1 0.12575203D+02 0.00000000D+00  -5  6  0 0.00000000D+00 0.00000000D+00 0.00000000D+00 0.00000000D+00 0.00000000D+00
  <mgrwgt>
 -.3088057008D-01    7    2    0
 0.313659574554708D+03 0.000000000000000D+00 0.000000000000000D+00 0.313659574554708D+03
 0.313659574554708D+03 -.000000000000000D+00 -.000000000000000D+00 -.313659574554708D+03
 0.226007772387480D+03 0.709694538986030D+02 -.197102470212151D+02 -.173289803379333D+03
 0.221114011424214D+03 -.194870088803140D+03 0.486128759879478D+02 0.456796111167058D+02
 0.180197365297722D+03 0.123900634904537D+03 -.289026289667327D+02 0.127610192262627D+03
 0.000000000000000D+00 0.000000000000000D+00 0.000000000000000D+00 0.000000000000000D+00
 0.313659574554708D+03 0.000000000000000D+00 0.000000000000000D+00 0.313659574554708D+03
 0.313659574554708D+03 -.000000000000000D+00 -.000000000000000D+00 -.313659574554708D+03
 0.225802044318920D+03 0.714231742462612D+02 -.198160875673360D+02 -.172822498745723D+03
 0.220795282202006D+03 -.194426310844088D+03 0.485093547291265D+02 0.461366756888134D+02
 0.727660220685484D+02 0.553501790802178D+02 -.106405849436318D+01 0.472241402567464D+02
 0.107955800519941D+03 0.676529575176092D+02 -.276292086674273D+02 0.794616828001629D+02
0.513205078243D-05 0.000000000000D+00 0.000000000000D+00 0.980232552443D-07 0.000000000000D+00  6 21 2 25 24 1 21 2 0.15508268D-01 0.15015060D+00 0.59696641D+05 0.59696641D+05 0.59696641D+05 0.11847324D+01  1  2  2  3  6  5        1 0.906073626065D-02 0.100000000000D+01
-.175246027455D-06 0.270825760306D-06 -.103601319203D-07 0.980232552443D-07 0.000000000000D+00  6 21 2 25 24 1 21 4 0.15508268D-01 0.15015060D+00 0.59696641D+05 0.59696641D+05 0.59696641D+05 0.11847324D+01  1  2  3  3  6  5        1 -.434271430780D-03 0.100000000000D+01
0.482246059248D-06 0.000000000000D+00 0.000000000000D+00 0.980232552443D-07 0.000000000000D+00  6 21 2 25 24 1 21 4 0.15508268D-01 0.15015060D+00 0.59696641D+05 0.59696641D+05 0.59696641D+05 0.11847324D+01  1  2 15  3  6  5        1 0.119503813683D-02 0.100000000000D+01
0.229358455146D-04 0.000000000000D+00 0.000000000000D+00 0.979940275154D-07 0.000000000000D+00  6 21 2 25 24 1 21 4 0.15508268D-01 0.15015060D+00 0.59947244D+05 0.59947244D+05 0.59947244D+05 0.11845558D+01  1  2 12  3  6  5        1 0.567958293087D-01 0.100000000000D+01
-.559185864758D-04 0.000000000000D+00 0.000000000000D+00 0.980232552443D-07 0.000000000000D+00  6 21 2 25 24 1 21 4 0.15508268D-01 0.15015060D+00 0.59696641D+05 0.59696641D+05 0.59696641D+05 0.11847324D+01  1  2  4  3  6  5        1 -.138570014446D+00 0.100000000000D+01
-.229222383785D-04 0.000000000000D+00 0.000000000000D+00 0.980232552443D-07 0.000000000000D+00  6 21 2 25 24 1 21 4 0.15508268D-01 0.15015060D+00 0.59696641D+05 0.59696641D+05 0.59696641D+05 0.11847324D+01  1  2  5  3  6  5        1 -.568028468427D-01 0.100000000000D+01
0.394964911926D-04 0.000000000000D+00 -.000000000000D+00 0.980232552443D-07 0.000000000000D+00  6 21 2 25 24 1 21 4 0.15508268D-01 0.15015060D+00 0.59696641D+05 0.59696641D+05 0.59696641D+05 0.11847324D+01  1  2  6  3  6  5        1 0.978749589367D-01 0.100000000000D+01
  </mgrwgt>
  </event>
  <event>
  5     66 -.42910585E-03 0.66832017E+02 0.75467711E-02 0.11557055E+00
       21 -1    0    0  501  502 0.00000000E+00 0.00000000E+00 0.40435794E+03 0.40435864E+03 0.75000000E+00 0.0000E+00 0.9000E+01
        4 -1    0    0  502    0 0.00000000E+00 0.00000000E+00 -.10790499E+03 0.10791613E+03 0.15500000E+01 0.0000E+00 0.9000E+01
       25  1    1    2    0    0 0.41178883E+02 -.76343592E+02 0.20527929E+03 0.25551640E+03 0.12500000E+03 0.0000E+00 0.9000E+01
       24  1    1    2    0    0 -.41441791E+02 0.14317352E+03 0.44090713E+02 0.17500653E+03 0.80419002E+02 0.0000E+00 0.9000E+01
        3  1    1    2  501    0 0.26290762E+00 -.66829929E+02 0.47082951E+02 0.81751837E+02 0.50000000E+00 0.0000E+00 0.9000E+01
#aMCatNLO 1  0  0  5  1 0.89576358D+01 0.00000000D+00  -5  6  0 0.00000000D+00 0.00000000D+00 0.00000000D+00 0.00000000D+00 0.00000000D+00
  <mgrwgt>
 -.1508012071D-01    8    2    0
 0.208890572281016D+03 0.000000000000000D+00 0.000000000000000D+00 0.208890572281016D+03
 0.208890572281016D+03 -.000000000000000D+00 -.000000000000000D+00 -.208890572281016D+03
 0.167644738593593D+03 0.411788799992559D+02 -.763428417750719D+02 0.703976471895718D+02
 0.183303810365044D+03 -.414417937978572D+02 0.143174341788966D+03 -.701195872783475D+02
 0.668325956033943D+02 0.262913798601355D+00 -.668315000138940D+02 -.278059911224339D+00
 0.000000000000000D+00 0.000000000000000D+00 -.000000000000000D+00 0.000000000000000D+00
 0.208890572281016D+03 0.000000000000000D+00 0.000000000000000D+00 0.208890572281016D+03
 0.208890572281016D+03 -.000000000000000D+00 -.000000000000000D+00 -.208890572281016D+03
 0.168397622337811D+03 0.411853402153487D+02 -.779849995248464D+02 0.703908148090622D+02
 0.181914473386393D+03 -.414347726918647D+02 0.141389608360241D+03 -.701270128608744D+02
 0.137726585339392D+02 0.603319907014229D+01 -.104102400527058D+02 -.670175604730281D+01
 0.536963903038884D+02 -.578376659362626D+01 -.529943687826892D+02 0.643795409911492D+01
0.181322924586D-04 0.000000000000D+00 0.000000000000D+00 0.124137296746D-06 0.000000000000D+00  6 21 4 25 24 3 21 2 0.62209824D-01 0.16601678D-01 0.37702352D+05 0.37702352D+05 0.37702352D+05 0.12046180D+01  1  2  2  3  6  5        3 0.835868587214D-02 0.100000000000D+01
-.780439029648D-06 0.956867361485D-06 -.366038743288D-07 0.124137296746D-06 0.000000000000D+00  6 21 4 25 24 3 21 4 0.62209824D-01 0.16601678D-01 0.37702352D+05 0.37702352D+05 0.37702352D+05 0.12046180D+01  1  2  3  3  6  5        3 -.522063063891D-03 0.100000000000D+01
0.188707726538D-05 0.000000000000D+00 0.000000000000D+00 0.124137296746D-06 0.000000000000D+00  6 21 4 25 24 3 21 4 0.62209824D-01 0.16601678D-01 0.37702352D+05 0.37702352D+05 0.37702352D+05 0.12046180D+01  1  2 15  3  6  5        3 0.126233222781D-02 0.100000000000D+01
0.676274333435D-05 0.000000000000D+00 0.000000000000D+00 0.124239761975D-06 0.000000000000D+00  6 21 4 25 24 3 21 4 0.62209824D-01 0.16601678D-01 0.37282894D+05 0.37282894D+05 0.37282894D+05 0.12051151D+01  1  2 12  3  6  5        3 0.453083675340D-02 0.100000000000D+01
-.530964214048D-04 0.000000000000D+00 0.000000000000D+00 0.124137296746D-06 0.000000000000D+00  6 21 4 25 24 3 21 4 0.62209824D-01 0.16601678D-01 0.37702352D+05 0.37702352D+05 0.37702352D+05 0.12046180D+01  1  2  4  3  6  5        3 -.355180602035D-01 0.100000000000D+01
-.629455395464D-05 0.000000000000D+00 0.000000000000D+00 0.124137296746D-06 0.000000000000D+00  6 21 4 25 24 3 21 4 0.62209824D-01 0.16601678D-01 0.37702352D+05 0.37702352D+05 0.37702352D+05 0.12046180D+01  1  2  5  3  6  5        3 -.421064810773D-02 0.100000000000D+01
0.164687837851D-04 0.000000000000D+00 -.000000000000D+00 0.124137296746D-06 0.000000000000D+00  6 21 4 25 24 3 21 4 0.62209824D-01 0.16601678D-01 0.37702352D+05 0.37702352D+05 0.37702352D+05 0.12046180D+01  1  2  6  3  6  5        3 0.110165476031D-01 0.100000000000D+01
0.335568349977D-08 0.000000000000D+00 0.000000000000D+00 0.124137296746D-06 0.263760300711D-08  6 21 4 25 24 3 21 4 0.62209824D-01 0.16601678D-01 0.37282894D+05 0.37282894D+05 0.37282894D+05 0.12051151D+01  1  2 11  3  6  5        3 0.224820806910D-05 0.100000000000D+01
  </mgrwgt>
  </event>
  <event>
  5     66 0.42910585E-03 0.80440217E+02 0.75467711E-02 0.11143025E+00
       21 -1    0    0  501  502 0.00000000E+00 0.00000000E+00 0.20071088E+03 0.20071229E+03 0.75000000E+00 0.0000E+00 0.9000E+01
        4 -1    0    0  502    0 0.00000000E+00 0.00000000E+00 -.22962527E+03 0.22963050E+03 0.15500000E+01 0.0000E+00 0.9000E+01
       25  1    1    2    0    0 0.39009515E+02 -.60545841E+02 -.11153321E+03 0.18235185E+03 0.12500000E+03 0.0000E+00 0.9000E+01
       24  1    1    2    0    0 -.98184152E+02 0.60591753E+01 0.10462811E+03 0.16459374E+03 0.80419002E+02 0.0000E+00 0.9000E+01
        3  1    1    2  501    0 0.59174637E+02 0.54486666E+02 -.22009283E+02 0.83397200E+02 0.50000000E+00 0.0000E+00 0.9000E+01
#aMCatNLO 1  0  0  1  1 0.12590970D+03 0.00000000D+00  -5  6  0 0.00000000D+00 0.00000000D+00 0.00000000D+00 0.00000000D+00 0.00000000D+00
  <mgrwgt>
 0.8982409045D-02    4    2    0
 0.214685161628042D+03 0.000000000000000D+00 0.000000000000000D+00 0.214685161628042D+03
 0.214685161628042D+03 0.000000000000000D+00 0.000000000000000D+00 -.214685161628042D+03
 0.175254028100129D+03 0.390090671626986D+02 -.605462534283044D+02 -.995058703806579D+02
 0.172012638233103D+03 -.981845920030409D+02 0.605877055512518D+01 0.115949165370426D+03
 0.821036569228527D+02 0.591755248403424D+02 0.544874828731792D+02 -.164432949897681D+02
 0.000000000000000D+00 -.000000000000000D+00 0.000000000000000D+00 -.000000000000000D+00
 0.271513834445502D+03 0.000000000000000D+00 0.000000000000000D+00 0.271513834445502D+03
 0.306659823617516D+03 0.000000000000000D+00 0.000000000000000D+00 -.306659823617516D+03
 0.203753606404421D+03 0.689101360545760D+02 -.106021257451208D+03 -.995058703806579D+02
 0.161953054321611D+03 -.718370193646799D+02 -.340119030403828D+02 0.115949165370426D+03
 0.817440364827736D+02 0.721019693820236D+02 0.348283155149689D+02 -.164432949897681D+02
 0.130722960854212D+03 -.691750860719197D+02 0.105204844976622D+03 -.351459891720135D+02
0.207997968802D-04 0.000000000000D+00 0.000000000000D+00 0.717526581099D-07 0.000000000000D+00  6 21 4 25 24 3 21 2 0.30879108D-01 0.35327475D-01 0.30934721D+05 0.30934721D+05 0.30934721D+05 0.12135024D+01  1  2  2  1  6  1       21 0.100354302822D-01 0.100000000000D+01
-.159304613216D-05 0.109763543720D-05 -.419887972140D-07 0.717526581099D-07 0.000000000000D+00  6 21 4 25 24 3 21 4 0.30879108D-01 0.35327475D-01 0.30934721D+05 0.30934721D+05 0.30934721D+05 0.12135024D+01  1  2  3  1  6  1       21 -.113184386740D-02 0.100000000000D+01
0.226570881407D-05 0.000000000000D+00 0.000000000000D+00 0.717526581099D-07 0.000000000000D+00  6 21 4 25 24 3 21 4 0.30879108D-01 0.35327475D-01 0.30934721D+05 0.30934721D+05 0.30934721D+05 0.12135024D+01  1  2 15  1  6  1       21 0.160976419625D-02 0.100000000000D+01
-.215476764120D-05 0.000000000000D+00 0.000000000000D+00 0.717526581099D-07 0.000000000000D+00  6 21 4 25 24 3 21 4 0.30879108D-01 0.35327475D-01 0.30934721D+05 0.30934721D+05 0.30934721D+05 0.12135024D+01  1  2  4  1  6  1       21 -.153094156605D-02 0.100000000000D+01
  </mgrwgt>
  </event>
  <event>
  6     66 -.42910585E-03 0.10281766E+03 0.75467711E-02 0.11575816E+00
       21 -1    0    0  501  503 0.00000000E+00 0.00000000E+00 0.16860452E+03 0.16860618E+03 0.75000000E+00 0.0000E+00 0.9000E+01
        2 -1    0    0  502    0 0.00000000E+00 0.00000000E+00 -.25413807E+03 0.25413827E+03 0.32000000E+00 0.0000E+00 0.9000E+01
       25  1    1    2    0    0 0.14562731E+02 -.69037465E+02 0.41741700E+02 0.14948449E+03 0.12500000E+03 0.0000E+00 0.9000E+01
       24  1    1    2    0    0 0.80025992E+02 0.14229087E+02 -.73639086E+02 0.13600205E+03 0.80419002E+02 0.0000E+00 0.9000E+01
        1  1    1    2  501    0 -.87195994E+02 0.66901236E+02 -.55183128E+02 0.12298047E+03 0.32000000E+00 0.0000E+00 0.9000E+01
       21  1    1    2  502  503 -.73927298E+01 -.12092858E+02 0.15469587E+01 0.14277439E+02 0.75000000E+00 0.0000E+00 0.9000E+01
#aMCatNLO 2  0  0  1  2 0.14173555D+02 0.00000000D+00  -5  6  0 0.00000000D+00 0.00000000D+00 0.00000000D+00 0.00000000D+00 0.00000000D+00
  <mgrwgt>
 -.5036029243D-01    4    2    0
 0.199412510864434D+03 0.000000000000000D+00 0.000000000000000D+00 0.199412510864434D+03
 0.199412510864434D+03 0.000000000000000D+00 0.000000000000000D+00 -.199412510864434D+03
 0.164035866140055D+03 0.115410665343388D+02 -.739805773579828D+02 0.753421750240023D+02
 0.121296703290860D+03 0.777614006494688D+02 0.105244667912803D+02 -.456954531945178D+02
 0.113492452297954D+03 -.893024671838076D+02 0.634561105667025D+02 -.296467218294846D+02
 0.000000000000000D+00 -.000000000000000D+00 -.000000000000000D+00 0.000000000000000D+00
 0.209353696655524D+03 0.000000000000000D+00 0.000000000000000D+00 0.209353696655524D+03
 0.204655145438257D+03 0.000000000000000D+00 0.000000000000000D+00 -.204655145438257D+03
 0.162110167161502D+03 0.145628787890405D+02 -.690375660141533D+02 0.753421750240023D+02
 0.123133797328576D+03 0.800261011418147D+02 0.142290120378038D+02 -.456954531945178D+02
 0.113832829660218D+03 -.871962501746019D+02 0.669014121577830D+02 -.296467218294846D+02
 0.149320479434850D+02 -.739272975625339D+01 -.120928581814335D+02 0.469855121726655D+01
-.119735222951D-04 0.000000000000D+00 0.000000000000D+00 0.133396156753D-06 0.000000000000D+00  6 21 2 25 24 1 21 4 0.26250361D-01 0.38094992D-01 0.36472850D+05 0.36472850D+05 0.36472850D+05 0.12060928D+01  1  2 13  1  6  1       21 -.582529915156D-01 0.100000000000D+01
-.863009176740D-05 0.000000000000D+00 0.000000000000D+00 0.133396156753D-06 0.000000000000D+00  6 21 2 25 24 1 21 4 0.26817968D-01 0.38094992D-01 0.36472850D+05 0.36472850D+05 0.36472850D+05 0.12060928D+01  1  2 13  1  6  1       21 -.402965125879D-01 0.100000000000D+01
-.158831917601D-05 0.000000000000D+00 0.000000000000D+00 0.134154806794D-06 0.000000000000D+00  6 21 2 25 24 1 21 4 0.24706442D-01 0.38094992D-01 0.33786443D+05 0.33786443D+05 0.33786443D+05 0.12095176D+01  1  2  8  1  6  1       21 -.878076356518D-02 0.100000000000D+01
0.117685716664D-04 0.000000000000D+00 0.000000000000D+00 0.134154806794D-06 0.972856396489D-08  6 21 2 25 24 1 21 4 0.25938116D-01 0.39096525D-01 0.36472850D+05 0.36472850D+05 0.36472850D+05 0.12060928D+01  1  2  1  1  6  1       21 0.569699752437D-01 0.100000000000D+01
  </mgrwgt>
  </event>
  <event>
  5     66 -.42910585E-03 0.14731169E+03 0.75467711E-02 0.11132681E+00
       21 -1    0    0  501  502 0.00000000E+00 0.00000000E+00 0.18337941E+03 0.18338095E+03 0.75000000E+00 0.0000E+00 0.9000E+01
        2 -1    0    0  502    0 -.00000000E+00 -.00000000E+00 -.34492015E+03 0.34492030E+03 0.32000000E+00 0.0000E+00 0.9000E+01
       25  1    1    2    0    0 -.48368925E+02 0.82322630E+01 -.29113529E+02 0.13740422E+03 0.12500000E+03 0.0000E+00 0.9000E+01
       24  1    1    2    0    0 -.14123488E+03 0.47751419E+02 -.73062024E+02 0.18447972E+03 0.80419002E+02 0.0000E+00 0.9000E+01
        1  1    1    2  501    0 0.18960381E+03 -.55983682E+02 -.59365189E+02 0.20641731E+03 0.32000000E+00 0.0000E+00 0.9000E+01
#aMCatNLO 1  0  0  5  1 0.89116922D+01 0.00000000D+00  -5  6  0 0.00000000D+00 0.00000000D+00 0.00000000D+00 0.00000000D+00 0.00000000D+00
  <mgrwgt>
 -.4463067264D-01    8    2    0
 0.251498905744755D+03 0.000000000000000D+00 0.000000000000000D+00 0.251498905744755D+03
 0.251498905744755D+03 -.000000000000000D+00 -.000000000000000D+00 -.251498905744755D+03
 0.134966420770630D+03 -.483689912433309D+02 0.823228269534666D+01 0.135500901606276D+02
 0.170295790711428D+03 -.141234968971497D+03 0.477514435789452D+02 -.174906705248036D+02
 0.197735600007453D+03 0.189603960214828D+03 -.559837262742918D+02 0.394058036417601D+01
 0.000000000000000D+00 0.000000000000000D+00 0.000000000000000D+00 0.000000000000000D+00
 0.251498905744755D+03 0.000000000000000D+00 0.000000000000000D+00 0.251498905744755D+03
 0.251498905744755D+03 -.000000000000000D+00 -.000000000000000D+00 -.251498905744755D+03
 0.134841424607872D+03 -.480339924494608D+02 0.813336872352355D+01 0.135570525134585D+02
 0.169909725927780D+03 -.140812563027065D+03 0.476267211905368D+02 -.174818915701422D+02
 0.159994328143733D+03 0.153801765079494D+03 -.437273434121675D+02 -.557866782582871D+01
 0.382523328101270D+02 0.350447903970325D+02 -.120327465018928D+02 0.950350688251250D+01
0.131877566825D-05 0.000000000000D+00 0.000000000000D+00 0.165800709459D-06 0.000000000000D+00  6 21 2 25 24 1 21 2 0.28212347D-01 0.53064768D-01 0.62844483D+05 0.62844483D+05 0.62844483D+05 0.11825712D+01  1  2  2  3  6  5        1 0.255941778501D-02 0.100000000000D+01
-.131500908481D-06 0.695937039927D-07 -.266222811809D-08 0.165800709459D-06 0.000000000000D+00  6 21 2 25 24 1 21 4 0.28212347D-01 0.53064768D-01 0.62844483D+05 0.62844483D+05 0.62844483D+05 0.11825712D+01  1  2  3  3  6  5        1 -.356905801524D-03 0.100000000000D+01
0.112362459825D-06 0.000000000000D+00 0.000000000000D+00 0.165800709459D-06 0.000000000000D+00  6 21 2 25 24 1 21 4 0.28212347D-01 0.53064768D-01 0.62844483D+05 0.62844483D+05 0.62844483D+05 0.11825712D+01  1  2 15  3  6  5        1 0.304962256523D-03 0.100000000000D+01
0.260490544521D-04 0.000000000000D+00 0.000000000000D+00 0.165859905574D-06 0.000000000000D+00  6 21 2 25 24 1 21 4 0.28212347D-01 0.53064768D-01 0.62529052D+05 0.62529052D+05 0.62529052D+05 0.11827823D+01  1  2 12  3  6  5        1 0.707571553717D-01 0.100000000000D+01
-.489257580692D-04 0.000000000000D+00 0.000000000000D+00 0.165800709459D-06 0.000000000000D+00  6 21 2 25 24 1 21 4 0.28212347D-01 0.53064768D-01 0.62844483D+05 0.62844483D+05 0.62844483D+05 0.11825712D+01  1  2  4  3  6  5        1 -.132789097053D+00 0.100000000000D+01
-.258643459956D-04 0.000000000000D+00 0.000000000000D+00 0.165800709459D-06 0.000000000000D+00  6 21 2 25 24 1 21 4 0.28212347D-01 0.53064768D-01 0.62844483D+05 0.62844483D+05 0.62844483D+05 0.11825712D+01  1  2  5  3  6  5        1 -.701982613286D-01 0.100000000000D+01
0.313408492072D-04 0.000000000000D+00 -.000000000000D+00 0.165800709459D-06 0.000000000000D+00  6 21 2 25 24 1 21 4 0.28212347D-01 0.53064768D-01 0.62844483D+05 0.62844483D+05 0.62844483D+05 0.11825712D+01  1  2  6  3  6  5        1 0.850620047874D-01 0.100000000000D+01
0.110633188512D-07 0.000000000000D+00 0.000000000000D+00 0.165800709459D-06 0.157906586508D-07  6 21 2 25 24 1 21 4 0.28212347D-01 0.53064768D-01 0.62529052D+05 0.62529052D+05 0.62529052D+05 0.11827823D+01  1  2 11  3  6  5        1 0.300513391885D-04 0.100000000000D+01
  </mgrwgt>
  </event>
  <event>
  5     66 0.42910585E-03 0.22093607E+02 0.75467711E-02 0.10894090E+00
       21 -1    0    0  501  502 0.00000000E+00 0.00000000E+00 0.18618208E+03 0.18618359E+03 0.75000000E+00 0.0000E+00 0.9000E+01
        2 -1    0    0  502    0 0.00000000E+00 0.00000000E+00 -.33474460E+03 0.33474475E+03 0.32000000E+00 0.0000E+00 0.9000E+01
       25  1    1    2    0    0 -.11928660E+03 0.16520220E+02 -.71410008E+02 0.18768750E+03 0.12500000E+03 0.0000E+00 0.9000E+01
       24  1    1    2    0    0 0.13643635E+03 -.25914215E+01 -.17318728E+03 0.23469692E+03 0.80419002E+02 0.0000E+00 0.9000E+01
        1  1    1    2  501    0 -.17149749E+02 -.13928799E+02 0.96034770E+02 0.98543923E+02 0.32000000E+00 0.0000E+00 0.9000E+01
#aMCatNLO 1  0  0  2  1 0.60373754D+02 0.00000000D+00  -5  6  0 0.00000000D+00 0.00000000D+00 0.00000000D+00 0.00000000D+00 0.00000000D+00
  <mgrwgt>
 0.4091454693D+00    6    2    0
 0.249647510795758D+03 0.000000000000000D+00 0.000000000000000D+00 0.249647510795758D+03
 0.249647510795758D+03 0.000000000000000D+00 0.000000000000000D+00 -.249647510795758D+03
 0.174571923888684D+03 -.119286581040595D+03 0.165202349084411D+02 -.186587789635810D+02
 0.193334968588105D+03 0.136436367818402D+03 -.259140553541712D+01 -.110858451542793D+03
 0.131388129114727D+03 -.171497867778066D+02 -.139288293730239D+02 0.129517230506374D+03
 0.000000000000000D+00 -.000000000000000D+00 -.000000000000000D+00 -.000000000000000D+00
 0.356026294952674D+03 0.000000000000000D+00 0.000000000000000D+00 0.356026294952674D+03
 0.361967035792026D+03 0.000000000000000D+00 0.000000000000000D+00 -.361967035792026D+03
 0.166861790147754D+03 -.854122442418254D+02 0.676347212049853D+02 -.186587789635810D+02
 0.233395417515820D+03 0.178773161834035D+03 0.612924570596525D+02 -.110858451542793D+03
 0.132320614741126D+03 0.901329682793358D+01 0.255498056297878D+02 0.129517230506374D+03
 0.185415508340000D+03 -.102374214420144D+03 -.154476983894426D+03 -.594074083935168D+01
0.725791494418D-04 0.000000000000D+00 0.000000000000D+00 0.347436107726D-05 0.000000000000D+00  6 21 2 25 24 1 21 2 0.28643525D-01 0.51499297D-01 0.31339621D+05 0.31339621D+05 0.31339621D+05 0.12129122D+01  1  2  2  2  6  2        2 0.150511044960D+00 0.100000000000D+01
0.211516097364D-04 0.383010694229D-05 -.146516391743D-06 0.347436107726D-05 0.000000000000D+00  6 21 2 25 24 1 21 4 0.28643525D-01 0.51499297D-01 0.31339621D+05 0.31339621D+05 0.31339621D+05 0.12129122D+01  1  2  3  2  6  2        2 0.645295516525D-01 0.100000000000D+01
0.659267372693D-05 0.000000000000D+00 0.000000000000D+00 0.347436107726D-05 0.000000000000D+00  6 21 2 25 24 1 21 4 0.28643525D-01 0.51499297D-01 0.31339621D+05 0.31339621D+05 0.31339621D+05 0.12129122D+01  1  2 15  2  6  2        2 0.201129977856D-01 0.100000000000D+01
-.142000389794D-04 0.000000000000D+00 -.715316358084D-04 0.347436107726D-05 0.000000000000D+00  6 21 2 25 24 1 21 4 0.28643525D-01 0.10120791D+00 0.31339621D+05 0.31339621D+05 0.31339621D+05 0.12129122D+01  1  2  5  2  6  2        2 -.205116905293D-01 0.100000000000D+01
0.616263570069D-04 0.000000000000D+00 0.578249426035D-04 0.347436107726D-05 0.000000000000D+00  6 21 2 25 24 1 21 4 0.28643525D-01 0.51499297D-01 0.31339621D+05 0.31339621D+05 0.31339621D+05 0.12129122D+01  1  2  6  2  6  2        2 0.188010332887D+00 0.100000000000D+01
0.318891623981D-05 0.000000000000D+00 -.523422910559D-05 0.347436107726D-05 0.000000000000D+00  6 21 21 25 24 1 -2 4 0.28643525D-01 0.10120791D+00 0.31339621D+05 0.31339621D+05 0.31339621D+05 0.12129122D+01  1  2  5 10  6  2        2 0.649323254853D-02 0.100000000000D+01
  </mgrwgt>
  </event>
  <event>
  6     66 -.42910585E-03 0.49563082E+02 0.75467711E-02 0.12068340E+00
       21 -1    0    0  501  502 0.00000000E+00 0.00000000E+00 0.87888502E+01 0.88207930E+01 0.75000000E+00 0.0000E+00 0.9000E+01
        2 -1    0    0  503    0 0.00000000E+00 0.00000000E+00 -.23923511E+04 0.23923512E+04 0.32000000E+00 0.0000E+00 0.9000E+01
       25  1    1    2    0    0 -.56885435E+02 -.56159673E+02 -.11980786E+04 0.12072312E+04 0.12500000E+03 0.0000E+00 0.9000E+01
       24  1    1    2    0    0 0.40981201E+02 0.79457993E+01 -.73399032E+03 0.73956176E+03 0.80419002E+02 0.0000E+00 0.9000E+01
        1  1    1    2  501    0 0.12309359E+02 0.41382682E+02 -.39586520E+03 0.39821276E+03 0.32000000E+00 0.0000E+00 0.9000E+01
       21  1    1    2  503  502 0.35948742E+01 0.68311917E+01 -.55628211E+02 0.56166259E+02 0.75000000E+00 0.0000E+00 0.9000E+01
#aMCatNLO 2  0  0  2  1 0.77193458D+01 0.00000000D+00  -5  6  0 0.00000000D+00 0.00000000D+00 0.00000000D+00 0.00000000D+00 0.00000000D+00
  <mgrwgt>
 -.3051165401D+00    3    2    0
 0.141169267062296D+03 0.000000000000000D+00 0.000000000000000D+00 0.141169267062296D+03
 0.141169267062296D+03 0.000000000000000D+00 0.000000000000000D+00 -.141169267062296D+03
 0.146377478329248D+03 -.550093014295455D+02 -.525947745828389D+02 0.302201999387452D+01
 0.913691862993589D+02 0.421394750672464D+02 0.101466695648253D+02 0.155627389478687D+01
 0.445918694959854D+02 0.128698263622991D+02 0.424481050180136D+02 -.457829388866138D+01
 0.000000000000000D+00 0.000000000000000D+00 0.000000000000000D+00 0.000000000000000D+00
 0.145654852801213D+03 0.000000000000000D+00 0.000000000000000D+00 0.145654852801213D+03
 0.144582642571867D+03 0.000000000000000D+00 0.000000000000000D+00 -.144582642571867D+03
 0.148405116176875D+03 -.568856099202423D+02 -.561602464972382D+02 0.302201999387452D+01
 0.906212901514610D+02 0.409810950185100D+02 0.794544756404647D+01 0.155627389478687D+01
 0.434176344158446D+02 0.123096407118253D+02 0.413836072483146D+02 -.457829388866138D+01
 0.779345462889915D+01 0.359487418990696D+01 0.683119168487716D+01 0.107221022934664D+01
-.969849427260D-05 0.000000000000D+00 0.000000000000D+00 0.374758399521D-06 0.000000000000D+00  6 21 2 25 24 1 21 4 0.13127107D-02 0.37356325D+00 0.21007196D+05 0.21007196D+05 0.21007196D+05 0.12314838D+01  1  2 13  2  6  2        2 -.313170898633D+00 0.100000000000D+01
-.270043837970D-06 0.000000000000D+00 0.000000000000D+00 0.376347294792D-06 0.000000000000D+00  6 21 2 25 24 1 21 4 0.13127107D-02 0.35932263D+00 0.19889239D+05 0.19889239D+05 0.19889239D+05 0.12340917D+01  1  2  8  2  6  2        2 -.984556936161D-02 0.100000000000D+01
0.557595222954D-06 0.000000000000D+00 0.000000000000D+00 0.376347294792D-06 0.692443047726D-06  6 21 2 25 24 1 21 4 0.13544215D-02 0.36801081D+00 0.21007196D+05 0.21007196D+05 0.21007196D+05 0.12314838D+01  1  2  1  2  6  2        2 0.178999279437D-01 0.100000000000D+01
  </mgrwgt>
  </event>
  <event>
  5     66 0.42910585E-03 0.96424892E+02 0.75467711E-02 0.95065186E-01
       21 -1    0    0  501  502 0.00000000E+00 0.00000000E+00 0.11764148E+03 0.11764387E+03 0.75000000E+00 0.0000E+00 0.9000E+01
        2 -1    0    0  502    0 0.00000000E+00 0.00000000E+00 -.32534042E+03 0.32534058E+03 0.32000000E+00 0.0000E+00 0.9000E+01
       25  1    1    2    0    0 -.44592704E+02 0.31262042E+02 -.84280922E+02 0.16029379E+03 0.12500000E+03 0.0000E+00 0.9000E+01
       24  1    1    2    0    0 0.12443674E+03 0.22799213E+02 -.39898630E+02 0.15512389E+03 0.80419002E+02 0.0000E+00 0.9000E+01
        1  1    1    2  501    0 -.79844034E+02 -.54061256E+02 -.83519393E+02 0.12756677E+03 0.32000000E+00 0.0000E+00 0.9000E+01
#aMCatNLO 1  0  0  2  1 0.79689627D+03 0.00000000D+00  -5  6  0 0.00000000D+00 0.00000000D+00 0.00000000D+00 0.00000000D+00 0.00000000D+00
  <mgrwgt>
 0.6328956281D-01    3    2    0
 0.195637657274478D+03 0.000000000000000D+00 0.000000000000000D+00 0.195637657274478D+03
 0.195637657274478D+03 0.000000000000000D+00 0.000000000000000D+00 -.195637657274478D+03
 0.136738976280282D+03 -.445925617599118D+02 0.312621390040182D+02 -.103310084097076D+02
 0.154445296198249D+03 0.124436899162100D+03 0.227993223169127D+02 0.371723363834619D+02
 0.100091042070425D+03 -.798443374021886D+02 -.540614613209309D+02 -.268413279737543D+02
 0.000000000000000D+00 -.000000000000000D+00 -.000000000000000D+00 0.000000000000000D+00
 0.241308342553046D+04 0.000000000000000D+00 0.000000000000000D+00 0.241308342553046D+04
 0.524508411554696D+03 0.000000000000000D+00 0.000000000000000D+00 -.524508411554696D+03
 0.325157681813119D+03 0.874351946167568D+02 0.286968421694182D+03 -.103310084097076D+02
 0.507955144904474D+03 0.313776316387379D+03 0.389504626368824D+03 0.371723363834619D+02
 0.546596888212923D+02 -.356106512750385D+02 0.316086413882888D+02 -.268413279737543D+02
 0.204981932154627D+04 -.365600859729097D+03 -.708081689451296D+03 0.188857501397576D+04
0.124138751550D-04 0.000000000000D+00 0.000000000000D+00 0.120477129725D-06 0.000000000000D+00  6 21 2 25 24 1 21 2 0.18098885D-01 0.50052569D-01 0.36610658D+05 0.36610658D+05 0.36610658D+05 0.12059248D+01  1  2  2  2  6  2        2 0.623843672894D-01 0.100000000000D+01
-.113185472316D-05 0.655098189737D-06 -.250600373420D-07 0.120477129725D-06 0.000000000000D+00  6 21 2 25 24 1 21 4 0.18098885D-01 0.50052569D-01 0.36610658D+05 0.36610658D+05 0.36610658D+05 0.12059248D+01  1  2  3  2  6  2        2 -.827179063609D-02 0.100000000000D+01
0.125571542927D-05 0.000000000000D+00 0.000000000000D+00 0.120477129725D-06 0.000000000000D+00  6 21 2 25 24 1 21 4 0.18098885D-01 0.50052569D-01 0.36610658D+05 0.36610658D+05 0.36610658D+05 0.12059248D+01  1  2 15  2  6  2        2 0.917698615991D-02 0.100000000000D+01
  </mgrwgt>
  </event>
  <event>
  5     66 0.42910585E-03 0.15472639E+03 0.75467711E-02 0.11248074E+00
       21 -1    0    0  501  502 0.00000000E+00 0.00000000E+00 0.96360405E+02 0.96363324E+02 0.75000000E+00 0.0000E+00 0.9000E+01
        2 -1    0    0  502    0 0.00000000E+00 0.00000000E+00 -.10363887E+04 0.10363888E+04 0.32000000E+00 0.0000E+00 0.9000E+01
       25  1    1    2    0    0 0.53498295E+02 -.10274516E+03 -.49580246E+02 0.17748757E+03 0.12500000E+03 0.0000E+00 0.9000E+01
       24  1    1    2    0    0 0.95987890E+02 0.62818853E+02 -.17963671E+03 0.22780792E+03 0.80419002E+02 0.0000E+00 0.9000E+01
        1  1    1    2  501    0 -.14948619E+03 0.39926307E+02 -.71081139E+03 0.72745664E+03 0.32000000E+00 0.0000E+00 0.9000E+01
#aMCatNLO 1  0  0  1  1 0.80403150D-01 0.00000000D+00  -5  6  0 0.00000000D+00 0.00000000D+00 0.00000000D+00 0.00000000D+00 0.00000000D+00
  <mgrwgt>
 0.1501801993D-01    1    2    0
 0.316019810654686D+03 0.000000000000000D+00 0.000000000000000D+00 0.316019810654686D+03
 0.316019810654686D+03 0.000000000000000D+00 0.000000000000000D+00 -.316019810654686D+03
 0.244355914872430D+03 0.534983440884731D+02 -.102745173796679D+03 0.175117587850060D+03
 0.141108740372764D+03 0.959879182234578D+02 0.628188459796978D+02 0.168692857028217D+02
 0.246574966064179D+03 -.149486262311931D+03 0.399263278169815D+02 -.191986873552882D+03
 0.000000000000000D+00 -.000000000000000D+00 0.000000000000000D+00 0.000000000000000D+00
 0.123876870448711D+04 0.000000000000000D+00 0.000000000000000D+00 0.123876870448711D+04
 0.121569944673576D+04 0.000000000000000D+00 0.000000000000000D+00 -.121569944673576D+04
 0.683762149834205D+03 0.526187719346194D+03 -.379955249971259D+03 0.175117587850060D+03
 0.384624105959105D+03 0.363743002554916D+03 -.942069117564170D+02 0.168692857028217D+02
 0.240116320298143D+03 0.983850041165475D+02 -.105438506352740D+03 -.191986873552882D+03
 0.114596557513141D+04 -.988315726017657D+03 0.579600668080416D+03 0.230692577513481D+02
0.597276138309D-05 0.000000000000D+00 0.000000000000D+00 0.739773437171D-07 0.000000000000D+00  6 21 2 25 24 1 21 4 0.14824906D-01 0.15944465D+00 0.54113253D+05 0.54113253D+05 0.54113253D+05 0.11888964D+01  1  2 14  1  6  1       21 0.150180199252D-01 0.100000000000D+01
  </mgrwgt>
  </event>
  <event>
  5     66 0.42910585E-03 0.54913816E+02 0.75467711E-02 0.11708442E+00
       21 -1    0    0  501  502 0.00000000E+00 0.00000000E+00 0.32164765E+03 0.32164852E+03 0.75000000E+00 0.0000E+00 0.9000E+01
        4 -1    0    0  502    0 0.00000000E+00 0.00000000E+00 -.70429077E+02 0.70446131E+02 0.15500000E+01 0.0000E+00 0.9000E+01
       25  1    1    2    0    0 0.42458238E+02 -.28219043E+02 0.80520154E+02 0.15718623E+03 0.12500000E+03 0.0000E+00 0.9000E+01
       24  1    1    2    0    0 -.16193069E+02 -.37001930E+02 0.10913167E+03 0.14145068E+03 0.80419002E+02 0.0000E+00 0.9000E+01
        3  1    1    2  501    0 -.26265169E+02 0.65220973E+02 0.61566744E+02 0.93457736E+02 0.50000000E+00 0.0000E+00 0.9000E+01
#aMCatNLO 1  0  0  2  1 0.53409482D+02 0.00000000D+00  -5  6  0 0.00000000D+00 0.00000000D+00 0.00000000D+00 0.00000000D+00 0.00000000D+00
  <mgrwgt>
 0.6991841486D-01    9    2    0
 0.150521964018974D+03 0.000000000000000D+00 0.000000000000000D+00 0.150521964018974D+03
 0.150521964018974D+03 0.000000000000000D+00 0.000000000000000D+00 -.150521964018974D+03
 0.137534078488340D+03 0.424585411436145D+02 -.282197958070227D+02 -.262971130393206D+02
 0.931631586092491D+02 -.161928636388545D+02 -.370024400175365D+02 0.240991445409092D+02
 0.703466909403597D+02 -.262656775047599D+02 0.652222358245592D+02 0.219796849841139D+01
 0.000000000000000D+00 0.000000000000000D+00 0.000000000000000D+00 -.000000000000000D+00
 0.163103891384429D+03 0.000000000000000D+00 0.000000000000000D+00 0.163103891384429D+03
 0.222574078227368D+03 0.000000000000000D+00 0.000000000000000D+00 -.222574078227368D+03
 0.143816519313381D+03 0.396949759177981D+02 -.528295557439094D+02 -.262971130393206D+02
 0.101462340661769D+03 -.181045718991000D+02 -.540263484509281D+02 0.240991445409092D+02
 0.604661634787996D+02 -.275505862925398D+02 0.537800246863296D+02 0.219796849841139D+01
 0.799329461578461D+02 0.596018227384173D+01 0.530758795085079D+02 -.594701868429389D+02
0.904158242843D-05 0.000000000000D+00 0.000000000000D+00 0.322151436192D-06 0.000000000000D+00  6 21 4 25 24 3 21 2 0.49485633D-01 0.10836622D-01 0.21800701D+05 0.21800701D+05 0.21800701D+05 0.12297254D+01  1  2  2  2  6  2        4 0.145852957617D-01 0.100000000000D+01
-.623976683610D-06 0.477137413358D-06 -.182523499276D-07 0.322151436192D-06 0.000000000000D+00  6 21 4 25 24 3 21 4 0.49485633D-01 0.10836622D-01 0.21800701D+05 0.21800701D+05 0.21800701D+05 0.12297254D+01  1  2  3  2  6  2        4 -.152214283529D-02 0.100000000000D+01
0.789318948791D-06 0.000000000000D+00 0.000000000000D+00 0.322151436192D-06 0.000000000000D+00  6 21 4 25 24 3 21 4 0.49485633D-01 0.10836622D-01 0.21800701D+05 0.21800701D+05 0.21800701D+05 0.12297254D+01  1  2 15  2  6  2        4 0.192548249673D-02 0.100000000000D+01
0.289876183910D-04 0.000000000000D+00 0.000000000000D+00 0.313438813210D-06 0.000000000000D+00  6 21 4 25 24 3 21 4 0.49485633D-01 0.16304525D-01 0.31291192D+05 0.31291192D+05 0.31291192D+05 0.12129823D+01  1  2 12  2  6  2        4 0.333101383161D-01 0.100000000000D+01
-.123816892623D-04 0.000000000000D+00 0.000000000000D+00 0.322151436192D-06 0.000000000000D+00  6 21 4 25 24 3 21 4 0.49485633D-01 0.10836622D-01 0.21800701D+05 0.21800701D+05 0.21800701D+05 0.12297254D+01  1  2  4  2  6  2        4 -.302041728390D-01 0.100000000000D+01
-.404915316978D-04 0.000000000000D+00 -.110107065873D-04 0.322151436192D-06 0.000000000000D+00  6 21 4 25 24 3 21 4 0.49485633D-01 0.17256716D-01 0.21800701D+05 0.21800701D+05 0.21800701D+05 0.12297254D+01  1  2  5  2  6  2        4 -.440701041021D-01 0.100000000000D+01
0.420710333748D-04 0.000000000000D+00 0.991772503726D-05 0.322151436192D-06 0.000000000000D+00  6 21 4 25 24 3 21 4 0.49485633D-01 0.10836622D-01 0.21800701D+05 0.21800701D+05 0.21800701D+05 0.12297254D+01  1  2  6  2  6  2        4 0.102629030389D+00 0.100000000000D+01
0.140134131828D-05 0.000000000000D+00 0.000000000000D+00 0.313438813210D-06 0.000000000000D+00  6 21 21 25 24 3 -4 4 0.49485633D-01 0.16304525D-01 0.31291192D+05 0.31291192D+05 0.31291192D+05 0.12129823D+01  1  2 12 10  6  2        4 0.400015826284D-01 0.100000000000D+01
-.170190372350D-05 0.000000000000D+00 -.586927632250D-06 0.322151436192D-06 0.000000000000D+00  6 21 21 25 24 3 -4 4 0.49485633D-01 0.17256716D-01 0.21800701D+05 0.21800701D+05 0.21800701D+05 0.12297254D+01  1  2  5 10  6  2        4 -.467366949596D-01 0.100000000000D+01
  </mgrwgt>
  </event>
  <event>
  5     66 0.42910585E-03 0.20741060E+03 0.75467711E-02 0.10266453E+00
       21 -1    0    0  501  502 0.00000000E+00 0.00000000E+00 0.81660408E+02 0.81663852E+02 0.75000000E+00 0.0000E+00 0.9000E+01
        2 -1    0    0  502    0 0.00000000E+00 0.00000000E+00 -.24880128E+04 0.24880128E+04 0.32000000E+00 0.0000E+00 0.9000E+01
       25  1    1    2    0    0 0.46681612E+02 -.32893519E+03 -.93405541E+03 0.99923072E+03 0.12500000E+03 0.0000E+00 0.9000E+01
       24  1    1    2    0    0 -.21833814E+02 -.91505985E+02 -.28716729E+03 0.31270166E+03 0.80419002E+02 0.0000E+00 0.9000E+01
        1  1    1    2  501    0 -.24847798E+02 0.42044118E+03 -.11851297E+04 0.12577443E+04 0.32000000E+00 0.0000E+00 0.9000E+01
#aMCatNLO 1  0  0  1  5 0.73247222D+01 0.00000000D+00  -5  6  0 0.00000000D+00 0.00000000D+00 0.00000000D+00 0.00000000D+00 0.00000000D+00
  <mgrwgt>
 0.3443974033D-01   41    2    0
 0.450751142328252D+03 0.000000000000000D+00 0.000000000000000D+00 0.450751142328252D+03
 0.450751142328252D+03 0.000000000000000D+00 0.000000000000000D+00 -.450751142328252D+03
 0.355000162762272D+03 0.466816150218788D+02 -.328935241933667D+03 0.474857812701492D+01
 0.124809978782966D+03 -.218338129019726D+02 -.915060014598286D+02 0.161323017709600D+02
 0.421692143111266D+03 -.248478021199062D+02 0.420441243393496D+03 -.208808798979749D+02
 0.000000000000000D+00 -.000000000000000D+00 -.000000000000000D+00 0.000000000000000D+00
 0.456760877169814D+03 0.000000000000000D+00 0.000000000000000D+00 0.456760877169814D+03
 0.453003419890787D+03 0.000000000000000D+00 0.000000000000000D+00 -.453003419890787D+03
 0.354443371375426D+03 0.493858078548623D+02 -.327938403515466D+03 0.474857812701492D+01
 0.124390493144889D+03 -.208839330345319D+02 -.911558501196611D+02 0.161323017709600D+02
 0.422698176394999D+03 -.216292313100040D+02 0.421627695408262D+03 -.208808798979749D+02
 0.823225614528648D+01 -.687264351032640D+01 -.253344177313521D+01 0.375745727902645D+01
0.127400234917D-04 0.000000000000D+00 0.000000000000D+00 0.156652435026D-06 0.000000000000D+00  6 21 2 25 24 1 21 2 0.12563406D-01 0.38277147D+00 0.20245781D+06 0.20245781D+06 0.20245781D+06 0.11364379D+01  1  2  2  1  6  1       21 0.426643438965D-02 0.100000000000D+01
-.140299647258D-05 0.672309510317D-06 -.257184368663D-07 0.156652435026D-06 0.000000000000D+00  6 21 2 25 24 1 21 4 0.12563406D-01 0.38277147D+00 0.20245781D+06 0.20245781D+06 0.20245781D+06 0.11364379D+01  1  2  3  1  6  1       21 -.606796206378D-03 0.100000000000D+01
0.163128003907D-05 0.000000000000D+00 0.000000000000D+00 0.156652435026D-06 0.000000000000D+00  6 21 2 25 24 1 21 4 0.12563406D-01 0.38277147D+00 0.20245781D+06 0.20245781D+06 0.20245781D+06 0.11364379D+01  1  2 15  1  6  1       21 0.705528886633D-03 0.100000000000D+01
0.987953416659D-05 0.000000000000D+00 0.000000000000D+00 0.156486179759D-06 0.000000000000D+00  6 21 2 25 24 1 21 4 0.12762009D-01 0.38277147D+00 0.20577943D+06 0.20577943D+06 0.20577943D+06 0.11358347D+01  1  2 12  1  6  1       21 0.413912618369D-02 0.100000000000D+01
0.846948497625D-05 0.000000000000D+00 0.000000000000D+00 0.156486179759D-06 0.000000000000D+00  6 21 2 25 24 1 21 4 0.12794528D-01 0.38277147D+00 0.20577943D+06 0.20577943D+06 0.20577943D+06 0.11358347D+01  1  2 12  1  6  1       21 0.353187633825D-02 0.100000000000D+01
-.181492738243D-04 0.000000000000D+00 0.000000000000D+00 0.156652435026D-06 0.000000000000D+00  6 21 2 25 24 1 21 4 0.12563406D-01 0.38277147D+00 0.20245781D+06 0.20245781D+06 0.20245781D+06 0.11364379D+01  1  2  4  1  6  1       21 -.784956393002D-02 0.100000000000D+01
-.186721967122D-02 0.000000000000D+00 -.206644127569D-03 0.156652435026D-06 0.000000000000D+00  6 21 2 25 24 1 21 4 0.12807168D-01 0.38277147D+00 0.20245781D+06 0.20245781D+06 0.20245781D+06 0.11364379D+01  1  2  5  1  6  1       21 -.779671585539D+00 0.100000000000D+01
0.186980650583D-02 0.000000000000D+00 0.206491588215D-03 0.156652435026D-06 0.000000000000D+00  6 21 2 25 24 1 21 4 0.12563406D-01 0.38277147D+00 0.20245781D+06 0.20245781D+06 0.20245781D+06 0.11364379D+01  1  2  6  1  6  1       21 0.808691622947D+00 0.100000000000D+01
0.611793009838D-05 0.000000000000D+00 0.000000000000D+00 0.156652435026D-06 0.354932882170D-07  6 21 2 25 24 1 21 4 0.12730910D-01 0.38468407D+00 0.20577943D+06 0.20577943D+06 0.20577943D+06 0.11358347D+01  1  2 11  1  6  1       21 0.253387212954D-02 0.100000000000D+01
0.760416417091D-06 0.000000000000D+00 0.000000000000D+00 0.156486179759D-06 0.000000000000D+00  6 -1 2 25 24 1 -1 4 0.12762009D-01 0.38277147D+00 0.20577943D+06 0.20577943D+06 0.20577943D+06 0.11358347D+01  1  2 12  4  6  1       21 0.234855947942D-04 0.100000000000D+01
0.760494794124D-06 0.000000000000D+00 0.000000000000D+00 0.156486179759D-06 0.000000000000D+00  6 -1 2 25 24 1 -1 4 0.12794528D-01 0.38277147D+00 0.20577943D+06 0.20577943D+06 0.20577943D+06 0.11358347D+01  1  2 12  4  6  1       21 0.233930190265D-04 0.100000000000D+01
-.733184982092D-05 0.000000000000D+00 -.907925821846D-06 0.156652435026D-06 0.000000000000D+00  6 -1 2 25 24 1 -1 4 0.12807168D-01 0.38277147D+00 0.20245781D+06 0.20245781D+06 0.20245781D+06 0.11364379D+01  1  2  5  4  6  1       21 -.225800723359D-03 0.100000000000D+01
0.442700843682D-07 0.000000000000D+00 0.000000000000D+00 0.156652435026D-06 0.218171293436D-09  6 -1 2 25 24 1 -1 4 0.12730910D-01 0.38468407D+00 0.20577943D+06 0.20577943D+06 0.20577943D+06 0.11358347D+01  1  2 11  4  6  1       21 0.135087678335D-05 0.100000000000D+01
0.760416417091D-06 0.000000000000D+00 0.000000000000D+00 0.156486179759D-06 0.000000000000D+00  6 1 2 25 24 1 1 4 0.12762009D-01 0.38277147D+00 0.20577943D+06 0.20577943D+06 0.20577943D+06 0.11358347D+01  1  2 12  5  6  1       21 0.309878988050D-04 0.100000000000D+01
0.760494794124D-06 0.000000000000D+00 0.000000000000D+00 0.156486179759D-06 0.000000000000D+00  6 1 2 25 24 1 1 4 0.12794528D-01 0.38277147D+00 0.20577943D+06 0.20577943D+06 0.20577943D+06 0.11358347D+01  1  2 12  5  6  1       21 0.308849351397D-04 0.100000000000D+01
-.733184982092D-05 0.000000000000D+00 -.907925821846D-06 0.156652435026D-06 0.000000000000D+00  6 1 2 25 24 1 1 4 0.12807168D-01 0.38277147D+00 0.20245781D+06 0.20245781D+06 0.20245781D+06 0.11364379D+01  1  2  5  5  6  1       21 -.298191388636D-03 0.100000000000D+01
0.371268447754D-07 0.000000000000D+00 0.000000000000D+00 0.156652435026D-06 0.699917161606D-10  6 1 2 25 24 1 1 4 0.12730910D-01 0.38468407D+00 0.20577943D+06 0.20577943D+06 0.20577943D+06 0.11358347D+01  1  2 11  5  6  1       21 0.149391465068D-05 0.100000000000D+01
0.760416417091D-06 0.000000000000D+00 0.000000000000D+00 0.156486179759D-06 0.000000000000D+00  6 -2 2 25 24 1 -2 4 0.12762009D-01 0.38277147D+00 0.20577943D+06 0.20577943D+06 0.20577943D+06 0.11358347D+01  1  2 12  6  6  1       21 0.222041925044D-04 0.100000000000D+01
0.760494794124D-06 0.000000000000D+00 0.000000000000D+00 0.156486179759D-06 0.000000000000D+00  6 -2 2 25 24 1 -2 4 0.12794528D-01 0.38277147D+00 0.20577943D+06 0.20577943D+06 0.20577943D+06 0.11358347D+01  1  2 12  6  6  1       21 0.221135138134D-04 0.100000000000D+01
-.733184982092D-05 0.000000000000D+00 -.907925821846D-06 0.156652435026D-06 0.000000000000D+00  6 -2 2 25 24 1 -2 4 0.12807168D-01 0.38277147D+00 0.20245781D+06 0.20245781D+06 0.20245781D+06 0.11364379D+01  1  2  5  6  6  1       21 -.213436924198D-03 0.100000000000D+01
0.362552455135D-07 0.000000000000D+00 0.000000000000D+00 0.156652435026D-06 0.136558781537D-09  6 -2 2 25 24 1 -2 4 0.12730910D-01 0.38468407D+00 0.20577943D+06 0.20577943D+06 0.20577943D+06 0.11358347D+01  1  2 11  6  6  1       21 0.104608962871D-05 0.100000000000D+01
0.760416417091D-06 0.000000000000D+00 0.000000000000D+00 0.156486179759D-06 0.000000000000D+00  6 2 2 25 24 1 2 4 0.12762009D-01 0.38277147D+00 0.20577943D+06 0.20577943D+06 0.20577943D+06 0.11358347D+01  1  2 12  7  6  1       21 0.361918192791D-04 0.100000000000D+01
0.760494794124D-06 0.000000000000D+00 0.000000000000D+00 0.156486179759D-06 0.000000000000D+00  6 2 2 25 24 1 2 4 0.12794528D-01 0.38277147D+00 0.20577943D+06 0.20577943D+06 0.20577943D+06 0.11358347D+01  1  2 12  7  6  1       21 0.360823467185D-04 0.100000000000D+01
-.733184982092D-05 0.000000000000D+00 -.907925821846D-06 0.156652435026D-06 0.000000000000D+00  6 2 2 25 24 1 2 4 0.12807168D-01 0.38277147D+00 0.20245781D+06 0.20245781D+06 0.20245781D+06 0.11364379D+01  1  2  5  7  6  1       21 -.348408943910D-03 0.100000000000D+01
0.432471659729D-07 0.000000000000D+00 0.000000000000D+00 0.156652435026D-06 0.200498556856D-09  6 2 2 25 24 1 2 4 0.12730910D-01 0.38468407D+00 0.20577943D+06 0.20577943D+06 0.20577943D+06 0.11358347D+01  1  2 11  7  6  1       21 0.203183959357D-05 0.100000000000D+01
0.760416417091D-06 0.000000000000D+00 0.000000000000D+00 0.156486179759D-06 0.000000000000D+00  6 -3 2 25 24 1 -3 4 0.12762009D-01 0.38277147D+00 0.20577943D+06 0.20577943D+06 0.20577943D+06 0.11358347D+01  1  2 12  8  6  1       21 0.156587390425D-04 0.100000000000D+01
0.760416417091D-06 0.000000000000D+00 0.000000000000D+00 0.156486179759D-06 0.000000000000D+00  6 -4 2 25 24 1 -4 4 0.12762009D-01 0.38277147D+00 0.20577943D+06 0.20577943D+06 0.20577943D+06 0.11358347D+01  1  2 12  8  6  1       21 0.138380543857D-04 0.100000000000D+01
0.760494794124D-06 0.000000000000D+00 0.000000000000D+00 0.156486179759D-06 0.000000000000D+00  6 -3 2 25 24 1 -3 4 0.12794528D-01 0.38277147D+00 0.20577943D+06 0.20577943D+06 0.20577943D+06 0.11358347D+01  1  2 12  8  6  1       21 0.155917041778D-04 0.100000000000D+01
0.760494794124D-06 0.000000000000D+00 0.000000000000D+00 0.156486179759D-06 0.000000000000D+00  6 -4 2 25 24 1 -4 4 0.12794528D-01 0.38277147D+00 0.20577943D+06 0.20577943D+06 0.20577943D+06 0.11358347D+01  1  2 12  8  6  1       21 0.137776590350D-04 0.100000000000D+01
-.733184982092D-05 0.000000000000D+00 -.907925821846D-06 0.156652435026D-06 0.000000000000D+00  6 -3 2 25 24 1 -3 4 0.12807168D-01 0.38277147D+00 0.20245781D+06 0.20245781D+06 0.20245781D+06 0.11364379D+01  1  2  5  8  6  1       21 -.150439257152D-03 0.100000000000D+01
-.733184982092D-05 0.000000000000D+00 -.907925821846D-06 0.156652435026D-06 0.000000000000D+00  6 -4 2 25 24 1 -4 4 0.12807168D-01 0.38277147D+00 0.20245781D+06 0.20245781D+06 0.20245781D+06 0.11364379D+01  1  2  5  8  6  1       21 -.132917163331D-03 0.100000000000D+01
0.360690812784D-07 0.000000000000D+00 0.000000000000D+00 0.156652435026D-06 0.135857576491D-09  6 -3 2 25 24 1 -3 4 0.12730910D-01 0.38468407D+00 0.20577943D+06 0.20577943D+06 0.20577943D+06 0.11358347D+01  1  2 11  8  6  1       21 0.734069833745D-06 0.100000000000D+01
0.360690812784D-07 0.000000000000D+00 0.000000000000D+00 0.156652435026D-06 0.135857576491D-09  6 -4 2 25 24 1 -4 4 0.12730910D-01 0.38468407D+00 0.20577943D+06 0.20577943D+06 0.20577943D+06 0.11358347D+01  1  2 11  8  6  1       21 0.648769607163D-06 0.100000000000D+01
0.760416417091D-06 0.000000000000D+00 0.000000000000D+00 0.156486179759D-06 0.000000000000D+00  6 3 2 25 24 1 3 4 0.12762009D-01 0.38277147D+00 0.20577943D+06 0.20577943D+06 0.20577943D+06 0.11358347D+01  1  2 12  9  6  1       21 0.156571652212D-04 0.100000000000D+01
0.760416417091D-06 0.000000000000D+00 0.000000000000D+00 0.156486179759D-06 0.000000000000D+00  6 4 2 25 24 1 4 4 0.12762009D-01 0.38277147D+00 0.20577943D+06 0.20577943D+06 0.20577943D+06 0.11358347D+01  1  2 12  9  6  1       21 0.138380543857D-04 0.100000000000D+01
0.760494794124D-06 0.000000000000D+00 0.000000000000D+00 0.156486179759D-06 0.000000000000D+00  6 3 2 25 24 1 3 4 0.12794528D-01 0.38277147D+00 0.20577943D+06 0.20577943D+06 0.20577943D+06 0.11358347D+01  1  2 12  9  6  1       21 0.155901382956D-04 0.100000000000D+01
0.760494794124D-06 0.000000000000D+00 0.000000000000D+00 0.156486179759D-06 0.000000000000D+00  6 4 2 25 24 1 4 4 0.12794528D-01 0.38277147D+00 0.20577943D+06 0.20577943D+06 0.20577943D+06 0.11358347D+01  1  2 12  9  6  1       21 0.137776590350D-04 0.100000000000D+01
-.733184982092D-05 0.000000000000D+00 -.907925821846D-06 0.156652435026D-06 0.000000000000D+00  6 3 2 25 24 1 3 4 0.12807168D-01 0.38277147D+00 0.20245781D+06 0.20245781D+06 0.20245781D+06 0.11364379D+01  1  2  5  9  6  1       21 -.150424129348D-03 0.100000000000D+01
-.733184982092D-05 0.000000000000D+00 -.907925821846D-06 0.156652435026D-06 0.000000000000D+00  6 4 2 25 24 1 4 4 0.12807168D-01 0.38277147D+00 0.20245781D+06 0.20245781D+06 0.20245781D+06 0.11364379D+01  1  2  5  9  6  1       21 -.132917163331D-03 0.100000000000D+01
0.360690812784D-07 0.000000000000D+00 0.000000000000D+00 0.156652435026D-06 0.135857576491D-09  6 3 2 25 24 1 3 4 0.12730910D-01 0.38468407D+00 0.20577943D+06 0.20577943D+06 0.20577943D+06 0.11358347D+01  1  2 11  9  6  1       21 0.733996000814D-06 0.100000000000D+01
0.360690812784D-07 0.000000000000D+00 0.000000000000D+00 0.156652435026D-06 0.135857576491D-09  6 4 2 25 24 1 4 4 0.12730910D-01 0.38468407D+00 0.20577943D+06 0.20577943D+06 0.20577943D+06 0.11358347D+01  1  2 11  9  6  1       21 0.648769607163D-06 0.100000000000D+01
  </mgrwgt>
  </event>
</LesHouchesEvents>
