<event>
 5    0  0.1257040E+001  0.2259641E+03  0.7546771E-02  0.1129513E+00
         21   -1    0    0  502  501  0.00000000000E+00  0.00000000000E+00  0.33502696377E+03  0.33502696377E+03  0.00000000000E+00 0. -1.
         21   -1    0    0  504  502 -0.00000000000E+00 -0.00000000000E+00 -0.42872421770E+03  0.42872421770E+03  0.00000000000E+00 0.  1.
         25    1    1    2    0    0  0.22565354835E+03 -0.56734555316E+02 -0.24695603920E+03  0.36159455050E+03  0.12500000000E+03 0.  0.
         21    1    1    2  503  501 -0.16924828515E+03  0.71933473192E+02  0.23704491121E+03  0.30001616044E+03  0.00000000000E+00 0. -1.
         21    1    1    2  504  503 -0.56405263205E+02 -0.15198917876E+02 -0.83786125934E+02  0.10214047053E+03  0.00000000000E+00 0.  1.
<mgrwt>
<rscale>  4 0.22596414E+03</rscale>
<asrwt>0</asrwt>
<pdfrwt beam="1">  1       21 0.51542610E-01 0.22596414E+03</pdfrwt>
<pdfrwt beam="2">  1       21 0.65957572E-01 0.22596414E+03</pdfrwt>
<totfact> 0.73765127E+03</totfact>
</mgrwt>
</event>
<event>
 5    0  0.1257040E+001  0.3889516E+03  0.7546771E-02  0.1047674E+00
         21   -1    0    0  502  501  0.00000000000E+00  0.00000000000E+00  0.28237175940E+03  0.28237175940E+03  0.00000000000E+00 0.  1.
         21   -1    0    0  504  502 -0.00000000000E+00 -0.00000000000E+00 -0.53884017202E+03  0.53884017202E+03  0.00000000000E+00 0.  1.
         25    1    1    2    0    0  0.28578158086E+03  0.23235148204E+03 -0.21568144945E+03  0.44474915492E+03  0.12500000000E+03 0.  0.
         21    1    1    2  503  501 -0.26997111236E+03 -0.20323363644E+03 -0.22615380662E+02  0.33867354182E+03  0.00000000000E+00 0.  1.
         21    1    1    2  504  503 -0.15810468496E+02 -0.29117845608E+02 -0.18171582512E+02  0.37789234682E+02  0.00000000000E+00 0.  1.
<mgrwt>
<rscale>  4 0.38895157E+03</rscale>
<asrwt>0</asrwt>
<pdfrwt beam="1">  1       21 0.43441810E-01 0.38895157E+03</pdfrwt>
<pdfrwt beam="2">  1       21 0.82898487E-01 0.38895157E+03</pdfrwt>
<totfact> 0.58206204E+03</totfact>
</mgrwt>
</event>
<event>
 5    0  0.1257040E+001  0.2542126E+03  0.7546771E-02  0.1110671E+00
         21   -1    0    0  502  501  0.00000000000E+00  0.00000000000E+00  0.10115756819E+03  0.10115756819E+03  0.00000000000E+00 0. -1.
         21   -1    0    0  504  502 -0.00000000000E+00 -0.00000000000E+00 -0.13220857079E+04  0.13220857079E+04  0.00000000000E+00 0. -1.
         25    1    1    2    0    0 -0.10749192020E+03 -0.17644962715E+03 -0.10496823450E+04  0.10771012066E+04  0.12500000000E+03 0.  0.
         21    1    1    2  503  501  0.14984810322E+03  0.16635998979E+03 -0.67850099744E+02  0.23395242310E+03  0.00000000000E+00 0. -1.
         21    1    1    2  504  503 -0.42356183018E+02  0.10089637361E+02 -0.10339569497E+03  0.11218964640E+03  0.00000000000E+00 0.  1.
<mgrwt>
<rscale>  4 0.25421264E+03</rscale>
<asrwt>0</asrwt>
<pdfrwt beam="1">  1       21 0.15562703E-01 0.25421264E+03</pdfrwt>
<pdfrwt beam="2">  1       21 0.20339780E+00 0.25421264E+03</pdfrwt>
<totfact> 0.44491854E+03</totfact>
</mgrwt>
</event>
<event>
 5    0  0.1257040E+001  0.2100014E+03  0.7546771E-02  0.1141565E+00
         21   -1    0    0  504  501  0.00000000000E+00  0.00000000000E+00  0.63573267542E+03  0.63573267542E+03  0.00000000000E+00 0.  1.
         21   -1    0    0  503  502 -0.00000000000E+00 -0.00000000000E+00 -0.10273757383E+03  0.10273757383E+03  0.00000000000E+00 0.  1.
         25    1    1    2    0    0  0.61997182213E+02 -0.20961395615E+03  0.26042254667E+03  0.36225207250E+03  0.12500000000E+03 0.  0.
         21    1    1    2  503  501 -0.50351433097E+02  0.60086953808E+02  0.17506934693E+02  0.80325597384E+02  0.00000000000E+00 0.  1.
         21    1    1    2  504  502 -0.11645749116E+02  0.14952700234E+03  0.25506562023E+03  0.29589257937E+03  0.00000000000E+00 0.  1.
<mgrwt>
<rscale>  4 0.21000137E+03</rscale>
<asrwt>0</asrwt>
<pdfrwt beam="1">  1       21 0.97805025E-01 0.21000137E+03</pdfrwt>
<pdfrwt beam="2">  1       21 0.15805781E-01 0.21000137E+03</pdfrwt>
<totfact> 0.30547920E+04</totfact>
</mgrwt>
</event>
<event>
 5    0  0.1257040E+001  0.3411300E+03  0.7546771E-02  0.1066316E+00
         21   -1    0    0  502  501  0.00000000000E+00  0.00000000000E+00  0.12852545634E+04  0.12852545634E+04  0.00000000000E+00 0.  1.
         21   -1    0    0  504  502 -0.00000000000E+00 -0.00000000000E+00 -0.42612579175E+03  0.42612579175E+03  0.00000000000E+00 0.  1.
         25    1    1    2    0    0 -0.11427685988E+03  0.30742340534E+03  0.10264771872E+04  0.10848266067E+04  0.12500000000E+03 0.  0.
         21    1    1    2  503  501  0.12256111032E+03 -0.25812678105E+03  0.13787089670E+03  0.31726809644E+03  0.00000000000E+00 0.  1.
         21    1    1    2  504  503 -0.82842504440E+01 -0.49296624287E+02 -0.30521931223E+03  0.30928565199E+03  0.00000000000E+00 0.  1.
<mgrwt>
<rscale>  4 0.34113003E+03</rscale>
<asrwt>0</asrwt>
<pdfrwt beam="1">  1       21 0.19773147E+00 0.34113003E+03</pdfrwt>
<pdfrwt beam="2">  1       21 0.65557815E-01 0.34113003E+03</pdfrwt>
<totfact> 0.25771370E+02</totfact>
</mgrwt>
</event>
<event>
 5    0  0.1257040E+001  0.2394037E+03  0.7546771E-02  0.1120191E+00
         21   -1    0    0  503  501  0.00000000000E+00  0.00000000000E+00  0.87644227963E+02  0.87644227963E+02  0.00000000000E+00 0. -1.
         21   -1    0    0  504  502 -0.00000000000E+00 -0.00000000000E+00 -0.25796505323E+04  0.25796505323E+04  0.00000000000E+00 0.  1.
         25    1    1    2    0    0 -0.24004740078E+03  0.62362604737E+02 -0.24450799990E+03  0.37002839230E+03  0.12500000000E+03 0.  0.
         21    1    1    2  503  502  0.19917686530E+03 -0.27959459875E+02 -0.22328247567E+04  0.22418651942E+04  0.00000000000E+00 0.  1.
         21    1    1    2  504  501  0.40870535484E+02 -0.34403144862E+02 -0.14673547753E+02  0.55401173731E+02  0.00000000000E+00 0. -1.
<mgrwt>
<rscale>  4 0.23940367E+03</rscale>
<asrwt>0</asrwt>
<pdfrwt beam="1">  1       21 0.13483726E-01 0.23940367E+03</pdfrwt>
<pdfrwt beam="2">  1       21 0.39686935E+00 0.23940367E+03</pdfrwt>
<totfact> 0.40458474E+02</totfact>
</mgrwt>
</event>
<event>
 5    0  0.1257040E+001  0.6039562E+03  0.7546771E-02  0.9897232E-01
         21   -1    0    0  502  501  0.00000000000E+00  0.00000000000E+00  0.78618566023E+03  0.78618566023E+03  0.00000000000E+00 0. -1.
         21   -1    0    0  504  502 -0.00000000000E+00 -0.00000000000E+00 -0.18207948204E+04  0.18207948204E+04  0.00000000000E+00 0. -1.
         25    1    1    2    0    0  0.27906790325E+03 -0.49590522999E+03 -0.14904813998E+04  0.16003001890E+04  0.12500000000E+03 0.  0.
         21    1    1    2  503  501 -0.36628511088E+03  0.46648233143E+03  0.59483359205E+03  0.83999854179E+03  0.00000000000E+00 0. -1.
         21    1    1    2  504  503  0.87217207623E+02  0.29422898563E+02 -0.13896135239E+03  0.16668174982E+03  0.00000000000E+00 0. -1.
<mgrwt>
<rscale>  4 0.60395621E+03</rscale>
<asrwt>0</asrwt>
<pdfrwt beam="1">  1       21 0.12095164E+00 0.60395621E+03</pdfrwt>
<pdfrwt beam="2">  1       21 0.28012228E+00 0.60395621E+03</pdfrwt>
<totfact> 0.15636345E+01</totfact>
</mgrwt>
</event>
<event>
 5    0  0.1257040E+001  0.2876589E+03  0.7546771E-02  0.1091578E+00
         21   -1    0    0  502  501  0.00000000000E+00  0.00000000000E+00  0.87836084592E+02  0.87836084592E+02  0.00000000000E+00 0. -1.
         21   -1    0    0  504  502 -0.00000000000E+00 -0.00000000000E+00 -0.11935292703E+04  0.11935292703E+04  0.00000000000E+00 0. -1.
         25    1    1    2    0    0 -0.10734111509E+03 -0.23296278669E+03 -0.64692549740E+03  0.70705825372E+03  0.12500000000E+03 0.  0.
         21    1    1    2  503  501  0.15391640278E+03  0.21184573917E+03 -0.25978927867E+03  0.36886223114E+03  0.00000000000E+00 0. -1.
         21    1    1    2  504  503 -0.46575287692E+02  0.21117047526E+02 -0.19897840963E+03  0.20544487002E+03  0.00000000000E+00 0.  1.
<mgrwt>
<rscale>  4 0.28765893E+03</rscale>
<asrwt>0</asrwt>
<pdfrwt beam="1">  1       21 0.13513245E-01 0.28765893E+03</pdfrwt>
<pdfrwt beam="2">  1       21 0.18361987E+00 0.28765893E+03</pdfrwt>
<totfact> 0.76269555E+03</totfact>
</mgrwt>
</event>
<event>
 5    0  0.1257040E+001  0.2528886E+03  0.7546771E-02  0.1111493E+00
         21   -1    0    0  502  501  0.00000000000E+00  0.00000000000E+00  0.92389634536E+03  0.92389634536E+03  0.00000000000E+00 0. -1.
         21   -1    0    0  504  502 -0.00000000000E+00 -0.00000000000E+00 -0.26353724024E+03  0.26353724024E+03  0.00000000000E+00 0.  1.
         25    1    1    2    0    0  0.22452873622E+03 -0.86384433510E+02 -0.14695085720E+03  0.30837473660E+03  0.12500000000E+03 0.  0.
         21    1    1    2  503  501 -0.20997745096E+03  0.60723948651E+02  0.81874538279E+03  0.84742075128E+03  0.00000000000E+00 0. -1.
         21    1    1    2  504  503 -0.14551285257E+02  0.25660484858E+02 -0.11435420475E+02  0.31638097718E+02  0.00000000000E+00 0.  1.
<mgrwt>
<rscale>  4 0.25288865E+03</rscale>
<asrwt>0</asrwt>
<pdfrwt beam="1">  1       21 0.14213790E+00 0.25288865E+03</pdfrwt>
<pdfrwt beam="2">  1       21 0.40544191E-01 0.25288865E+03</pdfrwt>
<totfact> 0.19163067E+03</totfact>
</mgrwt>
</event>
<event>
 5    0  0.1257040E+001  0.2581005E+03  0.7546771E-02  0.1108290E+00
         21   -1    0    0  503  501  0.00000000000E+00  0.00000000000E+00  0.13646071033E+04  0.13646071033E+04  0.00000000000E+00 0.  1.
         21   -1    0    0  504  502 -0.00000000000E+00 -0.00000000000E+00 -0.88231150546E+02  0.88231150546E+02  0.00000000000E+00 0.  1.
         25    1    1    2    0    0  0.99334398189E+02  0.24219521968E+03  0.34961591360E+03  0.45429300473E+03  0.12500000000E+03 0.  0.
         21    1    1    2  503  502 -0.23010072704E+01 -0.47765522871E+02  0.12175448451E+01  0.47836411080E+02  0.00000000000E+00 0. -1.
         21    1    1    2  504  501 -0.97033390918E+02 -0.19442969681E+03  0.92554249434E+03  0.95070883807E+03  0.00000000000E+00 0.  1.
<mgrwt>
<rscale>  4 0.25810053E+03</rscale>
<asrwt>0</asrwt>
<pdfrwt beam="1">  1       21 0.20993954E+00 0.25810053E+03</pdfrwt>
<pdfrwt beam="2">  1       21 0.13574024E-01 0.25810053E+03</pdfrwt>
<totfact> 0.51733218E+03</totfact>
</mgrwt>
</event>
<event>
 5    0  0.1257040E+001  0.1764659E+03  0.7546771E-02  0.1171268E+00
         21   -1    0    0  502  501  0.00000000000E+00  0.00000000000E+00  0.37204666230E+03  0.37204666230E+03  0.00000000000E+00 0. -1.
         21   -1    0    0  504  502 -0.00000000000E+00 -0.00000000000E+00 -0.72992209866E+03  0.72992209866E+03  0.00000000000E+00 0.  1.
         25    1    1    2    0    0 -0.36583086872E+02  0.22659732545E+03 -0.96189546290E+02  0.27849972884E+03  0.12500000000E+03 0.  0.
         21    1    1    2  503  501  0.88916784286E+00 -0.11765572673E+03  0.26209285251E+03  0.28729135731E+03  0.00000000000E+00 0. -1.
         21    1    1    2  504  503  0.35693919029E+02 -0.10894159872E+03 -0.52377874258E+03  0.53617767481E+03  0.00000000000E+00 0.  1.
<mgrwt>
<rscale>  4 0.17646592E+03</rscale>
<asrwt>0</asrwt>
<pdfrwt beam="1">  1       21 0.57237949E-01 0.17646592E+03</pdfrwt>
<pdfrwt beam="2">  1       21 0.11229571E+00 0.17646592E+03</pdfrwt>
<totfact> 0.18084285E+03</totfact>
</mgrwt>
</event>
<event>
 5    0  0.1257040E+001  0.2345881E+03  0.7546771E-02  0.1123451E+00
         21   -1    0    0  503  501  0.00000000000E+00  0.00000000000E+00  0.91526529148E+03  0.91526529148E+03  0.00000000000E+00 0. -1.
         21   -1    0    0  501  502 -0.00000000000E+00 -0.00000000000E+00 -0.86025546355E+02  0.86025546355E+02  0.00000000000E+00 0. -1.
         25    1    1    2    0    0  0.86022150185E+02 -0.22445793737E+03  0.55560005831E+03  0.61814043774E+03  0.12500000000E+03 0.  0.
         21    1    1    2  503  504 -0.43365359315E+02  0.64109123430E+02  0.19799091130E+02  0.79890788612E+02  0.00000000000E+00 0. -1.
         21    1    1    2  504  502 -0.42656790870E+02  0.16034881394E+03  0.25384059569E+03  0.30325961149E+03  0.00000000000E+00 0. -1.
<mgrwt>
<rscale>  4 0.23458814E+03</rscale>
<asrwt>0</asrwt>
<pdfrwt beam="1">  1       21 0.14081004E+00 0.23458814E+03</pdfrwt>
<pdfrwt beam="2">  1       21 0.13234700E-01 0.23458814E+03</pdfrwt>
<totfact> 0.16891002E+04</totfact>
</mgrwt>
</event>
<event>
 5    0  0.1257040E+001  0.2288270E+03  0.7546771E-02  0.1127468E+00
         21   -1    0    0  503  501  0.00000000000E+00  0.00000000000E+00  0.56228400845E+03  0.56228400845E+03  0.00000000000E+00 0.  1.
         21   -1    0    0  504  502 -0.00000000000E+00 -0.00000000000E+00 -0.14139803813E+03  0.14139803813E+03  0.00000000000E+00 0.  1.
         25    1    1    2    0    0  0.27273984785E+02 -0.20676661609E+03  0.38681533151E+03  0.45688883163E+03  0.12500000000E+03 0.  0.
         21    1    1    2  503  502 -0.39719547951E+02  0.18411004524E+03 -0.17448838559E+02  0.18915235450E+03  0.00000000000E+00 0.  1.
         21    1    1    2  504  501  0.12445563167E+02  0.22656570848E+02  0.51519477370E+02  0.57640860452E+02  0.00000000000E+00 0.  1.
<mgrwt>
<rscale>  4 0.22882700E+03</rscale>
<asrwt>0</asrwt>
<pdfrwt beam="1">  1       21 0.86505231E-01 0.22882700E+03</pdfrwt>
<pdfrwt beam="2">  1       21 0.21753545E-01 0.22882700E+03</pdfrwt>
<totfact> 0.22230655E+04</totfact>
</mgrwt>
</event>
<event>
 5    0  0.1257040E+001  0.2797442E+03  0.7546771E-02  0.1095829E+00
         21   -1    0    0  504  501  0.00000000000E+00  0.00000000000E+00  0.36642608320E+03  0.36642608320E+03  0.00000000000E+00 0. -1.
         21   -1    0    0  503  502 -0.00000000000E+00 -0.00000000000E+00 -0.26148801820E+03  0.26148801820E+03  0.00000000000E+00 0. -1.
         25    1    1    2    0    0 -0.18337086928E+03 -0.18190684485E+03  0.73487603545E+02  0.29621006698E+03  0.12500000000E+03 0.  0.
         21    1    1    2  503  501  0.15854062134E+03  0.18833622588E+03 -0.45712092056E+02  0.25039021138E+03  0.00000000000E+00 0. -1.
         21    1    1    2  504  502  0.24830247940E+02 -0.64293810303E+01  0.77162553505E+02  0.81313823035E+02  0.00000000000E+00 0.  1.
<mgrwt>
<rscale>  4 0.27974420E+03</rscale>
<asrwt>0</asrwt>
<pdfrwt beam="1">  1       21 0.56373244E-01 0.27974420E+03</pdfrwt>
<pdfrwt beam="2">  1       21 0.40228926E-01 0.27974420E+03</pdfrwt>
<totfact> 0.16830363E+04</totfact>
</mgrwt>
</event>
<event>
 5    0  0.1257040E+001  0.2389465E+03  0.7546771E-02  0.1120497E+00
         21   -1    0    0  503  501  0.00000000000E+00  0.00000000000E+00  0.95401333072E+02  0.95401333072E+02  0.00000000000E+00 0. -1.
         21   -1    0    0  504  502 -0.00000000000E+00 -0.00000000000E+00 -0.68301939999E+03  0.68301939999E+03  0.00000000000E+00 0. -1.
         25    1    1    2    0    0  0.10759737251E+03 -0.18347304875E+03 -0.31595559250E+03  0.40086467869E+03  0.12500000000E+03 0.  0.
         21    1    1    2  503  502 -0.23274959566E+02  0.30744297386E+01 -0.13262532940E+03  0.13468724461E+03  0.00000000000E+00 0.  1.
         21    1    1    2  504  501 -0.84322412939E+02  0.18039861901E+03 -0.13903714502E+03  0.24286880977E+03  0.00000000000E+00 0. -1.
<mgrwt>
<rscale>  4 0.23894653E+03</rscale>
<asrwt>0</asrwt>
<pdfrwt beam="1">  1       21 0.14677128E-01 0.23894653E+03</pdfrwt>
<pdfrwt beam="2">  1       21 0.10507991E+00 0.23894653E+03</pdfrwt>
<totfact> 0.29026815E+04</totfact>
</mgrwt>
</event>
<event>
 5    0  0.1257040E+001  0.3699477E+03  0.7546771E-02  0.1054713E+00
         21   -1    0    0  502  501  0.00000000000E+00  0.00000000000E+00  0.81666338697E+03  0.81666338697E+03  0.00000000000E+00 0.  1.
         21   -1    0    0  504  502 -0.00000000000E+00 -0.00000000000E+00 -0.49975905126E+03  0.49975905126E+03  0.00000000000E+00 0.  1.
         25    1    1    2    0    0  0.34038690383E+03  0.40958343625E+02  0.59230605607E+03  0.69569554711E+03  0.12500000000E+03 0.  0.
         21    1    1    2  503  501  0.86258924759E+01 -0.42657709099E+02  0.99445537827E+02  0.10855183628E+03  0.00000000000E+00 0. -1.
         21    1    1    2  504  503 -0.34901279631E+03  0.16993654734E+01 -0.37484725819E+03  0.51217505484E+03  0.00000000000E+00 0.  1.
<mgrwt>
<rscale>  4 0.36994772E+03</rscale>
<asrwt>0</asrwt>
<pdfrwt beam="1">  1       21 0.12564052E+00 0.36994772E+03</pdfrwt>
<pdfrwt beam="2">  1       21 0.76886008E-01 0.36994772E+03</pdfrwt>
<totfact> 0.61824788E+02</totfact>
</mgrwt>
</event>
<event>
 5    0  0.1257040E+001  0.2271200E+03  0.7546771E-02  0.1128683E+00
         21   -1    0    0  502  501  0.00000000000E+00  0.00000000000E+00  0.26674043071E+03  0.26674043071E+03  0.00000000000E+00 0.  1.
         21   -1    0    0  504  502 -0.00000000000E+00 -0.00000000000E+00 -0.24139501873E+03  0.24139501873E+03  0.00000000000E+00 0.  1.
         25    1    1    2    0    0 -0.14512388031E+03  0.15647077748E+03  0.74060137036E+01  0.24743462547E+03  0.12500000000E+03 0.  0.
         21    1    1    2  503  501  0.13219601709E+03 -0.11931923749E+03  0.73476572177E+02  0.19264390473E+03  0.00000000000E+00 0.  1.
         21    1    1    2  504  503  0.12927863224E+02 -0.37151539990E+02 -0.55537173905E+02  0.68056919241E+02  0.00000000000E+00 0.  1.
<mgrwt>
<rscale>  4 0.22711995E+03</rscale>
<asrwt>0</asrwt>
<pdfrwt beam="1">  1       21 0.41036989E-01 0.22711995E+03</pdfrwt>
<pdfrwt beam="2">  1       21 0.37137695E-01 0.22711995E+03</pdfrwt>
<totfact> 0.39319255E+04</totfact>
</mgrwt>
</event>
<event>
 5    0  0.1257040E+001  0.5140921E+03  0.7546771E-02  0.1010165E+00
         21   -1    0    0  503  501  0.00000000000E+00  0.00000000000E+00  0.78756269589E+03  0.78756269589E+03  0.00000000000E+00 0.  1.
         21   -1    0    0  504  502 -0.00000000000E+00 -0.00000000000E+00 -0.79278952344E+03  0.79278952344E+03  0.00000000000E+00 0.  1.
         25    1    1    2    0    0 -0.19315126110E+03  0.41100230925E+03 -0.48936451489E+03  0.67921494117E+03  0.12500000000E+03 0.  0.
         21    1    1    2  503  502 -0.58796076241E+02  0.27831968540E+02 -0.10562206690E+03  0.12404683821E+03  0.00000000000E+00 0. -1.
         21    1    1    2  504  501  0.25194733734E+03 -0.43883427779E+03  0.58975975423E+03  0.77709043996E+03  0.00000000000E+00 0.  1.
<mgrwt>
<rscale>  4 0.51409210E+03</rscale>
<asrwt>0</asrwt>
<pdfrwt beam="1">  1       21 0.12116349E+00 0.51409210E+03</pdfrwt>
<pdfrwt beam="2">  1       21 0.12196762E+00 0.51409210E+03</pdfrwt>
<totfact> 0.20785579E+02</totfact>
</mgrwt>
</event>
<event>
 5    0  0.1257040E+001  0.1940994E+03  0.7546771E-02  0.1154815E+00
         21   -1    0    0  503  501  0.00000000000E+00  0.00000000000E+00  0.15715663883E+03  0.15715663883E+03  0.00000000000E+00 0. -1.
         21   -1    0    0  504  502 -0.00000000000E+00 -0.00000000000E+00 -0.45252475441E+03  0.45252475441E+03  0.00000000000E+00 0. -1.
         25    1    1    2    0    0  0.58654244875E+02  0.19769588465E+03 -0.12610171872E+02  0.24147049444E+03  0.12500000000E+03 0.  0.
         21    1    1    2  503  502 -0.19696784357E+02 -0.97170981063E+02 -0.22506301100E+03  0.24593397853E+03  0.00000000000E+00 0. -1.
         21    1    1    2  504  501 -0.38957460518E+02 -0.10052490359E+03 -0.57694932713E+02  0.12227692027E+03  0.00000000000E+00 0. -1.
<mgrwt>
<rscale>  4 0.19409942E+03</rscale>
<asrwt>0</asrwt>
<pdfrwt beam="1">  1       21 0.24177945E-01 0.19409942E+03</pdfrwt>
<pdfrwt beam="2">  1       21 0.69619192E-01 0.19409942E+03</pdfrwt>
<totfact> 0.30251352E+04</totfact>
</mgrwt>
</event>
<event>
 5    0  0.1257040E+001  0.2983170E+03  0.7546771E-02  0.1086085E+00
         21   -1    0    0  502  501  0.00000000000E+00  0.00000000000E+00  0.22537208920E+03  0.22537208920E+03  0.00000000000E+00 0. -1.
         21   -1    0    0  504  502 -0.00000000000E+00 -0.00000000000E+00 -0.38056258800E+03  0.38056258800E+03  0.00000000000E+00 0. -1.
         25    1    1    2    0    0 -0.14885636098E+02 -0.27045600080E+03 -0.41816271600E+02  0.30123351590E+03  0.12500000000E+03 0.  0.
         21    1    1    2  503  501  0.34212205074E+01  0.24345664522E+03 -0.71848323962E+02  0.25386024602E+03  0.00000000000E+00 0. -1.
         21    1    1    2  504  503  0.11464415591E+02  0.26999355583E+02 -0.41525903232E+02  0.50840915275E+02  0.00000000000E+00 0.  1.
<mgrwt>
<rscale>  4 0.29831700E+03</rscale>
<asrwt>0</asrwt>
<pdfrwt beam="1">  1       21 0.34672630E-01 0.29831700E+03</pdfrwt>
<pdfrwt beam="2">  1       21 0.58548089E-01 0.29831700E+03</pdfrwt>
<totfact> 0.20786670E+04</totfact>
</mgrwt>
</event>
<event>
 5    0  0.1257040E+001  0.2502989E+03  0.7546771E-02  0.1113116E+00
         21   -1    0    0  503  501  0.00000000000E+00  0.00000000000E+00  0.71525625301E+03  0.71525625301E+03  0.00000000000E+00 0. -1.
         21   -1    0    0  504  502 -0.00000000000E+00 -0.00000000000E+00 -0.52599278150E+03  0.52599278150E+03  0.00000000000E+00 0. -1.
         25    1    1    2    0    0 -0.13891933724E+03 -0.17216069059E+03 -0.45270568255E+03  0.51913901862E+03  0.12500000000E+03 0.  0.
         21    1    1    2  503  502 -0.12365228306E+02  0.16969143522E+02 -0.17881082564E+02  0.27578684098E+02  0.00000000000E+00 0.  1.
         21    1    1    2  504  501  0.15128456554E+03  0.15519154707E+03  0.65985023663E+03  0.69453133179E+03  0.00000000000E+00 0. -1.
<mgrwt>
<rscale>  4 0.25029887E+03</rscale>
<asrwt>0</asrwt>
<pdfrwt beam="1">  1       21 0.11003942E+00 0.25029887E+03</pdfrwt>
<pdfrwt beam="2">  1       21 0.80921967E-01 0.25029887E+03</pdfrwt>
<totfact> 0.82913551E+02</totfact>
</mgrwt>
</event>
<event>
 5    0  0.1257040E+001  0.2630929E+03  0.7546771E-02  0.1105299E+00
         21   -1    0    0  503  501  0.00000000000E+00  0.00000000000E+00  0.92577189876E+03  0.92577189876E+03  0.00000000000E+00 0.  1.
         21   -1    0    0  504  502 -0.00000000000E+00 -0.00000000000E+00 -0.14303917723E+03  0.14303917723E+03  0.00000000000E+00 0.  1.
         25    1    1    2    0    0 -0.10777131599E+02  0.24852248458E+03  0.52587168982E+03  0.59501731576E+03  0.12500000000E+03 0.  0.
         21    1    1    2  503  502  0.63296433717E+01 -0.22772032135E+03  0.12120479483E+02  0.22813047838E+03  0.00000000000E+00 0.  1.
         21    1    1    2  504  501  0.44474882275E+01 -0.20802163232E+02  0.24474055223E+03  0.24566328186E+03  0.00000000000E+00 0. -1.
<mgrwt>
<rscale>  4 0.26309295E+03</rscale>
<asrwt>0</asrwt>
<pdfrwt beam="1">  1       21 0.14242644E+00 0.26309295E+03</pdfrwt>
<pdfrwt beam="2">  1       21 0.22006028E-01 0.26309295E+03</pdfrwt>
<totfact> 0.62837818E+03</totfact>
</mgrwt>
</event>
<event>
 5    0  0.1257040E+001  0.2619025E+03  0.7546771E-02  0.1106006E+00
         21   -1    0    0  503  501  0.00000000000E+00  0.00000000000E+00  0.71521582122E+03  0.71521582122E+03  0.00000000000E+00 0.  1.
         21   -1    0    0  504  502 -0.00000000000E+00 -0.00000000000E+00 -0.42513946424E+03  0.42513946424E+03  0.00000000000E+00 0. -1.
         25    1    1    2    0    0  0.17900944534E+03  0.14194312444E+03 -0.34912880691E+03  0.43555499758E+03  0.12500000000E+03 0.  0.
         21    1    1    2  503  502  0.20960154976E+02  0.17107757540E+02  0.16443580888E+02  0.31660619341E+02  0.00000000000E+00 0. -1.
         21    1    1    2  504  501 -0.19996960032E+03 -0.15905088198E+03  0.62276158300E+03  0.67313966855E+03  0.00000000000E+00 0.  1.
<mgrwt>
<rscale>  4 0.26190250E+03</rscale>
<asrwt>0</asrwt>
<pdfrwt beam="1">  1       21 0.11003320E+00 0.26190250E+03</pdfrwt>
<pdfrwt beam="2">  1       21 0.65406072E-01 0.26190250E+03</pdfrwt>
<totfact> 0.13233697E+03</totfact>
</mgrwt>
</event>
<event>
 5    0  0.1257040E+001  0.5200574E+03  0.7546771E-02  0.1008672E+00
         21   -1    0    0  504  501  0.00000000000E+00  0.00000000000E+00  0.28625406011E+03  0.28625406011E+03  0.00000000000E+00 0. -1.
         21   -1    0    0  503  502 -0.00000000000E+00 -0.00000000000E+00 -0.10965385936E+04  0.10965385936E+04  0.00000000000E+00 0. -1.
         25    1    1    2    0    0  0.20074199686E+02  0.51302936057E+03 -0.23420010549E+03  0.57799376096E+03  0.12500000000E+03 0.  0.
         21    1    1    2  503  501  0.89428507634E+00 -0.20013004177E+02 -0.15443233011E+03  0.15572624913E+03  0.00000000000E+00 0.  1.
         21    1    1    2  504  502 -0.20968484762E+02 -0.49301635639E+03 -0.42165209784E+03  0.64907264357E+03  0.00000000000E+00 0. -1.
<mgrwt>
<rscale>  4 0.52005742E+03</rscale>
<asrwt>0</asrwt>
<pdfrwt beam="1">  1       21 0.44039087E-01 0.52005742E+03</pdfrwt>
<pdfrwt beam="2">  1       21 0.16869824E+00 0.52005742E+03</pdfrwt>
<totfact> 0.88063552E+02</totfact>
</mgrwt>
</event>
<event>
 5    0  0.1257040E+001  0.2657802E+03  0.7546771E-02  0.1103719E+00
         21   -1    0    0  504  501  0.00000000000E+00  0.00000000000E+00  0.61675902484E+02  0.61675902484E+02  0.00000000000E+00 0. -1.
         21   -1    0    0  501  502 -0.00000000000E+00 -0.00000000000E+00 -0.11229380441E+04  0.11229380441E+04  0.00000000000E+00 0. -1.
         25    1    1    2    0    0  0.15519011034E+03  0.17504953679E+03 -0.51825881700E+03  0.58218855372E+03  0.12500000000E+03 0.  0.
         21    1    1    2  503  502 -0.17695005717E+02  0.16267889932E+02 -0.35131826412E+02  0.42567624989E+02  0.00000000000E+00 0.  1.
         21    1    1    2  504  503 -0.13749510463E+03 -0.19131742672E+03 -0.50787149816E+03  0.55985776784E+03  0.00000000000E+00 0. -1.
<mgrwt>
<rscale>  4 0.26578020E+03</rscale>
<asrwt>0</asrwt>
<pdfrwt beam="1">  1       21 0.94886019E-02 0.26578020E+03</pdfrwt>
<pdfrwt beam="2">  1       21 0.17275967E+00 0.26578020E+03</pdfrwt>
<totfact> 0.17343746E+04</totfact>
</mgrwt>
</event>
<event>
 5    0  0.1257040E+001  0.2915675E+03  0.7546771E-02  0.1089534E+00
         21   -1    0    0  502  501  0.00000000000E+00  0.00000000000E+00  0.12890739712E+03  0.12890739712E+03  0.00000000000E+00 0.  1.
         21   -1    0    0  504  502 -0.00000000000E+00 -0.00000000000E+00 -0.92163156623E+03  0.92163156623E+03  0.00000000000E+00 0. -1.
         25    1    1    2    0    0  0.24619609966E+03  0.88177005303E+02 -0.22888925284E+03  0.36932775934E+03  0.12500000000E+03 0.  0.
         21    1    1    2  503  501 -0.14854191110E+02  0.41638678082E+02  0.13185604155E+02  0.46133357377E+02  0.00000000000E+00 0. -1.
         21    1    1    2  504  503 -0.23134190855E+03 -0.12981568338E+03 -0.57702052042E+03  0.63507784664E+03  0.00000000000E+00 0. -1.
<mgrwt>
<rscale>  4 0.29156749E+03</rscale>
<asrwt>0</asrwt>
<pdfrwt beam="1">  1       21 0.19831908E-01 0.29156749E+03</pdfrwt>
<pdfrwt beam="2">  1       21 0.14178947E+00 0.29156749E+03</pdfrwt>
<totfact> 0.76177864E+03</totfact>
</mgrwt>
</event>
<event>
 5    0  0.1257040E+001  0.2735109E+03  0.7546771E-02  0.1099287E+00
         21   -1    0    0  504  501  0.00000000000E+00  0.00000000000E+00  0.12431492966E+04  0.12431492966E+04  0.00000000000E+00 0. -1.
         21   -1    0    0  503  502 -0.00000000000E+00 -0.00000000000E+00 -0.94958810937E+02  0.94958810937E+02  0.00000000000E+00 0. -1.
         25    1    1    2    0    0 -0.28607621631E+03  0.82355990049E+01  0.31816173494E+03  0.44582431092E+03  0.12500000000E+03 0.  0.
         21    1    1    2  503  501  0.53975120146E+02 -0.61345616337E+01  0.36353925169E+02  0.65364778867E+02  0.00000000000E+00 0. -1.
         21    1    1    2  504  502  0.23210109616E+03 -0.21010373713E+01  0.79367482556E+03  0.82691901775E+03  0.00000000000E+00 0. -1.
<mgrwt>
<rscale>  4 0.27351087E+03</rscale>
<asrwt>0</asrwt>
<pdfrwt beam="1">  1       21 0.19125373E+00 0.27351087E+03</pdfrwt>
<pdfrwt beam="2">  1       21 0.14609049E-01 0.27351087E+03</pdfrwt>
<totfact> 0.59242787E+03</totfact>
</mgrwt>
</event>
<event>
 5    0  0.1257040E+001  0.2492579E+03  0.7546771E-02  0.1113775E+00
         21   -1    0    0  503  501  0.00000000000E+00  0.00000000000E+00  0.19663895243E+03  0.19663895243E+03  0.00000000000E+00 0. -1.
         21   -1    0    0  504  502 -0.00000000000E+00 -0.00000000000E+00 -0.66538013703E+03  0.66538013703E+03  0.00000000000E+00 0. -1.
         25    1    1    2    0    0  0.26089906675E+03  0.28016240692E+02 -0.67304381739E+00  0.29065217316E+03  0.12500000000E+03 0.  0.
         21    1    1    2  503  502 -0.20663400987E+03 -0.28409224088E+02 -0.47293061127E+03  0.51688302461E+03  0.00000000000E+00 0. -1.
         21    1    1    2  504  501 -0.54265056882E+02  0.39298339602E+00  0.48624704867E+01  0.54483891689E+02  0.00000000000E+00 0. -1.
<mgrwt>
<rscale>  4 0.24925792E+03</rscale>
<asrwt>0</asrwt>
<pdfrwt beam="1">  1       21 0.30252147E-01 0.24925792E+03</pdfrwt>
<pdfrwt beam="2">  1       21 0.10236617E+00 0.24925792E+03</pdfrwt>
<totfact> 0.78385358E+03</totfact>
</mgrwt>
</event>
<event>
 5    0  0.1257040E+001  0.2781286E+03  0.7546771E-02  0.1096715E+00
         21   -1    0    0  503  501  0.00000000000E+00  0.00000000000E+00  0.24829335714E+03  0.24829335714E+03  0.00000000000E+00 0. -1.
         21   -1    0    0  504  502 -0.00000000000E+00 -0.00000000000E+00 -0.31818228909E+03  0.31818228909E+03  0.00000000000E+00 0. -1.
         25    1    1    2    0    0  0.20439187607E+03  0.12710550852E+03  0.17565151184E+02  0.27178186811E+03  0.12500000000E+03 0.  0.
         21    1    1    2  503  502  0.10536747657E+02  0.17226858831E+02 -0.16967616436E+02  0.26375892855E+02  0.00000000000E+00 0.  1.
         21    1    1    2  504  501 -0.21492862373E+03 -0.14433236735E+03 -0.70486466703E+02  0.26831788526E+03  0.00000000000E+00 0. -1.
<mgrwt>
<rscale>  4 0.27812861E+03</rscale>
<asrwt>0</asrwt>
<pdfrwt beam="1">  1       21 0.38198978E-01 0.27812861E+03</pdfrwt>
<pdfrwt beam="2">  1       21 0.48951121E-01 0.27812861E+03</pdfrwt>
<totfact> 0.25239566E+04</totfact>
</mgrwt>
</event>
<event>
 5    0  0.1257040E+001  0.2433075E+03  0.7546771E-02  0.1117609E+00
         21   -1    0    0  502  501  0.00000000000E+00  0.00000000000E+00  0.31465288117E+03  0.31465288117E+03  0.00000000000E+00 0.  1.
         21   -1    0    0  504  502 -0.00000000000E+00 -0.00000000000E+00 -0.42410552872E+03  0.42410552872E+03  0.00000000000E+00 0.  1.
         25    1    1    2    0    0  0.23270236899E+03  0.17300949424E+03 -0.96862088320E+02  0.33028766520E+03  0.12500000000E+03 0.  0.
         21    1    1    2  503  501 -0.11045507105E+03 -0.40972042299E+02  0.13251630294E+03  0.17731215840E+03  0.00000000000E+00 0.  1.
         21    1    1    2  504  503 -0.12224729794E+03 -0.13203745194E+03 -0.14510686217E+03  0.23115858629E+03  0.00000000000E+00 0.  1.
<mgrwt>
<rscale>  4 0.24330750E+03</rscale>
<asrwt>0</asrwt>
<pdfrwt beam="1">  1       21 0.48408136E-01 0.24330750E+03</pdfrwt>
<pdfrwt beam="2">  1       21 0.65247004E-01 0.24330750E+03</pdfrwt>
<totfact> 0.85240160E+03</totfact>
</mgrwt>
</event>
<event>
 5    0  0.1257040E+001  0.3439419E+03  0.7546771E-02  0.1065129E+00
         21   -1    0    0  503  501  0.00000000000E+00  0.00000000000E+00  0.12441364542E+04  0.12441364542E+04  0.00000000000E+00 0.  1.
         21   -1    0    0  504  502 -0.00000000000E+00 -0.00000000000E+00 -0.21438870026E+03  0.21438870026E+03  0.00000000000E+00 0.  1.
         25    1    1    2    0    0  0.39881781771E+03 -0.97078945173E+02  0.24560227157E+03  0.49439402213E+03  0.12500000000E+03 0.  0.
         21    1    1    2  503  502 -0.24728442918E+03  0.10369085758E+03  0.14024152282E+03  0.30260381290E+03  0.00000000000E+00 0.  1.
         21    1    1    2  504  501 -0.15153338853E+03 -0.66119124106E+01  0.64390395955E+03  0.66152731943E+03  0.00000000000E+00 0.  1.
<mgrwt>
<rscale>  4 0.34394186E+03</rscale>
<asrwt>0</asrwt>
<pdfrwt beam="1">  1       21 0.19140560E+00 0.34394186E+03</pdfrwt>
<pdfrwt beam="2">  1       21 0.32982878E-01 0.34394186E+03</pdfrwt>
<totfact> 0.11965672E+03</totfact>
</mgrwt>
</event>
<event>
 5    0  0.1257040E+001  0.2681983E+03  0.7546771E-02  0.1102315E+00
         21   -1    0    0  503  501  0.00000000000E+00  0.00000000000E+00  0.11857722488E+04  0.11857722488E+04  0.00000000000E+00 0.  1.
         21   -1    0    0  504  502 -0.00000000000E+00 -0.00000000000E+00 -0.51818763166E+03  0.51818763166E+03  0.00000000000E+00 0.  1.
         25    1    1    2    0    0  0.11147193232E+03  0.23415120840E+03 -0.17511330852E+03  0.33696060736E+03  0.12500000000E+03 0.  0.
         21    1    1    2  503  502 -0.25329355210E+01 -0.24565374163E+02 -0.24890784813E+03  0.25012994669E+03  0.00000000000E+00 0.  1.
         21    1    1    2  504  501 -0.10893899680E+03 -0.20958583424E+03  0.10916057738E+04  0.11168693264E+04  0.00000000000E+00 0.  1.
<mgrwt>
<rscale>  4 0.26819835E+03</rscale>
<asrwt>0</asrwt>
<pdfrwt beam="1">  1       21 0.18242650E+00 0.26819835E+03</pdfrwt>
<pdfrwt beam="2">  1       21 0.79721174E-01 0.26819835E+03</pdfrwt>
<totfact> 0.22348892E+02</totfact>
</mgrwt>
</event>
<event>
 5    0  0.1257040E+001  0.2315029E+03  0.7546771E-02  0.1125586E+00
         21   -1    0    0  502  501  0.00000000000E+00  0.00000000000E+00  0.53863831258E+03  0.53863831258E+03  0.00000000000E+00 0. -1.
         21   -1    0    0  504  502 -0.00000000000E+00 -0.00000000000E+00 -0.17441286825E+03  0.17441286825E+03  0.00000000000E+00 0. -1.
         25    1    1    2    0    0 -0.44302666390E+02  0.22548541388E+03  0.16177154857E+03  0.30757345797E+03  0.12500000000E+03 0.  0.
         21    1    1    2  503  501  0.62022330700E+01 -0.47157320639E+02  0.21737278535E+03  0.22251563629E+03  0.00000000000E+00 0. -1.
         21    1    1    2  504  503  0.38100433320E+02 -0.17832809324E+03 -0.14918889581E+02  0.18296208657E+03  0.00000000000E+00 0. -1.
<mgrwt>
<rscale>  4 0.23150293E+03</rscale>
<asrwt>0</asrwt>
<pdfrwt beam="1">  1       21 0.82867432E-01 0.23150293E+03</pdfrwt>
<pdfrwt beam="2">  1       21 0.26832749E-01 0.23150293E+03</pdfrwt>
<totfact> 0.16407700E+04</totfact>
</mgrwt>
</event>
<event>
 5    0  0.1257040E+001  0.5326704E+03  0.7546771E-02  0.1005587E+00
         21   -1    0    0  503  501  0.00000000000E+00  0.00000000000E+00  0.62933726362E+03  0.62933726362E+03  0.00000000000E+00 0. -1.
         21   -1    0    0  504  502 -0.00000000000E+00 -0.00000000000E+00 -0.63014594547E+03  0.63014594547E+03  0.00000000000E+00 0. -1.
         25    1    1    2    0    0  0.11481520379E+03  0.51522818829E+03 -0.11773329754E+03  0.55509345734E+03  0.12500000000E+03 0.  0.
         21    1    1    2  503  502  0.21262942008E+02 -0.20416798124E+02 -0.13112924608E+03  0.13440177650E+03  0.00000000000E+00 0. -1.
         21    1    1    2  504  501 -0.13607814580E+03 -0.49481139017E+03  0.24805386177E+03  0.56998797526E+03  0.00000000000E+00 0. -1.
<mgrwt>
<rscale>  4 0.53267035E+03</rscale>
<asrwt>0</asrwt>
<pdfrwt beam="1">  1       21 0.96821118E-01 0.53267035E+03</pdfrwt>
<pdfrwt beam="2">  1       21 0.96945530E-01 0.53267035E+03</pdfrwt>
<totfact> 0.63783212E+02</totfact>
</mgrwt>
</event>
<event>
 5    0  0.1257040E+001  0.2769791E+03  0.7546771E-02  0.1097350E+00
         21   -1    0    0  503  501  0.00000000000E+00  0.00000000000E+00  0.29601621981E+03  0.29601621981E+03  0.00000000000E+00 0. -1.
         21   -1    0    0  504  502 -0.00000000000E+00 -0.00000000000E+00 -0.70472643449E+03  0.70472643449E+03  0.00000000000E+00 0. -1.
         25    1    1    2    0    0  0.18870390591E+03  0.17747826470E+03  0.15643820642E+03  0.32742267938E+03  0.12500000000E+03 0.  0.
         21    1    1    2  503  502 -0.28193545718E+02 -0.32271543755E+02 -0.39681380729E+03  0.39912094184E+03  0.00000000000E+00 0. -1.
         21    1    1    2  504  501 -0.16051036019E+03 -0.14520672095E+03 -0.16833461381E+03  0.27419903308E+03  0.00000000000E+00 0. -1.
<mgrwt>
<rscale>  4 0.27697912E+03</rscale>
<asrwt>0</asrwt>
<pdfrwt beam="1">  1       21 0.45540958E-01 0.27697912E+03</pdfrwt>
<pdfrwt beam="2">  1       21 0.10841945E+00 0.27697912E+03</pdfrwt>
<totfact> 0.29394923E+03</totfact>
</mgrwt>
</event>
<event>
 5    0  0.1257040E+001  0.2527661E+03  0.7546771E-02  0.1111569E+00
         21   -1    0    0  502  501  0.00000000000E+00  0.00000000000E+00  0.25396921817E+03  0.25396921817E+03  0.00000000000E+00 0.  1.
         21   -1    0    0  504  502 -0.00000000000E+00 -0.00000000000E+00 -0.31220343625E+03  0.31220343625E+03  0.00000000000E+00 0.  1.
         25    1    1    2    0    0 -0.15115951793E+02  0.20682870987E+03  0.58628571637E+01  0.24221061149E+03  0.12500000000E+03 0.  0.
         21    1    1    2  503  501 -0.10728201338E+00 -0.23084237324E+03  0.23339058250E+02  0.23201923290E+03  0.00000000000E+00 0.  1.
         21    1    1    2  504  503  0.15223233806E+02  0.24013663372E+02 -0.87436133497E+02  0.91942810035E+02  0.00000000000E+00 0.  1.
<mgrwt>
<rscale>  4 0.25276609E+03</rscale>
<asrwt>0</asrwt>
<pdfrwt beam="1">  1       21 0.39072187E-01 0.25276609E+03</pdfrwt>
<pdfrwt beam="2">  1       21 0.48031298E-01 0.25276609E+03</pdfrwt>
<totfact> 0.25362607E+04</totfact>
</mgrwt>
</event>
<event>
 5    0  0.1257040E+001  0.2892843E+03  0.7546771E-02  0.1090723E+00
         21   -1    0    0  502  501  0.00000000000E+00  0.00000000000E+00  0.20555695309E+04  0.20555695309E+04  0.00000000000E+00 0.  1.
         21   -1    0    0  504  502 -0.00000000000E+00 -0.00000000000E+00 -0.12706093605E+03  0.12706093605E+03  0.00000000000E+00 0.  1.
         25    1    1    2    0    0  0.15820138452E+03 -0.16234874854E+03  0.13419553100E+04  0.13666944971E+04  0.12500000000E+03 0.  0.
         21    1    1    2  503  501  0.27646042475E+02 -0.26228853957E+02  0.54688990451E+03  0.54821603780E+03  0.00000000000E+00 0.  1.
         21    1    1    2  504  503 -0.18584742699E+03  0.18857760250E+03  0.39663380298E+02  0.26771993206E+03  0.00000000000E+00 0.  1.
<mgrwt>
<rscale>  4 0.28928427E+03</rscale>
<asrwt>0</asrwt>
<pdfrwt beam="1">  1       21 0.31624144E+00 0.28928427E+03</pdfrwt>
<pdfrwt beam="2">  1       21 0.19547838E-01 0.28928427E+03</pdfrwt>
<totfact> 0.59190628E+02</totfact>
</mgrwt>
</event>
<event>
 5    0  0.1257040E+001  0.1996552E+03  0.7546771E-02  0.1150030E+00
         21   -1    0    0  504  501  0.00000000000E+00  0.00000000000E+00  0.51191869332E+03  0.51191869332E+03  0.00000000000E+00 0.  1.
         21   -1    0    0  503  502 -0.00000000000E+00 -0.00000000000E+00 -0.12850007994E+04  0.12850007994E+04  0.00000000000E+00 0. -1.
         25    1    1    2    0    0  0.19941192913E+03 -0.15676263718E+02  0.35091735657E+03  0.42282248505E+03  0.12500000000E+03 0.  0.
         21    1    1    2  503  501 -0.15333570128E+03 -0.23943682050E+02 -0.12365171519E+04  0.12462182008E+04  0.00000000000E+00 0. -1.
         21    1    1    2  504  502 -0.46076227853E+02  0.39619945768E+02  0.11251768917E+03  0.12787880689E+03  0.00000000000E+00 0.  1.
<mgrwt>
<rscale>  4 0.19965515E+03</rscale>
<asrwt>0</asrwt>
<pdfrwt beam="1">  1       21 0.78756723E-01 0.19965515E+03</pdfrwt>
<pdfrwt beam="2">  1       21 0.19769243E+00 0.19965515E+03</pdfrwt>
<totfact> 0.19614381E+02</totfact>
</mgrwt>
</event>
<event>
 5    0  0.1257040E+001  0.2529952E+03  0.7546771E-02  0.1111426E+00
         21   -1    0    0  502  501  0.00000000000E+00  0.00000000000E+00  0.85825174456E+02  0.85825174456E+02  0.00000000000E+00 0.  1.
         21   -1    0    0  504  502 -0.00000000000E+00 -0.00000000000E+00 -0.69701453990E+03  0.69701453990E+03  0.00000000000E+00 0.  1.
         25    1    1    2    0    0  0.17237609831E+03  0.13663116538E+03 -0.25193009199E+03  0.35703692509E+03  0.12500000000E+03 0.  0.
         21    1    1    2  503  501 -0.16894653781E+03 -0.11677889734E+03 -0.30300265830E+03  0.36604761226E+03  0.00000000000E+00 0.  1.
         21    1    1    2  504  503 -0.34295605004E+01 -0.19852268038E+02 -0.56256615150E+02  0.59755177011E+02  0.00000000000E+00 0.  1.
<mgrwt>
<rscale>  4 0.25299525E+03</rscale>
<asrwt>0</asrwt>
<pdfrwt beam="1">  1       21 0.13203873E-01 0.25299525E+03</pdfrwt>
<pdfrwt beam="2">  1       21 0.10723301E+00 0.25299525E+03</pdfrwt>
<totfact> 0.33283543E+04</totfact>
</mgrwt>
</event>
<event>
 5    0  0.1257040E+001  0.3828120E+03  0.7546771E-02  0.1049899E+00
         21   -1    0    0  502  501  0.00000000000E+00  0.00000000000E+00  0.10368116703E+04  0.10368116703E+04  0.00000000000E+00 0. -1.
         21   -1    0    0  504  502 -0.00000000000E+00 -0.00000000000E+00 -0.38191117080E+03  0.38191117080E+03  0.00000000000E+00 0. -1.
         25    1    1    2    0    0  0.35639186438E+03 -0.36602891451E+03  0.20117711085E+03  0.56310705660E+03  0.12500000000E+03 0.  0.
         21    1    1    2  503  501 -0.79070206492E+02  0.32310305771E+03  0.46852855229E+03  0.57460132942E+03  0.00000000000E+00 0. -1.
         21    1    1    2  504  503 -0.27732165789E+03  0.42925856802E+02 -0.14805163602E+02  0.28101445512E+03  0.00000000000E+00 0. -1.
<mgrwt>
<rscale>  4 0.38281199E+03</rscale>
<asrwt>0</asrwt>
<pdfrwt beam="1">  1       21 0.15950949E+00 0.38281199E+03</pdfrwt>
<pdfrwt beam="2">  1       21 0.58755565E-01 0.38281199E+03</pdfrwt>
<totfact> 0.59319401E+02</totfact>
</mgrwt>
</event>
<event>
 5    0  0.1257040E+001  0.3399038E+03  0.7546771E-02  0.1066837E+00
         21   -1    0    0  503  501  0.00000000000E+00  0.00000000000E+00  0.26015405033E+04  0.26015405033E+04  0.00000000000E+00 0. -1.
         21   -1    0    0  504  502 -0.00000000000E+00 -0.00000000000E+00 -0.24065459027E+03  0.24065459027E+03  0.00000000000E+00 0.  1.
         25    1    1    2    0    0  0.22182225902E+03  0.25368288138E+03  0.20041548866E+04  0.20361291532E+04  0.12500000000E+03 0.  0.
         21    1    1    2  503  502 -0.15330022367E+03 -0.27554226498E+03 -0.10990341969E+03  0.33392103862E+03  0.00000000000E+00 0.  1.
         21    1    1    2  504  501 -0.68522035342E+02  0.21859383605E+02  0.46663444614E+03  0.47214490181E+03  0.00000000000E+00 0.  1.
<mgrwt>
<rscale>  4 0.33990382E+03</rscale>
<asrwt>0</asrwt>
<pdfrwt beam="1">  1       21 0.40023698E+00 0.33990382E+03</pdfrwt>
<pdfrwt beam="2">  1       21 0.37023785E-01 0.33990382E+03</pdfrwt>
<totfact> 0.49823067E+01</totfact>
</mgrwt>
</event>
<event>
 5    0  0.1257040E+001  0.2923793E+03  0.7546771E-02  0.1089113E+00
         21   -1    0    0  504  501  0.00000000000E+00  0.00000000000E+00  0.10770810486E+04  0.10770810486E+04  0.00000000000E+00 0.  1.
         21   -1    0    0  503  502 -0.00000000000E+00 -0.00000000000E+00 -0.10730410282E+03  0.10730410282E+03  0.00000000000E+00 0.  1.
         25    1    1    2    0    0 -0.15186978179E+03  0.22443907494E+03  0.19801147568E+03  0.35814923353E+03  0.12500000000E+03 0.  0.
         21    1    1    2  503  501  0.15369324908E+03 -0.19768441191E+03  0.56841791403E+03  0.62112773768E+03  0.00000000000E+00 0.  1.
         21    1    1    2  504  502 -0.18234672881E+01 -0.26754663030E+02  0.20334755610E+03  0.20510818024E+03  0.00000000000E+00 0. -1.
<mgrwt>
<rscale>  4 0.29237932E+03</rscale>
<asrwt>0</asrwt>
<pdfrwt beam="1">  1       21 0.16570477E+00 0.29237932E+03</pdfrwt>
<pdfrwt beam="2">  1       21 0.16508324E-01 0.29237932E+03</pdfrwt>
<totfact> 0.70428312E+03</totfact>
</mgrwt>
</event>
