<event>
 5    0  0.2349231E+000  0.6129263E+03  0.7546771E-02  0.9878945E-01
         21   -1    0    0  503  501  0.00000000000E+00  0.00000000000E+00  0.39944421379E+03  0.39944421379E+03  0.00000000000E+00 0. -1.
         21   -1    0    0  504  502 -0.00000000000E+00 -0.00000000000E+00 -0.71031129724E+03  0.71031129724E+03  0.00000000000E+00 0. -1.
         25    1    1    2    0    0  0.22820040236E+03  0.42680125152E+02 -0.63164390744E+02  0.27113051650E+03  0.12500000000E+03 0.  0.
         21    1    1    2  503  502  0.11340973878E+02  0.21655479393E+02  0.26655749448E+03  0.26767606419E+03  0.00000000000E+00 0. -1.
         21    1    1    2  504  501 -0.23954137623E+03 -0.64335604545E+02 -0.51426018718E+03  0.57094893034E+03  0.00000000000E+00 0. -1.
<mgrwt>
<rscale>  4 0.61292630E+03</rscale>
<asrwt>0</asrwt>
<pdfrwt beam="1">  1       21 0.61452957E-01 0.61292630E+03</pdfrwt>
<pdfrwt beam="2">  1       21 0.10927866E+00 0.61292630E+03</pdfrwt>
<totfact> 0.13226051E+03</totfact>
</mgrwt>
</event>
<event>
 5    0  0.2349231E+000  0.6657197E+03  0.7546771E-02  0.9777721E-01
         21   -1    0    0  504  501  0.00000000000E+00  0.00000000000E+00  0.48036724861E+03  0.48036724861E+03  0.00000000000E+00 0. -1.
         21   -1    0    0  503  502 -0.00000000000E+00 -0.00000000000E+00 -0.12541192462E+04  0.12541192462E+04  0.00000000000E+00 0. -1.
         25    1    1    2    0    0 -0.19981555739E+03 -0.45773979629E+03 -0.60815923704E+03  0.79682785825E+03  0.12500000000E+03 0.  0.
         21    1    1    2  503  501 -0.66178033134E+01 -0.14432934027E+03 -0.25682623769E+03  0.29467689110E+03  0.00000000000E+00 0.  1.
         21    1    1    2  504  502  0.20643336070E+03  0.60206913656E+03  0.91233477161E+02  0.64298174544E+03  0.00000000000E+00 0. -1.
<mgrwt>
<rscale>  4 0.66571972E+03</rscale>
<asrwt>0</asrwt>
<pdfrwt beam="1">  1       21 0.73902655E-01 0.66571972E+03</pdfrwt>
<pdfrwt beam="2">  1       21 0.19294142E+00 0.66571972E+03</pdfrwt>
<totfact> 0.18088635E+02</totfact>
</mgrwt>
</event>
<event>
 5    0  0.2349231E+000  0.5441806E+03  0.7546771E-02  0.1002850E+00
         21   -1    0    0  503  501  0.00000000000E+00  0.00000000000E+00  0.47412125366E+03  0.47412125366E+03  0.00000000000E+00 0. -1.
         21   -1    0    0  504  502 -0.00000000000E+00 -0.00000000000E+00 -0.13434877928E+04  0.13434877928E+04  0.00000000000E+00 0. -1.
         25    1    1    2    0    0  0.18826119670E+03 -0.24243302671E+03 -0.44007600037E+03  0.55091554410E+03  0.12500000000E+03 0.  0.
         21    1    1    2  503  502  0.10090358102E+03  0.69852191396E+01 -0.76095110271E+03  0.76764373681E+03  0.00000000000E+00 0. -1.
         21    1    1    2  504  501 -0.28916477773E+03  0.23544780757E+03  0.33166056398E+03  0.49904976552E+03  0.00000000000E+00 0. -1.
<mgrwt>
<rscale>  4 0.54418055E+03</rscale>
<asrwt>0</asrwt>
<pdfrwt beam="1">  1       21 0.72941731E-01 0.54418055E+03</pdfrwt>
<pdfrwt beam="2">  1       21 0.20669043E+00 0.54418055E+03</pdfrwt>
<totfact> 0.15791225E+02</totfact>
</mgrwt>
</event>
