<event>
 5    0  0.1283376E+001  0.2335112E+03  0.7546771E-02  0.1124193E+00
         21   -1    0    0  504  501  0.00000000000E+00  0.00000000000E+00  0.50526690774E+03  0.50526690774E+03  0.00000000000E+00 0. -1.
         21   -1    0    0  503  502 -0.00000000000E+00 -0.00000000000E+00 -0.24767038739E+03  0.24767038739E+03  0.00000000000E+00 0.  1.
         25    1    1    2    0    0  0.41366550147E+02 -0.20710197812E+03  0.36333693709E+03  0.43845313394E+03  0.12500000000E+03 0.  0.
         21    1    1    2  503  501  0.61441714182E+01  0.19604781985E+03 -0.15131497891E+03  0.24772711065E+03  0.00000000000E+00 0.  1.
         21    1    1    2  504  502 -0.47510721565E+02  0.11054158273E+02  0.45574562174E+02  0.66757050535E+02  0.00000000000E+00 0.  1.
<mgrwt>
<rscale>  4 0.23351121E+03</rscale>
<asrwt>0</asrwt>
<pdfrwt beam="1">  1       21 0.77733370E-01 0.23351121E+03</pdfrwt>
<pdfrwt beam="2">  1       21 0.38103137E-01 0.23351121E+03</pdfrwt>
<totfact> 0.94885995E+03</totfact>
</mgrwt>
</event>
<event>
 5    0  0.1283376E+001  0.4911042E+03  0.7546771E-02  0.1016127E+00
         21   -1    0    0  504  501  0.00000000000E+00  0.00000000000E+00  0.68189043516E+03  0.68189043516E+03  0.00000000000E+00 0. -1.
         21   -1    0    0  501  502 -0.00000000000E+00 -0.00000000000E+00 -0.39814389474E+03  0.39814389474E+03  0.00000000000E+00 0. -1.
         25    1    1    2    0    0  0.44997138081E+03  0.75644368269E+02  0.21336666750E+03  0.51898617400E+03  0.12500000000E+03 0.  0.
         21    1    1    2  503  502 -0.48911232114E+03 -0.11133283323E+03  0.77598796313E+02  0.50758983011E+03  0.00000000000E+00 0. -1.
         21    1    1    2  504  503  0.39140940331E+02  0.35688464960E+02 -0.72189234031E+01  0.53458325790E+02  0.00000000000E+00 0. -1.
<mgrwt>
<rscale>  4 0.49110421E+03</rscale>
<asrwt>0</asrwt>
<pdfrwt beam="1">  1       21 0.10490622E+00 0.49110421E+03</pdfrwt>
<pdfrwt beam="2">  1       21 0.61252907E-01 0.49110421E+03</pdfrwt>
<totfact> 0.15326614E+03</totfact>
</mgrwt>
</event>
<event>
 5    0  0.1283376E+001  0.2982228E+03  0.7546771E-02  0.1086132E+00
         21   -1    0    0  502  501  0.00000000000E+00  0.00000000000E+00  0.23980318573E+03  0.23980318573E+03  0.00000000000E+00 0. -1.
         21   -1    0    0  503  502 -0.00000000000E+00 -0.00000000000E+00 -0.59237029251E+03  0.59237029251E+03  0.00000000000E+00 0. -1.
         25    1    1    2    0    0  0.27005923048E+03  0.19489501446E+02  0.82244963201E+02  0.30935588342E+03  0.12500000000E+03 0.  0.
         21    1    1    2  503  504 -0.13457232046E+03 -0.60484791242E+02 -0.19802350394E+03  0.24694417895E+03  0.00000000000E+00 0.  1.
         21    1    1    2  504  501 -0.13548691002E+03  0.40995289796E+02 -0.23678856604E+03  0.27587341586E+03  0.00000000000E+00 0. -1.
<mgrwt>
<rscale>  4 0.29822278E+03</rscale>
<asrwt>0</asrwt>
<pdfrwt beam="1">  1       21 0.36892798E-01 0.29822278E+03</pdfrwt>
<pdfrwt beam="2">  1       21 0.91133891E-01 0.29822278E+03</pdfrwt>
<totfact> 0.67794977E+03</totfact>
</mgrwt>
</event>
<event>
 5    0  0.1283376E+001  0.4121040E+03  0.7546771E-02  0.1039667E+00
         21   -1    0    0  503  501  0.00000000000E+00  0.00000000000E+00  0.54954263715E+03  0.54954263715E+03  0.00000000000E+00 0. -1.
         21   -1    0    0  504  502 -0.00000000000E+00 -0.00000000000E+00 -0.40745230385E+03  0.40745230385E+03  0.00000000000E+00 0. -1.
         25    1    1    2    0    0 -0.38904550301E+03 -0.55211925428E+02  0.27544474001E+03  0.49588261204E+03  0.12500000000E+03 0.  0.
         21    1    1    2  503  502  0.43026138013E+01 -0.23016695614E+02 -0.56343703743E+02  0.61015520272E+02  0.00000000000E+00 0. -1.
         21    1    1    2  504  501  0.38474288921E+03  0.78228621042E+02 -0.77010702965E+02  0.40009680869E+03  0.00000000000E+00 0. -1.
<mgrwt>
<rscale>  4 0.41210403E+03</rscale>
<asrwt>0</asrwt>
<pdfrwt beam="1">  1       21 0.84545021E-01 0.41210403E+03</pdfrwt>
<pdfrwt beam="2">  1       21 0.62684970E-01 0.41210403E+03</pdfrwt>
<totfact> 0.25163153E+03</totfact>
</mgrwt>
</event>
<event>
 5    0  0.1283376E+001  0.2365584E+03  0.7546771E-02  0.1122107E+00
         21   -1    0    0  503  501  0.00000000000E+00  0.00000000000E+00  0.31039381765E+03  0.31039381765E+03  0.00000000000E+00 0.  1.
         21   -1    0    0  504  502 -0.00000000000E+00 -0.00000000000E+00 -0.25488767880E+03  0.25488767880E+03  0.00000000000E+00 0. -1.
         25    1    1    2    0    0 -0.18333376423E+03  0.93387367101E+02  0.18904338346E+03  0.30609617814E+03  0.12500000000E+03 0.  0.
         21    1    1    2  503  502  0.66363525211E+01 -0.31384600699E+02 -0.60405849563E+01  0.32642349830E+02  0.00000000000E+00 0. -1.
         21    1    1    2  504  501  0.17669741171E+03 -0.62002766402E+02 -0.12749665966E+03  0.22654296849E+03  0.00000000000E+00 0. -1.
<mgrwt>
<rscale>  4 0.23655842E+03</rscale>
<asrwt>0</asrwt>
<pdfrwt beam="1">  1       21 0.47752895E-01 0.23655842E+03</pdfrwt>
<pdfrwt beam="2">  1       21 0.39213489E-01 0.23655842E+03</pdfrwt>
<totfact> 0.25678082E+04</totfact>
</mgrwt>
</event>
<event>
 5    0  0.1283376E+001  0.2091460E+03  0.7546771E-02  0.1142244E+00
         21   -1    0    0  503  501  0.00000000000E+00  0.00000000000E+00  0.86930280134E+03  0.86930280134E+03  0.00000000000E+00 0. -1.
         21   -1    0    0  504  502 -0.00000000000E+00 -0.00000000000E+00 -0.13135603365E+03  0.13135603365E+03  0.00000000000E+00 0.  1.
         25    1    1    2    0    0 -0.58796926545E+02  0.19575533063E+03  0.38683141443E+03  0.45501733070E+03  0.12500000000E+03 0.  0.
         21    1    1    2  503  502  0.39054850623E+02 -0.43180222471E+02 -0.73644006921E+02  0.93878925884E+02  0.00000000000E+00 0.  1.
         21    1    1    2  504  501  0.19742075922E+02 -0.15257510816E+03  0.42475936018E+03  0.45176257841E+03  0.00000000000E+00 0. -1.
<mgrwt>
<rscale>  4 0.20914599E+03</rscale>
<asrwt>0</asrwt>
<pdfrwt beam="1">  1       21 0.13373889E+00 0.20914599E+03</pdfrwt>
<pdfrwt beam="2">  1       21 0.20208621E-01 0.20914599E+03</pdfrwt>
<totfact> 0.89979752E+03</totfact>
</mgrwt>
</event>
<event>
 5    0  0.1283376E+001  0.2656061E+03  0.7546771E-02  0.1103821E+00
         21   -1    0    0  503  501  0.00000000000E+00  0.00000000000E+00  0.18898937433E+03  0.18898937433E+03  0.00000000000E+00 0. -1.
         21   -1    0    0  504  502 -0.00000000000E+00 -0.00000000000E+00 -0.10812664541E+04  0.10812664541E+04  0.00000000000E+00 0. -1.
         25    1    1    2    0    0  0.19188393137E+03  0.13707557289E+03  0.50689217332E+02  0.27166809264E+03  0.12500000000E+03 0.  0.
         21    1    1    2  503  502 -0.16274845952E+03 -0.16317105457E+03 -0.46453360211E+03  0.51855888924E+03  0.00000000000E+00 0. -1.
         21    1    1    2  504  501 -0.29135471848E+02  0.26095481672E+02 -0.47843269497E+03  0.48002884653E+03  0.00000000000E+00 0. -1.
<mgrwt>
<rscale>  4 0.26560609E+03</rscale>
<asrwt>0</asrwt>
<pdfrwt beam="1">  1       21 0.29075288E-01 0.26560609E+03</pdfrwt>
<pdfrwt beam="2">  1       21 0.16634869E+00 0.26560609E+03</pdfrwt>
<totfact> 0.24146475E+03</totfact>
</mgrwt>
</event>
<event>
 5    0  0.1283376E+001  0.2636638E+03  0.7546771E-02  0.1104962E+00
         21   -1    0    0  503  501  0.00000000000E+00  0.00000000000E+00  0.96597303838E+03  0.96597303838E+03  0.00000000000E+00 0.  1.
         21   -1    0    0  504  502 -0.00000000000E+00 -0.00000000000E+00 -0.20925320861E+03  0.20925320861E+03  0.00000000000E+00 0.  1.
         25    1    1    2    0    0  0.10638136126E+02 -0.20508681308E+03  0.52933035201E+03  0.58136855127E+03  0.12500000000E+03 0.  0.
         21    1    1    2  503  502  0.53936985679E+02  0.28956552983E+03  0.33259808859E+03  0.44427343273E+03  0.00000000000E+00 0.  1.
         21    1    1    2  504  501 -0.64575121805E+02 -0.84478716752E+02 -0.10520861084E+03  0.14958426299E+03  0.00000000000E+00 0.  1.
<mgrwt>
<rscale>  4 0.26366384E+03</rscale>
<asrwt>0</asrwt>
<pdfrwt beam="1">  1       21 0.14861123E+00 0.26366384E+03</pdfrwt>
<pdfrwt beam="2">  1       21 0.32192802E-01 0.26366384E+03</pdfrwt>
<totfact> 0.26864469E+03</totfact>
</mgrwt>
</event>
<event>
 5    0  0.1283376E+001  0.2812800E+03  0.7546771E-02  0.1094992E+00
         21   -1    0    0  504  501  0.00000000000E+00  0.00000000000E+00  0.21032293296E+03  0.21032293296E+03  0.00000000000E+00 0. -1.
         21   -1    0    0  503  502 -0.00000000000E+00 -0.00000000000E+00 -0.56231827179E+03  0.56231827179E+03  0.00000000000E+00 0. -1.
         25    1    1    2    0    0  0.11686122958E+03 -0.16937179464E+03 -0.86646522591E+02  0.25588273032E+03  0.12500000000E+03 0.  0.
         21    1    1    2  503  501 -0.16273892731E+03  0.27381253500E+03 -0.14198326732E+03  0.34873558892E+03  0.00000000000E+00 0. -1.
         21    1    1    2  504  502  0.45877697738E+02 -0.10444074035E+03 -0.12336554892E+03  0.16802288551E+03  0.00000000000E+00 0. -1.
<mgrwt>
<rscale>  4 0.28128005E+03</rscale>
<asrwt>0</asrwt>
<pdfrwt beam="1">  1       21 0.32357374E-01 0.28128005E+03</pdfrwt>
<pdfrwt beam="2">  1       21 0.86510503E-01 0.28128005E+03</pdfrwt>
<totfact> 0.10036254E+04</totfact>
</mgrwt>
</event>
<event>
 5    0  0.1283376E+001  0.3200070E+03  0.7546771E-02  0.1075646E+00
         21   -1    0    0  503  501  0.00000000000E+00  0.00000000000E+00  0.15902578037E+04  0.15902578037E+04  0.00000000000E+00 0. -1.
         21   -1    0    0  504  502 -0.00000000000E+00 -0.00000000000E+00 -0.43431381136E+03  0.43431381136E+03  0.00000000000E+00 0.  1.
         25    1    1    2    0    0  0.27140599605E+03 -0.11819660089E+03  0.15130825461E+04  0.15468275413E+04  0.12500000000E+03 0.  0.
         21    1    1    2  503  502 -0.23558147690E+02  0.15417523115E+02 -0.10796382864E+03  0.11157452503E+03  0.00000000000E+00 0.  1.
         21    1    1    2  504  501 -0.24784784836E+03  0.10277907778E+03 -0.24917472514E+03  0.36616954873E+03  0.00000000000E+00 0.  1.
<mgrwt>
<rscale>  4 0.32000705E+03</rscale>
<asrwt>0</asrwt>
<pdfrwt beam="1">  1       21 0.24465504E+00 0.32000705E+03</pdfrwt>
<pdfrwt beam="2">  1       21 0.66817510E-01 0.32000705E+03</pdfrwt>
<totfact> 0.12705035E+02</totfact>
</mgrwt>
</event>
<event>
 5    0  0.1283376E+001  0.3266879E+03  0.7546771E-02  0.1072612E+00
         21   -1    0    0  503  501  0.00000000000E+00  0.00000000000E+00  0.13282036547E+04  0.13282036547E+04  0.00000000000E+00 0.  1.
         21   -1    0    0  504  502 -0.00000000000E+00 -0.00000000000E+00 -0.58846703122E+03  0.58846703122E+03  0.00000000000E+00 0.  1.
         25    1    1    2    0    0  0.34884433061E+03  0.87190383699E+02  0.59098564831E+03  0.70298191051E+03  0.12500000000E+03 0.  0.
         21    1    1    2  503  502 -0.25675935781E+03 -0.95422377055E+02  0.64927884139E+03  0.70469412637E+03  0.00000000000E+00 0.  1.
         21    1    1    2  504  501 -0.92084972798E+02  0.82319933557E+01 -0.50052786620E+03  0.50899464906E+03  0.00000000000E+00 0.  1.
<mgrwt>
<rscale>  4 0.32668792E+03</rscale>
<asrwt>0</asrwt>
<pdfrwt beam="1">  1       21 0.20433902E+00 0.32668792E+03</pdfrwt>
<pdfrwt beam="2">  1       21 0.90533390E-01 0.32668792E+03</pdfrwt>
<totfact> 0.11303245E+02</totfact>
</mgrwt>
</event>
<event>
 5    0  0.1283376E+001  0.4329528E+03  0.7546771E-02  0.1032931E+00
         21   -1    0    0  503  501  0.00000000000E+00  0.00000000000E+00  0.17520868500E+03  0.17520868500E+03  0.00000000000E+00 0.  1.
         21   -1    0    0  504  502 -0.00000000000E+00 -0.00000000000E+00 -0.14114072781E+04  0.14114072781E+04  0.00000000000E+00 0.  1.
         25    1    1    2    0    0 -0.89416386021E+02 -0.33183371665E+03 -0.34550029950E+03  0.50309478486E+03  0.12500000000E+03 0.  0.
         21    1    1    2  503  502  0.11611459556E+03  0.46054855836E+03 -0.77200385593E+03  0.90640913912E+03  0.00000000000E+00 0.  1.
         21    1    1    2  504  501 -0.26698209536E+02 -0.12871484171E+03 -0.11869443765E+03  0.17711203911E+03  0.00000000000E+00 0.  1.
<mgrwt>
<rscale>  4 0.43295280E+03</rscale>
<asrwt>0</asrwt>
<pdfrwt beam="1">  1       21 0.26955181E-01 0.43295280E+03</pdfrwt>
<pdfrwt beam="2">  1       21 0.21713959E+00 0.43295280E+03</pdfrwt>
<totfact> 0.11525344E+03</totfact>
</mgrwt>
</event>
<event>
 5    0  0.1283376E+001  0.2251880E+03  0.7546771E-02  0.1130073E+00
         21   -1    0    0  503  501  0.00000000000E+00  0.00000000000E+00  0.43635220571E+03  0.43635220571E+03  0.00000000000E+00 0. -1.
         21   -1    0    0  504  502 -0.00000000000E+00 -0.00000000000E+00 -0.19469624902E+03  0.19469624902E+03  0.00000000000E+00 0. -1.
         25    1    1    2    0    0  0.13496776484E+02 -0.21092957674E+03  0.27669778723E+03  0.36994609713E+03  0.12500000000E+03 0.  0.
         21    1    1    2  503  502  0.57794991833E+02  0.69596767075E+02 -0.47756692185E+02  0.10229698293E+03  0.00000000000E+00 0. -1.
         21    1    1    2  504  501 -0.71291768317E+02  0.14133280967E+03  0.12714861644E+02  0.15880537467E+03  0.00000000000E+00 0. -1.
<mgrwt>
<rscale>  4 0.22518804E+03</rscale>
<asrwt>0</asrwt>
<pdfrwt beam="1">  1       21 0.67131108E-01 0.22518804E+03</pdfrwt>
<pdfrwt beam="2">  1       21 0.29953269E-01 0.22518804E+03</pdfrwt>
<totfact> 0.21311699E+04</totfact>
</mgrwt>
</event>
<event>
 5    0  0.1283376E+001  0.2687964E+03  0.7546771E-02  0.1101970E+00
         21   -1    0    0  504  501  0.00000000000E+00  0.00000000000E+00  0.28579742601E+03  0.28579742601E+03  0.00000000000E+00 0. -1.
         21   -1    0    0  501  502 -0.00000000000E+00 -0.00000000000E+00 -0.35893061977E+03  0.35893061977E+03  0.00000000000E+00 0. -1.
         25    1    1    2    0    0 -0.58736288318E+02 -0.20795786887E+03 -0.26674747190E+02  0.25106367505E+03  0.12500000000E+03 0.  0.
         21    1    1    2  503  502 -0.25450159709E+02  0.26246767885E+03  0.32938893890E+02  0.26574793283E+03  0.00000000000E+00 0. -1.
         21    1    1    2  504  503  0.84186448027E+02 -0.54509809983E+02 -0.79397340459E+02  0.12791643791E+03  0.00000000000E+00 0. -1.
<mgrwt>
<rscale>  4 0.26879644E+03</rscale>
<asrwt>0</asrwt>
<pdfrwt beam="1">  1       21 0.43968835E-01 0.26879644E+03</pdfrwt>
<pdfrwt beam="2">  1       21 0.55220095E-01 0.26879644E+03</pdfrwt>
<totfact> 0.14731891E+04</totfact>
</mgrwt>
</event>
<event>
 5    0  0.1283376E+001  0.2864675E+03  0.7546771E-02  0.1092208E+00
         21   -1    0    0  504  501  0.00000000000E+00  0.00000000000E+00  0.61071961044E+03  0.61071961044E+03  0.00000000000E+00 0.  1.
         21   -1    0    0  501  502 -0.00000000000E+00 -0.00000000000E+00 -0.41848260330E+03  0.41848260330E+03  0.00000000000E+00 0.  1.
         25    1    1    2    0    0  0.25515307259E+03  0.36544970753E+02  0.53032124080E+03  0.60274724701E+03  0.12500000000E+03 0.  0.
         21    1    1    2  503  502 -0.23604185999E+02 -0.53546156241E+01 -0.17967879372E+02  0.30144223232E+02  0.00000000000E+00 0. -1.
         21    1    1    2  504  503 -0.23154888659E+03 -0.31190355129E+02 -0.32011635428E+03  0.39631074350E+03  0.00000000000E+00 0.  1.
<mgrwt>
<rscale>  4 0.28646749E+03</rscale>
<asrwt>0</asrwt>
<pdfrwt beam="1">  1       21 0.93956863E-01 0.28646749E+03</pdfrwt>
<pdfrwt beam="2">  1       21 0.64381939E-01 0.28646749E+03</pdfrwt>
<totfact> 0.19706508E+03</totfact>
</mgrwt>
</event>
<event>
 5    0  0.1283376E+001  0.5219496E+03  0.7546771E-02  0.1008203E+00
         21   -1    0    0  503  501  0.00000000000E+00  0.00000000000E+00  0.26121737855E+03  0.26121737855E+03  0.00000000000E+00 0.  1.
         21   -1    0    0  504  502 -0.00000000000E+00 -0.00000000000E+00 -0.17837346377E+04  0.17837346377E+04  0.00000000000E+00 0.  1.
         25    1    1    2    0    0  0.13695974510E+03 -0.54128858244E+03 -0.41856174721E+03  0.70892188391E+03  0.12500000000E+03 0.  0.
         21    1    1    2  503  502 -0.20564909369E+03  0.72253704008E+02 -0.62599927074E+03  0.66286290773E+03  0.00000000000E+00 0.  1.
         21    1    1    2  504  501  0.68689348590E+02  0.46903487843E+03 -0.47795624120E+03  0.67316722462E+03  0.00000000000E+00 0.  1.
<mgrwt>
<rscale>  4 0.52194958E+03</rscale>
<asrwt>0</asrwt>
<pdfrwt beam="1">  1       21 0.40187289E-01 0.52194958E+03</pdfrwt>
<pdfrwt beam="2">  1       21 0.27442071E+00 0.52194958E+03</pdfrwt>
<totfact> 0.21781273E+02</totfact>
</mgrwt>
</event>
<event>
 5    0  0.1283376E+001  0.3193932E+03  0.7546771E-02  0.1075929E+00
         21   -1    0    0  503  501  0.00000000000E+00  0.00000000000E+00  0.62117353414E+02  0.62117353414E+02  0.00000000000E+00 0.  1.
         21   -1    0    0  504  502 -0.00000000000E+00 -0.00000000000E+00 -0.24992572796E+04  0.24992572796E+04  0.00000000000E+00 0. -1.
         25    1    1    2    0    0  0.24849987743E+03  0.14198483842E+03 -0.99023406778E+03  0.10383161332E+04  0.12500000000E+03 0.  0.
         21    1    1    2  503  502 -0.32122177053E+03 -0.61530515836E+01 -0.99934978144E+03  0.10497243789E+04  0.00000000000E+00 0.  1.
         21    1    1    2  504  501  0.72721893109E+02 -0.13583178684E+03 -0.44755607700E+03  0.47333412101E+03  0.00000000000E+00 0. -1.
<mgrwt>
<rscale>  4 0.31939321E+03</rscale>
<asrwt>0</asrwt>
<pdfrwt beam="1">  1       21 0.95565147E-02 0.31939321E+03</pdfrwt>
<pdfrwt beam="2">  1       21 0.38450117E+00 0.31939321E+03</pdfrwt>
<totfact> 0.82319263E+02</totfact>
</mgrwt>
</event>
<event>
 5    0  0.1283376E+001  0.1948387E+03  0.7546771E-02  0.1154168E+00
         21   -1    0    0  503  501  0.00000000000E+00  0.00000000000E+00  0.73792107444E+03  0.73792107444E+03  0.00000000000E+00 0. -1.
         21   -1    0    0  504  502 -0.00000000000E+00 -0.00000000000E+00 -0.37271547963E+03  0.37271547963E+03  0.00000000000E+00 0.  1.
         25    1    1    2    0    0  0.98890129442E+01 -0.23705445598E+03  0.31702941221E+03  0.41524120205E+03  0.12500000000E+03 0.  0.
         21    1    1    2  503  502 -0.26127356685E+02  0.12664042298E+03  0.35025424097E+03  0.37336104352E+03  0.00000000000E+00 0. -1.
         21    1    1    2  504  501  0.16238343740E+02  0.11041403299E+03 -0.30207805838E+03  0.32203430848E+03  0.00000000000E+00 0.  1.
<mgrwt>
<rscale>  4 0.19483867E+03</rscale>
<asrwt>0</asrwt>
<pdfrwt beam="1">  1       21 0.11352632E+00 0.19483867E+03</pdfrwt>
<pdfrwt beam="2">  1       21 0.57340843E-01 0.19483867E+03</pdfrwt>
<totfact> 0.17237379E+03</totfact>
</mgrwt>
</event>
