<event>
 4    0  0.1264838E-002  0.5892156E+03  0.7546771E-02  0.9928036E-01
         -2   -1    0    0    0  501 -0.00000000000E+00  0.00000000000E+00  0.10483158483E+03  0.10483158483E+03  0.00000000000E+00 0. -1.
          2   -1    0    0  502    0  0.00000000000E+00 -0.00000000000E+00 -0.82793505820E+03  0.82793505820E+03  0.00000000000E+00 0.  1.
         25    1    1    2    0    0 -0.19882704030E+03  0.17548926989E+03 -0.22907988310E+03  0.37206352770E+03  0.12500000000E+03 0.  0.
         21    1    1    2  502  501  0.19882704030E+03 -0.17548926989E+03 -0.49402359027E+03  0.56070311534E+03  0.00000000000E+00 0.  1.
<mgrwt>
<rscale>  3 0.58921556E+03</rscale>
<asrwt>0</asrwt>
<pdfrwt beam="1">  1        2 0.12737463E+00 0.58921556E+03</pdfrwt>
<pdfrwt beam="2">  1       -2 0.16127936E-01 0.58921556E+03</pdfrwt>
<totfact> 0.10244442E+03</totfact>
</mgrwt>
</event>
<event>
 4    0  0.1264838E-002  0.5652420E+03  0.7546771E-02  0.9980263E-01
          1   -1    0    0  502    0  0.00000000000E+00  0.00000000000E+00  0.10263838894E+04  0.10263838894E+04  0.00000000000E+00 0.  1.
         -1   -1    0    0    0  501 -0.00000000000E+00 -0.00000000000E+00 -0.77821409513E+02  0.77821409513E+02  0.00000000000E+00 0. -1.
         25    1    1    2    0    0  0.73099879707E+02 -0.24237093383E+03  0.67400553647E+03  0.73075011130E+03  0.12500000000E+03 0.  0.
         21    1    1    2  502  501 -0.73099879707E+02  0.24237093383E+03  0.27455694346E+03  0.37345518765E+03  0.00000000000E+00 0. -1.
<mgrwt>
<rscale>  3 0.56524204E+03</rscale>
<asrwt>0</asrwt>
<pdfrwt beam="1">  1        1 0.15790520E+00 0.56524204E+03</pdfrwt>
<pdfrwt beam="2">  1       -1 0.11972525E-01 0.56524204E+03</pdfrwt>
<totfact> 0.69399983E+02</totfact>
</mgrwt>
</event>
<event>
 4    0  0.1264838E-002  0.5210620E+03  0.7546771E-02  0.1008423E+00
         -1   -1    0    0    0  501 -0.00000000000E+00  0.00000000000E+00  0.32766486312E+03  0.32766486312E+03  0.00000000000E+00 0. -1.
          1   -1    0    0  502    0  0.00000000000E+00 -0.00000000000E+00 -0.20715193879E+03  0.20715193879E+03  0.00000000000E+00 0.  1.
         25    1    1    2    0    0  0.18581525137E+03  0.15265349845E+03  0.11461442378E+03  0.29426495607E+03  0.12500000000E+03 0.  0.
         21    1    1    2  502  501 -0.18581525137E+03 -0.15265349845E+03  0.58985005566E+01  0.24055184584E+03  0.00000000000E+00 0.  1.
<mgrwt>
<rscale>  3 0.52106204E+03</rscale>
<asrwt>0</asrwt>
<pdfrwt beam="1">  1        1 0.31869529E-01 0.52106204E+03</pdfrwt>
<pdfrwt beam="2">  1       -1 0.50409979E-01 0.52106204E+03</pdfrwt>
<totfact> 0.56716078E+02</totfact>
</mgrwt>
</event>
<event>
 4    0  0.1264838E-002  0.5641547E+03  0.7546771E-02  0.9982698E-01
          2   -1    0    0  502    0  0.00000000000E+00  0.00000000000E+00  0.10068404525E+04  0.10068404525E+04  0.00000000000E+00 0. -1.
         -2   -1    0    0    0  501 -0.00000000000E+00 -0.00000000000E+00 -0.79027036967E+02  0.79027036967E+02  0.00000000000E+00 0.  1.
         25    1    1    2    0    0 -0.22405497987E+03  0.14674822994E+03  0.51465442559E+03  0.59348955742E+03  0.12500000000E+03 0.  0.
         21    1    1    2  502  501  0.22405497987E+03 -0.14674822994E+03  0.41315898997E+03  0.49237793207E+03  0.00000000000E+00 0.  1.
<mgrwt>
<rscale>  3 0.56415465E+03</rscale>
<asrwt>0</asrwt>
<pdfrwt beam="1">  1        2 0.15489852E+00 0.56415465E+03</pdfrwt>
<pdfrwt beam="2">  1       -2 0.12158006E-01 0.56415465E+03</pdfrwt>
<totfact> 0.12517173E+03</totfact>
</mgrwt>
</event>
<event>
 4    0  0.1264838E-002  0.5367388E+03  0.7546771E-02  0.1004611E+00
         -2   -1    0    0    0  501 -0.00000000000E+00  0.00000000000E+00  0.50726336635E+02  0.50726336635E+02  0.00000000000E+00 0. -1.
          2   -1    0    0  502    0  0.00000000000E+00 -0.00000000000E+00 -0.14198171344E+04  0.14198171344E+04  0.00000000000E+00 0.  1.
         25    1    1    2    0    0 -0.16113357889E+03  0.16371778290E+03 -0.42590485234E+03  0.49978744075E+03  0.12500000000E+03 0.  0.
         21    1    1    2  502  501  0.16113357889E+03 -0.16371778290E+03 -0.94318594542E+03  0.97075603027E+03  0.00000000000E+00 0.  1.
<mgrwt>
<rscale>  3 0.53673875E+03</rscale>
<asrwt>0</asrwt>
<pdfrwt beam="1">  1        2 0.21843342E+00 0.53673875E+03</pdfrwt>
<pdfrwt beam="2">  1       -2 0.78040512E-02 0.53673875E+03</pdfrwt>
<totfact> 0.14683675E+03</totfact>
</mgrwt>
</event>
<event>
 4    0  0.1264838E-002  0.7437976E+03  0.7546771E-02  0.9645131E-01
         -2   -1    0    0    0  501 -0.00000000000E+00  0.00000000000E+00  0.15673150156E+03  0.15673150156E+03  0.00000000000E+00 0.  1.
          2   -1    0    0  502    0  0.00000000000E+00 -0.00000000000E+00 -0.88245645628E+03  0.88245645628E+03  0.00000000000E+00 0. -1.
         25    1    1    2    0    0  0.23455647066E+03 -0.27316523671E+03 -0.32958450316E+03  0.50387193731E+03  0.12500000000E+03 0.  0.
         21    1    1    2  502  501 -0.23455647066E+03  0.27316523671E+03 -0.39614045155E+03  0.53531602053E+03  0.00000000000E+00 0. -1.
<mgrwt>
<rscale>  3 0.74379762E+03</rscale>
<asrwt>0</asrwt>
<pdfrwt beam="1">  1        2 0.13576253E+00 0.74379762E+03</pdfrwt>
<pdfrwt beam="2">  1       -2 0.24112539E-01 0.74379762E+03</pdfrwt>
<totfact> 0.46376081E+02</totfact>
</mgrwt>
</event>
<event>
 4    0  0.1264838E-002  0.4920019E+03  0.7546771E-02  0.1015888E+00
          1   -1    0    0  502    0  0.00000000000E+00  0.00000000000E+00  0.21816815481E+03  0.21816815481E+03  0.00000000000E+00 0.  1.
         -1   -1    0    0    0  501 -0.00000000000E+00 -0.00000000000E+00 -0.27738455281E+03  0.27738455281E+03  0.00000000000E+00 0. -1.
         25    1    1    2    0    0 -0.19458456331E+03 -0.62356095145E+02 -0.13813547841E+03  0.27651011785E+03  0.12500000000E+03 0.  0.
         21    1    1    2  502  501  0.19458456331E+03  0.62356095145E+02  0.78919080404E+02  0.21904258977E+03  0.00000000000E+00 0.  1.
<mgrwt>
<rscale>  3 0.49200194E+03</rscale>
<asrwt>0</asrwt>
<pdfrwt beam="1">  1        1 0.33564332E-01 0.49200194E+03</pdfrwt>
<pdfrwt beam="2">  1       -1 0.42674546E-01 0.49200194E+03</pdfrwt>
<totfact> 0.72285945E+02</totfact>
</mgrwt>
</event>
<event>
 4    0  0.1264838E-002  0.5163555E+03  0.7546771E-02  0.1009596E+00
         -2   -1    0    0    0  501 -0.00000000000E+00  0.00000000000E+00  0.20500315575E+03  0.20500315575E+03  0.00000000000E+00 0. -1.
          2   -1    0    0  502    0  0.00000000000E+00 -0.00000000000E+00 -0.32514502758E+03  0.32514502758E+03  0.00000000000E+00 0.  1.
         25    1    1    2    0    0  0.13012642161E+03  0.17473722086E+03 -0.17420103163E+03  0.30567463319E+03  0.12500000000E+03 0.  0.
         21    1    1    2  502  501 -0.13012642161E+03 -0.17473722086E+03  0.54059159802E+02  0.22447355014E+03  0.00000000000E+00 0. -1.
<mgrwt>
<rscale>  3 0.51635552E+03</rscale>
<asrwt>0</asrwt>
<pdfrwt beam="1">  1        2 0.50022312E-01 0.51635552E+03</pdfrwt>
<pdfrwt beam="2">  1       -2 0.31538947E-01 0.51635552E+03</pdfrwt>
<totfact> 0.93906854E+02</totfact>
</mgrwt>
</event>
<event>
 4    0  0.1264838E-002  0.6776025E+03  0.7546771E-02  0.9756321E-01
          2   -1    0    0  502    0  0.00000000000E+00  0.00000000000E+00  0.19650539470E+04  0.19650539470E+04  0.00000000000E+00 0.  1.
         -2   -1    0    0    0  501 -0.00000000000E+00 -0.00000000000E+00 -0.58413810038E+02  0.58413810038E+02  0.00000000000E+00 0. -1.
         25    1    1    2    0    0 -0.19593978139E+03 -0.13074648033E+03  0.16642294855E+04  0.16854589347E+04  0.12500000000E+03 0.  0.
         21    1    1    2  502  501  0.19593978139E+03  0.13074648033E+03  0.24241065144E+03  0.33800882234E+03  0.00000000000E+00 0. -1.
<mgrwt>
<rscale>  3 0.67760250E+03</rscale>
<asrwt>0</asrwt>
<pdfrwt beam="1">  1        2 0.30231594E+00 0.67760250E+03</pdfrwt>
<pdfrwt beam="2">  1       -2 0.89867415E-02 0.67760250E+03</pdfrwt>
<totfact> 0.58608121E+02</totfact>
</mgrwt>
</event>
<event>
 4    0  0.1264838E-002  0.6092205E+03  0.7546771E-02  0.9886459E-01
         -1   -1    0    0    0  501 -0.00000000000E+00  0.00000000000E+00  0.13469631360E+03  0.13469631360E+03  0.00000000000E+00 0.  1.
          1   -1    0    0  502    0  0.00000000000E+00 -0.00000000000E+00 -0.68886364561E+03  0.68886364561E+03  0.00000000000E+00 0. -1.
         25    1    1    2    0    0 -0.17358975056E+03 -0.21357446507E+03 -0.15774077356E+03  0.34096129586E+03  0.12500000000E+03 0.  0.
         21    1    1    2  502  501  0.17358975056E+03  0.21357446507E+03 -0.39642655845E+03  0.48259866336E+03  0.00000000000E+00 0. -1.
<mgrwt>
<rscale>  3 0.60922046E+03</rscale>
<asrwt>0</asrwt>
<pdfrwt beam="1">  1        1 0.10597902E+00 0.60922046E+03</pdfrwt>
<pdfrwt beam="2">  1       -1 0.20722510E-01 0.60922046E+03</pdfrwt>
<totfact> 0.54341288E+02</totfact>
</mgrwt>
</event>
<event>
 4    0  0.1264838E-002  0.5134259E+03  0.7546771E-02  0.1010333E+00
         -1   -1    0    0    0  501 -0.00000000000E+00  0.00000000000E+00  0.85020788219E+02  0.85020788219E+02  0.00000000000E+00 0.  1.
          1   -1    0    0  502    0  0.00000000000E+00 -0.00000000000E+00 -0.77512278874E+03  0.77512278874E+03  0.00000000000E+00 0. -1.
         25    1    1    2    0    0  0.16628145103E+03  0.13815998672E+03 -0.54580597595E+03  0.60022234736E+03  0.12500000000E+03 0.  0.
         21    1    1    2  502  501 -0.16628145103E+03 -0.13815998672E+03 -0.14429602456E+03  0.25992122959E+03  0.00000000000E+00 0. -1.
<mgrwt>
<rscale>  3 0.51342595E+03</rscale>
<asrwt>0</asrwt>
<pdfrwt beam="1">  1        1 0.11924966E+00 0.51342595E+03</pdfrwt>
<pdfrwt beam="2">  1       -1 0.13080121E-01 0.51342595E+03</pdfrwt>
<totfact> 0.96394784E+02</totfact>
</mgrwt>
</event>
<event>
 4    0  0.1264838E-002  0.5788909E+03  0.7546771E-02  0.9950195E-01
          2   -1    0    0  502    0  0.00000000000E+00  0.00000000000E+00  0.17244209716E+03  0.17244209716E+03  0.00000000000E+00 0. -1.
         -2   -1    0    0    0  501 -0.00000000000E+00 -0.00000000000E+00 -0.48583652870E+03  0.48583652870E+03  0.00000000000E+00 0.  1.
         25    1    1    2    0    0 -0.37323813664E+02 -0.25213498869E+03 -0.28425630173E+03  0.40173593897E+03  0.12500000000E+03 0.  0.
         21    1    1    2  502  501  0.37323813664E+02  0.25213498869E+03 -0.29138129815E+02  0.25654268689E+03  0.00000000000E+00 0. -1.
<mgrwt>
<rscale>  3 0.57889090E+03</rscale>
<asrwt>0</asrwt>
<pdfrwt beam="1">  1        2 0.26529553E-01 0.57889090E+03</pdfrwt>
<pdfrwt beam="2">  1       -2 0.74744082E-01 0.57889090E+03</pdfrwt>
<totfact> 0.33285404E+02</totfact>
</mgrwt>
</event>
<event>
 4    0  0.1264838E-002  0.6464715E+03  0.7546771E-02  0.9813423E-01
         -2   -1    0    0    0  501 -0.00000000000E+00  0.00000000000E+00  0.14200748483E+03  0.14200748483E+03  0.00000000000E+00 0. -1.
          2   -1    0    0  502    0  0.00000000000E+00 -0.00000000000E+00 -0.73574526389E+03  0.73574526389E+03  0.00000000000E+00 0.  1.
         25    1    1    2    0    0 -0.19403092209E+03 -0.10232198985E+03 -0.60759039331E+03  0.65795810989E+03  0.12500000000E+03 0.  0.
         21    1    1    2  502  501  0.19403092209E+03  0.10232198985E+03  0.13852614243E+02  0.21979463882E+03  0.00000000000E+00 0. -1.
<mgrwt>
<rscale>  3 0.64647145E+03</rscale>
<asrwt>0</asrwt>
<pdfrwt beam="1">  1        2 0.11319158E+00 0.64647145E+03</pdfrwt>
<pdfrwt beam="2">  1       -2 0.21847306E-01 0.64647145E+03</pdfrwt>
<totfact> 0.70580135E+02</totfact>
</mgrwt>
</event>
<event>
 4    0  0.1264838E-002  0.4545323E+03  0.7546771E-02  0.1026379E+00
          1   -1    0    0  502    0  0.00000000000E+00  0.00000000000E+00  0.55273559812E+03  0.55273559812E+03  0.00000000000E+00 0. -1.
         -1   -1    0    0    0  501 -0.00000000000E+00 -0.00000000000E+00 -0.93444137014E+02  0.93444137014E+02  0.00000000000E+00 0.  1.
         25    1    1    2    0    0  0.20458444877E+03 -0.12497113563E+02  0.31249937016E+03  0.39407084499E+03  0.12500000000E+03 0.  0.
         21    1    1    2  502  501 -0.20458444877E+03  0.12497113563E+02  0.14679209095E+03  0.25210889015E+03  0.00000000000E+00 0.  1.
<mgrwt>
<rscale>  3 0.45453229E+03</rscale>
<asrwt>0</asrwt>
<pdfrwt beam="1">  1        1 0.85036244E-01 0.45453229E+03</pdfrwt>
<pdfrwt beam="2">  1       -1 0.14376021E-01 0.45453229E+03</pdfrwt>
<totfact> 0.13593664E+03</totfact>
</mgrwt>
</event>
<event>
 4    0  0.1264838E-002  0.5551320E+03  0.7546771E-02  0.1000313E+00
         -2   -1    0    0    0  501 -0.00000000000E+00  0.00000000000E+00  0.21709578997E+03  0.21709578997E+03  0.00000000000E+00 0. -1.
          2   -1    0    0  502    0  0.00000000000E+00 -0.00000000000E+00 -0.35487962358E+03  0.35487962358E+03  0.00000000000E+00 0.  1.
         25    1    1    2    0    0 -0.21221453680E+03  0.15586504539E+03 -0.62106960026E+02  0.29801207440E+03  0.12500000000E+03 0.  0.
         21    1    1    2  502  501  0.21221453680E+03 -0.15586504539E+03 -0.75676873580E+02  0.27396333915E+03  0.00000000000E+00 0. -1.
<mgrwt>
<rscale>  3 0.55513196E+03</rscale>
<asrwt>0</asrwt>
<pdfrwt beam="1">  1        2 0.54596865E-01 0.55513196E+03</pdfrwt>
<pdfrwt beam="2">  1       -2 0.33399353E-01 0.55513196E+03</pdfrwt>
<totfact> 0.76578771E+02</totfact>
</mgrwt>
</event>
<event>
 4    0  0.1264838E-002  0.6147578E+03  0.7546771E-02  0.9875253E-01
          1   -1    0    0  502    0  0.00000000000E+00  0.00000000000E+00  0.11045971221E+04  0.11045971221E+04  0.00000000000E+00 0. -1.
         -1   -1    0    0    0  501 -0.00000000000E+00 -0.00000000000E+00 -0.85535077822E+02  0.85535077822E+02  0.00000000000E+00 0.  1.
         25    1    1    2    0    0 -0.20657244898E+02 -0.24033157768E+03  0.85825001618E+03  0.90022446049E+03  0.12500000000E+03 0.  0.
         21    1    1    2  502  501  0.20657244898E+02  0.24033157768E+03  0.16081202809E+03  0.28990773942E+03  0.00000000000E+00 0.  1.
<mgrwt>
<rscale>  3 0.61475784E+03</rscale>
<asrwt>0</asrwt>
<pdfrwt beam="1">  1        1 0.16993801E+00 0.61475784E+03</pdfrwt>
<pdfrwt beam="2">  1       -1 0.13159244E-01 0.61475784E+03</pdfrwt>
<totfact> 0.52008624E+02</totfact>
</mgrwt>
</event>
<event>
 4    0  0.1264838E-002  0.5898840E+03  0.7546771E-02  0.9926619E-01
         -1   -1    0    0    0  501 -0.00000000000E+00  0.00000000000E+00  0.75436992582E+02  0.75436992582E+02  0.00000000000E+00 0. -1.
          1   -1    0    0  502    0  0.00000000000E+00 -0.00000000000E+00 -0.11531582184E+04  0.11531582184E+04  0.00000000000E+00 0.  1.
         25    1    1    2    0    0 -0.11178184601E+03  0.24679544473E+03 -0.72372213528E+03  0.78281664630E+03  0.12500000000E+03 0.  0.
         21    1    1    2  502  501  0.11178184601E+03 -0.24679544473E+03 -0.35399909058E+03  0.44577856472E+03  0.00000000000E+00 0. -1.
<mgrwt>
<rscale>  3 0.58988402E+03</rscale>
<asrwt>0</asrwt>
<pdfrwt beam="1">  1        1 0.17740896E+00 0.58988402E+03</pdfrwt>
<pdfrwt beam="2">  1       -1 0.11605691E-01 0.58988402E+03</pdfrwt>
<totfact> 0.58631590E+02</totfact>
</mgrwt>
</event>
<event>
 4    0  0.1264838E-002  0.5614981E+03  0.7546771E-02  0.9988671E-01
         -1   -1    0    0    0  501 -0.00000000000E+00  0.00000000000E+00  0.76036583423E+02  0.76036583423E+02  0.00000000000E+00 0.  1.
          1   -1    0    0  502    0  0.00000000000E+00 -0.00000000000E+00 -0.10366067350E+04  0.10366067350E+04  0.00000000000E+00 0. -1.
         25    1    1    2    0    0 -0.21390172756E+03 -0.11844068080E+03 -0.71583655340E+03  0.76670014680E+03  0.12500000000E+03 0.  0.
         21    1    1    2  502  501  0.21390172756E+03  0.11844068080E+03 -0.24473359821E+03  0.34594317165E+03  0.00000000000E+00 0.  1.
<mgrwt>
<rscale>  3 0.56149812E+03</rscale>
<asrwt>0</asrwt>
<pdfrwt beam="1">  1        1 0.15947794E+00 0.56149812E+03</pdfrwt>
<pdfrwt beam="2">  1       -1 0.11697937E-01 0.56149812E+03</pdfrwt>
<totfact> 0.70746459E+02</totfact>
</mgrwt>
</event>
<event>
 4    0  0.1264838E-002  0.4700227E+03  0.7546771E-02  0.1021914E+00
         -2   -1    0    0    0  501 -0.00000000000E+00  0.00000000000E+00  0.35669088769E+02  0.35669088769E+02  0.00000000000E+00 0.  1.
          2   -1    0    0  502    0  0.00000000000E+00 -0.00000000000E+00 -0.15484091448E+04  0.15484091448E+04  0.00000000000E+00 0. -1.
         25    1    1    2    0    0  0.21447780866E+03  0.36197498113E+02 -0.87583302279E+03  0.91105404510E+03  0.12500000000E+03 0.  0.
         21    1    1    2  502  501 -0.21447780866E+03 -0.36197498113E+02 -0.63690703323E+03  0.67302418846E+03  0.00000000000E+00 0. -1.
<mgrwt>
<rscale>  3 0.47002274E+03</rscale>
<asrwt>0</asrwt>
<pdfrwt beam="1">  1        2 0.23821676E+00 0.47002274E+03</pdfrwt>
<pdfrwt beam="2">  1       -2 0.54875528E-02 0.47002274E+03</pdfrwt>
<totfact> 0.21721357E+03</totfact>
</mgrwt>
</event>
<event>
 4    0  0.1264838E-002  0.4774787E+03  0.7546771E-02  0.1019830E+00
          1   -1    0    0  502    0  0.00000000000E+00  0.00000000000E+00  0.14427109277E+03  0.14427109277E+03  0.00000000000E+00 0.  1.
         -1   -1    0    0    0  501 -0.00000000000E+00 -0.00000000000E+00 -0.39506506785E+03  0.39506506785E+03  0.00000000000E+00 0. -1.
         25    1    1    2    0    0 -0.96182267008E+02  0.17873320385E+03 -0.31362875900E+02  0.24042715452E+03  0.12500000000E+03 0.  0.
         21    1    1    2  502  501  0.96182267008E+02 -0.17873320385E+03 -0.21943109917E+03  0.29890900610E+03  0.00000000000E+00 0. -1.
<mgrwt>
<rscale>  3 0.47747867E+03</rscale>
<asrwt>0</asrwt>
<pdfrwt beam="1">  1        1 0.22195553E-01 0.47747867E+03</pdfrwt>
<pdfrwt beam="2">  1       -1 0.60779241E-01 0.47747867E+03</pdfrwt>
<totfact> 0.63301530E+02</totfact>
</mgrwt>
</event>
<event>
 4    0  0.1264838E-002  0.4548137E+03  0.7546771E-02  0.1026296E+00
         -2   -1    0    0    0  501 -0.00000000000E+00  0.00000000000E+00  0.62761338702E+02  0.62761338702E+02  0.00000000000E+00 0. -1.
          2   -1    0    0  502    0  0.00000000000E+00 -0.00000000000E+00 -0.82397664282E+03  0.82397664282E+03  0.00000000000E+00 0.  1.
         25    1    1    2    0    0  0.17885131385E+03  0.98907669940E+02 -0.31332870734E+03  0.39442413527E+03  0.12500000000E+03 0.  0.
         21    1    1    2  502  501 -0.17885131385E+03 -0.98907669940E+02 -0.44788659677E+03  0.49231384625E+03  0.00000000000E+00 0.  1.
<mgrwt>
<rscale>  3 0.45481371E+03</rscale>
<asrwt>0</asrwt>
<pdfrwt beam="1">  1        2 0.12676563E+00 0.45481371E+03</pdfrwt>
<pdfrwt beam="2">  1       -2 0.96555911E-02 0.45481371E+03</pdfrwt>
<totfact> 0.24055568E+03</totfact>
</mgrwt>
</event>
<event>
 4    0  0.1264838E-002  0.4664101E+03  0.7546771E-02  0.1022938E+00
         -2   -1    0    0    0  501 -0.00000000000E+00  0.00000000000E+00  0.38221363317E+02  0.38221363317E+02  0.00000000000E+00 0.  1.
          2   -1    0    0  502    0  0.00000000000E+00 -0.00000000000E+00 -0.14228845393E+04  0.14228845393E+04  0.00000000000E+00 0. -1.
         25    1    1    2    0    0  0.11305603489E+03 -0.18321361637E+03 -0.67174772172E+03  0.71639297728E+03  0.12500000000E+03 0.  0.
         21    1    1    2  502  501 -0.11305603489E+03  0.18321361637E+03 -0.71291545424E+03  0.74471292532E+03  0.00000000000E+00 0.  1.
<mgrwt>
<rscale>  3 0.46641006E+03</rscale>
<asrwt>0</asrwt>
<pdfrwt beam="1">  1        2 0.21890532E+00 0.46641006E+03</pdfrwt>
<pdfrwt beam="2">  1       -2 0.58802095E-02 0.46641006E+03</pdfrwt>
<totfact> 0.22865693E+03</totfact>
</mgrwt>
</event>
<event>
 4    0  0.1264838E-002  0.4517195E+03  0.7546771E-02  0.1027211E+00
         -1   -1    0    0    0  501 -0.00000000000E+00  0.00000000000E+00  0.10270707190E+03  0.10270707190E+03  0.00000000000E+00 0.  1.
          1   -1    0    0  502    0  0.00000000000E+00 -0.00000000000E+00 -0.49668065357E+03  0.49668065357E+03  0.00000000000E+00 0. -1.
         25    1    1    2    0    0  0.13979842088E+02  0.20617617194E+03 -0.24948822506E+03  0.34723684180E+03  0.12500000000E+03 0.  0.
         21    1    1    2  502  501 -0.13979842088E+02 -0.20617617194E+03 -0.14448535662E+03  0.25215088367E+03  0.00000000000E+00 0. -1.
<mgrwt>
<rscale>  3 0.45171945E+03</rscale>
<asrwt>0</asrwt>
<pdfrwt beam="1">  1        1 0.76412408E-01 0.45171945E+03</pdfrwt>
<pdfrwt beam="2">  1       -1 0.15801088E-01 0.45171945E+03</pdfrwt>
<totfact> 0.13514206E+03</totfact>
</mgrwt>
</event>
<event>
 4    0  0.1264838E-002  0.4542792E+03  0.7546771E-02  0.1026454E+00
          1   -1    0    0  502    0  0.00000000000E+00  0.00000000000E+00  0.30666834891E+03  0.30666834891E+03  0.00000000000E+00 0. -1.
         -1   -1    0    0    0  501 -0.00000000000E+00 -0.00000000000E+00 -0.16823515387E+03  0.16823515387E+03  0.00000000000E+00 0.  1.
         25    1    1    2    0    0 -0.20839043780E+03 -0.20776622582E+02  0.89871514813E+02  0.25992331905E+03  0.12500000000E+03 0.  0.
         21    1    1    2  502  501  0.20839043780E+03  0.20776622582E+02  0.48561680220E+02  0.21498018373E+03  0.00000000000E+00 0.  1.
<mgrwt>
<rscale>  3 0.45427920E+03</rscale>
<asrwt>0</asrwt>
<pdfrwt beam="1">  1        1 0.47179746E-01 0.45427920E+03</pdfrwt>
<pdfrwt beam="2">  1       -1 0.25882331E-01 0.45427920E+03</pdfrwt>
<totfact> 0.11237620E+03</totfact>
</mgrwt>
</event>
<event>
 4    0  0.1264838E-002  0.5736751E+03  0.7546771E-02  0.9961579E-01
          2   -1    0    0  502    0  0.00000000000E+00  0.00000000000E+00  0.12157534543E+04  0.12157534543E+04  0.00000000000E+00 0.  1.
         -2   -1    0    0    0  501 -0.00000000000E+00 -0.00000000000E+00 -0.67674735305E+02  0.67674735305E+02  0.00000000000E+00 0. -1.
         25    1    1    2    0    0  0.25169520822E+03  0.10612209803E+03  0.61478622272E+03  0.68425103374E+03  0.12500000000E+03 0.  0.
         21    1    1    2  502  501 -0.25169520822E+03 -0.10612209803E+03  0.53329249631E+03  0.59917715590E+03  0.00000000000E+00 0.  1.
<mgrwt>
<rscale>  3 0.57367515E+03</rscale>
<asrwt>0</asrwt>
<pdfrwt beam="1">  1        2 0.18703898E+00 0.57367515E+03</pdfrwt>
<pdfrwt beam="2">  1       -2 0.10411499E-01 0.57367515E+03</pdfrwt>
<totfact> 0.12058969E+03</totfact>
</mgrwt>
</event>
<event>
 4    0  0.1264838E-002  0.5235173E+03  0.7546771E-02  0.1007817E+00
         -1   -1    0    0    0  501 -0.00000000000E+00  0.00000000000E+00  0.30032385663E+03  0.30032385663E+03  0.00000000000E+00 0. -1.
          1   -1    0    0  502    0  0.00000000000E+00 -0.00000000000E+00 -0.22814569749E+03  0.22814569749E+03  0.00000000000E+00 0.  1.
         25    1    1    2    0    0 -0.18195986006E+03  0.96993653478E+02 -0.98822770730E+02  0.26059182547E+03  0.12500000000E+03 0.  0.
         21    1    1    2  502  501  0.18195986006E+03 -0.96993653478E+02  0.17100092987E+03  0.26787772864E+03  0.00000000000E+00 0. -1.
<mgrwt>
<rscale>  3 0.52351732E+03</rscale>
<asrwt>0</asrwt>
<pdfrwt beam="1">  1        1 0.35099338E-01 0.52351732E+03</pdfrwt>
<pdfrwt beam="2">  1       -1 0.46203670E-01 0.52351732E+03</pdfrwt>
<totfact> 0.58951662E+02</totfact>
</mgrwt>
</event>
<event>
 4    0  0.1264838E-002  0.5316171E+03  0.7546771E-02  0.1005841E+00
          1   -1    0    0  502    0  0.00000000000E+00  0.00000000000E+00  0.11335905762E+04  0.11335905762E+04  0.00000000000E+00 0. -1.
         -1   -1    0    0    0  501 -0.00000000000E+00 -0.00000000000E+00 -0.62327774474E+02  0.62327774474E+02  0.00000000000E+00 0.  1.
         25    1    1    2    0    0 -0.15580993648E+03 -0.16491533653E+03  0.80736378083E+03  0.84790039458E+03  0.12500000000E+03 0.  0.
         21    1    1    2  502  501  0.15580993648E+03  0.16491533653E+03  0.26389902086E+03  0.34801795606E+03  0.00000000000E+00 0.  1.
<mgrwt>
<rscale>  3 0.53161707E+03</rscale>
<asrwt>0</asrwt>
<pdfrwt beam="1">  1        1 0.17439853E+00 0.53161707E+03</pdfrwt>
<pdfrwt beam="2">  1       -1 0.95888892E-02 0.53161707E+03</pdfrwt>
<totfact> 0.82143245E+02</totfact>
</mgrwt>
</event>
<event>
 4    0  0.1264838E-002  0.5337065E+03  0.7546771E-02  0.1005337E+00
         -2   -1    0    0    0  501 -0.00000000000E+00  0.00000000000E+00  0.10565546629E+03  0.10565546629E+03  0.00000000000E+00 0. -1.
          2   -1    0    0  502    0  0.00000000000E+00 -0.00000000000E+00 -0.67398931859E+03  0.67398931859E+03  0.00000000000E+00 0.  1.
         25    1    1    2    0    0 -0.12216150053E+03 -0.21949204855E+03 -0.33281703598E+03  0.43530721453E+03  0.12500000000E+03 0.  0.
         21    1    1    2  502  501  0.12216150053E+03  0.21949204855E+03 -0.23551681632E+03  0.34433757035E+03  0.00000000000E+00 0.  1.
<mgrwt>
<rscale>  3 0.53370650E+03</rscale>
<asrwt>0</asrwt>
<pdfrwt beam="1">  1        2 0.10369066E+00 0.53370650E+03</pdfrwt>
<pdfrwt beam="2">  1       -2 0.16254688E-01 0.53370650E+03</pdfrwt>
<totfact> 0.13164198E+03</totfact>
</mgrwt>
</event>
<event>
 4    0  0.1264838E-002  0.4406830E+03  0.7546771E-02  0.1030537E+00
          2   -1    0    0  502    0  0.00000000000E+00  0.00000000000E+00  0.14041071171E+03  0.14041071171E+03  0.00000000000E+00 0. -1.
         -2   -1    0    0    0  501 -0.00000000000E+00 -0.00000000000E+00 -0.34577404652E+03  0.34577404652E+03  0.00000000000E+00 0.  1.
         25    1    1    2    0    0  0.15310909546E+03 -0.13268055861E+03 -0.11356372809E+03  0.26375793084E+03  0.12500000000E+03 0.  0.
         21    1    1    2  502  501 -0.15310909546E+03  0.13268055861E+03 -0.91799606722E+02  0.22242682738E+03  0.00000000000E+00 0. -1.
<mgrwt>
<rscale>  3 0.44068302E+03</rscale>
<asrwt>0</asrwt>
<pdfrwt beam="1">  1        2 0.21601648E-01 0.44068302E+03</pdfrwt>
<pdfrwt beam="2">  1       -2 0.53196007E-01 0.44068302E+03</pdfrwt>
<totfact> 0.86712221E+02</totfact>
</mgrwt>
</event>
<event>
 4    0  0.1264838E-002  0.4564084E+03  0.7546771E-02  0.1025828E+00
         -2   -1    0    0    0  501 -0.00000000000E+00  0.00000000000E+00  0.77746917771E+02  0.77746917771E+02  0.00000000000E+00 0. -1.
          2   -1    0    0  502    0  0.00000000000E+00 -0.00000000000E+00 -0.66982929480E+03  0.66982929480E+03  0.00000000000E+00 0.  1.
         25    1    1    2    0    0 -0.11456481238E+03 -0.16821637419E+03 -0.22652406571E+03  0.32918079702E+03  0.12500000000E+03 0.  0.
         21    1    1    2  502  501  0.11456481238E+03  0.16821637419E+03 -0.36555831132E+03  0.41839541555E+03  0.00000000000E+00 0.  1.
<mgrwt>
<rscale>  3 0.45640843E+03</rscale>
<asrwt>0</asrwt>
<pdfrwt beam="1">  1        2 0.10305066E+00 0.45640843E+03</pdfrwt>
<pdfrwt beam="2">  1       -2 0.11961065E-01 0.45640843E+03</pdfrwt>
<totfact> 0.22102011E+03</totfact>
</mgrwt>
</event>
<event>
 4    0  0.1264838E-002  0.4506232E+03  0.7546771E-02  0.1027536E+00
          1   -1    0    0  502    0  0.00000000000E+00  0.00000000000E+00  0.34092111359E+03  0.34092111359E+03  0.00000000000E+00 0.  1.
         -1   -1    0    0    0  501 -0.00000000000E+00 -0.00000000000E+00 -0.14890633157E+03  0.14890633157E+03  0.00000000000E+00 0. -1.
         25    1    1    2    0    0  0.15460720175E+03 -0.13733522266E+03  0.79356769755E+02  0.25433609088E+03  0.12500000000E+03 0.  0.
         21    1    1    2  502  501 -0.15460720175E+03  0.13733522266E+03  0.11265801226E+03  0.23549135429E+03  0.00000000000E+00 0. -1.
<mgrwt>
<rscale>  3 0.45062318E+03</rscale>
<asrwt>0</asrwt>
<pdfrwt beam="1">  1        1 0.52449402E-01 0.45062318E+03</pdfrwt>
<pdfrwt beam="2">  1       -1 0.22908667E-01 0.45062318E+03</pdfrwt>
<totfact> 0.12043364E+03</totfact>
</mgrwt>
</event>
<event>
 4    0  0.1264838E-002  0.6058212E+03  0.7546771E-02  0.9893402E-01
         -1   -1    0    0    0  501 -0.00000000000E+00  0.00000000000E+00  0.19150854391E+03  0.19150854391E+03  0.00000000000E+00 0. -1.
          1   -1    0    0  502    0  0.00000000000E+00 -0.00000000000E+00 -0.47911617551E+03  0.47911617551E+03  0.00000000000E+00 0.  1.
         25    1    1    2    0    0  0.28823431031E+03 -0.27275569828E+02 -0.16863553482E+03  0.35761140635E+03  0.12500000000E+03 0.  0.
         21    1    1    2  502  501 -0.28823431031E+03  0.27275569828E+02 -0.11897209677E+03  0.31301331307E+03  0.00000000000E+00 0. -1.
<mgrwt>
<rscale>  3 0.60582123E+03</rscale>
<asrwt>0</asrwt>
<pdfrwt beam="1">  1        1 0.73710179E-01 0.60582123E+03</pdfrwt>
<pdfrwt beam="2">  1       -1 0.29462854E-01 0.60582123E+03</pdfrwt>
<totfact> 0.50028967E+02</totfact>
</mgrwt>
</event>
<event>
 4    0  0.1264838E-002  0.9485787E+03  0.7546771E-02  0.9366813E-01
         -2   -1    0    0    0  501 -0.00000000000E+00  0.00000000000E+00  0.26757485808E+03  0.26757485808E+03  0.00000000000E+00 0.  1.
          2   -1    0    0  502    0  0.00000000000E+00 -0.00000000000E+00 -0.84070076387E+03  0.84070076387E+03  0.00000000000E+00 0. -1.
         25    1    1    2    0    0  0.18347121016E+03  0.38886522407E+03 -0.50160858620E+03  0.67239424536E+03  0.12500000000E+03 0.  0.
         21    1    1    2  502  501 -0.18347121016E+03 -0.38886522407E+03 -0.71517319594E+02  0.43588137658E+03  0.00000000000E+00 0.  1.
<mgrwt>
<rscale>  3 0.94857870E+03</rscale>
<asrwt>0</asrwt>
<pdfrwt beam="1">  1        2 0.12933858E+00 0.94857870E+03</pdfrwt>
<pdfrwt beam="2">  1       -2 0.41165362E-01 0.94857870E+03</pdfrwt>
<totfact> 0.18012874E+02</totfact>
</mgrwt>
</event>
<event>
 4    0  0.1264838E-002  0.1040809E+04  0.7546771E-02  0.9264885E-01
         -1   -1    0    0    0  501 -0.00000000000E+00  0.00000000000E+00  0.32124998298E+03  0.32124998298E+03  0.00000000000E+00 0.  1.
          1   -1    0    0  502    0  0.00000000000E+00 -0.00000000000E+00 -0.84302209081E+03  0.84302209081E+03  0.00000000000E+00 0. -1.
         25    1    1    2    0    0 -0.40613440348E+03 -0.15158494812E+03  0.41987212903E+02  0.45311265291E+03  0.12500000000E+03 0.  0.
         21    1    1    2  502  501  0.40613440348E+03  0.15158494812E+03 -0.56375932074E+03  0.71115942088E+03  0.00000000000E+00 0. -1.
<mgrwt>
<rscale>  3 0.10408090E+04</rscale>
<asrwt>0</asrwt>
<pdfrwt beam="1">  1        1 0.12969570E+00 0.10408090E+04</pdfrwt>
<pdfrwt beam="2">  1       -1 0.49423075E-01 0.10408090E+04</pdfrwt>
<totfact> 0.83296700E+01</totfact>
</mgrwt>
</event>
<event>
 4    0  0.1264838E-002  0.4673853E+03  0.7546771E-02  0.1022661E+00
          2   -1    0    0  502    0  0.00000000000E+00  0.00000000000E+00  0.92150321106E+03  0.92150321106E+03  0.00000000000E+00 0. -1.
         -2   -1    0    0    0  501 -0.00000000000E+00 -0.00000000000E+00 -0.59264307513E+02  0.59264307513E+02  0.00000000000E+00 0.  1.
         25    1    1    2    0    0 -0.21589611056E+03 -0.92834505489E+01  0.42095166212E+03  0.48941047685E+03  0.12500000000E+03 0.  0.
         21    1    1    2  502  501  0.21589611056E+03  0.92834505489E+01  0.44128724143E+03  0.49135704172E+03  0.00000000000E+00 0. -1.
<mgrwt>
<rscale>  3 0.46738528E+03</rscale>
<asrwt>0</asrwt>
<pdfrwt beam="1">  1        2 0.14176971E+00 0.46738528E+03</pdfrwt>
<pdfrwt beam="2">  1       -2 0.91175864E-02 0.46738528E+03</pdfrwt>
<totfact> 0.22677010E+03</totfact>
</mgrwt>
</event>
<event>
 4    0  0.1264838E-002  0.1147836E+04  0.7546771E-02  0.9159782E-01
          1   -1    0    0  502    0  0.00000000000E+00  0.00000000000E+00  0.87271317009E+03  0.87271317009E+03  0.00000000000E+00 0.  1.
         -1   -1    0    0    0  501 -0.00000000000E+00 -0.00000000000E+00 -0.37742266918E+03  0.37742266918E+03  0.00000000000E+00 0. -1.
         25    1    1    2    0    0 -0.48533324791E+03 -0.16478061898E+03 -0.13773565823E+02  0.52774589059E+03  0.12500000000E+03 0.  0.
         21    1    1    2  502  501  0.48533324791E+03  0.16478061898E+03  0.50906406673E+03  0.72238994868E+03  0.00000000000E+00 0.  1.
<mgrwt>
<rscale>  3 0.11478358E+04</rscale>
<asrwt>0</asrwt>
<pdfrwt beam="1">  1        1 0.13426356E+00 0.11478358E+04</pdfrwt>
<pdfrwt beam="2">  1       -1 0.58065026E-01 0.11478358E+04</pdfrwt>
<totfact> 0.57211983E+01</totfact>
</mgrwt>
</event>
<event>
 4    0  0.1264838E-002  0.4419080E+03  0.7546771E-02  0.1030163E+00
         -1   -1    0    0    0  501 -0.00000000000E+00  0.00000000000E+00  0.38281583911E+02  0.38281583911E+02  0.00000000000E+00 0. -1.
          1   -1    0    0  502    0  0.00000000000E+00 -0.00000000000E+00 -0.12753045551E+04  0.12753045551E+04  0.00000000000E+00 0.  1.
         25    1    1    2    0    0  0.15943167971E+03  0.12466893641E+03 -0.72439367063E+03  0.76245130615E+03  0.12500000000E+03 0.  0.
         21    1    1    2  502  501 -0.15943167971E+03 -0.12466893641E+03 -0.51262930055E+03  0.55113483285E+03  0.00000000000E+00 0. -1.
<mgrwt>
<rscale>  3 0.44190804E+03</rscale>
<asrwt>0</asrwt>
<pdfrwt beam="1">  1        1 0.19620072E+00 0.44190804E+03</pdfrwt>
<pdfrwt beam="2">  1       -1 0.58894740E-02 0.44190804E+03</pdfrwt>
<totfact> 0.13886282E+03</totfact>
</mgrwt>
</event>
<event>
 4    0  0.1264838E-002  0.4494295E+03  0.7546771E-02  0.1027892E+00
         -2   -1    0    0    0  501 -0.00000000000E+00  0.00000000000E+00  0.45758120751E+02  0.45758120751E+02  0.00000000000E+00 0.  1.
          2   -1    0    0  502    0  0.00000000000E+00 -0.00000000000E+00 -0.11035575220E+04  0.11035575220E+04  0.00000000000E+00 0. -1.
         25    1    1    2    0    0 -0.68877838784E+02 -0.19137681636E+03 -0.46697571761E+03  0.52446216580E+03  0.12500000000E+03 0.  0.
         21    1    1    2  502  501  0.68877838784E+02  0.19137681636E+03 -0.59082368368E+03  0.62485347700E+03  0.00000000000E+00 0. -1.
<mgrwt>
<rscale>  3 0.44942950E+03</rscale>
<asrwt>0</asrwt>
<pdfrwt beam="1">  1        2 0.16977808E+00 0.44942950E+03</pdfrwt>
<pdfrwt beam="2">  1       -2 0.70397109E-02 0.44942950E+03</pdfrwt>
<totfact> 0.26305298E+03</totfact>
</mgrwt>
</event>
<event>
 4    0  0.1264838E-002  0.7117888E+03  0.7546771E-02  0.9697281E-01
          1   -1    0    0  502    0  0.00000000000E+00  0.00000000000E+00  0.32835793699E+03  0.32835793699E+03  0.00000000000E+00 0.  1.
         -1   -1    0    0    0  501 -0.00000000000E+00 -0.00000000000E+00 -0.38574013980E+03  0.38574013980E+03  0.00000000000E+00 0. -1.
         25    1    1    2    0    0  0.36425945001E+02 -0.33282339747E+03  0.53581710037E+02  0.36137828244E+03  0.12500000000E+03 0.  0.
         21    1    1    2  502  501 -0.36425945001E+02  0.33282339747E+03 -0.11096391285E+03  0.35271979435E+03  0.00000000000E+00 0. -1.
<mgrwt>
<rscale>  3 0.71178884E+03</rscale>
<asrwt>0</asrwt>
<pdfrwt beam="1">  1        1 0.50516606E-01 0.71178884E+03</pdfrwt>
<pdfrwt beam="2">  1       -1 0.59344636E-01 0.71178884E+03</pdfrwt>
<totfact> 0.22737138E+02</totfact>
</mgrwt>
</event>
<event>
 4    0  0.1264838E-002  0.4565837E+03  0.7546771E-02  0.1025777E+00
          1   -1    0    0  502    0  0.00000000000E+00  0.00000000000E+00  0.24992542033E+04  0.24992542033E+04  0.00000000000E+00 0.  1.
         -1   -1    0    0    0  501 -0.00000000000E+00 -0.00000000000E+00 -0.20853088310E+02  0.20853088310E+02  0.00000000000E+00 0. -1.
         25    1    1    2    0    0 -0.17733666352E+03  0.98728367607E+02  0.16540070557E+04  0.16710954261E+04  0.12500000000E+03 0.  0.
         21    1    1    2  502  501  0.17733666352E+03 -0.98728367607E+02  0.82439405927E+03  0.84901186550E+03  0.00000000000E+00 0.  1.
<mgrwt>
<rscale>  3 0.45658370E+03</rscale>
<asrwt>0</asrwt>
<pdfrwt beam="1">  1        1 0.38450041E+00 0.45658370E+03</pdfrwt>
<pdfrwt beam="2">  1       -1 0.32081694E-02 0.45658370E+03</pdfrwt>
<totfact> 0.52927743E+02</totfact>
</mgrwt>
</event>
<event>
 4    0  0.1264838E-002  0.4670562E+03  0.7546771E-02  0.1022754E+00
         -2   -1    0    0    0  501 -0.00000000000E+00  0.00000000000E+00  0.63660442085E+02  0.63660442085E+02  0.00000000000E+00 0. -1.
          2   -1    0    0  502    0  0.00000000000E+00 -0.00000000000E+00 -0.85666020178E+03  0.85666020178E+03  0.00000000000E+00 0.  1.
         25    1    1    2    0    0 -0.10386016209E+03  0.18700267735E+03 -0.35535276232E+03  0.43319455247E+03  0.12500000000E+03 0.  0.
         21    1    1    2  502  501  0.10386016209E+03 -0.18700267735E+03 -0.43764699737E+03  0.48712609139E+03  0.00000000000E+00 0. -1.
<mgrwt>
<rscale>  3 0.46705617E+03</rscale>
<asrwt>0</asrwt>
<pdfrwt beam="1">  1        2 0.13179387E+00 0.46705617E+03</pdfrwt>
<pdfrwt beam="2">  1       -2 0.97939147E-02 0.46705617E+03</pdfrwt>
<totfact> 0.22328975E+03</totfact>
</mgrwt>
</event>
<event>
 4    0  0.1264838E-002  0.5420034E+03  0.7546771E-02  0.1003362E+00
         -2   -1    0    0    0  501 -0.00000000000E+00  0.00000000000E+00  0.26435134788E+02  0.26435134788E+02  0.00000000000E+00 0. -1.
          2   -1    0    0  502    0  0.00000000000E+00 -0.00000000000E+00 -0.27781933074E+04  0.27781933074E+04  0.00000000000E+00 0.  1.
         25    1    1    2    0    0  0.10945336455E+03 -0.23147128836E+03 -0.13627539074E+04  0.13922220400E+04  0.12500000000E+03 0.  0.
         21    1    1    2  502  501 -0.10945336455E+03  0.23147128836E+03 -0.13890042652E+04  0.14124064022E+04  0.00000000000E+00 0. -1.
<mgrwt>
<rscale>  3 0.54200337E+03</rscale>
<asrwt>0</asrwt>
<pdfrwt beam="1">  1        2 0.42741400E+00 0.54200337E+03</pdfrwt>
<pdfrwt beam="2">  1       -2 0.40669472E-02 0.54200337E+03</pdfrwt>
<totfact> 0.72354415E+02</totfact>
</mgrwt>
</event>
<event>
 4    0  0.1264838E-002  0.1132066E+04  0.7546771E-02  0.9174490E-01
         -2   -1    0    0    0  501 -0.00000000000E+00  0.00000000000E+00  0.38302373693E+03  0.38302373693E+03  0.00000000000E+00 0.  1.
          2   -1    0    0  502    0  0.00000000000E+00 -0.00000000000E+00 -0.83648417157E+03  0.83648417157E+03  0.00000000000E+00 0. -1.
         25    1    1    2    0    0  0.28583834583E+03  0.47905355897E+03 -0.18872203339E+03  0.60202730685E+03  0.12500000000E+03 0.  0.
         21    1    1    2  502  501 -0.28583834583E+03 -0.47905355897E+03 -0.26473840125E+03  0.61748060164E+03  0.00000000000E+00 0.  1.
<mgrwt>
<rscale>  3 0.11320659E+04</rscale>
<asrwt>0</asrwt>
<pdfrwt beam="1">  1        2 0.12868987E+00 0.11320659E+04</pdfrwt>
<pdfrwt beam="2">  1       -2 0.58926729E-01 0.11320659E+04</pdfrwt>
<totfact> 0.86518191E+01</totfact>
</mgrwt>
</event>
<event>
 4    0  0.1264838E-002  0.5763939E+03  0.7546771E-02  0.9955629E-01
          1   -1    0    0  502    0  0.00000000000E+00  0.00000000000E+00  0.14382118353E+03  0.14382118353E+03  0.00000000000E+00 0.  1.
         -1   -1    0    0    0  501 -0.00000000000E+00 -0.00000000000E+00 -0.57750518774E+03  0.57750518774E+03  0.00000000000E+00 0. -1.
         25    1    1    2    0    0  0.27237420593E+03 -0.13564940109E+02 -0.26772626008E+03  0.40208713731E+03  0.12500000000E+03 0.  0.
         21    1    1    2  502  501 -0.27237420593E+03  0.13564940109E+02 -0.16595774413E+03  0.31923923395E+03  0.00000000000E+00 0.  1.
<mgrwt>
<rscale>  3 0.57639389E+03</rscale>
<asrwt>0</asrwt>
<pdfrwt beam="1">  1        1 0.22126336E-01 0.57639389E+03</pdfrwt>
<pdfrwt beam="2">  1       -1 0.88846951E-01 0.57639389E+03</pdfrwt>
<totfact> 0.28979594E+02</totfact>
</mgrwt>
</event>
<event>
 4    0  0.1264838E-002  0.4961182E+03  0.7546771E-02  0.1014797E+00
         -2   -1    0    0    0  501 -0.00000000000E+00  0.00000000000E+00  0.25093012213E+02  0.25093012213E+02  0.00000000000E+00 0. -1.
          2   -1    0    0  502    0  0.00000000000E+00 -0.00000000000E+00 -0.24522090553E+04  0.24522090553E+04  0.00000000000E+00 0.  1.
         25    1    1    2    0    0 -0.29577022195E+02  0.21065063167E+03 -0.82430329827E+03  0.86043559689E+03  0.12500000000E+03 0.  0.
         21    1    1    2  502  501  0.29577022195E+02 -0.21065063167E+03 -0.16028127448E+04  0.16168664706E+04  0.00000000000E+00 0.  1.
<mgrwt>
<rscale>  3 0.49611818E+03</rscale>
<asrwt>0</asrwt>
<pdfrwt beam="1">  1        2 0.37726292E+00 0.49611818E+03</pdfrwt>
<pdfrwt beam="2">  1       -2 0.38604635E-02 0.49611818E+03</pdfrwt>
<totfact> 0.12062777E+03</totfact>
</mgrwt>
</event>
<event>
 4    0  0.1264838E-002  0.4788380E+03  0.7546771E-02  0.1019455E+00
         -2   -1    0    0    0  501 -0.00000000000E+00  0.00000000000E+00  0.23666943218E+02  0.23666943218E+02  0.00000000000E+00 0.  1.
          2   -1    0    0  502    0  0.00000000000E+00 -0.00000000000E+00 -0.24220055956E+04  0.24220055956E+04  0.00000000000E+00 0. -1.
         25    1    1    2    0    0  0.19213187150E+03  0.10017142174E+03 -0.10093627599E+04  0.10398976636E+04  0.12500000000E+03 0.  0.
         21    1    1    2  502  501 -0.19213187150E+03 -0.10017142174E+03 -0.13889758925E+04  0.14057748752E+04  0.00000000000E+00 0. -1.
<mgrwt>
<rscale>  3 0.47883805E+03</rscale>
<asrwt>0</asrwt>
<pdfrwt beam="1">  1        2 0.37261606E+00 0.47883805E+03</pdfrwt>
<pdfrwt beam="2">  1       -2 0.36410700E-02 0.47883805E+03</pdfrwt>
<totfact> 0.13727266E+03</totfact>
</mgrwt>
</event>
<event>
 4    0  0.1264838E-002  0.7004860E+03  0.7546771E-02  0.9716401E-01
         -2   -1    0    0    0  501 -0.00000000000E+00  0.00000000000E+00  0.71030097199E+02  0.71030097199E+02  0.00000000000E+00 0. -1.
          2   -1    0    0  502    0  0.00000000000E+00 -0.00000000000E+00 -0.17270168038E+04  0.17270168038E+04  0.00000000000E+00 0.  1.
         25    1    1    2    0    0 -0.33297263943E+03 -0.27343960335E+02 -0.10032281478E+04  0.10647582765E+04  0.12500000000E+03 0.  0.
         21    1    1    2  502  501  0.33297263943E+03  0.27343960335E+02 -0.65275855882E+03  0.73328862455E+03  0.00000000000E+00 0. -1.
<mgrwt>
<rscale>  3 0.70048604E+03</rscale>
<asrwt>0</asrwt>
<pdfrwt beam="1">  1        2 0.26569484E+00 0.70048604E+03</pdfrwt>
<pdfrwt beam="2">  1       -2 0.10927709E-01 0.70048604E+03</pdfrwt>
<totfact> 0.57376667E+02</totfact>
</mgrwt>
</event>
<event>
 4    0  0.1264838E-002  0.5180500E+03  0.7546771E-02  0.1009172E+00
         -2   -1    0    0    0  501 -0.00000000000E+00  0.00000000000E+00  0.82777599694E+02  0.82777599694E+02  0.00000000000E+00 0. -1.
          2   -1    0    0  502    0  0.00000000000E+00 -0.00000000000E+00 -0.81053265056E+03  0.81053265056E+03  0.00000000000E+00 0.  1.
         25    1    1    2    0    0 -0.21736974982E+03  0.45135982219E+02 -0.21072201779E+03  0.33062914846E+03  0.12500000000E+03 0.  0.
         21    1    1    2  502  501  0.21736974982E+03 -0.45135982219E+02 -0.51703303307E+03  0.56268110179E+03  0.00000000000E+00 0. -1.
<mgrwt>
<rscale>  3 0.51804999E+03</rscale>
<asrwt>0</asrwt>
<pdfrwt beam="1">  1        2 0.12469734E+00 0.51804999E+03</pdfrwt>
<pdfrwt beam="2">  1       -2 0.12735014E-01 0.51804999E+03</pdfrwt>
<totfact> 0.15662202E+03</totfact>
</mgrwt>
</event>
<event>
 4    0  0.1264838E-002  0.4448989E+03  0.7546771E-02  0.1029254E+00
         -1   -1    0    0    0  501 -0.00000000000E+00  0.00000000000E+00  0.23632173873E+03  0.23632173873E+03  0.00000000000E+00 0. -1.
          1   -1    0    0  502    0  0.00000000000E+00 -0.00000000000E+00 -0.20939144454E+03  0.20939144454E+03  0.00000000000E+00 0.  1.
         25    1    1    2    0    0  0.19158017113E+03 -0.64263283612E+02  0.48455663114E+02  0.24249883068E+03  0.12500000000E+03 0.  0.
         21    1    1    2  502  501 -0.19158017113E+03  0.64263283612E+02 -0.21525368924E+02  0.20321435259E+03  0.00000000000E+00 0.  1.
<mgrwt>
<rscale>  3 0.44489887E+03</rscale>
<asrwt>0</asrwt>
<pdfrwt beam="1">  1        1 0.32214068E-01 0.44489887E+03</pdfrwt>
<pdfrwt beam="2">  1       -1 0.36357191E-01 0.44489887E+03</pdfrwt>
<totfact> 0.10162600E+03</totfact>
</mgrwt>
</event>
<event>
 4    0  0.1264838E-002  0.5695392E+03  0.7546771E-02  0.9970699E-01
          1   -1    0    0  502    0  0.00000000000E+00  0.00000000000E+00  0.28209365355E+03  0.28209365355E+03  0.00000000000E+00 0. -1.
         -1   -1    0    0    0  501 -0.00000000000E+00 -0.00000000000E+00 -0.28747093873E+03  0.28747093873E+03  0.00000000000E+00 0.  1.
         25    1    1    2    0    0  0.24002553365E+03  0.10839044891E+03 -0.66919711908E+02  0.29910532269E+03  0.12500000000E+03 0.  0.
         21    1    1    2  502  501 -0.24002553365E+03 -0.10839044891E+03  0.61542426729E+02  0.27045926959E+03  0.00000000000E+00 0.  1.
<mgrwt>
<rscale>  3 0.56953921E+03</rscale>
<asrwt>0</asrwt>
<pdfrwt beam="1">  1        1 0.43399023E-01 0.56953921E+03</pdfrwt>
<pdfrwt beam="2">  1       -1 0.44226299E-01 0.56953921E+03</pdfrwt>
<totfact> 0.48612828E+02</totfact>
</mgrwt>
</event>
<event>
 4    0  0.1264838E-002  0.5122389E+03  0.7546771E-02  0.1010633E+00
          2   -1    0    0  502    0  0.00000000000E+00  0.00000000000E+00  0.50540376326E+03  0.50540376326E+03  0.00000000000E+00 0.  1.
         -2   -1    0    0    0  501 -0.00000000000E+00 -0.00000000000E+00 -0.12979160164E+03  0.12979160164E+03  0.00000000000E+00 0. -1.
         25    1    1    2    0    0 -0.21426148005E+03  0.76741352724E+02  0.29678823556E+03  0.39434182358E+03  0.12500000000E+03 0.  0.
         21    1    1    2  502  501  0.21426148005E+03 -0.76741352724E+02  0.78823926056E+02  0.24085354133E+03  0.00000000000E+00 0. -1.
<mgrwt>
<rscale>  3 0.51223887E+03</rscale>
<asrwt>0</asrwt>
<pdfrwt beam="1">  1        2 0.77754424E-01 0.51223887E+03</pdfrwt>
<pdfrwt beam="2">  1       -2 0.19967939E-01 0.51223887E+03</pdfrwt>
<totfact> 0.13018175E+03</totfact>
</mgrwt>
</event>
<event>
 4    0  0.1264838E-002  0.5937905E+03  0.7546771E-02  0.9918373E-01
         -1   -1    0    0    0  501 -0.00000000000E+00  0.00000000000E+00  0.23753642446E+03  0.23753642446E+03  0.00000000000E+00 0.  1.
          1   -1    0    0  502    0  0.00000000000E+00 -0.00000000000E+00 -0.37108740930E+03  0.37108740930E+03  0.00000000000E+00 0. -1.
         25    1    1    2    0    0  0.24770976182E+03  0.23048744133E+02  0.70114237410E+02  0.28711039165E+03  0.12500000000E+03 0.  0.
         21    1    1    2  502  501 -0.24770976182E+03 -0.23048744133E+02 -0.20366522224E+03  0.32151344211E+03  0.00000000000E+00 0. -1.
<mgrwt>
<rscale>  3 0.59379046E+03</rscale>
<asrwt>0</asrwt>
<pdfrwt beam="1">  1        1 0.57090371E-01 0.59379046E+03</pdfrwt>
<pdfrwt beam="2">  1       -1 0.36544065E-01 0.59379046E+03</pdfrwt>
<totfact> 0.48127233E+02</totfact>
</mgrwt>
</event>
<event>
 4    0  0.1332733E-002  0.5463687E+03  0.7546771E-02  0.1002338E+00
          2   -1    0    0  502    0  0.00000000000E+00  0.00000000000E+00  0.60204577602E+03  0.60204577602E+03  0.00000000000E+00 0. -1.
         -2   -1    0    0    0  501 -0.00000000000E+00 -0.00000000000E+00 -0.12396015846E+03  0.12396015846E+03  0.00000000000E+00 0.  1.
         25    1    1    2    0    0  0.78931494212E+02 -0.20699886756E+03  0.73562465674E+02  0.26479265154E+03  0.12500000000E+03 0.  0.
         21    1    1    2  502  501 -0.78931494212E+02  0.20699886756E+03  0.40452315189E+03  0.46121328294E+03  0.00000000000E+00 0. -1.
<mgrwt>
<rscale>  3 0.54636870E+03</rscale>
<asrwt>0</asrwt>
<pdfrwt beam="1">  1        2 0.92622425E-01 0.54636870E+03</pdfrwt>
<pdfrwt beam="2">  1       -2 0.19070794E-01 0.54636870E+03</pdfrwt>
<totfact> 0.11484126E+03</totfact>
</mgrwt>
</event>
<event>
 4    0  0.1264838E-002  0.5612733E+03  0.7546771E-02  0.9989178E-01
          2   -1    0    0  502    0  0.00000000000E+00  0.00000000000E+00  0.84170455983E+03  0.84170455983E+03  0.00000000000E+00 0.  1.
         -2   -1    0    0    0  501 -0.00000000000E+00 -0.00000000000E+00 -0.93568373624E+02  0.93568373624E+02  0.00000000000E+00 0. -1.
         25    1    1    2    0    0  0.15255081899E+03 -0.21848094705E+03  0.37344072184E+03  0.47548780145E+03  0.12500000000E+03 0.  0.
         21    1    1    2  502  501 -0.15255081899E+03  0.21848094705E+03  0.37469546436E+03  0.45978513201E+03  0.00000000000E+00 0.  1.
<mgrwt>
<rscale>  3 0.56127329E+03</rscale>
<asrwt>0</asrwt>
<pdfrwt beam="1">  1        2 0.12949300E+00 0.56127329E+03</pdfrwt>
<pdfrwt beam="2">  1       -2 0.14395135E-01 0.56127329E+03</pdfrwt>
<totfact> 0.12144005E+03</totfact>
</mgrwt>
</event>
<event>
 4    0  0.1264838E-002  0.8089296E+03  0.7546771E-02  0.9547181E-01
          1   -1    0    0  502    0  0.00000000000E+00  0.00000000000E+00  0.90475083291E+03  0.90475083291E+03  0.00000000000E+00 0. -1.
         -1   -1    0    0    0  501 -0.00000000000E+00 -0.00000000000E+00 -0.18081415635E+03  0.18081415635E+03  0.00000000000E+00 0.  1.
         25    1    1    2    0    0  0.18134302955E+03  0.32896055613E+03  0.53371654203E+03  0.66451387426E+03  0.12500000000E+03 0.  0.
         21    1    1    2  502  501 -0.18134302955E+03 -0.32896055613E+03  0.19022013454E+03  0.42105111500E+03  0.00000000000E+00 0.  1.
<mgrwt>
<rscale>  3 0.80892956E+03</rscale>
<asrwt>0</asrwt>
<pdfrwt beam="1">  1        1 0.13919243E+00 0.80892956E+03</pdfrwt>
<pdfrwt beam="2">  1       -1 0.27817563E-01 0.80892956E+03</pdfrwt>
<totfact> 0.21197957E+02</totfact>
</mgrwt>
</event>
<event>
 4    0  0.1791892E-002  0.5987795E+03  0.7546771E-02  0.9907941E-01
         -2   -1    0    0    0  501 -0.00000000000E+00  0.00000000000E+00  0.12753477034E+03  0.12753477034E+03  0.00000000000E+00 0.  1.
          2   -1    0    0  502    0  0.00000000000E+00 -0.00000000000E+00 -0.70282186233E+03  0.70282186233E+03  0.00000000000E+00 0. -1.
         25    1    1    2    0    0 -0.17168669146E+03  0.13397173207E+03 -0.42351117515E+02  0.25464359833E+03  0.12500000000E+03 0.  0.
         21    1    1    2  502  501  0.17168669146E+03 -0.13397173207E+03 -0.53293597448E+03  0.57571303434E+03  0.00000000000E+00 0. -1.
<mgrwt>
<rscale>  3 0.59877951E+03</rscale>
<asrwt>0</asrwt>
<pdfrwt beam="1">  1        2 0.10812644E+00 0.59877951E+03</pdfrwt>
<pdfrwt beam="2">  1       -2 0.19620734E-01 0.59877951E+03</pdfrwt>
<totfact> 0.90390375E+02</totfact>
</mgrwt>
</event>
<event>
 4    0  0.1264838E-002  0.9542536E+03  0.7546771E-02  0.9360193E-01
          2   -1    0    0  502    0  0.00000000000E+00  0.00000000000E+00  0.12688531408E+04  0.12688531408E+04  0.00000000000E+00 0.  1.
         -2   -1    0    0    0  501 -0.00000000000E+00 -0.00000000000E+00 -0.17941398389E+03  0.17941398389E+03  0.00000000000E+00 0. -1.
         25    1    1    2    0    0  0.60072179707E+02  0.29758067742E+03  0.10965055780E+04  0.11446014193E+04  0.12500000000E+03 0.  0.
         21    1    1    2  502  501 -0.60072179707E+02 -0.29758067742E+03 -0.70664211003E+01  0.30366570543E+03  0.00000000000E+00 0. -1.
<mgrwt>
<rscale>  3 0.95425363E+03</rscale>
<asrwt>0</asrwt>
<pdfrwt beam="1">  1        2 0.19520817E+00 0.95425363E+03</pdfrwt>
<pdfrwt beam="2">  1       -2 0.27602152E-01 0.95425363E+03</pdfrwt>
<totfact> 0.20615632E+02</totfact>
</mgrwt>
</event>
<event>
 4    0  0.1264838E-002  0.4883056E+03  0.7546771E-02  0.1016877E+00
         -2   -1    0    0    0  501 -0.00000000000E+00  0.00000000000E+00  0.28359892957E+02  0.28359892957E+02  0.00000000000E+00 0. -1.
          2   -1    0    0  502    0  0.00000000000E+00 -0.00000000000E+00 -0.21019329719E+04  0.21019329719E+04  0.00000000000E+00 0.  1.
         25    1    1    2    0    0  0.65678718371E+02 -0.19153166467E+03 -0.64600781412E+03  0.68843966222E+03  0.12500000000E+03 0.  0.
         21    1    1    2  502  501 -0.65678718371E+02  0.19153166467E+03 -0.14275652648E+04  0.14418532026E+04  0.00000000000E+00 0.  1.
<mgrwt>
<rscale>  3 0.48830562E+03</rscale>
<asrwt>0</asrwt>
<pdfrwt beam="1">  1        2 0.32337427E+00 0.48830562E+03</pdfrwt>
<pdfrwt beam="2">  1       -2 0.43630609E-02 0.48830562E+03</pdfrwt>
<totfact> 0.15561097E+03</totfact>
</mgrwt>
</event>
<event>
 4    0  0.1264838E-002  0.5097163E+03  0.7546771E-02  0.1011273E+00
          1   -1    0    0  502    0  0.00000000000E+00  0.00000000000E+00  0.37855003950E+03  0.37855003950E+03  0.00000000000E+00 0. -1.
         -1   -1    0    0    0  501 -0.00000000000E+00 -0.00000000000E+00 -0.17158280170E+03  0.17158280170E+03  0.00000000000E+00 0.  1.
         25    1    1    2    0    0  0.22477593652E+03  0.81602243951E+02  0.12466028724E+03  0.29723447827E+03  0.12500000000E+03 0.  0.
         21    1    1    2  502  501 -0.22477593652E+03 -0.81602243951E+02  0.82306950563E+02  0.25289836292E+03  0.00000000000E+00 0. -1.
<mgrwt>
<rscale>  3 0.50971630E+03</rscale>
<asrwt>0</asrwt>
<pdfrwt beam="1">  1        1 0.58238467E-01 0.50971630E+03</pdfrwt>
<pdfrwt beam="2">  1       -1 0.26397354E-01 0.50971630E+03</pdfrwt>
<totfact> 0.82771880E+02</totfact>
</mgrwt>
</event>
<event>
 4    0  0.1747300E-002  0.5453322E+03  0.7546771E-02  0.1002580E+00
         -2   -1    0    0    0  501 -0.00000000000E+00  0.00000000000E+00  0.69993471789E+02  0.69993471789E+02  0.00000000000E+00 0.  1.
          2   -1    0    0  502    0  0.00000000000E+00 -0.00000000000E+00 -0.10621961193E+04  0.10621961193E+04  0.00000000000E+00 0. -1.
         25    1    1    2    0    0 -0.20852199447E+03  0.12200180104E+02 -0.20655669227E+03  0.31925058135E+03  0.12500000000E+03 0.  0.
         21    1    1    2  502  501  0.20852199447E+03 -0.12200180104E+02 -0.78564595521E+03  0.81293900971E+03  0.00000000000E+00 0. -1.
<mgrwt>
<rscale>  3 0.54533217E+03</rscale>
<asrwt>0</asrwt>
<pdfrwt beam="1">  1        2 0.16341479E+00 0.54533217E+03</pdfrwt>
<pdfrwt beam="2">  1       -2 0.10768226E-01 0.54533217E+03</pdfrwt>
<totfact> 0.14112480E+03</totfact>
</mgrwt>
</event>
<event>
 4    0  0.1264838E-002  0.5888117E+03  0.7546771E-02  0.9928894E-01
         -1   -1    0    0    0  501 -0.00000000000E+00  0.00000000000E+00  0.49045041193E+03  0.49045041193E+03  0.00000000000E+00 0.  1.
          1   -1    0    0  502    0  0.00000000000E+00 -0.00000000000E+00 -0.17672491780E+03  0.17672491780E+03  0.00000000000E+00 0. -1.
         25    1    1    2    0    0  0.18719064038E+03 -0.16042176826E+03  0.31705792942E+03  0.42062597422E+03  0.12500000000E+03 0.  0.
         21    1    1    2  502  501 -0.18719064038E+03  0.16042176826E+03 -0.33324352845E+01  0.24654935551E+03  0.00000000000E+00 0. -1.
<mgrwt>
<rscale>  3 0.58881171E+03</rscale>
<asrwt>0</asrwt>
<pdfrwt beam="1">  1        1 0.27188449E-01 0.58881171E+03</pdfrwt>
<pdfrwt beam="2">  1       -1 0.75453909E-01 0.58881171E+03</pdfrwt>
<totfact> 0.31343952E+02</totfact>
</mgrwt>
</event>
<event>
 4    0  0.1264838E-002  0.6209654E+03  0.7546771E-02  0.9862839E-01
          2   -1    0    0  502    0  0.00000000000E+00  0.00000000000E+00  0.83477228956E+03  0.83477228956E+03  0.00000000000E+00 0. -1.
         -2   -1    0    0    0  501 -0.00000000000E+00 -0.00000000000E+00 -0.11548002187E+03  0.11548002187E+03  0.00000000000E+00 0.  1.
         25    1    1    2    0    0  0.20979679643E+03 -0.14520791465E+03  0.13890773526E+03  0.31626000883E+03  0.12500000000E+03 0.  0.
         21    1    1    2  502  501 -0.20979679643E+03  0.14520791465E+03  0.58038453243E+03  0.63399230260E+03  0.00000000000E+00 0. -1.
<mgrwt>
<rscale>  3 0.62096545E+03</rscale>
<asrwt>0</asrwt>
<pdfrwt beam="1">  1        2 0.12842650E+00 0.62096545E+03</pdfrwt>
<pdfrwt beam="2">  1       -2 0.17766158E-01 0.62096545E+03</pdfrwt>
<totfact> 0.85833398E+02</totfact>
</mgrwt>
</event>
<event>
 4    0  0.1264838E-002  0.5856490E+03  0.7546771E-02  0.9935635E-01
          2   -1    0    0  502    0  0.00000000000E+00  0.00000000000E+00  0.79193016455E+03  0.79193016455E+03  0.00000000000E+00 0.  1.
         -2   -1    0    0    0  501 -0.00000000000E+00 -0.00000000000E+00 -0.10827494941E+03  0.10827494941E+03  0.00000000000E+00 0. -1.
         25    1    1    2    0    0 -0.21679786318E+03 -0.14481173367E+03  0.20261774128E+03  0.35305906130E+03  0.12500000000E+03 0.  0.
         21    1    1    2  502  501  0.21679786318E+03  0.14481173367E+03  0.48103747386E+03  0.54714605266E+03  0.00000000000E+00 0.  1.
<mgrwt>
<rscale>  3 0.58564904E+03</rscale>
<asrwt>0</asrwt>
<pdfrwt beam="1">  1        2 0.12183541E+00 0.58564904E+03</pdfrwt>
<pdfrwt beam="2">  1       -2 0.16657685E-01 0.58564904E+03</pdfrwt>
<totfact> 0.10283835E+03</totfact>
</mgrwt>
</event>
<event>
 4    0  0.1264838E-002  0.8028257E+03  0.7546771E-02  0.9555936E-01
          1   -1    0    0  502    0  0.00000000000E+00  0.00000000000E+00  0.34218117560E+03  0.34218117560E+03  0.00000000000E+00 0. -1.
         -1   -1    0    0    0  501 -0.00000000000E+00 -0.00000000000E+00 -0.47089758591E+03  0.47089758591E+03  0.00000000000E+00 0.  1.
         25    1    1    2    0    0 -0.72583921906E+02  0.27911293029E+03  0.20249849897E+03  0.37390252160E+03  0.12500000000E+03 0.  0.
         21    1    1    2  502  501  0.72583921906E+02 -0.27911293029E+03 -0.33121490928E+03  0.43917623991E+03  0.00000000000E+00 0.  1.
<mgrwt>
<rscale>  3 0.80282573E+03</rscale>
<asrwt>0</asrwt>
<pdfrwt beam="1">  1        1 0.52643257E-01 0.80282573E+03</pdfrwt>
<pdfrwt beam="2">  1       -1 0.72445783E-01 0.80282573E+03</pdfrwt>
<totfact> 0.14355346E+02</totfact>
</mgrwt>
</event>
<event>
 4    0  0.1264838E-002  0.8526167E+03  0.7546771E-02  0.9486832E-01
         -2   -1    0    0    0  501 -0.00000000000E+00  0.00000000000E+00  0.17904399851E+03  0.17904399851E+03  0.00000000000E+00 0.  1.
          2   -1    0    0  502    0  0.00000000000E+00 -0.00000000000E+00 -0.10150511845E+04  0.10150511845E+04  0.00000000000E+00 0. -1.
         25    1    1    2    0    0 -0.16881146491E+03 -0.38112870237E+03 -0.40467274636E+03  0.59425704043E+03  0.12500000000E+03 0.  0.
         21    1    1    2  502  501  0.16881146491E+03  0.38112870237E+03 -0.43133443959E+03  0.59983814253E+03  0.00000000000E+00 0.  1.
<mgrwt>
<rscale>  3 0.85261673E+03</rscale>
<asrwt>0</asrwt>
<pdfrwt beam="1">  1        2 0.15616172E+00 0.85261673E+03</pdfrwt>
<pdfrwt beam="2">  1       -2 0.27545231E-01 0.85261673E+03</pdfrwt>
<totfact> 0.29673572E+02</totfact>
</mgrwt>
</event>
<event>
 4    0  0.1547924E-002  0.5293595E+03  0.7546771E-02  0.1006388E+00
          1   -1    0    0  502    0  0.00000000000E+00  0.00000000000E+00  0.12726818116E+04  0.12726818116E+04  0.00000000000E+00 0.  1.
         -1   -1    0    0    0  501 -0.00000000000E+00 -0.00000000000E+00 -0.55045468416E+02  0.55045468416E+02  0.00000000000E+00 0. -1.
         25    1    1    2    0    0  0.18291182738E+03 -0.82609446469E+02  0.26922717406E+03  0.35831456640E+03  0.12500000000E+03 0.  0.
         21    1    1    2  502  501 -0.18291182738E+03  0.82609446469E+02  0.94840916909E+03  0.96941271358E+03  0.00000000000E+00 0.  1.
<mgrwt>
<rscale>  3 0.52935949E+03</rscale>
<asrwt>0</asrwt>
<pdfrwt beam="1">  1        1 0.19579718E+00 0.52935949E+03</pdfrwt>
<pdfrwt beam="2">  1       -1 0.84685346E-02 0.52935949E+03</pdfrwt>
<totfact> 0.79326210E+02</totfact>
</mgrwt>
</event>
<event>
 4    0  0.1264838E-002  0.5431693E+03  0.7546771E-02  0.1003087E+00
          4   -1    0    0  502    0  0.00000000000E+00  0.00000000000E+00  0.66739259304E+03  0.66739259304E+03  0.00000000000E+00 0. -1.
         -4   -1    0    0    0  501 -0.00000000000E+00 -0.00000000000E+00 -0.11051698535E+03  0.11051698535E+03  0.00000000000E+00 0.  1.
         25    1    1    2    0    0  0.10615752907E+03  0.17615585918E+03  0.51437057876E+03  0.56789294765E+03  0.12500000000E+03 0.  0.
         21    1    1    2  502  501 -0.10615752907E+03 -0.17615585918E+03  0.42505028935E+02  0.21001663074E+03  0.00000000000E+00 0.  1.
<mgrwt>
<rscale>  3 0.54316928E+03</rscale>
<asrwt>0</asrwt>
<pdfrwt beam="1">  1        4 0.10267578E+00 0.54316928E+03</pdfrwt>
<pdfrwt beam="2">  1       -4 0.17002614E-01 0.54316928E+03</pdfrwt>
<totfact> 0.47292781E+01</totfact>
</mgrwt>
</event>
<event>
 4    0  0.1264838E-002  0.4684153E+03  0.7546771E-02  0.1022368E+00
         -1   -1    0    0    0  501 -0.00000000000E+00  0.00000000000E+00  0.36807813078E+02  0.36807813078E+02  0.00000000000E+00 0.  1.
          1   -1    0    0  502    0  0.00000000000E+00 -0.00000000000E+00 -0.14902601625E+04  0.14902601625E+04  0.00000000000E+00 0. -1.
         25    1    1    2    0    0  0.20216577023E+03  0.39306503142E+02 -0.10067508193E+04  0.10351754498E+04  0.12500000000E+03 0.  0.
         21    1    1    2  502  501 -0.20216577023E+03 -0.39306503142E+02 -0.44670153018E+03  0.49189252577E+03  0.00000000000E+00 0.  1.
<mgrwt>
<rscale>  3 0.46841528E+03</rscale>
<asrwt>0</asrwt>
<pdfrwt beam="1">  1        1 0.22927072E+00 0.46841528E+03</pdfrwt>
<pdfrwt beam="2">  1       -1 0.56627423E-02 0.46841528E+03</pdfrwt>
<totfact> 0.10486181E+03</totfact>
</mgrwt>
</event>
<event>
 4    0  0.1485318E-002  0.5503988E+03  0.7546771E-02  0.1001402E+00
          1   -1    0    0  502    0  0.00000000000E+00  0.00000000000E+00  0.74399418919E+03  0.74399418919E+03  0.00000000000E+00 0. -1.
         -1   -1    0    0    0  501 -0.00000000000E+00 -0.00000000000E+00 -0.10179476552E+03  0.10179476552E+03  0.00000000000E+00 0.  1.
         25    1    1    2    0    0  0.64072246339E+02 -0.20581264546E+03  0.11150460594E+03  0.27298786590E+03  0.12500000000E+03 0.  0.
         21    1    1    2  502  501 -0.64072246339E+02  0.20581264546E+03  0.53069481773E+03  0.57280108881E+03  0.00000000000E+00 0. -1.
<mgrwt>
<rscale>  3 0.55039882E+03</rscale>
<asrwt>0</asrwt>
<pdfrwt beam="1">  1        1 0.11446064E+00 0.55039882E+03</pdfrwt>
<pdfrwt beam="2">  1       -1 0.15660734E-01 0.55039882E+03</pdfrwt>
<totfact> 0.76770449E+02</totfact>
</mgrwt>
</event>
<event>
 4    0  0.1264838E-002  0.4364297E+03  0.7546771E-02  0.1031848E+00
          2   -1    0    0  502    0  0.00000000000E+00  0.00000000000E+00  0.48671684830E+03  0.48671684830E+03  0.00000000000E+00 0. -1.
         -2   -1    0    0    0  501 -0.00000000000E+00 -0.00000000000E+00 -0.97834560830E+02  0.97834560830E+02  0.00000000000E+00 0.  1.
         25    1    1    2    0    0 -0.16384108541E+03  0.11524413833E+03  0.21139401820E+03  0.31691882812E+03  0.12500000000E+03 0.  0.
         21    1    1    2  502  501  0.16384108541E+03 -0.11524413833E+03  0.17748826927E+03  0.26763258101E+03  0.00000000000E+00 0. -1.
<mgrwt>
<rscale>  3 0.43642974E+03</rscale>
<asrwt>0</asrwt>
<pdfrwt beam="1">  1        2 0.74879514E-01 0.43642974E+03</pdfrwt>
<pdfrwt beam="2">  1       -2 0.15051471E-01 0.43642974E+03</pdfrwt>
<totfact> 0.21979705E+03</totfact>
</mgrwt>
</event>
<event>
 4    0  0.1264838E-002  0.8193225E+03  0.7546771E-02  0.9532462E-01
          2   -1    0    0  502    0  0.00000000000E+00  0.00000000000E+00  0.18385162016E+04  0.18385162016E+04  0.00000000000E+00 0. -1.
         -2   -1    0    0    0  501 -0.00000000000E+00 -0.00000000000E+00 -0.91281414372E+02  0.91281414372E+02  0.00000000000E+00 0.  1.
         25    1    1    2    0    0 -0.51362694629E+02  0.27357617998E+03  0.21694019435E+03  0.37439297613E+03  0.12500000000E+03 0.  0.
         21    1    1    2  502  501  0.51362694629E+02 -0.27357617998E+03  0.15302945929E+04  0.15554046398E+04  0.00000000000E+00 0. -1.
<mgrwt>
<rscale>  3 0.81932255E+03</rscale>
<asrwt>0</asrwt>
<pdfrwt beam="1">  1        2 0.28284862E+00 0.81932255E+03</pdfrwt>
<pdfrwt beam="2">  1       -2 0.14043296E-01 0.81932255E+03</pdfrwt>
<totfact> 0.32637017E+02</totfact>
</mgrwt>
</event>
<event>
 4    0  0.1264838E-002  0.4751302E+03  0.7546771E-02  0.1020482E+00
         -2   -1    0    0    0  501 -0.00000000000E+00  0.00000000000E+00  0.36416229700E+03  0.36416229700E+03  0.00000000000E+00 0. -1.
          2   -1    0    0  502    0  0.00000000000E+00 -0.00000000000E+00 -0.15497808482E+03  0.15497808482E+03  0.00000000000E+00 0.  1.
         25    1    1    2    0    0  0.19128668413E+03  0.96078924884E+02  0.51259095786E+02  0.25312892018E+03  0.12500000000E+03 0.  0.
         21    1    1    2  502  501 -0.19128668413E+03 -0.96078924884E+02  0.15792511640E+03  0.26601146164E+03  0.00000000000E+00 0. -1.
<mgrwt>
<rscale>  3 0.47513019E+03</rscale>
<asrwt>0</asrwt>
<pdfrwt beam="1">  1        2 0.23842782E-01 0.47513019E+03</pdfrwt>
<pdfrwt beam="2">  1       -2 0.56024969E-01 0.47513019E+03</pdfrwt>
<totfact> 0.69620060E+02</totfact>
</mgrwt>
</event>
<event>
 4    0  0.1264838E-002  0.5254436E+03  0.7546771E-02  0.1007343E+00
         -2   -1    0    0    0  501 -0.00000000000E+00  0.00000000000E+00  0.42718551772E+03  0.42718551772E+03  0.00000000000E+00 0. -1.
          2   -1    0    0  502    0  0.00000000000E+00 -0.00000000000E+00 -0.16157559138E+03  0.16157559138E+03  0.00000000000E+00 0.  1.
         25    1    1    2    0    0 -0.20872355164E+03  0.21830998593E+02 -0.74377579497E+01  0.24438173776E+03  0.12500000000E+03 0.  0.
         21    1    1    2  502  501  0.20872355164E+03 -0.21830998593E+02  0.27304768429E+03  0.34437937134E+03  0.00000000000E+00 0. -1.
<mgrwt>
<rscale>  3 0.52544363E+03</rscale>
<asrwt>0</asrwt>
<pdfrwt beam="1">  1        2 0.24857783E-01 0.52544363E+03</pdfrwt>
<pdfrwt beam="2">  1       -2 0.65720849E-01 0.52544363E+03</pdfrwt>
<totfact> 0.47445499E+02</totfact>
</mgrwt>
</event>
<event>
 4    0  0.1264838E-002  0.5971583E+03  0.7546771E-02  0.9911319E-01
          2   -1    0    0  502    0  0.00000000000E+00  0.00000000000E+00  0.12054801942E+04  0.12054801942E+04  0.00000000000E+00 0.  1.
         -2   -1    0    0    0  501 -0.00000000000E+00 -0.00000000000E+00 -0.73953532670E+02  0.73953532670E+02  0.00000000000E+00 0. -1.
         25    1    1    2    0    0  0.59624571154E+01  0.23399625018E+03  0.94076719000E+03  0.97747516683E+03  0.12500000000E+03 0.  0.
         21    1    1    2  502  501 -0.59624571154E+01 -0.23399625018E+03  0.19075947148E+03  0.30195855999E+03  0.00000000000E+00 0. -1.
<mgrwt>
<rscale>  3 0.59715833E+03</rscale>
<asrwt>0</asrwt>
<pdfrwt beam="1">  1        2 0.18545848E+00 0.59715833E+03</pdfrwt>
<pdfrwt beam="2">  1       -2 0.11377467E-01 0.59715833E+03</pdfrwt>
<totfact> 0.10570406E+03</totfact>
</mgrwt>
</event>
<event>
 4    0  0.1264838E-002  0.5630413E+03  0.7546771E-02  0.9985197E-01
          1   -1    0    0  502    0  0.00000000000E+00  0.00000000000E+00  0.36149152086E+03  0.36149152086E+03  0.00000000000E+00 0. -1.
         -1   -1    0    0    0  501 -0.00000000000E+00 -0.00000000000E+00 -0.21924131496E+03  0.21924131496E+03  0.00000000000E+00 0.  1.
         25    1    1    2    0    0  0.86308232130E+02 -0.25035243665E+03  0.34571521016E+02  0.29486546684E+03  0.12500000000E+03 0.  0.
         21    1    1    2  502  501 -0.86308232130E+02  0.25035243665E+03  0.10767868488E+03  0.28586736898E+03  0.00000000000E+00 0. -1.
<mgrwt>
<rscale>  3 0.56304130E+03</rscale>
<asrwt>0</asrwt>
<pdfrwt beam="1">  1        1 0.55614080E-01 0.56304130E+03</pdfrwt>
<pdfrwt beam="2">  1       -1 0.33729433E-01 0.56304130E+03</pdfrwt>
<totfact> 0.57450258E+02</totfact>
</mgrwt>
</event>
<event>
 4    0  0.1264838E-002  0.6054291E+03  0.7546771E-02  0.9894206E-01
          2   -1    0    0  502    0  0.00000000000E+00  0.00000000000E+00  0.84589963851E+03  0.84589963851E+03  0.00000000000E+00 0.  1.
         -2   -1    0    0    0  501 -0.00000000000E+00 -0.00000000000E+00 -0.10832973944E+03  0.10832973944E+03  0.00000000000E+00 0. -1.
         25    1    1    2    0    0 -0.24114220059E+03 -0.88384882857E+02  0.17287841478E+03  0.33387631650E+03  0.12500000000E+03 0.  0.
         21    1    1    2  502  501  0.24114220059E+03  0.88384882857E+02  0.56469148429E+03  0.62035306145E+03  0.00000000000E+00 0.  1.
<mgrwt>
<rscale>  3 0.60542906E+03</rscale>
<asrwt>0</asrwt>
<pdfrwt beam="1">  1        2 0.13013840E+00 0.60542906E+03</pdfrwt>
<pdfrwt beam="2">  1       -2 0.16666114E-01 0.60542906E+03</pdfrwt>
<totfact> 0.94102145E+02</totfact>
</mgrwt>
</event>
<event>
 4    0  0.1264838E-002  0.1068741E+04  0.7546771E-02  0.9236206E-01
          1   -1    0    0  502    0  0.00000000000E+00  0.00000000000E+00  0.91784659809E+03  0.91784659809E+03  0.00000000000E+00 0. -1.
         -1   -1    0    0    0  501 -0.00000000000E+00 -0.00000000000E+00 -0.31111083030E+03  0.31111083030E+03  0.00000000000E+00 0.  1.
         25    1    1    2    0    0 -0.31939904362E+03 -0.29680760126E+03 -0.32984859576E+02  0.45477851993E+03  0.12500000000E+03 0.  0.
         21    1    1    2  502  501  0.31939904362E+03  0.29680760126E+03  0.63972062736E+03  0.77417890846E+03  0.00000000000E+00 0. -1.
<mgrwt>
<rscale>  3 0.10687413E+04</rscale>
<asrwt>0</asrwt>
<pdfrwt beam="1">  1        1 0.14120717E+00 0.10687413E+04</pdfrwt>
<pdfrwt beam="2">  1       -1 0.47863205E-01 0.10687413E+04</pdfrwt>
<totfact> 0.76581199E+01</totfact>
</mgrwt>
</event>
<event>
 4    0  0.1264838E-002  0.6992491E+03  0.7546771E-02  0.9718517E-01
          1   -1    0    0  502    0  0.00000000000E+00  0.00000000000E+00  0.75338158072E+03  0.75338158072E+03  0.00000000000E+00 0. -1.
         -1   -1    0    0    0  501 -0.00000000000E+00 -0.00000000000E+00 -0.16225154518E+03  0.16225154518E+03  0.00000000000E+00 0.  1.
         25    1    1    2    0    0 -0.26356068327E+02  0.33636493759E+03  0.27002939134E+03  0.44986318561E+03  0.12500000000E+03 0.  0.
         21    1    1    2  502  501  0.26356068327E+02 -0.33636493759E+03  0.32110064420E+03  0.46576994030E+03  0.00000000000E+00 0.  1.
<mgrwt>
<rscale>  3 0.69924910E+03</rscale>
<asrwt>0</asrwt>
<pdfrwt beam="1">  1        1 0.11590486E+00 0.69924910E+03</pdfrwt>
<pdfrwt beam="2">  1       -1 0.24961777E-01 0.69924910E+03</pdfrwt>
<totfact> 0.34533605E+02</totfact>
</mgrwt>
</event>
<event>
 4    0  0.1264838E-002  0.8831165E+03  0.7546771E-02  0.9446936E-01
          2   -1    0    0  502    0  0.00000000000E+00  0.00000000000E+00  0.15398452965E+04  0.15398452965E+04  0.00000000000E+00 0. -1.
         -2   -1    0    0    0  501 -0.00000000000E+00 -0.00000000000E+00 -0.12661899838E+03  0.12661899838E+03  0.00000000000E+00 0.  1.
         25    1    1    2    0    0  0.35760827599E+03 -0.36576646431E+02  0.11752962915E+04  0.12353816831E+04  0.12500000000E+03 0.  0.
         21    1    1    2  502  501 -0.35760827599E+03  0.36576646431E+02  0.23793000658E+03  0.43108261175E+03  0.00000000000E+00 0.  1.
<mgrwt>
<rscale>  3 0.88311646E+03</rscale>
<asrwt>0</asrwt>
<pdfrwt beam="1">  1        2 0.23689926E+00 0.88311646E+03</pdfrwt>
<pdfrwt beam="2">  1       -2 0.19479847E-01 0.88311646E+03</pdfrwt>
<totfact> 0.27088550E+02</totfact>
</mgrwt>
</event>
<event>
 4    0  0.1264838E-002  0.6047530E+03  0.7546771E-02  0.9895594E-01
          1   -1    0    0  502    0  0.00000000000E+00  0.00000000000E+00  0.16002307922E+03  0.16002307922E+03  0.00000000000E+00 0. -1.
         -1   -1    0    0    0  501 -0.00000000000E+00 -0.00000000000E+00 -0.57136472131E+03  0.57136472131E+03  0.00000000000E+00 0.  1.
         25    1    1    2    0    0 -0.26872998593E+03 -0.82380370535E+02 -0.29810410567E+03  0.42836128281E+03  0.12500000000E+03 0.  0.
         21    1    1    2  502  501  0.26872998593E+03  0.82380370535E+02 -0.11323753642E+03  0.30302651773E+03  0.00000000000E+00 0. -1.
<mgrwt>
<rscale>  3 0.60475298E+03</rscale>
<asrwt>0</asrwt>
<pdfrwt beam="1">  1        1 0.24618935E-01 0.60475298E+03</pdfrwt>
<pdfrwt beam="2">  1       -1 0.87902264E-01 0.60475298E+03</pdfrwt>
<totfact> 0.25768592E+02</totfact>
</mgrwt>
</event>
<event>
 4    0  0.1264838E-002  0.6487984E+03  0.7546771E-02  0.9809037E-01
          3   -1    0    0  502    0  0.00000000000E+00  0.00000000000E+00  0.29353634782E+03  0.29353634782E+03  0.00000000000E+00 0.  1.
         -3   -1    0    0    0  501 -0.00000000000E+00 -0.00000000000E+00 -0.35850696524E+03  0.35850696524E+03  0.00000000000E+00 0. -1.
         25    1    1    2    0    0  0.62753013647E+02  0.28727630326E+03 -0.13958276473E+03  0.34867458088E+03  0.12500000000E+03 0.  0.
         21    1    1    2  502  501 -0.62753013647E+02 -0.28727630326E+03  0.74612147314E+02  0.30336873218E+03  0.00000000000E+00 0.  1.
<mgrwt>
<rscale>  3 0.64879835E+03</rscale>
<asrwt>0</asrwt>
<pdfrwt beam="1">  1        3 0.45159438E-01 0.64879835E+03</pdfrwt>
<pdfrwt beam="2">  1       -3 0.55154917E-01 0.64879835E+03</pdfrwt>
<totfact> 0.41601730E+01</totfact>
</mgrwt>
</event>
<event>
 4    0  0.1264838E-002  0.4658310E+03  0.7546771E-02  0.1023104E+00
          2   -1    0    0  502    0  0.00000000000E+00  0.00000000000E+00  0.73977133296E+03  0.73977133296E+03  0.00000000000E+00 0. -1.
         -2   -1    0    0    0  501 -0.00000000000E+00 -0.00000000000E+00 -0.73332973280E+02  0.73332973280E+02  0.00000000000E+00 0.  1.
         25    1    1    2    0    0 -0.96914468354E+02 -0.18657457029E+03  0.44476464732E+03  0.50758553561E+03  0.12500000000E+03 0.  0.
         21    1    1    2  502  501  0.96914468354E+02  0.18657457029E+03  0.22167371235E+03  0.30551877062E+03  0.00000000000E+00 0. -1.
<mgrwt>
<rscale>  3 0.46583101E+03</rscale>
<asrwt>0</asrwt>
<pdfrwt beam="1">  1        2 0.11381097E+00 0.46583101E+03</pdfrwt>
<pdfrwt beam="2">  1       -2 0.11281996E-01 0.46583101E+03</pdfrwt>
<totfact> 0.21492211E+03</totfact>
</mgrwt>
</event>
<event>
 4    0  0.1264838E-002  0.6560074E+03  0.7546771E-02  0.9795572E-01
          2   -1    0    0  502    0  0.00000000000E+00  0.00000000000E+00  0.12453003710E+04  0.12453003710E+04  0.00000000000E+00 0. -1.
         -2   -1    0    0    0  501 -0.00000000000E+00 -0.00000000000E+00 -0.86393948313E+02  0.86393948313E+02  0.00000000000E+00 0.  1.
         25    1    1    2    0    0  0.50251762994E+02 -0.31064239371E+03  0.53986984856E+03  0.63726634136E+03  0.12500000000E+03 0.  0.
         21    1    1    2  502  501 -0.50251762994E+02  0.31064239371E+03  0.61903657413E+03  0.69442797795E+03  0.00000000000E+00 0. -1.
<mgrwt>
<rscale>  3 0.65600737E+03</rscale>
<asrwt>0</asrwt>
<pdfrwt beam="1">  1        2 0.19158466E+00 0.65600737E+03</pdfrwt>
<pdfrwt beam="2">  1       -2 0.13291378E-01 0.65600737E+03</pdfrwt>
<totfact> 0.77318496E+02</totfact>
</mgrwt>
</event>
<event>
 4    0  0.1264838E-002  0.5192637E+03  0.7546771E-02  0.1008870E+00
          2   -1    0    0  502    0  0.00000000000E+00  0.00000000000E+00  0.23488511706E+04  0.23488511706E+04  0.00000000000E+00 0. -1.
         -2   -1    0    0    0  501 -0.00000000000E+00 -0.00000000000E+00 -0.28698581482E+02  0.28698581482E+02  0.00000000000E+00 0.  1.
         25    1    1    2    0    0 -0.17094574026E+03  0.12644406634E+03  0.67382800500E+03  0.71755120260E+03  0.12500000000E+03 0.  0.
         21    1    1    2  502  501  0.17094574026E+03 -0.12644406634E+03  0.16463245841E+04  0.16599985495E+04  0.00000000000E+00 0. -1.
<mgrwt>
<rscale>  3 0.51926370E+03</rscale>
<asrwt>0</asrwt>
<pdfrwt beam="1">  1        2 0.36136157E+00 0.51926370E+03</pdfrwt>
<pdfrwt beam="2">  1       -2 0.44151682E-02 0.51926370E+03</pdfrwt>
<totfact> 0.11182729E+03</totfact>
</mgrwt>
</event>
<event>
 4    0  0.1527156E-002  0.5723907E+03  0.7546771E-02  0.9964402E-01
          1   -1    0    0  502    0  0.00000000000E+00  0.00000000000E+00  0.15469465918E+04  0.15469465918E+04  0.00000000000E+00 0.  1.
         -1   -1    0    0    0  501 -0.00000000000E+00 -0.00000000000E+00 -0.52948029089E+02  0.52948029089E+02  0.00000000000E+00 0. -1.
         25    1    1    2    0    0  0.12536921474E+03 -0.17969269885E+03  0.32955214608E+03  0.41501388291E+03  0.12500000000E+03 0.  0.
         21    1    1    2  502  501 -0.12536921474E+03  0.17969269885E+03  0.11644464166E+04  0.11848807380E+04  0.00000000000E+00 0.  1.
<mgrwt>
<rscale>  3 0.57239068E+03</rscale>
<asrwt>0</asrwt>
<pdfrwt beam="1">  1        1 0.23799175E+00 0.57239068E+03</pdfrwt>
<pdfrwt beam="2">  1       -1 0.81458518E-02 0.57239068E+03</pdfrwt>
<totfact> 0.54448023E+02</totfact>
</mgrwt>
</event>
<event>
 4    0  0.1264838E-002  0.4652941E+03  0.7546771E-02  0.1023257E+00
          2   -1    0    0  502    0  0.00000000000E+00  0.00000000000E+00  0.17868677462E+04  0.17868677462E+04  0.00000000000E+00 0. -1.
         -2   -1    0    0    0  501 -0.00000000000E+00 -0.00000000000E+00 -0.30290235105E+02  0.30290235105E+02  0.00000000000E+00 0.  1.
         25    1    1    2    0    0  0.31276088568E+02 -0.21326923161E+03  0.98656344703E+03  0.10175433130E+04  0.12500000000E+03 0.  0.
         21    1    1    2  502  501 -0.31276088568E+02  0.21326923161E+03  0.77001406404E+03  0.79961466826E+03  0.00000000000E+00 0.  1.
<mgrwt>
<rscale>  3 0.46529408E+03</rscale>
<asrwt>0</asrwt>
<pdfrwt beam="1">  1        2 0.27490265E+00 0.46529408E+03</pdfrwt>
<pdfrwt beam="2">  1       -2 0.46600376E-02 0.46529408E+03</pdfrwt>
<totfact> 0.20791433E+03</totfact>
</mgrwt>
</event>
<event>
 4    0  0.1264838E-002  0.1078417E+04  0.7546771E-02  0.9226487E-01
         -2   -1    0    0    0  501 -0.00000000000E+00  0.00000000000E+00  0.75277338457E+03  0.75277338457E+03  0.00000000000E+00 0.  1.
          2   -1    0    0  502    0  0.00000000000E+00 -0.00000000000E+00 -0.38623291319E+03  0.38623291319E+03  0.00000000000E+00 0. -1.
         25    1    1    2    0    0 -0.92710811999E+02  0.49328903942E+03  0.37186209891E+03  0.63705242459E+03  0.12500000000E+03 0.  0.
         21    1    1    2  502  501  0.92710811999E+02 -0.49328903942E+03 -0.53216275323E+01  0.50195387317E+03  0.00000000000E+00 0. -1.
<mgrwt>
<rscale>  3 0.10784171E+04</rscale>
<asrwt>0</asrwt>
<pdfrwt beam="1">  1        2 0.59420448E-01 0.10784171E+04</pdfrwt>
<pdfrwt beam="2">  1       -2 0.11581129E+00 0.10784171E+04</pdfrwt>
<totfact> 0.47652541E+01</totfact>
</mgrwt>
</event>
<event>
 4    0  0.1264838E-002  0.6696727E+03  0.7546771E-02  0.9770549E-01
          1   -1    0    0  502    0  0.00000000000E+00  0.00000000000E+00  0.22746070662E+03  0.22746070662E+03  0.00000000000E+00 0. -1.
         -1   -1    0    0    0  501 -0.00000000000E+00 -0.00000000000E+00 -0.49289996900E+03  0.49289996900E+03  0.00000000000E+00 0.  1.
         25    1    1    2    0    0  0.68132109150E+02 -0.31059320005E+03 -0.75280471861E+02  0.34986035737E+03  0.12500000000E+03 0.  0.
         21    1    1    2  502  501 -0.68132109150E+02  0.31059320005E+03 -0.19015879053E+03  0.37050031825E+03  0.00000000000E+00 0.  1.
<mgrwt>
<rscale>  3 0.66967268E+03</rscale>
<asrwt>0</asrwt>
<pdfrwt beam="1">  1        1 0.34993955E-01 0.66967268E+03</pdfrwt>
<pdfrwt beam="2">  1       -1 0.75830764E-01 0.66967268E+03</pdfrwt>
<totfact> 0.22307388E+02</totfact>
</mgrwt>
</event>
<event>
 4    0  0.1264838E-002  0.5631432E+03  0.7546771E-02  0.9984968E-01
          2   -1    0    0  502    0  0.00000000000E+00  0.00000000000E+00  0.56240320026E+03  0.56240320026E+03  0.00000000000E+00 0. -1.
         -2   -1    0    0    0  501 -0.00000000000E+00 -0.00000000000E+00 -0.14097103160E+03  0.14097103160E+03  0.00000000000E+00 0.  1.
         25    1    1    2    0    0 -0.19043422291E+03 -0.10903110072E+03  0.41260730833E+03  0.48375899482E+03  0.12500000000E+03 0.  0.
         21    1    1    2  502  501  0.19043422291E+03  0.10903110072E+03  0.88248603250E+01  0.21961523704E+03  0.00000000000E+00 0.  1.
<mgrwt>
<rscale>  3 0.56314318E+03</rscale>
<asrwt>0</asrwt>
<pdfrwt beam="1">  1        2 0.86523568E-01 0.56314318E+03</pdfrwt>
<pdfrwt beam="2">  1       -2 0.21687851E-01 0.56314318E+03</pdfrwt>
<totfact> 0.99478374E+02</totfact>
</mgrwt>
</event>
<event>
 4    0  0.1264838E-002  0.4797509E+03  0.7546771E-02  0.1019204E+00
         -2   -1    0    0    0  501 -0.00000000000E+00  0.00000000000E+00  0.10094445744E+03  0.10094445744E+03  0.00000000000E+00 0. -1.
          2   -1    0    0  502    0  0.00000000000E+00 -0.00000000000E+00 -0.57001877050E+03  0.57001877050E+03  0.00000000000E+00 0.  1.
         25    1    1    2    0    0 -0.26166736586E+02 -0.20631762438E+03 -0.36528873790E+03  0.43853451662E+03  0.12500000000E+03 0.  0.
         21    1    1    2  502  501  0.26166736586E+02  0.20631762438E+03 -0.10378557516E+03  0.23242871132E+03  0.00000000000E+00 0. -1.
<mgrwt>
<rscale>  3 0.47975092E+03</rscale>
<asrwt>0</asrwt>
<pdfrwt beam="1">  1        2 0.87695195E-01 0.47975092E+03</pdfrwt>
<pdfrwt beam="2">  1       -2 0.15529917E-01 0.47975092E+03</pdfrwt>
<totfact> 0.17391681E+03</totfact>
</mgrwt>
</event>
<event>
 4    0  0.1264838E-002  0.4476811E+03  0.7546771E-02  0.1028416E+00
         -2   -1    0    0    0  501 -0.00000000000E+00  0.00000000000E+00  0.10079126424E+03  0.10079126424E+03  0.00000000000E+00 0.  1.
          2   -1    0    0  502    0  0.00000000000E+00 -0.00000000000E+00 -0.49711238534E+03  0.49711238534E+03  0.00000000000E+00 0. -1.
         25    1    1    2    0    0  0.12184559106E+03 -0.16077107198E+03 -0.27187013160E+03  0.36087678521E+03  0.12500000000E+03 0.  0.
         21    1    1    2  502  501 -0.12184559106E+03  0.16077107198E+03 -0.12445098950E+03  0.23702686437E+03  0.00000000000E+00 0.  1.
<mgrwt>
<rscale>  3 0.44768107E+03</rscale>
<asrwt>0</asrwt>
<pdfrwt beam="1">  1        2 0.76478827E-01 0.44768107E+03</pdfrwt>
<pdfrwt beam="2">  1       -2 0.15506349E-01 0.44768107E+03</pdfrwt>
<totfact> 0.20417484E+03</totfact>
</mgrwt>
</event>
<event>
 4    0  0.1264838E-002  0.7666754E+03  0.7546771E-02  0.9609546E-01
         -1   -1    0    0    0  501 -0.00000000000E+00  0.00000000000E+00  0.11375635490E+03  0.11375635490E+03  0.00000000000E+00 0.  1.
          1   -1    0    0  502    0  0.00000000000E+00 -0.00000000000E+00 -0.12917766348E+04  0.12917766348E+04  0.00000000000E+00 0. -1.
         25    1    1    2    0    0 -0.42328564540E+02  0.34532144138E+03 -0.35734051970E+03  0.51415547481E+03  0.12500000000E+03 0.  0.
         21    1    1    2  502  501  0.42328564540E+02 -0.34532144138E+03 -0.82067976019E+03  0.89137751488E+03  0.00000000000E+00 0. -1.
<mgrwt>
<rscale>  3 0.76667542E+03</rscale>
<asrwt>0</asrwt>
<pdfrwt beam="1">  1        1 0.19873488E+00 0.76667542E+03</pdfrwt>
<pdfrwt beam="2">  1       -1 0.17500977E-01 0.76667542E+03</pdfrwt>
<totfact> 0.23742357E+02</totfact>
</mgrwt>
</event>
<event>
 4    0  0.1264838E-002  0.5925348E+03  0.7546771E-02  0.9921016E-01
         -2   -1    0    0    0  501 -0.00000000000E+00  0.00000000000E+00  0.16460250743E+03  0.16460250743E+03  0.00000000000E+00 0.  1.
          2   -1    0    0  502    0  0.00000000000E+00 -0.00000000000E+00 -0.53325044660E+03  0.53325044660E+03  0.00000000000E+00 0. -1.
         25    1    1    2    0    0  0.24846834998E+03  0.13194844393E+03 -0.15549289055E+03  0.34489121736E+03  0.12500000000E+03 0.  0.
         21    1    1    2  502  501 -0.24846834998E+03 -0.13194844393E+03 -0.21315504862E+03  0.35296173667E+03  0.00000000000E+00 0.  1.
<mgrwt>
<rscale>  3 0.59253476E+03</rscale>
<asrwt>0</asrwt>
<pdfrwt beam="1">  1        2 0.82038531E-01 0.59253476E+03</pdfrwt>
<pdfrwt beam="2">  1       -2 0.25323463E-01 0.59253476E+03</pdfrwt>
<totfact> 0.80336831E+02</totfact>
</mgrwt>
</event>
<event>
 4    0  0.1264838E-002  0.4498074E+03  0.7546771E-02  0.1027779E+00
         -2   -1    0    0    0  501 -0.00000000000E+00  0.00000000000E+00  0.39991632352E+03  0.39991632352E+03  0.00000000000E+00 0.  1.
          2   -1    0    0  502    0  0.00000000000E+00 -0.00000000000E+00 -0.12648064722E+03  0.12648064722E+03  0.00000000000E+00 0. -1.
         25    1    1    2    0    0  0.15019158619E+03  0.13783680671E+03  0.10173545910E+03  0.25986843111E+03  0.12500000000E+03 0.  0.
         21    1    1    2  502  501 -0.15019158619E+03 -0.13783680671E+03  0.17170021720E+03  0.26652853963E+03  0.00000000000E+00 0. -1.
<mgrwt>
<rscale>  3 0.44980741E+03</rscale>
<asrwt>0</asrwt>
<pdfrwt beam="1">  1        2 0.19458561E-01 0.44980741E+03</pdfrwt>
<pdfrwt beam="2">  1       -2 0.61525588E-01 0.44980741E+03</pdfrwt>
<totfact> 0.72413140E+02</totfact>
</mgrwt>
</event>
<event>
 4    0  0.1264838E-002  0.4528396E+03  0.7546771E-02  0.1026879E+00
         -2   -1    0    0    0  501 -0.00000000000E+00  0.00000000000E+00  0.14102660911E+03  0.14102660911E+03  0.00000000000E+00 0. -1.
          2   -1    0    0  502    0  0.00000000000E+00 -0.00000000000E+00 -0.36351945353E+03  0.36351945353E+03  0.00000000000E+00 0.  1.
         25    1    1    2    0    0 -0.66260585776E+02 -0.19621646564E+03 -0.15239128977E+03  0.28590115742E+03  0.12500000000E+03 0.  0.
         21    1    1    2  502  501  0.66260585776E+02  0.19621646564E+03 -0.70101554650E+02  0.21864490523E+03  0.00000000000E+00 0. -1.
<mgrwt>
<rscale>  3 0.45283956E+03</rscale>
<asrwt>0</asrwt>
<pdfrwt beam="1">  1        2 0.55926068E-01 0.45283956E+03</pdfrwt>
<pdfrwt beam="2">  1       -2 0.21696402E-01 0.45283956E+03</pdfrwt>
<totfact> 0.16289639E+03</totfact>
</mgrwt>
</event>
<event>
 4    0  0.1264838E-002  0.5681849E+03  0.7546771E-02  0.9973703E-01
         -2   -1    0    0    0  501 -0.00000000000E+00  0.00000000000E+00  0.94075902938E+02  0.94075902938E+02  0.00000000000E+00 0.  1.
          2   -1    0    0  502    0  0.00000000000E+00 -0.00000000000E+00 -0.85790840252E+03  0.85790840252E+03  0.00000000000E+00 0. -1.
         25    1    1    2    0    0  0.20201792226E+03  0.17964620934E+03 -0.39867038932E+03  0.49764151833E+03  0.12500000000E+03 0.  0.
         21    1    1    2  502  501 -0.20201792226E+03 -0.17964620934E+03 -0.36516211026E+03  0.45434278713E+03  0.00000000000E+00 0. -1.
<mgrwt>
<rscale>  3 0.56818486E+03</rscale>
<asrwt>0</asrwt>
<pdfrwt beam="1">  1        2 0.13198590E+00 0.56818486E+03</pdfrwt>
<pdfrwt beam="2">  1       -2 0.14473216E-01 0.56818486E+03</pdfrwt>
<totfact> 0.11728220E+03</totfact>
</mgrwt>
</event>
<event>
 4    0  0.1264838E-002  0.1020398E+04  0.7546771E-02  0.9286452E-01
          2   -1    0    0  502    0  0.00000000000E+00  0.00000000000E+00  0.73952095711E+03  0.73952095711E+03  0.00000000000E+00 0.  1.
         -2   -1    0    0    0  501 -0.00000000000E+00 -0.00000000000E+00 -0.35198837631E+03  0.35198837631E+03  0.00000000000E+00 0. -1.
         25    1    1    2    0    0 -0.54377091258E+02 -0.47581031544E+03  0.33755708959E+02  0.49610157450E+03  0.12500000000E+03 0.  0.
         21    1    1    2  502  501  0.54377091258E+02  0.47581031544E+03  0.35377687184E+03  0.59540775892E+03  0.00000000000E+00 0.  1.
<mgrwt>
<rscale>  3 0.10203975E+04</rscale>
<asrwt>0</asrwt>
<pdfrwt beam="1">  1        2 0.11377245E+00 0.10203975E+04</pdfrwt>
<pdfrwt beam="2">  1       -2 0.54152058E-01 0.10203975E+04</pdfrwt>
<totfact> 0.12233242E+02</totfact>
</mgrwt>
</event>
<event>
 4    0  0.1264838E-002  0.1082503E+04  0.7546771E-02  0.9222416E-01
         -2   -1    0    0    0  501 -0.00000000000E+00  0.00000000000E+00  0.25854338789E+03  0.25854338789E+03  0.00000000000E+00 0. -1.
          2   -1    0    0  502    0  0.00000000000E+00 -0.00000000000E+00 -0.11330902637E+04  0.11330902637E+04  0.00000000000E+00 0.  1.
         25    1    1    2    0    0 -0.46415489028E+03 -0.16662111662E+03 -0.17967114417E+03  0.53954525178E+03  0.12500000000E+03 0.  0.
         21    1    1    2  502  501  0.46415489028E+03  0.16662111662E+03 -0.69487573168E+03  0.85208839985E+03  0.00000000000E+00 0.  1.
<mgrwt>
<rscale>  3 0.10825026E+04</rscale>
<asrwt>0</asrwt>
<pdfrwt beam="1">  1        2 0.17432157E+00 0.10825026E+04</pdfrwt>
<pdfrwt beam="2">  1       -2 0.39775907E-01 0.10825026E+04</pdfrwt>
<totfact> 0.12345426E+02</totfact>
</mgrwt>
</event>
<event>
 4    0  0.1264838E-002  0.6510697E+03  0.7546771E-02  0.9804774E-01
         -3   -1    0    0    0  501 -0.00000000000E+00  0.00000000000E+00  0.13076668821E+03  0.13076668821E+03  0.00000000000E+00 0. -1.
          3   -1    0    0  502    0  0.00000000000E+00 -0.00000000000E+00 -0.81039699215E+03  0.81039699215E+03  0.00000000000E+00 0.  1.
         25    1    1    2    0    0 -0.13293889087E+03 -0.23593048662E+03 -0.58076079601E+03  0.65287368258E+03  0.12500000000E+03 0.  0.
         21    1    1    2  502  501  0.13293889087E+03  0.23593048662E+03 -0.98869507925E+02  0.28828999778E+03  0.00000000000E+00 0.  1.
<mgrwt>
<rscale>  3 0.65106968E+03</rscale>
<asrwt>0</asrwt>
<pdfrwt beam="1">  1        3 0.12467646E+00 0.65106968E+03</pdfrwt>
<pdfrwt beam="2">  1       -3 0.20117952E-01 0.65106968E+03</pdfrwt>
<totfact> 0.30915081E+01</totfact>
</mgrwt>
</event>
<event>
 4    0  0.1264838E-002  0.6638068E+03  0.7546771E-02  0.9781211E-01
          4   -1    0    0  502    0  0.00000000000E+00  0.00000000000E+00  0.12148831704E+04  0.12148831704E+04  0.00000000000E+00 0.  1.
         -4   -1    0    0    0  501 -0.00000000000E+00 -0.00000000000E+00 -0.90675283726E+02  0.90675283726E+02  0.00000000000E+00 0. -1.
         25    1    1    2    0    0  0.18636279244E+03 -0.20357490007E+03  0.26300567352E+03  0.40121168309E+03  0.12500000000E+03 0.  0.
         21    1    1    2  502  501 -0.18636279244E+03  0.20357490007E+03  0.86120221319E+03  0.90434677107E+03  0.00000000000E+00 0.  1.
<mgrwt>
<rscale>  3 0.66380683E+03</rscale>
<asrwt>0</asrwt>
<pdfrwt beam="1">  1        4 0.18690509E+00 0.66380683E+03</pdfrwt>
<pdfrwt beam="2">  1       -4 0.13950045E-01 0.66380683E+03</pdfrwt>
<totfact> 0.14296527E+01</totfact>
</mgrwt>
</event>
<event>
 4    0  0.1264838E-002  0.6234369E+03  0.7546771E-02  0.9857940E-01
         -2   -1    0    0    0  501 -0.00000000000E+00  0.00000000000E+00  0.10530302226E+03  0.10530302226E+03  0.00000000000E+00 0.  1.
          2   -1    0    0  502    0  0.00000000000E+00 -0.00000000000E+00 -0.92275037513E+03  0.92275037513E+03  0.00000000000E+00 0. -1.
         25    1    1    2    0    0  0.28190771455E+03 -0.84751021231E+02 -0.51331493077E+03  0.60479080125E+03  0.12500000000E+03 0.  0.
         21    1    1    2  502  501 -0.28190771455E+03  0.84751021231E+02 -0.30413242210E+03  0.42326259615E+03  0.00000000000E+00 0.  1.
<mgrwt>
<rscale>  3 0.62343694E+03</rscale>
<asrwt>0</asrwt>
<pdfrwt beam="1">  1        2 0.14196160E+00 0.62343694E+03</pdfrwt>
<pdfrwt beam="2">  1       -2 0.16200464E-01 0.62343694E+03</pdfrwt>
<totfact> 0.87595063E+02</totfact>
</mgrwt>
</event>
<event>
 4    0  0.1264838E-002  0.7136494E+03  0.7546771E-02  0.9694171E-01
         -2   -1    0    0    0  501 -0.00000000000E+00  0.00000000000E+00  0.25409131401E+03  0.25409131401E+03  0.00000000000E+00 0. -1.
          2   -1    0    0  502    0  0.00000000000E+00 -0.00000000000E+00 -0.50109487384E+03  0.50109487384E+03  0.00000000000E+00 0.  1.
         25    1    1    2    0    0  0.16651602528E+03  0.28189692630E+03 -0.24530646749E+03  0.42777766039E+03  0.12500000000E+03 0.  0.
         21    1    1    2  502  501 -0.16651602528E+03 -0.28189692630E+03 -0.16970923430E+01  0.32740852746E+03  0.00000000000E+00 0. -1.
<mgrwt>
<rscale>  3 0.71364937E+03</rscale>
<asrwt>0</asrwt>
<pdfrwt beam="1">  1        2 0.77091519E-01 0.71364937E+03</pdfrwt>
<pdfrwt beam="2">  1       -2 0.39090971E-01 0.71364937E+03</pdfrwt>
<totfact> 0.38289684E+02</totfact>
</mgrwt>
</event>
<event>
 4    0  0.1264838E-002  0.4523869E+03  0.7546771E-02  0.1027013E+00
          2   -1    0    0  502    0  0.00000000000E+00  0.00000000000E+00  0.28470115248E+03  0.28470115248E+03  0.00000000000E+00 0. -1.
         -2   -1    0    0    0  501 -0.00000000000E+00 -0.00000000000E+00 -0.17970945022E+03  0.17970945022E+03  0.00000000000E+00 0.  1.
         25    1    1    2    0    0  0.10309855326E+03  0.17553077505E+03  0.82561888629E+01  0.23902621054E+03  0.12500000000E+03 0.  0.
         21    1    1    2  502  501 -0.10309855326E+03 -0.17553077505E+03  0.96735513403E+02  0.22538439215E+03  0.00000000000E+00 0. -1.
<mgrwt>
<rscale>  3 0.45238695E+03</rscale>
<asrwt>0</asrwt>
<pdfrwt beam="1">  1        2 0.43800177E-01 0.45238695E+03</pdfrwt>
<pdfrwt beam="2">  1       -2 0.27647608E-01 0.45238695E+03</pdfrwt>
<totfact> 0.13831463E+03</totfact>
</mgrwt>
</event>
<event>
 4    0  0.1264838E-002  0.4624894E+03  0.7546771E-02  0.1024062E+00
         -2   -1    0    0    0  501 -0.00000000000E+00  0.00000000000E+00  0.35214914573E+02  0.35214914573E+02  0.00000000000E+00 0.  1.
          2   -1    0    0  502    0  0.00000000000E+00 -0.00000000000E+00 -0.15185074057E+04  0.15185074057E+04  0.00000000000E+00 0. -1.
         25    1    1    2    0    0 -0.17923878144E+03  0.10075848160E+03 -0.99929046613E+03  0.10278546824E+04  0.12500000000E+03 0.  0.
         21    1    1    2  502  501  0.17923878144E+03 -0.10075848160E+03 -0.48400202501E+03  0.52586763791E+03  0.00000000000E+00 0.  1.
<mgrwt>
<rscale>  3 0.46248939E+03</rscale>
<asrwt>0</asrwt>
<pdfrwt beam="1">  1        2 0.23361654E+00 0.46248939E+03</pdfrwt>
<pdfrwt beam="2">  1       -2 0.54176788E-02 0.46248939E+03</pdfrwt>
<totfact> 0.23009193E+03</totfact>
</mgrwt>
</event>
<event>
 4    0  0.1264838E-002  0.6017205E+03  0.7546771E-02  0.9901843E-01
         -2   -1    0    0    0  501 -0.00000000000E+00  0.00000000000E+00  0.53335451434E+02  0.53335451434E+02  0.00000000000E+00 0.  1.
          2   -1    0    0  502    0  0.00000000000E+00 -0.00000000000E+00 -0.16971244376E+04  0.16971244376E+04  0.00000000000E+00 0. -1.
         25    1    1    2    0    0  0.14906333827E+03  0.20765549991E+03 -0.47217185886E+03  0.55128209636E+03  0.12500000000E+03 0.  0.
         21    1    1    2  502  501 -0.14906333827E+03 -0.20765549991E+03 -0.11716171273E+04  0.11991777926E+04  0.00000000000E+00 0. -1.
<mgrwt>
<rscale>  3 0.60172053E+03</rscale>
<asrwt>0</asrwt>
<pdfrwt beam="1">  1        2 0.26109604E+00 0.60172053E+03</pdfrwt>
<pdfrwt beam="2">  1       -2 0.82054550E-02 0.60172053E+03</pdfrwt>
<totfact> 0.95223428E+02</totfact>
</mgrwt>
</event>
<event>
 4    0  0.1264838E-002  0.4912099E+03  0.7546771E-02  0.1016099E+00
          2   -1    0    0  502    0  0.00000000000E+00  0.00000000000E+00  0.11419204565E+04  0.11419204565E+04  0.00000000000E+00 0. -1.
         -2   -1    0    0    0  501 -0.00000000000E+00 -0.00000000000E+00 -0.52824864518E+02  0.52824864518E+02  0.00000000000E+00 0.  1.
         25    1    1    2    0    0  0.10919577844E+03 -0.18029228175E+03  0.35777940921E+03  0.43365900261E+03  0.12500000000E+03 0.  0.
         21    1    1    2  502  501 -0.10919577844E+03  0.18029228175E+03  0.73131618280E+03  0.76108631844E+03  0.00000000000E+00 0. -1.
<mgrwt>
<rscale>  3 0.49120991E+03</rscale>
<asrwt>0</asrwt>
<pdfrwt beam="1">  1        2 0.17568005E+00 0.49120991E+03</pdfrwt>
<pdfrwt beam="2">  1       -2 0.81269031E-02 0.49120991E+03</pdfrwt>
<totfact> 0.19883050E+03</totfact>
</mgrwt>
</event>
<event>
 4    0  0.1264838E-002  0.5891534E+03  0.7546771E-02  0.9928168E-01
          1   -1    0    0  502    0  0.00000000000E+00  0.00000000000E+00  0.63528093769E+03  0.63528093769E+03  0.00000000000E+00 0.  1.
         -1   -1    0    0    0  501 -0.00000000000E+00 -0.00000000000E+00 -0.13659377872E+03  0.13659377872E+03  0.00000000000E+00 0. -1.
         25    1    1    2    0    0 -0.25780900940E+03 -0.11177786376E+03  0.27809595386E+03  0.41463494269E+03  0.12500000000E+03 0.  0.
         21    1    1    2  502  501  0.25780900940E+03  0.11177786376E+03  0.22059120511E+03  0.35723977372E+03  0.00000000000E+00 0.  1.
<mgrwt>
<rscale>  3 0.58915337E+03</rscale>
<asrwt>0</asrwt>
<pdfrwt beam="1">  1        1 0.97735527E-01 0.58915337E+03</pdfrwt>
<pdfrwt beam="2">  1       -1 0.21014428E-01 0.58915337E+03</pdfrwt>
<totfact> 0.59857315E+02</totfact>
</mgrwt>
</event>
<event>
 4    0  0.1264838E-002  0.5047219E+03  0.7546771E-02  0.1012554E+00
          2   -1    0    0  502    0  0.00000000000E+00  0.00000000000E+00  0.11136303879E+04  0.11136303879E+04  0.00000000000E+00 0. -1.
         -2   -1    0    0    0  501 -0.00000000000E+00 -0.00000000000E+00 -0.57187768205E+02  0.57187768205E+02  0.00000000000E+00 0.  1.
         25    1    1    2    0    0 -0.21993545645E+03  0.80446834174E+02  0.64328319857E+03  0.69590342124E+03  0.12500000000E+03 0.  0.
         21    1    1    2  502  501  0.21993545645E+03 -0.80446834174E+02  0.41315942117E+03  0.47491473491E+03  0.00000000000E+00 0.  1.
<mgrwt>
<rscale>  3 0.50472185E+03</rscale>
<asrwt>0</asrwt>
<pdfrwt beam="1">  1        2 0.17132774E+00 0.50472185E+03</pdfrwt>
<pdfrwt beam="2">  1       -2 0.87981190E-02 0.50472185E+03</pdfrwt>
<totfact> 0.18211007E+03</totfact>
</mgrwt>
</event>
<event>
 4    0  0.1264838E-002  0.5308344E+03  0.7546771E-02  0.1006030E+00
          1   -1    0    0  502    0  0.00000000000E+00  0.00000000000E+00  0.31987819718E+03  0.31987819718E+03  0.00000000000E+00 0.  1.
         -1   -1    0    0    0  501 -0.00000000000E+00 -0.00000000000E+00 -0.22022847773E+03  0.22022847773E+03  0.00000000000E+00 0. -1.
         25    1    1    2    0    0 -0.10050842631E+03  0.19774958446E+03  0.17143353751E+03  0.30695488218E+03  0.12500000000E+03 0.  0.
         21    1    1    2  502  501  0.10050842631E+03 -0.19774958446E+03 -0.71783818058E+02  0.23315179272E+03  0.00000000000E+00 0. -1.
<mgrwt>
<rscale>  3 0.53083439E+03</rscale>
<asrwt>0</asrwt>
<pdfrwt beam="1">  1        1 0.49212030E-01 0.53083439E+03</pdfrwt>
<pdfrwt beam="2">  1       -1 0.33881304E-01 0.53083439E+03</pdfrwt>
<totfact> 0.66832025E+02</totfact>
</mgrwt>
</event>
<event>
 4    0  0.1264838E-002  0.5132031E+03  0.7546771E-02  0.1010389E+00
         -2   -1    0    0    0  501 -0.00000000000E+00  0.00000000000E+00  0.24447603287E+03  0.24447603287E+03  0.00000000000E+00 0.  1.
          2   -1    0    0  502    0  0.00000000000E+00 -0.00000000000E+00 -0.26932850135E+03  0.26932850135E+03  0.00000000000E+00 0. -1.
         25    1    1    2    0    0 -0.25808576544E+02 -0.23991773633E+03 -0.19253397348E+02  0.27243769221E+03  0.12500000000E+03 0.  0.
         21    1    1    2  502  501  0.25808576544E+02  0.23991773633E+03 -0.55990711331E+01  0.24136684202E+03  0.00000000000E+00 0.  1.
<mgrwt>
<rscale>  3 0.51320313E+03</rscale>
<asrwt>0</asrwt>
<pdfrwt beam="1">  1        2 0.41435154E-01 0.51320313E+03</pdfrwt>
<pdfrwt beam="2">  1       -2 0.37611697E-01 0.51320313E+03</pdfrwt>
<totfact> 0.82881723E+02</totfact>
</mgrwt>
</event>
<event>
 4    0  0.1264838E-002  0.4644685E+03  0.7546771E-02  0.1023493E+00
          2   -1    0    0  502    0  0.00000000000E+00  0.00000000000E+00  0.12627453199E+04  0.12627453199E+04  0.00000000000E+00 0.  1.
         -2   -1    0    0    0  501 -0.00000000000E+00 -0.00000000000E+00 -0.42710705319E+02  0.42710705319E+02  0.00000000000E+00 0. -1.
         25    1    1    2    0    0 -0.19384456193E+03  0.90734947311E+02  0.72273690455E+03  0.76405639717E+03  0.12500000000E+03 0.  0.
         21    1    1    2  502  501  0.19384456193E+03 -0.90734947311E+02  0.49729771007E+03  0.54139962809E+03  0.00000000000E+00 0. -1.
<mgrwt>
<rscale>  3 0.46446848E+03</rscale>
<asrwt>0</asrwt>
<pdfrwt beam="1">  1        2 0.19426848E+00 0.46446848E+03</pdfrwt>
<pdfrwt beam="2">  1       -2 0.65708787E-02 0.46446848E+03</pdfrwt>
<totfact> 0.23653274E+03</totfact>
</mgrwt>
</event>
<event>
 4    0  0.1264838E-002  0.5601331E+03  0.7546771E-02  0.9991754E-01
         -2   -1    0    0    0  501 -0.00000000000E+00  0.00000000000E+00  0.45633078211E+03  0.45633078211E+03  0.00000000000E+00 0.  1.
          2   -1    0    0  502    0  0.00000000000E+00 -0.00000000000E+00 -0.17188684572E+03  0.17188684572E+03  0.00000000000E+00 0. -1.
         25    1    1    2    0    0 -0.19125900106E+03  0.90827320023E+02  0.33011350440E+03  0.41161818878E+03  0.12500000000E+03 0.  0.
         21    1    1    2  502  501  0.19125900106E+03 -0.90827320023E+02 -0.45669568009E+02  0.21659943904E+03  0.00000000000E+00 0. -1.
<mgrwt>
<rscale>  3 0.56013305E+03</rscale>
<asrwt>0</asrwt>
<pdfrwt beam="1">  1        2 0.26444130E-01 0.56013305E+03</pdfrwt>
<pdfrwt beam="2">  1       -2 0.70204736E-01 0.56013305E+03</pdfrwt>
<totfact> 0.38331984E+02</totfact>
</mgrwt>
</event>
<event>
 4    0  0.1590973E-002  0.5462127E+03  0.7546771E-02  0.1002374E+00
          2   -1    0    0  502    0  0.00000000000E+00  0.00000000000E+00  0.84616706717E+03  0.84616706717E+03  0.00000000000E+00 0. -1.
         -2   -1    0    0    0  501 -0.00000000000E+00 -0.00000000000E+00 -0.88146989785E+02  0.88146989785E+02  0.00000000000E+00 0.  1.
         25    1    1    2    0    0 -0.33336316153E+02 -0.20337057449E+03  0.13107378404E+03  0.27436515341E+03  0.12500000000E+03 0.  0.
         21    1    1    2  502  501  0.33336316153E+02  0.20337057449E+03  0.62694629334E+03  0.65994890354E+03  0.00000000000E+00 0. -1.
<mgrwt>
<rscale>  3 0.54621271E+03</rscale>
<asrwt>0</asrwt>
<pdfrwt beam="1">  1        2 0.13017954E+00 0.54621271E+03</pdfrwt>
<pdfrwt beam="2">  1       -2 0.13561076E-01 0.54621271E+03</pdfrwt>
<totfact> 0.13324703E+03</totfact>
</mgrwt>
</event>
<event>
 4    0  0.1264838E-002  0.9649987E+03  0.7546771E-02  0.9347789E-01
         -1   -1    0    0    0  501 -0.00000000000E+00  0.00000000000E+00  0.47144809812E+03  0.47144809812E+03  0.00000000000E+00 0. -1.
          1   -1    0    0  502    0  0.00000000000E+00 -0.00000000000E+00 -0.49380966240E+03  0.49380966240E+03  0.00000000000E+00 0.  1.
         25    1    1    2    0    0 -0.43283016555E+03 -0.15423963783E+03 -0.12941214541E+03  0.49346157040E+03  0.12500000000E+03 0.  0.
         21    1    1    2  502  501  0.43283016555E+03  0.15423963783E+03  0.10705058114E+03  0.47179619012E+03  0.00000000000E+00 0. -1.
<mgrwt>
<rscale>  3 0.96499871E+03</rscale>
<asrwt>0</asrwt>
<pdfrwt beam="1">  1        1 0.75970717E-01 0.96499871E+03</pdfrwt>
<pdfrwt beam="2">  1       -1 0.72530476E-01 0.96499871E+03</pdfrwt>
<totfact> 0.86892537E+01</totfact>
</mgrwt>
</event>
<event>
 4    0  0.1264838E-002  0.9344946E+03  0.7546771E-02  0.9383460E-01
         -2   -1    0    0    0  501 -0.00000000000E+00  0.00000000000E+00  0.28931698614E+03  0.28931698614E+03  0.00000000000E+00 0.  1.
          2   -1    0    0  502    0  0.00000000000E+00 -0.00000000000E+00 -0.75460497283E+03  0.75460497283E+03  0.00000000000E+00 0. -1.
         25    1    1    2    0    0  0.37634122302E+03  0.19534904373E+03 -0.40809281556E+02  0.44394184585E+03  0.12500000000E+03 0.  0.
         21    1    1    2  502  501 -0.37634122302E+03 -0.19534904373E+03 -0.42447870514E+03  0.59998011313E+03  0.00000000000E+00 0. -1.
<mgrwt>
<rscale>  3 0.93449459E+03</rscale>
<asrwt>0</asrwt>
<pdfrwt beam="1">  1        2 0.11609307E+00 0.93449459E+03</pdfrwt>
<pdfrwt beam="2">  1       -2 0.44510306E-01 0.93449459E+03</pdfrwt>
<totfact> 0.17830159E+02</totfact>
</mgrwt>
</event>
<event>
 4    0  0.1264838E-002  0.1707606E+04  0.7546771E-02  0.8757038E-01
          2   -1    0    0  502    0  0.00000000000E+00  0.00000000000E+00  0.13565277396E+04  0.13565277396E+04  0.00000000000E+00 0.  1.
         -2   -1    0    0    0  501 -0.00000000000E+00 -0.00000000000E+00 -0.53738631688E+03  0.53738631688E+03  0.00000000000E+00 0. -1.
         25    1    1    2    0    0  0.10662940660E+03  0.37782647847E+03 -0.42343198513E+03  0.59079804012E+03  0.12500000000E+03 0.  0.
         21    1    1    2  502  501 -0.10662940660E+03 -0.37782647847E+03  0.12425734079E+04  0.13031160164E+04  0.00000000000E+00 0.  1.
<mgrwt>
<rscale>  3 0.17076059E+04</rscale>
<asrwt>0</asrwt>
<pdfrwt beam="1">  1        2 0.20869657E+00 0.17076059E+04</pdfrwt>
<pdfrwt beam="2">  1       -2 0.82674819E-01 0.17076059E+04</pdfrwt>
<totfact> 0.18707858E+01</totfact>
</mgrwt>
</event>
<event>
 4    0  0.1264838E-002  0.4710987E+03  0.7546771E-02  0.1021611E+00
         -2   -1    0    0    0  501 -0.00000000000E+00  0.00000000000E+00  0.24524923509E+03  0.24524923509E+03  0.00000000000E+00 0. -1.
          2   -1    0    0  502    0  0.00000000000E+00 -0.00000000000E+00 -0.22623312232E+03  0.22623312232E+03  0.00000000000E+00 0.  1.
         25    1    1    2    0    0  0.19101955859E+03 -0.10656681025E+03  0.11649821211E+00  0.25193247187E+03  0.12500000000E+03 0.  0.
         21    1    1    2  502  501 -0.19101955859E+03  0.10656681025E+03  0.18899614549E+02  0.21954988554E+03  0.00000000000E+00 0. -1.
<mgrwt>
<rscale>  3 0.47109872E+03</rscale>
<asrwt>0</asrwt>
<pdfrwt beam="1">  1        2 0.34805096E-01 0.47109872E+03</pdfrwt>
<pdfrwt beam="2">  1       -2 0.37730652E-01 0.47109872E+03</pdfrwt>
<totfact> 0.99851900E+02</totfact>
</mgrwt>
</event>
<event>
 4    0  0.1264838E-002  0.4464908E+03  0.7546771E-02  0.1028774E+00
         -2   -1    0    0    0  501 -0.00000000000E+00  0.00000000000E+00  0.10421812050E+03  0.10421812050E+03  0.00000000000E+00 0. -1.
          2   -1    0    0  502    0  0.00000000000E+00 -0.00000000000E+00 -0.47821349415E+03  0.47821349415E+03  0.00000000000E+00 0.  1.
         25    1    1    2    0    0 -0.13826626956E+03 -0.15223893773E+03 -0.20968708757E+03  0.31919888808E+03  0.12500000000E+03 0.  0.
         21    1    1    2  502  501  0.13826626956E+03  0.15223893773E+03 -0.16430828609E+03  0.26323272657E+03  0.00000000000E+00 0. -1.
<mgrwt>
<rscale>  3 0.44649081E+03</rscale>
<asrwt>0</asrwt>
<pdfrwt beam="1">  1        2 0.73571307E-01 0.44649081E+03</pdfrwt>
<pdfrwt beam="2">  1       -2 0.16033557E-01 0.44649081E+03</pdfrwt>
<totfact> 0.20169402E+03</totfact>
</mgrwt>
</event>
<event>
 4    0  0.1264838E-002  0.5410261E+03  0.7546771E-02  0.1003593E+00
          2   -1    0    0  502    0  0.00000000000E+00  0.00000000000E+00  0.34802447575E+03  0.34802447575E+03  0.00000000000E+00 0. -1.
         -2   -1    0    0    0  501 -0.00000000000E+00 -0.00000000000E+00 -0.21026480445E+03  0.21026480445E+03  0.00000000000E+00 0.  1.
         25    1    1    2    0    0 -0.17309941543E+03  0.15059428281E+03 -0.44787537711E+02  0.26509049242E+03  0.12500000000E+03 0.  0.
         21    1    1    2  502  501  0.17309941543E+03 -0.15059428281E+03  0.18254720902E+03  0.29319878778E+03  0.00000000000E+00 0.  1.
<mgrwt>
<rscale>  3 0.54102606E+03</rscale>
<asrwt>0</asrwt>
<pdfrwt beam="1">  1        2 0.53542227E-01 0.54102606E+03</pdfrwt>
<pdfrwt beam="2">  1       -2 0.32348431E-01 0.54102606E+03</pdfrwt>
<totfact> 0.83089241E+02</totfact>
</mgrwt>
</event>
<event>
 4    0  0.1264838E-002  0.9200372E+03  0.7546771E-02  0.9400875E-01
         -2   -1    0    0    0  501 -0.00000000000E+00  0.00000000000E+00  0.11504982915E+03  0.11504982915E+03  0.00000000000E+00 0.  1.
          2   -1    0    0  502    0  0.00000000000E+00 -0.00000000000E+00 -0.18393519537E+04  0.18393519537E+04  0.00000000000E+00 0. -1.
         25    1    1    2    0    0 -0.28423788275E+03  0.23002288883E+03 -0.14407951353E+04  0.14917162349E+04  0.12500000000E+03 0.  0.
         21    1    1    2  502  501  0.28423788275E+03 -0.23002288883E+03 -0.28350698920E+03  0.46268554797E+03  0.00000000000E+00 0.  1.
<mgrwt>
<rscale>  3 0.92003723E+03</rscale>
<asrwt>0</asrwt>
<pdfrwt beam="1">  1        2 0.28297724E+00 0.92003723E+03</pdfrwt>
<pdfrwt beam="2">  1       -2 0.17699973E-01 0.92003723E+03</pdfrwt>
<totfact> 0.21822162E+02</totfact>
</mgrwt>
</event>
<event>
 4    0  0.1264838E-002  0.6368812E+03  0.7546771E-02  0.9831712E-01
         -1   -1    0    0    0  501 -0.00000000000E+00  0.00000000000E+00  0.16647506801E+03  0.16647506801E+03  0.00000000000E+00 0.  1.
          1   -1    0    0  502    0  0.00000000000E+00 -0.00000000000E+00 -0.60912677005E+03  0.60912677005E+03  0.00000000000E+00 0. -1.
         25    1    1    2    0    0 -0.13642227863E+03  0.17191577432E+03 -0.48983769737E+03  0.55111889945E+03  0.12500000000E+03 0.  0.
         21    1    1    2  502  501  0.13642227863E+03 -0.17191577432E+03  0.47185995331E+02  0.22448293860E+03  0.00000000000E+00 0.  1.
<mgrwt>
<rscale>  3 0.63688121E+03</rscale>
<asrwt>0</asrwt>
<pdfrwt beam="1">  1        1 0.93711810E-01 0.63688121E+03</pdfrwt>
<pdfrwt beam="2">  1       -1 0.25611549E-01 0.63688121E+03</pdfrwt>
<totfact> 0.45500539E+02</totfact>
</mgrwt>
</event>
<event>
 4    0  0.1264838E-002  0.5508323E+03  0.7546771E-02  0.1001301E+00
         -2   -1    0    0    0  501 -0.00000000000E+00  0.00000000000E+00  0.62004083795E+02  0.62004083795E+02  0.00000000000E+00 0. -1.
          2   -1    0    0  502    0  0.00000000000E+00 -0.00000000000E+00 -0.12233720934E+04  0.12233720934E+04  0.00000000000E+00 0.  1.
         25    1    1    2    0    0  0.12150290670E+03  0.17163721170E+03 -0.97224809573E+03  0.10025535639E+04  0.12500000000E+03 0.  0.
         21    1    1    2  502  501 -0.12150290670E+03 -0.17163721170E+03 -0.18911991383E+03  0.28282261328E+03  0.00000000000E+00 0. -1.
<mgrwt>
<rscale>  3 0.55083234E+03</rscale>
<asrwt>0</asrwt>
<pdfrwt beam="1">  1        2 0.18821108E+00 0.55083234E+03</pdfrwt>
<pdfrwt beam="2">  1       -2 0.95390904E-02 0.55083234E+03</pdfrwt>
<totfact> 0.13762704E+03</totfact>
</mgrwt>
</event>
<event>
 4    0  0.1264838E-002  0.4891698E+03  0.7546771E-02  0.1016645E+00
          2   -1    0    0  502    0  0.00000000000E+00  0.00000000000E+00  0.21870489687E+03  0.21870489687E+03  0.00000000000E+00 0.  1.
         -2   -1    0    0    0  501 -0.00000000000E+00 -0.00000000000E+00 -0.27352739121E+03  0.27352739121E+03  0.00000000000E+00 0. -1.
         25    1    1    2    0    0 -0.18900839806E+03 -0.89054153537E+02 -0.12256962332E+03  0.27258600360E+03  0.12500000000E+03 0.  0.
         21    1    1    2  502  501  0.18900839806E+03  0.89054153537E+02  0.67747128973E+02  0.21964628447E+03  0.00000000000E+00 0.  1.
<mgrwt>
<rscale>  3 0.48916983E+03</rscale>
<asrwt>0</asrwt>
<pdfrwt beam="1">  1        2 0.33646907E-01 0.48916983E+03</pdfrwt>
<pdfrwt beam="2">  1       -2 0.42081137E-01 0.48916983E+03</pdfrwt>
<totfact> 0.83962096E+02</totfact>
</mgrwt>
</event>
<event>
 4    0  0.1264838E-002  0.5240040E+03  0.7546771E-02  0.1007697E+00
         -2   -1    0    0    0  501 -0.00000000000E+00  0.00000000000E+00  0.81233190296E+02  0.81233190296E+02  0.00000000000E+00 0. -1.
          2   -1    0    0  502    0  0.00000000000E+00 -0.00000000000E+00 -0.84503706207E+03  0.84503706207E+03  0.00000000000E+00 0.  1.
         25    1    1    2    0    0 -0.96415675553E+01  0.24690232751E+03 -0.40176113864E+03  0.48794541874E+03  0.12500000000E+03 0.  0.
         21    1    1    2  502  501  0.96415675553E+01 -0.24690232751E+03 -0.36204273314E+03  0.43832483362E+03  0.00000000000E+00 0.  1.
<mgrwt>
<rscale>  3 0.52400403E+03</rscale>
<asrwt>0</asrwt>
<pdfrwt beam="1">  1        2 0.13000570E+00 0.52400403E+03</pdfrwt>
<pdfrwt beam="2">  1       -2 0.12497414E-01 0.52400403E+03</pdfrwt>
<totfact> 0.15286427E+03</totfact>
</mgrwt>
</event>
<event>
 4    0  0.1264838E-002  0.5605102E+03  0.7546771E-02  0.9990901E-01
         -2   -1    0    0    0  501 -0.00000000000E+00  0.00000000000E+00  0.12617709291E+03  0.12617709291E+03  0.00000000000E+00 0. -1.
          2   -1    0    0  502    0  0.00000000000E+00 -0.00000000000E+00 -0.62248151436E+03  0.62248151436E+03  0.00000000000E+00 0.  1.
         25    1    1    2    0    0  0.15828545466E+02  0.25812276275E+03 -0.34546172796E+03  0.44927353471E+03  0.12500000000E+03 0.  0.
         21    1    1    2  502  501 -0.15828545466E+02 -0.25812276275E+03 -0.15084269349E+03  0.29938507257E+03  0.00000000000E+00 0.  1.
<mgrwt>
<rscale>  3 0.56051015E+03</rscale>
<asrwt>0</asrwt>
<pdfrwt beam="1">  1        2 0.95766388E-01 0.56051015E+03</pdfrwt>
<pdfrwt beam="2">  1       -2 0.19411860E-01 0.56051015E+03</pdfrwt>
<totfact> 0.10697707E+03</totfact>
</mgrwt>
</event>
<event>
 4    0  0.1264838E-002  0.6116509E+03  0.7546771E-02  0.9881525E-01
         -2   -1    0    0    0  501 -0.00000000000E+00  0.00000000000E+00  0.12219598526E+03  0.12219598526E+03  0.00000000000E+00 0. -1.
          2   -1    0    0  502    0  0.00000000000E+00 -0.00000000000E+00 -0.76540330496E+03  0.76540330496E+03  0.00000000000E+00 0.  1.
         25    1    1    2    0    0  0.20425537557E+03 -0.11880751405E+03 -0.58656839222E+03  0.64461070623E+03  0.12500000000E+03 0.  0.
         21    1    1    2  502  501 -0.20425537557E+03  0.11880751405E+03 -0.56638927484E+02  0.24298858399E+03  0.00000000000E+00 0. -1.
<mgrwt>
<rscale>  3 0.61165092E+03</rscale>
<asrwt>0</asrwt>
<pdfrwt beam="1">  1        2 0.11775436E+00 0.61165092E+03</pdfrwt>
<pdfrwt beam="2">  1       -2 0.18799382E-01 0.61165092E+03</pdfrwt>
<totfact> 0.87303911E+02</totfact>
</mgrwt>
</event>
<event>
 4    0  0.1264838E-002  0.5430080E+03  0.7546771E-02  0.1003125E+00
         -4   -1    0    0    0  501 -0.00000000000E+00  0.00000000000E+00  0.26978387563E+03  0.26978387563E+03  0.00000000000E+00 0. -1.
          4   -1    0    0  502    0  0.00000000000E+00 -0.00000000000E+00 -0.27323507225E+03  0.27323507225E+03  0.00000000000E+00 0.  1.
         25    1    1    2    0    0  0.16951600845E+02 -0.20644779317E+03 -0.15413842647E+03  0.28686530392E+03  0.12500000000E+03 0.  0.
         21    1    1    2  502  501 -0.16951600845E+02  0.20644779317E+03  0.15068722985E+03  0.25615364396E+03  0.00000000000E+00 0. -1.
<mgrwt>
<rscale>  3 0.54300798E+03</rscale>
<asrwt>0</asrwt>
<pdfrwt beam="1">  1        4 0.42036165E-01 0.54300798E+03</pdfrwt>
<pdfrwt beam="2">  1       -4 0.41505212E-01 0.54300798E+03</pdfrwt>
<totfact> 0.61105380E+01</totfact>
</mgrwt>
</event>
<event>
 4    0  0.1264838E-002  0.6048520E+03  0.7546771E-02  0.9895390E-01
         -1   -1    0    0    0  501 -0.00000000000E+00  0.00000000000E+00  0.56975831957E+02  0.56975831957E+02  0.00000000000E+00 0. -1.
          1   -1    0    0  502    0  0.00000000000E+00 -0.00000000000E+00 -0.16052682501E+04  0.16052682501E+04  0.00000000000E+00 0.  1.
         25    1    1    2    0    0  0.43862808966E+02 -0.26912337949E+03 -0.53985076767E+03  0.61758820483E+03  0.12500000000E+03 0.  0.
         21    1    1    2  502  501 -0.43862808966E+02  0.26912337949E+03 -0.10084416505E+04  0.10446558772E+04  0.00000000000E+00 0.  1.
<mgrwt>
<rscale>  3 0.60485203E+03</rscale>
<asrwt>0</asrwt>
<pdfrwt beam="1">  1        1 0.24696429E+00 0.60485203E+03</pdfrwt>
<pdfrwt beam="2">  1       -1 0.87655146E-02 0.60485203E+03</pdfrwt>
<totfact> 0.44250966E+02</totfact>
</mgrwt>
</event>
<event>
 4    0  0.1264838E-002  0.4983353E+03  0.7546771E-02  0.1014214E+00
          1   -1    0    0  502    0  0.00000000000E+00  0.00000000000E+00  0.12883674560E+04  0.12883674560E+04  0.00000000000E+00 0. -1.
         -1   -1    0    0    0  501 -0.00000000000E+00 -0.00000000000E+00 -0.48188520858E+02  0.48188520858E+02  0.00000000000E+00 0.  1.
         25    1    1    2    0    0 -0.23153834576E+03 -0.18554412933E+02  0.72277252634E+03  0.76940197337E+03  0.12500000000E+03 0.  0.
         21    1    1    2  502  501  0.23153834576E+03  0.18554412933E+02  0.51740640878E+03  0.56715400347E+03  0.00000000000E+00 0. -1.
<mgrwt>
<rscale>  3 0.49833532E+03</rscale>
<asrwt>0</asrwt>
<pdfrwt beam="1">  1        1 0.19821035E+00 0.49833532E+03</pdfrwt>
<pdfrwt beam="2">  1       -1 0.74136196E-02 0.49833532E+03</pdfrwt>
<totfact> 0.95232053E+02</totfact>
</mgrwt>
</event>
<event>
 4    0  0.1264838E-002  0.9174767E+03  0.7546771E-02  0.9403995E-01
          2   -1    0    0  502    0  0.00000000000E+00  0.00000000000E+00  0.13113947551E+03  0.13113947551E+03  0.00000000000E+00 0.  1.
         -2   -1    0    0    0  501 -0.00000000000E+00 -0.00000000000E+00 -0.16047104728E+04  0.16047104728E+04  0.00000000000E+00 0. -1.
         25    1    1    2    0    0  0.16700378220E+03  0.28880884679E+03 -0.17846925910E+03  0.39846842999E+03  0.12500000000E+03 0.  0.
         21    1    1    2  502  501 -0.16700378220E+03 -0.28880884679E+03 -0.12951017382E+04  0.13373815183E+04  0.00000000000E+00 0. -1.
<mgrwt>
<rscale>  3 0.91747673E+03</rscale>
<asrwt>0</asrwt>
<pdfrwt beam="1">  1        2 0.20175303E-01 0.91747673E+03</pdfrwt>
<pdfrwt beam="2">  1       -2 0.24687855E+00 0.91747673E+03</pdfrwt>
<totfact> 0.19134150E+01</totfact>
</mgrwt>
</event>
<event>
 4    0  0.1264838E-002  0.4674974E+03  0.7546771E-02  0.1022629E+00
          2   -1    0    0  502    0  0.00000000000E+00  0.00000000000E+00  0.21456686117E+03  0.21456686117E+03  0.00000000000E+00 0. -1.
         -2   -1    0    0    0  501 -0.00000000000E+00 -0.00000000000E+00 -0.25464535996E+03  0.25464535996E+03  0.00000000000E+00 0.  1.
         25    1    1    2    0    0 -0.21566876061E+03 -0.14015421526E+00 -0.45896125161E+02  0.25346496455E+03  0.12500000000E+03 0.  0.
         21    1    1    2  502  501  0.21566876061E+03  0.14015421526E+00  0.58176263787E+01  0.21574725659E+03  0.00000000000E+00 0.  1.
<mgrwt>
<rscale>  3 0.46749740E+03</rscale>
<asrwt>0</asrwt>
<pdfrwt beam="1">  1        2 0.33010286E-01 0.46749740E+03</pdfrwt>
<pdfrwt beam="2">  1       -2 0.39176209E-01 0.46749740E+03</pdfrwt>
<totfact> 0.98512547E+02</totfact>
</mgrwt>
</event>
<event>
 4    0  0.1264838E-002  0.1088217E+04  0.7546771E-02  0.9216753E-01
         -2   -1    0    0    0  501 -0.00000000000E+00  0.00000000000E+00  0.21103372999E+03  0.21103372999E+03  0.00000000000E+00 0.  1.
          2   -1    0    0  502    0  0.00000000000E+00 -0.00000000000E+00 -0.14028766028E+04  0.14028766028E+04  0.00000000000E+00 0. -1.
         25    1    1    2    0    0 -0.46642956791E+03 -0.18192113628E+02 -0.99730535771E+03  0.11082104815E+04  0.12500000000E+03 0.  0.
         21    1    1    2  502  501  0.46642956791E+03  0.18192113628E+02 -0.19453751513E+03  0.50569985131E+03  0.00000000000E+00 0.  1.
<mgrwt>
<rscale>  3 0.10882174E+04</rscale>
<asrwt>0</asrwt>
<pdfrwt beam="1">  1        2 0.21582717E+00 0.10882174E+04</pdfrwt>
<pdfrwt beam="2">  1       -2 0.32466727E-01 0.10882174E+04</pdfrwt>
<totfact> 0.12647581E+02</totfact>
</mgrwt>
</event>
<event>
 4    0  0.1264838E-002  0.4729492E+03  0.7546771E-02  0.1021091E+00
         -2   -1    0    0    0  501 -0.00000000000E+00  0.00000000000E+00  0.12265567514E+03  0.12265567514E+03  0.00000000000E+00 0. -1.
          2   -1    0    0  502    0  0.00000000000E+00 -0.00000000000E+00 -0.45591226363E+03  0.45591226363E+03  0.00000000000E+00 0.  1.
         25    1    1    2    0    0 -0.14657115851E+03  0.16050896479E+03 -0.13706619783E+03  0.28575929533E+03  0.12500000000E+03 0.  0.
         21    1    1    2  502  501  0.14657115851E+03 -0.16050896479E+03 -0.19619039067E+03  0.29280864344E+03  0.00000000000E+00 0. -1.
<mgrwt>
<rscale>  3 0.47294916E+03</rscale>
<asrwt>0</asrwt>
<pdfrwt beam="1">  1        2 0.70140348E-01 0.47294916E+03</pdfrwt>
<pdfrwt beam="2">  1       -2 0.18870104E-01 0.47294916E+03</pdfrwt>
<totfact> 0.16137967E+03</totfact>
</mgrwt>
</event>
<event>
 4    0  0.1264838E-002  0.8479678E+03  0.7546771E-02  0.9493069E-01
          1   -1    0    0  502    0  0.00000000000E+00  0.00000000000E+00  0.18200576245E+04  0.18200576245E+04  0.00000000000E+00 0.  1.
         -1   -1    0    0    0  501 -0.00000000000E+00 -0.00000000000E+00 -0.98767401122E+02  0.98767401122E+02  0.00000000000E+00 0. -1.
         25    1    1    2    0    0  0.85080906741E+02  0.32480505340E+03  0.14303764053E+04  0.14745639166E+04  0.12500000000E+03 0.  0.
         21    1    1    2  502  501 -0.85080906741E+02 -0.32480505340E+03  0.29091381807E+03  0.44426110898E+03  0.00000000000E+00 0. -1.
<mgrwt>
<rscale>  3 0.84796783E+03</rscale>
<asrwt>0</asrwt>
<pdfrwt beam="1">  1        1 0.28000884E+00 0.84796783E+03</pdfrwt>
<pdfrwt beam="2">  1       -1 0.15194986E-01 0.84796783E+03</pdfrwt>
<totfact> 0.12936896E+02</totfact>
</mgrwt>
</event>
<event>
 4    0  0.1264838E-002  0.5480588E+03  0.7546771E-02  0.1001944E+00
          2   -1    0    0  502    0  0.00000000000E+00  0.00000000000E+00  0.13680653749E+03  0.13680653749E+03  0.00000000000E+00 0.  1.
         -2   -1    0    0    0  501 -0.00000000000E+00 -0.00000000000E+00 -0.54889266811E+03  0.54889266811E+03  0.00000000000E+00 0. -1.
         25    1    1    2    0    0  0.18399736493E+03  0.17737429025E+03 -0.15853095001E+03  0.32568962412E+03  0.12500000000E+03 0.  0.
         21    1    1    2  502  501 -0.18399736493E+03 -0.17737429025E+03 -0.25355518061E+03  0.36000958149E+03  0.00000000000E+00 0.  1.
<mgrwt>
<rscale>  3 0.54805878E+03</rscale>
<asrwt>0</asrwt>
<pdfrwt beam="1">  1        2 0.21047160E-01 0.54805878E+03</pdfrwt>
<pdfrwt beam="2">  1       -2 0.84445025E-01 0.54805878E+03</pdfrwt>
<totfact> 0.33090470E+02</totfact>
</mgrwt>
</event>
<event>
 4    0  0.1264838E-002  0.4520507E+03  0.7546771E-02  0.1027112E+00
         -1   -1    0    0    0  501 -0.00000000000E+00  0.00000000000E+00  0.48439611521E+02  0.48439611521E+02  0.00000000000E+00 0.  1.
          1   -1    0    0  502    0  0.00000000000E+00 -0.00000000000E+00 -0.10546628079E+04  0.10546628079E+04  0.00000000000E+00 0. -1.
         25    1    1    2    0    0  0.18216578905E+03 -0.98682043009E+02 -0.47931352752E+03  0.53692548643E+03  0.12500000000E+03 0.  0.
         21    1    1    2  502  501 -0.18216578905E+03  0.98682043009E+02 -0.52690966884E+03  0.56617693298E+03  0.00000000000E+00 0.  1.
<mgrwt>
<rscale>  3 0.45205069E+03</rscale>
<asrwt>0</asrwt>
<pdfrwt beam="1">  1        1 0.16225581E+00 0.45205069E+03</pdfrwt>
<pdfrwt beam="2">  1       -1 0.74522481E-02 0.45205069E+03</pdfrwt>
<totfact> 0.13945017E+03</totfact>
</mgrwt>
</event>
<event>
 4    0  0.1264838E-002  0.5638179E+03  0.7546771E-02  0.9983453E-01
          3   -1    0    0  502    0  0.00000000000E+00  0.00000000000E+00  0.42915403588E+03  0.42915403588E+03  0.00000000000E+00 0.  1.
         -3   -1    0    0    0  501 -0.00000000000E+00 -0.00000000000E+00 -0.18518446995E+03  0.18518446995E+03  0.00000000000E+00 0. -1.
         25    1    1    2    0    0 -0.20729646317E+03 -0.16074419516E+03  0.18807347056E+03  0.34613169495E+03  0.12500000000E+03 0.  0.
         21    1    1    2  502  501  0.20729646317E+03  0.16074419516E+03  0.55896095368E+02  0.26820681088E+03  0.00000000000E+00 0. -1.
<mgrwt>
<rscale>  3 0.56381792E+03</rscale>
<asrwt>0</asrwt>
<pdfrwt beam="1">  1        3 0.66023698E-01 0.56381792E+03</pdfrwt>
<pdfrwt beam="2">  1       -3 0.28489918E-01 0.56381792E+03</pdfrwt>
<totfact> 0.69448758E+01</totfact>
</mgrwt>
</event>
<event>
 4    0  0.1264838E-002  0.4890538E+03  0.7546771E-02  0.1016676E+00
         -4   -1    0    0    0  501 -0.00000000000E+00  0.00000000000E+00  0.53710777564E+03  0.53710777564E+03  0.00000000000E+00 0. -1.
          4   -1    0    0  502    0  0.00000000000E+00 -0.00000000000E+00 -0.11132479447E+03  0.11132479447E+03  0.00000000000E+00 0.  1.
         25    1    1    2    0    0  0.13864779263E+03 -0.18128817846E+03  0.21069711728E+03  0.33482366894E+03  0.12500000000E+03 0.  0.
         21    1    1    2  502  501 -0.13864779263E+03  0.18128817846E+03  0.21508586389E+03  0.31360890117E+03  0.00000000000E+00 0.  1.
<mgrwt>
<rscale>  3 0.48905383E+03</rscale>
<asrwt>0</asrwt>
<pdfrwt beam="1">  1        4 0.17126892E-01 0.48905383E+03</pdfrwt>
<pdfrwt beam="2">  1       -4 0.82631964E-01 0.48905383E+03</pdfrwt>
<totfact> 0.76911787E+01</totfact>
</mgrwt>
</event>
<event>
 4    0  0.1264838E-002  0.5062098E+03  0.7546771E-02  0.1012171E+00
          2   -1    0    0  502    0  0.00000000000E+00  0.00000000000E+00  0.37056090803E+03  0.37056090803E+03  0.00000000000E+00 0.  1.
         -2   -1    0    0    0  501 -0.00000000000E+00 -0.00000000000E+00 -0.17287869839E+03  0.17287869839E+03  0.00000000000E+00 0. -1.
         25    1    1    2    0    0  0.83671523427E+01  0.21369063533E+03 -0.64607119233E+01  0.24779111700E+03  0.12500000000E+03 0.  0.
         21    1    1    2  502  501 -0.83671523427E+01 -0.21369063533E+03  0.20414292157E+03  0.29564848941E+03  0.00000000000E+00 0.  1.
<mgrwt>
<rscale>  3 0.50620979E+03</rscale>
<asrwt>0</asrwt>
<pdfrwt beam="1">  1        2 0.57009370E-01 0.50620979E+03</pdfrwt>
<pdfrwt beam="2">  1       -2 0.26596723E-01 0.50620979E+03</pdfrwt>
<totfact> 0.11107894E+03</totfact>
</mgrwt>
</event>
<event>
 4    0  0.1264838E-002  0.6463009E+03  0.7546771E-02  0.9813745E-01
         -2   -1    0    0    0  501 -0.00000000000E+00  0.00000000000E+00  0.76564697027E+02  0.76564697027E+02  0.00000000000E+00 0. -1.
          2   -1    0    0  502    0  0.00000000000E+00 -0.00000000000E+00 -0.13638951968E+04  0.13638951968E+04  0.00000000000E+00 0.  1.
         25    1    1    2    0    0 -0.86838755540E+00 -0.28931951434E+03 -0.92238272966E+03  0.97474172756E+03  0.12500000000E+03 0.  0.
         21    1    1    2  502  501  0.86838755540E+00  0.28931951434E+03 -0.36494777010E+03  0.46571816625E+03  0.00000000000E+00 0. -1.
<mgrwt>
<rscale>  3 0.64630093E+03</rscale>
<asrwt>0</asrwt>
<pdfrwt beam="1">  1        2 0.20983005E+00 0.64630093E+03</pdfrwt>
<pdfrwt beam="2">  1       -2 0.11779183E-01 0.64630093E+03</pdfrwt>
<totfact> 0.80787636E+02</totfact>
</mgrwt>
</event>
<event>
 4    0  0.1264838E-002  0.5118429E+03  0.7546771E-02  0.1010733E+00
         -2   -1    0    0    0  501 -0.00000000000E+00  0.00000000000E+00  0.78006185949E+02  0.78006185949E+02  0.00000000000E+00 0.  1.
          2   -1    0    0  502    0  0.00000000000E+00 -0.00000000000E+00 -0.83962314606E+03  0.83962314606E+03  0.00000000000E+00 0. -1.
         25    1    1    2    0    0 -0.23706841125E+03 -0.37699522041E+02 -0.37280192616E+03  0.46068314678E+03  0.12500000000E+03 0.  0.
         21    1    1    2  502  501  0.23706841125E+03  0.37699522041E+02 -0.38881503395E+03  0.45694618523E+03  0.00000000000E+00 0. -1.
<mgrwt>
<rscale>  3 0.51184294E+03</rscale>
<asrwt>0</asrwt>
<pdfrwt beam="1">  1        2 0.12917278E+00 0.51184294E+03</pdfrwt>
<pdfrwt beam="2">  1       -2 0.12000953E-01 0.51184294E+03</pdfrwt>
<totfact> 0.16483238E+03</totfact>
</mgrwt>
</event>
<event>
 4    0  0.1264838E-002  0.5127250E+03  0.7546771E-02  0.1010510E+00
          2   -1    0    0  502    0  0.00000000000E+00  0.00000000000E+00  0.10471760752E+04  0.10471760752E+04  0.00000000000E+00 0. -1.
         -2   -1    0    0    0  501 -0.00000000000E+00 -0.00000000000E+00 -0.62760928764E+02  0.62760928764E+02  0.00000000000E+00 0.  1.
         25    1    1    2    0    0 -0.15452447949E+03  0.16981320109E+03  0.68093906015E+03  0.72939518895E+03  0.12500000000E+03 0.  0.
         21    1    1    2  502  501  0.15452447949E+03 -0.16981320109E+03  0.30347608629E+03  0.38054181501E+03  0.00000000000E+00 0.  1.
<mgrwt>
<rscale>  3 0.51272505E+03</rscale>
<asrwt>0</asrwt>
<pdfrwt beam="1">  1        2 0.16110400E+00 0.51272505E+03</pdfrwt>
<pdfrwt beam="2">  1       -2 0.96555283E-02 0.51272505E+03</pdfrwt>
<totfact> 0.17212094E+03</totfact>
</mgrwt>
</event>
<event>
 4    0  0.1264838E-002  0.5299152E+03  0.7546771E-02  0.1006253E+00
          1   -1    0    0  502    0  0.00000000000E+00  0.00000000000E+00  0.12264115044E+04  0.12264115044E+04  0.00000000000E+00 0. -1.
         -1   -1    0    0    0  501 -0.00000000000E+00 -0.00000000000E+00 -0.57242239591E+02  0.57242239591E+02  0.00000000000E+00 0.  1.
         25    1    1    2    0    0  0.17859665696E+03 -0.16288370130E+03  0.77371725374E+03  0.82017757514E+03  0.12500000000E+03 0.  0.
         21    1    1    2  502  501 -0.17859665696E+03  0.16288370130E+03  0.39545201102E+03  0.46347616881E+03  0.00000000000E+00 0.  1.
<mgrwt>
<rscale>  3 0.52991524E+03</rscale>
<asrwt>0</asrwt>
<pdfrwt beam="1">  1        1 0.18867867E+00 0.52991524E+03</pdfrwt>
<pdfrwt beam="2">  1       -1 0.88064993E-02 0.52991524E+03</pdfrwt>
<totfact> 0.80467246E+02</totfact>
</mgrwt>
</event>
<event>
 4    0  0.1264838E-002  0.5936095E+03  0.7546771E-02  0.9918754E-01
          2   -1    0    0  502    0  0.00000000000E+00  0.00000000000E+00  0.10494248097E+03  0.10494248097E+03  0.00000000000E+00 0. -1.
         -2   -1    0    0    0  501 -0.00000000000E+00 -0.00000000000E+00 -0.83944144453E+03  0.83944144453E+03  0.00000000000E+00 0.  1.
         25    1    1    2    0    0  0.17798317390E+03  0.18145988815E+03 -0.18325488593E+03  0.33736190422E+03  0.12500000000E+03 0.  0.
         21    1    1    2  502  501 -0.17798317390E+03 -0.18145988815E+03 -0.55124407763E+03  0.60702202128E+03  0.00000000000E+00 0.  1.
<mgrwt>
<rscale>  3 0.59360953E+03</rscale>
<asrwt>0</asrwt>
<pdfrwt beam="1">  1        2 0.16144998E-01 0.59360953E+03</pdfrwt>
<pdfrwt beam="2">  1       -2 0.12914483E+00 0.59360953E+03</pdfrwt>
<totfact> 0.16432615E+02</totfact>
</mgrwt>
</event>
<event>
 4    0  0.1264838E-002  0.5397787E+03  0.7546771E-02  0.1003888E+00
         -2   -1    0    0    0  501 -0.00000000000E+00  0.00000000000E+00  0.98112386291E+02  0.98112386291E+02  0.00000000000E+00 0. -1.
          2   -1    0    0  502    0  0.00000000000E+00 -0.00000000000E+00 -0.74241664640E+03  0.74241664640E+03  0.00000000000E+00 0.  1.
         25    1    1    2    0    0 -0.20110214157E+03 -0.82004275029E+02 -0.54875371276E+03  0.60325981943E+03  0.12500000000E+03 0.  0.
         21    1    1    2  502  501  0.20110214157E+03  0.82004275029E+02 -0.95550547348E+02  0.23726921327E+03  0.00000000000E+00 0. -1.
<mgrwt>
<rscale>  3 0.53977873E+03</rscale>
<asrwt>0</asrwt>
<pdfrwt beam="1">  1        2 0.11421795E+00 0.53977873E+03</pdfrwt>
<pdfrwt beam="2">  1       -2 0.15094213E-01 0.53977873E+03</pdfrwt>
<totfact> 0.13215357E+03</totfact>
</mgrwt>
</event>
<event>
 4    0  0.1264838E-002  0.4380525E+03  0.7546771E-02  0.1031346E+00
          2   -1    0    0  502    0  0.00000000000E+00  0.00000000000E+00  0.87174304770E+02  0.87174304770E+02  0.00000000000E+00 0.  1.
         -2   -1    0    0    0  501 -0.00000000000E+00 -0.00000000000E+00 -0.55030552498E+03  0.55030552498E+03  0.00000000000E+00 0. -1.
         25    1    1    2    0    0  0.17960784978E+03 -0.90393013402E+02 -0.26052443920E+03  0.35203389041E+03  0.12500000000E+03 0.  0.
         21    1    1    2  502  501 -0.17960784978E+03  0.90393013402E+02 -0.20260678101E+03  0.28544593934E+03  0.00000000000E+00 0.  1.
<mgrwt>
<rscale>  3 0.43805252E+03</rscale>
<asrwt>0</asrwt>
<pdfrwt beam="1">  1        2 0.13411432E-01 0.43805252E+03</pdfrwt>
<pdfrwt beam="2">  1       -2 0.84662388E-01 0.43805252E+03</pdfrwt>
<totfact> 0.56322905E+02</totfact>
</mgrwt>
</event>
<event>
 4    0  0.1264838E-002  0.4480885E+03  0.7546771E-02  0.1028294E+00
         -1   -1    0    0    0  501 -0.00000000000E+00  0.00000000000E+00  0.14980284491E+03  0.14980284491E+03  0.00000000000E+00 0.  1.
          1   -1    0    0  502    0  0.00000000000E+00 -0.00000000000E+00 -0.33507924162E+03  0.33507924162E+03  0.00000000000E+00 0. -1.
         25    1    1    2    0    0  0.17227217269E+03 -0.11134946507E+03 -0.73101322578E+02  0.25108804873E+03  0.12500000000E+03 0.  0.
         21    1    1    2  502  501 -0.17227217269E+03  0.11134946507E+03 -0.11217507413E+03  0.23379403780E+03  0.00000000000E+00 0. -1.
<mgrwt>
<rscale>  3 0.44808849E+03</rscale>
<asrwt>0</asrwt>
<pdfrwt beam="1">  1        1 0.51550652E-01 0.44808849E+03</pdfrwt>
<pdfrwt beam="2">  1       -1 0.23046592E-01 0.44808849E+03</pdfrwt>
<totfact> 0.12191373E+03</totfact>
</mgrwt>
</event>
<event>
 4    0  0.1264838E-002  0.5085280E+03  0.7546771E-02  0.1011577E+00
         -2   -1    0    0    0  501 -0.00000000000E+00  0.00000000000E+00  0.47223929802E+03  0.47223929802E+03  0.00000000000E+00 0.  1.
          2   -1    0    0  502    0  0.00000000000E+00 -0.00000000000E+00 -0.13690129289E+03  0.13690129289E+03  0.00000000000E+00 0. -1.
         25    1    1    2    0    0  0.20188126633E+03 -0.50490383263E+02  0.31835401893E+03  0.40034935478E+03  0.12500000000E+03 0.  0.
         21    1    1    2  502  501 -0.20188126633E+03  0.50490383263E+02  0.16983986202E+02  0.20879123613E+03  0.00000000000E+00 0. -1.
<mgrwt>
<rscale>  3 0.50852796E+03</rscale>
<asrwt>0</asrwt>
<pdfrwt beam="1">  1        2 0.21061738E-01 0.50852796E+03</pdfrwt>
<pdfrwt beam="2">  1       -2 0.72652199E-01 0.50852796E+03</pdfrwt>
<totfact> 0.46229028E+02</totfact>
</mgrwt>
</event>
<event>
 4    0  0.1264838E-002  0.5161113E+03  0.7546771E-02  0.1009657E+00
         -2   -1    0    0    0  501 -0.00000000000E+00  0.00000000000E+00  0.31839127340E+03  0.31839127340E+03  0.00000000000E+00 0. -1.
          2   -1    0    0  502    0  0.00000000000E+00 -0.00000000000E+00 -0.20915372608E+03  0.20915372608E+03  0.00000000000E+00 0.  1.
         25    1    1    2    0    0  0.92396313981E+02 -0.18067894823E+03 -0.78654549545E+02  0.25098505799E+03  0.12500000000E+03 0.  0.
         21    1    1    2  502  501 -0.92396313981E+02  0.18067894823E+03  0.18789209687E+03  0.27655994149E+03  0.00000000000E+00 0. -1.
<mgrwt>
<rscale>  3 0.51611131E+03</rscale>
<asrwt>0</asrwt>
<pdfrwt beam="1">  1        2 0.32177496E-01 0.51611131E+03</pdfrwt>
<pdfrwt beam="2">  1       -2 0.48983273E-01 0.51611131E+03</pdfrwt>
<totfact> 0.65285341E+02</totfact>
</mgrwt>
</event>
<event>
 4    0  0.1264838E-002  0.5685099E+03  0.7546771E-02  0.9972981E-01
         -1   -1    0    0    0  501 -0.00000000000E+00  0.00000000000E+00  0.20295386238E+04  0.20295386238E+04  0.00000000000E+00 0. -1.
          1   -1    0    0  502    0  0.00000000000E+00 -0.00000000000E+00 -0.39812437582E+02  0.39812437582E+02  0.00000000000E+00 0.  1.
         25    1    1    2    0    0 -0.11013852146E+03  0.17530965081E+03  0.40921699141E+03  0.47533936681E+03  0.12500000000E+03 0.  0.
         21    1    1    2  502  501  0.11013852146E+03 -0.17530965081E+03  0.15805091948E+04  0.15940116945E+04  0.00000000000E+00 0. -1.
<mgrwt>
<rscale>  3 0.56850991E+03</rscale>
<asrwt>0</asrwt>
<pdfrwt beam="1">  1        1 0.61249920E-02 0.56850991E+03</pdfrwt>
<pdfrwt beam="2">  1       -1 0.31223663E+00 0.56850991E+03</pdfrwt>
<totfact> 0.38921507E+01</totfact>
</mgrwt>
</event>
<event>
 4    0  0.1264838E-002  0.5153986E+03  0.7546771E-02  0.1009836E+00
         -2   -1    0    0    0  501 -0.00000000000E+00  0.00000000000E+00  0.13372736232E+03  0.13372736232E+03  0.00000000000E+00 0.  1.
          2   -1    0    0  502    0  0.00000000000E+00 -0.00000000000E+00 -0.49659933795E+03  0.49659933795E+03  0.00000000000E+00 0. -1.
         25    1    1    2    0    0 -0.81509076686E+02  0.22838396717E+03 -0.19800197020E+03  0.33709456573E+03  0.12500000000E+03 0.  0.
         21    1    1    2  502  501  0.81509076686E+02 -0.22838396717E+03 -0.16487000543E+03  0.29323213455E+03  0.00000000000E+00 0. -1.
<mgrwt>
<rscale>  3 0.51539856E+03</rscale>
<asrwt>0</asrwt>
<pdfrwt beam="1">  1        2 0.76399899E-01 0.51539856E+03</pdfrwt>
<pdfrwt beam="2">  1       -2 0.20573440E-01 0.51539856E+03</pdfrwt>
<totfact> 0.12610405E+03</totfact>
</mgrwt>
</event>
<event>
 4    0  0.1264838E-002  0.4645837E+03  0.7546771E-02  0.1023460E+00
          1   -1    0    0  502    0  0.00000000000E+00  0.00000000000E+00  0.17959909123E+03  0.17959909123E+03  0.00000000000E+00 0.  1.
         -1   -1    0    0    0  501 -0.00000000000E+00 -0.00000000000E+00 -0.30044413278E+03  0.30044413278E+03  0.00000000000E+00 0. -1.
         25    1    1    2    0    0  0.39559372340E+02 -0.20804374400E+03 -0.10590275665E+03  0.26774528422E+03  0.12500000000E+03 0.  0.
         21    1    1    2  502  501 -0.39559372340E+02  0.20804374400E+03 -0.14942284908E+02  0.21229793978E+03  0.00000000000E+00 0. -1.
<mgrwt>
<rscale>  3 0.46458366E+03</rscale>
<asrwt>0</asrwt>
<pdfrwt beam="1">  1        1 0.27630630E-01 0.46458366E+03</pdfrwt>
<pdfrwt beam="2">  1       -1 0.46222174E-01 0.46458366E+03</pdfrwt>
<totfact> 0.80177121E+02</totfact>
</mgrwt>
</event>
<event>
 4    0  0.1264838E-002  0.6077109E+03  0.7546771E-02  0.9889536E-01
         -2   -1    0    0    0  501 -0.00000000000E+00  0.00000000000E+00  0.10136479984E+03  0.10136479984E+03  0.00000000000E+00 0.  1.
          2   -1    0    0  502    0  0.00000000000E+00 -0.00000000000E+00 -0.91085011216E+03  0.91085011216E+03  0.00000000000E+00 0. -1.
         25    1    1    2    0    0  0.81141763576E+02 -0.23935235597E+03 -0.66212820336E+03  0.71966123544E+03  0.12500000000E+03 0.  0.
         21    1    1    2  502  501 -0.81141763576E+02  0.23935235597E+03 -0.14735710896E+03  0.29255367656E+03  0.00000000000E+00 0. -1.
<mgrwt>
<rscale>  3 0.60771092E+03</rscale>
<asrwt>0</asrwt>
<pdfrwt beam="1">  1        2 0.14013078E+00 0.60771092E+03</pdfrwt>
<pdfrwt beam="2">  1       -2 0.15594585E-01 0.60771092E+03</pdfrwt>
<totfact> 0.95195153E+02</totfact>
</mgrwt>
</event>
<event>
 4    0  0.1264838E-002  0.1285202E+04  0.7546771E-02  0.9041383E-01
          1   -1    0    0  502    0  0.00000000000E+00  0.00000000000E+00  0.32082712629E+03  0.32082712629E+03  0.00000000000E+00 0.  1.
         -1   -1    0    0    0  501 -0.00000000000E+00 -0.00000000000E+00 -0.12870989220E+04  0.12870989220E+04  0.00000000000E+00 0. -1.
         25    1    1    2    0    0  0.41564001567E+03  0.35431604838E+03 -0.89669436249E+03  0.10573468043E+04  0.12500000000E+03 0.  0.
         21    1    1    2  502  501 -0.41564001567E+03 -0.35431604838E+03 -0.69577433252E+02  0.55057924405E+03  0.00000000000E+00 0. -1.
<mgrwt>
<rscale>  3 0.12852023E+04</rscale>
<asrwt>0</asrwt>
<pdfrwt beam="1">  1        1 0.49358021E-01 0.12852023E+04</pdfrwt>
<pdfrwt beam="2">  1       -1 0.19801521E+00 0.12852023E+04</pdfrwt>
<totfact> 0.12269936E+01</totfact>
</mgrwt>
</event>
<event>
 4    0  0.1264838E-002  0.5714632E+03  0.7546771E-02  0.9966446E-01
          1   -1    0    0  502    0  0.00000000000E+00  0.00000000000E+00  0.58935429359E+03  0.58935429359E+03  0.00000000000E+00 0.  1.
         -1   -1    0    0    0  501 -0.00000000000E+00 -0.00000000000E+00 -0.13852881583E+03  0.13852881583E+03  0.00000000000E+00 0. -1.
         25    1    1    2    0    0  0.24249106677E+03  0.23202826169E+02  0.81890297046E+02  0.28578192622E+03  0.12500000000E+03 0.  0.
         21    1    1    2  502  501 -0.24249106677E+03 -0.23202826169E+02  0.36893518071E+03  0.44210118319E+03  0.00000000000E+00 0.  1.
<mgrwt>
<rscale>  3 0.57146322E+03</rscale>
<asrwt>0</asrwt>
<pdfrwt beam="1">  1        1 0.90669890E-01 0.57146322E+03</pdfrwt>
<pdfrwt beam="2">  1       -1 0.21312126E-01 0.57146322E+03</pdfrwt>
<totfact> 0.65155479E+02</totfact>
</mgrwt>
</event>
<event>
 4    0  0.1264838E-002  0.4779786E+03  0.7546771E-02  0.1019692E+00
          2   -1    0    0  502    0  0.00000000000E+00  0.00000000000E+00  0.86378032332E+03  0.86378032332E+03  0.00000000000E+00 0. -1.
         -2   -1    0    0    0  501 -0.00000000000E+00 -0.00000000000E+00 -0.66123151137E+02  0.66123151137E+02  0.00000000000E+00 0.  1.
         25    1    1    2    0    0 -0.20897142642E+03  0.14669764680E+02  0.57280959008E+03  0.62259142745E+03  0.12500000000E+03 0.  0.
         21    1    1    2  502  501  0.20897142642E+03 -0.14669764680E+02  0.22484758210E+03  0.30731204700E+03  0.00000000000E+00 0.  1.
<mgrwt>
<rscale>  3 0.47797856E+03</rscale>
<asrwt>0</asrwt>
<pdfrwt beam="1">  1        2 0.13288927E+00 0.47797856E+03</pdfrwt>
<pdfrwt beam="2">  1       -2 0.10172793E-01 0.47797856E+03</pdfrwt>
<totfact> 0.20771420E+03</totfact>
</mgrwt>
</event>
<event>
 4    0  0.1264838E-002  0.4923444E+03  0.7546771E-02  0.1015797E+00
          2   -1    0    0  502    0  0.00000000000E+00  0.00000000000E+00  0.16521247236E+04  0.16521247236E+04  0.00000000000E+00 0. -1.
         -2   -1    0    0    0  501 -0.00000000000E+00 -0.00000000000E+00 -0.36680501525E+02  0.36680501525E+02  0.00000000000E+00 0.  1.
         25    1    1    2    0    0 -0.45544873381E+02  0.21701884933E+03  0.10731326334E+04  0.11029098627E+04  0.12500000000E+03 0.  0.
         21    1    1    2  502  501  0.45544873381E+02 -0.21701884933E+03  0.54231158870E+03  0.58589536241E+03  0.00000000000E+00 0.  1.
<mgrwt>
<rscale>  3 0.49234445E+03</rscale>
<asrwt>0</asrwt>
<pdfrwt beam="1">  1        2 0.25417298E+00 0.49234445E+03</pdfrwt>
<pdfrwt beam="2">  1       -2 0.56431554E-02 0.49234445E+03</pdfrwt>
<totfact> 0.18257871E+03</totfact>
</mgrwt>
</event>
<event>
 4    0  0.1264838E-002  0.4679317E+03  0.7546771E-02  0.1022506E+00
         -1   -1    0    0    0  501 -0.00000000000E+00  0.00000000000E+00  0.42390982381E+02  0.42390982381E+02  0.00000000000E+00 0.  1.
          1   -1    0    0  502    0  0.00000000000E+00 -0.00000000000E+00 -0.12913129987E+04  0.12913129987E+04  0.00000000000E+00 0. -1.
         25    1    1    2    0    0 -0.17954619423E+03  0.12233984094E+03 -0.66460321993E+03  0.71030015661E+03  0.12500000000E+03 0.  0.
         21    1    1    2  502  501  0.17954619423E+03 -0.12233984094E+03 -0.58431879635E+03  0.62340382442E+03  0.00000000000E+00 0.  1.
<mgrwt>
<rscale>  3 0.46793173E+03</rscale>
<asrwt>0</asrwt>
<pdfrwt beam="1">  1        1 0.19866355E+00 0.46793173E+03</pdfrwt>
<pdfrwt beam="2">  1       -1 0.65216892E-02 0.46793173E+03</pdfrwt>
<totfact> 0.11564584E+03</totfact>
</mgrwt>
</event>
<event>
 4    0  0.1264838E-002  0.4733325E+03  0.7546771E-02  0.1020984E+00
         -1   -1    0    0    0  501 -0.00000000000E+00  0.00000000000E+00  0.20065170411E+04  0.20065170411E+04  0.00000000000E+00 0. -1.
          1   -1    0    0  502    0  0.00000000000E+00 -0.00000000000E+00 -0.27914500722E+02  0.27914500722E+02  0.00000000000E+00 0.  1.
         25    1    1    2    0    0 -0.20726987906E+02 -0.21797375191E+03  0.95946935601E+03  0.99204264509E+03  0.12500000000E+03 0.  0.
         21    1    1    2  502  501  0.20726987906E+02  0.21797375191E+03  0.10191331843E+04  0.10423888967E+04  0.00000000000E+00 0. -1.
<mgrwt>
<rscale>  3 0.47333253E+03</rscale>
<asrwt>0</asrwt>
<pdfrwt beam="1">  1        1 0.42945401E-02 0.47333253E+03</pdfrwt>
<pdfrwt beam="2">  1       -1 0.30869482E+00 0.47333253E+03</pdfrwt>
<totfact> 0.68343556E+01</totfact>
</mgrwt>
</event>
<event>
 4    0  0.1264838E-002  0.4714875E+03  0.7546771E-02  0.1021501E+00
          1   -1    0    0  502    0  0.00000000000E+00  0.00000000000E+00  0.20017849448E+04  0.20017849448E+04  0.00000000000E+00 0. -1.
         -1   -1    0    0    0  501 -0.00000000000E+00 -0.00000000000E+00 -0.27762779921E+02  0.27762779921E+02  0.00000000000E+00 0.  1.
         25    1    1    2    0    0 -0.10190059011E+03 -0.19302860667E+03  0.97100747531E+03  0.10030574711E+04  0.12500000000E+03 0.  0.
         21    1    1    2  502  501  0.10190059011E+03  0.19302860667E+03  0.10030146896E+04  0.10264902536E+04  0.00000000000E+00 0. -1.
<mgrwt>
<rscale>  3 0.47148750E+03</rscale>
<asrwt>0</asrwt>
<pdfrwt beam="1">  1        1 0.30796680E+00 0.47148750E+03</pdfrwt>
<pdfrwt beam="2">  1       -1 0.42711985E-02 0.47148750E+03</pdfrwt>
<totfact> 0.73603203E+02</totfact>
</mgrwt>
</event>
<event>
 4    0  0.1264838E-002  0.5500311E+03  0.7546771E-02  0.1001487E+00
          1   -1    0    0  502    0  0.00000000000E+00  0.00000000000E+00  0.42867823004E+03  0.42867823004E+03  0.00000000000E+00 0. -1.
         -1   -1    0    0    0  501 -0.00000000000E+00 -0.00000000000E+00 -0.17643431996E+03  0.17643431996E+03  0.00000000000E+00 0.  1.
         25    1    1    2    0    0 -0.23668331974E+03 -0.20792010867E+02  0.14292479666E+02  0.26885047245E+03  0.12500000000E+03 0.  0.
         21    1    1    2  502  501  0.23668331974E+03  0.20792010867E+02  0.23795143041E+03  0.33626207755E+03  0.00000000000E+00 0. -1.
<mgrwt>
<rscale>  3 0.55003110E+03</rscale>
<asrwt>0</asrwt>
<pdfrwt beam="1">  1        1 0.65950497E-01 0.55003110E+03</pdfrwt>
<pdfrwt beam="2">  1       -1 0.27143742E-01 0.55003110E+03</pdfrwt>
<totfact> 0.66974266E+02</totfact>
</mgrwt>
</event>
<event>
 4    0  0.1264838E-002  0.5148019E+03  0.7546771E-02  0.1009986E+00
         -2   -1    0    0    0  501 -0.00000000000E+00  0.00000000000E+00  0.84645992245E+03  0.84645992245E+03  0.00000000000E+00 0.  1.
          2   -1    0    0  502    0  0.00000000000E+00 -0.00000000000E+00 -0.78273330892E+02  0.78273330892E+02  0.00000000000E+00 0. -1.
         25    1    1    2    0    0 -0.10517367923E+03  0.21796190538E+03  0.42506997840E+03  0.50485481233E+03  0.12500000000E+03 0.  0.
         21    1    1    2  502  501  0.10517367923E+03 -0.21796190538E+03  0.34311661315E+03  0.41987844101E+03  0.00000000000E+00 0. -1.
<mgrwt>
<rscale>  3 0.51480186E+03</rscale>
<asrwt>0</asrwt>
<pdfrwt beam="1">  1        2 0.12042051E-01 0.51480186E+03</pdfrwt>
<pdfrwt beam="2">  1       -2 0.13022460E+00 0.51480186E+03</pdfrwt>
<totfact> 0.23073836E+02</totfact>
</mgrwt>
</event>
<event>
 4    0  0.1264838E-002  0.6755275E+03  0.7546771E-02  0.9760024E-01
         -2   -1    0    0    0  501 -0.00000000000E+00  0.00000000000E+00  0.55177479093E+02  0.55177479093E+02  0.00000000000E+00 0.  1.
          2   -1    0    0  502    0  0.00000000000E+00 -0.00000000000E+00 -0.20675889538E+04  0.20675889538E+04  0.00000000000E+00 0. -1.
         25    1    1    2    0    0  0.31581461114E+03  0.54526637812E+02 -0.84968058289E+03  0.91667557826E+03  0.12500000000E+03 0.  0.
         21    1    1    2  502  501 -0.31581461114E+03 -0.54526637812E+02 -0.11627308918E+04  0.12060908546E+04  0.00000000000E+00 0. -1.
<mgrwt>
<rscale>  3 0.67552749E+03</rscale>
<asrwt>0</asrwt>
<pdfrwt beam="1">  1        2 0.31809066E+00 0.67552749E+03</pdfrwt>
<pdfrwt beam="2">  1       -2 0.84888415E-02 0.67552749E+03</pdfrwt>
<totfact> 0.56496635E+02</totfact>
</mgrwt>
</event>
<event>
 4    0  0.1264838E-002  0.5458333E+03  0.7546771E-02  0.1002463E+00
          2   -1    0    0  502    0  0.00000000000E+00  0.00000000000E+00  0.10145506718E+04  0.10145506718E+04  0.00000000000E+00 0. -1.
         -2   -1    0    0    0  501 -0.00000000000E+00 -0.00000000000E+00 -0.73415259933E+02  0.73415259933E+02  0.00000000000E+00 0.  1.
         25    1    1    2    0    0 -0.69793961609E+02  0.22404026308E+03  0.27862980236E+03  0.38512959289E+03  0.12500000000E+03 0.  0.
         21    1    1    2  502  501  0.69793961609E+02 -0.22404026308E+03  0.66250560948E+03  0.70283633881E+03  0.00000000000E+00 0. -1.
<mgrwt>
<rscale>  3 0.54583331E+03</rscale>
<asrwt>0</asrwt>
<pdfrwt beam="1">  1        2 0.15608471E+00 0.54583331E+03</pdfrwt>
<pdfrwt beam="2">  1       -2 0.11294656E-01 0.54583331E+03</pdfrwt>
<totfact> 0.13974054E+03</totfact>
</mgrwt>
</event>
<event>
 4    0  0.1264838E-002  0.5914580E+03  0.7546771E-02  0.9923288E-01
         -1   -1    0    0    0  501 -0.00000000000E+00  0.00000000000E+00  0.11620033704E+03  0.11620033704E+03  0.00000000000E+00 0. -1.
          1   -1    0    0  502    0  0.00000000000E+00 -0.00000000000E+00 -0.75262806589E+03  0.75262806589E+03  0.00000000000E+00 0.  1.
         25    1    1    2    0    0 -0.10895443409E+03  0.22157344912E+03 -0.13073632405E+03  0.30607654025E+03  0.12500000000E+03 0.  0.
         21    1    1    2  502  501  0.10895443409E+03 -0.22157344912E+03 -0.50569140480E+03  0.56275186268E+03  0.00000000000E+00 0.  1.
<mgrwt>
<rscale>  3 0.59145798E+03</rscale>
<asrwt>0</asrwt>
<pdfrwt beam="1">  1        1 0.11578893E+00 0.59145798E+03</pdfrwt>
<pdfrwt beam="2">  1       -1 0.17876975E-01 0.59145798E+03</pdfrwt>
<totfact> 0.60690533E+02</totfact>
</mgrwt>
</event>
<event>
 4    0  0.1264838E-002  0.6602732E+03  0.7546771E-02  0.9787691E-01
         -1   -1    0    0    0  501 -0.00000000000E+00  0.00000000000E+00  0.36644548170E+03  0.36644548170E+03  0.00000000000E+00 0. -1.
          1   -1    0    0  502    0  0.00000000000E+00 -0.00000000000E+00 -0.29742536579E+03  0.29742536579E+03  0.00000000000E+00 0.  1.
         25    1    1    2    0    0  0.12269229045E+03  0.28383204199E+03 -0.40187145486E+02  0.33593754309E+03  0.12500000000E+03 0.  0.
         21    1    1    2  502  501 -0.12269229045E+03 -0.28383204199E+03  0.10920726140E+03  0.32793330440E+03  0.00000000000E+00 0. -1.
<mgrwt>
<rscale>  3 0.66027322E+03</rscale>
<asrwt>0</asrwt>
<pdfrwt beam="1">  1        1 0.45757749E-01 0.66027322E+03</pdfrwt>
<pdfrwt beam="2">  1       -1 0.56376228E-01 0.66027322E+03</pdfrwt>
<totfact> 0.28633270E+02</totfact>
</mgrwt>
</event>
<event>
 4    0  0.1264838E-002  0.5113147E+03  0.7546771E-02  0.1010867E+00
         -2   -1    0    0    0  501 -0.00000000000E+00  0.00000000000E+00  0.34174522568E+02  0.34174522568E+02  0.00000000000E+00 0. -1.
          2   -1    0    0  502    0  0.00000000000E+00 -0.00000000000E+00 -0.19125555026E+04  0.19125555026E+04  0.00000000000E+00 0.  1.
         25    1    1    2    0    0  0.86357892540E+02  0.21829882139E+03 -0.79860564322E+03  0.84172919304E+03  0.12500000000E+03 0.  0.
         21    1    1    2  502  501 -0.86357892540E+02 -0.21829882139E+03 -0.10797753368E+04  0.11050008322E+04  0.00000000000E+00 0. -1.
<mgrwt>
<rscale>  3 0.51131466E+03</rscale>
<asrwt>0</asrwt>
<pdfrwt beam="1">  1        2 0.29423931E+00 0.51131466E+03</pdfrwt>
<pdfrwt beam="2">  1       -2 0.52576189E-02 0.51131466E+03</pdfrwt>
<totfact> 0.14741738E+03</totfact>
</mgrwt>
</event>
<event>
 4    0  0.1264838E-002  0.5038121E+03  0.7546771E-02  0.1012789E+00
          2   -1    0    0  502    0  0.00000000000E+00  0.00000000000E+00  0.12625216650E+03  0.12625216650E+03  0.00000000000E+00 0. -1.
         -2   -1    0    0    0  501 -0.00000000000E+00 -0.00000000000E+00 -0.50261844092E+03  0.50261844092E+03  0.00000000000E+00 0.  1.
         25    1    1    2    0    0 -0.23354937783E+03  0.34293595066E+02 -0.21571645706E+03  0.34333650024E+03  0.12500000000E+03 0.  0.
         21    1    1    2  502  501  0.23354937783E+03 -0.34293595066E+02 -0.16064981736E+03  0.28553410719E+03  0.00000000000E+00 0. -1.
<mgrwt>
<rscale>  3 0.50381214E+03</rscale>
<asrwt>0</asrwt>
<pdfrwt beam="1">  1        2 0.19423410E-01 0.50381214E+03</pdfrwt>
<pdfrwt beam="2">  1       -2 0.77325914E-01 0.50381214E+03</pdfrwt>
<totfact> 0.44292837E+02</totfact>
</mgrwt>
</event>
<event>
 4    0  0.1264838E-002  0.4534267E+03  0.7546771E-02  0.1026705E+00
          4   -1    0    0  502    0  0.00000000000E+00  0.00000000000E+00  0.29511405205E+03  0.29511405205E+03  0.00000000000E+00 0.  1.
         -4   -1    0    0    0  501 -0.00000000000E+00 -0.00000000000E+00 -0.17416638177E+03  0.17416638177E+03  0.00000000000E+00 0. -1.
         25    1    1    2    0    0  0.21676354675E+02  0.20661481701E+03  0.92913368030E+02  0.25964868750E+03  0.12500000000E+03 0.  0.
         21    1    1    2  502  501 -0.21676354675E+02 -0.20661481701E+03  0.28034302254E+02  0.20963174632E+03  0.00000000000E+00 0. -1.
<mgrwt>
<rscale>  3 0.45342672E+03</rscale>
<asrwt>0</asrwt>
<pdfrwt beam="1">  1        4 0.45402162E-01 0.45342672E+03</pdfrwt>
<pdfrwt beam="2">  1       -4 0.26794828E-01 0.45342672E+03</pdfrwt>
<totfact> 0.12141745E+02</totfact>
</mgrwt>
</event>
<event>
 4    0  0.1264838E-002  0.5224935E+03  0.7546771E-02  0.1008069E+00
          2   -1    0    0  502    0  0.00000000000E+00  0.00000000000E+00  0.12340751305E+04  0.12340751305E+04  0.00000000000E+00 0.  1.
         -2   -1    0    0    0  501 -0.00000000000E+00 -0.00000000000E+00 -0.55304474424E+02  0.55304474424E+02  0.00000000000E+00 0. -1.
         25    1    1    2    0    0 -0.20294252346E+03 -0.47465514914E+02  0.94696972778E+03  0.97765807329E+03  0.12500000000E+03 0.  0.
         21    1    1    2  502  501  0.20294252346E+03  0.47465514914E+02  0.23180092833E+03  0.31172153167E+03  0.00000000000E+00 0. -1.
<mgrwt>
<rscale>  3 0.52249355E+03</rscale>
<asrwt>0</asrwt>
<pdfrwt beam="1">  1        2 0.18985769E+00 0.52249355E+03</pdfrwt>
<pdfrwt beam="2">  1       -2 0.85083816E-02 0.52249355E+03</pdfrwt>
<totfact> 0.16312023E+03</totfact>
</mgrwt>
</event>
<event>
 4    0  0.1264838E-002  0.4835201E+03  0.7546771E-02  0.1018172E+00
         -2   -1    0    0    0  501 -0.00000000000E+00  0.00000000000E+00  0.82196385824E+02  0.82196385824E+02  0.00000000000E+00 0.  1.
          2   -1    0    0  502    0  0.00000000000E+00 -0.00000000000E+00 -0.71107641645E+03  0.71107641645E+03  0.00000000000E+00 0. -1.
         25    1    1    2    0    0  0.17759291964E+03  0.11701056780E+03 -0.45894651316E+03  0.52104473898E+03  0.12500000000E+03 0.  0.
         21    1    1    2  502  501 -0.17759291964E+03 -0.11701056780E+03 -0.16993351747E+03  0.27222806329E+03  0.00000000000E+00 0.  1.
<mgrwt>
<rscale>  3 0.48352006E+03</rscale>
<asrwt>0</asrwt>
<pdfrwt beam="1">  1        2 0.10939637E+00 0.48352006E+03</pdfrwt>
<pdfrwt beam="2">  1       -2 0.12645598E-01 0.48352006E+03</pdfrwt>
<totfact> 0.18739725E+03</totfact>
</mgrwt>
</event>
<event>
 4    0  0.1264838E-002  0.4518508E+03  0.7546771E-02  0.1027172E+00
          2   -1    0    0  502    0  0.00000000000E+00  0.00000000000E+00  0.59450249337E+03  0.59450249337E+03  0.00000000000E+00 0. -1.
         -2   -1    0    0    0  501 -0.00000000000E+00 -0.00000000000E+00 -0.85857132935E+02  0.85857132935E+02  0.00000000000E+00 0.  1.
         25    1    1    2    0    0 -0.14633168074E+03  0.13789828117E+03  0.35761838153E+03  0.42888786826E+03  0.12500000000E+03 0.  0.
         21    1    1    2  502  501  0.14633168074E+03 -0.13789828117E+03  0.15102697891E+03  0.25147175805E+03  0.00000000000E+00 0.  1.
<mgrwt>
<rscale>  3 0.45185077E+03</rscale>
<asrwt>0</asrwt>
<pdfrwt beam="1">  1        2 0.91461919E-01 0.45185077E+03</pdfrwt>
<pdfrwt beam="2">  1       -2 0.13208790E-01 0.45185077E+03</pdfrwt>
<totfact> 0.21670664E+03</totfact>
</mgrwt>
</event>
<event>
 4    0  0.1264838E-002  0.5102831E+03  0.7546771E-02  0.1011129E+00
         -1   -1    0    0    0  501 -0.00000000000E+00  0.00000000000E+00  0.10717427875E+03  0.10717427875E+03  0.00000000000E+00 0.  1.
          1   -1    0    0  502    0  0.00000000000E+00 -0.00000000000E+00 -0.60739578338E+03  0.60739578338E+03  0.00000000000E+00 0. -1.
         25    1    1    2    0    0 -0.68643556361E+02  0.22859169431E+03 -0.29804947711E+03  0.40177679294E+03  0.12500000000E+03 0.  0.
         21    1    1    2  502  501  0.68643556361E+02 -0.22859169431E+03 -0.20217202752E+03  0.31279326919E+03  0.00000000000E+00 0.  1.
<mgrwt>
<rscale>  3 0.51028308E+03</rscale>
<asrwt>0</asrwt>
<pdfrwt beam="1">  1        1 0.93445506E-01 0.51028308E+03</pdfrwt>
<pdfrwt beam="2">  1       -1 0.16488350E-01 0.51028308E+03</pdfrwt>
<totfact> 0.95362948E+02</totfact>
</mgrwt>
</event>
<event>
 4    0  0.1264838E-002  0.4707142E+03  0.7546771E-02  0.1021719E+00
          1   -1    0    0  502    0  0.00000000000E+00  0.00000000000E+00  0.12530968908E+03  0.12530968908E+03  0.00000000000E+00 0. -1.
         -1   -1    0    0    0  501 -0.00000000000E+00 -0.00000000000E+00 -0.44204859267E+03  0.44204859267E+03  0.00000000000E+00 0.  1.
         25    1    1    2    0    0  0.19243663334E+03 -0.10239990871E+03 -0.14736702469E+03  0.29130677836E+03  0.12500000000E+03 0.  0.
         21    1    1    2  502  501 -0.19243663334E+03  0.10239990871E+03 -0.16937187890E+03  0.27605150338E+03  0.00000000000E+00 0.  1.
<mgrwt>
<rscale>  3 0.47071423E+03</rscale>
<asrwt>0</asrwt>
<pdfrwt beam="1">  1        1 0.19278414E-01 0.47071423E+03</pdfrwt>
<pdfrwt beam="2">  1       -1 0.68007474E-01 0.47071423E+03</pdfrwt>
<totfact> 0.60913005E+02</totfact>
</mgrwt>
</event>
<event>
 4    0  0.1264838E-002  0.4501684E+03  0.7546771E-02  0.1027672E+00
          2   -1    0    0  502    0  0.00000000000E+00  0.00000000000E+00  0.21430827013E+03  0.21430827013E+03  0.00000000000E+00 0.  1.
         -2   -1    0    0    0  501 -0.00000000000E+00 -0.00000000000E+00 -0.23640194415E+03  0.23640194415E+03  0.00000000000E+00 0. -1.
         25    1    1    2    0    0 -0.13311200331E+03  0.15015762657E+03 -0.65679676553E+02  0.24536694593E+03  0.12500000000E+03 0.  0.
         21    1    1    2  502  501  0.13311200331E+03 -0.15015762657E+03  0.43586002533E+02  0.20534326836E+03  0.00000000000E+00 0.  1.
<mgrwt>
<rscale>  3 0.45016838E+03</rscale>
<asrwt>0</asrwt>
<pdfrwt beam="1">  1        2 0.32970503E-01 0.45016838E+03</pdfrwt>
<pdfrwt beam="2">  1       -2 0.36369530E-01 0.45016838E+03</pdfrwt>
<totfact> 0.11369023E+03</totfact>
</mgrwt>
</event>
<event>
 4    0  0.1264838E-002  0.4372965E+03  0.7546771E-02  0.1031580E+00
          2   -1    0    0  502    0  0.00000000000E+00  0.00000000000E+00  0.72075236019E+03  0.72075236019E+03  0.00000000000E+00 0. -1.
         -2   -1    0    0    0  501 -0.00000000000E+00 -0.00000000000E+00 -0.66329370469E+02  0.66329370469E+02  0.00000000000E+00 0.  1.
         25    1    1    2    0    0 -0.10729312145E+02  0.20011223408E+03  0.37626170944E+03  0.44424981526E+03  0.12500000000E+03 0.  0.
         21    1    1    2  502  501  0.10729312145E+02 -0.20011223408E+03  0.27816128029E+03  0.34283191541E+03  0.00000000000E+00 0. -1.
<mgrwt>
<rscale>  3 0.43729647E+03</rscale>
<asrwt>0</asrwt>
<pdfrwt beam="1">  1        2 0.11088497E+00 0.43729647E+03</pdfrwt>
<pdfrwt beam="2">  1       -2 0.10204519E-01 0.43729647E+03</pdfrwt>
<totfact> 0.26121615E+03</totfact>
</mgrwt>
</event>
<event>
 4    0  0.1264838E-002  0.6491606E+03  0.7546771E-02  0.9808356E-01
          2   -1    0    0  502    0  0.00000000000E+00  0.00000000000E+00  0.10260624543E+04  0.10260624543E+04  0.00000000000E+00 0. -1.
         -2   -1    0    0    0  501 -0.00000000000E+00 -0.00000000000E+00 -0.10267636960E+03  0.10267636960E+03  0.00000000000E+00 0.  1.
         25    1    1    2    0    0 -0.22075403469E+03  0.18650496076E+03  0.27184540801E+03  0.41598241558E+03  0.12500000000E+03 0.  0.
         21    1    1    2  502  501  0.22075403469E+03 -0.18650496076E+03  0.65154067674E+03  0.71275640836E+03  0.00000000000E+00 0. -1.
<mgrwt>
<rscale>  3 0.64916059E+03</rscale>
<asrwt>0</asrwt>
<pdfrwt beam="1">  1        2 0.15785576E+00 0.64916059E+03</pdfrwt>
<pdfrwt beam="2">  1       -2 0.15796365E-01 0.64916059E+03</pdfrwt>
<totfact> 0.78407144E+02</totfact>
</mgrwt>
</event>
<event>
 4    0  0.1264838E-002  0.4553508E+03  0.7546771E-02  0.1026138E+00
         -2   -1    0    0    0  501 -0.00000000000E+00  0.00000000000E+00  0.22436777900E+03  0.22436777900E+03  0.00000000000E+00 0.  1.
          2   -1    0    0  502    0  0.00000000000E+00 -0.00000000000E+00 -0.23103182363E+03  0.23103182363E+03  0.00000000000E+00 0. -1.
         25    1    1    2    0    0  0.20432339721E+03  0.99107686955E+01 -0.53304526215E+02  0.24558633206E+03  0.12500000000E+03 0.  0.
         21    1    1    2  502  501 -0.20432339721E+03 -0.99107686955E+01  0.46640481579E+02  0.20981327056E+03  0.00000000000E+00 0.  1.
<mgrwt>
<rscale>  3 0.45535084E+03</rscale>
<asrwt>0</asrwt>
<pdfrwt beam="1">  1        2 0.35543358E-01 0.45535084E+03</pdfrwt>
<pdfrwt beam="2">  1       -2 0.34518120E-01 0.45535084E+03</pdfrwt>
<totfact> 0.11548643E+03</totfact>
</mgrwt>
</event>
<event>
 4    0  0.1264838E-002  0.8703405E+03  0.7546771E-02  0.9463436E-01
         -1   -1    0    0    0  501 -0.00000000000E+00  0.00000000000E+00  0.20413753258E+03  0.20413753258E+03  0.00000000000E+00 0.  1.
          1   -1    0    0  502    0  0.00000000000E+00 -0.00000000000E+00 -0.92767436691E+03  0.92767436691E+03  0.00000000000E+00 0. -1.
         25    1    1    2    0    0 -0.90294029386E+02 -0.38164266348E+03 -0.58619937835E+03  0.71628126145E+03  0.12500000000E+03 0.  0.
         21    1    1    2  502  501  0.90294029386E+02  0.38164266348E+03 -0.13733745598E+03  0.41553063804E+03  0.00000000000E+00 0.  1.
<mgrwt>
<rscale>  3 0.87034052E+03</rscale>
<asrwt>0</asrwt>
<pdfrwt beam="1">  1        1 0.14271914E+00 0.87034052E+03</pdfrwt>
<pdfrwt beam="2">  1       -1 0.31405774E-01 0.87034052E+03</pdfrwt>
<totfact> 0.16380552E+02</totfact>
</mgrwt>
</event>
<event>
 4    0  0.1264838E-002  0.5863749E+03  0.7546771E-02  0.9934084E-01
         -2   -1    0    0    0  501 -0.00000000000E+00  0.00000000000E+00  0.30319252101E+02  0.30319252101E+02  0.00000000000E+00 0. -1.
          2   -1    0    0  502    0  0.00000000000E+00 -0.00000000000E+00 -0.28351252077E+04  0.28351252077E+04  0.00000000000E+00 0.  1.
         25    1    1    2    0    0 -0.25535229052E+03 -0.78598441374E+02 -0.10589966395E+04  0.10993095059E+04  0.12500000000E+03 0.  0.
         21    1    1    2  502  501  0.25535229052E+03  0.78598441374E+02 -0.17458093161E+04  0.17661349540E+04  0.00000000000E+00 0. -1.
<mgrwt>
<rscale>  3 0.58637488E+03</rscale>
<asrwt>0</asrwt>
<pdfrwt beam="1">  1        2 0.43617321E+00 0.58637488E+03</pdfrwt>
<pdfrwt beam="2">  1       -2 0.46644992E-02 0.58637488E+03</pdfrwt>
<totfact> 0.53995338E+02</totfact>
</mgrwt>
</event>
<event>
 4    0  0.1264838E-002  0.6833382E+03  0.7546771E-02  0.9746158E-01
          1   -1    0    0  502    0  0.00000000000E+00  0.00000000000E+00  0.96959346819E+02  0.96959346819E+02  0.00000000000E+00 0.  1.
         -1   -1    0    0    0  501 -0.00000000000E+00 -0.00000000000E+00 -0.12039868526E+04  0.12039868526E+04  0.00000000000E+00 0. -1.
         25    1    1    2    0    0 -0.12632480317E+03 -0.22906535781E+03 -0.18830020247E+03  0.34570342824E+03  0.12500000000E+03 0.  0.
         21    1    1    2  502  501  0.12632480317E+03  0.22906535781E+03 -0.91872730328E+03  0.95524277115E+03  0.00000000000E+00 0. -1.
<mgrwt>
<rscale>  3 0.68333821E+03</rscale>
<asrwt>0</asrwt>
<pdfrwt beam="1">  1        1 0.14916823E-01 0.68333821E+03</pdfrwt>
<pdfrwt beam="2">  1       -1 0.18522874E+00 0.68333821E+03</pdfrwt>
<totfact> 0.76060307E+01</totfact>
</mgrwt>
</event>
<event>
 4    0  0.1264838E-002  0.6335295E+03  0.7546771E-02  0.9838185E-01
         -2   -1    0    0    0  501 -0.00000000000E+00  0.00000000000E+00  0.61655096675E+02  0.61655096675E+02  0.00000000000E+00 0. -1.
          2   -1    0    0  502    0  0.00000000000E+00 -0.00000000000E+00 -0.16274391805E+04  0.16274391805E+04  0.00000000000E+00 0.  1.
         25    1    1    2    0    0  0.10204798341E+03 -0.20352075368E+03 -0.13522060141E+04  0.13769243235E+04  0.12500000000E+03 0.  0.
         21    1    1    2  502  501 -0.10204798341E+03  0.20352075368E+03 -0.21357806968E+03  0.31216995363E+03  0.00000000000E+00 0. -1.
<mgrwt>
<rscale>  3 0.63352954E+03</rscale>
<asrwt>0</asrwt>
<pdfrwt beam="1">  1        2 0.25037527E+00 0.63352954E+03</pdfrwt>
<pdfrwt beam="2">  1       -2 0.94853992E-02 0.63352954E+03</pdfrwt>
<totfact> 0.82190263E+02</totfact>
</mgrwt>
</event>
<event>
 4    0  0.1264838E-002  0.4783316E+03  0.7546771E-02  0.1019595E+00
          2   -1    0    0  502    0  0.00000000000E+00  0.00000000000E+00  0.18555782681E+04  0.18555782681E+04  0.00000000000E+00 0. -1.
         -2   -1    0    0    0  501 -0.00000000000E+00 -0.00000000000E+00 -0.30826114936E+02  0.30826114936E+02  0.00000000000E+00 0.  1.
         25    1    1    2    0    0 -0.14136325721E+03  0.16972986554E+03  0.10905189801E+04  0.11196644336E+04  0.12500000000E+03 0.  0.
         21    1    1    2  502  501  0.14136325721E+03 -0.16972986554E+03  0.73423317300E+03  0.76673994945E+03  0.00000000000E+00 0.  1.
<mgrwt>
<rscale>  3 0.47833155E+03</rscale>
<asrwt>0</asrwt>
<pdfrwt beam="1">  1        2 0.28547349E+00 0.47833155E+03</pdfrwt>
<pdfrwt beam="2">  1       -2 0.47424807E-02 0.47833155E+03</pdfrwt>
<totfact> 0.18580726E+03</totfact>
</mgrwt>
</event>
<event>
 4    0  0.1264838E-002  0.4383355E+03  0.7546771E-02  0.1031259E+00
         -2   -1    0    0    0  501 -0.00000000000E+00  0.00000000000E+00  0.11766815331E+03  0.11766815331E+03  0.00000000000E+00 0. -1.
          2   -1    0    0  502    0  0.00000000000E+00 -0.00000000000E+00 -0.40822013589E+03  0.40822013589E+03  0.00000000000E+00 0.  1.
         25    1    1    2    0    0  0.14572583158E+03 -0.13791013336E+03 -0.13685572321E+03  0.27314778390E+03  0.12500000000E+03 0.  0.
         21    1    1    2  502  501 -0.14572583158E+03  0.13791013336E+03 -0.15369625938E+03  0.25274050530E+03  0.00000000000E+00 0.  1.
<mgrwt>
<rscale>  3 0.43833553E+03</rscale>
<asrwt>0</asrwt>
<pdfrwt beam="1">  1        2 0.62803098E-01 0.43833553E+03</pdfrwt>
<pdfrwt beam="2">  1       -2 0.18102793E-01 0.43833553E+03</pdfrwt>
<totfact> 0.19595754E+03</totfact>
</mgrwt>
</event>
<event>
 4    0  0.1264838E-002  0.5018171E+03  0.7546771E-02  0.1013306E+00
         -2   -1    0    0    0  501 -0.00000000000E+00  0.00000000000E+00  0.18710927099E+02  0.18710927099E+02  0.00000000000E+00 0. -1.
          2   -1    0    0  502    0  0.00000000000E+00 -0.00000000000E+00 -0.33646171760E+04  0.33646171760E+04  0.00000000000E+00 0.  1.
         25    1    1    2    0    0 -0.21101929165E+03 -0.96827986840E+02 -0.15173650597E+04  0.15401060109E+04  0.12500000000E+03 0.  0.
         21    1    1    2  502  501  0.21101929165E+03  0.96827986840E+02 -0.18285411893E+04  0.18432220922E+04  0.00000000000E+00 0. -1.
<mgrwt>
<rscale>  3 0.50181712E+03</rscale>
<asrwt>0</asrwt>
<pdfrwt beam="1">  1        2 0.51763325E+00 0.50181712E+03</pdfrwt>
<pdfrwt beam="2">  1       -2 0.28786051E-02 0.50181712E+03</pdfrwt>
<totfact> 0.53616042E+02</totfact>
</mgrwt>
</event>
<event>
 4    0  0.1264838E-002  0.4893302E+03  0.7546771E-02  0.1016602E+00
          2   -1    0    0  502    0  0.00000000000E+00  0.00000000000E+00  0.37129055923E+03  0.37129055923E+03  0.00000000000E+00 0. -1.
         -2   -1    0    0    0  501 -0.00000000000E+00 -0.00000000000E+00 -0.16122419812E+03  0.16122419812E+03  0.00000000000E+00 0.  1.
         25    1    1    2    0    0 -0.22821165934E+03 -0.95851426702E+01  0.99432020228E+02  0.27871878850E+03  0.12500000000E+03 0.  0.
         21    1    1    2  502  501  0.22821165934E+03  0.95851426702E+01  0.11063434088E+03  0.25379596884E+03  0.00000000000E+00 0. -1.
<mgrwt>
<rscale>  3 0.48933025E+03</rscale>
<asrwt>0</asrwt>
<pdfrwt beam="1">  1        2 0.57121624E-01 0.48933025E+03</pdfrwt>
<pdfrwt beam="2">  1       -2 0.24803723E-01 0.48933025E+03</pdfrwt>
<totfact> 0.12564153E+03</totfact>
</mgrwt>
</event>
<event>
 4    0  0.1264838E-002  0.5481678E+03  0.7546771E-02  0.1001919E+00
          1   -1    0    0  502    0  0.00000000000E+00  0.00000000000E+00  0.38483304139E+03  0.38483304139E+03  0.00000000000E+00 0.  1.
         -1   -1    0    0    0  501 -0.00000000000E+00 -0.00000000000E+00 -0.19520670079E+03  0.19520670079E+03  0.00000000000E+00 0. -1.
         25    1    1    2    0    0  0.85255255551E+02  0.24488850408E+03  0.82235297538E+02  0.29937682307E+03  0.12500000000E+03 0.  0.
         21    1    1    2  502  501 -0.85255255551E+02 -0.24488850408E+03  0.10739104307E+03  0.28066291911E+03  0.00000000000E+00 0. -1.
<mgrwt>
<rscale>  3 0.54816782E+03</rscale>
<asrwt>0</asrwt>
<pdfrwt beam="1">  1        1 0.59205083E-01 0.54816782E+03</pdfrwt>
<pdfrwt beam="2">  1       -1 0.30031800E-01 0.54816782E+03</pdfrwt>
<totfact> 0.64869611E+02</totfact>
</mgrwt>
</event>
<event>
 4    0  0.1264838E-002  0.4528912E+03  0.7546771E-02  0.1026863E+00
         -1   -1    0    0    0  501 -0.00000000000E+00  0.00000000000E+00  0.72229402731E+03  0.72229402731E+03  0.00000000000E+00 0.  1.
          1   -1    0    0  502    0  0.00000000000E+00 -0.00000000000E+00 -0.70992717483E+02  0.70992717483E+02  0.00000000000E+00 0. -1.
         25    1    1    2    0    0 -0.85254365181E+02 -0.18429328225E+03  0.43856880381E+03  0.49919927519E+03  0.12500000000E+03 0.  0.
         21    1    1    2  502  501  0.85254365181E+02  0.18429328225E+03  0.21273250602E+03  0.29408746961E+03  0.00000000000E+00 0. -1.
<mgrwt>
<rscale>  3 0.45289123E+03</rscale>
<asrwt>0</asrwt>
<pdfrwt beam="1">  1        1 0.10921957E-01 0.45289123E+03</pdfrwt>
<pdfrwt beam="2">  1       -1 0.11112215E+00 0.45289123E+03</pdfrwt>
<totfact> 0.45046093E+02</totfact>
</mgrwt>
</event>
<event>
 4    0  0.1264838E-002  0.4938311E+03  0.7546771E-02  0.1015402E+00
         -1   -1    0    0    0  501 -0.00000000000E+00  0.00000000000E+00  0.61745442700E+02  0.61745442700E+02  0.00000000000E+00 0. -1.
          1   -1    0    0  502    0  0.00000000000E+00 -0.00000000000E+00 -0.98739729980E+03  0.98739729980E+03  0.00000000000E+00 0.  1.
         25    1    1    2    0    0  0.10706373328E+03 -0.19675548977E+03 -0.37174370811E+03  0.45165667299E+03  0.12500000000E+03 0.  0.
         21    1    1    2  502  501 -0.10706373328E+03  0.19675548977E+03 -0.55390814899E+03  0.59748606951E+03  0.00000000000E+00 0. -1.
<mgrwt>
<rscale>  3 0.49383108E+03</rscale>
<asrwt>0</asrwt>
<pdfrwt beam="1">  1        1 0.15190727E+00 0.49383108E+03</pdfrwt>
<pdfrwt beam="2">  1       -1 0.94992991E-02 0.49383108E+03</pdfrwt>
<totfact> 0.10739724E+03</totfact>
</mgrwt>
</event>
<event>
 4    0  0.1264838E-002  0.5008007E+03  0.7546771E-02  0.1013570E+00
         -2   -1    0    0    0  501 -0.00000000000E+00  0.00000000000E+00  0.13289772183E+03  0.13289772183E+03  0.00000000000E+00 0. -1.
          2   -1    0    0  502    0  0.00000000000E+00 -0.00000000000E+00 -0.47179390645E+03  0.47179390645E+03  0.00000000000E+00 0.  1.
         25    1    1    2    0    0 -0.23125805387E+03  0.16889700082E+02 -0.22462564407E+03  0.34618958595E+03  0.12500000000E+03 0.  0.
         21    1    1    2  502  501  0.23125805387E+03 -0.16889700082E+02 -0.11427054055E+03  0.25850204232E+03  0.00000000000E+00 0. -1.
<mgrwt>
<rscale>  3 0.50080070E+03</rscale>
<asrwt>0</asrwt>
<pdfrwt beam="1">  1        2 0.72583678E-01 0.50080070E+03</pdfrwt>
<pdfrwt beam="2">  1       -2 0.20445803E-01 0.50080070E+03</pdfrwt>
<totfact> 0.13515051E+03</totfact>
</mgrwt>
</event>
<event>
 4    0  0.1264838E-002  0.4876339E+03  0.7546771E-02  0.1017058E+00
         -2   -1    0    0    0  501 -0.00000000000E+00  0.00000000000E+00  0.16687837630E+03  0.16687837630E+03  0.00000000000E+00 0. -1.
          2   -1    0    0  502    0  0.00000000000E+00 -0.00000000000E+00 -0.35622767599E+03  0.35622767599E+03  0.00000000000E+00 0.  1.
         25    1    1    2    0    0  0.15478179322E+03  0.15590449965E+03 -0.36287893375E+02  0.25535353479E+03  0.12500000000E+03 0.  0.
         21    1    1    2  502  501 -0.15478179322E+03 -0.15590449965E+03 -0.15306140631E+03  0.26775251750E+03  0.00000000000E+00 0.  1.
<mgrwt>
<rscale>  3 0.48763386E+03</rscale>
<asrwt>0</asrwt>
<pdfrwt beam="1">  1        2 0.54804257E-01 0.48763386E+03</pdfrwt>
<pdfrwt beam="2">  1       -2 0.25673597E-01 0.48763386E+03</pdfrwt>
<totfact> 0.12364843E+03</totfact>
</mgrwt>
</event>
<event>
 4    0  0.1264838E-002  0.4459746E+03  0.7546771E-02  0.1028929E+00
          2   -1    0    0  502    0  0.00000000000E+00  0.00000000000E+00  0.26595954061E+04  0.26595954061E+04  0.00000000000E+00 0. -1.
         -2   -1    0    0    0  501 -0.00000000000E+00 -0.00000000000E+00 -0.18695824852E+02  0.18695824852E+02  0.00000000000E+00 0.  1.
         25    1    1    2    0    0 -0.92011697039E+01 -0.20265132925E+03  0.12281548329E+04  0.12510561604E+04  0.12500000000E+03 0.  0.
         21    1    1    2  502  501  0.92011697039E+01  0.20265132925E+03  0.14127447483E+04  0.14272350705E+04  0.00000000000E+00 0. -1.
<mgrwt>
<rscale>  3 0.44597457E+03</rscale>
<asrwt>0</asrwt>
<pdfrwt beam="1">  1        2 0.40916822E+00 0.44597457E+03</pdfrwt>
<pdfrwt beam="2">  1       -2 0.28762829E-02 0.44597457E+03</pdfrwt>
<totfact> 0.14473427E+03</totfact>
</mgrwt>
</event>
<event>
 4    0  0.1264838E-002  0.4604830E+03  0.7546771E-02  0.1024641E+00
          2   -1    0    0  502    0  0.00000000000E+00  0.00000000000E+00  0.83979576438E+03  0.83979576438E+03  0.00000000000E+00 0.  1.
         -2   -1    0    0    0  501 -0.00000000000E+00 -0.00000000000E+00 -0.63123850245E+02  0.63123850245E+02  0.00000000000E+00 0. -1.
         25    1    1    2    0    0  0.16530801403E+03  0.12382688814E+03  0.31270257157E+03  0.39505409250E+03  0.12500000000E+03 0.  0.
         21    1    1    2  502  501 -0.16530801403E+03 -0.12382688814E+03  0.46396934256E+03  0.50786552213E+03  0.00000000000E+00 0.  1.
<mgrwt>
<rscale>  3 0.46048297E+03</rscale>
<asrwt>0</asrwt>
<pdfrwt beam="1">  1        2 0.12919934E+00 0.46048297E+03</pdfrwt>
<pdfrwt beam="2">  1       -2 0.97113622E-02 0.46048297E+03</pdfrwt>
<totfact> 0.23242878E+03</totfact>
</mgrwt>
</event>
<event>
 4    0  0.1264838E-002  0.5427088E+03  0.7546771E-02  0.1003196E+00
          1   -1    0    0  502    0  0.00000000000E+00  0.00000000000E+00  0.52141802290E+03  0.52141802290E+03  0.00000000000E+00 0.  1.
         -1   -1    0    0    0  501 -0.00000000000E+00 -0.00000000000E+00 -0.14121721465E+03  0.14121721465E+03  0.00000000000E+00 0. -1.
         25    1    1    2    0    0 -0.26132313397E+02 -0.22499732302E+03  0.34832780100E+03  0.43389393879E+03  0.12500000000E+03 0.  0.
         21    1    1    2  502  501  0.26132313397E+02  0.22499732302E+03  0.31873007244E+02  0.22874129876E+03  0.00000000000E+00 0. -1.
<mgrwt>
<rscale>  3 0.54270876E+03</rscale>
<asrwt>0</asrwt>
<pdfrwt beam="1">  1        1 0.80218156E-01 0.54270876E+03</pdfrwt>
<pdfrwt beam="2">  1       -1 0.21725726E-01 0.54270876E+03</pdfrwt>
<totfact> 0.74920687E+02</totfact>
</mgrwt>
</event>
<event>
 4    0  0.1264838E-002  0.7989437E+03  0.7546771E-02  0.9561547E-01
         -4   -1    0    0    0  501 -0.00000000000E+00  0.00000000000E+00  0.17407142377E+03  0.17407142377E+03  0.00000000000E+00 0. -1.
          4   -1    0    0  502    0  0.00000000000E+00 -0.00000000000E+00 -0.91673728336E+03  0.91673728336E+03  0.00000000000E+00 0.  1.
         25    1    1    2    0    0 -0.24665812500E+03 -0.26754034724E+03 -0.57079857354E+03  0.68837059756E+03  0.12500000000E+03 0.  0.
         21    1    1    2  502  501  0.24665812500E+03  0.26754034724E+03 -0.17186728605E+03  0.40243810958E+03  0.00000000000E+00 0.  1.
<mgrwt>
<rscale>  3 0.79894371E+03</rscale>
<asrwt>0</asrwt>
<pdfrwt beam="1">  1        4 0.14103650E+00 0.79894371E+03</pdfrwt>
<pdfrwt beam="2">  1       -4 0.26780219E-01 0.79894371E+03</pdfrwt>
<totfact> 0.93485831E+00</totfact>
</mgrwt>
</event>
<event>
 4    0  0.1530119E-002  0.6117811E+03  0.7546771E-02  0.9881261E-01
         -2   -1    0    0    0  501 -0.00000000000E+00  0.00000000000E+00  0.14761857808E+03  0.14761857808E+03  0.00000000000E+00 0. -1.
          2   -1    0    0  502    0  0.00000000000E+00 -0.00000000000E+00 -0.63385673116E+03  0.63385673116E+03  0.00000000000E+00 0.  1.
         25    1    1    2    0    0 -0.11749046511E+03  0.19125186421E+03 -0.12462439625E+02  0.25721896773E+03  0.12500000000E+03 0.  0.
         21    1    1    2  502  501  0.11749046511E+03 -0.19125186421E+03 -0.47377571346E+03  0.52425634152E+03  0.00000000000E+00 0.  1.
<mgrwt>
<rscale>  3 0.61178110E+03</rscale>
<asrwt>0</asrwt>
<pdfrwt beam="1">  1        2 0.97516420E-01 0.61178110E+03</pdfrwt>
<pdfrwt beam="2">  1       -2 0.22710551E-01 0.61178110E+03</pdfrwt>
<totfact> 0.79416312E+02</totfact>
</mgrwt>
</event>
<event>
 4    0  0.1264838E-002  0.5364833E+03  0.7546771E-02  0.1004672E+00
         -2   -1    0    0    0  501 -0.00000000000E+00  0.00000000000E+00  0.23451084581E+03  0.23451084581E+03  0.00000000000E+00 0.  1.
          2   -1    0    0  502    0  0.00000000000E+00 -0.00000000000E+00 -0.30682412936E+03  0.30682412936E+03  0.00000000000E+00 0. -1.
         25    1    1    2    0    0  0.12358837382E+03  0.17953633435E+03 -0.16908454322E+03  0.30285634260E+03  0.12500000000E+03 0.  0.
         21    1    1    2  502  501 -0.12358837382E+03 -0.17953633435E+03  0.96771259670E+02  0.23847863257E+03  0.00000000000E+00 0.  1.
<mgrwt>
<rscale>  3 0.53648331E+03</rscale>
<asrwt>0</asrwt>
<pdfrwt beam="1">  1        2 0.47203712E-01 0.53648331E+03</pdfrwt>
<pdfrwt beam="2">  1       -2 0.36078592E-01 0.53648331E+03</pdfrwt>
<totfact> 0.77732276E+02</totfact>
</mgrwt>
</event>
<event>
 4    0  0.1264838E-002  0.4547995E+03  0.7546771E-02  0.1026300E+00
         -1   -1    0    0    0  501 -0.00000000000E+00  0.00000000000E+00  0.65431840830E+02  0.65431840830E+02  0.00000000000E+00 0.  1.
          1   -1    0    0  502    0  0.00000000000E+00 -0.00000000000E+00 -0.79029788335E+03  0.79029788335E+03  0.00000000000E+00 0. -1.
         25    1    1    2    0    0 -0.25473677610E+02 -0.20680412159E+03 -0.44223801236E+03  0.50459519670E+03  0.12500000000E+03 0.  0.
         21    1    1    2  502  501  0.25473677610E+02  0.20680412159E+03 -0.28262803016E+03  0.35113452748E+03  0.00000000000E+00 0.  1.
<mgrwt>
<rscale>  3 0.45479950E+03</rscale>
<asrwt>0</asrwt>
<pdfrwt beam="1">  1        1 0.12158429E+00 0.45479950E+03</pdfrwt>
<pdfrwt beam="2">  1       -1 0.10066437E-01 0.45479950E+03</pdfrwt>
<totfact> 0.14171032E+03</totfact>
</mgrwt>
</event>
<event>
 4    0  0.1264838E-002  0.6080230E+03  0.7546771E-02  0.9888899E-01
         -1   -1    0    0    0  501 -0.00000000000E+00  0.00000000000E+00  0.72567913855E+02  0.72567913855E+02  0.00000000000E+00 0. -1.
          1   -1    0    0  502    0  0.00000000000E+00 -0.00000000000E+00 -0.12736067052E+04  0.12736067052E+04  0.00000000000E+00 0.  1.
         25    1    1    2    0    0 -0.28935053203E+03 -0.12004223439E+02 -0.55919445599E+03  0.64202123904E+03  0.12500000000E+03 0.  0.
         21    1    1    2  502  501  0.28935053203E+03  0.12004223439E+02 -0.64184433537E+03  0.70415338004E+03  0.00000000000E+00 0.  1.
<mgrwt>
<rscale>  3 0.60802297E+03</rscale>
<asrwt>0</asrwt>
<pdfrwt beam="1">  1        1 0.19593951E+00 0.60802297E+03</pdfrwt>
<pdfrwt beam="2">  1       -1 0.11164294E-01 0.60802297E+03</pdfrwt>
<totfact> 0.51064362E+02</totfact>
</mgrwt>
</event>
<event>
 4    0  0.1264838E-002  0.4941473E+03  0.7546771E-02  0.1015318E+00
          1   -1    0    0  502    0  0.00000000000E+00  0.00000000000E+00  0.40673139033E+03  0.40673139033E+03  0.00000000000E+00 0.  1.
         -1   -1    0    0    0  501 -0.00000000000E+00 -0.00000000000E+00 -0.15008771868E+03  0.15008771868E+03  0.00000000000E+00 0. -1.
         25    1    1    2    0    0 -0.11575585053E+03 -0.19615397292E+03  0.91360784194E+02  0.27540441339E+03  0.12500000000E+03 0.  0.
         21    1    1    2  502  501  0.11575585053E+03  0.19615397292E+03  0.16528288746E+03  0.28141469562E+03  0.00000000000E+00 0. -1.
<mgrwt>
<rscale>  3 0.49414729E+03</rscale>
<asrwt>0</asrwt>
<pdfrwt beam="1">  1        1 0.62574060E-01 0.49414729E+03</pdfrwt>
<pdfrwt beam="2">  1       -1 0.23090418E-01 0.49414729E+03</pdfrwt>
<totfact> 0.94477795E+02</totfact>
</mgrwt>
</event>
<event>
 4    0  0.1264838E-002  0.4426220E+03  0.7546771E-02  0.1029945E+00
          2   -1    0    0  502    0  0.00000000000E+00  0.00000000000E+00  0.25729168790E+04  0.25729168790E+04  0.00000000000E+00 0.  1.
         -2   -1    0    0    0  501 -0.00000000000E+00 -0.00000000000E+00 -0.19036202045E+02  0.19036202045E+02  0.00000000000E+00 0. -1.
         25    1    1    2    0    0 -0.83105165657E+02  0.18395257818E+03  0.15372796674E+04  0.15555059612E+04  0.12500000000E+03 0.  0.
         21    1    1    2  502  501  0.83105165657E+02 -0.18395257818E+03  0.10166010096E+04  0.10364471199E+04  0.00000000000E+00 0.  1.
<mgrwt>
<rscale>  3 0.44262203E+03</rscale>
<asrwt>0</asrwt>
<pdfrwt beam="1">  1        2 0.39583309E+00 0.44262203E+03</pdfrwt>
<pdfrwt beam="2">  1       -2 0.29286485E-02 0.44262203E+03</pdfrwt>
<totfact> 0.15773830E+03</totfact>
</mgrwt>
</event>
<event>
 4    0  0.1264838E-002  0.5758027E+03  0.7546771E-02  0.9956920E-01
         -1   -1    0    0    0  501 -0.00000000000E+00  0.00000000000E+00  0.25038384987E+03  0.25038384987E+03  0.00000000000E+00 0. -1.
          1   -1    0    0  502    0  0.00000000000E+00 -0.00000000000E+00 -0.33104047353E+03  0.33104047353E+03  0.00000000000E+00 0.  1.
         25    1    1    2    0    0 -0.17568478365E+03  0.21067193931E+03 -0.38884433831E+02  0.30394869372E+03  0.12500000000E+03 0.  0.
         21    1    1    2  502  501  0.17568478365E+03 -0.21067193931E+03 -0.41772189835E+02  0.27747562968E+03  0.00000000000E+00 0.  1.
<mgrwt>
<rscale>  3 0.57580270E+03</rscale>
<asrwt>0</asrwt>
<pdfrwt beam="1">  1        1 0.50929304E-01 0.57580270E+03</pdfrwt>
<pdfrwt beam="2">  1       -1 0.38520592E-01 0.57580270E+03</pdfrwt>
<totfact> 0.50835997E+02</totfact>
</mgrwt>
</event>
<event>
 4    0  0.1264838E-002  0.5619180E+03  0.7546771E-02  0.9987724E-01
          4   -1    0    0  502    0  0.00000000000E+00  0.00000000000E+00  0.73616676877E+03  0.73616676877E+03  0.00000000000E+00 0.  1.
         -4   -1    0    0    0  501 -0.00000000000E+00 -0.00000000000E+00 -0.10722836913E+03  0.10722836913E+03  0.00000000000E+00 0. -1.
         25    1    1    2    0    0  0.22938260941E+03 -0.13578045411E+03  0.35451231879E+03  0.46082176315E+03  0.12500000000E+03 0.  0.
         21    1    1    2  502  501 -0.22938260941E+03  0.13578045411E+03  0.27442608085E+03  0.38257337475E+03  0.00000000000E+00 0. -1.
<mgrwt>
<rscale>  3 0.56191801E+03</rscale>
<asrwt>0</asrwt>
<pdfrwt beam="1">  1        4 0.11325642E+00 0.56191801E+03</pdfrwt>
<pdfrwt beam="2">  1       -4 0.16496673E-01 0.56191801E+03</pdfrwt>
<totfact> 0.39475164E+01</totfact>
</mgrwt>
</event>
<event>
 4    0  0.1264838E-002  0.5042172E+03  0.7546771E-02  0.1012684E+00
          2   -1    0    0  502    0  0.00000000000E+00  0.00000000000E+00  0.80798671639E+03  0.80798671639E+03  0.00000000000E+00 0. -1.
         -2   -1    0    0    0  501 -0.00000000000E+00 -0.00000000000E+00 -0.78663112426E+02  0.78663112426E+02  0.00000000000E+00 0.  1.
         25    1    1    2    0    0 -0.16269663881E+03 -0.15427326625E+03  0.52001981555E+03  0.57992762094E+03  0.12500000000E+03 0.  0.
         21    1    1    2  502  501  0.16269663881E+03  0.15427326625E+03  0.20930378841E+03  0.30672220788E+03  0.00000000000E+00 0.  1.
<mgrwt>
<rscale>  3 0.50421721E+03</rscale>
<asrwt>0</asrwt>
<pdfrwt beam="1">  1        2 0.12430564E+00 0.50421721E+03</pdfrwt>
<pdfrwt beam="2">  1       -2 0.12102018E-01 0.50421721E+03</pdfrwt>
<totfact> 0.17105919E+03</totfact>
</mgrwt>
</event>
<event>
 4    0  0.1264838E-002  0.4554678E+03  0.7546771E-02  0.1026104E+00
         -1   -1    0    0    0  501 -0.00000000000E+00  0.00000000000E+00  0.14382733070E+03  0.14382733070E+03  0.00000000000E+00 0. -1.
          1   -1    0    0  502    0  0.00000000000E+00 -0.00000000000E+00 -0.36059019997E+03  0.36059019997E+03  0.00000000000E+00 0.  1.
         25    1    1    2    0    0  0.17404479391E+03 -0.11602827025E+03 -0.89637597368E+02  0.25964215499E+03  0.12500000000E+03 0.  0.
         21    1    1    2  502  501 -0.17404479391E+03  0.11602827025E+03 -0.12712527190E+03  0.24477537568E+03  0.00000000000E+00 0. -1.
<mgrwt>
<rscale>  3 0.45546779E+03</rscale>
<asrwt>0</asrwt>
<pdfrwt beam="1">  1        1 0.55475415E-01 0.45546779E+03</pdfrwt>
<pdfrwt beam="2">  1       -1 0.22127282E-01 0.45546779E+03</pdfrwt>
<totfact> 0.11869572E+03</totfact>
</mgrwt>
</event>
<event>
 4    0  0.1264838E-002  0.1216121E+04  0.7546771E-02  0.9098862E-01
          2   -1    0    0  502    0  0.00000000000E+00  0.00000000000E+00  0.16363333701E+04  0.16363333701E+04  0.00000000000E+00 0. -1.
         -2   -1    0    0    0  501 -0.00000000000E+00 -0.00000000000E+00 -0.22595477373E+03  0.22595477373E+03  0.00000000000E+00 0.  1.
         25    1    1    2    0    0 -0.25470778865E+03  0.16186321362E+03 -0.84376340726E+02  0.33737238239E+03  0.12500000000E+03 0.  0.
         21    1    1    2  502  501  0.25470778865E+03 -0.16186321362E+03  0.14947549371E+04  0.15249157615E+04  0.00000000000E+00 0. -1.
<mgrwt>
<rscale>  3 0.12161206E+04</rscale>
<asrwt>0</asrwt>
<pdfrwt beam="1">  1        2 0.25174359E+00 0.12161206E+04</pdfrwt>
<pdfrwt beam="2">  1       -2 0.34762274E-01 0.12161206E+04</pdfrwt>
<totfact> 0.81391545E+01</totfact>
</mgrwt>
</event>
<event>
 4    0  0.1264838E-002  0.4695172E+03  0.7546771E-02  0.1022057E+00
          2   -1    0    0  502    0  0.00000000000E+00  0.00000000000E+00  0.23425951091E+04  0.23425951091E+04  0.00000000000E+00 0. -1.
         -2   -1    0    0    0  501 -0.00000000000E+00 -0.00000000000E+00 -0.23525877945E+02  0.23525877945E+02  0.00000000000E+00 0.  1.
         25    1    1    2    0    0 -0.91446695536E+02 -0.19794990843E+03  0.12144367092E+04  0.12401726432E+04  0.12500000000E+03 0.  0.
         21    1    1    2  502  501  0.91446695536E+02  0.19794990843E+03  0.11046325220E+04  0.11259483438E+04  0.00000000000E+00 0. -1.
<mgrwt>
<rscale>  3 0.46951723E+03</rscale>
<asrwt>0</asrwt>
<pdfrwt beam="1">  1        2 0.36039906E+00 0.46951723E+03</pdfrwt>
<pdfrwt beam="2">  1       -2 0.36193677E-02 0.46951723E+03</pdfrwt>
<totfact> 0.15333636E+03</totfact>
</mgrwt>
</event>
<event>
 4    0  0.1264838E-002  0.5432542E+03  0.7546771E-02  0.1003067E+00
         -4   -1    0    0    0  501 -0.00000000000E+00  0.00000000000E+00  0.27859067868E+03  0.27859067868E+03  0.00000000000E+00 0.  1.
          4   -1    0    0  502    0  0.00000000000E+00 -0.00000000000E+00 -0.26483755139E+03  0.26483755139E+03  0.00000000000E+00 0. -1.
         25    1    1    2    0    0 -0.15519677495E+03  0.17877169173E+03  0.10792191413E+03  0.28864770269E+03  0.12500000000E+03 0.  0.
         21    1    1    2  502  501  0.15519677495E+03 -0.17877169173E+03 -0.94168786842E+02  0.25478052738E+03  0.00000000000E+00 0. -1.
<mgrwt>
<rscale>  3 0.54325417E+03</rscale>
<asrwt>0</asrwt>
<pdfrwt beam="1">  1        4 0.40744238E-01 0.54325417E+03</pdfrwt>
<pdfrwt beam="2">  1       -4 0.42860105E-01 0.54325417E+03</pdfrwt>
<totfact> 0.60983792E+01</totfact>
</mgrwt>
</event>
<event>
 4    0  0.1264838E-002  0.6976146E+03  0.7546771E-02  0.9721320E-01
         -1   -1    0    0    0  501 -0.00000000000E+00  0.00000000000E+00  0.37000106346E+03  0.37000106346E+03  0.00000000000E+00 0. -1.
          1   -1    0    0  502    0  0.00000000000E+00 -0.00000000000E+00 -0.32882751847E+03  0.32882751847E+03  0.00000000000E+00 0.  1.
         25    1    1    2    0    0  0.97078695271E+02 -0.21458194231E+03 -0.22106111121E+03  0.34635631643E+03  0.12500000000E+03 0.  0.
         21    1    1    2  502  501 -0.97078695271E+02  0.21458194231E+03  0.26223465619E+03  0.35247226550E+03  0.00000000000E+00 0. -1.
<mgrwt>
<rscale>  3 0.69761460E+03</rscale>
<asrwt>0</asrwt>
<pdfrwt beam="1">  1        1 0.50588849E-01 0.69761460E+03</pdfrwt>
<pdfrwt beam="2">  1       -1 0.56923240E-01 0.69761460E+03</pdfrwt>
<totfact> 0.24634535E+02</totfact>
</mgrwt>
</event>
<event>
 4    0  0.1264838E-002  0.6380863E+03  0.7546771E-02  0.9829395E-01
         -2   -1    0    0    0  501 -0.00000000000E+00  0.00000000000E+00  0.67643339413E+02  0.67643339413E+02  0.00000000000E+00 0.  1.
          2   -1    0    0  502    0  0.00000000000E+00 -0.00000000000E+00 -0.15047826518E+04  0.15047826518E+04  0.00000000000E+00 0. -1.
         25    1    1    2    0    0 -0.28999722887E+03 -0.59839121748E+02 -0.94400807957E+03  0.99722383021E+03  0.12500000000E+03 0.  0.
         21    1    1    2  502  501  0.28999722887E+03  0.59839121748E+02 -0.49313123284E+03  0.57520216103E+03  0.00000000000E+00 0.  1.
<mgrwt>
<rscale>  3 0.63808628E+03</rscale>
<asrwt>0</asrwt>
<pdfrwt beam="1">  1        2 0.23150501E+00 0.63808628E+03</pdfrwt>
<pdfrwt beam="2">  1       -2 0.10406668E-01 0.63808628E+03</pdfrwt>
<totfact> 0.82571468E+02</totfact>
</mgrwt>
</event>
<event>
 4    0  0.1264838E-002  0.4952171E+03  0.7546771E-02  0.1015035E+00
         -1   -1    0    0    0  501 -0.00000000000E+00  0.00000000000E+00  0.32380013422E+03  0.32380013422E+03  0.00000000000E+00 0. -1.
          1   -1    0    0  502    0  0.00000000000E+00 -0.00000000000E+00 -0.18934516328E+03  0.18934516328E+03  0.00000000000E+00 0.  1.
         25    1    1    2    0    0  0.18967599213E+03 -0.72193185640E+02  0.18762803903E+03  0.30334488470E+03  0.12500000000E+03 0.  0.
         21    1    1    2  502  501 -0.18967599213E+03  0.72193185640E+02 -0.53173068091E+02  0.20980041281E+03  0.00000000000E+00 0.  1.
<mgrwt>
<rscale>  3 0.49521708E+03</rscale>
<asrwt>0</asrwt>
<pdfrwt beam="1">  1        1 0.29130025E-01 0.49521708E+03</pdfrwt>
<pdfrwt beam="2">  1       -1 0.49815405E-01 0.49521708E+03</pdfrwt>
<totfact> 0.65136974E+02</totfact>
</mgrwt>
</event>
<event>
 4    0  0.1264838E-002  0.5162240E+03  0.7546771E-02  0.1009629E+00
          2   -1    0    0  502    0  0.00000000000E+00  0.00000000000E+00  0.54567891148E+03  0.54567891148E+03  0.00000000000E+00 0. -1.
         -2   -1    0    0    0  501 -0.00000000000E+00 -0.00000000000E+00 -0.12208977318E+03  0.12208977318E+03  0.00000000000E+00 0.  1.
         25    1    1    2    0    0  0.20200485562E+03  0.95385530686E+02  0.34784111215E+03  0.43188285502E+03  0.12500000000E+03 0.  0.
         21    1    1    2  502  501 -0.20200485562E+03 -0.95385530686E+02  0.75748026149E+02  0.23588582964E+03  0.00000000000E+00 0.  1.
<mgrwt>
<rscale>  3 0.51622404E+03</rscale>
<asrwt>0</asrwt>
<pdfrwt beam="1">  1        2 0.83950601E-01 0.51622404E+03</pdfrwt>
<pdfrwt beam="2">  1       -2 0.18783042E-01 0.51622404E+03</pdfrwt>
<totfact> 0.13242403E+03</totfact>
</mgrwt>
</event>
<event>
 4    0  0.1264838E-002  0.9396639E+03  0.7546771E-02  0.9377314E-01
          2   -1    0    0  502    0  0.00000000000E+00  0.00000000000E+00  0.67640913729E+03  0.67640913729E+03  0.00000000000E+00 0. -1.
         -2   -1    0    0    0  501 -0.00000000000E+00 -0.00000000000E+00 -0.32634399836E+03  0.32634399836E+03  0.00000000000E+00 0.  1.
         25    1    1    2    0    0  0.28365033676E+03 -0.10676430143E+03 -0.19329396291E+03  0.38058334921E+03  0.12500000000E+03 0.  0.
         21    1    1    2  502  501 -0.28365033676E+03  0.10676430143E+03  0.54335910184E+03  0.62216978644E+03  0.00000000000E+00 0. -1.
<mgrwt>
<rscale>  3 0.93966390E+03</rscale>
<asrwt>0</asrwt>
<pdfrwt beam="1">  1        2 0.10406294E+00 0.93966390E+03</pdfrwt>
<pdfrwt beam="2">  1       -2 0.50206769E-01 0.93966390E+03</pdfrwt>
<totfact> 0.16078655E+02</totfact>
</mgrwt>
</event>
<event>
 4    0  0.1264838E-002  0.5390731E+03  0.7546771E-02  0.1004055E+00
         -2   -1    0    0    0  501 -0.00000000000E+00  0.00000000000E+00  0.25953141483E+03  0.25953141483E+03  0.00000000000E+00 0.  1.
          2   -1    0    0  502    0  0.00000000000E+00 -0.00000000000E+00 -0.27992735728E+03  0.27992735728E+03  0.00000000000E+00 0. -1.
         25    1    1    2    0    0  0.21000334929E+03 -0.92115867319E+02 -0.12245382844E+03  0.28845568087E+03  0.12500000000E+03 0.  0.
         21    1    1    2  502  501 -0.21000334929E+03  0.92115867319E+02  0.10205788598E+03  0.25100309125E+03  0.00000000000E+00 0.  1.
<mgrwt>
<rscale>  3 0.53907307E+03</rscale>
<asrwt>0</asrwt>
<pdfrwt beam="1">  1        2 0.43065747E-01 0.53907307E+03</pdfrwt>
<pdfrwt beam="2">  1       -2 0.39927910E-01 0.53907307E+03</pdfrwt>
<totfact> 0.70785298E+02</totfact>
</mgrwt>
</event>
<event>
 4    0  0.1264838E-002  0.5138423E+03  0.7546771E-02  0.1010228E+00
          2   -1    0    0  502    0  0.00000000000E+00  0.00000000000E+00  0.19764417271E+04  0.19764417271E+04  0.00000000000E+00 0.  1.
         -2   -1    0    0    0  501 -0.00000000000E+00 -0.00000000000E+00 -0.33397637518E+02  0.33397637518E+02  0.00000000000E+00 0. -1.
         25    1    1    2    0    0 -0.17970619607E+03 -0.15056930942E+03  0.12591468223E+04  0.12868726254E+04  0.12500000000E+03 0.  0.
         21    1    1    2  502  501  0.17970619607E+03  0.15056930942E+03  0.68389726722E+03  0.72296673917E+03  0.00000000000E+00 0. -1.
<mgrwt>
<rscale>  3 0.51384233E+03</rscale>
<asrwt>0</asrwt>
<pdfrwt beam="1">  1        2 0.30406787E+00 0.51384233E+03</pdfrwt>
<pdfrwt beam="2">  1       -2 0.51380996E-02 0.51384233E+03</pdfrwt>
<totfact> 0.14111681E+03</totfact>
</mgrwt>
</event>
<event>
 4    0  0.1264838E-002  0.4538355E+03  0.7546771E-02  0.1026584E+00
          2   -1    0    0  502    0  0.00000000000E+00  0.00000000000E+00  0.19856407825E+04  0.19856407825E+04  0.00000000000E+00 0. -1.
         -2   -1    0    0    0  501 -0.00000000000E+00 -0.00000000000E+00 -0.25932019972E+02  0.25932019972E+02  0.00000000000E+00 0.  1.
         25    1    1    2    0    0  0.10454896226E+03 -0.18120391797E+03  0.11184445965E+04  0.11446871454E+04  0.12500000000E+03 0.  0.
         21    1    1    2  502  501 -0.10454896226E+03  0.18120391797E+03  0.84126416604E+03  0.86688565709E+03  0.00000000000E+00 0.  1.
<mgrwt>
<rscale>  3 0.45383555E+03</rscale>
<asrwt>0</asrwt>
<pdfrwt beam="1">  1        2 0.30548308E+00 0.45383555E+03</pdfrwt>
<pdfrwt beam="2">  1       -2 0.39895431E-02 0.45383555E+03</pdfrwt>
<totfact> 0.20650999E+03</totfact>
</mgrwt>
</event>
<event>
 4    0  0.1264838E-002  0.1041547E+04  0.7546771E-02  0.9264115E-01
         -2   -1    0    0    0  501 -0.00000000000E+00  0.00000000000E+00  0.10925451940E+04  0.10925451940E+04  0.00000000000E+00 0.  1.
          2   -1    0    0  502    0  0.00000000000E+00 -0.00000000000E+00 -0.24823244640E+03  0.24823244640E+03  0.00000000000E+00 0. -1.
         25    1    1    2    0    0  0.50753549685E+03 -0.76335944838E+02  0.42124832274E+03  0.67564384586E+03  0.12500000000E+03 0.  0.
         21    1    1    2  502  501 -0.50753549685E+03  0.76335944838E+02  0.42306442482E+03  0.66513379450E+03  0.00000000000E+00 0.  1.
<mgrwt>
<rscale>  3 0.10415472E+04</rscale>
<asrwt>0</asrwt>
<pdfrwt beam="1">  1        2 0.38189608E-01 0.10415472E+04</pdfrwt>
<pdfrwt beam="2">  1       -2 0.16808387E+00 0.10415472E+04</pdfrwt>
<totfact> 0.29700414E+01</totfact>
</mgrwt>
</event>
<event>
 4    0  0.1264838E-002  0.5815247E+03  0.7546771E-02  0.9944495E-01
         -1   -1    0    0    0  501 -0.00000000000E+00  0.00000000000E+00  0.17046227575E+03  0.17046227575E+03  0.00000000000E+00 0.  1.
          1   -1    0    0  502    0  0.00000000000E+00 -0.00000000000E+00 -0.49596163220E+03  0.49596163220E+03  0.00000000000E+00 0. -1.
         25    1    1    2    0    0 -0.26168835826E+03 -0.16817971727E+02 -0.66830570944E+02  0.29808550155E+03  0.12500000000E+03 0.  0.
         21    1    1    2  502  501  0.26168835826E+03  0.16817971727E+02 -0.25866878551E+03  0.36833840639E+03  0.00000000000E+00 0. -1.
<mgrwt>
<rscale>  3 0.58152471E+03</rscale>
<asrwt>0</asrwt>
<pdfrwt beam="1">  1        1 0.76301789E-01 0.58152471E+03</pdfrwt>
<pdfrwt beam="2">  1       -1 0.26224966E-01 0.58152471E+03</pdfrwt>
<totfact> 0.58350778E+02</totfact>
</mgrwt>
</event>
<event>
 4    0  0.1264838E-002  0.7323190E+03  0.7546771E-02  0.9663505E-01
          2   -1    0    0  502    0  0.00000000000E+00  0.00000000000E+00  0.11042398319E+04  0.11042398319E+04  0.00000000000E+00 0. -1.
         -2   -1    0    0    0  501 -0.00000000000E+00 -0.00000000000E+00 -0.12141634387E+03  0.12141634387E+03  0.00000000000E+00 0.  1.
         25    1    1    2    0    0 -0.28035512034E+03  0.46563342573E+02  0.86315326450E+03  0.91729259039E+03  0.12500000000E+03 0.  0.
         21    1    1    2  502  501  0.28035512034E+03 -0.46563342573E+02  0.11967022349E+03  0.30836358534E+03  0.00000000000E+00 0.  1.
<mgrwt>
<rscale>  3 0.73231896E+03</rscale>
<asrwt>0</asrwt>
<pdfrwt beam="1">  1        2 0.16988304E+00 0.73231896E+03</pdfrwt>
<pdfrwt beam="2">  1       -2 0.18679438E-01 0.73231896E+03</pdfrwt>
<totfact> 0.52452715E+02</totfact>
</mgrwt>
</event>
<event>
 4    0  0.1264838E-002  0.5910148E+03  0.7546771E-02  0.9924225E-01
         -2   -1    0    0    0  501 -0.00000000000E+00  0.00000000000E+00  0.38970521480E+02  0.38970521480E+02  0.00000000000E+00 0.  1.
          2   -1    0    0  502    0  0.00000000000E+00 -0.00000000000E+00 -0.22407866977E+04  0.22407866977E+04  0.00000000000E+00 0. -1.
         25    1    1    2    0    0  0.28225959242E+03 -0.39902763546E+01 -0.11527783279E+04  0.11934023936E+04  0.12500000000E+03 0.  0.
         21    1    1    2  502  501 -0.28225959242E+03  0.39902763546E+01 -0.10490378484E+04  0.10863548256E+04  0.00000000000E+00 0.  1.
<mgrwt>
<rscale>  3 0.59101481E+03</rscale>
<asrwt>0</asrwt>
<pdfrwt beam="1">  1        2 0.34473644E+00 0.59101481E+03</pdfrwt>
<pdfrwt beam="2">  1       -2 0.59954645E-02 0.59101481E+03</pdfrwt>
<totfact> 0.79324429E+02</totfact>
</mgrwt>
</event>
<event>
 4    0  0.1264838E-002  0.4816680E+03  0.7546771E-02  0.1018678E+00
          2   -1    0    0  502    0  0.00000000000E+00  0.00000000000E+00  0.18979444957E+04  0.18979444957E+04  0.00000000000E+00 0. -1.
         -2   -1    0    0    0  501 -0.00000000000E+00 -0.00000000000E+00 -0.30559906313E+02  0.30559906313E+02  0.00000000000E+00 0.  1.
         25    1    1    2    0    0 -0.22446694314E+03  0.67950868622E+01  0.97866802648E+03  0.10118535901E+04  0.12500000000E+03 0.  0.
         21    1    1    2  502  501  0.22446694314E+03 -0.67950868622E+01  0.88871656287E+03  0.91665081186E+03  0.00000000000E+00 0.  1.
<mgrwt>
<rscale>  3 0.48166796E+03</rscale>
<asrwt>0</asrwt>
<pdfrwt beam="1">  1        2 0.29199137E+00 0.48166796E+03</pdfrwt>
<pdfrwt beam="2">  1       -2 0.47015255E-02 0.48166796E+03</pdfrwt>
<totfact> 0.17867476E+03</totfact>
</mgrwt>
</event>
<event>
 4    0  0.1433716E-002  0.8971107E+03  0.7546771E-02  0.9429200E-01
          2   -1    0    0  502    0  0.00000000000E+00  0.00000000000E+00  0.77335971295E+03  0.77335971295E+03  0.00000000000E+00 0. -1.
         -2   -1    0    0    0  501 -0.00000000000E+00 -0.00000000000E+00 -0.26016601169E+03  0.26016601169E+03  0.00000000000E+00 0.  1.
         25    1    1    2    0    0 -0.28787375156E+03 -0.44489423081E+02 -0.11810292969E+03  0.33826603082E+03  0.12500000000E+03 0.  0.
         21    1    1    2  502  501  0.28787375156E+03  0.44489423081E+02  0.63129663095E+03  0.69525969382E+03  0.00000000000E+00 0. -1.
<mgrwt>
<rscale>  3 0.89711072E+03</rscale>
<asrwt>0</asrwt>
<pdfrwt beam="1">  1        2 0.11897842E+00 0.89711072E+03</pdfrwt>
<pdfrwt beam="2">  1       -2 0.40025541E-01 0.89711072E+03</pdfrwt>
<totfact> 0.21331141E+02</totfact>
</mgrwt>
</event>
<event>
 4    0  0.1264838E-002  0.5980905E+03  0.7546771E-02  0.9909376E-01
         -2   -1    0    0    0  501 -0.00000000000E+00  0.00000000000E+00  0.63083496899E+02  0.63083496899E+02  0.00000000000E+00 0. -1.
          2   -1    0    0  502    0  0.00000000000E+00 -0.00000000000E+00 -0.14176142549E+04  0.14176142549E+04  0.00000000000E+00 0.  1.
         25    1    1    2    0    0 -0.11164731380E+02  0.25600401126E+03 -0.10212098018E+04  0.10602627808E+04  0.12500000000E+03 0.  0.
         21    1    1    2  502  501  0.11164731380E+02 -0.25600401126E+03 -0.33332095615E+03  0.42043497097E+03  0.00000000000E+00 0.  1.
<mgrwt>
<rscale>  3 0.59809051E+03</rscale>
<asrwt>0</asrwt>
<pdfrwt beam="1">  1        2 0.21809452E+00 0.59809051E+03</pdfrwt>
<pdfrwt beam="2">  1       -2 0.97051526E-02 0.59809051E+03</pdfrwt>
<totfact> 0.10358770E+03</totfact>
</mgrwt>
</event>
<event>
 4    0  0.1315406E-002  0.6444838E+03  0.7546771E-02  0.9817185E-01
         -1   -1    0    0    0  501 -0.00000000000E+00  0.00000000000E+00  0.39270011103E+03  0.39270011103E+03  0.00000000000E+00 0. -1.
          1   -1    0    0  502    0  0.00000000000E+00 -0.00000000000E+00 -0.26442527235E+03  0.26442527235E+03  0.00000000000E+00 0.  1.
         25    1    1    2    0    0  0.17770359980E+03  0.16037140073E+03  0.26758949875E+03  0.38016666792E+03  0.12500000000E+03 0.  0.
         21    1    1    2  502  501 -0.17770359980E+03 -0.16037140073E+03 -0.13931466008E+03  0.27695871546E+03  0.00000000000E+00 0.  1.
<mgrwt>
<rscale>  3 0.64448377E+03</rscale>
<asrwt>0</asrwt>
<pdfrwt beam="1">  1        1 0.40680811E-01 0.64448377E+03</pdfrwt>
<pdfrwt beam="2">  1       -1 0.60415401E-01 0.64448377E+03</pdfrwt>
<totfact> 0.29131922E+02</totfact>
</mgrwt>
</event>
<event>
 4    0  0.1264838E-002  0.6094563E+03  0.7546771E-02  0.9885979E-01
         -1   -1    0    0    0  501 -0.00000000000E+00  0.00000000000E+00  0.45462379230E+03  0.45462379230E+03  0.00000000000E+00 0.  1.
          1   -1    0    0  502    0  0.00000000000E+00 -0.00000000000E+00 -0.20425514107E+03  0.20425514107E+03  0.00000000000E+00 0. -1.
         25    1    1    2    0    0  0.17834989855E+03  0.19836482436E+03  0.22882774490E+01  0.29459722685E+03  0.12500000000E+03 0.  0.
         21    1    1    2  502  501 -0.17834989855E+03 -0.19836482436E+03  0.24808037377E+03  0.36428170652E+03  0.00000000000E+00 0.  1.
<mgrwt>
<rscale>  3 0.60945630E+03</rscale>
<asrwt>0</asrwt>
<pdfrwt beam="1">  1        1 0.31423868E-01 0.60945630E+03</pdfrwt>
<pdfrwt beam="2">  1       -1 0.69942122E-01 0.60945630E+03</pdfrwt>
<totfact> 0.30355242E+02</totfact>
</mgrwt>
</event>
<event>
 4    0  0.1264838E-002  0.4622964E+03  0.7546771E-02  0.1024117E+00
         -2   -1    0    0    0  501 -0.00000000000E+00  0.00000000000E+00  0.64293938024E+02  0.64293938024E+02  0.00000000000E+00 0. -1.
          2   -1    0    0  502    0  0.00000000000E+00 -0.00000000000E+00 -0.83101914829E+03  0.83101914829E+03  0.00000000000E+00 0.  1.
         25    1    1    2    0    0 -0.30502518488E+02  0.21198959475E+03 -0.42244619384E+03  0.48985281321E+03  0.12500000000E+03 0.  0.
         21    1    1    2  502  501  0.30502518488E+02 -0.21198959475E+03 -0.34427901642E+03  0.40546027310E+03  0.00000000000E+00 0.  1.
<mgrwt>
<rscale>  3 0.46229641E+03</rscale>
<asrwt>0</asrwt>
<pdfrwt beam="1">  1        2 0.12784910E+00 0.46229641E+03</pdfrwt>
<pdfrwt beam="2">  1       -2 0.98913748E-02 0.46229641E+03</pdfrwt>
<totfact> 0.22882488E+03</totfact>
</mgrwt>
</event>
<event>
 4    0  0.1264838E-002  0.7909202E+03  0.7546771E-02  0.9573254E-01
          2   -1    0    0  502    0  0.00000000000E+00  0.00000000000E+00  0.59104292629E+03  0.59104292629E+03  0.00000000000E+00 0.  1.
         -2   -1    0    0    0  501 -0.00000000000E+00 -0.00000000000E+00 -0.26459783687E+03  0.26459783687E+03  0.00000000000E+00 0. -1.
         25    1    1    2    0    0  0.35624071399E+03 -0.94254275219E+02  0.29008801688E+03  0.48535283273E+03  0.12500000000E+03 0.  0.
         21    1    1    2  502  501 -0.35624071399E+03  0.94254275219E+02  0.36357072533E+02  0.37028793043E+03  0.00000000000E+00 0. -1.
<mgrwt>
<rscale>  3 0.79092017E+03</rscale>
<asrwt>0</asrwt>
<pdfrwt beam="1">  1        2 0.90929680E-01 0.79092017E+03</pdfrwt>
<pdfrwt beam="2">  1       -2 0.40707360E-01 0.79092017E+03</pdfrwt>
<totfact> 0.29041987E+02</totfact>
</mgrwt>
</event>
<event>
 4    0  0.1264838E-002  0.8930427E+03  0.7546771E-02  0.9434320E-01
         -2   -1    0    0    0  501 -0.00000000000E+00  0.00000000000E+00  0.13133952243E+03  0.13133952243E+03  0.00000000000E+00 0. -1.
          2   -1    0    0  502    0  0.00000000000E+00 -0.00000000000E+00 -0.15180602739E+04  0.15180602739E+04  0.00000000000E+00 0.  1.
         25    1    1    2    0    0 -0.15283185544E+03 -0.19820503542E+03 -0.13703100154E+04  0.13985769019E+04  0.12500000000E+03 0.  0.
         21    1    1    2  502  501  0.15283185544E+03  0.19820503542E+03 -0.16410736014E+02  0.25082289441E+03  0.00000000000E+00 0. -1.
<mgrwt>
<rscale>  3 0.89304269E+03</rscale>
<asrwt>0</asrwt>
<pdfrwt beam="1">  1        2 0.23354772E+00 0.89304269E+03</pdfrwt>
<pdfrwt beam="2">  1       -2 0.20206081E-01 0.89304269E+03</pdfrwt>
<totfact> 0.26110657E+02</totfact>
</mgrwt>
</event>
<event>
 4    0  0.1264838E-002  0.5817768E+03  0.7546771E-02  0.9943952E-01
          2   -1    0    0  502    0  0.00000000000E+00  0.00000000000E+00  0.19462898283E+04  0.19462898283E+04  0.00000000000E+00 0. -1.
         -2   -1    0    0    0  501 -0.00000000000E+00 -0.00000000000E+00 -0.43475576197E+02  0.43475576197E+02  0.00000000000E+00 0.  1.
         25    1    1    2    0    0  0.23462293839E+03 -0.70354712737E+02  0.14410804394E+04  0.14670840268E+04  0.12500000000E+03 0.  0.
         21    1    1    2  502  501 -0.23462293839E+03  0.70354712737E+02  0.46173381275E+03  0.52268137776E+03  0.00000000000E+00 0.  1.
<mgrwt>
<rscale>  3 0.58177684E+03</rscale>
<asrwt>0</asrwt>
<pdfrwt beam="1">  1        2 0.29942914E+00 0.58177684E+03</pdfrwt>
<pdfrwt beam="2">  1       -2 0.66885517E-02 0.58177684E+03</pdfrwt>
<totfact> 0.96653758E+02</totfact>
</mgrwt>
</event>
<event>
 4    0  0.1264838E-002  0.4618968E+03  0.7546771E-02  0.1024233E+00
         -2   -1    0    0    0  501 -0.00000000000E+00  0.00000000000E+00  0.61349223190E+03  0.61349223190E+03  0.00000000000E+00 0.  1.
          2   -1    0    0  502    0  0.00000000000E+00 -0.00000000000E+00 -0.86940250339E+02  0.86940250339E+02  0.00000000000E+00 0. -1.
         25    1    1    2    0    0 -0.10344266882E+03  0.17867754298E+03  0.19698080916E+03  0.31153248510E+03  0.12500000000E+03 0.  0.
         21    1    1    2  502  501  0.10344266882E+03 -0.17867754298E+03  0.32957117240E+03  0.38889999713E+03  0.00000000000E+00 0. -1.
<mgrwt>
<rscale>  3 0.46189682E+03</rscale>
<asrwt>0</asrwt>
<pdfrwt beam="1">  1        2 0.13375424E-01 0.46189682E+03</pdfrwt>
<pdfrwt beam="2">  1       -2 0.94383418E-01 0.46189682E+03</pdfrwt>
<totfact> 0.44088173E+02</totfact>
</mgrwt>
</event>
<event>
 4    0  0.1264838E-002  0.6558990E+03  0.7546771E-02  0.9795773E-01
         -1   -1    0    0    0  501 -0.00000000000E+00  0.00000000000E+00  0.20552968931E+03  0.20552968931E+03  0.00000000000E+00 0.  1.
          1   -1    0    0  502    0  0.00000000000E+00 -0.00000000000E+00 -0.52328635917E+03  0.52328635917E+03  0.00000000000E+00 0. -1.
         25    1    1    2    0    0 -0.29858997807E+03 -0.10057267024E+03 -0.19207967072E+03  0.38960292210E+03  0.12500000000E+03 0.  0.
         21    1    1    2  502  501  0.29858997807E+03  0.10057267024E+03 -0.12567699914E+03  0.33921312639E+03  0.00000000000E+00 0.  1.
<mgrwt>
<rscale>  3 0.65589903E+03</rscale>
<asrwt>0</asrwt>
<pdfrwt beam="1">  1        1 0.80505593E-01 0.65589903E+03</pdfrwt>
<pdfrwt beam="2">  1       -1 0.31619952E-01 0.65589903E+03</pdfrwt>
<totfact> 0.39138240E+02</totfact>
</mgrwt>
</event>
<event>
 4    0  0.1264838E-002  0.1163750E+04  0.7546771E-02  0.9145192E-01
          2   -1    0    0  502    0  0.00000000000E+00  0.00000000000E+00  0.23341360731E+04  0.23341360731E+04  0.00000000000E+00 0. -1.
         -2   -1    0    0    0  501 -0.00000000000E+00 -0.00000000000E+00 -0.14505516118E+03  0.14505516118E+03  0.00000000000E+00 0.  1.
         25    1    1    2    0    0  0.47027734583E+03  0.24128636215E+03  0.62403893867E+03  0.82730253689E+03  0.12500000000E+03 0.  0.
         21    1    1    2  502  501 -0.47027734583E+03 -0.24128636215E+03  0.15650419732E+04  0.16518886974E+04  0.00000000000E+00 0. -1.
<mgrwt>
<rscale>  3 0.11637499E+04</rscale>
<asrwt>0</asrwt>
<pdfrwt beam="1">  1        2 0.35909783E+00 0.11637499E+04</pdfrwt>
<pdfrwt beam="2">  1       -2 0.22316180E-01 0.11637499E+04</pdfrwt>
<totfact> 0.75847735E+01</totfact>
</mgrwt>
</event>
<event>
 4    0  0.1264838E-002  0.8272987E+03  0.7546771E-02  0.9521323E-01
          2   -1    0    0  502    0  0.00000000000E+00  0.00000000000E+00  0.14171837687E+04  0.14171837687E+04  0.00000000000E+00 0.  1.
         -2   -1    0    0    0  501 -0.00000000000E+00 -0.00000000000E+00 -0.12073649478E+03  0.12073649478E+03  0.00000000000E+00 0. -1.
         25    1    1    2    0    0 -0.23288598478E+03 -0.96758566518E+02  0.12502447786E+04  0.12815362299E+04  0.12500000000E+03 0.  0.
         21    1    1    2  502  501  0.23288598478E+03  0.96758566518E+02  0.46202495305E+02  0.25638403358E+03  0.00000000000E+00 0. -1.
<mgrwt>
<rscale>  3 0.82729874E+03</rscale>
<asrwt>0</asrwt>
<pdfrwt beam="1">  1        2 0.21802826E+00 0.82729874E+03</pdfrwt>
<pdfrwt beam="2">  1       -2 0.18574846E-01 0.82729874E+03</pdfrwt>
<totfact> 0.34595707E+02</totfact>
</mgrwt>
</event>
<event>
 4    0  0.1264838E-002  0.4619236E+03  0.7546771E-02  0.1024225E+00
          1   -1    0    0  502    0  0.00000000000E+00  0.00000000000E+00  0.34988240117E+03  0.34988240117E+03  0.00000000000E+00 0.  1.
         -1   -1    0    0    0  501 -0.00000000000E+00 -0.00000000000E+00 -0.15246078274E+03  0.15246078274E+03  0.00000000000E+00 0. -1.
         25    1    1    2    0    0 -0.11816686378E+03 -0.17057564619E+03  0.16304541416E+03  0.29200730444E+03  0.12500000000E+03 0.  0.
         21    1    1    2  502  501  0.11816686378E+03  0.17057564619E+03  0.34376204269E+02  0.21033587946E+03  0.00000000000E+00 0.  1.
<mgrwt>
<rscale>  3 0.46192356E+03</rscale>
<asrwt>0</asrwt>
<pdfrwt beam="1">  1        1 0.53828062E-01 0.46192356E+03</pdfrwt>
<pdfrwt beam="2">  1       -1 0.23455505E-01 0.46192356E+03</pdfrwt>
<totfact> 0.11196291E+03</totfact>
</mgrwt>
</event>
<event>
 4    0  0.1264838E-002  0.7595949E+03  0.7546771E-02  0.9620417E-01
         -2   -1    0    0    0  501 -0.00000000000E+00  0.00000000000E+00  0.56461961702E+02  0.56461961702E+02  0.00000000000E+00 0.  1.
          2   -1    0    0  502    0  0.00000000000E+00 -0.00000000000E+00 -0.25547484848E+04  0.25547484848E+04  0.00000000000E+00 0. -1.
         25    1    1    2    0    0 -0.29311548394E+03 -0.66368506830E+02 -0.20220057181E+04  0.20480365206E+04  0.12500000000E+03 0.  0.
         21    1    1    2  502  501  0.29311548394E+03  0.66368506830E+02 -0.47628080500E+03  0.56317392592E+03  0.00000000000E+00 0.  1.
<mgrwt>
<rscale>  3 0.75959492E+03</rscale>
<asrwt>0</asrwt>
<pdfrwt beam="1">  1        2 0.39303820E+00 0.75959492E+03</pdfrwt>
<pdfrwt beam="2">  1       -2 0.86864563E-02 0.75959492E+03</pdfrwt>
<totfact> 0.28969879E+02</totfact>
</mgrwt>
</event>
<event>
 4    0  0.1264838E-002  0.5144496E+03  0.7546771E-02  0.1010075E+00
         -1   -1    0    0    0  501 -0.00000000000E+00  0.00000000000E+00  0.57443765130E+02  0.57443765130E+02  0.00000000000E+00 0.  1.
          1   -1    0    0  502    0  0.00000000000E+00 -0.00000000000E+00 -0.11518150241E+04  0.11518150241E+04  0.00000000000E+00 0. -1.
         25    1    1    2    0    0 -0.96265529513E+02  0.18416512215E+03 -0.28780107189E+03  0.37634864337E+03  0.12500000000E+03 0.  0.
         21    1    1    2  502  501  0.96265529513E+02 -0.18416512215E+03 -0.80657018711E+03  0.83291014588E+03  0.00000000000E+00 0. -1.
<mgrwt>
<rscale>  3 0.51444958E+03</rscale>
<asrwt>0</asrwt>
<pdfrwt beam="1">  1        1 0.17720231E+00 0.51444958E+03</pdfrwt>
<pdfrwt beam="2">  1       -1 0.88375025E-02 0.51444958E+03</pdfrwt>
<totfact> 0.90596003E+02</totfact>
</mgrwt>
</event>
<event>
 4    0  0.1264838E-002  0.6970182E+03  0.7546771E-02  0.9722345E-01
          1   -1    0    0  502    0  0.00000000000E+00  0.00000000000E+00  0.10446063506E+04  0.10446063506E+04  0.00000000000E+00 0.  1.
         -1   -1    0    0    0  501 -0.00000000000E+00 -0.00000000000E+00 -0.11627212159E+03  0.11627212159E+03  0.00000000000E+00 0. -1.
         25    1    1    2    0    0 -0.16310985899E+03 -0.28636106073E+03  0.59878198989E+03  0.69481821696E+03  0.12500000000E+03 0.  0.
         21    1    1    2  502  501  0.16310985899E+03  0.28636106073E+03  0.32955223912E+03  0.46606025523E+03  0.00000000000E+00 0. -1.
<mgrwt>
<rscale>  3 0.69701821E+03</rscale>
<asrwt>0</asrwt>
<pdfrwt beam="1">  1        1 0.16070866E+00 0.69701821E+03</pdfrwt>
<pdfrwt beam="2">  1       -1 0.17888019E-01 0.69701821E+03</pdfrwt>
<totfact> 0.34869462E+02</totfact>
</mgrwt>
</event>
<event>
 4    0  0.1264838E-002  0.5154274E+03  0.7546771E-02  0.1009829E+00
         -2   -1    0    0    0  501 -0.00000000000E+00  0.00000000000E+00  0.31764799442E+03  0.31764799442E+03  0.00000000000E+00 0.  1.
          2   -1    0    0  502    0  0.00000000000E+00 -0.00000000000E+00 -0.20908791690E+03  0.20908791690E+03  0.00000000000E+00 0. -1.
         25    1    1    2    0    0 -0.21007464287E+03 -0.10149363491E+03 -0.10325259656E+02  0.26488473813E+03  0.12500000000E+03 0.  0.
         21    1    1    2  502  501  0.21007464287E+03  0.10149363491E+03  0.11888533718E+03  0.26185117319E+03  0.00000000000E+00 0.  1.
<mgrwt>
<rscale>  3 0.51542742E+03</rscale>
<asrwt>0</asrwt>
<pdfrwt beam="1">  1        2 0.32167372E-01 0.51542742E+03</pdfrwt>
<pdfrwt beam="2">  1       -2 0.48868922E-01 0.51542742E+03</pdfrwt>
<totfact> 0.65616571E+02</totfact>
</mgrwt>
</event>
<event>
 4    0  0.1264838E-002  0.6755615E+03  0.7546771E-02  0.9759963E-01
          2   -1    0    0  502    0  0.00000000000E+00  0.00000000000E+00  0.14497829320E+04  0.14497829320E+04  0.00000000000E+00 0. -1.
         -2   -1    0    0    0  501 -0.00000000000E+00 -0.00000000000E+00 -0.78698564167E+02  0.78698564167E+02  0.00000000000E+00 0.  1.
         25    1    1    2    0    0  0.17038791111E+03 -0.14863710132E+03  0.12410311503E+04  0.12676388855E+04  0.12500000000E+03 0.  0.
         21    1    1    2  502  501 -0.17038791111E+03  0.14863710132E+03  0.13005321760E+03  0.26084261068E+03  0.00000000000E+00 0.  1.
<mgrwt>
<rscale>  3 0.67556150E+03</rscale>
<asrwt>0</asrwt>
<pdfrwt beam="1">  1        2 0.22304351E+00 0.67556150E+03</pdfrwt>
<pdfrwt beam="2">  1       -2 0.12107472E-01 0.67556150E+03</pdfrwt>
<totfact> 0.68986161E+02</totfact>
</mgrwt>
</event>
<event>
 4    0  0.1264838E-002  0.5503254E+03  0.7546771E-02  0.1001419E+00
         -2   -1    0    0    0  501 -0.00000000000E+00  0.00000000000E+00  0.27785516181E+02  0.27785516181E+02  0.00000000000E+00 0.  1.
          2   -1    0    0  502    0  0.00000000000E+00 -0.00000000000E+00 -0.27249629939E+04  0.27249629939E+04  0.00000000000E+00 0. -1.
         25    1    1    2    0    0  0.20864985364E+02 -0.23968063056E+03 -0.91245459751E+03  0.95188263184E+03  0.12500000000E+03 0.  0.
         21    1    1    2  502  501 -0.20864985364E+02  0.23968063056E+03 -0.17847228802E+04  0.18008658783E+04  0.00000000000E+00 0. -1.
<mgrwt>
<rscale>  3 0.55032537E+03</rscale>
<asrwt>0</asrwt>
<pdfrwt beam="1">  1        2 0.41922527E+00 0.55032537E+03</pdfrwt>
<pdfrwt beam="2">  1       -2 0.42746928E-02 0.55032537E+03</pdfrwt>
<totfact> 0.71911942E+02</totfact>
</mgrwt>
</event>
<event>
 4    0  0.1264838E-002  0.6588662E+03  0.7546771E-02  0.9790283E-01
         -2   -1    0    0    0  501 -0.00000000000E+00  0.00000000000E+00  0.54219293035E+02  0.54219293035E+02  0.00000000000E+00 0.  1.
          2   -1    0    0  502    0  0.00000000000E+00 -0.00000000000E+00 -0.20016155000E+04  0.20016155000E+04  0.00000000000E+00 0. -1.
         25    1    1    2    0    0  0.15779291332E+03 -0.16150735377E+03 -0.17055563684E+04  0.17249726823E+04  0.12500000000E+03 0.  0.
         21    1    1    2  502  501 -0.15779291332E+03  0.16150735377E+03 -0.24183983855E+03  0.33086211074E+03  0.00000000000E+00 0.  1.
<mgrwt>
<rscale>  3 0.65886623E+03</rscale>
<asrwt>0</asrwt>
<pdfrwt beam="1">  1        2 0.30794084E+00 0.65886623E+03</pdfrwt>
<pdfrwt beam="2">  1       -2 0.83414298E-02 0.65886623E+03</pdfrwt>
<totfact> 0.63190889E+02</totfact>
</mgrwt>
</event>
<event>
 4    0  0.1874198E-002  0.8708573E+03  0.7546771E-02  0.9462763E-01
         -1   -1    0    0    0  501 -0.00000000000E+00  0.00000000000E+00  0.21799651617E+03  0.21799651617E+03  0.00000000000E+00 0.  1.
          1   -1    0    0  502    0  0.00000000000E+00 -0.00000000000E+00 -0.86973008568E+03  0.86973008568E+03  0.00000000000E+00 0. -1.
         25    1    1    2    0    0  0.20592051969E+03 -0.60574865488E+02  0.12768903440E+03  0.27928849647E+03  0.12500000000E+03 0.  0.
         21    1    1    2  502  501 -0.20592051969E+03  0.60574865488E+02 -0.77942260390E+03  0.80843810538E+03  0.00000000000E+00 0. -1.
<mgrwt>
<rscale>  3 0.87085734E+03</rscale>
<asrwt>0</asrwt>
<pdfrwt beam="1">  1        1 0.13380463E+00 0.87085734E+03</pdfrwt>
<pdfrwt beam="2">  1       -1 0.33537925E-01 0.87085734E+03</pdfrwt>
<totfact> 0.16267601E+02</totfact>
</mgrwt>
</event>
<event>
 4    0  0.1264838E-002  0.5234710E+03  0.7546771E-02  0.1007828E+00
          1   -1    0    0  502    0  0.00000000000E+00  0.00000000000E+00  0.10924355630E+03  0.10924355630E+03  0.00000000000E+00 0.  1.
         -1   -1    0    0    0  501 -0.00000000000E+00 -0.00000000000E+00 -0.62708932552E+03  0.62708932552E+03  0.00000000000E+00 0. -1.
         25    1    1    2    0    0 -0.60828243622E+02 -0.20335021775E+03 -0.45085779265E+03  0.51375980329E+03  0.12500000000E+03 0.  0.
         21    1    1    2  502  501  0.60828243622E+02  0.20335021775E+03 -0.66987976564E+02  0.22257307853E+03  0.00000000000E+00 0.  1.
<mgrwt>
<rscale>  3 0.52347099E+03</rscale>
<asrwt>0</asrwt>
<pdfrwt beam="1">  1        1 0.16806701E-01 0.52347099E+03</pdfrwt>
<pdfrwt beam="2">  1       -1 0.96475281E-01 0.52347099E+03</pdfrwt>
<totfact> 0.34801825E+02</totfact>
</mgrwt>
</event>
<event>
 4    0  0.1264838E-002  0.1017495E+04  0.7546771E-02  0.9289562E-01
         -3   -1    0    0    0  501 -0.00000000000E+00  0.00000000000E+00  0.13424318670E+03  0.13424318670E+03  0.00000000000E+00 0.  1.
          3   -1    0    0  502    0  0.00000000000E+00 -0.00000000000E+00 -0.19280218850E+04  0.19280218850E+04  0.00000000000E+00 0. -1.
         25    1    1    2    0    0  0.17924179255E+03  0.46373433525E+03 -0.78396341228E+03  0.93669674158E+03  0.12500000000E+03 0.  0.
         21    1    1    2  502  501 -0.17924179255E+03 -0.46373433525E+03 -0.10098152860E+04  0.11255683301E+04  0.00000000000E+00 0. -1.
<mgrwt>
<rscale>  3 0.10174946E+04</rscale>
<asrwt>0</asrwt>
<pdfrwt beam="1">  1        3 0.29661874E+00 0.10174946E+04</pdfrwt>
<pdfrwt beam="2">  1       -3 0.20652799E-01 0.10174946E+04</pdfrwt>
<totfact> 0.23207497E+00</totfact>
</mgrwt>
</event>
<event>
 4    0  0.1264838E-002  0.8197239E+03  0.7546771E-02  0.9531898E-01
         -2   -1    0    0    0  501 -0.00000000000E+00  0.00000000000E+00  0.61435158028E+03  0.61435158028E+03  0.00000000000E+00 0.  1.
          2   -1    0    0  502    0  0.00000000000E+00 -0.00000000000E+00 -0.27343761844E+03  0.27343761844E+03  0.00000000000E+00 0. -1.
         25    1    1    2    0    0 -0.30198654644E+03 -0.21747430045E+03  0.14607138085E+02  0.39284769832E+03  0.12500000000E+03 0.  0.
         21    1    1    2  502  501  0.30198654644E+03  0.21747430045E+03  0.32630682376E+03  0.49494150040E+03  0.00000000000E+00 0.  1.
<mgrwt>
<rscale>  3 0.81972394E+03</rscale>
<asrwt>0</asrwt>
<pdfrwt beam="1">  1        2 0.42067326E-01 0.81972394E+03</pdfrwt>
<pdfrwt beam="2">  1       -2 0.94515627E-01 0.81972394E+03</pdfrwt>
<totfact> 0.11560397E+02</totfact>
</mgrwt>
</event>
<event>
 4    0  0.1264838E-002  0.5265310E+03  0.7546771E-02  0.1007077E+00
          3   -1    0    0  502    0  0.00000000000E+00  0.00000000000E+00  0.28302298642E+02  0.28302298642E+02  0.00000000000E+00 0. -1.
         -3   -1    0    0    0  501 -0.00000000000E+00 -0.00000000000E+00 -0.24488730147E+04  0.24488730147E+04  0.00000000000E+00 0.  1.
         25    1    1    2    0    0  0.22020548279E+03 -0.32240656927E+01 -0.18193452562E+04  0.18368840493E+04  0.12500000000E+03 0.  0.
         21    1    1    2  502  501 -0.22020548279E+03  0.32240656927E+01 -0.60122545986E+03  0.64029126406E+03  0.00000000000E+00 0. -1.
<mgrwt>
<rscale>  3 0.52653105E+03</rscale>
<asrwt>0</asrwt>
<pdfrwt beam="1">  1        3 0.43541988E-02 0.52653105E+03</pdfrwt>
<pdfrwt beam="2">  1       -3 0.37674978E+00 0.52653105E+03</pdfrwt>
<totfact> 0.12050379E+01</totfact>
</mgrwt>
</event>
<event>
 4    0  0.1264838E-002  0.6133546E+03  0.7546771E-02  0.9878081E-01
          1   -1    0    0  502    0  0.00000000000E+00  0.00000000000E+00  0.15601490597E+04  0.15601490597E+04  0.00000000000E+00 0. -1.
         -1   -1    0    0    0  501 -0.00000000000E+00 -0.00000000000E+00 -0.60283311341E+02  0.60283311341E+02  0.00000000000E+00 0.  1.
         25    1    1    2    0    0 -0.28681620227E+03 -0.31038976810E+02  0.92991504206E+03  0.98162820733E+03  0.12500000000E+03 0.  0.
         21    1    1    2  502  501  0.28681620227E+03  0.31038976810E+02  0.56995070629E+03  0.63880416371E+03  0.00000000000E+00 0. -1.
<mgrwt>
<rscale>  3 0.61335455E+03</rscale>
<asrwt>0</asrwt>
<pdfrwt beam="1">  1        1 0.24002290E+00 0.61335455E+03</pdfrwt>
<pdfrwt beam="2">  1       -1 0.92743568E-02 0.61335455E+03</pdfrwt>
<totfact> 0.43417586E+02</totfact>
</mgrwt>
</event>
<event>
 4    0  0.1264838E-002  0.5962813E+03  0.7546771E-02  0.9913151E-01
          1   -1    0    0  502    0  0.00000000000E+00  0.00000000000E+00  0.22290641658E+03  0.22290641658E+03  0.00000000000E+00 0. -1.
         -1   -1    0    0    0  501 -0.00000000000E+00 -0.00000000000E+00 -0.39876755303E+03  0.39876755303E+03  0.00000000000E+00 0.  1.
         25    1    1    2    0    0  0.22594474983E+03 -0.16920271984E+03 -0.50531302376E+02  0.31282423643E+03  0.12500000000E+03 0.  0.
         21    1    1    2  502  501 -0.22594474983E+03  0.16920271984E+03 -0.12532983407E+03  0.30884973318E+03  0.00000000000E+00 0.  1.
<mgrwt>
<rscale>  3 0.59628130E+03</rscale>
<asrwt>0</asrwt>
<pdfrwt beam="1">  1        1 0.34293295E-01 0.59628130E+03</pdfrwt>
<pdfrwt beam="2">  1       -1 0.61348854E-01 0.59628130E+03</pdfrwt>
<totfact> 0.35285276E+02</totfact>
</mgrwt>
</event>
<event>
 4    0  0.1264838E-002  0.4438556E+03  0.7546771E-02  0.1029570E+00
         -1   -1    0    0    0  501 -0.00000000000E+00  0.00000000000E+00  0.25820925726E+02  0.25820925726E+02  0.00000000000E+00 0.  1.
          1   -1    0    0  502    0  0.00000000000E+00 -0.00000000000E+00 -0.19074433707E+04  0.19074433707E+04  0.00000000000E+00 0. -1.
         25    1    1    2    0    0  0.16593174585E+02  0.20327167122E+03 -0.10695781600E+04  0.10960005229E+04  0.12500000000E+03 0.  0.
         21    1    1    2  502  501 -0.16593174585E+02 -0.20327167122E+03 -0.81204428494E+03  0.83726377353E+03  0.00000000000E+00 0.  1.
<mgrwt>
<rscale>  3 0.44385562E+03</rscale>
<asrwt>0</asrwt>
<pdfrwt beam="1">  1        1 0.29345280E+00 0.44385562E+03</pdfrwt>
<pdfrwt beam="2">  1       -1 0.39724504E-02 0.44385562E+03</pdfrwt>
<totfact> 0.94963514E+02</totfact>
</mgrwt>
</event>
<event>
 4    0  0.1264838E-002  0.5029774E+03  0.7546771E-02  0.1013005E+00
         -1   -1    0    0    0  501 -0.00000000000E+00  0.00000000000E+00  0.14028981121E+03  0.14028981121E+03  0.00000000000E+00 0.  1.
          1   -1    0    0  502    0  0.00000000000E+00 -0.00000000000E+00 -0.45082799675E+03  0.45082799675E+03  0.00000000000E+00 0. -1.
         25    1    1    2    0    0  0.16699706833E+02 -0.21471042411E+03 -0.27816956864E+03  0.37333999966E+03  0.12500000000E+03 0.  0.
         21    1    1    2  502  501 -0.16699706833E+02  0.21471042411E+03 -0.32368616901E+02  0.21777780830E+03  0.00000000000E+00 0.  1.
<mgrwt>
<rscale>  3 0.50297743E+03</rscale>
<asrwt>0</asrwt>
<pdfrwt beam="1">  1        1 0.69358153E-01 0.50297743E+03</pdfrwt>
<pdfrwt beam="2">  1       -1 0.21583048E-01 0.50297743E+03</pdfrwt>
<totfact> 0.92284703E+02</totfact>
</mgrwt>
</event>
<event>
 4    0  0.1512339E-002  0.8268026E+03  0.7546771E-02  0.9522012E-01
          1   -1    0    0  502    0  0.00000000000E+00  0.00000000000E+00  0.13376439330E+04  0.13376439330E+04  0.00000000000E+00 0. -1.
         -1   -1    0    0    0  501 -0.00000000000E+00 -0.00000000000E+00 -0.12776242358E+03  0.12776242358E+03  0.00000000000E+00 0.  1.
         25    1    1    2    0    0  0.18520830220E+03 -0.18860702751E+03  0.77386403663E+02  0.30247046385E+03  0.12500000000E+03 0.  0.
         21    1    1    2  502  501 -0.18520830220E+03  0.18860702751E+03  0.11324951058E+04  0.11629358928E+04  0.00000000000E+00 0. -1.
<mgrwt>
<rscale>  3 0.82680259E+03</rscale>
<asrwt>0</asrwt>
<pdfrwt beam="1">  1        1 0.20579136E+00 0.82680259E+03</pdfrwt>
<pdfrwt beam="2">  1       -1 0.19655758E-01 0.82680259E+03</pdfrwt>
<totfact> 0.18107384E+02</totfact>
</mgrwt>
</event>
<event>
 4    0  0.1264838E-002  0.5151430E+03  0.7546771E-02  0.1009900E+00
         -1   -1    0    0    0  501 -0.00000000000E+00  0.00000000000E+00  0.13180752496E+03  0.13180752496E+03  0.00000000000E+00 0.  1.
          1   -1    0    0  502    0  0.00000000000E+00 -0.00000000000E+00 -0.50333292300E+03  0.50333292300E+03  0.00000000000E+00 0. -1.
         25    1    1    2    0    0 -0.18829847107E+03 -0.13850844259E+03 -0.11756455819E+03  0.28997815128E+03  0.12500000000E+03 0.  0.
         21    1    1    2  502  501  0.18829847107E+03  0.13850844259E+03 -0.25396083985E+03  0.34516229669E+03  0.00000000000E+00 0. -1.
<mgrwt>
<rscale>  3 0.51514296E+03</rscale>
<asrwt>0</asrwt>
<pdfrwt beam="1">  1        1 0.77435835E-01 0.51514296E+03</pdfrwt>
<pdfrwt beam="2">  1       -1 0.20278081E-01 0.51514296E+03</pdfrwt>
<totfact> 0.88224730E+02</totfact>
</mgrwt>
</event>
<event>
 4    0  0.1264838E-002  0.4594280E+03  0.7546771E-02  0.1024947E+00
          2   -1    0    0  502    0  0.00000000000E+00  0.00000000000E+00  0.11690107149E+04  0.11690107149E+04  0.00000000000E+00 0. -1.
         -2   -1    0    0    0  501 -0.00000000000E+00 -0.00000000000E+00 -0.45139464926E+02  0.45139464926E+02  0.00000000000E+00 0.  1.
         25    1    1    2    0    0 -0.15107506139E+01 -0.21209003509E+03  0.56086184712E+03  0.61251569524E+03  0.12500000000E+03 0.  0.
         21    1    1    2  502  501  0.15107506139E+01  0.21209003509E+03  0.56300940282E+03  0.60163448456E+03  0.00000000000E+00 0. -1.
<mgrwt>
<rscale>  3 0.45942798E+03</rscale>
<asrwt>0</asrwt>
<pdfrwt beam="1">  1        2 0.17984778E+00 0.45942798E+03</pdfrwt>
<pdfrwt beam="2">  1       -2 0.69445340E-02 0.45942798E+03</pdfrwt>
<totfact> 0.24575605E+03</totfact>
</mgrwt>
</event>
<event>
 4    0  0.1264838E-002  0.4760261E+03  0.7546771E-02  0.1020233E+00
         -2   -1    0    0    0  501 -0.00000000000E+00  0.00000000000E+00  0.99586600883E+02  0.99586600883E+02  0.00000000000E+00 0.  1.
          2   -1    0    0  502    0  0.00000000000E+00 -0.00000000000E+00 -0.56885370157E+03  0.56885370157E+03  0.00000000000E+00 0. -1.
         25    1    1    2    0    0 -0.19320591570E+03 -0.51898375900E+02 -0.38465569739E+03  0.45122829346E+03  0.12500000000E+03 0.  0.
         21    1    1    2  502  501  0.19320591570E+03  0.51898375900E+02 -0.84611403291E+02  0.21721200899E+03  0.00000000000E+00 0.  1.
<mgrwt>
<rscale>  3 0.47602608E+03</rscale>
<asrwt>0</asrwt>
<pdfrwt beam="1">  1        2 0.87515956E-01 0.47602608E+03</pdfrwt>
<pdfrwt beam="2">  1       -2 0.15321015E-01 0.47602608E+03</pdfrwt>
<totfact> 0.17834368E+03</totfact>
</mgrwt>
</event>
<event>
 4    0  0.1264838E-002  0.4529524E+03  0.7546771E-02  0.1026845E+00
         -2   -1    0    0    0  501 -0.00000000000E+00  0.00000000000E+00  0.61121678547E+02  0.61121678547E+02  0.00000000000E+00 0. -1.
          2   -1    0    0  502    0  0.00000000000E+00 -0.00000000000E+00 -0.83916979094E+03  0.83916979094E+03  0.00000000000E+00 0.  1.
         25    1    1    2    0    0 -0.16432217009E+03 -0.12117806689E+03 -0.50952993314E+03  0.56296683050E+03  0.12500000000E+03 0.  0.
         21    1    1    2  502  501  0.16432217009E+03  0.12117806689E+03 -0.26851817925E+03  0.33732463899E+03  0.00000000000E+00 0. -1.
<mgrwt>
<rscale>  3 0.45295239E+03</rscale>
<asrwt>0</asrwt>
<pdfrwt beam="1">  1        2 0.12910304E+00 0.45295239E+03</pdfrwt>
<pdfrwt beam="2">  1       -2 0.94033352E-02 0.45295239E+03</pdfrwt>
<totfact> 0.24500564E+03</totfact>
</mgrwt>
</event>
<event>
 4    0  0.1264838E-002  0.9943745E+03  0.7546771E-02  0.9314736E-01
          2   -1    0    0  502    0  0.00000000000E+00  0.00000000000E+00  0.27825094308E+04  0.27825094308E+04  0.00000000000E+00 0.  1.
         -2   -1    0    0    0  501 -0.00000000000E+00 -0.00000000000E+00 -0.88838923508E+02  0.88838923508E+02  0.00000000000E+00 0. -1.
         25    1    1    2    0    0 -0.27066302097E+03 -0.67017358550E+02  0.20698085630E+03  0.36907434501E+03  0.12500000000E+03 0.  0.
         21    1    1    2  502  501  0.27066302097E+03  0.67017358550E+02  0.24866896510E+04  0.25022740093E+04  0.00000000000E+00 0.  1.
<mgrwt>
<rscale>  3 0.99437446E+03</rscale>
<asrwt>0</asrwt>
<pdfrwt beam="1">  1        2 0.42807831E+00 0.99437446E+03</pdfrwt>
<pdfrwt beam="2">  1       -2 0.13667529E-01 0.99437446E+03</pdfrwt>
<totfact> 0.99071334E+01</totfact>
</mgrwt>
</event>
<event>
 4    0  0.1264838E-002  0.5458375E+03  0.7546771E-02  0.1002462E+00
         -2   -1    0    0    0  501 -0.00000000000E+00  0.00000000000E+00  0.59200140170E+02  0.59200140170E+02  0.00000000000E+00 0. -1.
          2   -1    0    0  502    0  0.00000000000E+00 -0.00000000000E+00 -0.12581833503E+04  0.12581833503E+04  0.00000000000E+00 0.  1.
         25    1    1    2    0    0  0.59760667762E+02 -0.23152150462E+03 -0.39318591667E+03  0.47685816506E+03  0.12500000000E+03 0.  0.
         21    1    1    2  502  501 -0.59760667762E+02  0.23152150462E+03 -0.80579729349E+03  0.84052532545E+03  0.00000000000E+00 0.  1.
<mgrwt>
<rscale>  3 0.54583745E+03</rscale>
<asrwt>0</asrwt>
<pdfrwt beam="1">  1        2 0.19356666E+00 0.54583745E+03</pdfrwt>
<pdfrwt beam="2">  1       -2 0.91077144E-02 0.54583745E+03</pdfrwt>
<totfact> 0.14157141E+03</totfact>
</mgrwt>
</event>
<event>
 4    0  0.1264838E-002  0.4428264E+03  0.7546771E-02  0.1029883E+00
          2   -1    0    0  502    0  0.00000000000E+00  0.00000000000E+00  0.20059798030E+04  0.20059798030E+04  0.00000000000E+00 0.  1.
         -2   -1    0    0    0  501 -0.00000000000E+00 -0.00000000000E+00 -0.24438829237E+02  0.24438829237E+02  0.00000000000E+00 0. -1.
         25    1    1    2    0    0 -0.18462286230E+03  0.84496375815E+02  0.99065551826E+03  0.10189448438E+04  0.12500000000E+03 0.  0.
         21    1    1    2  502  501  0.18462286230E+03 -0.84496375815E+02  0.99088545553E+03  0.10114737885E+04  0.00000000000E+00 0. -1.
<mgrwt>
<rscale>  3 0.44282637E+03</rscale>
<asrwt>0</asrwt>
<pdfrwt beam="1">  1        2 0.30861215E+00 0.44282637E+03</pdfrwt>
<pdfrwt beam="2">  1       -2 0.37598215E-02 0.44282637E+03</pdfrwt>
<totfact> 0.22055557E+03</totfact>
</mgrwt>
</event>
<event>
 4    0  0.1264838E-002  0.5614120E+03  0.7546771E-02  0.9988865E-01
          2   -1    0    0  502    0  0.00000000000E+00  0.00000000000E+00  0.11901092120E+03  0.11901092120E+03  0.00000000000E+00 0. -1.
         -2   -1    0    0    0  501 -0.00000000000E+00 -0.00000000000E+00 -0.66208940147E+03  0.66208940147E+03  0.00000000000E+00 0.  1.
         25    1    1    2    0    0  0.12670151213E+02 -0.21329751735E+03 -0.62735644304E+02  0.25537643725E+03  0.12500000000E+03 0.  0.
         21    1    1    2  502  501 -0.12670151213E+02  0.21329751735E+03 -0.48034283596E+03  0.52572388542E+03  0.00000000000E+00 0.  1.
<mgrwt>
<rscale>  3 0.56141204E+03</rscale>
<asrwt>0</asrwt>
<pdfrwt beam="1">  1        2 0.18309372E-01 0.56141204E+03</pdfrwt>
<pdfrwt beam="2">  1       -2 0.10185991E+00 0.56141204E+03</pdfrwt>
<totfact> 0.25247947E+02</totfact>
</mgrwt>
</event>
<event>
 4    0  0.1264838E-002  0.7778385E+03  0.7546771E-02  0.9592661E-01
          2   -1    0    0  502    0  0.00000000000E+00  0.00000000000E+00  0.61153398612E+03  0.61153398612E+03  0.00000000000E+00 0.  1.
         -2   -1    0    0    0  501 -0.00000000000E+00 -0.00000000000E+00 -0.24734220964E+03  0.24734220964E+03  0.00000000000E+00 0. -1.
         25    1    1    2    0    0 -0.10540176595E+02  0.32975790149E+03  0.39247077946E+03  0.52774016490E+03  0.12500000000E+03 0.  0.
         21    1    1    2  502  501  0.10540176595E+02 -0.32975790149E+03 -0.28279002980E+02  0.33113603085E+03  0.00000000000E+00 0. -1.
<mgrwt>
<rscale>  3 0.77783846E+03</rscale>
<asrwt>0</asrwt>
<pdfrwt beam="1">  1        2 0.94082151E-01 0.77783846E+03</pdfrwt>
<pdfrwt beam="2">  1       -2 0.38052648E-01 0.77783846E+03</pdfrwt>
<totfact> 0.31791061E+02</totfact>
</mgrwt>
</event>
<event>
 4    0  0.1264838E-002  0.6526492E+03  0.7546771E-02  0.9801821E-01
         -3   -1    0    0    0  501 -0.00000000000E+00  0.00000000000E+00  0.46553763291E+03  0.46553763291E+03  0.00000000000E+00 0.  1.
          3   -1    0    0  502    0  0.00000000000E+00 -0.00000000000E+00 -0.22874144992E+03  0.22874144992E+03  0.00000000000E+00 0. -1.
         25    1    1    2    0    0 -0.13167946936E+03  0.22223432271E+03 -0.67824862580E+02  0.29487758278E+03  0.12500000000E+03 0.  0.
         21    1    1    2  502  501  0.13167946936E+03 -0.22223432271E+03  0.30462104557E+03  0.39940150005E+03  0.00000000000E+00 0.  1.
<mgrwt>
<rscale>  3 0.65264923E+03</rscale>
<asrwt>0</asrwt>
<pdfrwt beam="1">  1        3 0.35190992E-01 0.65264923E+03</pdfrwt>
<pdfrwt beam="2">  1       -3 0.71621174E-01 0.65264923E+03</pdfrwt>
<totfact> 0.39018851E+01</totfact>
</mgrwt>
</event>
<event>
 4    0  0.1264838E-002  0.4805581E+03  0.7546771E-02  0.1018982E+00
          2   -1    0    0  502    0  0.00000000000E+00  0.00000000000E+00  0.17162704109E+04  0.17162704109E+04  0.00000000000E+00 0.  1.
         -2   -1    0    0    0  501 -0.00000000000E+00 -0.00000000000E+00 -0.33639232387E+02  0.33639232387E+02  0.00000000000E+00 0. -1.
         25    1    1    2    0    0  0.10143185006E+03 -0.19254672421E+03  0.10917188795E+04  0.11201954173E+04  0.12500000000E+03 0.  0.
         21    1    1    2  502  501 -0.10143185006E+03  0.19254672421E+03  0.59091229901E+03  0.62971422593E+03  0.00000000000E+00 0.  1.
<mgrwt>
<rscale>  3 0.48055809E+03</rscale>
<asrwt>0</asrwt>
<pdfrwt beam="1">  1        2 0.26404153E+00 0.48055809E+03</pdfrwt>
<pdfrwt beam="2">  1       -2 0.51752678E-02 0.48055809E+03</pdfrwt>
<totfact> 0.19289444E+03</totfact>
</mgrwt>
</event>
<event>
 4    0  0.1264838E-002  0.4495851E+03  0.7546771E-02  0.1027846E+00
          4   -1    0    0  502    0  0.00000000000E+00  0.00000000000E+00  0.52306788979E+03  0.52306788979E+03  0.00000000000E+00 0.  1.
         -4   -1    0    0    0  501 -0.00000000000E+00 -0.00000000000E+00 -0.96606371789E+02  0.96606371789E+02  0.00000000000E+00 0. -1.
         25    1    1    2    0    0  0.36040750459E+02  0.19907778990E+03  0.16669810050E+03  0.29042065841E+03  0.12500000000E+03 0.  0.
         21    1    1    2  502  501 -0.36040750459E+02 -0.19907778990E+03  0.25976341750E+03  0.32925360316E+03  0.00000000000E+00 0.  1.
<mgrwt>
<rscale>  3 0.44958510E+03</rscale>
<asrwt>0</asrwt>
<pdfrwt beam="1">  1        4 0.80471982E-01 0.44958510E+03</pdfrwt>
<pdfrwt beam="2">  1       -4 0.14862519E-01 0.44958510E+03</pdfrwt>
<totfact> 0.10460503E+02</totfact>
</mgrwt>
</event>
<event>
 4    0  0.1264838E-002  0.6537578E+03  0.7546771E-02  0.9799753E-01
          1   -1    0    0  502    0  0.00000000000E+00  0.00000000000E+00  0.40377012560E+03  0.40377012560E+03  0.00000000000E+00 0. -1.
         -1   -1    0    0    0  501 -0.00000000000E+00 -0.00000000000E+00 -0.26463031884E+03  0.26463031884E+03  0.00000000000E+00 0.  1.
         25    1    1    2    0    0  0.31436343399E+03 -0.15725880443E+02  0.82760495613E+02  0.34863443832E+03  0.12500000000E+03 0.  0.
         21    1    1    2  502  501 -0.31436343399E+03  0.15725880443E+02  0.56379311146E+02  0.31976600613E+03  0.00000000000E+00 0. -1.
<mgrwt>
<rscale>  3 0.65375781E+03</rscale>
<asrwt>0</asrwt>
<pdfrwt beam="1">  1        1 0.62118481E-01 0.65375781E+03</pdfrwt>
<pdfrwt beam="2">  1       -1 0.40712357E-01 0.65375781E+03</pdfrwt>
<totfact> 0.35385093E+02</totfact>
</mgrwt>
</event>
<event>
 4    0  0.1264838E-002  0.9751509E+03  0.7546771E-02  0.9336227E-01
          2   -1    0    0  502    0  0.00000000000E+00  0.00000000000E+00  0.10399889153E+04  0.10399889153E+04  0.00000000000E+00 0.  1.
         -2   -1    0    0    0  501 -0.00000000000E+00 -0.00000000000E+00 -0.22858881537E+03  0.22858881537E+03  0.00000000000E+00 0. -1.
         25    1    1    2    0    0 -0.77055394182E+02  0.19462839410E+03  0.97366343946E+03  0.10037246828E+04  0.12500000000E+03 0.  0.
         21    1    1    2  502  501  0.77055394182E+02 -0.19462839410E+03 -0.16226333957E+03  0.26485304780E+03  0.00000000000E+00 0. -1.
<mgrwt>
<rscale>  3 0.97515093E+03</rscale>
<asrwt>0</asrwt>
<pdfrwt beam="1">  1        2 0.15999829E+00 0.97515093E+03</pdfrwt>
<pdfrwt beam="2">  1       -2 0.35167511E-01 0.97515093E+03</pdfrwt>
<totfact> 0.17999532E+02</totfact>
</mgrwt>
</event>
<event>
 4    0  0.1264838E-002  0.5095448E+03  0.7546771E-02  0.1011317E+00
          2   -1    0    0  502    0  0.00000000000E+00  0.00000000000E+00  0.15084225907E+04  0.15084225907E+04  0.00000000000E+00 0. -1.
         -2   -1    0    0    0  501 -0.00000000000E+00 -0.00000000000E+00 -0.43031020738E+02  0.43031020738E+02  0.00000000000E+00 0.  1.
         25    1    1    2    0    0 -0.17157928527E+03  0.16691934676E+03  0.79347342502E+03  0.83816859621E+03  0.12500000000E+03 0.  0.
         21    1    1    2  502  501  0.17157928527E+03 -0.16691934676E+03  0.67191814496E+03  0.71328501525E+03  0.00000000000E+00 0.  1.
<mgrwt>
<rscale>  3 0.50954475E+03</rscale>
<asrwt>0</asrwt>
<pdfrwt beam="1">  1        2 0.23206497E+00 0.50954475E+03</pdfrwt>
<pdfrwt beam="2">  1       -2 0.66201582E-02 0.50954475E+03</pdfrwt>
<totfact> 0.17025273E+03</totfact>
</mgrwt>
</event>
<event>
 4    0  0.1264838E-002  0.4491933E+03  0.7546771E-02  0.1027963E+00
          2   -1    0    0  502    0  0.00000000000E+00  0.00000000000E+00  0.22765860409E+03  0.22765860409E+03  0.00000000000E+00 0.  1.
         -2   -1    0    0    0  501 -0.00000000000E+00 -0.00000000000E+00 -0.22157588607E+03  0.22157588607E+03  0.00000000000E+00 0. -1.
         25    1    1    2    0    0  0.16637488977E+03 -0.11909333534E+03  0.35988010500E+02  0.24245404383E+03  0.12500000000E+03 0.  0.
         21    1    1    2  502  501 -0.16637488977E+03  0.11909333534E+03 -0.29905292484E+02  0.20678044633E+03  0.00000000000E+00 0. -1.
<mgrwt>
<rscale>  3 0.44919331E+03</rscale>
<asrwt>0</asrwt>
<pdfrwt beam="1">  1        2 0.35024401E-01 0.44919331E+03</pdfrwt>
<pdfrwt beam="2">  1       -2 0.34088598E-01 0.44919331E+03</pdfrwt>
<totfact> 0.12016358E+03</totfact>
</mgrwt>
</event>
<event>
 4    0  0.1264838E-002  0.4742394E+03  0.7546771E-02  0.1020730E+00
          2   -1    0    0  502    0  0.00000000000E+00  0.00000000000E+00  0.27896389302E+04  0.27896389302E+04  0.00000000000E+00 0. -1.
         -2   -1    0    0    0  501 -0.00000000000E+00 -0.00000000000E+00 -0.20155209651E+02  0.20155209651E+02  0.00000000000E+00 0.  1.
         25    1    1    2    0    0 -0.50826389306E+02 -0.20030493280E+03  0.10228037003E+04  0.10509318709E+04  0.12500000000E+03 0.  0.
         21    1    1    2  502  501  0.50826389306E+02  0.20030493280E+03  0.17466800203E+04  0.17588622690E+04  0.00000000000E+00 0. -1.
<mgrwt>
<rscale>  3 0.47423942E+03</rscale>
<asrwt>0</asrwt>
<pdfrwt beam="1">  1        2 0.42917491E+00 0.47423942E+03</pdfrwt>
<pdfrwt beam="2">  1       -2 0.31008037E-02 0.47423942E+03</pdfrwt>
<totfact> 0.10845134E+03</totfact>
</mgrwt>
</event>
<event>
 4    0  0.1264838E-002  0.4959427E+03  0.7546771E-02  0.1014843E+00
          1   -1    0    0  502    0  0.00000000000E+00  0.00000000000E+00  0.35075797984E+03  0.35075797984E+03  0.00000000000E+00 0.  1.
         -1   -1    0    0    0  501 -0.00000000000E+00 -0.00000000000E+00 -0.17530545095E+03  0.17530545095E+03  0.00000000000E+00 0. -1.
         25    1    1    2    0    0 -0.14674449824E+03 -0.17098121944E+03  0.15289808479E+03  0.29961867348E+03  0.12500000000E+03 0.  0.
         21    1    1    2  502  501  0.14674449824E+03  0.17098121944E+03  0.22554444108E+02  0.22644475731E+03  0.00000000000E+00 0. -1.
<mgrwt>
<rscale>  3 0.49594268E+03</rscale>
<asrwt>0</asrwt>
<pdfrwt beam="1">  1        1 0.53962766E-01 0.49594268E+03</pdfrwt>
<pdfrwt beam="2">  1       -1 0.26970069E-01 0.49594268E+03</pdfrwt>
<totfact> 0.88127772E+02</totfact>
</mgrwt>
</event>
<event>
 4    0  0.1264838E-002  0.4607072E+03  0.7546771E-02  0.1024576E+00
          2   -1    0    0  502    0  0.00000000000E+00  0.00000000000E+00  0.46171695506E+03  0.46171695506E+03  0.00000000000E+00 0. -1.
         -2   -1    0    0    0  501 -0.00000000000E+00 -0.00000000000E+00 -0.11492488889E+03  0.11492488889E+03  0.00000000000E+00 0.  1.
         25    1    1    2    0    0  0.18252895387E+03  0.10909736753E+03  0.20850794918E+03  0.32298547873E+03  0.12500000000E+03 0.  0.
         21    1    1    2  502  501 -0.18252895387E+03 -0.10909736753E+03  0.13828411699E+03  0.25365636521E+03  0.00000000000E+00 0. -1.
<mgrwt>
<rscale>  3 0.46070715E+03</rscale>
<asrwt>0</asrwt>
<pdfrwt beam="1">  1        2 0.71033377E-01 0.46070715E+03</pdfrwt>
<pdfrwt beam="2">  1       -2 0.17680752E-01 0.46070715E+03</pdfrwt>
<totfact> 0.17783598E+03</totfact>
</mgrwt>
</event>
<event>
 4    0  0.1264838E-002  0.4943686E+03  0.7546771E-02  0.1015259E+00
          2   -1    0    0  502    0  0.00000000000E+00  0.00000000000E+00  0.26777108438E+03  0.26777108438E+03  0.00000000000E+00 0. -1.
         -2   -1    0    0    0  501 -0.00000000000E+00 -0.00000000000E+00 -0.22818022660E+03  0.22818022660E+03  0.00000000000E+00 0.  1.
         25    1    1    2    0    0 -0.14079021648E+03 -0.18193347018E+03 -0.38303084647E+01  0.26184221182E+03  0.12500000000E+03 0.  0.
         21    1    1    2  502  501  0.14079021648E+03  0.18193347018E+03  0.43421166246E+02  0.23410909915E+03  0.00000000000E+00 0. -1.
<mgrwt>
<rscale>  3 0.49436855E+03</rscale>
<asrwt>0</asrwt>
<pdfrwt beam="1">  1        2 0.41195551E-01 0.49436855E+03</pdfrwt>
<pdfrwt beam="2">  1       -2 0.35104650E-01 0.49436855E+03</pdfrwt>
<totfact> 0.95113646E+02</totfact>
</mgrwt>
</event>
<event>
 4    0  0.1264838E-002  0.4795959E+03  0.7546771E-02  0.1019246E+00
         -1   -1    0    0    0  501 -0.00000000000E+00  0.00000000000E+00  0.15110693219E+03  0.15110693219E+03  0.00000000000E+00 0. -1.
          1   -1    0    0  502    0  0.00000000000E+00 -0.00000000000E+00 -0.38054538678E+03  0.38054538678E+03  0.00000000000E+00 0.  1.
         25    1    1    2    0    0 -0.16393594945E+03 -0.15055824314E+03 -0.99980669093E+02  0.27416038060E+03  0.12500000000E+03 0.  0.
         21    1    1    2  502  501  0.16393594945E+03  0.15055824314E+03 -0.12945778550E+03  0.25749193837E+03  0.00000000000E+00 0.  1.
<mgrwt>
<rscale>  3 0.47959585E+03</rscale>
<asrwt>0</asrwt>
<pdfrwt beam="1">  1        1 0.58545444E-01 0.47959585E+03</pdfrwt>
<pdfrwt beam="2">  1       -1 0.23247221E-01 0.47959585E+03</pdfrwt>
<totfact> 0.10191288E+03</totfact>
</mgrwt>
</event>
<event>
 4    0  0.1264838E-002  0.1105864E+04  0.7546771E-02  0.9199495E-01
         -2   -1    0    0    0  501 -0.00000000000E+00  0.00000000000E+00  0.37502830373E+03  0.37502830373E+03  0.00000000000E+00 0. -1.
          2   -1    0    0  502    0  0.00000000000E+00 -0.00000000000E+00 -0.81522856397E+03  0.81522856397E+03  0.00000000000E+00 0.  1.
         25    1    1    2    0    0  0.32376109743E+03 -0.34599346124E+03 -0.51458833742E+03  0.71060458796E+03  0.12500000000E+03 0.  0.
         21    1    1    2  502  501 -0.32376109743E+03  0.34599346124E+03  0.74388077168E+02  0.47965227974E+03  0.00000000000E+00 0. -1.
<mgrwt>
<rscale>  3 0.11058640E+04</rscale>
<asrwt>0</asrwt>
<pdfrwt beam="1">  1        2 0.12541978E+00 0.11058640E+04</pdfrwt>
<pdfrwt beam="2">  1       -2 0.57696662E-01 0.11058640E+04</pdfrwt>
<totfact> 0.93794294E+01</totfact>
</mgrwt>
</event>
<event>
 4    0  0.1264838E-002  0.4976949E+03  0.7546771E-02  0.1014382E+00
         -1   -1    0    0    0  501 -0.00000000000E+00  0.00000000000E+00  0.50877027160E+02  0.50877027160E+02  0.00000000000E+00 0. -1.
          1   -1    0    0  502    0  0.00000000000E+00 -0.00000000000E+00 -0.12171514139E+04  0.12171514139E+04  0.00000000000E+00 0.  1.
         25    1    1    2    0    0  0.22498392285E+03 -0.42485491838E+02 -0.50781339686E+03  0.57089598754E+03  0.12500000000E+03 0.  0.
         21    1    1    2  502  501 -0.22498392285E+03  0.42485491838E+02 -0.65846098989E+03  0.69713245353E+03  0.00000000000E+00 0.  1.
<mgrwt>
<rscale>  3 0.49769487E+03</rscale>
<asrwt>0</asrwt>
<pdfrwt beam="1">  1        1 0.18725406E+00 0.49769487E+03</pdfrwt>
<pdfrwt beam="2">  1       -1 0.78272351E-02 0.49769487E+03</pdfrwt>
<totfact> 0.98293025E+02</totfact>
</mgrwt>
</event>
<event>
 4    0  0.1264838E-002  0.6035139E+03  0.7546771E-02  0.9898143E-01
         -2   -1    0    0    0  501 -0.00000000000E+00  0.00000000000E+00  0.14652287720E+03  0.14652287720E+03  0.00000000000E+00 0. -1.
          2   -1    0    0  502    0  0.00000000000E+00 -0.00000000000E+00 -0.62145419931E+03  0.62145419931E+03  0.00000000000E+00 0.  1.
         25    1    1    2    0    0 -0.37409618464E+01  0.26374662024E+03 -0.39733382076E+03  0.49302681428E+03  0.12500000000E+03 0.  0.
         21    1    1    2  502  501  0.37409618464E+01 -0.26374662024E+03 -0.77597501352E+02  0.27495026223E+03  0.00000000000E+00 0. -1.
<mgrwt>
<rscale>  3 0.60351390E+03</rscale>
<asrwt>0</asrwt>
<pdfrwt beam="1">  1        2 0.95608338E-01 0.60351390E+03</pdfrwt>
<pdfrwt beam="2">  1       -2 0.22541981E-01 0.60351390E+03</pdfrwt>
<totfact> 0.82438075E+02</totfact>
</mgrwt>
</event>
<event>
 4    0  0.1465873E-002  0.7041752E+03  0.7546771E-02  0.9710119E-01
         -1   -1    0    0    0  501 -0.00000000000E+00  0.00000000000E+00  0.94825078968E+02  0.94825078968E+02  0.00000000000E+00 0.  1.
          1   -1    0    0  502    0  0.00000000000E+00 -0.00000000000E+00 -0.13073088618E+04  0.13073088618E+04  0.00000000000E+00 0. -1.
         25    1    1    2    0    0  0.22279067635E+03 -0.35892853946E+02 -0.11631998553E+03  0.28298289960E+03  0.12500000000E+03 0.  0.
         21    1    1    2  502  501 -0.22279067635E+03  0.35892853946E+02 -0.10961637973E+04  0.11191510411E+04  0.00000000000E+00 0. -1.
<mgrwt>
<rscale>  3 0.70417517E+03</rscale>
<asrwt>0</asrwt>
<pdfrwt beam="1">  1        1 0.20112442E+00 0.70417517E+03</pdfrwt>
<pdfrwt beam="2">  1       -1 0.14588475E-01 0.70417517E+03</pdfrwt>
<totfact> 0.31293454E+02</totfact>
</mgrwt>
</event>
<event>
 4    0  0.1264838E-002  0.5749401E+03  0.7546771E-02  0.9958806E-01
         -1   -1    0    0    0  501 -0.00000000000E+00  0.00000000000E+00  0.83208516897E+02  0.83208516897E+02  0.00000000000E+00 0.  1.
          1   -1    0    0  502    0  0.00000000000E+00 -0.00000000000E+00 -0.99315596626E+03  0.99315596626E+03  0.00000000000E+00 0. -1.
         25    1    1    2    0    0 -0.16922636051E+03  0.14944475121E+03 -0.76675031650E+03  0.80901319063E+03  0.12500000000E+03 0.  0.
         21    1    1    2  502  501  0.16922636051E+03 -0.14944475121E+03 -0.14319713287E+03  0.26735129253E+03  0.00000000000E+00 0.  1.
<mgrwt>
<rscale>  3 0.57494012E+03</rscale>
<asrwt>0</asrwt>
<pdfrwt beam="1">  1        1 0.15279322E+00 0.57494012E+03</pdfrwt>
<pdfrwt beam="2">  1       -1 0.12801311E-01 0.57494012E+03</pdfrwt>
<totfact> 0.66104378E+02</totfact>
</mgrwt>
</event>
<event>
 4    0  0.1264838E-002  0.5290531E+03  0.7546771E-02  0.1006462E+00
         -2   -1    0    0    0  501 -0.00000000000E+00  0.00000000000E+00  0.51562183097E+03  0.51562183097E+03  0.00000000000E+00 0.  1.
          2   -1    0    0  502    0  0.00000000000E+00 -0.00000000000E+00 -0.13570857653E+03  0.13570857653E+03  0.00000000000E+00 0. -1.
         25    1    1    2    0    0 -0.77370592024E+02  0.19845734153E+03  0.36111918808E+03  0.43749696332E+03  0.12500000000E+03 0.  0.
         21    1    1    2  502  501  0.77370592024E+02 -0.19845734153E+03  0.18794066358E+02  0.21383344417E+03  0.00000000000E+00 0. -1.
<mgrwt>
<rscale>  3 0.52905313E+03</rscale>
<asrwt>0</asrwt>
<pdfrwt beam="1">  1        2 0.20878243E-01 0.52905313E+03</pdfrwt>
<pdfrwt beam="2">  1       -2 0.79326435E-01 0.52905313E+03</pdfrwt>
<totfact> 0.38451930E+02</totfact>
</mgrwt>
</event>
<event>
 4    0  0.1264838E-002  0.5154958E+03  0.7546771E-02  0.1009812E+00
          2   -1    0    0  502    0  0.00000000000E+00  0.00000000000E+00  0.52749272961E+03  0.52749272961E+03  0.00000000000E+00 0.  1.
         -2   -1    0    0    0  501 -0.00000000000E+00 -0.00000000000E+00 -0.12594291468E+03  0.12594291468E+03  0.00000000000E+00 0. -1.
         25    1    1    2    0    0  0.22881015723E+03  0.43626032681E+02  0.29849457418E+03  0.39872462878E+03  0.12500000000E+03 0.  0.
         21    1    1    2  502  501 -0.22881015723E+03 -0.43626032681E+02  0.10305524076E+03  0.25471101552E+03  0.00000000000E+00 0. -1.
<mgrwt>
<rscale>  3 0.51549577E+03</rscale>
<asrwt>0</asrwt>
<pdfrwt beam="1">  1        2 0.81152727E-01 0.51549577E+03</pdfrwt>
<pdfrwt beam="2">  1       -2 0.19375833E-01 0.51549577E+03</pdfrwt>
<totfact> 0.13054936E+03</totfact>
</mgrwt>
</event>
<event>
 4    0  0.1264838E-002  0.5031599E+03  0.7546771E-02  0.1012957E+00
          2   -1    0    0  502    0  0.00000000000E+00  0.00000000000E+00  0.12000319498E+03  0.12000319498E+03  0.00000000000E+00 0. -1.
         -2   -1    0    0    0  501 -0.00000000000E+00 -0.00000000000E+00 -0.52742313365E+03  0.52742313365E+03  0.00000000000E+00 0.  1.
         25    1    1    2    0    0 -0.12361900774E+03  0.17477806672E+03 -0.88306966815E+02  0.26315803630E+03  0.12500000000E+03 0.  0.
         21    1    1    2  502  501  0.12361900774E+03 -0.17477806672E+03 -0.31911297186E+03  0.38426829233E+03  0.00000000000E+00 0.  1.
<mgrwt>
<rscale>  3 0.50315986E+03</rscale>
<asrwt>0</asrwt>
<pdfrwt beam="1">  1        2 0.18462030E-01 0.50315986E+03</pdfrwt>
<pdfrwt beam="2">  1       -2 0.81142021E-01 0.50315986E+03</pdfrwt>
<totfact> 0.42229445E+02</totfact>
</mgrwt>
</event>
<event>
 4    0  0.1264838E-002  0.4791266E+03  0.7546771E-02  0.1019375E+00
         -1   -1    0    0    0  501 -0.00000000000E+00  0.00000000000E+00  0.42286116364E+02  0.42286116364E+02  0.00000000000E+00 0.  1.
          1   -1    0    0  502    0  0.00000000000E+00 -0.00000000000E+00 -0.13571967722E+04  0.13571967722E+04  0.00000000000E+00 0. -1.
         25    1    1    2    0    0 -0.13501538349E+03 -0.16923215154E+03 -0.86152862286E+03  0.89706479303E+03  0.12500000000E+03 0.  0.
         21    1    1    2  502  501  0.13501538349E+03  0.16923215154E+03 -0.45338203298E+03  0.50241809554E+03  0.00000000000E+00 0.  1.
<mgrwt>
<rscale>  3 0.47912662E+03</rscale>
<asrwt>0</asrwt>
<pdfrwt beam="1">  1        1 0.20879951E+00 0.47912662E+03</pdfrwt>
<pdfrwt beam="2">  1       -1 0.65055562E-02 0.47912662E+03</pdfrwt>
<totfact> 0.10443816E+03</totfact>
</mgrwt>
</event>
<event>
 4    0  0.1264838E-002  0.6791061E+03  0.7546771E-02  0.9753646E-01
         -2   -1    0    0    0  501 -0.00000000000E+00  0.00000000000E+00  0.51791633217E+03  0.51791633217E+03  0.00000000000E+00 0. -1.
          2   -1    0    0  502    0  0.00000000000E+00 -0.00000000000E+00 -0.22261561282E+03  0.22261561282E+03  0.00000000000E+00 0.  1.
         25    1    1    2    0    0  0.31584567371E+03  0.73485460490E+02  0.98595607192E+02  0.36125433736E+03  0.12500000000E+03 0.  0.
         21    1    1    2  502  501 -0.31584567371E+03 -0.73485460490E+02  0.19670511216E+03  0.37927760763E+03  0.00000000000E+00 0. -1.
<mgrwt>
<rscale>  3 0.67910606E+03</rscale>
<asrwt>0</asrwt>
<pdfrwt beam="1">  1        2 0.34248556E-01 0.67910606E+03</pdfrwt>
<pdfrwt beam="2">  1       -2 0.79679436E-01 0.67910606E+03</pdfrwt>
<totfact> 0.21598908E+02</totfact>
</mgrwt>
</event>
<event>
 4    0  0.1264838E-002  0.5021243E+03  0.7546771E-02  0.1013226E+00
         -2   -1    0    0    0  501 -0.00000000000E+00  0.00000000000E+00  0.16693884006E+03  0.16693884006E+03  0.00000000000E+00 0.  1.
          2   -1    0    0  502    0  0.00000000000E+00 -0.00000000000E+00 -0.37757655121E+03  0.37757655121E+03  0.00000000000E+00 0. -1.
         25    1    1    2    0    0 -0.21219941988E+03  0.10109843046E+03 -0.96045675780E+02  0.28301812358E+03  0.12500000000E+03 0.  0.
         21    1    1    2  502  501  0.21219941988E+03 -0.10109843046E+03 -0.11459203537E+03  0.26149726769E+03  0.00000000000E+00 0. -1.
<mgrwt>
<rscale>  3 0.50212425E+03</rscale>
<asrwt>0</asrwt>
<pdfrwt beam="1">  1        2 0.58088699E-01 0.50212425E+03</pdfrwt>
<pdfrwt beam="2">  1       -2 0.25682899E-01 0.50212425E+03</pdfrwt>
<totfact> 0.11587152E+03</totfact>
</mgrwt>
</event>
<event>
 4    0  0.1264838E-002  0.1049223E+04  0.7546771E-02  0.9256147E-01
         -2   -1    0    0    0  501 -0.00000000000E+00  0.00000000000E+00  0.75848482721E+02  0.75848482721E+02  0.00000000000E+00 0.  1.
          2   -1    0    0  502    0  0.00000000000E+00 -0.00000000000E+00 -0.36285130017E+04  0.36285130017E+04  0.00000000000E+00 0. -1.
         25    1    1    2    0    0 -0.15812578514E+03  0.48107196316E+03 -0.21722741726E+04  0.22340174750E+04  0.12500000000E+03 0.  0.
         21    1    1    2  502  501  0.15812578514E+03 -0.48107196316E+03 -0.13803903464E+04  0.14703440095E+04  0.00000000000E+00 0.  1.
<mgrwt>
<rscale>  3 0.10492230E+04</rscale>
<asrwt>0</asrwt>
<pdfrwt beam="1">  1        2 0.55823280E+00 0.10492230E+04</pdfrwt>
<pdfrwt beam="2">  1       -2 0.11668997E-01 0.10492230E+04</pdfrwt>
<totfact> 0.36438076E+01</totfact>
</mgrwt>
</event>
<event>
 4    0  0.1264838E-002  0.6346394E+03  0.7546771E-02  0.9836037E-01
         -1   -1    0    0    0  501 -0.00000000000E+00  0.00000000000E+00  0.17876248410E+03  0.17876248410E+03  0.00000000000E+00 0. -1.
          1   -1    0    0  502    0  0.00000000000E+00 -0.00000000000E+00 -0.56327144505E+03  0.56327144505E+03  0.00000000000E+00 0.  1.
         25    1    1    2    0    0 -0.10047907882E+03 -0.26460892778E+03 -0.33259785624E+03  0.45426893348E+03  0.12500000000E+03 0.  0.
         21    1    1    2  502  501  0.10047907882E+03  0.26460892778E+03 -0.51911104700E+02  0.28776499567E+03  0.00000000000E+00 0.  1.
<mgrwt>
<rscale>  3 0.63463943E+03</rscale>
<asrwt>0</asrwt>
<pdfrwt beam="1">  1        1 0.86657145E-01 0.63463943E+03</pdfrwt>
<pdfrwt beam="2">  1       -1 0.27501921E-01 0.63463943E+03</pdfrwt>
<totfact> 0.45026071E+02</totfact>
</mgrwt>
</event>
<event>
 4    0  0.1264838E-002  0.5617414E+03  0.7546771E-02  0.9988122E-01
         -2   -1    0    0    0  501 -0.00000000000E+00  0.00000000000E+00  0.16289042087E+03  0.16289042087E+03  0.00000000000E+00 0. -1.
          2   -1    0    0  502    0  0.00000000000E+00 -0.00000000000E+00 -0.48430313791E+03  0.48430313791E+03  0.00000000000E+00 0.  1.
         25    1    1    2    0    0  0.24375791076E+03 -0.10030146634E+03 -0.11990648594E+03  0.31540587911E+03  0.12500000000E+03 0.  0.
         21    1    1    2  502  501 -0.24375791076E+03  0.10030146634E+03 -0.20150623111E+03  0.33178767967E+03  0.00000000000E+00 0.  1.
<mgrwt>
<rscale>  3 0.56174137E+03</rscale>
<asrwt>0</asrwt>
<pdfrwt beam="1">  1        2 0.74508174E-01 0.56174137E+03</pdfrwt>
<pdfrwt beam="2">  1       -2 0.25060065E-01 0.56174137E+03</pdfrwt>
<totfact> 0.91524918E+02</totfact>
</mgrwt>
</event>
<event>
 4    0  0.1264838E-002  0.4545725E+03  0.7546771E-02  0.1026367E+00
         -2   -1    0    0    0  501 -0.00000000000E+00  0.00000000000E+00  0.18661688791E+02  0.18661688791E+02  0.00000000000E+00 0. -1.
          2   -1    0    0  502    0  0.00000000000E+00 -0.00000000000E+00 -0.27681872628E+04  0.27681872628E+04  0.00000000000E+00 0.  1.
         25    1    1    2    0    0 -0.19720515812E+03 -0.67367609826E+02 -0.13149392850E+04  0.13372055162E+04  0.12500000000E+03 0.  0.
         21    1    1    2  502  501  0.19720515812E+03  0.67367609826E+02 -0.14345862890E+04  0.14496434354E+04  0.00000000000E+00 0. -1.
<mgrwt>
<rscale>  3 0.45457254E+03</rscale>
<asrwt>0</asrwt>
<pdfrwt beam="1">  1        2 0.42587499E+00 0.45457254E+03</pdfrwt>
<pdfrwt beam="2">  1       -2 0.28710289E-02 0.45457254E+03</pdfrwt>
<totfact> 0.12562182E+03</totfact>
</mgrwt>
</event>
<event>
 4    0  0.1264838E-002  0.4472447E+03  0.7546771E-02  0.1028547E+00
          2   -1    0    0  502    0  0.00000000000E+00  0.00000000000E+00  0.82084008739E+03  0.82084008739E+03  0.00000000000E+00 0.  1.
         -2   -1    0    0    0  501 -0.00000000000E+00 -0.00000000000E+00 -0.60921666089E+02  0.60921666089E+02  0.00000000000E+00 0. -1.
         25    1    1    2    0    0 -0.15848116871E+03 -0.12367381337E+03  0.31954862984E+03  0.39767803532E+03  0.12500000000E+03 0.  0.
         21    1    1    2  502  501  0.15848116871E+03  0.12367381337E+03  0.44036979146E+03  0.48408371815E+03  0.00000000000E+00 0.  1.
<mgrwt>
<rscale>  3 0.44724466E+03</rscale>
<asrwt>0</asrwt>
<pdfrwt beam="1">  1        2 0.12628308E+00 0.44724466E+03</pdfrwt>
<pdfrwt beam="2">  1       -2 0.93725646E-02 0.44724466E+03</pdfrwt>
<totfact> 0.25357061E+03</totfact>
</mgrwt>
</event>
<event>
 4    0  0.1264838E-002  0.1211054E+04  0.7546771E-02  0.9103235E-01
         -1   -1    0    0    0  501 -0.00000000000E+00  0.00000000000E+00  0.21309824738E+03  0.21309824738E+03  0.00000000000E+00 0. -1.
          1   -1    0    0  502    0  0.00000000000E+00 -0.00000000000E+00 -0.17206297099E+04  0.17206297099E+04  0.00000000000E+00 0.  1.
         25    1    1    2    0    0  0.35684646498E+02  0.38912671721E+03 -0.36733688597E+02  0.41190697969E+03  0.12500000000E+03 0.  0.
         21    1    1    2  502  501 -0.35684646498E+02 -0.38912671721E+03 -0.14707977739E+04  0.15218209776E+04  0.00000000000E+00 0.  1.
<mgrwt>
<rscale>  3 0.12110544E+04</rscale>
<asrwt>0</asrwt>
<pdfrwt beam="1">  1        1 0.26471226E+00 0.12110544E+04</pdfrwt>
<pdfrwt beam="2">  1       -1 0.32784346E-01 0.12110544E+04</pdfrwt>
<totfact> 0.39812631E+01</totfact>
</mgrwt>
</event>
<event>
 4    0  0.1264838E-002  0.5757775E+03  0.7546771E-02  0.9956975E-01
          1   -1    0    0  502    0  0.00000000000E+00  0.00000000000E+00  0.92196352690E+02  0.92196352690E+02  0.00000000000E+00 0.  1.
         -1   -1    0    0    0  501 -0.00000000000E+00 -0.00000000000E+00 -0.89895012537E+03  0.89895012537E+03  0.00000000000E+00 0. -1.
         25    1    1    2    0    0  0.21423889311E+03 -0.10082455276E+02 -0.71680215544E+03  0.75857121568E+03  0.12500000000E+03 0.  0.
         21    1    1    2  502  501 -0.21423889311E+03  0.10082455276E+02 -0.89951617239E+02  0.23257526237E+03  0.00000000000E+00 0.  1.
<mgrwt>
<rscale>  3 0.57577747E+03</rscale>
<asrwt>0</asrwt>
<pdfrwt beam="1">  1        1 0.14184054E-01 0.57577747E+03</pdfrwt>
<pdfrwt beam="2">  1       -1 0.13830002E+00 0.57577747E+03</pdfrwt>
<totfact> 0.18411500E+02</totfact>
</mgrwt>
</event>
<event>
 4    0  0.1264838E-002  0.6122797E+03  0.7546771E-02  0.9880252E-01
         -2   -1    0    0    0  501 -0.00000000000E+00  0.00000000000E+00  0.60745334065E+02  0.60745334065E+02  0.00000000000E+00 0. -1.
          2   -1    0    0  502    0  0.00000000000E+00 -0.00000000000E+00 -0.15428610338E+04  0.15428610338E+04  0.00000000000E+00 0.  1.
         25    1    1    2    0    0  0.24325906830E+03  0.11767346160E+03 -0.10711376724E+04  0.11117476922E+04  0.12500000000E+03 0.  0.
         21    1    1    2  502  501 -0.24325906830E+03 -0.11767346160E+03 -0.41097802734E+03  0.49185867567E+03  0.00000000000E+00 0. -1.
<mgrwt>
<rscale>  3 0.61227970E+03</rscale>
<asrwt>0</asrwt>
<pdfrwt beam="1">  1        2 0.23736323E+00 0.61227970E+03</pdfrwt>
<pdfrwt beam="2">  1       -2 0.93454361E-02 0.61227970E+03</pdfrwt>
<totfact> 0.93777492E+02</totfact>
</mgrwt>
</event>
<event>
 4    0  0.1264838E-002  0.4861486E+03  0.7546771E-02  0.1017459E+00
          1   -1    0    0  502    0  0.00000000000E+00  0.00000000000E+00  0.17131583797E+03  0.17131583797E+03  0.00000000000E+00 0.  1.
         -1   -1    0    0    0  501 -0.00000000000E+00 -0.00000000000E+00 -0.34489004173E+03  0.34489004173E+03  0.00000000000E+00 0. -1.
         25    1    1    2    0    0 -0.29948616782E+02 -0.22365388907E+03 -0.11881216241E+03  0.28400583036E+03  0.12500000000E+03 0.  0.
         21    1    1    2  502  501  0.29948616782E+02  0.22365388907E+03 -0.54762041341E+02  0.23220004934E+03  0.00000000000E+00 0. -1.
<mgrwt>
<rscale>  3 0.48614865E+03</rscale>
<asrwt>0</asrwt>
<pdfrwt beam="1">  1        1 0.26356283E-01 0.48614865E+03</pdfrwt>
<pdfrwt beam="2">  1       -1 0.53060006E-01 0.48614865E+03</pdfrwt>
<totfact> 0.65798177E+02</totfact>
</mgrwt>
</event>
<event>
 4    0  0.1264838E-002  0.4522908E+03  0.7546771E-02  0.1027041E+00
          1   -1    0    0  502    0  0.00000000000E+00  0.00000000000E+00  0.15669420784E+04  0.15669420784E+04  0.00000000000E+00 0. -1.
         -1   -1    0    0    0  501 -0.00000000000E+00 -0.00000000000E+00 -0.32637925577E+02  0.32637925577E+02  0.00000000000E+00 0.  1.
         25    1    1    2    0    0 -0.20710513294E+03 -0.18076311345E+02  0.75428426099E+03  0.79233139247E+03  0.12500000000E+03 0.  0.
         21    1    1    2  502  501  0.20710513294E+03  0.18076311345E+02  0.78001989184E+03  0.80724861152E+03  0.00000000000E+00 0. -1.
<mgrwt>
<rscale>  3 0.45229079E+03</rscale>
<asrwt>0</asrwt>
<pdfrwt beam="1">  1        1 0.24106795E+00 0.45229079E+03</pdfrwt>
<pdfrwt beam="2">  1       -1 0.50212205E-02 0.45229079E+03</pdfrwt>
<totfact> 0.11193404E+03</totfact>
</mgrwt>
</event>
<event>
 4    0  0.1264838E-002  0.4801177E+03  0.7546771E-02  0.1019103E+00
         -1   -1    0    0    0  501 -0.00000000000E+00  0.00000000000E+00  0.95466060596E+02  0.95466060596E+02  0.00000000000E+00 0. -1.
          1   -1    0    0  502    0  0.00000000000E+00 -0.00000000000E+00 -0.60365165687E+03  0.60365165687E+03  0.00000000000E+00 0.  1.
         25    1    1    2    0    0 -0.12200200571E+03  0.17395019166E+03 -0.16899853152E+03  0.29887900935E+03  0.12500000000E+03 0.  0.
         21    1    1    2  502  501  0.12200200571E+03 -0.17395019166E+03 -0.33918706475E+03  0.40023870811E+03  0.00000000000E+00 0.  1.
<mgrwt>
<rscale>  3 0.48011768E+03</rscale>
<asrwt>0</asrwt>
<pdfrwt beam="1">  1        1 0.92869485E-01 0.48011768E+03</pdfrwt>
<pdfrwt beam="2">  1       -1 0.14687086E-01 0.48011768E+03</pdfrwt>
<totfact> 0.11604929E+03</totfact>
</mgrwt>
</event>
<event>
 4    0  0.1264838E-002  0.1006903E+04  0.7546771E-02  0.9301006E-01
          2   -1    0    0  502    0  0.00000000000E+00  0.00000000000E+00  0.24940873335E+03  0.24940873335E+03  0.00000000000E+00 0. -1.
         -2   -1    0    0    0  501 -0.00000000000E+00 -0.00000000000E+00 -0.10162563617E+04  0.10162563617E+04  0.00000000000E+00 0.  1.
         25    1    1    2    0    0 -0.36407239794E+03 -0.33104744840E+03 -0.31423075962E+03  0.59708215040E+03  0.12500000000E+03 0.  0.
         21    1    1    2  502  501  0.36407239794E+03  0.33104744840E+03 -0.45261686874E+03  0.66858294467E+03  0.00000000000E+00 0. -1.
<mgrwt>
<rscale>  3 0.10069026E+04</rscale>
<asrwt>0</asrwt>
<pdfrwt beam="1">  1        2 0.38370573E-01 0.10069026E+04</pdfrwt>
<pdfrwt beam="2">  1       -2 0.15634714E+00 0.10069026E+04</pdfrwt>
<totfact> 0.36086885E+01</totfact>
</mgrwt>
</event>
<event>
 4    0  0.1264838E-002  0.6405002E+03  0.7546771E-02  0.9824770E-01
          2   -1    0    0  502    0  0.00000000000E+00  0.00000000000E+00  0.29603462712E+03  0.29603462712E+03  0.00000000000E+00 0.  1.
         -2   -1    0    0    0  501 -0.00000000000E+00 -0.00000000000E+00 -0.34644636772E+03  0.34644636772E+03  0.00000000000E+00 0. -1.
         25    1    1    2    0    0 -0.25356606736E+03  0.12579557465E+03  0.95767108415E+02  0.32390834533E+03  0.12500000000E+03 0.  0.
         21    1    1    2  502  501  0.25356606736E+03 -0.12579557465E+03 -0.14617884901E+03  0.31857264951E+03  0.00000000000E+00 0. -1.
<mgrwt>
<rscale>  3 0.64050018E+03</rscale>
<asrwt>0</asrwt>
<pdfrwt beam="1">  1        2 0.45543789E-01 0.64050018E+03</pdfrwt>
<pdfrwt beam="2">  1       -2 0.53299441E-01 0.64050018E+03</pdfrwt>
<totfact> 0.37331372E+02</totfact>
</mgrwt>
</event>
<event>
 4    0  0.1264838E-002  0.6103213E+03  0.7546771E-02  0.9884221E-01
          1   -1    0    0  502    0  0.00000000000E+00  0.00000000000E+00  0.23515321015E+04  0.23515321015E+04  0.00000000000E+00 0.  1.
         -1   -1    0    0    0  501 -0.00000000000E+00 -0.00000000000E+00 -0.39601003265E+02  0.39601003265E+02  0.00000000000E+00 0. -1.
         25    1    1    2    0    0 -0.13584064450E+03 -0.23844557889E+03  0.15994647039E+04  0.16276428705E+04  0.12500000000E+03 0.  0.
         21    1    1    2  502  501  0.13584064450E+03  0.23844557889E+03  0.71246639431E+03  0.76349023426E+03  0.00000000000E+00 0. -1.
<mgrwt>
<rscale>  3 0.61032133E+03</rscale>
<asrwt>0</asrwt>
<pdfrwt beam="1">  1        1 0.36177406E+00 0.61032133E+03</pdfrwt>
<pdfrwt beam="2">  1       -1 0.60924639E-02 0.61032133E+03</pdfrwt>
<totfact> 0.24721706E+02</totfact>
</mgrwt>
</event>
<event>
 4    0  0.1264838E-002  0.8898461E+03  0.7546771E-02  0.9438364E-01
         -2   -1    0    0    0  501 -0.00000000000E+00  0.00000000000E+00  0.30234384352E+03  0.30234384352E+03  0.00000000000E+00 0. -1.
          2   -1    0    0  502    0  0.00000000000E+00 -0.00000000000E+00 -0.65473972797E+03  0.65473972797E+03  0.00000000000E+00 0.  1.
         25    1    1    2    0    0  0.79072070630E+02  0.30950365727E+03  0.13970732167E+03  0.37038904135E+03  0.12500000000E+03 0.  0.
         21    1    1    2  502  501 -0.79072070630E+02 -0.30950365727E+03 -0.49210320612E+03  0.58669453014E+03  0.00000000000E+00 0.  1.
<mgrwt>
<rscale>  3 0.88984611E+03</rscale>
<asrwt>0</asrwt>
<pdfrwt beam="1">  1        2 0.10072919E+00 0.88984611E+03</pdfrwt>
<pdfrwt beam="2">  1       -2 0.46514438E-01 0.88984611E+03</pdfrwt>
<totfact> 0.19592514E+02</totfact>
</mgrwt>
</event>
<event>
 4    0  0.1264838E-002  0.4474365E+03  0.7546771E-02  0.1028489E+00
          1   -1    0    0  502    0  0.00000000000E+00  0.00000000000E+00  0.14635569814E+03  0.14635569814E+03  0.00000000000E+00 0. -1.
         -1   -1    0    0    0  501 -0.00000000000E+00 -0.00000000000E+00 -0.34197411296E+03  0.34197411296E+03  0.00000000000E+00 0.  1.
         25    1    1    2    0    0 -0.16952593170E+03  0.10787133949E+03 -0.15624808462E+03  0.28357314991E+03  0.12500000000E+03 0.  0.
         21    1    1    2  502  501  0.16952593170E+03 -0.10787133949E+03 -0.39370330189E+02  0.20475666119E+03  0.00000000000E+00 0. -1.
<mgrwt>
<rscale>  3 0.44743652E+03</rscale>
<asrwt>0</asrwt>
<pdfrwt beam="1">  1        1 0.22516261E-01 0.44743652E+03</pdfrwt>
<pdfrwt beam="2">  1       -1 0.52611403E-01 0.44743652E+03</pdfrwt>
<totfact> 0.82043154E+02</totfact>
</mgrwt>
</event>
<event>
 4    0  0.1264838E-002  0.7128223E+03  0.7546771E-02  0.9695552E-01
         -1   -1    0    0    0  501 -0.00000000000E+00  0.00000000000E+00  0.75794547343E+03  0.75794547343E+03  0.00000000000E+00 0. -1.
          1   -1    0    0  502    0  0.00000000000E+00 -0.00000000000E+00 -0.16759637306E+03  0.16759637306E+03  0.00000000000E+00 0.  1.
         25    1    1    2    0    0 -0.35346851313E+02 -0.23860376164E+03 -0.16842508636E+02  0.27219446185E+03  0.12500000000E+03 0.  0.
         21    1    1    2  502  501  0.35346851313E+02  0.23860376164E+03  0.60719160901E+03  0.65334738464E+03  0.00000000000E+00 0. -1.
<mgrwt>
<rscale>  3 0.71282231E+03</rscale>
<asrwt>0</asrwt>
<pdfrwt beam="1">  1        1 0.25784058E-01 0.71282231E+03</pdfrwt>
<pdfrwt beam="2">  1       -1 0.11660699E+00 0.71282231E+03</pdfrwt>
<totfact> 0.12651959E+02</totfact>
</mgrwt>
</event>
<event>
 4    0  0.1264838E-002  0.6344291E+03  0.7546771E-02  0.9836444E-01
          2   -1    0    0  502    0  0.00000000000E+00  0.00000000000E+00  0.13435674263E+03  0.13435674263E+03  0.00000000000E+00 0. -1.
         -2   -1    0    0    0  501 -0.00000000000E+00 -0.00000000000E+00 -0.74893952107E+03  0.74893952107E+03  0.00000000000E+00 0.  1.
         25    1    1    2    0    0 -0.21191253228E+03  0.12018787391E+03 -0.57447380472E+03  0.63639390214E+03  0.12500000000E+03 0.  0.
         21    1    1    2  502  501  0.21191253228E+03 -0.12018787391E+03 -0.40108973717E+02  0.24690236156E+03  0.00000000000E+00 0. -1.
<mgrwt>
<rscale>  3 0.63442911E+03</rscale>
<asrwt>0</asrwt>
<pdfrwt beam="1">  1        2 0.20670269E-01 0.63442911E+03</pdfrwt>
<pdfrwt beam="2">  1       -2 0.11522146E+00 0.63442911E+03</pdfrwt>
<totfact> 0.16243639E+02</totfact>
</mgrwt>
</event>
<event>
 4    0  0.1264838E-002  0.4497527E+03  0.7546771E-02  0.1027796E+00
         -1   -1    0    0    0  501 -0.00000000000E+00  0.00000000000E+00  0.35148735327E+03  0.35148735327E+03  0.00000000000E+00 0. -1.
          1   -1    0    0  502    0  0.00000000000E+00 -0.00000000000E+00 -0.14387251473E+03  0.14387251473E+03  0.00000000000E+00 0.  1.
         25    1    1    2    0    0  0.13875764823E+02  0.20590890051E+03  0.88009289608E+02  0.25682999672E+03  0.12500000000E+03 0.  0.
         21    1    1    2  502  501 -0.13875764823E+02 -0.20590890051E+03  0.11960554893E+03  0.23852987128E+03  0.00000000000E+00 0. -1.
<mgrwt>
<rscale>  3 0.44975268E+03</rscale>
<asrwt>0</asrwt>
<pdfrwt beam="1">  1        1 0.22134233E-01 0.44975268E+03</pdfrwt>
<pdfrwt beam="2">  1       -1 0.54074977E-01 0.44975268E+03</pdfrwt>
<totfact> 0.79632114E+02</totfact>
</mgrwt>
</event>
<event>
 4    0  0.1264838E-002  0.4631685E+03  0.7546771E-02  0.1023866E+00
         -1   -1    0    0    0  501 -0.00000000000E+00  0.00000000000E+00  0.58284081577E+02  0.58284081577E+02  0.00000000000E+00 0. -1.
          1   -1    0    0  502    0  0.00000000000E+00 -0.00000000000E+00 -0.92017013420E+03  0.92017013420E+03  0.00000000000E+00 0.  1.
         25    1    1    2    0    0  0.18345916261E+03  0.96417346796E+02 -0.58089059397E+03  0.62929520201E+03  0.12500000000E+03 0.  0.
         21    1    1    2  502  501 -0.18345916261E+03 -0.96417346796E+02 -0.28099545865E+03  0.34915901376E+03  0.00000000000E+00 0. -1.
<mgrwt>
<rscale>  3 0.46316853E+03</rscale>
<asrwt>0</asrwt>
<pdfrwt beam="1">  1        1 0.14156463E+00 0.46316853E+03</pdfrwt>
<pdfrwt beam="2">  1       -1 0.89667820E-02 0.46316853E+03</pdfrwt>
<totfact> 0.13272900E+03</totfact>
</mgrwt>
</event>
<event>
 4    0  0.1264838E-002  0.7230553E+03  0.7546771E-02  0.9678597E-01
         -2   -1    0    0    0  501 -0.00000000000E+00  0.00000000000E+00  0.79750285443E+02  0.79750285443E+02  0.00000000000E+00 0. -1.
          2   -1    0    0  502    0  0.00000000000E+00 -0.00000000000E+00 -0.16388937526E+04  0.16388937526E+04  0.00000000000E+00 0.  1.
         25    1    1    2    0    0  0.26347651847E+03 -0.20835693792E+03 -0.56311958839E+03  0.66750367803E+03  0.12500000000E+03 0.  0.
         21    1    1    2  502  501 -0.26347651847E+03  0.20835693792E+03 -0.99602387872E+03  0.10511403600E+04  0.00000000000E+00 0.  1.
<mgrwt>
<rscale>  3 0.72305531E+03</rscale>
<asrwt>0</asrwt>
<pdfrwt beam="1">  1        2 0.25213749E+00 0.72305531E+03</pdfrwt>
<pdfrwt beam="2">  1       -2 0.12269275E-01 0.72305531E+03</pdfrwt>
<totfact> 0.52905448E+02</totfact>
</mgrwt>
</event>
<event>
 4    0  0.1264838E-002  0.6653734E+03  0.7546771E-02  0.9778352E-01
          2   -1    0    0  502    0  0.00000000000E+00  0.00000000000E+00  0.30695238019E+03  0.30695238019E+03  0.00000000000E+00 0. -1.
         -2   -1    0    0    0  501 -0.00000000000E+00 -0.00000000000E+00 -0.36057848358E+03  0.36057848358E+03  0.00000000000E+00 0.  1.
         25    1    1    2    0    0  0.21915140142E+03  0.14727308187E+03  0.15528522868E+03  0.33084014211E+03  0.12500000000E+03 0.  0.
         21    1    1    2  502  501 -0.21915140142E+03 -0.14727308187E+03 -0.20891133207E+03  0.33669072166E+03  0.00000000000E+00 0.  1.
<mgrwt>
<rscale>  3 0.66537335E+03</rscale>
<asrwt>0</asrwt>
<pdfrwt beam="1">  1        2 0.47223443E-01 0.66537335E+03</pdfrwt>
<pdfrwt beam="2">  1       -2 0.55473613E-01 0.66537335E+03</pdfrwt>
<totfact> 0.33001223E+02</totfact>
</mgrwt>
</event>
<event>
 4    0  0.1264838E-002  0.4793979E+03  0.7546771E-02  0.1019301E+00
         -2   -1    0    0    0  501 -0.00000000000E+00  0.00000000000E+00  0.54488558745E+02  0.54488558745E+02  0.00000000000E+00 0.  1.
          2   -1    0    0  502    0  0.00000000000E+00 -0.00000000000E+00 -0.10544524819E+04  0.10544524819E+04  0.00000000000E+00 0. -1.
         25    1    1    2    0    0  0.14804867851E+03 -0.15658646992E+03 -0.39769325763E+03  0.46927887330E+03  0.12500000000E+03 0.  0.
         21    1    1    2  502  501 -0.14804867851E+03  0.15658646992E+03 -0.60227066549E+03  0.63966216730E+03  0.00000000000E+00 0. -1.
<mgrwt>
<rscale>  3 0.47939794E+03</rscale>
<asrwt>0</asrwt>
<pdfrwt beam="1">  1        2 0.16222347E+00 0.47939794E+03</pdfrwt>
<pdfrwt beam="2">  1       -2 0.83828548E-02 0.47939794E+03</pdfrwt>
<totfact> 0.21371625E+03</totfact>
</mgrwt>
</event>
<event>
 4    0  0.1264838E-002  0.4790260E+03  0.7546771E-02  0.1019403E+00
         -1   -1    0    0    0  501 -0.00000000000E+00  0.00000000000E+00  0.12190197325E+03  0.12190197325E+03  0.00000000000E+00 0.  1.
          1   -1    0    0  502    0  0.00000000000E+00 -0.00000000000E+00 -0.47059507491E+03  0.47059507491E+03  0.00000000000E+00 0. -1.
         25    1    1    2    0    0 -0.17844099022E+03 -0.11815680645E+03 -0.26461865809E+03  0.36256068749E+03  0.12500000000E+03 0.  0.
         21    1    1    2  502  501  0.17844099022E+03  0.11815680645E+03 -0.84074443573E+02  0.22993636068E+03  0.00000000000E+00 0.  1.
<mgrwt>
<rscale>  3 0.47902596E+03</rscale>
<asrwt>0</asrwt>
<pdfrwt beam="1">  1        1 0.72399243E-01 0.47902596E+03</pdfrwt>
<pdfrwt beam="2">  1       -1 0.18754150E-01 0.47902596E+03</pdfrwt>
<totfact> 0.10994403E+03</totfact>
</mgrwt>
</event>
<event>
 4    0  0.1264838E-002  0.5879094E+03  0.7546771E-02  0.9930813E-01
         -2   -1    0    0    0  501 -0.00000000000E+00  0.00000000000E+00  0.18593065693E+02  0.18593065693E+02  0.00000000000E+00 0.  1.
          2   -1    0    0  502    0  0.00000000000E+00 -0.00000000000E+00 -0.46473975430E+04  0.46473975430E+04  0.00000000000E+00 0. -1.
         25    1    1    2    0    0  0.26259634737E+03 -0.98770772575E+02 -0.23570676757E+04  0.23769950642E+04  0.12500000000E+03 0.  0.
         21    1    1    2  502  501 -0.26259634737E+03  0.98770772575E+02 -0.22717368016E+04  0.22889955446E+04  0.00000000000E+00 0. -1.
<mgrwt>
<rscale>  3 0.58790941E+03</rscale>
<asrwt>0</asrwt>
<pdfrwt beam="1">  1        2 0.71498428E+00 0.58790941E+03</pdfrwt>
<pdfrwt beam="2">  1       -2 0.28604715E-02 0.58790941E+03</pdfrwt>
<totfact> 0.50240590E+01</totfact>
</mgrwt>
</event>
<event>
 4    0  0.1267306E-002  0.5257388E+03  0.7546771E-02  0.1007271E+00
          1   -1    0    0  502    0  0.00000000000E+00  0.00000000000E+00  0.17533726281E+04  0.17533726281E+04  0.00000000000E+00 0. -1.
         -1   -1    0    0    0  501 -0.00000000000E+00 -0.00000000000E+00 -0.39409944087E+02  0.39409944087E+02  0.00000000000E+00 0.  1.
         25    1    1    2    0    0 -0.13361249770E+03  0.16339698661E+03  0.46136636922E+03  0.52252732122E+03  0.12500000000E+03 0.  0.
         21    1    1    2  502  501  0.13361249770E+03 -0.16339698661E+03  0.12525963148E+04  0.12702552509E+04  0.00000000000E+00 0. -1.
<mgrwt>
<rscale>  3 0.52573878E+03</rscale>
<asrwt>0</asrwt>
<pdfrwt beam="1">  1        1 0.26974958E+00 0.52573878E+03</pdfrwt>
<pdfrwt beam="2">  1       -1 0.60630697E-02 0.52573878E+03</pdfrwt>
<totfact> 0.62745418E+02</totfact>
</mgrwt>
</event>
<event>
 4    0  0.1264838E-002  0.5841273E+03  0.7546771E-02  0.9938895E-01
         -3   -1    0    0    0  501 -0.00000000000E+00  0.00000000000E+00  0.29470009016E+03  0.29470009016E+03  0.00000000000E+00 0.  1.
          3   -1    0    0  502    0  0.00000000000E+00 -0.00000000000E+00 -0.28945075021E+03  0.28945075021E+03  0.00000000000E+00 0. -1.
         25    1    1    2    0    0  0.11365945347E+03 -0.18835210512E+03  0.17384401782E+03  0.30698815840E+03  0.12500000000E+03 0.  0.
         21    1    1    2  502  501 -0.11365945347E+03  0.18835210512E+03 -0.16859467787E+03  0.27716268196E+03  0.00000000000E+00 0. -1.
<mgrwt>
<rscale>  3 0.58412725E+03</rscale>
<asrwt>0</asrwt>
<pdfrwt beam="1">  1        3 0.44530885E-01 0.58412725E+03</pdfrwt>
<pdfrwt beam="2">  1       -3 0.45338475E-01 0.58412725E+03</pdfrwt>
<totfact> 0.63742597E+01</totfact>
</mgrwt>
</event>
<event>
 4    0  0.1274388E-002  0.5115240E+03  0.7546771E-02  0.1010814E+00
         -2   -1    0    0    0  501 -0.00000000000E+00  0.00000000000E+00  0.46895824211E+02  0.46895824211E+02  0.00000000000E+00 0. -1.
          2   -1    0    0  502    0  0.00000000000E+00 -0.00000000000E+00 -0.13948829981E+04  0.13948829981E+04  0.00000000000E+00 0.  1.
         25    1    1    2    0    0  0.20570214036E+03 -0.19097207105E+02 -0.36723509223E+03  0.43950504757E+03  0.12500000000E+03 0.  0.
         21    1    1    2  502  501 -0.20570214036E+03  0.19097207105E+02 -0.98075208169E+03  0.10022737748E+04  0.00000000000E+00 0.  1.
<mgrwt>
<rscale>  3 0.51152395E+03</rscale>
<asrwt>0</asrwt>
<pdfrwt beam="1">  1        2 0.21459738E+00 0.51152395E+03</pdfrwt>
<pdfrwt beam="2">  1       -2 0.72147425E-02 0.51152395E+03</pdfrwt>
<totfact> 0.17181708E+03</totfact>
</mgrwt>
</event>
<event>
 4    0  0.1264838E-002  0.9176451E+03  0.7546771E-02  0.9403789E-01
          2   -1    0    0  502    0  0.00000000000E+00  0.00000000000E+00  0.32468604296E+04  0.32468604296E+04  0.00000000000E+00 0. -1.
         -2   -1    0    0    0  501 -0.00000000000E+00 -0.00000000000E+00 -0.64837441535E+02  0.64837441535E+02  0.00000000000E+00 0.  1.
         25    1    1    2    0    0  0.41042941323E+03  0.95136483932E+02  0.21942801621E+04  0.22378547057E+04  0.12500000000E+03 0.  0.
         21    1    1    2  502  501 -0.41042941323E+03 -0.95136483932E+02  0.98774282599E+03  0.10738431655E+04  0.00000000000E+00 0.  1.
<mgrwt>
<rscale>  3 0.91764508E+03</rscale>
<asrwt>0</asrwt>
<pdfrwt beam="1">  1        2 0.49951686E+00 0.91764508E+03</pdfrwt>
<pdfrwt beam="2">  1       -2 0.99749935E-02 0.91764508E+03</pdfrwt>
<totfact> 0.86858925E+01</totfact>
</mgrwt>
</event>
<event>
 4    0  0.1264838E-002  0.4825969E+03  0.7546771E-02  0.1018424E+00
         -4   -1    0    0    0  501 -0.00000000000E+00  0.00000000000E+00  0.33024055319E+02  0.33024055319E+02  0.00000000000E+00 0. -1.
          4   -1    0    0  502    0  0.00000000000E+00 -0.00000000000E+00 -0.17631068222E+04  0.17631068222E+04  0.00000000000E+00 0.  1.
         25    1    1    2    0    0 -0.16263118544E+03 -0.15538575831E+03 -0.95654484364E+03  0.99055372104E+03  0.12500000000E+03 0.  0.
         21    1    1    2  502  501  0.16263118544E+03  0.15538575831E+03 -0.77353792328E+03  0.80557715652E+03  0.00000000000E+00 0. -1.
<mgrwt>
<rscale>  3 0.48259688E+03</rscale>
<asrwt>0</asrwt>
<pdfrwt beam="1">  1        4 0.27124733E+00 0.48259688E+03</pdfrwt>
<pdfrwt beam="2">  1       -4 0.50806215E-02 0.48259688E+03</pdfrwt>
<totfact> 0.23575481E+01</totfact>
</mgrwt>
</event>
<event>
 4    0  0.1486078E-002  0.6222465E+03  0.7546771E-02  0.9860297E-01
         -1   -1    0    0    0  501 -0.00000000000E+00  0.00000000000E+00  0.33366214252E+03  0.33366214252E+03  0.00000000000E+00 0. -1.
          1   -1    0    0  502    0  0.00000000000E+00 -0.00000000000E+00 -0.29010687995E+03  0.29010687995E+03  0.00000000000E+00 0.  1.
         25    1    1    2    0    0  0.12634598343E+03  0.16686940526E+03  0.23609551727E+03  0.33937412868E+03  0.12500000000E+03 0.  0.
         21    1    1    2  502  501 -0.12634598343E+03 -0.16686940526E+03 -0.19254025469E+03  0.28439489380E+03  0.00000000000E+00 0.  1.
<mgrwt>
<rscale>  3 0.62224652E+03</rscale>
<asrwt>0</asrwt>
<pdfrwt beam="1">  1        1 0.44631828E-01 0.62224652E+03</pdfrwt>
<pdfrwt beam="2">  1       -1 0.51332637E-01 0.62224652E+03</pdfrwt>
<totfact> 0.35438199E+02</totfact>
</mgrwt>
</event>
<event>
 4    0  0.1264838E-002  0.5181282E+03  0.7546771E-02  0.1009153E+00
         -2   -1    0    0    0  501 -0.00000000000E+00  0.00000000000E+00  0.51791694042E+03  0.51791694042E+03  0.00000000000E+00 0. -1.
          2   -1    0    0  502    0  0.00000000000E+00 -0.00000000000E+00 -0.12958488063E+03  0.12958488063E+03  0.00000000000E+00 0.  1.
         25    1    1    2    0    0 -0.13322593663E+03 -0.20272573446E+03  0.17282668231E+03  0.32301847582E+03  0.12500000000E+03 0.  0.
         21    1    1    2  502  501  0.13322593663E+03  0.20272573446E+03  0.21550537749E+03  0.32448334523E+03  0.00000000000E+00 0.  1.
<mgrwt>
<rscale>  3 0.51812819E+03</rscale>
<asrwt>0</asrwt>
<pdfrwt beam="1">  1        2 0.19936136E-01 0.51812819E+03</pdfrwt>
<pdfrwt beam="2">  1       -2 0.79679528E-01 0.51812819E+03</pdfrwt>
<totfact> 0.40184267E+02</totfact>
</mgrwt>
</event>
<event>
 4    0  0.1264838E-002  0.7652382E+03  0.7546771E-02  0.9611743E-01
         -2   -1    0    0    0  501 -0.00000000000E+00  0.00000000000E+00  0.13671892291E+03  0.13671892291E+03  0.00000000000E+00 0.  1.
          2   -1    0    0  502    0  0.00000000000E+00 -0.00000000000E+00 -0.10707908874E+04  0.10707908874E+04  0.00000000000E+00 0. -1.
         25    1    1    2    0    0  0.25702111947E+03  0.55341989382E+02 -0.89569007525E+03  0.94181118201E+03  0.12500000000E+03 0.  0.
         21    1    1    2  502  501 -0.25702111947E+03 -0.55341989382E+02 -0.38381889194E+02  0.26569862827E+03  0.00000000000E+00 0.  1.
<mgrwt>
<rscale>  3 0.76523820E+03</rscale>
<asrwt>0</asrwt>
<pdfrwt beam="1">  1        2 0.16473707E+00 0.76523820E+03</pdfrwt>
<pdfrwt beam="2">  1       -2 0.21033680E-01 0.76523820E+03</pdfrwt>
<totfact> 0.44626263E+02</totfact>
</mgrwt>
</event>
<event>
 4    0  0.1264838E-002  0.4445648E+03  0.7546771E-02  0.1029355E+00
         -2   -1    0    0    0  501 -0.00000000000E+00  0.00000000000E+00  0.49813974563E+03  0.49813974563E+03  0.00000000000E+00 0. -1.
          2   -1    0    0  502    0  0.00000000000E+00 -0.00000000000E+00 -0.99187973961E+02  0.99187973961E+02  0.00000000000E+00 0.  1.
         25    1    1    2    0    0  0.16926403908E+03  0.11048884792E+03  0.17175563883E+03  0.29322875014E+03  0.12500000000E+03 0.  0.
         21    1    1    2  502  501 -0.16926403908E+03 -0.11048884792E+03  0.22719613284E+03  0.30409896945E+03  0.00000000000E+00 0. -1.
<mgrwt>
<rscale>  3 0.44456483E+03</rscale>
<asrwt>0</asrwt>
<pdfrwt beam="1">  1        2 0.15259689E-01 0.44456483E+03</pdfrwt>
<pdfrwt beam="2">  1       -2 0.76636882E-01 0.44456483E+03</pdfrwt>
<totfact> 0.60161543E+02</totfact>
</mgrwt>
</event>
<event>
 4    0  0.1264838E-002  0.5773806E+03  0.7546771E-02  0.9953478E-01
          2   -1    0    0  502    0  0.00000000000E+00  0.00000000000E+00  0.77348553751E+03  0.77348553751E+03  0.00000000000E+00 0. -1.
         -2   -1    0    0    0  501 -0.00000000000E+00 -0.00000000000E+00 -0.10774874575E+03  0.10774874575E+03  0.00000000000E+00 0.  1.
         25    1    1    2    0    0  0.21700410324E+03 -0.25283074472E+02  0.60378343739E+03  0.65414788385E+03  0.12500000000E+03 0.  0.
         21    1    1    2  502  501 -0.21700410324E+03  0.25283074472E+02  0.61953354374E+02  0.22708639941E+03  0.00000000000E+00 0.  1.
<mgrwt>
<rscale>  3 0.57738062E+03</rscale>
<asrwt>0</asrwt>
<pdfrwt beam="1">  1        2 0.11899777E+00 0.57738062E+03</pdfrwt>
<pdfrwt beam="2">  1       -2 0.16576731E-01 0.57738062E+03</pdfrwt>
<totfact> 0.10694274E+03</totfact>
</mgrwt>
</event>
<event>
 4    0  0.1264838E-002  0.5105945E+03  0.7546771E-02  0.1011050E+00
         -1   -1    0    0    0  501 -0.00000000000E+00  0.00000000000E+00  0.20747461913E+03  0.20747461913E+03  0.00000000000E+00 0.  1.
          1   -1    0    0  502    0  0.00000000000E+00 -0.00000000000E+00 -0.31414291004E+03  0.31414291004E+03  0.00000000000E+00 0. -1.
         25    1    1    2    0    0  0.60334527952E+01 -0.22237210896E+03 -0.14854474185E+03  0.29525632547E+03  0.12500000000E+03 0.  0.
         21    1    1    2  502  501 -0.60334527952E+01  0.22237210896E+03  0.41876450939E+02  0.22636120370E+03  0.00000000000E+00 0.  1.
<mgrwt>
<rscale>  3 0.51059448E+03</rscale>
<asrwt>0</asrwt>
<pdfrwt beam="1">  1        1 0.48329678E-01 0.51059448E+03</pdfrwt>
<pdfrwt beam="2">  1       -1 0.31919172E-01 0.51059448E+03</pdfrwt>
<totfact> 0.75971060E+02</totfact>
</mgrwt>
</event>
<event>
 4    0  0.1264838E-002  0.6208375E+03  0.7546771E-02  0.9863094E-01
         -2   -1    0    0    0  501 -0.00000000000E+00  0.00000000000E+00  0.48202869571E+03  0.48202869571E+03  0.00000000000E+00 0. -1.
          2   -1    0    0  502    0  0.00000000000E+00 -0.00000000000E+00 -0.19990467501E+03  0.19990467501E+03  0.00000000000E+00 0.  1.
         25    1    1    2    0    0  0.26170460490E+03 -0.14212694104E+03  0.15121155853E+03  0.35662207311E+03  0.12500000000E+03 0.  0.
         21    1    1    2  502  501 -0.26170460490E+03  0.14212694104E+03  0.13091246217E+03  0.32531129761E+03  0.00000000000E+00 0. -1.
<mgrwt>
<rscale>  3 0.62083747E+03</rscale>
<asrwt>0</asrwt>
<pdfrwt beam="1">  1        2 0.30754566E-01 0.62083747E+03</pdfrwt>
<pdfrwt beam="2">  1       -2 0.74158261E-01 0.62083747E+03</pdfrwt>
<totfact> 0.28632163E+02</totfact>
</mgrwt>
</event>
<event>
 4    0  0.1264838E-002  0.5404477E+03  0.7546771E-02  0.1003729E+00
          2   -1    0    0  502    0  0.00000000000E+00  0.00000000000E+00  0.49933615297E+02  0.49933615297E+02  0.00000000000E+00 0.  1.
         -2   -1    0    0    0  501 -0.00000000000E+00 -0.00000000000E+00 -0.14623601585E+04  0.14623601585E+04  0.00000000000E+00 0. -1.
         25    1    1    2    0    0 -0.20535777498E+03  0.51276234810E+02 -0.34221227815E+03  0.42134939340E+03  0.12500000000E+03 0.  0.
         21    1    1    2  502  501  0.20535777498E+03 -0.51276234810E+02 -0.10702142651E+04  0.10909443804E+04  0.00000000000E+00 0. -1.
<mgrwt>
<rscale>  3 0.54044770E+03</rscale>
<asrwt>0</asrwt>
<pdfrwt beam="1">  1        2 0.76820957E-02 0.54044770E+03</pdfrwt>
<pdfrwt beam="2">  1       -2 0.22497846E+00 0.54044770E+03</pdfrwt>
<totfact> 0.88894280E+01</totfact>
</mgrwt>
</event>
<event>
 4    0  0.1264838E-002  0.4438238E+03  0.7546771E-02  0.1029580E+00
          2   -1    0    0  502    0  0.00000000000E+00  0.00000000000E+00  0.11671524861E+03  0.11671524861E+03  0.00000000000E+00 0. -1.
         -2   -1    0    0    0  501 -0.00000000000E+00 -0.00000000000E+00 -0.42192338184E+03  0.42192338184E+03  0.00000000000E+00 0.  1.
         25    1    1    2    0    0 -0.20418190125E+03  0.67310468014E+01 -0.16156956733E+03  0.28890358405E+03  0.12500000000E+03 0.  0.
         21    1    1    2  502  501  0.20418190125E+03 -0.67310468014E+01 -0.14363856590E+03  0.24973504641E+03  0.00000000000E+00 0.  1.
<mgrwt>
<rscale>  3 0.44382380E+03</rscale>
<asrwt>0</asrwt>
<pdfrwt beam="1">  1        2 0.17956192E-01 0.44382380E+03</pdfrwt>
<pdfrwt beam="2">  1       -2 0.64911289E-01 0.44382380E+03</pdfrwt>
<totfact> 0.71040454E+02</totfact>
</mgrwt>
</event>
<event>
 4    0  0.1264838E-002  0.5599145E+03  0.7546771E-02  0.9992248E-01
          1   -1    0    0  502    0  0.00000000000E+00  0.00000000000E+00  0.33220174239E+03  0.33220174239E+03  0.00000000000E+00 0.  1.
         -1   -1    0    0    0  501 -0.00000000000E+00 -0.00000000000E+00 -0.23592912753E+03  0.23592912753E+03  0.00000000000E+00 0. -1.
         25    1    1    2    0    0 -0.15672957921E+03  0.19323660849E+03  0.14601031288E+03  0.31440190732E+03  0.12500000000E+03 0.  0.
         21    1    1    2  502  501  0.15672957921E+03 -0.19323660849E+03 -0.49737698025E+02  0.25372896260E+03  0.00000000000E+00 0. -1.
<mgrwt>
<rscale>  3 0.55991452E+03</rscale>
<asrwt>0</asrwt>
<pdfrwt beam="1">  1        1 0.51107961E-01 0.55991452E+03</pdfrwt>
<pdfrwt beam="2">  1       -1 0.36296789E-01 0.55991452E+03</pdfrwt>
<totfact> 0.56307651E+02</totfact>
</mgrwt>
</event>
<event>
 4    0  0.1264838E-002  0.4855270E+03  0.7546771E-02  0.1017627E+00
          2   -1    0    0  502    0  0.00000000000E+00  0.00000000000E+00  0.22605644439E+03  0.22605644439E+03  0.00000000000E+00 0. -1.
         -2   -1    0    0    0  501 -0.00000000000E+00 -0.00000000000E+00 -0.26070533950E+03  0.26070533950E+03  0.00000000000E+00 0.  1.
         25    1    1    2    0    0  0.16153568798E+03  0.15541759540E+03 -0.52205408511E+02  0.26191374941E+03  0.12500000000E+03 0.  0.
         21    1    1    2  502  501 -0.16153568798E+03 -0.15541759540E+03  0.17556513396E+02  0.22484803449E+03  0.00000000000E+00 0.  1.
<mgrwt>
<rscale>  3 0.48552702E+03</rscale>
<asrwt>0</asrwt>
<pdfrwt beam="1">  1        2 0.34777915E-01 0.48552702E+03</pdfrwt>
<pdfrwt beam="2">  1       -2 0.40108514E-01 0.48552702E+03</pdfrwt>
<totfact> 0.88858425E+02</totfact>
</mgrwt>
</event>
<event>
 4    0  0.1264838E-002  0.7408870E+03  0.7546771E-02  0.9649757E-01
          2   -1    0    0  502    0  0.00000000000E+00  0.00000000000E+00  0.11222076015E+03  0.11222076015E+03  0.00000000000E+00 0. -1.
         -2   -1    0    0    0  501 -0.00000000000E+00 -0.00000000000E+00 -0.12228430605E+04  0.12228430605E+04  0.00000000000E+00 0.  1.
         25    1    1    2    0    0  0.33844070289E+03 -0.30341176775E+02 -0.78482108987E+03  0.86431003667E+03  0.12500000000E+03 0.  0.
         21    1    1    2  502  501 -0.33844070289E+03  0.30341176775E+02 -0.32580121047E+03  0.47075378398E+03  0.00000000000E+00 0. -1.
<mgrwt>
<rscale>  3 0.74088698E+03</rscale>
<asrwt>0</asrwt>
<pdfrwt beam="1">  1        2 0.17264732E-01 0.74088698E+03</pdfrwt>
<pdfrwt beam="2">  1       -2 0.18812971E+00 0.74088698E+03</pdfrwt>
<totfact> 0.54847287E+01</totfact>
</mgrwt>
</event>
<event>
 4    0  0.1264838E-002  0.5740201E+03  0.7546771E-02  0.9960822E-01
          4   -1    0    0  502    0  0.00000000000E+00  0.00000000000E+00  0.68252765412E+03  0.68252765412E+03  0.00000000000E+00 0.  1.
         -4   -1    0    0    0  501 -0.00000000000E+00 -0.00000000000E+00 -0.12069072710E+03  0.12069072710E+03  0.00000000000E+00 0. -1.
         25    1    1    2    0    0  0.19987854952E+03  0.38560565065E+02  0.54962058117E+03  0.59928802339E+03  0.12500000000E+03 0.  0.
         21    1    1    2  502  501 -0.19987854952E+03 -0.38560565065E+02  0.12216345854E+02  0.20393035782E+03  0.00000000000E+00 0. -1.
<mgrwt>
<rscale>  3 0.57402007E+03</rscale>
<asrwt>0</asrwt>
<pdfrwt beam="1">  1        4 0.10500425E+00 0.57402007E+03</pdfrwt>
<pdfrwt beam="2">  1       -4 0.18567805E-01 0.57402007E+03</pdfrwt>
<totfact> 0.38310220E+01</totfact>
</mgrwt>
</event>
<event>
 4    0  0.1280529E-002  0.6442381E+03  0.7546771E-02  0.9817651E-01
         -3   -1    0    0    0  501 -0.00000000000E+00  0.00000000000E+00  0.24021124209E+03  0.24021124209E+03  0.00000000000E+00 0.  1.
          3   -1    0    0  502    0  0.00000000000E+00 -0.00000000000E+00 -0.43195597280E+03  0.43195597280E+03  0.00000000000E+00 0. -1.
         25    1    1    2    0    0 -0.19618918875E+03 -0.83654063748E+02  0.13523094292E+03  0.28178113508E+03  0.12500000000E+03 0.  0.
         21    1    1    2  502  501  0.19618918875E+03  0.83654063748E+02 -0.32697567363E+03  0.39038607981E+03  0.00000000000E+00 0. -1.
<mgrwt>
<rscale>  3 0.64423809E+03</rscale>
<asrwt>0</asrwt>
<pdfrwt beam="1">  1        3 0.66454765E-01 0.64423809E+03</pdfrwt>
<pdfrwt beam="2">  1       -3 0.36955576E-01 0.64423809E+03</pdfrwt>
<totfact> 0.41746934E+01</totfact>
</mgrwt>
</event>
<event>
 4    0  0.1264838E-002  0.4457464E+03  0.7546771E-02  0.1028998E+00
         -2   -1    0    0    0  501 -0.00000000000E+00  0.00000000000E+00  0.12072814598E+03  0.12072814598E+03  0.00000000000E+00 0. -1.
          2   -1    0    0  502    0  0.00000000000E+00 -0.00000000000E+00 -0.41144058216E+03  0.41144058216E+03  0.00000000000E+00 0.  1.
         25    1    1    2    0    0  0.47476969177E+02  0.19905882367E+03 -0.13650268406E+03  0.27592836143E+03  0.12500000000E+03 0.  0.
         21    1    1    2  502  501 -0.47476969177E+02 -0.19905882367E+03 -0.15420975212E+03  0.25624036671E+03  0.00000000000E+00 0.  1.
<mgrwt>
<rscale>  3 0.44574638E+03</rscale>
<asrwt>0</asrwt>
<pdfrwt beam="1">  1        2 0.63298550E-01 0.44574638E+03</pdfrwt>
<pdfrwt beam="2">  1       -2 0.18573561E-01 0.44574638E+03</pdfrwt>
<totfact> 0.18593183E+03</totfact>
</mgrwt>
</event>
<event>
 4    0  0.1264838E-002  0.7677262E+03  0.7546771E-02  0.9607944E-01
         -2   -1    0    0    0  501 -0.00000000000E+00  0.00000000000E+00  0.13336927272E+04  0.13336927272E+04  0.00000000000E+00 0. -1.
          2   -1    0    0  502    0  0.00000000000E+00 -0.00000000000E+00 -0.11048338820E+03  0.11048338820E+03  0.00000000000E+00 0.  1.
         25    1    1    2    0    0  0.34083085215E+03 -0.15047336691E+03  0.68214420233E+03  0.78724431830E+03  0.12500000000E+03 0.  0.
         21    1    1    2  502  501 -0.34083085215E+03  0.15047336691E+03  0.54106513665E+03  0.65693179709E+03  0.00000000000E+00 0.  1.
<mgrwt>
<rscale>  3 0.76772623E+03</rscale>
<asrwt>0</asrwt>
<pdfrwt beam="1">  1        2 0.16997445E-01 0.76772623E+03</pdfrwt>
<pdfrwt beam="2">  1       -2 0.20518348E+00 0.76772623E+03</pdfrwt>
<totfact> 0.43131952E+01</totfact>
</mgrwt>
</event>
<event>
 4    0  0.1264838E-002  0.4534465E+03  0.7546771E-02  0.1026699E+00
         -1   -1    0    0    0  501 -0.00000000000E+00  0.00000000000E+00  0.32004335132E+02  0.32004335132E+02  0.00000000000E+00 0.  1.
          1   -1    0    0  502    0  0.00000000000E+00 -0.00000000000E+00 -0.16061396432E+04  0.16061396432E+04  0.00000000000E+00 0. -1.
         25    1    1    2    0    0 -0.16455053555E+03  0.12928457360E+03 -0.88234794635E+03  0.91539842591E+03  0.12500000000E+03 0.  0.
         21    1    1    2  502  501  0.16455053555E+03 -0.12928457360E+03 -0.69178736175E+03  0.72274555245E+03  0.00000000000E+00 0. -1.
<mgrwt>
<rscale>  3 0.45344650E+03</rscale>
<asrwt>0</asrwt>
<pdfrwt beam="1">  1        1 0.24709840E+00 0.45344650E+03</pdfrwt>
<pdfrwt beam="2">  1       -1 0.49237440E-02 0.45344650E+03</pdfrwt>
<totfact> 0.10855843E+03</totfact>
</mgrwt>
</event>
<event>
 4    0  0.1264838E-002  0.7443906E+03  0.7546771E-02  0.9644192E-01
          2   -1    0    0  502    0  0.00000000000E+00  0.00000000000E+00  0.39014789448E+03  0.39014789448E+03  0.00000000000E+00 0.  1.
         -2   -1    0    0    0  501 -0.00000000000E+00 -0.00000000000E+00 -0.35506882922E+03  0.35506882922E+03  0.00000000000E+00 0. -1.
         25    1    1    2    0    0 -0.86006251291E+00  0.34848521761E+03 -0.78946081054E+02  0.37855008957E+03  0.12500000000E+03 0.  0.
         21    1    1    2  502  501  0.86006251291E+00 -0.34848521761E+03  0.11402514631E+03  0.36666663414E+03  0.00000000000E+00 0.  1.
<mgrwt>
<rscale>  3 0.74439064E+03</rscale>
<asrwt>0</asrwt>
<pdfrwt beam="1">  1        2 0.60022753E-01 0.74439064E+03</pdfrwt>
<pdfrwt beam="2">  1       -2 0.54625974E-01 0.74439064E+03</pdfrwt>
<totfact> 0.26019348E+02</totfact>
</mgrwt>
</event>
<event>
 4    0  0.1264838E-002  0.1000974E+04  0.7546771E-02  0.9307477E-01
          2   -1    0    0  502    0  0.00000000000E+00  0.00000000000E+00  0.15788010557E+04  0.15788010557E+04  0.00000000000E+00 0.  1.
         -2   -1    0    0    0  501 -0.00000000000E+00 -0.00000000000E+00 -0.15865670104E+03  0.15865670104E+03  0.00000000000E+00 0. -1.
         25    1    1    2    0    0  0.16738874570E+03  0.32164011916E+03  0.14215754003E+03  0.40902949115E+03  0.12500000000E+03 0.  0.
         21    1    1    2  502  501 -0.16738874570E+03 -0.32164011916E+03  0.12779868146E+04  0.13284282656E+04  0.00000000000E+00 0.  1.
<mgrwt>
<rscale>  3 0.10009743E+04</rscale>
<asrwt>0</asrwt>
<pdfrwt beam="1">  1        2 0.24289246E+00 0.10009743E+04</pdfrwt>
<pdfrwt beam="2">  1       -2 0.24408724E-01 0.10009743E+04</pdfrwt>
<totfact> 0.17135530E+02</totfact>
</mgrwt>
</event>
<event>
 4    0  0.1264838E-002  0.5591748E+03  0.7546771E-02  0.9993924E-01
         -1   -1    0    0    0  501 -0.00000000000E+00  0.00000000000E+00  0.26476418018E+02  0.26476418018E+02  0.00000000000E+00 0. -1.
          1   -1    0    0  502    0  0.00000000000E+00 -0.00000000000E+00 -0.29524047644E+04  0.29524047644E+04  0.00000000000E+00 0.  1.
         25    1    1    2    0    0  0.70813260427E+02  0.22133924264E+03 -0.85081154302E+03  0.89079226530E+03  0.12500000000E+03 0.  0.
         21    1    1    2  502  501 -0.70813260427E+02 -0.22133924264E+03 -0.20751168033E+04  0.20880889171E+04  0.00000000000E+00 0.  1.
<mgrwt>
<rscale>  3 0.55917476E+03</rscale>
<asrwt>0</asrwt>
<pdfrwt beam="1">  1        1 0.45421596E+00 0.55917476E+03</pdfrwt>
<pdfrwt beam="2">  1       -1 0.40732965E-02 0.55917476E+03</pdfrwt>
<totfact> 0.17756472E+02</totfact>
</mgrwt>
</event>
<event>
 4    0  0.1264838E-002  0.6157782E+03  0.7546771E-02  0.9873201E-01
         -4   -1    0    0    0  501 -0.00000000000E+00  0.00000000000E+00  0.13687934811E+04  0.13687934811E+04  0.00000000000E+00 0. -1.
          4   -1    0    0  502    0  0.00000000000E+00 -0.00000000000E+00 -0.69254940691E+02  0.69254940691E+02  0.00000000000E+00 0.  1.
         25    1    1    2    0    0 -0.12363702369E+03  0.19005023291E+03  0.11180336470E+04  0.11476190311E+04  0.12500000000E+03 0.  0.
         21    1    1    2  502  501  0.12363702369E+03 -0.19005023291E+03  0.18150489337E+03  0.29042939068E+03  0.00000000000E+00 0.  1.
<mgrwt>
<rscale>  3 0.61577824E+03</rscale>
<asrwt>0</asrwt>
<pdfrwt beam="1">  1        4 0.10654607E-01 0.61577824E+03</pdfrwt>
<pdfrwt beam="2">  1       -4 0.21058359E+00 0.61577824E+03</pdfrwt>
<totfact> 0.16031649E+01</totfact>
</mgrwt>
</event>
<event>
 4    0  0.1457478E-002  0.1251981E+04  0.7546771E-02  0.9068536E-01
         -1   -1    0    0    0  501 -0.00000000000E+00  0.00000000000E+00  0.28314931868E+03  0.28314931868E+03  0.00000000000E+00 0.  1.
          1   -1    0    0  502    0  0.00000000000E+00 -0.00000000000E+00 -0.13839478629E+04  0.13839478629E+04  0.00000000000E+00 0. -1.
         25    1    1    2    0    0 -0.15650651553E+03  0.19256302473E+03  0.20031750800E+03  0.34253016204E+03  0.12500000000E+03 0.  0.
         21    1    1    2  502  501  0.15650651553E+03 -0.19256302473E+03 -0.13011160522E+04  0.13245670195E+04  0.00000000000E+00 0. -1.
<mgrwt>
<rscale>  3 0.12519807E+04</rscale>
<asrwt>0</asrwt>
<pdfrwt beam="1">  1        1 0.21291506E+00 0.12519807E+04</pdfrwt>
<pdfrwt beam="2">  1       -1 0.43561433E-01 0.12519807E+04</pdfrwt>
<totfact> 0.40445040E+01</totfact>
</mgrwt>
</event>
<event>
 4    0  0.1264838E-002  0.4781254E+03  0.7546771E-02  0.1019652E+00
          2   -1    0    0  502    0  0.00000000000E+00  0.00000000000E+00  0.35973319804E+03  0.35973319804E+03  0.00000000000E+00 0.  1.
         -2   -1    0    0    0  501 -0.00000000000E+00 -0.00000000000E+00 -0.15887045435E+03  0.15887045435E+03  0.00000000000E+00 0. -1.
         25    1    1    2    0    0 -0.10597284361E+03 -0.19229574001E+03  0.66746753346E+02  0.26131977401E+03  0.12500000000E+03 0.  0.
         21    1    1    2  502  501  0.10597284361E+03  0.19229574001E+03  0.13411599034E+03  0.25728387838E+03  0.00000000000E+00 0. -1.
<mgrwt>
<rscale>  3 0.47812541E+03</rscale>
<asrwt>0</asrwt>
<pdfrwt beam="1">  1        2 0.55343569E-01 0.47812541E+03</pdfrwt>
<pdfrwt beam="2">  1       -2 0.24441608E-01 0.47812541E+03</pdfrwt>
<totfact> 0.13355802E+03</totfact>
</mgrwt>
</event>
<event>
 4    0  0.1264838E-002  0.4439587E+03  0.7546771E-02  0.1029539E+00
         -2   -1    0    0    0  501 -0.00000000000E+00  0.00000000000E+00  0.53283789273E+02  0.53283789273E+02  0.00000000000E+00 0. -1.
          2   -1    0    0  502    0  0.00000000000E+00 -0.00000000000E+00 -0.92476197965E+03  0.92476197965E+03  0.00000000000E+00 0.  1.
         25    1    1    2    0    0  0.20156643634E+03  0.28331536412E+02 -0.51092076295E+03  0.56400064736E+03  0.12500000000E+03 0.  0.
         21    1    1    2  502  501 -0.20156643634E+03 -0.28331536412E+02 -0.36055742743E+03  0.41404512156E+03  0.00000000000E+00 0. -1.
<mgrwt>
<rscale>  3 0.44395866E+03</rscale>
<asrwt>0</asrwt>
<pdfrwt beam="1">  1        2 0.14227108E+00 0.44395866E+03</pdfrwt>
<pdfrwt beam="2">  1       -2 0.81975056E-02 0.44395866E+03</pdfrwt>
<totfact> 0.26731710E+03</totfact>
</mgrwt>
</event>
<event>
 4    0  0.1264838E-002  0.4951002E+03  0.7546771E-02  0.1015066E+00
          1   -1    0    0  502    0  0.00000000000E+00  0.00000000000E+00  0.58502369899E+03  0.58502369899E+03  0.00000000000E+00 0.  1.
         -1   -1    0    0    0  501 -0.00000000000E+00 -0.00000000000E+00 -0.10474967795E+03  0.10474967795E+03  0.00000000000E+00 0. -1.
         25    1    1    2    0    0 -0.20140762900E+03  0.47306620914E+02  0.10989247427E+03  0.26552646818E+03  0.12500000000E+03 0.  0.
         21    1    1    2  502  501  0.20140762900E+03 -0.47306620914E+02  0.37038154678E+03  0.42424690876E+03  0.00000000000E+00 0.  1.
<mgrwt>
<rscale>  3 0.49510017E+03</rscale>
<asrwt>0</asrwt>
<pdfrwt beam="1">  1        1 0.90003645E-01 0.49510017E+03</pdfrwt>
<pdfrwt beam="2">  1       -1 0.16115335E-01 0.49510017E+03</pdfrwt>
<totfact> 0.10441009E+03</totfact>
</mgrwt>
</event>
<event>
 4    0  0.1264838E-002  0.5274961E+03  0.7546771E-02  0.1006841E+00
         -2   -1    0    0    0  501 -0.00000000000E+00  0.00000000000E+00  0.36826591305E+02  0.36826591305E+02  0.00000000000E+00 0.  1.
          2   -1    0    0  502    0  0.00000000000E+00 -0.00000000000E+00 -0.18889345813E+04  0.18889345813E+04  0.00000000000E+00 0. -1.
         25    1    1    2    0    0 -0.64648943672E+02 -0.23857057825E+03 -0.10860137690E+04  0.11207793330E+04  0.12500000000E+03 0.  0.
         21    1    1    2  502  501  0.64648943672E+02  0.23857057825E+03 -0.76609422098E+03  0.80498183963E+03  0.00000000000E+00 0. -1.
<mgrwt>
<rscale>  3 0.52749605E+03</rscale>
<asrwt>0</asrwt>
<pdfrwt beam="1">  1        2 0.29060527E+00 0.52749605E+03</pdfrwt>
<pdfrwt beam="2">  1       -2 0.56656305E-02 0.52749605E+03</pdfrwt>
<totfact> 0.13503685E+03</totfact>
</mgrwt>
</event>
<event>
 4    0  0.1264838E-002  0.5557502E+03  0.7546771E-02  0.1000172E+00
         -2   -1    0    0    0  501 -0.00000000000E+00  0.00000000000E+00  0.87494447847E+02  0.87494447847E+02  0.00000000000E+00 0. -1.
          2   -1    0    0  502    0  0.00000000000E+00 -0.00000000000E+00 -0.88250808824E+03  0.88250808824E+03  0.00000000000E+00 0.  1.
         25    1    1    2    0    0  0.22589992700E+03 -0.83216709787E+02 -0.22927673358E+03  0.35517406770E+03  0.12500000000E+03 0.  0.
         21    1    1    2  502  501 -0.22589992700E+03  0.83216709787E+02 -0.56573690682E+03  0.61482846839E+03  0.00000000000E+00 0.  1.
<mgrwt>
<rscale>  3 0.55575015E+03</rscale>
<asrwt>0</asrwt>
<pdfrwt beam="1">  1        2 0.13577047E+00 0.55575015E+03</pdfrwt>
<pdfrwt beam="2">  1       -2 0.13460685E-01 0.55575015E+03</pdfrwt>
<totfact> 0.12741858E+03</totfact>
</mgrwt>
</event>
<event>
 4    0  0.1264838E-002  0.7704551E+03  0.7546771E-02  0.9603795E-01
          2   -1    0    0  502    0  0.00000000000E+00  0.00000000000E+00  0.12977089916E+04  0.12977089916E+04  0.00000000000E+00 0.  1.
         -2   -1    0    0    0  501 -0.00000000000E+00 -0.00000000000E+00 -0.11435556784E+03  0.11435556784E+03  0.00000000000E+00 0. -1.
         25    1    1    2    0    0 -0.16990348787E+03  0.31191272003E+03  0.82820272923E+03  0.90978101805E+03  0.12500000000E+03 0.  0.
         21    1    1    2  502  501  0.16990348787E+03 -0.31191272003E+03  0.35515069449E+03  0.50228354134E+03  0.00000000000E+00 0. -1.
<mgrwt>
<rscale>  3 0.77045506E+03</rscale>
<asrwt>0</asrwt>
<pdfrwt beam="1">  1        2 0.19964753E+00 0.77045506E+03</pdfrwt>
<pdfrwt beam="2">  1       -2 0.17593165E-01 0.77045506E+03</pdfrwt>
<totfact> 0.44600688E+02</totfact>
</mgrwt>
</event>
<event>
 4    0  0.1264838E-002  0.4795962E+03  0.7546771E-02  0.1019246E+00
          1   -1    0    0  502    0  0.00000000000E+00  0.00000000000E+00  0.70590365550E+03  0.70590365550E+03  0.00000000000E+00 0. -1.
         -1   -1    0    0    0  501 -0.00000000000E+00 -0.00000000000E+00 -0.81460323263E+02  0.81460323263E+02  0.00000000000E+00 0.  1.
         25    1    1    2    0    0 -0.21988393452E+03 -0.17305939324E+02  0.27406630573E+03  0.37334405062E+03  0.12500000000E+03 0.  0.
         21    1    1    2  502  501  0.21988393452E+03  0.17305939324E+02  0.35037702650E+03  0.41401992814E+03  0.00000000000E+00 0. -1.
<mgrwt>
<rscale>  3 0.47959625E+03</rscale>
<asrwt>0</asrwt>
<pdfrwt beam="1">  1        1 0.10860056E+00 0.47959625E+03</pdfrwt>
<pdfrwt beam="2">  1       -1 0.12532358E-01 0.47959625E+03</pdfrwt>
<totfact> 0.11909303E+03</totfact>
</mgrwt>
</event>
<event>
 4    0  0.1264838E-002  0.6438876E+03  0.7546771E-02  0.9818317E-01
         -3   -1    0    0    0  501 -0.00000000000E+00  0.00000000000E+00  0.45597910986E+03  0.45597910986E+03  0.00000000000E+00 0.  1.
          3   -1    0    0  502    0  0.00000000000E+00 -0.00000000000E+00 -0.22730823691E+03  0.22730823691E+03  0.00000000000E+00 0. -1.
         25    1    1    2    0    0 -0.24572790205E+03  0.38381968464E+02 -0.77394900902E+02  0.28891235356E+03  0.12500000000E+03 0.  0.
         21    1    1    2  502  501  0.24572790205E+03 -0.38381968464E+02  0.30606577385E+03  0.39437499321E+03  0.00000000000E+00 0.  1.
<mgrwt>
<rscale>  3 0.64388759E+03</rscale>
<asrwt>0</asrwt>
<pdfrwt beam="1">  1        3 0.34970498E-01 0.64388759E+03</pdfrwt>
<pdfrwt beam="2">  1       -3 0.70150632E-01 0.64388759E+03</pdfrwt>
<totfact> 0.41312767E+01</totfact>
</mgrwt>
</event>
<event>
 4    0  0.1264838E-002  0.1057819E+04  0.7546771E-02  0.9247308E-01
          2   -1    0    0  502    0  0.00000000000E+00  0.00000000000E+00  0.48511429199E+03  0.48511429199E+03  0.00000000000E+00 0. -1.
         -2   -1    0    0    0  501 -0.00000000000E+00 -0.00000000000E+00 -0.57665883873E+03  0.57665883873E+03  0.00000000000E+00 0.  1.
         25    1    1    2    0    0 -0.15918781348E+03  0.44550937238E+03  0.17388128416E+03  0.51930632754E+03  0.12500000000E+03 0.  0.
         21    1    1    2  502  501  0.15918781348E+03 -0.44550937238E+03 -0.26542583090E+03  0.54246680318E+03  0.00000000000E+00 0.  1.
<mgrwt>
<rscale>  3 0.10578193E+04</rscale>
<asrwt>0</asrwt>
<pdfrwt beam="1">  1        2 0.74632968E-01 0.10578193E+04</pdfrwt>
<pdfrwt beam="2">  1       -2 0.88716745E-01 0.10578193E+04</pdfrwt>
<totfact> 0.69382235E+01</totfact>
</mgrwt>
</event>
<event>
 4    0  0.1264838E-002  0.4803103E+03  0.7546771E-02  0.1019050E+00
          2   -1    0    0  502    0  0.00000000000E+00  0.00000000000E+00  0.16082698400E+04  0.16082698400E+04  0.00000000000E+00 0.  1.
         -2   -1    0    0    0  501 -0.00000000000E+00 -0.00000000000E+00 -0.35861206110E+02  0.35861206110E+02  0.00000000000E+00 0. -1.
         25    1    1    2    0    0 -0.20009062044E+03  0.19235957837E+02  0.50196868510E+03  0.55498093597E+03  0.12500000000E+03 0.  0.
         21    1    1    2  502  501  0.20009062044E+03 -0.19235957837E+02  0.10704399488E+04  0.10891501102E+04  0.00000000000E+00 0. -1.
<mgrwt>
<rscale>  3 0.48031030E+03</rscale>
<asrwt>0</asrwt>
<pdfrwt beam="1">  1        2 0.24742607E+00 0.48031030E+03</pdfrwt>
<pdfrwt beam="2">  1       -2 0.55171099E-02 0.48031030E+03</pdfrwt>
<totfact> 0.19980802E+03</totfact>
</mgrwt>
</event>
<event>
 4    0  0.1264838E-002  0.6059539E+03  0.7546771E-02  0.9893130E-01
          2   -1    0    0  502    0  0.00000000000E+00  0.00000000000E+00  0.69964615094E+03  0.69964615094E+03  0.00000000000E+00 0. -1.
         -2   -1    0    0    0  501 -0.00000000000E+00 -0.00000000000E+00 -0.13120207517E+03  0.13120207517E+03  0.00000000000E+00 0.  1.
         25    1    1    2    0    0 -0.18677424482E+02 -0.23765527712E+03  0.52294897227E+03  0.58815772079E+03  0.12500000000E+03 0.  0.
         21    1    1    2  502  501  0.18677424482E+02  0.23765527712E+03  0.45495103503E+02  0.24269050531E+03  0.00000000000E+00 0.  1.
<mgrwt>
<rscale>  3 0.60595388E+03</rscale>
<asrwt>0</asrwt>
<pdfrwt beam="1">  1        2 0.10763787E+00 0.60595388E+03</pdfrwt>
<pdfrwt beam="2">  1       -2 0.20184935E-01 0.60595388E+03</pdfrwt>
<totfact> 0.86512217E+02</totfact>
</mgrwt>
</event>
<event>
 4    0  0.1264838E-002  0.7025971E+03  0.7546771E-02  0.9712801E-01
         -1   -1    0    0    0  501 -0.00000000000E+00  0.00000000000E+00  0.20999784853E+03  0.20999784853E+03  0.00000000000E+00 0. -1.
          1   -1    0    0  502    0  0.00000000000E+00 -0.00000000000E+00 -0.58767592231E+03  0.58767592231E+03  0.00000000000E+00 0.  1.
         25    1    1    2    0    0  0.22961788824E+03  0.75318218052E+02 -0.46664132597E+03  0.54016324910E+03  0.12500000000E+03 0.  0.
         21    1    1    2  502  501 -0.22961788824E+03 -0.75318218052E+02  0.88963252185E+02  0.25751052174E+03  0.00000000000E+00 0. -1.
<mgrwt>
<rscale>  3 0.70259712E+03</rscale>
<asrwt>0</asrwt>
<pdfrwt beam="1">  1        1 0.90411680E-01 0.70259712E+03</pdfrwt>
<pdfrwt beam="2">  1       -1 0.32307361E-01 0.70259712E+03</pdfrwt>
<totfact> 0.31959678E+02</totfact>
</mgrwt>
</event>
<event>
 4    0  0.1264838E-002  0.4910016E+03  0.7546771E-02  0.1016155E+00
          2   -1    0    0  502    0  0.00000000000E+00  0.00000000000E+00  0.12924588991E+04  0.12924588991E+04  0.00000000000E+00 0.  1.
         -2   -1    0    0    0  501 -0.00000000000E+00 -0.00000000000E+00 -0.46632533396E+02  0.46632533396E+02  0.00000000000E+00 0. -1.
         25    1    1    2    0    0  0.13854631058E+03  0.17300539501E+03  0.49998254928E+03  0.56101113755E+03  0.12500000000E+03 0.  0.
         21    1    1    2  502  501 -0.13854631058E+03 -0.17300539501E+03  0.74584381644E+03  0.77808029496E+03  0.00000000000E+00 0. -1.
<mgrwt>
<rscale>  3 0.49100156E+03</rscale>
<asrwt>0</asrwt>
<pdfrwt beam="1">  1        2 0.19883980E+00 0.49100156E+03</pdfrwt>
<pdfrwt beam="2">  1       -2 0.71742369E-02 0.49100156E+03</pdfrwt>
<totfact> 0.19807257E+03</totfact>
</mgrwt>
</event>
<event>
 4    0  0.1264838E-002  0.5557999E+03  0.7546771E-02  0.1000160E+00
         -2   -1    0    0    0  501 -0.00000000000E+00  0.00000000000E+00  0.33360555476E+02  0.33360555476E+02  0.00000000000E+00 0. -1.
          2   -1    0    0  502    0  0.00000000000E+00 -0.00000000000E+00 -0.23149607680E+04  0.23149607680E+04  0.00000000000E+00 0.  1.
         25    1    1    2    0    0 -0.18222424485E+03  0.12362686862E+03 -0.18125880589E+04  0.18301884464E+04  0.12500000000E+03 0.  0.
         21    1    1    2  502  501  0.18222424485E+03 -0.12362686862E+03 -0.46901215357E+03  0.51813287703E+03  0.00000000000E+00 0. -1.
<mgrwt>
<rscale>  3 0.55579988E+03</rscale>
<asrwt>0</asrwt>
<pdfrwt beam="1">  1        2 0.35614796E+00 0.55579988E+03</pdfrwt>
<pdfrwt beam="2">  1       -2 0.51323910E-02 0.55579988E+03</pdfrwt>
<totfact> 0.92261504E+02</totfact>
</mgrwt>
</event>
<event>
 4    0  0.1264838E-002  0.5532832E+03  0.7546771E-02  0.1000737E+00
          1   -1    0    0  502    0  0.00000000000E+00  0.00000000000E+00  0.14248428448E+03  0.14248428448E+03  0.00000000000E+00 0. -1.
         -1   -1    0    0    0  501 -0.00000000000E+00 -0.00000000000E+00 -0.53711581537E+03  0.53711581537E+03  0.00000000000E+00 0.  1.
         25    1    1    2    0    0 -0.37972904427E+02  0.22369065304E+03 -0.36958836888E+03  0.45133137731E+03  0.12500000000E+03 0.  0.
         21    1    1    2  502  501  0.37972904427E+02 -0.22369065304E+03 -0.25043162010E+02  0.22826872255E+03  0.00000000000E+00 0. -1.
<mgrwt>
<rscale>  3 0.55328316E+03</rscale>
<asrwt>0</asrwt>
<pdfrwt beam="1">  1        1 0.21920659E-01 0.55328316E+03</pdfrwt>
<pdfrwt beam="2">  1       -1 0.82633204E-01 0.55328316E+03</pdfrwt>
<totfact> 0.34324398E+02</totfact>
</mgrwt>
</event>
<event>
 4    0  0.1264838E-002  0.5010476E+03  0.7546771E-02  0.1013506E+00
          2   -1    0    0  502    0  0.00000000000E+00  0.00000000000E+00  0.93398647976E+03  0.93398647976E+03  0.00000000000E+00 0.  1.
         -2   -1    0    0    0  501 -0.00000000000E+00 -0.00000000000E+00 -0.67198161680E+02  0.67198161680E+02  0.00000000000E+00 0. -1.
         25    1    1    2    0    0 -0.18824117183E+03  0.71829429574E+02  0.21893847358E+03  0.32272784345E+03  0.12500000000E+03 0.  0.
         21    1    1    2  502  501  0.18824117183E+03 -0.71829429574E+02  0.64784984449E+03  0.67845679798E+03  0.00000000000E+00 0.  1.
<mgrwt>
<rscale>  3 0.50104760E+03</rscale>
<asrwt>0</asrwt>
<pdfrwt beam="1">  1        2 0.14369022E+00 0.50104760E+03</pdfrwt>
<pdfrwt beam="2">  1       -2 0.10338179E-01 0.50104760E+03</pdfrwt>
<totfact> 0.18177775E+03</totfact>
</mgrwt>
</event>
<event>
 4    0  0.1264838E-002  0.4978724E+03  0.7546771E-02  0.1014336E+00
         -2   -1    0    0    0  501 -0.00000000000E+00  0.00000000000E+00  0.31669432836E+03  0.31669432836E+03  0.00000000000E+00 0.  1.
          2   -1    0    0  502    0  0.00000000000E+00 -0.00000000000E+00 -0.19567519442E+03  0.19567519442E+03  0.00000000000E+00 0. -1.
         25    1    1    2    0    0  0.14049024584E+03  0.17485052044E+03  0.13016117561E+03  0.28788390943E+03  0.12500000000E+03 0.  0.
         21    1    1    2  502  501 -0.14049024584E+03 -0.17485052044E+03 -0.91420416704E+01  0.22448561334E+03  0.00000000000E+00 0. -1.
<mgrwt>
<rscale>  3 0.49787237E+03</rscale>
<asrwt>0</asrwt>
<pdfrwt beam="1">  1        2 0.30103876E-01 0.49787237E+03</pdfrwt>
<pdfrwt beam="2">  1       -2 0.48722204E-01 0.49787237E+03</pdfrwt>
<totfact> 0.71095779E+02</totfact>
</mgrwt>
</event>
<event>
 4    0  0.1264838E-002  0.4581045E+03  0.7546771E-02  0.1025332E+00
          2   -1    0    0  502    0  0.00000000000E+00  0.00000000000E+00  0.15105893209E+04  0.15105893209E+04  0.00000000000E+00 0. -1.
         -2   -1    0    0    0  501 -0.00000000000E+00 -0.00000000000E+00 -0.34731440300E+02  0.34731440300E+02  0.00000000000E+00 0.  1.
         25    1    1    2    0    0  0.11779761987E+03  0.16388406181E+03  0.57402218316E+03  0.62117689246E+03  0.12500000000E+03 0.  0.
         21    1    1    2  502  501 -0.11779761987E+03 -0.16388406181E+03  0.90183569747E+03  0.92414386878E+03  0.00000000000E+00 0.  1.
<mgrwt>
<rscale>  3 0.45810454E+03</rscale>
<asrwt>0</asrwt>
<pdfrwt beam="1">  1        2 0.23239831E+00 0.45810454E+03</pdfrwt>
<pdfrwt beam="2">  1       -2 0.53432997E-02 0.45810454E+03</pdfrwt>
<totfact> 0.23744638E+03</totfact>
</mgrwt>
</event>
<event>
 4    0  0.1264838E-002  0.4851254E+03  0.7546771E-02  0.1017736E+00
         -2   -1    0    0    0  501 -0.00000000000E+00  0.00000000000E+00  0.40480827602E+02  0.40480827602E+02  0.00000000000E+00 0.  1.
          2   -1    0    0  502    0  0.00000000000E+00 -0.00000000000E+00 -0.14534454077E+04  0.14534454077E+04  0.00000000000E+00 0. -1.
         25    1    1    2    0    0 -0.14255338473E+03  0.17581185110E+03 -0.73112914189E+03  0.77550376956E+03  0.12500000000E+03 0.  0.
         21    1    1    2  502  501  0.14255338473E+03 -0.17581185110E+03 -0.68183543821E+03  0.71842246575E+03  0.00000000000E+00 0. -1.
<mgrwt>
<rscale>  3 0.48512544E+03</rscale>
<asrwt>0</asrwt>
<pdfrwt beam="1">  1        2 0.22360693E+00 0.48512544E+03</pdfrwt>
<pdfrwt beam="2">  1       -2 0.62278211E-02 0.48512544E+03</pdfrwt>
<totfact> 0.20101040E+03</totfact>
</mgrwt>
</event>
<event>
 4    0  0.1264838E-002  0.5589741E+03  0.7546771E-02  0.9994379E-01
          2   -1    0    0  502    0  0.00000000000E+00  0.00000000000E+00  0.75204273742E+03  0.75204273742E+03  0.00000000000E+00 0.  1.
         -2   -1    0    0    0  501 -0.00000000000E+00 -0.00000000000E+00 -0.10386777185E+03  0.10386777185E+03  0.00000000000E+00 0. -1.
         25    1    1    2    0    0  0.18103781397E+03  0.19404907805E+03  0.35274448398E+03  0.45878470524E+03  0.12500000000E+03 0.  0.
         21    1    1    2  502  501 -0.18103781397E+03 -0.19404907805E+03  0.29543048159E+03  0.39712580404E+03  0.00000000000E+00 0.  1.
<mgrwt>
<rscale>  3 0.55897407E+03</rscale>
<asrwt>0</asrwt>
<pdfrwt beam="1">  1        2 0.11569888E+00 0.55897407E+03</pdfrwt>
<pdfrwt beam="2">  1       -2 0.15979658E-01 0.55897407E+03</pdfrwt>
<totfact> 0.11804589E+03</totfact>
</mgrwt>
</event>
<event>
 4    0  0.1264838E-002  0.4730310E+03  0.7546771E-02  0.1021068E+00
          4   -1    0    0  502    0  0.00000000000E+00  0.00000000000E+00  0.41036181193E+03  0.41036181193E+03  0.00000000000E+00 0.  1.
         -4   -1    0    0    0  501 -0.00000000000E+00 -0.00000000000E+00 -0.13631772386E+03  0.13631772386E+03  0.00000000000E+00 0. -1.
         25    1    1    2    0    0  0.11688317973E+03  0.17714490906E+03  0.79621119666E+02  0.25885617475E+03  0.12500000000E+03 0.  0.
         21    1    1    2  502  501 -0.11688317973E+03 -0.17714490906E+03  0.19442296840E+03  0.28782336103E+03  0.00000000000E+00 0.  1.
<mgrwt>
<rscale>  3 0.47303103E+03</rscale>
<asrwt>0</asrwt>
<pdfrwt beam="1">  1        4 0.63132586E-01 0.47303103E+03</pdfrwt>
<pdfrwt beam="2">  1       -4 0.20971958E-01 0.47303103E+03</pdfrwt>
<totfact> 0.96329294E+01</totfact>
</mgrwt>
</event>
<event>
 4    0  0.1264838E-002  0.6590863E+03  0.7546771E-02  0.9789877E-01
         -2   -1    0    0    0  501 -0.00000000000E+00  0.00000000000E+00  0.11019623882E+03  0.11019623882E+03  0.00000000000E+00 0.  1.
          2   -1    0    0  502    0  0.00000000000E+00 -0.00000000000E+00 -0.98550270511E+03  0.98550270511E+03  0.00000000000E+00 0. -1.
         25    1    1    2    0    0  0.80030479805E-01 -0.30738128225E+03 -0.31994875150E+03  0.46095060762E+03  0.12500000000E+03 0.  0.
         21    1    1    2  502  501 -0.80030479805E-01  0.30738128225E+03 -0.55535771478E+03  0.63474833631E+03  0.00000000000E+00 0. -1.
<mgrwt>
<rscale>  3 0.65908631E+03</rscale>
<asrwt>0</asrwt>
<pdfrwt beam="1">  1        2 0.15161581E+00 0.65908631E+03</pdfrwt>
<pdfrwt beam="2">  1       -2 0.16953266E-01 0.65908631E+03</pdfrwt>
<totfact> 0.73724328E+02</totfact>
</mgrwt>
</event>
<event>
 4    0  0.1264838E-002  0.5625513E+03  0.7546771E-02  0.9986298E-01
         -1   -1    0    0    0  501 -0.00000000000E+00  0.00000000000E+00  0.11040522369E+03  0.11040522369E+03  0.00000000000E+00 0.  1.
          1   -1    0    0  502    0  0.00000000000E+00 -0.00000000000E+00 -0.71659650537E+03  0.71659650537E+03  0.00000000000E+00 0. -1.
         25    1    1    2    0    0 -0.16491206414E+03 -0.19865785840E+03 -0.42028670097E+03  0.50884854782E+03  0.12500000000E+03 0.  0.
         21    1    1    2  502  501  0.16491206414E+03  0.19865785840E+03 -0.18590458071E+03  0.31815318124E+03  0.00000000000E+00 0.  1.
<mgrwt>
<rscale>  3 0.56255132E+03</rscale>
<asrwt>0</asrwt>
<pdfrwt beam="1">  1        1 0.11024561E+00 0.56255132E+03</pdfrwt>
<pdfrwt beam="2">  1       -1 0.16985420E-01 0.56255132E+03</pdfrwt>
<totfact> 0.71194469E+02</totfact>
</mgrwt>
</event>
<event>
 4    0  0.1264838E-002  0.4513001E+03  0.7546771E-02  0.1027335E+00
         -2   -1    0    0    0  501 -0.00000000000E+00  0.00000000000E+00  0.32877746862E+02  0.32877746862E+02  0.00000000000E+00 0. -1.
          2   -1    0    0  502    0  0.00000000000E+00 -0.00000000000E+00 -0.15487055948E+04  0.15487055948E+04  0.00000000000E+00 0.  1.
         25    1    1    2    0    0  0.13435415835E+03 -0.15864756735E+03 -0.76838766765E+03  0.80576963103E+03  0.12500000000E+03 0.  0.
         21    1    1    2  502  501 -0.13435415835E+03  0.15864756735E+03 -0.74744018026E+03  0.77581371060E+03  0.00000000000E+00 0.  1.
<mgrwt>
<rscale>  3 0.45130012E+03</rscale>
<asrwt>0</asrwt>
<pdfrwt beam="1">  1        2 0.23826239E+00 0.45130012E+03</pdfrwt>
<pdfrwt beam="2">  1       -2 0.50581150E-02 0.45130012E+03</pdfrwt>
<totfact> 0.24641284E+03</totfact>
</mgrwt>
</event>
<event>
 4    0  0.1264838E-002  0.4666851E+03  0.7546771E-02  0.1022860E+00
         -2   -1    0    0    0  501 -0.00000000000E+00  0.00000000000E+00  0.24341291099E+03  0.24341291099E+03  0.00000000000E+00 0. -1.
          2   -1    0    0  502    0  0.00000000000E+00 -0.00000000000E+00 -0.22368877474E+03  0.22368877474E+03  0.00000000000E+00 0.  1.
         25    1    1    2    0    0  0.29909794819E+02  0.21226767121E+03  0.41650769262E+02  0.25161865322E+03  0.12500000000E+03 0.  0.
         21    1    1    2  502  501 -0.29909794819E+02 -0.21226767121E+03 -0.21926633014E+02  0.21548303252E+03  0.00000000000E+00 0.  1.
<mgrwt>
<rscale>  3 0.46668506E+03</rscale>
<asrwt>0</asrwt>
<pdfrwt beam="1">  1        2 0.34413658E-01 0.46668506E+03</pdfrwt>
<pdfrwt beam="2">  1       -2 0.37448140E-01 0.46668506E+03</pdfrwt>
<totfact> 0.10256914E+03</totfact>
</mgrwt>
</event>
<event>
 4    0  0.1264838E-002  0.5032125E+03  0.7546771E-02  0.1012944E+00
         -2   -1    0    0    0  501 -0.00000000000E+00  0.00000000000E+00  0.27937476989E+02  0.27937476989E+02  0.00000000000E+00 0. -1.
          2   -1    0    0  502    0  0.00000000000E+00 -0.00000000000E+00 -0.22659774441E+04  0.22659774441E+04  0.00000000000E+00 0.  1.
         25    1    1    2    0    0 -0.10703504174E+03 -0.19073134164E+03 -0.78291500609E+03  0.82244504473E+03  0.12500000000E+03 0.  0.
         21    1    1    2  502  501  0.10703504174E+03  0.19073134164E+03 -0.14551249611E+04  0.14714698764E+04  0.00000000000E+00 0.  1.
<mgrwt>
<rscale>  3 0.50321245E+03</rscale>
<asrwt>0</asrwt>
<pdfrwt beam="1">  1        2 0.34861194E+00 0.50321245E+03</pdfrwt>
<pdfrwt beam="2">  1       -2 0.42980731E-02 0.50321245E+03</pdfrwt>
<totfact> 0.12956839E+03</totfact>
</mgrwt>
</event>
<event>
 4    0  0.1264838E-002  0.9632185E+03  0.7546771E-02  0.9349832E-01
         -2   -1    0    0    0  501 -0.00000000000E+00  0.00000000000E+00  0.29876256478E+03  0.29876256478E+03  0.00000000000E+00 0. -1.
          2   -1    0    0  502    0  0.00000000000E+00 -0.00000000000E+00 -0.77636052841E+03  0.77636052841E+03  0.00000000000E+00 0.  1.
         25    1    1    2    0    0  0.25108003870E+03  0.40138577448E+03 -0.23500558731E+03  0.54314303075E+03  0.12500000000E+03 0.  0.
         21    1    1    2  502  501 -0.25108003870E+03 -0.40138577448E+03 -0.24259237632E+03  0.53198006244E+03  0.00000000000E+00 0.  1.
<mgrwt>
<rscale>  3 0.96321849E+03</rscale>
<asrwt>0</asrwt>
<pdfrwt beam="1">  1        2 0.11944008E+00 0.96321849E+03</pdfrwt>
<pdfrwt beam="2">  1       -2 0.45963472E-01 0.96321849E+03</pdfrwt>
<totfact> 0.16086841E+02</totfact>
</mgrwt>
</event>
<event>
 4    0  0.1264838E-002  0.5221376E+03  0.7546771E-02  0.1008157E+00
          2   -1    0    0  502    0  0.00000000000E+00  0.00000000000E+00  0.83762800813E+03  0.83762800813E+03  0.00000000000E+00 0.  1.
         -2   -1    0    0    0  501 -0.00000000000E+00 -0.00000000000E+00 -0.81368961153E+02  0.81368961153E+02  0.00000000000E+00 0. -1.
         25    1    1    2    0    0  0.21714031010E+03  0.25586012720E+02  0.59864766425E+03  0.64946792395E+03  0.12500000000E+03 0.  0.
         21    1    1    2  502  501 -0.21714031010E+03 -0.25586012720E+02  0.15761138272E+03  0.26952904534E+03  0.00000000000E+00 0. -1.
<mgrwt>
<rscale>  3 0.52213761E+03</rscale>
<asrwt>0</asrwt>
<pdfrwt beam="1">  1        2 0.12886584E+00 0.52213761E+03</pdfrwt>
<pdfrwt beam="2">  1       -2 0.12518302E-01 0.52213761E+03</pdfrwt>
<totfact> 0.15425080E+03</totfact>
</mgrwt>
</event>
<event>
 4    0  0.1264838E-002  0.6419820E+03  0.7546771E-02  0.9821942E-01
         -2   -1    0    0    0  501 -0.00000000000E+00  0.00000000000E+00  0.16822059067E+03  0.16822059067E+03  0.00000000000E+00 0. -1.
          2   -1    0    0  502    0  0.00000000000E+00 -0.00000000000E+00 -0.61250070734E+03  0.61250070734E+03  0.00000000000E+00 0.  1.
         25    1    1    2    0    0 -0.67946183424E+02  0.23149563819E+03 -0.46500294110E+03  0.53857186111E+03  0.12500000000E+03 0.  0.
         21    1    1    2  502  501  0.67946183424E+02 -0.23149563819E+03  0.20722824434E+02  0.24214943691E+03  0.00000000000E+00 0. -1.
<mgrwt>
<rscale>  3 0.64198203E+03</rscale>
<asrwt>0</asrwt>
<pdfrwt beam="1">  1        2 0.94230877E-01 0.64198203E+03</pdfrwt>
<pdfrwt beam="2">  1       -2 0.25880091E-01 0.64198203E+03</pdfrwt>
<totfact> 0.65475752E+02</totfact>
</mgrwt>
</event>
<event>
 4    0  0.1264838E-002  0.6436839E+03  0.7546771E-02  0.9818704E-01
         -2   -1    0    0    0  501 -0.00000000000E+00  0.00000000000E+00  0.17398390669E+03  0.17398390669E+03  0.00000000000E+00 0.  1.
          2   -1    0    0  502    0  0.00000000000E+00 -0.00000000000E+00 -0.59535533374E+03  0.59535533374E+03  0.00000000000E+00 0. -1.
         25    1    1    2    0    0  0.22586087510E+03 -0.20874176686E+03 -0.17502952530E+03  0.37529534351E+03  0.12500000000E+03 0.  0.
         21    1    1    2  502  501 -0.22586087510E+03  0.20874176686E+03 -0.24634190176E+03  0.39404389692E+03  0.00000000000E+00 0. -1.
<mgrwt>
<rscale>  3 0.64368392E+03</rscale>
<asrwt>0</asrwt>
<pdfrwt beam="1">  1        2 0.91593128E-01 0.64368392E+03</pdfrwt>
<pdfrwt beam="2">  1       -2 0.26766755E-01 0.64368392E+03</pdfrwt>
<totfact> 0.63735234E+02</totfact>
</mgrwt>
</event>
<event>
 4    0  0.1264838E-002  0.5286723E+03  0.7546771E-02  0.1006555E+00
         -2   -1    0    0    0  501 -0.00000000000E+00  0.00000000000E+00  0.62631092045E+02  0.62631092045E+02  0.00000000000E+00 0. -1.
          2   -1    0    0  502    0  0.00000000000E+00 -0.00000000000E+00 -0.11156373990E+04  0.11156373990E+04  0.00000000000E+00 0.  1.
         25    1    1    2    0    0  0.23430043024E+03  0.19343499062E+02 -0.36935345969E+03  0.45532168931E+03  0.12500000000E+03 0.  0.
         21    1    1    2  502  501 -0.23430043024E+03 -0.19343499062E+02 -0.68365284722E+03  0.72294680169E+03  0.00000000000E+00 0.  1.
<mgrwt>
<rscale>  3 0.52867226E+03</rscale>
<asrwt>0</asrwt>
<pdfrwt beam="1">  1        2 0.17163652E+00 0.52867226E+03</pdfrwt>
<pdfrwt beam="2">  1       -2 0.96355529E-02 0.52867226E+03</pdfrwt>
<totfact> 0.15686240E+03</totfact>
</mgrwt>
</event>
<event>
 4    0  0.1264838E-002  0.4671188E+03  0.7546771E-02  0.1022737E+00
         -2   -1    0    0    0  501 -0.00000000000E+00  0.00000000000E+00  0.29062996965E+02  0.29062996965E+02  0.00000000000E+00 0.  1.
          2   -1    0    0  502    0  0.00000000000E+00 -0.00000000000E+00 -0.18769565413E+04  0.18769565413E+04  0.00000000000E+00 0. -1.
         25    1    1    2    0    0 -0.21370248652E+03 -0.15974314761E+02 -0.85519312337E+03  0.89045168861E+03  0.12500000000E+03 0.  0.
         21    1    1    2  502  501  0.21370248652E+03  0.15974314761E+02 -0.99270042091E+03  0.10155678496E+04  0.00000000000E+00 0. -1.
<mgrwt>
<rscale>  3 0.46711875E+03</rscale>
<asrwt>0</asrwt>
<pdfrwt beam="1">  1        2 0.28876258E+00 0.46711875E+03</pdfrwt>
<pdfrwt beam="2">  1       -2 0.44712297E-02 0.46711875E+03</pdfrwt>
<totfact> 0.19822180E+03</totfact>
</mgrwt>
</event>
<event>
 4    0  0.1264838E-002  0.4563461E+03  0.7546771E-02  0.1025846E+00
          1   -1    0    0  502    0  0.00000000000E+00  0.00000000000E+00  0.63293794300E+03  0.63293794300E+03  0.00000000000E+00 0. -1.
         -1   -1    0    0    0  501 -0.00000000000E+00 -0.00000000000E+00 -0.82255997537E+02  0.82255997537E+02  0.00000000000E+00 0.  1.
         25    1    1    2    0    0  0.19188969907E+03  0.60368537835E+02  0.39607493622E+03  0.46148279716E+03  0.12500000000E+03 0.  0.
         21    1    1    2  502  501 -0.19188969907E+03 -0.60368537835E+02  0.15460700924E+03  0.25371114338E+03  0.00000000000E+00 0. -1.
<mgrwt>
<rscale>  3 0.45634610E+03</rscale>
<asrwt>0</asrwt>
<pdfrwt beam="1">  1        1 0.97375065E-01 0.45634610E+03</pdfrwt>
<pdfrwt beam="2">  1       -1 0.12654769E-01 0.45634610E+03</pdfrwt>
<totfact> 0.13764525E+03</totfact>
</mgrwt>
</event>
<event>
 4    0  0.1264838E-002  0.5172466E+03  0.7546771E-02  0.1009373E+00
         -2   -1    0    0    0  501 -0.00000000000E+00  0.00000000000E+00  0.25741431482E+03  0.25741431482E+03  0.00000000000E+00 0. -1.
          2   -1    0    0  502    0  0.00000000000E+00 -0.00000000000E+00 -0.25983792263E+03  0.25983792263E+03  0.00000000000E+00 0.  1.
         25    1    1    2    0    0  0.21771400562E+03  0.98640101991E+02  0.45326670960E+02  0.27351191028E+03  0.12500000000E+03 0.  0.
         21    1    1    2  502  501 -0.21771400562E+03 -0.98640101991E+02 -0.47750278771E+02  0.24374032717E+03  0.00000000000E+00 0.  1.
<mgrwt>
<rscale>  3 0.51724656E+03</rscale>
<asrwt>0</asrwt>
<pdfrwt beam="1">  1        2 0.39975065E-01 0.51724656E+03</pdfrwt>
<pdfrwt beam="2">  1       -2 0.39602202E-01 0.51724656E+03</pdfrwt>
<totfact> 0.78075285E+02</totfact>
</mgrwt>
</event>
<event>
 4    0  0.1264838E-002  0.5287864E+03  0.7546771E-02  0.1006527E+00
         -2   -1    0    0    0  501 -0.00000000000E+00  0.00000000000E+00  0.47564673401E+03  0.47564673401E+03  0.00000000000E+00 0.  1.
          2   -1    0    0  502    0  0.00000000000E+00 -0.00000000000E+00 -0.14696572112E+03  0.14696572112E+03  0.00000000000E+00 0. -1.
         25    1    1    2    0    0 -0.21216785449E+03 -0.11173824829E+03  0.25517482411E+03  0.37180616653E+03  0.12500000000E+03 0.  0.
         21    1    1    2  502  501  0.21216785449E+03  0.11173824829E+03  0.73506188774E+02  0.25080628859E+03  0.00000000000E+00 0.  1.
<mgrwt>
<rscale>  3 0.52878640E+03</rscale>
<asrwt>0</asrwt>
<pdfrwt beam="1">  1        2 0.22610111E-01 0.52878640E+03</pdfrwt>
<pdfrwt beam="2">  1       -2 0.73176420E-01 0.52878640E+03</pdfrwt>
<totfact> 0.41911765E+02</totfact>
</mgrwt>
</event>
<event>
 4    0  0.1264838E-002  0.5291708E+03  0.7546771E-02  0.1006433E+00
         -2   -1    0    0    0  501 -0.00000000000E+00  0.00000000000E+00  0.16323963008E+03  0.16323963008E+03  0.00000000000E+00 0. -1.
          2   -1    0    0  502    0  0.00000000000E+00 -0.00000000000E+00 -0.42885065032E+03  0.42885065032E+03  0.00000000000E+00 0.  1.
         25    1    1    2    0    0 -0.14072863325E+03  0.16015424307E+03  0.54862272275E+01  0.24720240387E+03  0.12500000000E+03 0.  0.
         21    1    1    2  502  501  0.14072863325E+03 -0.16015424307E+03 -0.27109724747E+03  0.34488787653E+03  0.00000000000E+00 0.  1.
<mgrwt>
<rscale>  3 0.52917075E+03</rscale>
<asrwt>0</asrwt>
<pdfrwt beam="1">  1        2 0.65977024E-01 0.52917075E+03</pdfrwt>
<pdfrwt beam="2">  1       -2 0.25113789E-01 0.52917075E+03</pdfrwt>
<totfact> 0.10466493E+03</totfact>
</mgrwt>
</event>
<event>
 4    0  0.1264838E-002  0.6326284E+03  0.7546771E-02  0.9839933E-01
          1   -1    0    0  502    0  0.00000000000E+00  0.00000000000E+00  0.21849183365E+03  0.21849183365E+03  0.00000000000E+00 0.  1.
         -1   -1    0    0    0  501 -0.00000000000E+00 -0.00000000000E+00 -0.45793327941E+03  0.45793327941E+03  0.00000000000E+00 0. -1.
         25    1    1    2    0    0  0.33509382727E+02  0.25298138100E+03  0.52181103508E+02  0.28891231443E+03  0.12500000000E+03 0.  0.
         21    1    1    2  502  501 -0.33509382727E+02 -0.25298138100E+03 -0.29162254927E+03  0.38751279863E+03  0.00000000000E+00 0. -1.
<mgrwt>
<rscale>  3 0.63262843E+03</rscale>
<asrwt>0</asrwt>
<pdfrwt beam="1">  1        1 0.33614129E-01 0.63262843E+03</pdfrwt>
<pdfrwt beam="2">  1       -1 0.70451273E-01 0.63262843E+03</pdfrwt>
<totfact> 0.27392969E+02</totfact>
</mgrwt>
</event>
<event>
 4    0  0.1264838E-002  0.5541593E+03  0.7546771E-02  0.1000536E+00
         -1   -1    0    0    0  501 -0.00000000000E+00  0.00000000000E+00  0.14867364525E+03  0.14867364525E+03  0.00000000000E+00 0. -1.
          1   -1    0    0  502    0  0.00000000000E+00 -0.00000000000E+00 -0.51638697512E+03  0.51638697512E+03  0.00000000000E+00 0.  1.
         25    1    1    2    0    0  0.17811100308E+03 -0.14524548785E+03 -0.39803595444E+02  0.26463013315E+03  0.12500000000E+03 0.  0.
         21    1    1    2  502  501 -0.17811100308E+03  0.14524548785E+03 -0.32790973443E+03  0.40043048722E+03  0.00000000000E+00 0.  1.
<mgrwt>
<rscale>  3 0.55415931E+03</rscale>
<asrwt>0</asrwt>
<pdfrwt beam="1">  1        1 0.79444150E-01 0.55415931E+03</pdfrwt>
<pdfrwt beam="2">  1       -1 0.22872869E-01 0.55415931E+03</pdfrwt>
<totfact> 0.69641502E+02</totfact>
</mgrwt>
</event>
<event>
 4    0  0.1264838E-002  0.9850548E+03  0.7546771E-02  0.9325090E-01
          2   -1    0    0  502    0  0.00000000000E+00  0.00000000000E+00  0.17614840632E+04  0.17614840632E+04  0.00000000000E+00 0.  1.
         -2   -1    0    0    0  501 -0.00000000000E+00 -0.00000000000E+00 -0.13771526976E+03  0.13771526976E+03  0.00000000000E+00 0. -1.
         25    1    1    2    0    0  0.34271614732E+03  0.20419596997E+03  0.13553660860E+04  0.14183767408E+04  0.12500000000E+03 0.  0.
         21    1    1    2  502  501 -0.34271614732E+03 -0.20419596997E+03  0.26840270750E+03  0.48082259221E+03  0.00000000000E+00 0. -1.
<mgrwt>
<rscale>  3 0.98505483E+03</rscale>
<asrwt>0</asrwt>
<pdfrwt beam="1">  1        2 0.27099753E+00 0.98505483E+03</pdfrwt>
<pdfrwt beam="2">  1       -2 0.21186966E-01 0.98505483E+03</pdfrwt>
<totfact> 0.17504643E+02</totfact>
</mgrwt>
</event>
<event>
 4    0  0.1264838E-002  0.4951844E+03  0.7546771E-02  0.1015044E+00
          2   -1    0    0  502    0  0.00000000000E+00  0.00000000000E+00  0.50439552673E+02  0.50439552673E+02  0.00000000000E+00 0.  1.
         -2   -1    0    0    0  501 -0.00000000000E+00 -0.00000000000E+00 -0.12153536453E+04  0.12153536453E+04  0.00000000000E+00 0. -1.
         25    1    1    2    0    0  0.15976948905E+03 -0.15809951478E+03 -0.76454660818E+03  0.80664630556E+03  0.12500000000E+03 0.  0.
         21    1    1    2  502  501 -0.15976948905E+03  0.15809951478E+03 -0.40036748444E+03  0.45914689240E+03  0.00000000000E+00 0.  1.
<mgrwt>
<rscale>  3 0.49518439E+03</rscale>
<asrwt>0</asrwt>
<pdfrwt beam="1">  1        2 0.77599312E-02 0.49518439E+03</pdfrwt>
<pdfrwt beam="2">  1       -2 0.18697748E+00 0.49518439E+03</pdfrwt>
<totfact> 0.15359674E+02</totfact>
</mgrwt>
</event>
<event>
 4    0  0.1264838E-002  0.5379733E+03  0.7546771E-02  0.1004317E+00
         -4   -1    0    0    0  501 -0.00000000000E+00  0.00000000000E+00  0.18623902693E+03  0.18623902693E+03  0.00000000000E+00 0.  1.
          4   -1    0    0  502    0  0.00000000000E+00 -0.00000000000E+00 -0.38849975776E+03  0.38849975776E+03  0.00000000000E+00 0. -1.
         25    1    1    2    0    0  0.17513121099E+03 -0.15165046300E+03 -0.21906271439E+03  0.34246500088E+03  0.12500000000E+03 0.  0.
         21    1    1    2  502  501 -0.17513121099E+03  0.15165046300E+03  0.16801983558E+02  0.23227378380E+03  0.00000000000E+00 0.  1.
<mgrwt>
<rscale>  3 0.53797330E+03</rscale>
<asrwt>0</asrwt>
<pdfrwt beam="1">  1        4 0.59769193E-01 0.53797330E+03</pdfrwt>
<pdfrwt beam="2">  1       -4 0.28652158E-01 0.53797330E+03</pdfrwt>
<totfact> 0.60826570E+01</totfact>
</mgrwt>
</event>
<event>
 4    0  0.1264838E-002  0.5581803E+03  0.7546771E-02  0.9996181E-01
         -2   -1    0    0    0  501 -0.00000000000E+00  0.00000000000E+00  0.56145511947E+02  0.56145511947E+02  0.00000000000E+00 0. -1.
          2   -1    0    0  502    0  0.00000000000E+00 -0.00000000000E+00 -0.13873113842E+04  0.13873113842E+04  0.00000000000E+00 0.  1.
         25    1    1    2    0    0  0.25556744793E+03  0.32267458780E+02 -0.53707726284E+03  0.60863198700E+03  0.12500000000E+03 0.  0.
         21    1    1    2  502  501 -0.25556744793E+03 -0.32267458780E+02 -0.79408860942E+03  0.83482490915E+03  0.00000000000E+00 0.  1.
<mgrwt>
<rscale>  3 0.55818029E+03</rscale>
<asrwt>0</asrwt>
<pdfrwt beam="1">  1        2 0.21343252E+00 0.55818029E+03</pdfrwt>
<pdfrwt beam="2">  1       -2 0.86377711E-02 0.55818029E+03</pdfrwt>
<totfact> 0.13013201E+03</totfact>
</mgrwt>
</event>
<event>
 4    0  0.1264838E-002  0.5184045E+03  0.7546771E-02  0.1009084E+00
         -1   -1    0    0    0  501 -0.00000000000E+00  0.00000000000E+00  0.78445748317E+03  0.78445748317E+03  0.00000000000E+00 0. -1.
          1   -1    0    0  502    0  0.00000000000E+00 -0.00000000000E+00 -0.85646208570E+02  0.85646208570E+02  0.00000000000E+00 0.  1.
         25    1    1    2    0    0  0.23124225089E+03 -0.73782672993E+02  0.32583797665E+03  0.42510263285E+03  0.12500000000E+03 0.  0.
         21    1    1    2  502  501 -0.23124225089E+03  0.73782672993E+02  0.37297329795E+03  0.44500105889E+03  0.00000000000E+00 0.  1.
<mgrwt>
<rscale>  3 0.51840451E+03</rscale>
<asrwt>0</asrwt>
<pdfrwt beam="1">  1        1 0.13176340E-01 0.51840451E+03</pdfrwt>
<pdfrwt beam="2">  1       -1 0.12068576E+00 0.51840451E+03</pdfrwt>
<totfact> 0.28645133E+02</totfact>
</mgrwt>
</event>
<event>
 4    0  0.1264838E-002  0.4637463E+03  0.7546771E-02  0.1023700E+00
          2   -1    0    0  502    0  0.00000000000E+00  0.00000000000E+00  0.27910482352E+04  0.27910482352E+04  0.00000000000E+00 0. -1.
         -2   -1    0    0    0  501 -0.00000000000E+00 -0.00000000000E+00 -0.19263424522E+02  0.19263424522E+02  0.00000000000E+00 0.  1.
         25    1    1    2    0    0 -0.18881880200E+03  0.10284077734E+03  0.15033835517E+04  0.15238162189E+04  0.12500000000E+03 0.  0.
         21    1    1    2  502  501  0.18881880200E+03 -0.10284077734E+03  0.12684012590E+04  0.12864954408E+04  0.00000000000E+00 0. -1.
<mgrwt>
<rscale>  3 0.46374625E+03</rscale>
<asrwt>0</asrwt>
<pdfrwt beam="1">  1        2 0.42939172E+00 0.46374625E+03</pdfrwt>
<pdfrwt beam="2">  1       -2 0.29636060E-02 0.46374625E+03</pdfrwt>
<totfact> 0.11603752E+03</totfact>
</mgrwt>
</event>
<event>
 4    0  0.1264838E-002  0.4966295E+03  0.7546771E-02  0.1014662E+00
          3   -1    0    0  502    0  0.00000000000E+00  0.00000000000E+00  0.16855461542E+03  0.16855461542E+03  0.00000000000E+00 0. -1.
         -3   -1    0    0    0  501 -0.00000000000E+00 -0.00000000000E+00 -0.36581741511E+03  0.36581741511E+03  0.00000000000E+00 0.  1.
         25    1    1    2    0    0 -0.11170477385E+03 -0.20394949243E+03 -0.10990686685E+03  0.28596830479E+03  0.12500000000E+03 0.  0.
         21    1    1    2  502  501  0.11170477385E+03  0.20394949243E+03 -0.87355932835E+02  0.24840372575E+03  0.00000000000E+00 0. -1.
<mgrwt>
<rscale>  3 0.49662949E+03</rscale>
<asrwt>0</asrwt>
<pdfrwt beam="1">  1        3 0.25931480E-01 0.49662949E+03</pdfrwt>
<pdfrwt beam="2">  1       -3 0.56279602E-01 0.49662949E+03</pdfrwt>
<totfact> 0.11534274E+02</totfact>
</mgrwt>
</event>
<event>
 4    0  0.1264838E-002  0.5069810E+03  0.7546771E-02  0.1011973E+00
         -1   -1    0    0    0  501 -0.00000000000E+00  0.00000000000E+00  0.23127559798E+03  0.23127559798E+03  0.00000000000E+00 0.  1.
          1   -1    0    0  502    0  0.00000000000E+00 -0.00000000000E+00 -0.27783919718E+03  0.27783919718E+03  0.00000000000E+00 0. -1.
         25    1    1    2    0    0 -0.16623964318E+03 -0.14738502056E+03 -0.11064018752E+03  0.27789245104E+03  0.12500000000E+03 0.  0.
         21    1    1    2  502  501  0.16623964318E+03  0.14738502056E+03  0.64076588322E+02  0.23122234412E+03  0.00000000000E+00 0. -1.
<mgrwt>
<rscale>  3 0.50698097E+03</rscale>
<asrwt>0</asrwt>
<pdfrwt beam="1">  1        1 0.42744492E-01 0.50698097E+03</pdfrwt>
<pdfrwt beam="2">  1       -1 0.35580861E-01 0.50698097E+03</pdfrwt>
<totfact> 0.73496966E+02</totfact>
</mgrwt>
</event>
<event>
 4    0  0.1264838E-002  0.7026828E+03  0.7546771E-02  0.9712655E-01
         -2   -1    0    0    0  501 -0.00000000000E+00  0.00000000000E+00  0.95159021495E+02  0.95159021495E+02  0.00000000000E+00 0. -1.
          2   -1    0    0  502    0  0.00000000000E+00 -0.00000000000E+00 -0.12972051413E+04  0.12972051413E+04  0.00000000000E+00 0.  1.
         25    1    1    2    0    0  0.32257013137E+03  0.10616816386E+03 -0.57901448422E+03  0.68279275157E+03  0.12500000000E+03 0.  0.
         21    1    1    2  502  501 -0.32257013137E+03 -0.10616816386E+03 -0.62303163554E+03  0.70957141117E+03  0.00000000000E+00 0.  1.
<mgrwt>
<rscale>  3 0.70268278E+03</rscale>
<asrwt>0</asrwt>
<pdfrwt beam="1">  1        2 0.19957001E+00 0.70268278E+03</pdfrwt>
<pdfrwt beam="2">  1       -2 0.14639850E-01 0.70268278E+03</pdfrwt>
<totfact> 0.61237916E+02</totfact>
</mgrwt>
</event>
<event>
 4    0  0.1264838E-002  0.4935078E+03  0.7546771E-02  0.1015488E+00
         -1   -1    0    0    0  501 -0.00000000000E+00  0.00000000000E+00  0.62162821346E+03  0.62162821346E+03  0.00000000000E+00 0. -1.
          1   -1    0    0  502    0  0.00000000000E+00 -0.00000000000E+00 -0.97948390846E+02  0.97948390846E+02  0.00000000000E+00 0.  1.
         25    1    1    2    0    0 -0.18930580514E+03 -0.84417826709E+02  0.42706635642E+03  0.49089075171E+03  0.12500000000E+03 0.  0.
         21    1    1    2  502  501  0.18930580514E+03  0.84417826709E+02  0.96613466194E+02  0.22868585260E+03  0.00000000000E+00 0.  1.
<mgrwt>
<rscale>  3 0.49350778E+03</rscale>
<asrwt>0</asrwt>
<pdfrwt beam="1">  1        1 0.15068984E-01 0.49350778E+03</pdfrwt>
<pdfrwt beam="2">  1       -1 0.95635107E-01 0.49350778E+03</pdfrwt>
<totfact> 0.41082145E+02</totfact>
</mgrwt>
</event>
<event>
 4    0  0.1264838E-002  0.4845779E+03  0.7546771E-02  0.1017885E+00
         -2   -1    0    0    0  501 -0.00000000000E+00  0.00000000000E+00  0.10776691037E+04  0.10776691037E+04  0.00000000000E+00 0.  1.
          2   -1    0    0  502    0  0.00000000000E+00 -0.00000000000E+00 -0.54473069407E+02  0.54473069407E+02  0.00000000000E+00 0. -1.
         25    1    1    2    0    0  0.15083637267E+03  0.16643725752E+03  0.60738376157E+03  0.65953999563E+03  0.12500000000E+03 0.  0.
         21    1    1    2  502  501 -0.15083637267E+03 -0.16643725752E+03  0.41581227272E+03  0.47260217748E+03  0.00000000000E+00 0.  1.
<mgrwt>
<rscale>  3 0.48457794E+03</rscale>
<asrwt>0</asrwt>
<pdfrwt beam="1">  1        2 0.83804730E-02 0.48457794E+03</pdfrwt>
<pdfrwt beam="2">  1       -2 0.16579523E+00 0.48457794E+03</pdfrwt>
<totfact> 0.19449711E+02</totfact>
</mgrwt>
</event>
<event>
 4    0  0.1264838E-002  0.4483265E+03  0.7546771E-02  0.1028222E+00
          2   -1    0    0  502    0  0.00000000000E+00  0.00000000000E+00  0.94299399687E+03  0.94299399687E+03  0.00000000000E+00 0. -1.
         -2   -1    0    0    0  501 -0.00000000000E+00 -0.00000000000E+00 -0.53286839664E+02  0.53286839664E+02  0.00000000000E+00 0.  1.
         25    1    1    2    0    0  0.12346129250E+03  0.16352148462E+03  0.41823891444E+03  0.48221442972E+03  0.12500000000E+03 0.  0.
         21    1    1    2  502  501 -0.12346129250E+03 -0.16352148462E+03  0.47146824276E+03  0.51406640681E+03  0.00000000000E+00 0. -1.
<mgrwt>
<rscale>  3 0.44832653E+03</rscale>
<asrwt>0</asrwt>
<pdfrwt beam="1">  1        2 0.14507599E+00 0.44832653E+03</pdfrwt>
<pdfrwt beam="2">  1       -2 0.81979761E-02 0.44832653E+03</pdfrwt>
<totfact> 0.26013406E+03</totfact>
</mgrwt>
</event>
<event>
 4    0  0.1264838E-002  0.5073988E+03  0.7546771E-02  0.1011866E+00
          2   -1    0    0  502    0  0.00000000000E+00  0.00000000000E+00  0.82547874980E+03  0.82547874980E+03  0.00000000000E+00 0. -1.
         -2   -1    0    0    0  501 -0.00000000000E+00 -0.00000000000E+00 -0.77970986860E+02  0.77970986860E+02  0.00000000000E+00 0.  1.
         25    1    1    2    0    0  0.32614076752E+02 -0.22601545427E+03  0.51774101961E+03  0.57950619234E+03  0.12500000000E+03 0.  0.
         21    1    1    2  502  501 -0.32614076752E+02  0.22601545427E+03  0.22976674333E+03  0.32394354433E+03  0.00000000000E+00 0.  1.
<mgrwt>
<rscale>  3 0.50739883E+03</rscale>
<asrwt>0</asrwt>
<pdfrwt beam="1">  1        2 0.12699672E+00 0.50739883E+03</pdfrwt>
<pdfrwt beam="2">  1       -2 0.11995537E-01 0.50739883E+03</pdfrwt>
<totfact> 0.16872578E+03</totfact>
</mgrwt>
</event>
<event>
 4    0  0.1264838E-002  0.4679762E+03  0.7546771E-02  0.1022493E+00
          2   -1    0    0  502    0  0.00000000000E+00  0.00000000000E+00  0.15673924308E+04  0.15673924308E+04  0.00000000000E+00 0. -1.
         -2   -1    0    0    0  501 -0.00000000000E+00 -0.00000000000E+00 -0.34930899697E+02  0.34930899697E+02  0.00000000000E+00 0.  1.
         25    1    1    2    0    0 -0.18071945398E+03  0.98584562741E+02  0.58273920750E+03  0.63054612918E+03  0.12500000000E+03 0.  0.
         21    1    1    2  502  501  0.18071945398E+03 -0.98584562741E+02  0.94972232361E+03  0.97177720133E+03  0.00000000000E+00 0. -1.
<mgrwt>
<rscale>  3 0.46797619E+03</rscale>
<asrwt>0</asrwt>
<pdfrwt beam="1">  1        2 0.24113724E+00 0.46797619E+03</pdfrwt>
<pdfrwt beam="2">  1       -2 0.53739858E-02 0.46797619E+03</pdfrwt>
<totfact> 0.21910772E+03</totfact>
</mgrwt>
</event>
<event>
 4    0  0.1264838E-002  0.5755907E+03  0.7546771E-02  0.9957383E-01
          1   -1    0    0  502    0  0.00000000000E+00  0.00000000000E+00  0.17983725753E+04  0.17983725753E+04  0.00000000000E+00 0.  1.
         -1   -1    0    0    0  501 -0.00000000000E+00 -0.00000000000E+00 -0.46056174674E+02  0.46056174674E+02  0.00000000000E+00 0. -1.
         25    1    1    2    0    0  0.20989449637E+03 -0.15601730973E+03  0.11817373462E+04  0.12167683658E+04  0.12500000000E+03 0.  0.
         21    1    1    2  502  501 -0.20989449637E+03  0.15601730973E+03  0.57057905436E+03  0.62766038413E+03  0.00000000000E+00 0. -1.
<mgrwt>
<rscale>  3 0.57559069E+03</rscale>
<asrwt>0</asrwt>
<pdfrwt beam="1">  1        1 0.27667265E+00 0.57559069E+03</pdfrwt>
<pdfrwt beam="2">  1       -1 0.70855667E-02 0.57559069E+03</pdfrwt>
<totfact> 0.45882470E+02</totfact>
</mgrwt>
</event>
<event>
 4    0  0.1300105E-002  0.5422992E+03  0.7546771E-02  0.1003292E+00
          2   -1    0    0  502    0  0.00000000000E+00  0.00000000000E+00  0.34622332920E+03  0.34622332920E+03  0.00000000000E+00 0. -1.
         -2   -1    0    0    0  501 -0.00000000000E+00 -0.00000000000E+00 -0.21235456232E+03  0.21235456232E+03  0.00000000000E+00 0.  1.
         25    1    1    2    0    0  0.77774048937E+02  0.19527445059E+03 -0.81367100817E+02  0.25773342592E+03  0.12500000000E+03 0.  0.
         21    1    1    2  502  501 -0.77774048937E+02 -0.19527445059E+03  0.21523586769E+03  0.30084446560E+03  0.00000000000E+00 0. -1.
<mgrwt>
<rscale>  3 0.54229919E+03</rscale>
<asrwt>0</asrwt>
<pdfrwt beam="1">  1        2 0.53265128E-01 0.54229919E+03</pdfrwt>
<pdfrwt beam="2">  1       -2 0.32669933E-01 0.54229919E+03</pdfrwt>
<totfact> 0.82036090E+02</totfact>
</mgrwt>
</event>
<event>
 4    0  0.1264838E-002  0.4863631E+03  0.7546771E-02  0.1017401E+00
          2   -1    0    0  502    0  0.00000000000E+00  0.00000000000E+00  0.25099005852E+03  0.25099005852E+03  0.00000000000E+00 0.  1.
         -2   -1    0    0    0  501 -0.00000000000E+00 -0.00000000000E+00 -0.23561595605E+03  0.23561595605E+03  0.00000000000E+00 0. -1.
         25    1    1    2    0    0 -0.85278964883E+01 -0.22063629709E+03  0.61416167034E+02  0.26105563811E+03  0.12500000000E+03 0.  0.
         21    1    1    2  502  501  0.85278964883E+01  0.22063629709E+03 -0.46042064568E+02  0.22555037647E+03  0.00000000000E+00 0.  1.
<mgrwt>
<rscale>  3 0.48636308E+03</rscale>
<asrwt>0</asrwt>
<pdfrwt beam="1">  1        2 0.38613855E-01 0.48636308E+03</pdfrwt>
<pdfrwt beam="2">  1       -2 0.36248609E-01 0.48636308E+03</pdfrwt>
<totfact> 0.96109458E+02</totfact>
</mgrwt>
</event>
<event>
 4    0  0.1264838E-002  0.5958213E+03  0.7546771E-02  0.9914114E-01
          2   -1    0    0  502    0  0.00000000000E+00  0.00000000000E+00  0.46699736647E+03  0.46699736647E+03  0.00000000000E+00 0.  1.
         -2   -1    0    0    0  501 -0.00000000000E+00 -0.00000000000E+00 -0.19004549280E+03  0.19004549280E+03  0.00000000000E+00 0. -1.
         25    1    1    2    0    0 -0.18875841921E+03  0.21322499771E+03  0.14891689932E+03  0.34481282368E+03  0.12500000000E+03 0.  0.
         21    1    1    2  502  501  0.18875841921E+03 -0.21322499771E+03  0.12803497435E+03  0.31223003559E+03  0.00000000000E+00 0.  1.
<mgrwt>
<rscale>  3 0.59582126E+03</rscale>
<asrwt>0</asrwt>
<pdfrwt beam="1">  1        2 0.71845748E-01 0.59582126E+03</pdfrwt>
<pdfrwt beam="2">  1       -2 0.29237768E-01 0.59582126E+03</pdfrwt>
<totfact> 0.72062787E+02</totfact>
</mgrwt>
</event>
<event>
 4    0  0.1264838E-002  0.4550119E+03  0.7546771E-02  0.1026238E+00
         -2   -1    0    0    0  501 -0.00000000000E+00  0.00000000000E+00  0.19185542926E+03  0.19185542926E+03  0.00000000000E+00 0.  1.
          2   -1    0    0  502    0  0.00000000000E+00 -0.00000000000E+00 -0.26978106765E+03  0.26978106765E+03  0.00000000000E+00 0. -1.
         25    1    1    2    0    0  0.56091183980E+02  0.20255012256E+03 -0.33506726049E+02  0.24682073203E+03  0.12500000000E+03 0.  0.
         21    1    1    2  502  501 -0.56091183980E+02 -0.20255012256E+03 -0.44418912340E+02  0.21481576489E+03  0.00000000000E+00 0. -1.
<mgrwt>
<rscale>  3 0.45501192E+03</rscale>
<asrwt>0</asrwt>
<pdfrwt beam="1">  1        2 0.41504780E-01 0.45501192E+03</pdfrwt>
<pdfrwt beam="2">  1       -2 0.29516220E-01 0.45501192E+03</pdfrwt>
<totfact> 0.13022721E+03</totfact>
</mgrwt>
</event>
<event>
 4    0  0.1264838E-002  0.8416230E+03  0.7546771E-02  0.9501650E-01
         -3   -1    0    0    0  501 -0.00000000000E+00  0.00000000000E+00  0.24960812907E+03  0.24960812907E+03  0.00000000000E+00 0.  1.
          3   -1    0    0  502    0  0.00000000000E+00 -0.00000000000E+00 -0.70944138213E+03  0.70944138213E+03  0.00000000000E+00 0. -1.
         25    1    1    2    0    0  0.14337587047E+03 -0.21831269978E+03 -0.59738366994E+03  0.66385941601E+03  0.12500000000E+03 0.  0.
         21    1    1    2  502  501 -0.14337587047E+03  0.21831269978E+03  0.13755041688E+03  0.29519009519E+03  0.00000000000E+00 0.  1.
<mgrwt>
<rscale>  3 0.84162304E+03</rscale>
<asrwt>0</asrwt>
<pdfrwt beam="1">  1        3 0.10914483E+00 0.84162304E+03</pdfrwt>
<pdfrwt beam="2">  1       -3 0.38401251E-01 0.84162304E+03</pdfrwt>
<totfact> 0.12616865E+01</totfact>
</mgrwt>
</event>
<event>
 4    0  0.1264838E-002  0.5627622E+03  0.7546771E-02  0.9985824E-01
         -1   -1    0    0    0  501 -0.00000000000E+00  0.00000000000E+00  0.13532538020E+04  0.13532538020E+04  0.00000000000E+00 0.  1.
          1   -1    0    0  502    0  0.00000000000E+00 -0.00000000000E+00 -0.58507362722E+02  0.58507362722E+02  0.00000000000E+00 0. -1.
         25    1    1    2    0    0  0.21458998613E+03 -0.15319469635E+03  0.56606088980E+03  0.63684174494E+03  0.12500000000E+03 0.  0.
         21    1    1    2  502  501 -0.21458998613E+03  0.15319469635E+03  0.72868554950E+03  0.77491941981E+03  0.00000000000E+00 0.  1.
<mgrwt>
<rscale>  3 0.56276216E+03</rscale>
<asrwt>0</asrwt>
<pdfrwt beam="1">  1        1 0.90011338E-02 0.56276216E+03</pdfrwt>
<pdfrwt beam="2">  1       -1 0.20819287E+00 0.56276216E+03</pdfrwt>
<totfact> 0.10634402E+02</totfact>
</mgrwt>
</event>
<event>
 4    0  0.1264838E-002  0.5577296E+03  0.7546771E-02  0.9997205E-01
         -2   -1    0    0    0  501 -0.00000000000E+00  0.00000000000E+00  0.18598588806E+03  0.18598588806E+03  0.00000000000E+00 0. -1.
          2   -1    0    0  502    0  0.00000000000E+00 -0.00000000000E+00 -0.41812622977E+03  0.41812622977E+03  0.00000000000E+00 0.  1.
         25    1    1    2    0    0 -0.25476359324E+03  0.18025111996E+02 -0.19787572805E+03  0.34642343578E+03  0.12500000000E+03 0.  0.
         21    1    1    2  502  501  0.25476359324E+03 -0.18025111996E+02 -0.34264613659E+02  0.25768868204E+03  0.00000000000E+00 0.  1.
<mgrwt>
<rscale>  3 0.55772961E+03</rscale>
<asrwt>0</asrwt>
<pdfrwt beam="1">  1        2 0.64327112E-01 0.55772961E+03</pdfrwt>
<pdfrwt beam="2">  1       -2 0.28613214E-01 0.55772961E+03</pdfrwt>
<totfact> 0.84993658E+02</totfact>
</mgrwt>
</event>
<event>
 4    0  0.1264838E-002  0.6238736E+03  0.7546771E-02  0.9857077E-01
          3   -1    0    0  502    0  0.00000000000E+00  0.00000000000E+00  0.30647717058E+03  0.30647717058E+03  0.00000000000E+00 0. -1.
         -3   -1    0    0    0  501 -0.00000000000E+00 -0.00000000000E+00 -0.31749372175E+03  0.31749372175E+03  0.00000000000E+00 0.  1.
         25    1    1    2    0    0  0.35304563696E+02 -0.26948410673E+03 -0.13137062598E+03  0.32672823167E+03  0.12500000000E+03 0.  0.
         21    1    1    2  502  501 -0.35304563696E+02  0.26948410673E+03  0.12035407481E+03  0.29724266067E+03  0.00000000000E+00 0. -1.
<mgrwt>
<rscale>  3 0.62387363E+03</rscale>
<asrwt>0</asrwt>
<pdfrwt beam="1">  1        3 0.47150334E-01 0.62387363E+03</pdfrwt>
<pdfrwt beam="2">  1       -3 0.48845188E-01 0.62387363E+03</pdfrwt>
<totfact> 0.48933932E+01</totfact>
</mgrwt>
</event>
<event>
 4    0  0.1264838E-002  0.4785514E+03  0.7546771E-02  0.1019534E+00
          1   -1    0    0  502    0  0.00000000000E+00  0.00000000000E+00  0.43650739300E+02  0.43650739300E+02  0.00000000000E+00 0.  1.
         -1   -1    0    0    0  501 -0.00000000000E+00 -0.00000000000E+00 -0.13116125723E+04  0.13116125723E+04  0.00000000000E+00 0. -1.
         25    1    1    2    0    0  0.12239783240E+03 -0.17041566526E+03 -0.46372152491E+03  0.52410436080E+03  0.12500000000E+03 0.  0.
         21    1    1    2  502  501 -0.12239783240E+03  0.17041566526E+03 -0.80424030814E+03  0.83115895085E+03  0.00000000000E+00 0. -1.
<mgrwt>
<rscale>  3 0.47855139E+03</rscale>
<asrwt>0</asrwt>
<pdfrwt beam="1">  1        1 0.67154980E-02 0.47855139E+03</pdfrwt>
<pdfrwt beam="2">  1       -1 0.20178656E+00 0.47855139E+03</pdfrwt>
<totfact> 0.17731945E+02</totfact>
</mgrwt>
</event>
<event>
 4    0  0.1264838E-002  0.7293221E+03  0.7546771E-02  0.9668361E-01
         -2   -1    0    0    0  501 -0.00000000000E+00  0.00000000000E+00  0.30943086392E+03  0.30943086392E+03  0.00000000000E+00 0.  1.
          2   -1    0    0  502    0  0.00000000000E+00 -0.00000000000E+00 -0.42974921538E+03  0.42974921538E+03  0.00000000000E+00 0. -1.
         25    1    1    2    0    0 -0.89090092243E+02 -0.20990319601E+03 -0.33629474827E+03  0.42510652070E+03  0.12500000000E+03 0.  0.
         21    1    1    2  502  501  0.89090092243E+02  0.20990319601E+03  0.21597639681E+03  0.31407355860E+03  0.00000000000E+00 0.  1.
<mgrwt>
<rscale>  3 0.72932207E+03</rscale>
<asrwt>0</asrwt>
<pdfrwt beam="1">  1        2 0.66115264E-01 0.72932207E+03</pdfrwt>
<pdfrwt beam="2">  1       -2 0.47604749E-01 0.72932207E+03</pdfrwt>
<totfact> 0.30915285E+02</totfact>
</mgrwt>
</event>
<event>
 4    0  0.1264838E-002  0.5729984E+03  0.7546771E-02  0.9963066E-01
         -1   -1    0    0    0  501 -0.00000000000E+00  0.00000000000E+00  0.61465514156E+03  0.61465514156E+03  0.00000000000E+00 0.  1.
          1   -1    0    0  502    0  0.00000000000E+00 -0.00000000000E+00 -0.13354119542E+03  0.13354119542E+03  0.00000000000E+00 0. -1.
         25    1    1    2    0    0 -0.16812617659E+03  0.16267444103E+03  0.68613411411E+02  0.27397478943E+03  0.12500000000E+03 0.  0.
         21    1    1    2  502  501  0.16812617659E+03 -0.16267444103E+03  0.41250053473E+03  0.47422154756E+03  0.00000000000E+00 0.  1.
<mgrwt>
<rscale>  3 0.57299837E+03</rscale>
<asrwt>0</asrwt>
<pdfrwt beam="1">  1        1 0.20544800E-01 0.57299837E+03</pdfrwt>
<pdfrwt beam="2">  1       -1 0.94562328E-01 0.57299837E+03</pdfrwt>
<totfact> 0.27851513E+02</totfact>
</mgrwt>
</event>
<event>
 4    0  0.1264838E-002  0.6463528E+03  0.7546771E-02  0.9813647E-01
         -2   -1    0    0    0  501 -0.00000000000E+00  0.00000000000E+00  0.50968065280E+02  0.50968065280E+02  0.00000000000E+00 0. -1.
          2   -1    0    0  502    0  0.00000000000E+00 -0.00000000000E+00 -0.20491849619E+04  0.20491849619E+04  0.00000000000E+00 0.  1.
         25    1    1    2    0    0  0.20912577364E+03  0.22280693211E+03 -0.12259392854E+04  0.12696175210E+04  0.12500000000E+03 0.  0.
         21    1    1    2  502  501 -0.20912577364E+03 -0.22280693211E+03 -0.77227761118E+03  0.83053550612E+03  0.00000000000E+00 0. -1.
<mgrwt>
<rscale>  3 0.64635282E+03</rscale>
<asrwt>0</asrwt>
<pdfrwt beam="1">  1        2 0.31525924E+00 0.64635282E+03</pdfrwt>
<pdfrwt beam="2">  1       -2 0.78412404E-02 0.64635282E+03</pdfrwt>
<totfact> 0.65780322E+02</totfact>
</mgrwt>
</event>
<event>
 4    0  0.1264838E-002  0.1091353E+04  0.7546771E-02  0.9213661E-01
         -4   -1    0    0    0  501 -0.00000000000E+00  0.00000000000E+00  0.44396517669E+03  0.44396517669E+03  0.00000000000E+00 0. -1.
          4   -1    0    0  502    0  0.00000000000E+00 -0.00000000000E+00 -0.67069000535E+03  0.67069000535E+03  0.00000000000E+00 0.  1.
         25    1    1    2    0    0 -0.46529668617E+03 -0.18380224286E+03  0.88698039437E+02  0.52323667001E+03  0.12500000000E+03 0.  0.
         21    1    1    2  502  501  0.46529668617E+03  0.18380224286E+03 -0.31542286810E+03  0.59141851202E+03  0.00000000000E+00 0.  1.
<mgrwt>
<rscale>  3 0.10913533E+04</rscale>
<asrwt>0</asrwt>
<pdfrwt beam="1">  1        4 0.10318308E+00 0.10913533E+04</pdfrwt>
<pdfrwt beam="2">  1       -4 0.68302335E-01 0.10913533E+04</pdfrwt>
<totfact> 0.29937260E+00</totfact>
</mgrwt>
</event>
<event>
 4    0  0.1264838E-002  0.4559477E+03  0.7546771E-02  0.1025963E+00
          3   -1    0    0  502    0  0.00000000000E+00  0.00000000000E+00  0.13517728374E+04  0.13517728374E+04  0.00000000000E+00 0.  1.
         -3   -1    0    0    0  501 -0.00000000000E+00 -0.00000000000E+00 -0.38447342730E+02  0.38447342730E+02  0.00000000000E+00 0. -1.
         25    1    1    2    0    0  0.35279533900E+02 -0.20558517523E+03  0.79966280313E+03  0.83582026088E+03  0.12500000000E+03 0.  0.
         21    1    1    2  502  501 -0.35279533900E+02  0.20558517523E+03  0.51366269152E+03  0.55439991923E+03  0.00000000000E+00 0. -1.
<mgrwt>
<rscale>  3 0.45594769E+03</rscale>
<asrwt>0</asrwt>
<pdfrwt beam="1">  1        3 0.20796502E+00 0.45594769E+03</pdfrwt>
<pdfrwt beam="2">  1       -3 0.59149768E-02 0.45594769E+03</pdfrwt>
<totfact> 0.64215305E+01</totfact>
</mgrwt>
</event>
<event>
 4    0  0.1264838E-002  0.5133959E+03  0.7546771E-02  0.1010340E+00
          1   -1    0    0  502    0  0.00000000000E+00  0.00000000000E+00  0.14223160590E+03  0.14223160590E+03  0.00000000000E+00 0. -1.
         -1   -1    0    0    0  501 -0.00000000000E+00 -0.00000000000E+00 -0.46328554827E+03  0.46328554827E+03  0.00000000000E+00 0.  1.
         25    1    1    2    0    0 -0.12360470485E+03 -0.20609144657E+03 -0.19798124603E+03  0.33551956901E+03  0.12500000000E+03 0.  0.
         21    1    1    2  502  501  0.12360470485E+03  0.20609144657E+03 -0.12307269635E+03  0.26999758517E+03  0.00000000000E+00 0.  1.
<mgrwt>
<rscale>  3 0.51339594E+03</rscale>
<asrwt>0</asrwt>
<pdfrwt beam="1">  1        1 0.21881786E-01 0.51339594E+03</pdfrwt>
<pdfrwt beam="2">  1       -1 0.71274700E-01 0.51339594E+03</pdfrwt>
<totfact> 0.46874989E+02</totfact>
</mgrwt>
</event>
<event>
 4    0  0.1264838E-002  0.6572204E+03  0.7546771E-02  0.9793324E-01
          1   -1    0    0  502    0  0.00000000000E+00  0.00000000000E+00  0.63853472322E+03  0.63853472322E+03  0.00000000000E+00 0. -1.
         -1   -1    0    0    0  501 -0.00000000000E+00 -0.00000000000E+00 -0.16911320744E+03  0.16911320744E+03  0.00000000000E+00 0.  1.
         25    1    1    2    0    0 -0.21647026184E+03 -0.15932206964E+03  0.44909186893E+03  0.53809980754E+03  0.12500000000E+03 0.  0.
         21    1    1    2  502  501  0.21647026184E+03  0.15932206964E+03  0.20329646852E+02  0.26954812312E+03  0.00000000000E+00 0.  1.
<mgrwt>
<rscale>  3 0.65722037E+03</rscale>
<asrwt>0</asrwt>
<pdfrwt beam="1">  1        1 0.98236110E-01 0.65722037E+03</pdfrwt>
<pdfrwt beam="2">  1       -1 0.26017417E-01 0.65722037E+03</pdfrwt>
<totfact> 0.41339118E+02</totfact>
</mgrwt>
</event>
<event>
 4    0  0.1264838E-002  0.6229622E+03  0.7546771E-02  0.9858880E-01
          2   -1    0    0  502    0  0.00000000000E+00  0.00000000000E+00  0.53178933929E+03  0.53178933929E+03  0.00000000000E+00 0.  1.
         -2   -1    0    0    0  501 -0.00000000000E+00 -0.00000000000E+00 -0.18244156489E+03  0.18244156489E+03  0.00000000000E+00 0. -1.
         25    1    1    2    0    0 -0.95944354168E+02 -0.28287297426E+03  0.16800528719E+03  0.36479201634E+03  0.12500000000E+03 0.  0.
         21    1    1    2  502  501  0.95944354168E+02  0.28287297426E+03  0.18134248721E+03  0.34943888783E+03  0.00000000000E+00 0. -1.
<mgrwt>
<rscale>  3 0.62296221E+03</rscale>
<asrwt>0</asrwt>
<pdfrwt beam="1">  1        2 0.81813744E-01 0.62296221E+03</pdfrwt>
<pdfrwt beam="2">  1       -2 0.28067933E-01 0.62296221E+03</pdfrwt>
<totfact> 0.66829700E+02</totfact>
</mgrwt>
</event>
<event>
 4    0  0.1264838E-002  0.5571626E+03  0.7546771E-02  0.9998495E-01
         -1   -1    0    0    0  501 -0.00000000000E+00  0.00000000000E+00  0.23074959138E+03  0.23074959138E+03  0.00000000000E+00 0.  1.
          1   -1    0    0  502    0  0.00000000000E+00 -0.00000000000E+00 -0.33632798373E+03  0.33632798373E+03  0.00000000000E+00 0. -1.
         25    1    1    2    0    0 -0.70862018959E+02  0.21085952996E+03 -0.20120256800E+03  0.32494713490E+03  0.12500000000E+03 0.  0.
         21    1    1    2  502  501  0.70862018959E+02 -0.21085952996E+03  0.95624175657E+02  0.24213044021E+03  0.00000000000E+00 0.  1.
<mgrwt>
<rscale>  3 0.55716261E+03</rscale>
<asrwt>0</asrwt>
<pdfrwt beam="1">  1        1 0.51742766E-01 0.55716261E+03</pdfrwt>
<pdfrwt beam="2">  1       -1 0.35499937E-01 0.55716261E+03</pdfrwt>
<totfact> 0.57647993E+02</totfact>
</mgrwt>
</event>
<event>
 4    0  0.1264838E-002  0.7948931E+03  0.7546771E-02  0.9567439E-01
          2   -1    0    0  502    0  0.00000000000E+00  0.00000000000E+00  0.27302508362E+03  0.27302508362E+03  0.00000000000E+00 0.  1.
         -2   -1    0    0    0  501 -0.00000000000E+00 -0.00000000000E+00 -0.57856874063E+03  0.57856874063E+03  0.00000000000E+00 0. -1.
         25    1    1    2    0    0 -0.18842461903E+03  0.11277401014E+03  0.18564976476E+03  0.31354848043E+03  0.12500000000E+03 0.  0.
         21    1    1    2  502  501  0.18842461903E+03 -0.11277401014E+03 -0.49119342177E+03  0.53804534382E+03  0.00000000000E+00 0. -1.
<mgrwt>
<rscale>  3 0.79489315E+03</rscale>
<asrwt>0</asrwt>
<pdfrwt beam="1">  1        2 0.42003859E-01 0.79489315E+03</pdfrwt>
<pdfrwt beam="2">  1       -2 0.89010575E-01 0.79489315E+03</pdfrwt>
<totfact> 0.13321871E+02</totfact>
</mgrwt>
</event>
<event>
 4    0  0.1264838E-002  0.5000325E+03  0.7546771E-02  0.1013770E+00
          2   -1    0    0  502    0  0.00000000000E+00  0.00000000000E+00  0.37590820127E+02  0.37590820127E+02  0.00000000000E+00 0. -1.
         -2   -1    0    0    0  501 -0.00000000000E+00 -0.00000000000E+00 -0.16628563635E+04  0.16628563635E+04  0.00000000000E+00 0.  1.
         25    1    1    2    0    0 -0.14794309006E+03  0.15444625578E+03 -0.11895780125E+04  0.12150973836E+04  0.12500000000E+03 0.  0.
         21    1    1    2  502  501  0.14794309006E+03 -0.15444625578E+03 -0.43568753085E+03  0.48534980000E+03  0.00000000000E+00 0. -1.
<mgrwt>
<rscale>  3 0.50003254E+03</rscale>
<asrwt>0</asrwt>
<pdfrwt beam="1">  1        2 0.57832032E-02 0.50003254E+03</pdfrwt>
<pdfrwt beam="2">  1       -2 0.25582405E+00 0.50003254E+03</pdfrwt>
<totfact> 0.84322552E+01</totfact>
</mgrwt>
</event>
<event>
 4    0  0.1264838E-002  0.4648303E+03  0.7546771E-02  0.1023390E+00
          3   -1    0    0  502    0  0.00000000000E+00  0.00000000000E+00  0.17201758276E+03  0.17201758276E+03  0.00000000000E+00 0.  1.
         -3   -1    0    0    0  501 -0.00000000000E+00 -0.00000000000E+00 -0.31401906813E+03  0.31401906813E+03  0.00000000000E+00 0. -1.
         25    1    1    2    0    0 -0.18847303197E+03  0.88576827153E+02 -0.17740753274E+02  0.24353166615E+03  0.12500000000E+03 0.  0.
         21    1    1    2  502  501  0.18847303197E+03 -0.88576827153E+02 -0.12426073209E+03  0.24250498475E+03  0.00000000000E+00 0. -1.
<mgrwt>
<rscale>  3 0.46483030E+03</rscale>
<asrwt>0</asrwt>
<pdfrwt beam="1">  1        3 0.26464244E-01 0.46483030E+03</pdfrwt>
<pdfrwt beam="2">  1       -3 0.48310625E-01 0.46483030E+03</pdfrwt>
<totfact> 0.15145141E+02</totfact>
</mgrwt>
</event>
<event>
 4    0  0.1264838E-002  0.5282440E+03  0.7546771E-02  0.1006659E+00
         -2   -1    0    0    0  501 -0.00000000000E+00  0.00000000000E+00  0.28395815676E+02  0.28395815676E+02  0.00000000000E+00 0.  1.
          2   -1    0    0  502    0  0.00000000000E+00 -0.00000000000E+00 -0.24567155619E+04  0.24567155619E+04  0.00000000000E+00 0. -1.
         25    1    1    2    0    0 -0.20700840233E+03 -0.13787804093E+03 -0.12001431516E+04  0.12320030102E+04  0.12500000000E+03 0.  0.
         21    1    1    2  502  501  0.20700840233E+03  0.13787804093E+03 -0.12281765947E+04  0.12531083674E+04  0.00000000000E+00 0.  1.
<mgrwt>
<rscale>  3 0.52824404E+03</rscale>
<asrwt>0</asrwt>
<pdfrwt beam="1">  1        2 0.37795622E+00 0.52824404E+03</pdfrwt>
<pdfrwt beam="2">  1       -2 0.43685873E-02 0.52824404E+03</pdfrwt>
<totfact> 0.98968567E+02</totfact>
</mgrwt>
</event>
<event>
 4    0  0.1264838E-002  0.4404015E+03  0.7546771E-02  0.1030624E+00
         -2   -1    0    0    0  501 -0.00000000000E+00  0.00000000000E+00  0.22594897680E+03  0.22594897680E+03  0.00000000000E+00 0. -1.
          2   -1    0    0  502    0  0.00000000000E+00 -0.00000000000E+00 -0.21459876482E+03  0.21459876482E+03  0.00000000000E+00 0.  1.
         25    1    1    2    0    0  0.16085303799E+02 -0.20101613916E+03  0.24147600806E+02  0.23848339948E+03  0.12500000000E+03 0.  0.
         21    1    1    2  502  501 -0.16085303799E+02  0.20101613916E+03 -0.12797388831E+02  0.20206434214E+03  0.00000000000E+00 0.  1.
<mgrwt>
<rscale>  3 0.44040150E+03</rscale>
<asrwt>0</asrwt>
<pdfrwt beam="1">  1        2 0.33015195E-01 0.44040150E+03</pdfrwt>
<pdfrwt beam="2">  1       -2 0.34761381E-01 0.44040150E+03</pdfrwt>
<totfact> 0.12363590E+03</totfact>
</mgrwt>
</event>
<event>
 4    0  0.1432210E-002  0.6597535E+03  0.7546771E-02  0.9788648E-01
          1   -1    0    0  502    0  0.00000000000E+00  0.00000000000E+00  0.94985411849E+03  0.94985411849E+03  0.00000000000E+00 0.  1.
         -1   -1    0    0    0  501 -0.00000000000E+00 -0.00000000000E+00 -0.11456356485E+03  0.11456356485E+03  0.00000000000E+00 0. -1.
         25    1    1    2    0    0 -0.10317501521E+03 -0.21112675013E+03  0.86886391743E+02  0.27998898810E+03  0.12500000000E+03 0.  0.
         21    1    1    2  502  501  0.10317501521E+03  0.21112675013E+03  0.74840416190E+03  0.78442869525E+03  0.00000000000E+00 0.  1.
<mgrwt>
<rscale>  3 0.65975351E+03</rscale>
<asrwt>0</asrwt>
<pdfrwt beam="1">  1        1 0.14613140E+00 0.65975351E+03</pdfrwt>
<pdfrwt beam="2">  1       -1 0.17625164E-01 0.65975351E+03</pdfrwt>
<totfact> 0.42385846E+02</totfact>
</mgrwt>
</event>
<event>
 4    0  0.1264838E-002  0.4406614E+03  0.7546771E-02  0.1030544E+00
         -2   -1    0    0    0  501 -0.00000000000E+00  0.00000000000E+00  0.62817125097E+02  0.62817125097E+02  0.00000000000E+00 0.  1.
          2   -1    0    0  502    0  0.00000000000E+00 -0.00000000000E+00 -0.77280878783E+03  0.77280878783E+03  0.00000000000E+00 0. -1.
         25    1    1    2    0    0  0.16971998749E+03 -0.10877542008E+03 -0.42198030004E+03  0.48407575832E+03  0.12500000000E+03 0.  0.
         21    1    1    2  502  501 -0.16971998749E+03  0.10877542008E+03 -0.28801136269E+03  0.35155015461E+03  0.00000000000E+00 0.  1.
<mgrwt>
<rscale>  3 0.44066144E+03</rscale>
<asrwt>0</asrwt>
<pdfrwt beam="1">  1        2 0.11889366E+00 0.44066144E+03</pdfrwt>
<pdfrwt beam="2">  1       -2 0.96641734E-02 0.44066144E+03</pdfrwt>
<totfact> 0.26103948E+03</totfact>
</mgrwt>
</event>
<event>
 4    0  0.1465108E-002  0.6019473E+03  0.7546771E-02  0.9901374E-01
         -2   -1    0    0    0  501 -0.00000000000E+00  0.00000000000E+00  0.48130105736E+02  0.48130105736E+02  0.00000000000E+00 0.  1.
          2   -1    0    0  502    0  0.00000000000E+00 -0.00000000000E+00 -0.18820889601E+04  0.18820889601E+04  0.00000000000E+00 0. -1.
         25    1    1    2    0    0 -0.91013806033E+01 -0.22734968939E+03 -0.39038795972E+03  0.46882670091E+03  0.12500000000E+03 0.  0.
         21    1    1    2  502  501  0.91013806033E+01  0.22734968939E+03 -0.14435708946E+04  0.14613923649E+04  0.00000000000E+00 0. -1.
<mgrwt>
<rscale>  3 0.60194731E+03</rscale>
<asrwt>0</asrwt>
<pdfrwt beam="1">  1        2 0.28955217E+00 0.60194731E+03</pdfrwt>
<pdfrwt beam="2">  1       -2 0.74046312E-02 0.60194731E+03</pdfrwt>
<totfact> 0.89032559E+02</totfact>
</mgrwt>
</event>
<event>
 4    0  0.1264838E-002  0.6049743E+03  0.7546771E-02  0.9895139E-01
          2   -1    0    0  502    0  0.00000000000E+00  0.00000000000E+00  0.10022516608E+04  0.10022516608E+04  0.00000000000E+00 0.  1.
         -2   -1    0    0    0  501 -0.00000000000E+00 -0.00000000000E+00 -0.91292910875E+02  0.91292910875E+02  0.00000000000E+00 0. -1.
         25    1    1    2    0    0  0.16538365758E+03 -0.18412328948E+03  0.74666240381E+03  0.79648156614E+03  0.12500000000E+03 0.  0.
         21    1    1    2  502  501 -0.16538365758E+03  0.18412328948E+03  0.16429634615E+03  0.29706300557E+03  0.00000000000E+00 0. -1.
<mgrwt>
<rscale>  3 0.60497429E+03</rscale>
<asrwt>0</asrwt>
<pdfrwt beam="1">  1        2 0.15419256E+00 0.60497429E+03</pdfrwt>
<pdfrwt beam="2">  1       -2 0.14045064E-01 0.60497429E+03</pdfrwt>
<totfact> 0.99069115E+02</totfact>
</mgrwt>
</event>
<event>
 4    0  0.1264838E-002  0.5561086E+03  0.7546771E-02  0.1000090E+00
         -1   -1    0    0    0  501 -0.00000000000E+00  0.00000000000E+00  0.14366292660E+03  0.14366292660E+03  0.00000000000E+00 0. -1.
          1   -1    0    0  502    0  0.00000000000E+00 -0.00000000000E+00 -0.53816385458E+03  0.53816385458E+03  0.00000000000E+00 0.  1.
         25    1    1    2    0    0  0.13954678051E+03  0.22407504502E+03 -0.20229297092E+03  0.35528914398E+03  0.12500000000E+03 0.  0.
         21    1    1    2  502  501 -0.13954678051E+03 -0.22407504502E+03 -0.19220795706E+03  0.32653763720E+03  0.00000000000E+00 0. -1.
<mgrwt>
<rscale>  3 0.55610860E+03</rscale>
<asrwt>0</asrwt>
<pdfrwt beam="1">  1        1 0.82794438E-01 0.55610860E+03</pdfrwt>
<pdfrwt beam="2">  1       -1 0.22101989E-01 0.55610860E+03</pdfrwt>
<totfact> 0.69673252E+02</totfact>
</mgrwt>
</event>
<event>
 4    0  0.1328783E-002  0.5085557E+03  0.7546771E-02  0.1011570E+00
          2   -1    0    0  502    0  0.00000000000E+00  0.00000000000E+00  0.99218698075E+03  0.99218698075E+03  0.00000000000E+00 0.  1.
         -2   -1    0    0    0  501 -0.00000000000E+00 -0.00000000000E+00 -0.65166368051E+02  0.65166368051E+02  0.00000000000E+00 0. -1.
         25    1    1    2    0    0  0.12608022149E+03 -0.17043626818E+03  0.26246915789E+03  0.35980522871E+03  0.12500000000E+03 0.  0.
         21    1    1    2  502  501 -0.12608022149E+03  0.17043626818E+03  0.66455145481E+03  0.69754812010E+03  0.00000000000E+00 0.  1.
<mgrwt>
<rscale>  3 0.50855569E+03</rscale>
<asrwt>0</asrwt>
<pdfrwt beam="1">  1        2 0.15264414E+00 0.50855569E+03</pdfrwt>
<pdfrwt beam="2">  1       -2 0.10025596E-01 0.50855569E+03</pdfrwt>
<totfact> 0.17530408E+03</totfact>
</mgrwt>
</event>
<event>
 4    0  0.1264838E-002  0.5829498E+03  0.7546771E-02  0.9941425E-01
          2   -1    0    0  502    0  0.00000000000E+00  0.00000000000E+00  0.44713001594E+03  0.44713001594E+03  0.00000000000E+00 0.  1.
         -2   -1    0    0    0  501 -0.00000000000E+00 -0.00000000000E+00 -0.19000649806E+03  0.19000649806E+03  0.00000000000E+00 0. -1.
         25    1    1    2    0    0 -0.23884602839E+03 -0.27824051021E+02  0.28710758281E+03  0.39481307881E+03  0.12500000000E+03 0.  0.
         21    1    1    2  502  501  0.23884602839E+03  0.27824051021E+02 -0.29984064928E+02  0.24232343519E+03  0.00000000000E+00 0. -1.
<mgrwt>
<rscale>  3 0.58294977E+03</rscale>
<asrwt>0</asrwt>
<pdfrwt beam="1">  1        2 0.68789233E-01 0.58294977E+03</pdfrwt>
<pdfrwt beam="2">  1       -2 0.29231769E-01 0.58294977E+03</pdfrwt>
<totfact> 0.75753059E+02</totfact>
</mgrwt>
</event>
<event>
 4    0  0.1396631E-002  0.5436635E+03  0.7546771E-02  0.1002971E+00
         -1   -1    0    0    0  501 -0.00000000000E+00  0.00000000000E+00  0.72280682842E+02  0.72280682842E+02  0.00000000000E+00 0. -1.
          1   -1    0    0  502    0  0.00000000000E+00 -0.00000000000E+00 -0.10222996047E+04  0.10222996047E+04  0.00000000000E+00 0.  1.
         25    1    1    2    0    0  0.17959029864E+03  0.12804368941E+03 -0.23272729732E+03  0.34414365704E+03  0.12500000000E+03 0.  0.
         21    1    1    2  502  501 -0.17959029864E+03 -0.12804368941E+03 -0.71729162459E+03  0.75043663055E+03  0.00000000000E+00 0.  1.
<mgrwt>
<rscale>  3 0.54366355E+03</rscale>
<asrwt>0</asrwt>
<pdfrwt beam="1">  1        1 0.15727685E+00 0.54366355E+03</pdfrwt>
<pdfrwt beam="2">  1       -1 0.11120106E-01 0.54366355E+03</pdfrwt>
<totfact> 0.78665819E+02</totfact>
</mgrwt>
</event>
<event>
 4    0  0.1264838E-002  0.6514958E+03  0.7546771E-02  0.9803977E-01
          2   -1    0    0  502    0  0.00000000000E+00  0.00000000000E+00  0.70289944283E+03  0.70289944283E+03  0.00000000000E+00 0. -1.
         -2   -1    0    0    0  501 -0.00000000000E+00 -0.00000000000E+00 -0.15096281951E+03  0.15096281951E+03  0.00000000000E+00 0.  1.
         25    1    1    2    0    0 -0.14654085054E+03 -0.23572769889E+03  0.94395073712E+02  0.31871178021E+03  0.12500000000E+03 0.  0.
         21    1    1    2  502  501  0.14654085054E+03  0.23572769889E+03  0.45754154961E+03  0.53515048213E+03  0.00000000000E+00 0. -1.
<mgrwt>
<rscale>  3 0.65149576E+03</rscale>
<asrwt>0</asrwt>
<pdfrwt beam="1">  1        2 0.10813837E+00 0.65149576E+03</pdfrwt>
<pdfrwt beam="2">  1       -2 0.23225049E-01 0.65149576E+03</pdfrwt>
<totfact> 0.67092756E+02</totfact>
</mgrwt>
</event>
<event>
 4    0  0.1264838E-002  0.8928525E+03  0.7546771E-02  0.9434561E-01
          2   -1    0    0  502    0  0.00000000000E+00  0.00000000000E+00  0.33816241492E+03  0.33816241492E+03  0.00000000000E+00 0. -1.
         -2   -1    0    0    0  501 -0.00000000000E+00 -0.00000000000E+00 -0.58935111085E+03  0.58935111085E+03  0.00000000000E+00 0.  1.
         25    1    1    2    0    0 -0.14978093219E+03 -0.27610663009E+03  0.18855640642E+03  0.38710168849E+03  0.12500000000E+03 0.  0.
         21    1    1    2  502  501  0.14978093219E+03  0.27610663009E+03 -0.43974510235E+03  0.54041183728E+03  0.00000000000E+00 0.  1.
<mgrwt>
<rscale>  3 0.89285250E+03</rscale>
<asrwt>0</asrwt>
<pdfrwt beam="1">  1        2 0.52024988E-01 0.89285250E+03</pdfrwt>
<pdfrwt beam="2">  1       -2 0.90669400E-01 0.89285250E+03</pdfrwt>
<totfact> 0.10017033E+02</totfact>
</mgrwt>
</event>
<event>
 4    0  0.1264838E-002  0.7209868E+03  0.7546771E-02  0.9682000E-01
         -1   -1    0    0    0  501 -0.00000000000E+00  0.00000000000E+00  0.53079676459E+03  0.53079676459E+03  0.00000000000E+00 0. -1.
          1   -1    0    0  502    0  0.00000000000E+00 -0.00000000000E+00 -0.24483099188E+03  0.24483099188E+03  0.00000000000E+00 0.  1.
         25    1    1    2    0    0  0.32286235703E+03  0.12673510671E+03  0.19488988467E+03  0.41702392737E+03  0.12500000000E+03 0.  0.
         21    1    1    2  502  501 -0.32286235703E+03 -0.12673510671E+03  0.91075888048E+02  0.35860382909E+03  0.00000000000E+00 0.  1.
<mgrwt>
<rscale>  3 0.72098682E+03</rscale>
<asrwt>0</asrwt>
<pdfrwt beam="1">  1        1 0.37666307E-01 0.72098682E+03</pdfrwt>
<pdfrwt beam="2">  1       -1 0.81661040E-01 0.72098682E+03</pdfrwt>
<totfact> 0.17309234E+02</totfact>
</mgrwt>
</event>
<event>
 4    0  0.1264838E-002  0.4884189E+03  0.7546771E-02  0.1016847E+00
          1   -1    0    0  502    0  0.00000000000E+00  0.00000000000E+00  0.24121495630E+04  0.24121495630E+04  0.00000000000E+00 0.  1.
         -1   -1    0    0    0  501 -0.00000000000E+00 -0.00000000000E+00 -0.24724112895E+02  0.24724112895E+02  0.00000000000E+00 0. -1.
         25    1    1    2    0    0  0.21652950788E+03 -0.26921102092E+02  0.16055440736E+04  0.16251173944E+04  0.12500000000E+03 0.  0.
         21    1    1    2  502  501 -0.21652950788E+03  0.26921102092E+02  0.78188137656E+03  0.81175628148E+03  0.00000000000E+00 0.  1.
<mgrwt>
<rscale>  3 0.48841891E+03</rscale>
<asrwt>0</asrwt>
<pdfrwt beam="1">  1        1 0.37109975E+00 0.48841891E+03</pdfrwt>
<pdfrwt beam="2">  1       -1 0.38037116E-02 0.48841891E+03</pdfrwt>
<totfact> 0.46731322E+02</totfact>
</mgrwt>
</event>
<event>
 4    0  0.1264838E-002  0.4640239E+03  0.7546771E-02  0.1023621E+00
         -2   -1    0    0    0  501 -0.00000000000E+00  0.00000000000E+00  0.13758819963E+02  0.13758819963E+02  0.00000000000E+00 0. -1.
          2   -1    0    0  502    0  0.00000000000E+00 -0.00000000000E+00 -0.39123666817E+04  0.39123666817E+04  0.00000000000E+00 0.  1.
         25    1    1    2    0    0 -0.11196738361E+02 -0.20237449743E+03 -0.27020486751E+04  0.27125214924E+04  0.12500000000E+03 0.  0.
         21    1    1    2  502  501  0.11196738361E+02  0.20237449743E+03 -0.11965591867E+04  0.12136040093E+04  0.00000000000E+00 0. -1.
<mgrwt>
<rscale>  3 0.46402392E+03</rscale>
<asrwt>0</asrwt>
<pdfrwt beam="1">  1        2 0.60190289E+00 0.46402392E+03</pdfrwt>
<pdfrwt beam="2">  1       -2 0.21167404E-02 0.46402392E+03</pdfrwt>
<totfact> 0.35380699E+02</totfact>
</mgrwt>
</event>
<event>
 4    0  0.1264838E-002  0.6464210E+03  0.7546771E-02  0.9813518E-01
          2   -1    0    0  502    0  0.00000000000E+00  0.00000000000E+00  0.91447547350E+03  0.91447547350E+03  0.00000000000E+00 0.  1.
         -2   -1    0    0    0  501 -0.00000000000E+00 -0.00000000000E+00 -0.11423491892E+03  0.11423491892E+03  0.00000000000E+00 0. -1.
         25    1    1    2    0    0  0.21147977734E+03  0.21450234124E+03  0.29116101698E+03  0.43718953376E+03  0.12500000000E+03 0.  0.
         21    1    1    2  502  501 -0.21147977734E+03 -0.21450234124E+03  0.50907953761E+03  0.59152085866E+03  0.00000000000E+00 0.  1.
<mgrwt>
<rscale>  3 0.64642101E+03</rscale>
<asrwt>0</asrwt>
<pdfrwt beam="1">  1        2 0.14068853E+00 0.64642101E+03</pdfrwt>
<pdfrwt beam="2">  1       -2 0.17574603E-01 0.64642101E+03</pdfrwt>
<totfact> 0.77135916E+02</totfact>
</mgrwt>
</event>
<event>
 4    0  0.1264838E-002  0.4642234E+03  0.7546771E-02  0.1023563E+00
         -1   -1    0    0    0  501 -0.00000000000E+00  0.00000000000E+00  0.39869469620E+02  0.39869469620E+02  0.00000000000E+00 0.  1.
          1   -1    0    0  502    0  0.00000000000E+00 -0.00000000000E+00 -0.13513054371E+04  0.13513054371E+04  0.00000000000E+00 0. -1.
         25    1    1    2    0    0  0.86787739536E+02 -0.18459214474E+03 -0.90958577425E+03  0.94051988408E+03  0.12500000000E+03 0.  0.
         21    1    1    2  502  501 -0.86787739536E+02  0.18459214474E+03 -0.40185019325E+03  0.45065502266E+03  0.00000000000E+00 0. -1.
<mgrwt>
<rscale>  3 0.46422336E+03</rscale>
<asrwt>0</asrwt>
<pdfrwt beam="1">  1        1 0.20789313E+00 0.46422336E+03</pdfrwt>
<pdfrwt beam="2">  1       -1 0.61337650E-02 0.46422336E+03</pdfrwt>
<totfact> 0.11546162E+03</totfact>
</mgrwt>
</event>
<event>
 4    0  0.1264838E-002  0.6959628E+03  0.7546771E-02  0.9724161E-01
          2   -1    0    0  502    0  0.00000000000E+00  0.00000000000E+00  0.43360644382E+03  0.43360644382E+03  0.00000000000E+00 0.  1.
         -2   -1    0    0    0  501 -0.00000000000E+00 -0.00000000000E+00 -0.27926489534E+03  0.27926489534E+03  0.00000000000E+00 0. -1.
         25    1    1    2    0    0 -0.24493658911E+03  0.18296653452E+03  0.22427778622E+03  0.39924455015E+03  0.12500000000E+03 0.  0.
         21    1    1    2  502  501  0.24493658911E+03 -0.18296653452E+03 -0.69936237736E+02  0.31362678901E+03  0.00000000000E+00 0. -1.
<mgrwt>
<rscale>  3 0.69596281E+03</rscale>
<asrwt>0</asrwt>
<pdfrwt beam="1">  1        2 0.66708683E-01 0.69596281E+03</pdfrwt>
<pdfrwt beam="2">  1       -2 0.42963830E-01 0.69596281E+03</pdfrwt>
<totfact> 0.37584593E+02</totfact>
</mgrwt>
</event>
<event>
 4    0  0.1264838E-002  0.6610869E+03  0.7546771E-02  0.9786195E-01
          2   -1    0    0  502    0  0.00000000000E+00  0.00000000000E+00  0.22438119084E+04  0.22438119084E+04  0.00000000000E+00 0. -1.
         -2   -1    0    0    0  501 -0.00000000000E+00 -0.00000000000E+00 -0.48693459897E+02  0.48693459897E+02  0.00000000000E+00 0.  1.
         25    1    1    2    0    0  0.18188342139E+03  0.26171829681E+03  0.11269443037E+04  0.11777973126E+04  0.12500000000E+03 0.  0.
         21    1    1    2  502  501 -0.18188342139E+03 -0.26171829681E+03  0.10681741447E+04  0.11147080556E+04  0.00000000000E+00 0.  1.
<mgrwt>
<rscale>  3 0.66108688E+03</rscale>
<asrwt>0</asrwt>
<pdfrwt beam="1">  1        2 0.34520175E+00 0.66108688E+03</pdfrwt>
<pdfrwt beam="2">  1       -2 0.74913033E-02 0.66108688E+03</pdfrwt>
<totfact> 0.55298773E+02</totfact>
</mgrwt>
</event>
<event>
 4    0  0.1264838E-002  0.7438403E+03  0.7546771E-02  0.9645064E-01
         -2   -1    0    0    0  501 -0.00000000000E+00  0.00000000000E+00  0.33333957948E+03  0.33333957948E+03  0.00000000000E+00 0.  1.
          2   -1    0    0  502    0  0.00000000000E+00 -0.00000000000E+00 -0.41496604478E+03  0.41496604478E+03  0.00000000000E+00 0. -1.
         25    1    1    2    0    0 -0.12132169705E+03 -0.33965470655E+03 -0.18628588308E+02  0.38217312590E+03  0.12500000000E+03 0.  0.
         21    1    1    2  502  501  0.12132169705E+03  0.33965470655E+03 -0.62997876994E+02  0.36613249837E+03  0.00000000000E+00 0. -1.
<mgrwt>
<rscale>  3 0.74384032E+03</rscale>
<asrwt>0</asrwt>
<pdfrwt beam="1">  1        2 0.63840930E-01 0.74384032E+03</pdfrwt>
<pdfrwt beam="2">  1       -2 0.51283013E-01 0.74384032E+03</pdfrwt>
<totfact> 0.27642598E+02</totfact>
</mgrwt>
</event>
<event>
 4    0  0.1264838E-002  0.4473331E+03  0.7546771E-02  0.1028520E+00
         -2   -1    0    0    0  501 -0.00000000000E+00  0.00000000000E+00  0.20912569359E+02  0.20912569359E+02  0.00000000000E+00 0. -1.
          2   -1    0    0  502    0  0.00000000000E+00 -0.00000000000E+00 -0.23921846645E+04  0.23921846645E+04  0.00000000000E+00 0.  1.
         25    1    1    2    0    0 -0.20324013144E+03  0.34717841530E+02 -0.12635788172E+04  0.12863779798E+04  0.12500000000E+03 0.  0.
         21    1    1    2  502  501  0.20324013144E+03 -0.34717841530E+02 -0.11076932779E+04  0.11267192541E+04  0.00000000000E+00 0. -1.
<mgrwt>
<rscale>  3 0.44733311E+03</rscale>
<asrwt>0</asrwt>
<pdfrwt beam="1">  1        2 0.36802844E+00 0.44733311E+03</pdfrwt>
<pdfrwt beam="2">  1       -2 0.32173181E-02 0.44733311E+03</pdfrwt>
<totfact> 0.17245487E+03</totfact>
</mgrwt>
</event>
<event>
 4    0  0.1264838E-002  0.5680977E+03  0.7546771E-02  0.9973897E-01
          1   -1    0    0  502    0  0.00000000000E+00  0.00000000000E+00  0.60690410236E+03  0.60690410236E+03  0.00000000000E+00 0.  1.
         -1   -1    0    0    0  501 -0.00000000000E+00 -0.00000000000E+00 -0.13294314204E+03  0.13294314204E+03  0.00000000000E+00 0. -1.
         25    1    1    2    0    0  0.15333906270E+03 -0.19309480411E+03  0.39266449975E+03  0.48021753496E+03  0.12500000000E+03 0.  0.
         21    1    1    2  502  501 -0.15333906270E+03  0.19309480411E+03  0.81296460569E+02  0.25962970944E+03  0.00000000000E+00 0. -1.
<mgrwt>
<rscale>  3 0.56809766E+03</rscale>
<asrwt>0</asrwt>
<pdfrwt beam="1">  1        1 0.93369860E-01 0.56809766E+03</pdfrwt>
<pdfrwt beam="2">  1       -1 0.20452791E-01 0.56809766E+03</pdfrwt>
<totfact> 0.66923046E+02</totfact>
</mgrwt>
</event>
<event>
 4    0  0.1264838E-002  0.5370554E+03  0.7546771E-02  0.1004535E+00
          2   -1    0    0  502    0  0.00000000000E+00  0.00000000000E+00  0.30056804291E+03  0.30056804291E+03  0.00000000000E+00 0.  1.
         -2   -1    0    0    0  501 -0.00000000000E+00 -0.00000000000E+00 -0.23990283482E+03  0.23990283482E+03  0.00000000000E+00 0. -1.
         25    1    1    2    0    0  0.20668812561E+03 -0.12025049400E+03  0.11811264385E+03  0.29454330617E+03  0.12500000000E+03 0.  0.
         21    1    1    2  502  501 -0.20668812561E+03  0.12025049400E+03 -0.57447435760E+02  0.24592757155E+03  0.00000000000E+00 0. -1.
<mgrwt>
<rscale>  3 0.53705540E+03</rscale>
<asrwt>0</asrwt>
<pdfrwt beam="1">  1        2 0.46241237E-01 0.53705540E+03</pdfrwt>
<pdfrwt beam="2">  1       -2 0.36908128E-01 0.53705540E+03</pdfrwt>
<totfact> 0.76143509E+02</totfact>
</mgrwt>
</event>
<event>
 4    0  0.1264838E-002  0.4544464E+03  0.7546771E-02  0.1026404E+00
          2   -1    0    0  502    0  0.00000000000E+00  0.00000000000E+00  0.73467642334E+03  0.73467642334E+03  0.00000000000E+00 0.  1.
         -2   -1    0    0    0  501 -0.00000000000E+00 -0.00000000000E+00 -0.70276358997E+02  0.70276358997E+02  0.00000000000E+00 0. -1.
         25    1    1    2    0    0  0.19461012614E+03  0.73241535421E+02  0.40975875376E+03  0.47619813102E+03  0.12500000000E+03 0.  0.
         21    1    1    2  502  501 -0.19461012614E+03 -0.73241535421E+02  0.25464131058E+03  0.32875465131E+03  0.00000000000E+00 0.  1.
<mgrwt>
<rscale>  3 0.45444641E+03</rscale>
<asrwt>0</asrwt>
<pdfrwt beam="1">  1        2 0.11302714E+00 0.45444641E+03</pdfrwt>
<pdfrwt beam="2">  1       -2 0.10811748E-01 0.45444641E+03</pdfrwt>
<totfact> 0.23231389E+03</totfact>
</mgrwt>
</event>
<event>
 4    0  0.1504385E-002  0.6458537E+03  0.7546771E-02  0.9814591E-01
          3   -1    0    0  502    0  0.00000000000E+00  0.00000000000E+00  0.28830549143E+03  0.28830549143E+03  0.00000000000E+00 0.  1.
         -3   -1    0    0    0  501 -0.00000000000E+00 -0.00000000000E+00 -0.36170577976E+03  0.36170577976E+03  0.00000000000E+00 0. -1.
         25    1    1    2    0    0 -0.21198933705E+03 -0.27453705388E+02 -0.26518743584E+03  0.36282579992E+03  0.12500000000E+03 0.  0.
         21    1    1    2  502  501  0.21198933705E+03  0.27453705388E+02  0.19178714750E+03  0.28718547127E+03  0.00000000000E+00 0.  1.
<mgrwt>
<rscale>  3 0.64585374E+03</rscale>
<asrwt>0</asrwt>
<pdfrwt beam="1">  1        3 0.44354691E-01 0.64585374E+03</pdfrwt>
<pdfrwt beam="2">  1       -3 0.55647043E-01 0.64585374E+03</pdfrwt>
<totfact> 0.42338330E+01</totfact>
</mgrwt>
</event>
<event>
 4    0  0.1264838E-002  0.8015996E+03  0.7546771E-02  0.9557705E-01
         -2   -1    0    0    0  501 -0.00000000000E+00  0.00000000000E+00  0.18026694365E+03  0.18026694365E+03  0.00000000000E+00 0.  1.
          2   -1    0    0  502    0  0.00000000000E+00 -0.00000000000E+00 -0.89112553702E+03  0.89112553702E+03  0.00000000000E+00 0. -1.
         25    1    1    2    0    0  0.17047479696E+03 -0.35193848519E+03 -0.36511641465E+03  0.54941546211E+03  0.12500000000E+03 0.  0.
         21    1    1    2  502  501 -0.17047479696E+03  0.35193848519E+03 -0.34574217872E+03  0.52197701856E+03  0.00000000000E+00 0.  1.
<mgrwt>
<rscale>  3 0.80159959E+03</rscale>
<asrwt>0</asrwt>
<pdfrwt beam="1">  1        2 0.13709624E+00 0.80159959E+03</pdfrwt>
<pdfrwt beam="2">  1       -2 0.27733376E-01 0.80159959E+03</pdfrwt>
<totfact> 0.35415019E+02</totfact>
</mgrwt>
</event>
<event>
 4    0  0.1264838E-002  0.6805704E+03  0.7546771E-02  0.9751049E-01
          2   -1    0    0  502    0  0.00000000000E+00  0.00000000000E+00  0.16711222651E+04  0.16711222651E+04  0.00000000000E+00 0. -1.
         -2   -1    0    0    0  501 -0.00000000000E+00 -0.00000000000E+00 -0.69291160223E+02  0.69291160223E+02  0.00000000000E+00 0.  1.
         25    1    1    2    0    0 -0.22787641773E+03 -0.19724965718E+03  0.11640804340E+04  0.12089430697E+04  0.12500000000E+03 0.  0.
         21    1    1    2  502  501  0.22787641773E+03  0.19724965718E+03  0.43775067083E+03  0.53147035555E+03  0.00000000000E+00 0.  1.
<mgrwt>
<rscale>  3 0.68057035E+03</rscale>
<asrwt>0</asrwt>
<pdfrwt beam="1">  1        2 0.25709570E+00 0.68057035E+03</pdfrwt>
<pdfrwt beam="2">  1       -2 0.10660180E-01 0.68057035E+03</pdfrwt>
<totfact> 0.64177157E+02</totfact>
</mgrwt>
</event>
<event>
 4    0  0.1264838E-002  0.1095208E+04  0.7546771E-02  0.9209875E-01
         -2   -1    0    0    0  501 -0.00000000000E+00  0.00000000000E+00  0.25623549461E+03  0.25623549461E+03  0.00000000000E+00 0. -1.
          2   -1    0    0  502    0  0.00000000000E+00 -0.00000000000E+00 -0.11702918729E+04  0.11702918729E+04  0.00000000000E+00 0.  1.
         25    1    1    2    0    0 -0.53470351439E+03 -0.30485931254E+02 -0.55755066890E+03  0.78315068071E+03  0.12500000000E+03 0.  0.
         21    1    1    2  502  501  0.53470351439E+03  0.30485931254E+02 -0.35650570943E+03  0.64337668684E+03  0.00000000000E+00 0. -1.
<mgrwt>
<rscale>  3 0.10952083E+04</rscale>
<asrwt>0</asrwt>
<pdfrwt beam="1">  1        2 0.18004490E+00 0.10952083E+04</pdfrwt>
<pdfrwt beam="2">  1       -2 0.39420846E-01 0.10952083E+04</pdfrwt>
<totfact> 0.11918264E+02</totfact>
</mgrwt>
</event>
<event>
 4    0  0.1264838E-002  0.5223122E+03  0.7546771E-02  0.1008114E+00
          1   -1    0    0  502    0  0.00000000000E+00  0.00000000000E+00  0.13057170258E+04  0.13057170258E+04  0.00000000000E+00 0. -1.
         -1   -1    0    0    0  501 -0.00000000000E+00 -0.00000000000E+00 -0.52233761925E+02  0.52233761925E+02  0.00000000000E+00 0.  1.
         25    1    1    2    0    0  0.19269050508E+03  0.13451850187E+03  0.85349265053E+03  0.89403554884E+03  0.12500000000E+03 0.  0.
         21    1    1    2  502  501 -0.19269050508E+03 -0.13451850187E+03  0.39999061331E+03  0.46391523884E+03  0.00000000000E+00 0.  1.
<mgrwt>
<rscale>  3 0.52231221E+03</rscale>
<asrwt>0</asrwt>
<pdfrwt beam="1">  1        1 0.20087952E+00 0.52231221E+03</pdfrwt>
<pdfrwt beam="2">  1       -1 0.80359644E-02 0.52231221E+03</pdfrwt>
<totfact> 0.81631580E+02</totfact>
</mgrwt>
</event>
<event>
 4    0  0.1264838E-002  0.4731193E+03  0.7546771E-02  0.1021044E+00
         -2   -1    0    0    0  501 -0.00000000000E+00  0.00000000000E+00  0.36450836447E+02  0.36450836447E+02  0.00000000000E+00 0.  1.
          2   -1    0    0  502    0  0.00000000000E+00 -0.00000000000E+00 -0.15352311530E+04  0.15352311530E+04  0.00000000000E+00 0. -1.
         25    1    1    2    0    0 -0.77002120242E+02 -0.19631357039E+03 -0.59285821504E+03  0.64154049567E+03  0.12500000000E+03 0.  0.
         21    1    1    2  502  501  0.77002120242E+02  0.19631357039E+03 -0.90592210152E+03  0.93014149378E+03  0.00000000000E+00 0. -1.
<mgrwt>
<rscale>  3 0.47311926E+03</rscale>
<asrwt>0</asrwt>
<pdfrwt beam="1">  1        2 0.23618941E+00 0.47311926E+03</pdfrwt>
<pdfrwt beam="2">  1       -2 0.56078210E-02 0.47311926E+03</pdfrwt>
<totfact> 0.21351322E+03</totfact>
</mgrwt>
</event>
<event>
 4    0  0.1264838E-002  0.5009249E+03  0.7546771E-02  0.1013538E+00
          1   -1    0    0  502    0  0.00000000000E+00  0.00000000000E+00  0.29228099570E+03  0.29228099570E+03  0.00000000000E+00 0.  1.
         -1   -1    0    0    0  501 -0.00000000000E+00 -0.00000000000E+00 -0.21462711446E+03  0.21462711446E+03  0.00000000000E+00 0. -1.
         25    1    1    2    0    0 -0.20024640606E+03 -0.72783948981E+02 -0.58758993251E+02  0.25391680854E+03  0.12500000000E+03 0.  0.
         21    1    1    2  502  501  0.20024640606E+03  0.72783948981E+02  0.13641287449E+03  0.25299130162E+03  0.00000000000E+00 0.  1.
<mgrwt>
<rscale>  3 0.50092485E+03</rscale>
<asrwt>0</asrwt>
<pdfrwt beam="1">  1        1 0.44966307E-01 0.50092485E+03</pdfrwt>
<pdfrwt beam="2">  1       -1 0.33019556E-01 0.50092485E+03</pdfrwt>
<totfact> 0.78565066E+02</totfact>
</mgrwt>
</event>
<event>
 4    0  0.1264838E-002  0.5526444E+03  0.7546771E-02  0.1000884E+00
         -2   -1    0    0    0  501 -0.00000000000E+00  0.00000000000E+00  0.40358425331E+02  0.40358425331E+02  0.00000000000E+00 0.  1.
          2   -1    0    0  502    0  0.00000000000E+00 -0.00000000000E+00 -0.18918962254E+04  0.18918962254E+04  0.00000000000E+00 0. -1.
         25    1    1    2    0    0  0.22672570558E+03 -0.31607734088E+02 -0.52622718802E+03  0.58731903412E+03  0.12500000000E+03 0.  0.
         21    1    1    2  502  501 -0.22672570558E+03  0.31607734088E+02 -0.13253106121E+04  0.13449356166E+04  0.00000000000E+00 0. -1.
<mgrwt>
<rscale>  3 0.55264438E+03</rscale>
<asrwt>0</asrwt>
<pdfrwt beam="1">  1        2 0.29106089E+00 0.55264438E+03</pdfrwt>
<pdfrwt beam="2">  1       -2 0.62089900E-02 0.55264438E+03</pdfrwt>
<totfact> 0.11644571E+03</totfact>
</mgrwt>
</event>
<event>
 4    0  0.1264838E-002  0.5398080E+03  0.7546771E-02  0.1003881E+00
         -1   -1    0    0    0  501 -0.00000000000E+00  0.00000000000E+00  0.38219604195E+02  0.38219604195E+02  0.00000000000E+00 0. -1.
          1   -1    0    0  502    0  0.00000000000E+00 -0.00000000000E+00 -0.19060422896E+04  0.19060422896E+04  0.00000000000E+00 0.  1.
         25    1    1    2    0    0  0.22661857632E+03 -0.61035064845E+02 -0.13471052320E+04  0.13730982355E+04  0.12500000000E+03 0.  0.
         21    1    1    2  502  501 -0.22661857632E+03  0.61035064845E+02 -0.52071745348E+03  0.57116365836E+03  0.00000000000E+00 0. -1.
<mgrwt>
<rscale>  3 0.53980805E+03</rscale>
<asrwt>0</asrwt>
<pdfrwt beam="1">  1        1 0.29323727E+00 0.53980805E+03</pdfrwt>
<pdfrwt beam="2">  1       -1 0.58799393E-02 0.53980805E+03</pdfrwt>
<totfact> 0.52036714E+02</totfact>
</mgrwt>
</event>
<event>
 4    0  0.1264838E-002  0.5493127E+03  0.7546771E-02  0.1001653E+00
          1   -1    0    0  502    0  0.00000000000E+00  0.00000000000E+00  0.56965254279E+02  0.56965254279E+02  0.00000000000E+00 0. -1.
         -1   -1    0    0    0  501 -0.00000000000E+00 -0.00000000000E+00 -0.13242477290E+04  0.13242477290E+04  0.00000000000E+00 0.  1.
         25    1    1    2    0    0 -0.10081090813E+03 -0.18356331109E+03 -0.10557243378E+04  0.10835299746E+04  0.12500000000E+03 0.  0.
         21    1    1    2  502  501  0.10081090813E+03  0.18356331109E+03 -0.21155813695E+03  0.29768300873E+03  0.00000000000E+00 0. -1.
<mgrwt>
<rscale>  3 0.54931269E+03</rscale>
<asrwt>0</asrwt>
<pdfrwt beam="1">  1        1 0.87638841E-02 0.54931269E+03</pdfrwt>
<pdfrwt beam="2">  1       -1 0.20373045E+00 0.54931269E+03</pdfrwt>
<totfact> 0.11834414E+02</totfact>
</mgrwt>
</event>
<event>
 4    0  0.1264838E-002  0.9382324E+03  0.7546771E-02  0.9379012E-01
          2   -1    0    0  502    0  0.00000000000E+00  0.00000000000E+00  0.25793929803E+04  0.25793929803E+04  0.00000000000E+00 0.  1.
         -2   -1    0    0    0  501 -0.00000000000E+00 -0.00000000000E+00 -0.85318530369E+02  0.85318530369E+02  0.00000000000E+00 0. -1.
         25    1    1    2    0    0 -0.78635880180E+02  0.45394871207E+03  0.12447701742E+04  0.13331657141E+04  0.12500000000E+03 0.  0.
         21    1    1    2  502  501  0.78635880180E+02 -0.45394871207E+03  0.12493042758E+04  0.13315457965E+04  0.00000000000E+00 0.  1.
<mgrwt>
<rscale>  3 0.93823242E+03</rscale>
<asrwt>0</asrwt>
<pdfrwt beam="1">  1        2 0.39682963E+00 0.93823242E+03</pdfrwt>
<pdfrwt beam="2">  1       -2 0.13125930E-01 0.93823242E+03</pdfrwt>
<totfact> 0.14011316E+02</totfact>
</mgrwt>
</event>
<event>
 4    0  0.1264838E-002  0.5098528E+03  0.7546771E-02  0.1011239E+00
          2   -1    0    0  502    0  0.00000000000E+00  0.00000000000E+00  0.66362064669E+03  0.66362064669E+03  0.00000000000E+00 0. -1.
         -2   -1    0    0    0  501 -0.00000000000E+00 -0.00000000000E+00 -0.97928628305E+02  0.97928628305E+02  0.00000000000E+00 0.  1.
         25    1    1    2    0    0  0.21958011518E+03  0.95857459212E+02  0.29628866211E+03  0.40101876610E+03  0.12500000000E+03 0.  0.
         21    1    1    2  502  501 -0.21958011518E+03 -0.95857459212E+02  0.26940335628E+03  0.36053050890E+03  0.00000000000E+00 0.  1.
<mgrwt>
<rscale>  3 0.50985276E+03</rscale>
<asrwt>0</asrwt>
<pdfrwt beam="1">  1        2 0.10209548E+00 0.50985276E+03</pdfrwt>
<pdfrwt beam="2">  1       -2 0.15065943E-01 0.50985276E+03</pdfrwt>
<totfact> 0.15253630E+03</totfact>
</mgrwt>
</event>
<event>
 4    0  0.1264838E-002  0.4621888E+03  0.7546771E-02  0.1024148E+00
          2   -1    0    0  502    0  0.00000000000E+00  0.00000000000E+00  0.15060166338E+04  0.15060166338E+04  0.00000000000E+00 0. -1.
         -2   -1    0    0    0  501 -0.00000000000E+00 -0.00000000000E+00 -0.35460849378E+02  0.35460849378E+02  0.00000000000E+00 0.  1.
         25    1    1    2    0    0  0.20232429516E+03 -0.12944014278E+02  0.55859027393E+03  0.60724851754E+03  0.12500000000E+03 0.  0.
         21    1    1    2  502  501 -0.20232429516E+03  0.12944014278E+02  0.91196551045E+03  0.93422896560E+03  0.00000000000E+00 0.  1.
<mgrwt>
<rscale>  3 0.46218883E+03</rscale>
<asrwt>0</asrwt>
<pdfrwt beam="1">  1        2 0.23169482E+00 0.46218883E+03</pdfrwt>
<pdfrwt beam="2">  1       -2 0.54555165E-02 0.46218883E+03</pdfrwt>
<totfact> 0.23123188E+03</totfact>
</mgrwt>
</event>
<event>
 4    0  0.1264838E-002  0.5789402E+03  0.7546771E-02  0.9950088E-01
         -2   -1    0    0    0  501 -0.00000000000E+00  0.00000000000E+00  0.10489664481E+03  0.10489664481E+03  0.00000000000E+00 0. -1.
          2   -1    0    0  502    0  0.00000000000E+00 -0.00000000000E+00 -0.79881420980E+03  0.79881420980E+03  0.00000000000E+00 0.  1.
         25    1    1    2    0    0  0.21510769838E+03 -0.14292974455E+03 -0.51497604113E+03  0.58951298266E+03  0.12500000000E+03 0.  0.
         21    1    1    2  502  501 -0.21510769838E+03  0.14292974455E+03 -0.17894152385E+03  0.31419787195E+03  0.00000000000E+00 0. -1.
<mgrwt>
<rscale>  3 0.57894017E+03</rscale>
<asrwt>0</asrwt>
<pdfrwt beam="1">  1        2 0.12289449E+00 0.57894017E+03</pdfrwt>
<pdfrwt beam="2">  1       -2 0.16137946E-01 0.57894017E+03</pdfrwt>
<totfact> 0.10732051E+03</totfact>
</mgrwt>
</event>
<event>
 4    0  0.1264838E-002  0.1170560E+04  0.7546771E-02  0.9139023E-01
          1   -1    0    0  502    0  0.00000000000E+00  0.00000000000E+00  0.12554264839E+04  0.12554264839E+04  0.00000000000E+00 0. -1.
         -1   -1    0    0    0  501 -0.00000000000E+00 -0.00000000000E+00 -0.27285762570E+03  0.27285762570E+03  0.00000000000E+00 0.  1.
         25    1    1    2    0    0  0.48734645128E+03 -0.37541034085E+02  0.90113590202E+03  0.10327568962E+04  0.12500000000E+03 0.  0.
         21    1    1    2  502  501 -0.48734645128E+03  0.37541034085E+02  0.81432956159E+02  0.49552721334E+03  0.00000000000E+00 0.  1.
<mgrwt>
<rscale>  3 0.11705600E+04</rscale>
<asrwt>0</asrwt>
<pdfrwt beam="1">  1        1 0.19314253E+00 0.11705600E+04</pdfrwt>
<pdfrwt beam="2">  1       -1 0.41978097E-01 0.11705600E+04</pdfrwt>
<totfact> 0.53799666E+01</totfact>
</mgrwt>
</event>
<event>
 4    0  0.1264838E-002  0.5973570E+03  0.7546771E-02  0.9910905E-01
         -2   -1    0    0    0  501 -0.00000000000E+00  0.00000000000E+00  0.83432769460E+02  0.83432769460E+02  0.00000000000E+00 0.  1.
          2   -1    0    0  502    0  0.00000000000E+00 -0.00000000000E+00 -0.10692302953E+04  0.10692302953E+04  0.00000000000E+00 0. -1.
         25    1    1    2    0    0 -0.27363588648E+03 -0.64440212896E+02 -0.41726612186E+03  0.51842565124E+03  0.12500000000E+03 0.  0.
         21    1    1    2  502  501  0.27363588648E+03  0.64440212896E+02 -0.56853140403E+03  0.63423741357E+03  0.00000000000E+00 0. -1.
<mgrwt>
<rscale>  3 0.59735699E+03</rscale>
<asrwt>0</asrwt>
<pdfrwt beam="1">  1        2 0.16449698E+00 0.59735699E+03</pdfrwt>
<pdfrwt beam="2">  1       -2 0.12835810E-01 0.59735699E+03</pdfrwt>
<totfact> 0.10457389E+03</totfact>
</mgrwt>
</event>
<event>
 4    0  0.1264838E-002  0.5987488E+03  0.7546771E-02  0.9908005E-01
         -1   -1    0    0    0  501 -0.00000000000E+00  0.00000000000E+00  0.20758686240E+03  0.20758686240E+03  0.00000000000E+00 0.  1.
          1   -1    0    0  502    0  0.00000000000E+00 -0.00000000000E+00 -0.43174708046E+03  0.43174708046E+03  0.00000000000E+00 0. -1.
         25    1    1    2    0    0  0.21864736019E+03  0.17130394635E+03 -0.42747863964E+02  0.30757777883E+03  0.12500000000E+03 0.  0.
         21    1    1    2  502  501 -0.21864736019E+03 -0.17130394635E+03 -0.18141235410E+03  0.33175616403E+03  0.00000000000E+00 0.  1.
<mgrwt>
<rscale>  3 0.59874877E+03</rscale>
<asrwt>0</asrwt>
<pdfrwt beam="1">  1        1 0.66422626E-01 0.59874877E+03</pdfrwt>
<pdfrwt beam="2">  1       -1 0.31936441E-01 0.59874877E+03</pdfrwt>
<totfact> 0.50010341E+02</totfact>
</mgrwt>
</event>
<event>
 4    0  0.1264838E-002  0.4831073E+03  0.7546771E-02  0.1018285E+00
         -2   -1    0    0    0  501 -0.00000000000E+00  0.00000000000E+00  0.97018676743E+02  0.97018676743E+02  0.00000000000E+00 0. -1.
          2   -1    0    0  502    0  0.00000000000E+00 -0.00000000000E+00 -0.60141171456E+03  0.60141171456E+03  0.00000000000E+00 0.  1.
         25    1    1    2    0    0  0.22096718807E+03  0.63153201481E+01 -0.20555487456E+03  0.32671729052E+03  0.12500000000E+03 0.  0.
         21    1    1    2  502  501 -0.22096718807E+03 -0.63153201481E+01 -0.29883816327E+03  0.37171310079E+03  0.00000000000E+00 0. -1.
<mgrwt>
<rscale>  3 0.48310731E+03</rscale>
<asrwt>0</asrwt>
<pdfrwt beam="1">  1        2 0.92524880E-01 0.48310731E+03</pdfrwt>
<pdfrwt beam="2">  1       -2 0.14925950E-01 0.48310731E+03</pdfrwt>
<totfact> 0.17448434E+03</totfact>
</mgrwt>
</event>
<event>
 4    0  0.1264838E-002  0.4440680E+03  0.7546771E-02  0.1029506E+00
         -2   -1    0    0    0  501 -0.00000000000E+00  0.00000000000E+00  0.41261271938E+02  0.41261271938E+02  0.00000000000E+00 0.  1.
          2   -1    0    0  502    0  0.00000000000E+00 -0.00000000000E+00 -0.11948032711E+04  0.11948032711E+04  0.00000000000E+00 0. -1.
         25    1    1    2    0    0  0.20316368058E+03  0.65201403153E+01 -0.56160767366E+03  0.61020174734E+03  0.12500000000E+03 0.  0.
         21    1    1    2  502  501 -0.20316368058E+03 -0.65201403153E+01 -0.59193432550E+03  0.62586279570E+03  0.00000000000E+00 0. -1.
<mgrwt>
<rscale>  3 0.44406802E+03</rscale>
<asrwt>0</asrwt>
<pdfrwt beam="1">  1        2 0.18381586E+00 0.44406802E+03</pdfrwt>
<pdfrwt beam="2">  1       -2 0.63478891E-02 0.44406802E+03</pdfrwt>
<totfact> 0.27325026E+03</totfact>
</mgrwt>
</event>
<event>
 4    0  0.1264838E-002  0.4517960E+03  0.7546771E-02  0.1027188E+00
         -4   -1    0    0    0  501 -0.00000000000E+00  0.00000000000E+00  0.78950254534E+03  0.78950254534E+03  0.00000000000E+00 0. -1.
          4   -1    0    0  502    0  0.00000000000E+00 -0.00000000000E+00 -0.64635509271E+02  0.64635509271E+02  0.00000000000E+00 0.  1.
         25    1    1    2    0    0  0.19764501038E+03 -0.36583284885E+02  0.49568432567E+03  0.54929940613E+03  0.12500000000E+03 0.  0.
         21    1    1    2  502  501 -0.19764501038E+03  0.36583284885E+02  0.22918271040E+03  0.30483864848E+03  0.00000000000E+00 0. -1.
<mgrwt>
<rscale>  3 0.45179597E+03</rscale>
<asrwt>0</asrwt>
<pdfrwt beam="1">  1        4 0.99439250E-02 0.45179597E+03</pdfrwt>
<pdfrwt beam="2">  1       -4 0.12146192E+00 0.45179597E+03</pdfrwt>
<totfact> 0.79799652E+01</totfact>
</mgrwt>
</event>
<event>
 4    0  0.1264838E-002  0.5032997E+03  0.7546771E-02  0.1012921E+00
         -1   -1    0    0    0  501 -0.00000000000E+00  0.00000000000E+00  0.38994986788E+03  0.38994986788E+03  0.00000000000E+00 0.  1.
          1   -1    0    0  502    0  0.00000000000E+00 -0.00000000000E+00 -0.16239948811E+03  0.16239948811E+03  0.00000000000E+00 0. -1.
         25    1    1    2    0    0  0.13163691026E+03  0.18936683660E+03  0.17640763533E+03  0.31612138294E+03  0.12500000000E+03 0.  0.
         21    1    1    2  502  501 -0.13163691026E+03 -0.18936683660E+03  0.51142744440E+02  0.23622797306E+03  0.00000000000E+00 0. -1.
<mgrwt>
<rscale>  3 0.50329975E+03</rscale>
<asrwt>0</asrwt>
<pdfrwt beam="1">  1        1 0.24984537E-01 0.50329975E+03</pdfrwt>
<pdfrwt beam="2">  1       -1 0.59992287E-01 0.50329975E+03</pdfrwt>
<totfact> 0.55645298E+02</totfact>
</mgrwt>
</event>
<event>
 4    0  0.1264838E-002  0.1201495E+04  0.7546771E-02  0.9111549E-01
         -1   -1    0    0    0  501 -0.00000000000E+00  0.00000000000E+00  0.86237545394E+03  0.86237545394E+03  0.00000000000E+00 0. -1.
          1   -1    0    0  502    0  0.00000000000E+00 -0.00000000000E+00 -0.41849236674E+03  0.41849236674E+03  0.00000000000E+00 0.  1.
         25    1    1    2    0    0  0.55820481026E+03  0.10427218790E+03  0.41101731958E+03  0.71205725638E+03  0.12500000000E+03 0.  0.
         21    1    1    2  502  501 -0.55820481026E+03 -0.10427218790E+03  0.32865767620E+02  0.56881056429E+03  0.00000000000E+00 0.  1.
<mgrwt>
<rscale>  3 0.12014950E+04</rscale>
<asrwt>0</asrwt>
<pdfrwt beam="1">  1        1 0.64383441E-01 0.12014950E+04</pdfrwt>
<pdfrwt beam="2">  1       -1 0.13267315E+00 0.12014950E+04</pdfrwt>
<totfact> 0.26921952E+01</totfact>
</mgrwt>
</event>
<event>
 4    0  0.1264838E-002  0.5711309E+03  0.7546771E-02  0.9967179E-01
         -3   -1    0    0    0  501 -0.00000000000E+00  0.00000000000E+00  0.14893396844E+03  0.14893396844E+03  0.00000000000E+00 0.  1.
          3   -1    0    0  502    0  0.00000000000E+00 -0.00000000000E+00 -0.54754223061E+03  0.54754223061E+03  0.00000000000E+00 0. -1.
         25    1    1    2    0    0 -0.25110312705E+03 -0.15438917991E+02 -0.33458717282E+03  0.43688066657E+03  0.12500000000E+03 0.  0.
         21    1    1    2  502  501  0.25110312705E+03  0.15438917991E+02 -0.64021089341E+02  0.25959553248E+03  0.00000000000E+00 0.  1.
<mgrwt>
<rscale>  3 0.57113094E+03</rscale>
<asrwt>0</asrwt>
<pdfrwt beam="1">  1        3 0.84237266E-01 0.57113094E+03</pdfrwt>
<pdfrwt beam="2">  1       -3 0.22912918E-01 0.57113094E+03</pdfrwt>
<totfact> 0.60993544E+01</totfact>
</mgrwt>
</event>
<event>
 4    0  0.1264838E-002  0.5574299E+03  0.7546771E-02  0.9997887E-01
          2   -1    0    0  502    0  0.00000000000E+00  0.00000000000E+00  0.27574402812E+04  0.27574402812E+04  0.00000000000E+00 0.  1.
         -2   -1    0    0    0  501 -0.00000000000E+00 -0.00000000000E+00 -0.28171791319E+02  0.28171791319E+02  0.00000000000E+00 0. -1.
         25    1    1    2    0    0  0.39514540822E+02  0.20631294007E+03  0.22380984687E+04  0.22514076006E+04  0.12500000000E+03 0.  0.
         21    1    1    2  502  501 -0.39514540822E+02 -0.20631294007E+03  0.49117002120E+03  0.53420447200E+03  0.00000000000E+00 0. -1.
<mgrwt>
<rscale>  3 0.55742993E+03</rscale>
<asrwt>0</asrwt>
<pdfrwt beam="1">  1        2 0.42422137E+00 0.55742993E+03</pdfrwt>
<pdfrwt beam="2">  1       -2 0.43341239E-02 0.55742993E+03</pdfrwt>
<totfact> 0.67362138E+02</totfact>
</mgrwt>
</event>
<event>
 4    0  0.1264838E-002  0.1036249E+04  0.7546771E-02  0.9269657E-01
          2   -1    0    0  502    0  0.00000000000E+00  0.00000000000E+00  0.91162054948E+03  0.91162054948E+03  0.00000000000E+00 0.  1.
         -2   -1    0    0    0  501 -0.00000000000E+00 -0.00000000000E+00 -0.29447898620E+03  0.29447898620E+03  0.00000000000E+00 0. -1.
         25    1    1    2    0    0 -0.18005028639E+03  0.20872629905E+03  0.81328795561E+03  0.86778284858E+03  0.12500000000E+03 0.  0.
         21    1    1    2  502  501  0.18005028639E+03 -0.20872629905E+03 -0.19614639233E+03  0.33831668710E+03  0.00000000000E+00 0. -1.
<mgrwt>
<rscale>  3 0.10362492E+04</rscale>
<asrwt>0</asrwt>
<pdfrwt beam="1">  1        2 0.14024931E+00 0.10362492E+04</pdfrwt>
<pdfrwt beam="2">  1       -2 0.45304460E-01 0.10362492E+04</pdfrwt>
<totfact> 0.13252421E+02</totfact>
</mgrwt>
</event>
<event>
 4    0  0.1712789E-002  0.5392013E+03  0.7546771E-02  0.1004025E+00
         -1   -1    0    0    0  501 -0.00000000000E+00  0.00000000000E+00  0.35907562650E+02  0.35907562650E+02  0.00000000000E+00 0.  1.
          1   -1    0    0  502    0  0.00000000000E+00 -0.00000000000E+00 -0.20242120261E+04  0.20242120261E+04  0.00000000000E+00 0. -1.
         25    1    1    2    0    0 -0.10186113096E+03  0.17726644482E+03 -0.46459234269E+03  0.52275245322E+03  0.12500000000E+03 0.  0.
         21    1    1    2  502  501  0.10186113096E+03 -0.17726644482E+03 -0.15237121208E+04  0.15373671355E+04  0.00000000000E+00 0. -1.
<mgrwt>
<rscale>  3 0.53920134E+03</rscale>
<asrwt>0</asrwt>
<pdfrwt beam="1">  1        1 0.31141727E+00 0.53920134E+03</pdfrwt>
<pdfrwt beam="2">  1       -1 0.55242399E-02 0.53920134E+03</pdfrwt>
<totfact> 0.47818217E+02</totfact>
</mgrwt>
</event>
<event>
 4    0  0.1264838E-002  0.5439747E+03  0.7546771E-02  0.1002898E+00
          2   -1    0    0  502    0  0.00000000000E+00  0.00000000000E+00  0.55308801174E+03  0.55308801174E+03  0.00000000000E+00 0. -1.
         -2   -1    0    0    0  501 -0.00000000000E+00 -0.00000000000E+00 -0.13375288788E+03  0.13375288788E+03  0.00000000000E+00 0.  1.
         25    1    1    2    0    0  0.23924046507E+03 -0.86133099531E+02  0.27304244898E+03  0.39348708989E+03  0.12500000000E+03 0.  0.
         21    1    1    2  502  501 -0.23924046507E+03  0.86133099531E+02  0.14629267488E+03  0.29335380974E+03  0.00000000000E+00 0. -1.
<mgrwt>
<rscale>  3 0.54397470E+03</rscale>
<asrwt>0</asrwt>
<pdfrwt beam="1">  1        2 0.85090462E-01 0.54397470E+03</pdfrwt>
<pdfrwt beam="2">  1       -2 0.20577368E-01 0.54397470E+03</pdfrwt>
<totfact> 0.11125702E+03</totfact>
</mgrwt>
</event>
<event>
 4    0  0.1264838E-002  0.4844618E+03  0.7546771E-02  0.1017916E+00
         -2   -1    0    0    0  501 -0.00000000000E+00  0.00000000000E+00  0.13109704232E+03  0.13109704232E+03  0.00000000000E+00 0.  1.
          2   -1    0    0  502    0  0.00000000000E+00 -0.00000000000E+00 -0.44757529259E+03  0.44757529259E+03  0.00000000000E+00 0. -1.
         25    1    1    2    0    0  0.39443151838E+02 -0.19851736448E+03 -0.28916264908E+03  0.37443950626E+03  0.12500000000E+03 0.  0.
         21    1    1    2  502  501 -0.39443151838E+02  0.19851736448E+03 -0.27315601190E+02  0.20423282864E+03  0.00000000000E+00 0.  1.
<mgrwt>
<rscale>  3 0.48446175E+03</rscale>
<asrwt>0</asrwt>
<pdfrwt beam="1">  1        2 0.68857738E-01 0.48446175E+03</pdfrwt>
<pdfrwt beam="2">  1       -2 0.20168776E-01 0.48446175E+03</pdfrwt>
<totfact> 0.14687520E+03</totfact>
</mgrwt>
</event>
<event>
 4    0  0.1264838E-002  0.5873207E+03  0.7546771E-02  0.9932066E-01
          1   -1    0    0  502    0  0.00000000000E+00  0.00000000000E+00  0.74213993981E+03  0.74213993981E+03  0.00000000000E+00 0. -1.
         -1   -1    0    0    0  501 -0.00000000000E+00 -0.00000000000E+00 -0.11619965785E+03  0.11619965785E+03  0.00000000000E+00 0.  1.
         25    1    1    2    0    0 -0.11511046627E+03 -0.21742163466E+03  0.13064692552E+03  0.30531329124E+03  0.12500000000E+03 0.  0.
         21    1    1    2  502  501  0.11511046627E+03  0.21742163466E+03  0.49529335644E+03  0.55302630642E+03  0.00000000000E+00 0. -1.
<mgrwt>
<rscale>  3 0.58732072E+03</rscale>
<asrwt>0</asrwt>
<pdfrwt beam="1">  1        1 0.11417537E+00 0.58732072E+03</pdfrwt>
<pdfrwt beam="2">  1       -1 0.17876871E-01 0.58732072E+03</pdfrwt>
<totfact> 0.62024492E+02</totfact>
</mgrwt>
</event>
<event>
 4    0  0.1264838E-002  0.5026479E+03  0.7546771E-02  0.1013090E+00
         -3   -1    0    0    0  501 -0.00000000000E+00  0.00000000000E+00  0.63295864392E+03  0.63295864392E+03  0.00000000000E+00 0. -1.
          3   -1    0    0  502    0  0.00000000000E+00 -0.00000000000E+00 -0.99791220907E+02  0.99791220907E+02  0.00000000000E+00 0.  1.
         25    1    1    2    0    0 -0.15504174763E+03  0.17314602024E+03  0.22521070681E+03  0.34693277489E+03  0.12500000000E+03 0.  0.
         21    1    1    2  502  501  0.15504174763E+03 -0.17314602024E+03  0.30795671621E+03  0.38581708994E+03  0.00000000000E+00 0. -1.
<mgrwt>
<rscale>  3 0.50264785E+03</rscale>
<asrwt>0</asrwt>
<pdfrwt beam="1">  1        3 0.15352496E-01 0.50264785E+03</pdfrwt>
<pdfrwt beam="2">  1       -3 0.97378250E-01 0.50264785E+03</pdfrwt>
<totfact> 0.89226170E+01</totfact>
</mgrwt>
</event>
<event>
 4    0  0.1264838E-002  0.5594756E+03  0.7546771E-02  0.9993242E-01
         -2   -1    0    0    0  501 -0.00000000000E+00  0.00000000000E+00  0.33575228153E+03  0.33575228153E+03  0.00000000000E+00 0. -1.
          2   -1    0    0  502    0  0.00000000000E+00 -0.00000000000E+00 -0.23306834857E+03  0.23306834857E+03  0.00000000000E+00 0.  1.
         25    1    1    2    0    0 -0.22305206195E+03  0.19167163216E+02  0.19953183055E+03  0.32489622018E+03  0.12500000000E+03 0.  0.
         21    1    1    2  502  501  0.22305206195E+03 -0.19167163216E+02 -0.96847897588E+02  0.24392440992E+03  0.00000000000E+00 0.  1.
<mgrwt>
<rscale>  3 0.55947558E+03</rscale>
<asrwt>0</asrwt>
<pdfrwt beam="1">  1        2 0.35856669E-01 0.55947558E+03</pdfrwt>
<pdfrwt beam="2">  1       -2 0.51654197E-01 0.55947558E+03</pdfrwt>
<totfact> 0.51952197E+02</totfact>
</mgrwt>
</event>
<event>
 4    0  0.1264838E-002  0.4581139E+03  0.7546771E-02  0.1025330E+00
         -4   -1    0    0    0  501 -0.00000000000E+00  0.00000000000E+00  0.10127510257E+03  0.10127510257E+03  0.00000000000E+00 0.  1.
          4   -1    0    0  502    0  0.00000000000E+00 -0.00000000000E+00 -0.51806511537E+03  0.51806511537E+03  0.00000000000E+00 0. -1.
         25    1    1    2    0    0  0.17159247459E+03 -0.12377518107E+03 -0.20571431350E+03  0.32048034505E+03  0.12500000000E+03 0.  0.
         21    1    1    2  502  501 -0.17159247459E+03  0.12377518107E+03 -0.21107569930E+03  0.29885987288E+03  0.00000000000E+00 0. -1.
<mgrwt>
<rscale>  3 0.45811395E+03</rscale>
<asrwt>0</asrwt>
<pdfrwt beam="1">  1        4 0.79702326E-01 0.45811395E+03</pdfrwt>
<pdfrwt beam="2">  1       -4 0.15580785E-01 0.45811395E+03</pdfrwt>
<totfact> 0.98427893E+01</totfact>
</mgrwt>
</event>
<event>
 4    0  0.1264838E-002  0.4761036E+03  0.7546771E-02  0.1020212E+00
         -1   -1    0    0    0  501 -0.00000000000E+00  0.00000000000E+00  0.73618052025E+02  0.73618052025E+02  0.00000000000E+00 0.  1.
          1   -1    0    0  502    0  0.00000000000E+00 -0.00000000000E+00 -0.76976573157E+03  0.76976573157E+03  0.00000000000E+00 0. -1.
         25    1    1    2    0    0 -0.21383448413E+03  0.17867243264E+02 -0.27374089695E+03  0.36959911208E+03  0.12500000000E+03 0.  0.
         21    1    1    2  502  501  0.21383448413E+03 -0.17867243264E+02 -0.42240678260E+03  0.47378467152E+03  0.00000000000E+00 0. -1.
<mgrwt>
<rscale>  3 0.47610358E+03</rscale>
<asrwt>0</asrwt>
<pdfrwt beam="1">  1        1 0.11842550E+00 0.47610358E+03</pdfrwt>
<pdfrwt beam="2">  1       -1 0.11325854E-01 0.47610358E+03</pdfrwt>
<totfact> 0.12258870E+03</totfact>
</mgrwt>
</event>
<event>
 4    0  0.1264838E-002  0.5189725E+03  0.7546771E-02  0.1008942E+00
         -2   -1    0    0    0  501 -0.00000000000E+00  0.00000000000E+00  0.73157486379E+02  0.73157486379E+02  0.00000000000E+00 0.  1.
          2   -1    0    0  502    0  0.00000000000E+00 -0.00000000000E+00 -0.92038567625E+03  0.92038567625E+03  0.00000000000E+00 0. -1.
         25    1    1    2    0    0 -0.21833506928E+03 -0.12196698583E+02 -0.65727843857E+03  0.70388841995E+03  0.12500000000E+03 0.  0.
         21    1    1    2  502  501  0.21833506928E+03  0.12196698583E+02 -0.18994975130E+03  0.28965474267E+03  0.00000000000E+00 0.  1.
<mgrwt>
<rscale>  3 0.51897246E+03</rscale>
<asrwt>0</asrwt>
<pdfrwt beam="1">  1        2 0.14159780E+00 0.51897246E+03</pdfrwt>
<pdfrwt beam="2">  1       -2 0.11254998E-01 0.51897246E+03</pdfrwt>
<totfact> 0.16156192E+03</totfact>
</mgrwt>
</event>
<event>
 4    0  0.1264838E-002  0.4924946E+03  0.7546771E-02  0.1015757E+00
         -2   -1    0    0    0  501 -0.00000000000E+00  0.00000000000E+00  0.34003627054E+02  0.34003627054E+02  0.00000000000E+00 0. -1.
          2   -1    0    0  502    0  0.00000000000E+00 -0.00000000000E+00 -0.17832721421E+04  0.17832721421E+04  0.00000000000E+00 0.  1.
         25    1    1    2    0    0  0.21015822557E+03  0.55051564079E+02 -0.12139195741E+04  0.12395252667E+04  0.12500000000E+03 0.  0.
         21    1    1    2  502  501 -0.21015822557E+03 -0.55051564079E+02 -0.53534894102E+03  0.57775050250E+03  0.00000000000E+00 0. -1.
<mgrwt>
<rscale>  3 0.49249455E+03</rscale>
<asrwt>0</asrwt>
<pdfrwt beam="1">  1        2 0.27434957E+00 0.49249455E+03</pdfrwt>
<pdfrwt beam="2">  1       -2 0.52313271E-02 0.49249455E+03</pdfrwt>
<totfact> 0.17450893E+03</totfact>
</mgrwt>
</event>
<event>
 4    0  0.1264838E-002  0.1492230E+04  0.7546771E-02  0.8889637E-01
          2   -1    0    0  502    0  0.00000000000E+00  0.00000000000E+00  0.69534775769E+03  0.69534775769E+03  0.00000000000E+00 0. -1.
         -2   -1    0    0    0  501 -0.00000000000E+00 -0.00000000000E+00 -0.80058844566E+03  0.80058844566E+03  0.00000000000E+00 0.  1.
         25    1    1    2    0    0  0.45018449679E+03  0.58270414139E+03  0.29018827599E+02  0.74744718201E+03  0.12500000000E+03 0.  0.
         21    1    1    2  502  501 -0.45018449679E+03 -0.58270414139E+03 -0.13425951558E+03  0.74848902134E+03  0.00000000000E+00 0. -1.
<mgrwt>
<rscale>  3 0.14922297E+04</rscale>
<asrwt>0</asrwt>
<pdfrwt beam="1">  1        2 0.10697658E+00 0.14922297E+04</pdfrwt>
<pdfrwt beam="2">  1       -2 0.12316745E+00 0.14922297E+04</pdfrwt>
<totfact> 0.19872835E+01</totfact>
</mgrwt>
</event>
<event>
 4    0  0.1264838E-002  0.5841935E+03  0.7546771E-02  0.9938753E-01
          2   -1    0    0  502    0  0.00000000000E+00  0.00000000000E+00  0.11106517427E+04  0.11106517427E+04  0.00000000000E+00 0. -1.
         -2   -1    0    0    0  501 -0.00000000000E+00 -0.00000000000E+00 -0.76820231314E+02  0.76820231314E+02  0.00000000000E+00 0.  1.
         25    1    1    2    0    0 -0.15154896668E+03 -0.17439395364E+03  0.22367759636E+03  0.34501740171E+03  0.12500000000E+03 0.  0.
         21    1    1    2  502  501  0.15154896668E+03  0.17439395364E+03  0.81015391507E+03  0.84245457235E+03  0.00000000000E+00 0. -1.
<mgrwt>
<rscale>  3 0.58419354E+03</rscale>
<asrwt>0</asrwt>
<pdfrwt beam="1">  1        2 0.17086949E+00 0.58419354E+03</pdfrwt>
<pdfrwt beam="2">  1       -2 0.11818498E-01 0.58419354E+03</pdfrwt>
<totfact> 0.11312307E+03</totfact>
</mgrwt>
</event>
<event>
 4    0  0.1264838E-002  0.6328144E+03  0.7546771E-02  0.9839572E-01
          2   -1    0    0  502    0  0.00000000000E+00  0.00000000000E+00  0.12696608678E+04  0.12696608678E+04  0.00000000000E+00 0. -1.
         -2   -1    0    0    0  501 -0.00000000000E+00 -0.00000000000E+00 -0.78850595629E+02  0.78850595629E+02  0.00000000000E+00 0.  1.
         25    1    1    2    0    0  0.17289923041E+03  0.18570750933E+03  0.97567525968E+03  0.10158487266E+04  0.12500000000E+03 0.  0.
         21    1    1    2  502  501 -0.17289923041E+03 -0.18570750933E+03  0.21513501248E+03  0.33266273686E+03  0.00000000000E+00 0.  1.
<mgrwt>
<rscale>  3 0.63281440E+03</rscale>
<asrwt>0</asrwt>
<pdfrwt beam="1">  1        2 0.19533243E+00 0.63281440E+03</pdfrwt>
<pdfrwt beam="2">  1       -2 0.12130862E-01 0.63281440E+03</pdfrwt>
<totfact> 0.87172847E+02</totfact>
</mgrwt>
</event>
<event>
 4    0  0.1264838E-002  0.5955376E+03  0.7546771E-02  0.9914708E-01
         -2   -1    0    0    0  501 -0.00000000000E+00  0.00000000000E+00  0.85630467284E+02  0.85630467284E+02  0.00000000000E+00 0.  1.
          2   -1    0    0  502    0  0.00000000000E+00 -0.00000000000E+00 -0.10354523291E+04  0.10354523291E+04  0.00000000000E+00 0. -1.
         25    1    1    2    0    0 -0.10932406618E+03  0.19849096855E+03 -0.17154827133E+03  0.31049029846E+03  0.12500000000E+03 0.  0.
         21    1    1    2  502  501  0.10932406618E+03 -0.19849096855E+03 -0.77827359050E+03  0.81059249794E+03  0.00000000000E+00 0.  1.
<mgrwt>
<rscale>  3 0.59553763E+03</rscale>
<asrwt>0</asrwt>
<pdfrwt beam="1">  1        2 0.15930036E+00 0.59553763E+03</pdfrwt>
<pdfrwt beam="2">  1       -2 0.13173918E-01 0.59553763E+03</pdfrwt>
<totfact> 0.10509771E+03</totfact>
</mgrwt>
</event>
<event>
 4    0  0.1264838E-002  0.4592859E+03  0.7546771E-02  0.1024989E+00
         -2   -1    0    0    0  501 -0.00000000000E+00  0.00000000000E+00  0.23706869121E+03  0.23706869121E+03  0.00000000000E+00 0. -1.
          2   -1    0    0  502    0  0.00000000000E+00 -0.00000000000E+00 -0.22244976557E+03  0.22244976557E+03  0.00000000000E+00 0.  1.
         25    1    1    2    0    0  0.20869571353E+03 -0.27283215898E+02  0.38105973634E+02  0.24774046893E+03  0.12500000000E+03 0.  0.
         21    1    1    2  502  501 -0.20869571353E+03  0.27283215898E+02 -0.23487047994E+02  0.21177798786E+03  0.00000000000E+00 0. -1.
<mgrwt>
<rscale>  3 0.45928586E+03</rscale>
<asrwt>0</asrwt>
<pdfrwt beam="1">  1        2 0.34223041E-01 0.45928586E+03</pdfrwt>
<pdfrwt beam="2">  1       -2 0.36472107E-01 0.45928586E+03</pdfrwt>
<totfact> 0.10851916E+03</totfact>
</mgrwt>
</event>
<event>
 4    0  0.1264838E-002  0.7420277E+03  0.7546771E-02  0.9647941E-01
         -2   -1    0    0    0  501 -0.00000000000E+00  0.00000000000E+00  0.28227723645E+03  0.28227723645E+03  0.00000000000E+00 0.  1.
          2   -1    0    0  502    0  0.00000000000E+00 -0.00000000000E+00 -0.48764563211E+03  0.48764563211E+03  0.00000000000E+00 0. -1.
         25    1    1    2    0    0  0.91175893382E+02 -0.33174972161E+03  0.60513631659E+01  0.36610454834E+03  0.12500000000E+03 0.  0.
         21    1    1    2  502  501 -0.91175893382E+02  0.33174972161E+03 -0.21141975883E+03  0.40381832022E+03  0.00000000000E+00 0.  1.
<mgrwt>
<rscale>  3 0.74202766E+03</rscale>
<asrwt>0</asrwt>
<pdfrwt beam="1">  1        2 0.75022405E-01 0.74202766E+03</pdfrwt>
<pdfrwt beam="2">  1       -2 0.43427267E-01 0.74202766E+03</pdfrwt>
<totfact> 0.32125454E+02</totfact>
</mgrwt>
</event>
<event>
 4    0  0.1264838E-002  0.5502181E+03  0.7546771E-02  0.1001443E+00
         -2   -1    0    0    0  501 -0.00000000000E+00  0.00000000000E+00  0.33706575226E+03  0.33706575226E+03  0.00000000000E+00 0. -1.
          2   -1    0    0  502    0  0.00000000000E+00 -0.00000000000E+00 -0.22454068843E+03  0.22454068843E+03  0.00000000000E+00 0.  1.
         25    1    1    2    0    0 -0.76710222437E+02  0.19870089830E+03 -0.94642975648E+02  0.26447835082E+03  0.12500000000E+03 0.  0.
         21    1    1    2  502  501  0.76710222437E+02 -0.19870089830E+03  0.20716803948E+03  0.29712808988E+03  0.00000000000E+00 0. -1.
<mgrwt>
<rscale>  3 0.55021805E+03</rscale>
<asrwt>0</asrwt>
<pdfrwt beam="1">  1        2 0.34544721E-01 0.55021805E+03</pdfrwt>
<pdfrwt beam="2">  1       -2 0.51856269E-01 0.55021805E+03</pdfrwt>
<totfact> 0.53726315E+02</totfact>
</mgrwt>
</event>
<event>
 4    0  0.1264838E-002  0.7912226E+03  0.7546771E-02  0.9572810E-01
          2   -1    0    0  502    0  0.00000000000E+00  0.00000000000E+00  0.15154944136E+03  0.15154944136E+03  0.00000000000E+00 0. -1.
         -2   -1    0    0    0  501 -0.00000000000E+00 -0.00000000000E+00 -0.10327211346E+04  0.10327211346E+04  0.00000000000E+00 0.  1.
         25    1    1    2    0    0 -0.21036054188E+03 -0.23694144669E+03 -0.78087126727E+03  0.85192590217E+03  0.12500000000E+03 0.  0.
         21    1    1    2  502  501  0.21036054188E+03  0.23694144669E+03 -0.10030042595E+03  0.33234467378E+03  0.00000000000E+00 0.  1.
<mgrwt>
<rscale>  3 0.79122263E+03</rscale>
<asrwt>0</asrwt>
<pdfrwt beam="1">  1        2 0.23315298E-01 0.79122263E+03</pdfrwt>
<pdfrwt beam="2">  1       -2 0.15888018E+00 0.79122263E+03</pdfrwt>
<totfact> 0.61571470E+01</totfact>
</mgrwt>
</event>
<event>
 4    0  0.1264838E-002  0.4680990E+03  0.7546771E-02  0.1022458E+00
          2   -1    0    0  502    0  0.00000000000E+00  0.00000000000E+00  0.39478601281E+03  0.39478601281E+03  0.00000000000E+00 0. -1.
         -2   -1    0    0    0  501 -0.00000000000E+00 -0.00000000000E+00 -0.13875660824E+03  0.13875660824E+03  0.00000000000E+00 0.  1.
         25    1    1    2    0    0 -0.22249445675E+02  0.20101560739E+03  0.22792025485E+03  0.32935536252E+03  0.12500000000E+03 0.  0.
         21    1    1    2  502  501  0.22249445675E+02 -0.20101560739E+03  0.28109149719E+02  0.20418725853E+03  0.00000000000E+00 0.  1.
<mgrwt>
<rscale>  3 0.46809900E+03</rscale>
<asrwt>0</asrwt>
<pdfrwt beam="1">  1        2 0.60736309E-01 0.46809900E+03</pdfrwt>
<pdfrwt beam="2">  1       -2 0.21347171E-01 0.46809900E+03</pdfrwt>
<totfact> 0.15301957E+03</totfact>
</mgrwt>
</event>
<event>
 4    0  0.1264838E-002  0.5660454E+03  0.7546771E-02  0.9978468E-01
         -2   -1    0    0    0  501 -0.00000000000E+00  0.00000000000E+00  0.51339201620E+03  0.51339201620E+03  0.00000000000E+00 0. -1.
          2   -1    0    0  502    0  0.00000000000E+00 -0.00000000000E+00 -0.15602471880E+03  0.15602471880E+03  0.00000000000E+00 0.  1.
         25    1    1    2    0    0 -0.83092293268E+02 -0.24220728723E+03  0.28571241401E+03  0.40351614926E+03  0.12500000000E+03 0.  0.
         21    1    1    2  502  501  0.83092293268E+02  0.24220728723E+03  0.71654883387E+02  0.26590058575E+03  0.00000000000E+00 0.  1.
<mgrwt>
<rscale>  3 0.56604539E+03</rscale>
<asrwt>0</asrwt>
<pdfrwt beam="1">  1        2 0.24003803E-01 0.56604539E+03</pdfrwt>
<pdfrwt beam="2">  1       -2 0.78983386E-01 0.56604539E+03</pdfrwt>
<totfact> 0.33025906E+02</totfact>
</mgrwt>
</event>
<event>
 4    0  0.1264838E-002  0.1564680E+04  0.7546771E-02  0.8842545E-01
         -2   -1    0    0    0  501 -0.00000000000E+00  0.00000000000E+00  0.42507927116E+03  0.42507927116E+03  0.00000000000E+00 0.  1.
          2   -1    0    0  502    0  0.00000000000E+00 -0.00000000000E+00 -0.14398637424E+04  0.14398637424E+04  0.00000000000E+00 0. -1.
         25    1    1    2    0    0  0.68600626348E+03 -0.15163007335E+01 -0.74874367891E+02  0.70131167370E+03  0.12500000000E+03 0.  0.
         21    1    1    2  502  501 -0.68600626348E+03  0.15163007335E+01 -0.93991010333E+03  0.11636313398E+04  0.00000000000E+00 0. -1.
<mgrwt>
<rscale>  3 0.15646805E+04</rscale>
<asrwt>0</asrwt>
<pdfrwt beam="1">  1        2 0.22151750E+00 0.15646805E+04</pdfrwt>
<pdfrwt beam="2">  1       -2 0.65396810E-01 0.15646805E+04</pdfrwt>
<totfact> 0.28446125E+01</totfact>
</mgrwt>
</event>
<event>
 4    0  0.1264838E-002  0.5403342E+03  0.7546771E-02  0.1003756E+00
         -1   -1    0    0    0  501 -0.00000000000E+00  0.00000000000E+00  0.21559226831E+03  0.21559226831E+03  0.00000000000E+00 0. -1.
          1   -1    0    0  502    0  0.00000000000E+00 -0.00000000000E+00 -0.33855692488E+03  0.33855692488E+03  0.00000000000E+00 0.  1.
         25    1    1    2    0    0 -0.18818066391E+03 -0.74138547508E+02 -0.22522837936E+03  0.32750772413E+03  0.12500000000E+03 0.  0.
         21    1    1    2  502  501  0.18818066391E+03  0.74138547508E+02  0.10226372280E+03  0.22664146906E+03  0.00000000000E+00 0. -1.
<mgrwt>
<rscale>  3 0.54033418E+03</rscale>
<asrwt>0</asrwt>
<pdfrwt beam="1">  1        1 0.52085681E-01 0.54033418E+03</pdfrwt>
<pdfrwt beam="2">  1       -1 0.33168041E-01 0.54033418E+03</pdfrwt>
<totfact> 0.64461117E+02</totfact>
</mgrwt>
</event>
<event>
 4    0  0.1264838E-002  0.5389177E+03  0.7546771E-02  0.1004092E+00
          2   -1    0    0  502    0  0.00000000000E+00  0.00000000000E+00  0.18681923279E+04  0.18681923279E+04  0.00000000000E+00 0.  1.
         -2   -1    0    0    0  501 -0.00000000000E+00 -0.00000000000E+00 -0.38865417540E+02  0.38865417540E+02  0.00000000000E+00 0. -1.
         25    1    1    2    0    0  0.15258001784E+03  0.18123088322E+03  0.63040024526E+03  0.68494873100E+03  0.12500000000E+03 0.  0.
         21    1    1    2  502  501 -0.15258001784E+03 -0.18123088322E+03  0.11989266651E+04  0.12221090145E+04  0.00000000000E+00 0.  1.
<mgrwt>
<rscale>  3 0.53891771E+03</rscale>
<asrwt>0</asrwt>
<pdfrwt beam="1">  1        2 0.28741413E+00 0.53891771E+03</pdfrwt>
<pdfrwt beam="2">  1       -2 0.59792965E-02 0.53891771E+03</pdfrwt>
<totfact> 0.12730655E+03</totfact>
</mgrwt>
</event>
<event>
 4    0  0.1264838E-002  0.5666378E+03  0.7546771E-02  0.9977146E-01
          2   -1    0    0  502    0  0.00000000000E+00  0.00000000000E+00  0.11284731915E+03  0.11284731915E+03  0.00000000000E+00 0.  1.
         -2   -1    0    0    0  501 -0.00000000000E+00 -0.00000000000E+00 -0.71131154972E+03  0.71131154972E+03  0.00000000000E+00 0. -1.
         25    1    1    2    0    0 -0.17995040204E+03  0.19829208265E+03 -0.26907521297E+03  0.39966031511E+03  0.12500000000E+03 0.  0.
         21    1    1    2  502  501  0.17995040204E+03 -0.19829208265E+03 -0.32938901759E+03  0.42449855376E+03  0.00000000000E+00 0.  1.
<mgrwt>
<rscale>  3 0.56663781E+03</rscale>
<asrwt>0</asrwt>
<pdfrwt beam="1">  1        2 0.17361126E-01 0.56663781E+03</pdfrwt>
<pdfrwt beam="2">  1       -2 0.10943254E+00 0.56663781E+03</pdfrwt>
<totfact> 0.22654315E+02</totfact>
</mgrwt>
</event>
<event>
 4    0  0.1264838E-002  0.5012768E+03  0.7546771E-02  0.1013446E+00
         -2   -1    0    0    0  501 -0.00000000000E+00  0.00000000000E+00  0.56936899825E+02  0.56936899825E+02  0.00000000000E+00 0. -1.
          2   -1    0    0  502    0  0.00000000000E+00 -0.00000000000E+00 -0.11033197384E+04  0.11033197384E+04  0.00000000000E+00 0.  1.
         25    1    1    2    0    0 -0.16060624259E+03  0.15076424955E+03 -0.74554706205E+03  0.78739421247E+03  0.12500000000E+03 0.  0.
         21    1    1    2  502  501  0.16060624259E+03 -0.15076424955E+03 -0.30083577653E+03  0.37286242575E+03  0.00000000000E+00 0. -1.
<mgrwt>
<rscale>  3 0.50127679E+03</rscale>
<asrwt>0</asrwt>
<pdfrwt beam="1">  1        2 0.16974149E+00 0.50127679E+03</pdfrwt>
<pdfrwt beam="2">  1       -2 0.87595236E-02 0.50127679E+03</pdfrwt>
<totfact> 0.18604080E+03</totfact>
</mgrwt>
</event>
<event>
 4    0  0.1264838E-002  0.7627438E+03  0.7546771E-02  0.9615567E-01
         -2   -1    0    0    0  501 -0.00000000000E+00  0.00000000000E+00  0.28409247985E+03  0.28409247985E+03  0.00000000000E+00 0. -1.
          2   -1    0    0  502    0  0.00000000000E+00 -0.00000000000E+00 -0.51196191987E+03  0.51196191987E+03  0.00000000000E+00 0.  1.
         25    1    1    2    0    0  0.29461905496E+03  0.16716384303E+03  0.41261242522E+02  0.36341660405E+03  0.12500000000E+03 0.  0.
         21    1    1    2  502  501 -0.29461905496E+03 -0.16716384303E+03 -0.26913068254E+03  0.43263779568E+03  0.00000000000E+00 0.  1.
<mgrwt>
<rscale>  3 0.76274381E+03</rscale>
<asrwt>0</asrwt>
<pdfrwt beam="1">  1        2 0.78763372E-01 0.76274381E+03</pdfrwt>
<pdfrwt beam="2">  1       -2 0.43706536E-01 0.76274381E+03</pdfrwt>
<totfact> 0.29957548E+02</totfact>
</mgrwt>
</event>
<event>
 4    0  0.1264838E-002  0.4930585E+03  0.7546771E-02  0.1015607E+00
         -2   -1    0    0    0  501 -0.00000000000E+00  0.00000000000E+00  0.23367269948E+02  0.23367269948E+02  0.00000000000E+00 0.  1.
          2   -1    0    0  502    0  0.00000000000E+00 -0.00000000000E+00 -0.26009313975E+04  0.26009313975E+04  0.00000000000E+00 0. -1.
         25    1    1    2    0    0  0.14028877414E+03 -0.15613337292E+03 -0.18809262661E+04  0.18967253858E+04  0.12500000000E+03 0.  0.
         21    1    1    2  502  501 -0.14028877414E+03  0.15613337292E+03 -0.69663786137E+03  0.72757328166E+03  0.00000000000E+00 0.  1.
<mgrwt>
<rscale>  3 0.49305848E+03</rscale>
<asrwt>0</asrwt>
<pdfrwt beam="1">  1        2 0.40014338E+00 0.49305848E+03</pdfrwt>
<pdfrwt beam="2">  1       -2 0.35949638E-02 0.49305848E+03</pdfrwt>
<totfact> 0.11098317E+03</totfact>
</mgrwt>
</event>
<event>
 4    0  0.1264838E-002  0.5797181E+03  0.7546771E-02  0.9948401E-01
          1   -1    0    0  502    0  0.00000000000E+00  0.00000000000E+00  0.17561663490E+03  0.17561663490E+03  0.00000000000E+00 0. -1.
         -1   -1    0    0    0  501 -0.00000000000E+00 -0.00000000000E+00 -0.47841868032E+03  0.47841868032E+03  0.00000000000E+00 0.  1.
         25    1    1    2    0    0 -0.26507136546E+03 -0.32591599691E+01 -0.24665559290E+03  0.38306322249E+03  0.12500000000E+03 0.  0.
         21    1    1    2  502  501  0.26507136546E+03  0.32591599691E+01 -0.56146452522E+02  0.27097209274E+03  0.00000000000E+00 0. -1.
<mgrwt>
<rscale>  3 0.57971813E+03</rscale>
<asrwt>0</asrwt>
<pdfrwt beam="1">  1        1 0.27017944E-01 0.57971813E+03</pdfrwt>
<pdfrwt beam="2">  1       -1 0.73602873E-01 0.57971813E+03</pdfrwt>
<totfact> 0.33279051E+02</totfact>
</mgrwt>
</event>
<event>
 4    0  0.1264838E-002  0.7436151E+03  0.7546771E-02  0.9645421E-01
          2   -1    0    0  502    0  0.00000000000E+00  0.00000000000E+00  0.22980236896E+03  0.22980236896E+03  0.00000000000E+00 0. -1.
         -2   -1    0    0    0  501 -0.00000000000E+00 -0.00000000000E+00 -0.60156416491E+03  0.60156416491E+03  0.00000000000E+00 0.  1.
         25    1    1    2    0    0  0.22711338525E+03 -0.24495787825E+03 -0.34505277712E+03  0.49625726279E+03  0.12500000000E+03 0.  0.
         21    1    1    2  502  501 -0.22711338525E+03  0.24495787825E+03 -0.26709018830E+02  0.33510927107E+03  0.00000000000E+00 0. -1.
<mgrwt>
<rscale>  3 0.74361514E+03</rscale>
<asrwt>0</asrwt>
<pdfrwt beam="1">  1        2 0.35354211E-01 0.74361514E+03</pdfrwt>
<pdfrwt beam="2">  1       -2 0.92548332E-01 0.74361514E+03</pdfrwt>
<totfact> 0.14783269E+02</totfact>
</mgrwt>
</event>
<event>
 4    0  0.1264838E-002  0.5189227E+03  0.7546771E-02  0.1008955E+00
         -3   -1    0    0    0  501 -0.00000000000E+00  0.00000000000E+00  0.24129055719E+03  0.24129055719E+03  0.00000000000E+00 0.  1.
          3   -1    0    0  502    0  0.00000000000E+00 -0.00000000000E+00 -0.27900056487E+03  0.27900056487E+03  0.00000000000E+00 0. -1.
         25    1    1    2    0    0  0.18235224244E+03  0.14802971945E+03  0.47825216256E+02  0.27032829943E+03  0.12500000000E+03 0.  0.
         21    1    1    2  502  501 -0.18235224244E+03 -0.14802971945E+03 -0.85535223932E+02  0.24996282263E+03  0.00000000000E+00 0. -1.
<mgrwt>
<rscale>  3 0.51892274E+03</rscale>
<asrwt>0</asrwt>
<pdfrwt beam="1">  1        3 0.42923164E-01 0.51892274E+03</pdfrwt>
<pdfrwt beam="2">  1       -3 0.37121624E-01 0.51892274E+03</pdfrwt>
<totfact> 0.10148026E+02</totfact>
</mgrwt>
</event>
<event>
 4    0  0.1264838E-002  0.7004512E+03  0.7546771E-02  0.9716461E-01
         -2   -1    0    0    0  501 -0.00000000000E+00  0.00000000000E+00  0.97064799037E+02  0.97064799037E+02  0.00000000000E+00 0. -1.
          2   -1    0    0  502    0  0.00000000000E+00 -0.00000000000E+00 -0.12636711072E+04  0.12636711072E+04  0.00000000000E+00 0.  1.
         25    1    1    2    0    0 -0.91941909827E+01  0.28843495987E+03 -0.94770836771E+03  0.99852661930E+03  0.12500000000E+03 0.  0.
         21    1    1    2  502  501  0.91941909827E+01 -0.28843495987E+03 -0.21889794050E+03  0.36220928699E+03  0.00000000000E+00 0. -1.
<mgrwt>
<rscale>  3 0.70045123E+03</rscale>
<asrwt>0</asrwt>
<pdfrwt beam="1">  1        2 0.19441093E+00 0.70045123E+03</pdfrwt>
<pdfrwt beam="2">  1       -2 0.14933047E-01 0.70045123E+03</pdfrwt>
<totfact> 0.61932512E+02</totfact>
</mgrwt>
</event>
<event>
 4    0  0.1264838E-002  0.6327270E+03  0.7546771E-02  0.9839742E-01
          1   -1    0    0  502    0  0.00000000000E+00  0.00000000000E+00  0.46148795345E+03  0.46148795345E+03  0.00000000000E+00 0.  1.
         -1   -1    0    0    0  501 -0.00000000000E+00 -0.00000000000E+00 -0.21687643786E+03  0.21687643786E+03  0.00000000000E+00 0. -1.
         25    1    1    2    0    0  0.26272415331E+03 -0.13881981907E+03  0.19598710781E+03  0.37726763621E+03  0.12500000000E+03 0.  0.
         21    1    1    2  502  501 -0.26272415331E+03  0.13881981907E+03  0.48624407775E+02  0.30109675510E+03  0.00000000000E+00 0. -1.
<mgrwt>
<rscale>  3 0.63272700E+03</rscale>
<asrwt>0</asrwt>
<pdfrwt beam="1">  1        1 0.70998146E-01 0.63272700E+03</pdfrwt>
<pdfrwt beam="2">  1       -1 0.33365606E-01 0.63272700E+03</pdfrwt>
<totfact> 0.42309088E+02</totfact>
</mgrwt>
</event>
<event>
 4    0  0.1805011E-002  0.6856317E+03  0.7546771E-02  0.9742124E-01
         -1   -1    0    0    0  501 -0.00000000000E+00  0.00000000000E+00  0.15742045933E+03  0.15742045933E+03  0.00000000000E+00 0. -1.
          1   -1    0    0  502    0  0.00000000000E+00 -0.00000000000E+00 -0.74655286625E+03  0.74655286625E+03  0.00000000000E+00 0.  1.
         25    1    1    2    0    0 -0.10215554516E+03  0.18382075472E+03  0.33368301348E+02  0.24690943442E+03  0.12500000000E+03 0.  0.
         21    1    1    2  502  501  0.10215554516E+03 -0.18382075472E+03 -0.62250070827E+03  0.65706389116E+03  0.00000000000E+00 0.  1.
<mgrwt>
<rscale>  3 0.68563167E+03</rscale>
<asrwt>0</asrwt>
<pdfrwt beam="1">  1        1 0.11485429E+00 0.68563167E+03</pdfrwt>
<pdfrwt beam="2">  1       -1 0.24218532E-01 0.68563167E+03</pdfrwt>
<totfact> 0.36892606E+02</totfact>
</mgrwt>
</event>
<event>
 4    0  0.1264838E-002  0.5371953E+03  0.7546771E-02  0.1004502E+00
         -1   -1    0    0    0  501 -0.00000000000E+00  0.00000000000E+00  0.39877764420E+03  0.39877764420E+03  0.00000000000E+00 0.  1.
          1   -1    0    0  502    0  0.00000000000E+00 -0.00000000000E+00 -0.18091456816E+03  0.18091456816E+03  0.00000000000E+00 0. -1.
         25    1    1    2    0    0 -0.12104069328E+03 -0.21778464243E+03  0.16838089709E+03  0.32566566662E+03  0.12500000000E+03 0.  0.
         21    1    1    2  502  501  0.12104069328E+03  0.21778464243E+03  0.49482178942E+02  0.25402654574E+03  0.00000000000E+00 0. -1.
<mgrwt>
<rscale>  3 0.53719525E+03</rscale>
<asrwt>0</asrwt>
<pdfrwt beam="1">  1        1 0.27833011E-01 0.53719525E+03</pdfrwt>
<pdfrwt beam="2">  1       -1 0.61350407E-01 0.53719525E+03</pdfrwt>
<totfact> 0.46267020E+02</totfact>
</mgrwt>
</event>
<event>
 4    0  0.1264838E-002  0.8994814E+03  0.7546771E-02  0.9426230E-01
          2   -1    0    0  502    0  0.00000000000E+00  0.00000000000E+00  0.30853474028E+03  0.30853474028E+03  0.00000000000E+00 0.  1.
         -2   -1    0    0    0  501 -0.00000000000E+00 -0.00000000000E+00 -0.65557182725E+03  0.65557182725E+03  0.00000000000E+00 0. -1.
         25    1    1    2    0    0  0.41532862569E+03  0.12725707678E+03 -0.94977447294E+02  0.46188520911E+03  0.12500000000E+03 0.  0.
         21    1    1    2  502  501 -0.41532862569E+03 -0.12725707678E+03 -0.25205963967E+03  0.50222135842E+03  0.00000000000E+00 0. -1.
<mgrwt>
<rscale>  3 0.89948137E+03</rscale>
<asrwt>0</asrwt>
<pdfrwt beam="1">  1        2 0.47466883E-01 0.89948137E+03</pdfrwt>
<pdfrwt beam="2">  1       -2 0.10085720E+00 0.89948137E+03</pdfrwt>
<totfact> 0.86416804E+01</totfact>
</mgrwt>
</event>
<event>
 4    0  0.1264838E-002  0.5826892E+03  0.7546771E-02  0.9941986E-01
          2   -1    0    0  502    0  0.00000000000E+00  0.00000000000E+00  0.57032490069E+03  0.57032490069E+03  0.00000000000E+00 0.  1.
         -2   -1    0    0    0  501 -0.00000000000E+00 -0.00000000000E+00 -0.14883041233E+03  0.14883041233E+03  0.00000000000E+00 0. -1.
         25    1    1    2    0    0  0.19143218299E+03 -0.92717364857E+02  0.44124756783E+03  0.50553655313E+03  0.12500000000E+03 0.  0.
         21    1    1    2  502  501 -0.19143218299E+03  0.92717364857E+02 -0.19753079469E+02  0.21361875990E+03  0.00000000000E+00 0. -1.
<mgrwt>
<rscale>  3 0.58268925E+03</rscale>
<asrwt>0</asrwt>
<pdfrwt beam="1">  1        2 0.87742291E-01 0.58268925E+03</pdfrwt>
<pdfrwt beam="2">  1       -2 0.22896987E-01 0.58268925E+03</pdfrwt>
<totfact> 0.88887223E+02</totfact>
</mgrwt>
</event>
<event>
 4    0  0.1264838E-002  0.9402539E+03  0.7546771E-02  0.9376615E-01
          3   -1    0    0  502    0  0.00000000000E+00  0.00000000000E+00  0.23495577313E+03  0.23495577313E+03  0.00000000000E+00 0. -1.
         -3   -1    0    0    0  501 -0.00000000000E+00 -0.00000000000E+00 -0.94068486629E+03  0.94068486629E+03  0.00000000000E+00 0.  1.
         25    1    1    2    0    0  0.45118076912E+03  0.58849378076E+02 -0.26026416826E+03  0.53887825434E+03  0.12500000000E+03 0.  0.
         21    1    1    2  502  501 -0.45118076912E+03 -0.58849378076E+02 -0.44546492491E+03  0.63676238507E+03  0.00000000000E+00 0.  1.
<mgrwt>
<rscale>  3 0.94025388E+03</rscale>
<asrwt>0</asrwt>
<pdfrwt beam="1">  1        3 0.36147041E-01 0.94025388E+03</pdfrwt>
<pdfrwt beam="2">  1       -3 0.14472075E+00 0.94025388E+03</pdfrwt>
<totfact> 0.70370905E+00</totfact>
</mgrwt>
</event>
<event>
 4    0  0.1264838E-002  0.6640377E+03  0.7546771E-02  0.9780789E-01
         -2   -1    0    0    0  501 -0.00000000000E+00  0.00000000000E+00  0.16892609503E+03  0.16892609503E+03  0.00000000000E+00 0. -1.
          2   -1    0    0  502    0  0.00000000000E+00 -0.00000000000E+00 -0.65257244309E+03  0.65257244309E+03  0.00000000000E+00 0.  1.
         25    1    1    2    0    0  0.25323048619E+03  0.15688208639E+03 -0.10493243498E+03  0.33966672500E+03  0.12500000000E+03 0.  0.
         21    1    1    2  502  501 -0.25323048619E+03 -0.15688208639E+03 -0.37871391308E+03  0.48183181311E+03  0.00000000000E+00 0.  1.
<mgrwt>
<rscale>  3 0.66403769E+03</rscale>
<asrwt>0</asrwt>
<pdfrwt beam="1">  1        2 0.10039576E+00 0.66403769E+03</pdfrwt>
<pdfrwt beam="2">  1       -2 0.25988630E-01 0.66403769E+03</pdfrwt>
<totfact> 0.60118619E+02</totfact>
</mgrwt>
</event>
<event>
 4    0  0.1264838E-002  0.5025912E+03  0.7546771E-02  0.1013105E+00
         -2   -1    0    0    0  501 -0.00000000000E+00  0.00000000000E+00  0.31824825523E+02  0.31824825523E+02  0.00000000000E+00 0. -1.
          2   -1    0    0  502    0  0.00000000000E+00 -0.00000000000E+00 -0.19842831998E+04  0.19842831998E+04  0.00000000000E+00 0.  1.
         25    1    1    2    0    0 -0.20956430451E+03 -0.72488077772E+02 -0.13577025880E+04  0.13813591266E+04  0.12500000000E+03 0.  0.
         21    1    1    2  502  501  0.20956430451E+03  0.72488077772E+02 -0.59475578636E+03  0.63474889881E+03  0.00000000000E+00 0. -1.
<mgrwt>
<rscale>  3 0.50259115E+03</rscale>
<asrwt>0</asrwt>
<pdfrwt beam="1">  1        2 0.30527442E+00 0.50259115E+03</pdfrwt>
<pdfrwt beam="2">  1       -2 0.48961257E-02 0.50259115E+03</pdfrwt>
<totfact> 0.15067012E+03</totfact>
</mgrwt>
</event>
<event>
 4    0  0.1264838E-002  0.6101344E+03  0.7546771E-02  0.9884601E-01
         -3   -1    0    0    0  501 -0.00000000000E+00  0.00000000000E+00  0.24325869848E+03  0.24325869848E+03  0.00000000000E+00 0. -1.
          3   -1    0    0  502    0  0.00000000000E+00 -0.00000000000E+00 -0.38258032777E+03  0.38258032777E+03  0.00000000000E+00 0.  1.
         25    1    1    2    0    0  0.14752041364E+03  0.25067552231E+03 -0.43266477733E+02  0.31952695977E+03  0.12500000000E+03 0.  0.
         21    1    1    2  502  501 -0.14752041364E+03 -0.25067552231E+03 -0.96055151554E+02  0.30631206647E+03  0.00000000000E+00 0.  1.
<mgrwt>
<rscale>  3 0.61013439E+03</rscale>
<asrwt>0</asrwt>
<pdfrwt beam="1">  1        3 0.58858512E-01 0.61013439E+03</pdfrwt>
<pdfrwt beam="2">  1       -3 0.37424415E-01 0.61013439E+03</pdfrwt>
<totfact> 0.52662828E+01</totfact>
</mgrwt>
</event>
<event>
 4    0  0.1264838E-002  0.6481566E+03  0.7546771E-02  0.9810244E-01
         -2   -1    0    0    0  501 -0.00000000000E+00  0.00000000000E+00  0.21627997543E+02  0.21627997543E+02  0.00000000000E+00 0.  1.
          2   -1    0    0  502    0  0.00000000000E+00 -0.00000000000E+00 -0.48560544885E+04  0.48560544885E+04  0.00000000000E+00 0. -1.
         25    1    1    2    0    0  0.23894190832E+03  0.44036882293E+01 -0.40168481283E+04  0.40258920147E+04  0.12500000000E+03 0.  0.
         21    1    1    2  502  501 -0.23894190832E+03 -0.44036882293E+01 -0.81757836263E+03  0.85179047134E+03  0.00000000000E+00 0.  1.
<mgrwt>
<rscale>  3 0.64815657E+03</rscale>
<asrwt>0</asrwt>
<pdfrwt beam="1">  1        2 0.74708500E+00 0.64815657E+03</pdfrwt>
<pdfrwt beam="2">  1       -2 0.33273856E-02 0.64815657E+03</pdfrwt>
<totfact> 0.23552261E+01</totfact>
</mgrwt>
</event>
<event>
 4    0  0.1264838E-002  0.4487983E+03  0.7546771E-02  0.1028081E+00
          1   -1    0    0  502    0  0.00000000000E+00  0.00000000000E+00  0.17279765134E+03  0.17279765134E+03  0.00000000000E+00 0.  1.
         -1   -1    0    0    0  501 -0.00000000000E+00 -0.00000000000E+00 -0.29141007263E+03  0.29141007263E+03  0.00000000000E+00 0. -1.
         25    1    1    2    0    0 -0.18671454967E+03 -0.81339790655E+02 -0.10214949482E+03  0.25988074937E+03  0.12500000000E+03 0.  0.
         21    1    1    2  502  501  0.18671454967E+03  0.81339790655E+02 -0.16462926478E+02  0.20432697460E+03  0.00000000000E+00 0. -1.
<mgrwt>
<rscale>  3 0.44879829E+03</rscale>
<asrwt>0</asrwt>
<pdfrwt beam="1">  1        1 0.26584254E-01 0.44879829E+03</pdfrwt>
<pdfrwt beam="2">  1       -1 0.44832319E-01 0.44879829E+03</pdfrwt>
<totfact> 0.89147221E+02</totfact>
</mgrwt>
</event>
<event>
 4    0  0.1264838E-002  0.8218127E+03  0.7546771E-02  0.9528970E-01
         -1   -1    0    0    0  501 -0.00000000000E+00  0.00000000000E+00  0.13666946571E+03  0.13666946571E+03  0.00000000000E+00 0.  1.
          1   -1    0    0  502    0  0.00000000000E+00 -0.00000000000E+00 -0.12354188665E+04  0.12354188665E+04  0.00000000000E+00 0. -1.
         25    1    1    2    0    0  0.25407113410E+03 -0.27607354960E+03 -0.80027552342E+03  0.89265595800E+03  0.12500000000E+03 0.  0.
         21    1    1    2  502  501 -0.25407113410E+03  0.27607354960E+03 -0.29847387736E+03  0.47943237421E+03  0.00000000000E+00 0.  1.
<mgrwt>
<rscale>  3 0.82181272E+03</rscale>
<asrwt>0</asrwt>
<pdfrwt beam="1">  1        1 0.19006444E+00 0.82181272E+03</pdfrwt>
<pdfrwt beam="2">  1       -1 0.21026072E-01 0.82181272E+03</pdfrwt>
<totfact> 0.19131857E+02</totfact>
</mgrwt>
</event>
<event>
 4    0  0.1264838E-002  0.7028548E+03  0.7546771E-02  0.9712363E-01
          2   -1    0    0  502    0  0.00000000000E+00  0.00000000000E+00  0.54500743186E+03  0.54500743186E+03  0.00000000000E+00 0. -1.
         -2   -1    0    0    0  501 -0.00000000000E+00 -0.00000000000E+00 -0.22660461794E+03  0.22660461794E+03  0.00000000000E+00 0.  1.
         25    1    1    2    0    0  0.12527392497E+03 -0.28172021222E+03  0.32238630907E+03  0.46326856846E+03  0.12500000000E+03 0.  0.
         21    1    1    2  502  501 -0.12527392497E+03  0.28172021222E+03 -0.39834951621E+01  0.30834348134E+03  0.00000000000E+00 0.  1.
<mgrwt>
<rscale>  3 0.70285475E+03</rscale>
<asrwt>0</asrwt>
<pdfrwt beam="1">  1        2 0.83847297E-01 0.70285475E+03</pdfrwt>
<pdfrwt beam="2">  1       -2 0.34862249E-01 0.70285475E+03</pdfrwt>
<totfact> 0.43256147E+02</totfact>
</mgrwt>
</event>
<event>
 4    0  0.1264838E-002  0.4735967E+03  0.7546771E-02  0.1020910E+00
         -2   -1    0    0    0  501 -0.00000000000E+00  0.00000000000E+00  0.38951025692E+02  0.38951025692E+02  0.00000000000E+00 0.  1.
          2   -1    0    0  502    0  0.00000000000E+00 -0.00000000000E+00 -0.14395886956E+04  0.14395886956E+04  0.00000000000E+00 0. -1.
         25    1    1    2    0    0 -0.21268488388E+03 -0.31999237362E+02 -0.89798817881E+03  0.93180823151E+03  0.12500000000E+03 0.  0.
         21    1    1    2  502  501  0.21268488388E+03  0.31999237362E+02 -0.50264949111E+03  0.54673148980E+03  0.00000000000E+00 0.  1.
<mgrwt>
<rscale>  3 0.47359669E+03</rscale>
<asrwt>0</asrwt>
<pdfrwt beam="1">  1        2 0.22147520E+00 0.47359669E+03</pdfrwt>
<pdfrwt beam="2">  1       -2 0.59924649E-02 0.47359669E+03</pdfrwt>
<totfact> 0.21731759E+03</totfact>
</mgrwt>
</event>
<event>
 4    0  0.1264838E-002  0.5605206E+03  0.7546771E-02  0.9990877E-01
         -1   -1    0    0    0  501 -0.00000000000E+00  0.00000000000E+00  0.13318666128E+03  0.13318666128E+03  0.00000000000E+00 0.  1.
          1   -1    0    0  502    0  0.00000000000E+00 -0.00000000000E+00 -0.58974256282E+03  0.58974256282E+03  0.00000000000E+00 0. -1.
         25    1    1    2    0    0  0.26514971173E+03  0.32071779143E+01 -0.20769929789E+03  0.35927517861E+03  0.12500000000E+03 0.  0.
         21    1    1    2  502  501 -0.26514971173E+03 -0.32071779143E+01 -0.24885660364E+03  0.36365404549E+03  0.00000000000E+00 0. -1.
<mgrwt>
<rscale>  3 0.56052063E+03</rscale>
<asrwt>0</asrwt>
<pdfrwt beam="1">  1        1 0.90729625E-01 0.56052063E+03</pdfrwt>
<pdfrwt beam="2">  1       -1 0.20490256E-01 0.56052063E+03</pdfrwt>
<totfact> 0.69518119E+02</totfact>
</mgrwt>
</event>
<event>
 4    0  0.1264838E-002  0.6551241E+03  0.7546771E-02  0.9797211E-01
          2   -1    0    0  502    0  0.00000000000E+00  0.00000000000E+00  0.11997290129E+04  0.11997290129E+04  0.00000000000E+00 0.  1.
         -2   -1    0    0    0  501 -0.00000000000E+00 -0.00000000000E+00 -0.89434272987E+02  0.89434272987E+02  0.00000000000E+00 0. -1.
         25    1    1    2    0    0  0.28002370994E+03  0.61051457498E+02  0.31514436660E+03  0.44393865611E+03  0.12500000000E+03 0.  0.
         21    1    1    2  502  501 -0.28002370994E+03 -0.61051457498E+02  0.79515037328E+03  0.84522462974E+03  0.00000000000E+00 0. -1.
<mgrwt>
<rscale>  3 0.65512409E+03</rscale>
<asrwt>0</asrwt>
<pdfrwt beam="1">  1        2 0.18457368E+00 0.65512409E+03</pdfrwt>
<pdfrwt beam="2">  1       -2 0.13759120E-01 0.65512409E+03</pdfrwt>
<totfact> 0.77605951E+02</totfact>
</mgrwt>
</event>
<event>
 4    0  0.1264838E-002  0.4677024E+03  0.7546771E-02  0.1022571E+00
          2   -1    0    0  502    0  0.00000000000E+00  0.00000000000E+00  0.18923210866E+03  0.18923210866E+03  0.00000000000E+00 0. -1.
         -2   -1    0    0    0  501 -0.00000000000E+00 -0.00000000000E+00 -0.28899102562E+03  0.28899102562E+03  0.00000000000E+00 0.  1.
         25    1    1    2    0    0  0.18813173656E+03 -0.95828490833E+02 -0.10534092057E+03  0.26701752659E+03  0.12500000000E+03 0.  0.
         21    1    1    2  502  501 -0.18813173656E+03  0.95828490833E+02  0.55820036106E+01  0.21120560770E+03  0.00000000000E+00 0.  1.
<mgrwt>
<rscale>  3 0.46770239E+03</rscale>
<asrwt>0</asrwt>
<pdfrwt beam="1">  1        2 0.29112632E-01 0.46770239E+03</pdfrwt>
<pdfrwt beam="2">  1       -2 0.44460158E-01 0.46770239E+03</pdfrwt>
<totfact> 0.88562470E+02</totfact>
</mgrwt>
</event>
<event>
 4    0  0.1264838E-002  0.5517532E+03  0.7546771E-02  0.1001089E+00
          1   -1    0    0  502    0  0.00000000000E+00  0.00000000000E+00  0.94153351412E+02  0.94153351412E+02  0.00000000000E+00 0.  1.
         -1   -1    0    0    0  501 -0.00000000000E+00 -0.00000000000E+00 -0.80833964790E+03  0.80833964790E+03  0.00000000000E+00 0. -1.
         25    1    1    2    0    0 -0.17808358985E+03  0.18508755225E+03 -0.29323372211E+03  0.40936802849E+03  0.12500000000E+03 0.  0.
         21    1    1    2  502  501  0.17808358985E+03 -0.18508755225E+03 -0.42095257438E+03  0.49312497082E+03  0.00000000000E+00 0. -1.
<mgrwt>
<rscale>  3 0.55175316E+03</rscale>
<asrwt>0</asrwt>
<pdfrwt beam="1">  1        1 0.14485131E-01 0.55175316E+03</pdfrwt>
<pdfrwt beam="2">  1       -1 0.12435995E+00 0.55175316E+03</pdfrwt>
<totfact> 0.23401637E+02</totfact>
</mgrwt>
</event>
<event>
 4    0  0.1264838E-002  0.5527551E+03  0.7546771E-02  0.1000858E+00
         -2   -1    0    0    0  501 -0.00000000000E+00  0.00000000000E+00  0.26500480004E+02  0.26500480004E+02  0.00000000000E+00 0.  1.
          2   -1    0    0  502    0  0.00000000000E+00 -0.00000000000E+00 -0.28823840721E+04  0.28823840721E+04  0.00000000000E+00 0. -1.
         25    1    1    2    0    0 -0.20237753044E+03 -0.15897460730E+03 -0.17663048884E+04  0.17893260042E+04  0.12500000000E+03 0.  0.
         21    1    1    2  502  501  0.20237753044E+03  0.15897460730E+03 -0.10895787037E+04  0.11195585479E+04  0.00000000000E+00 0.  1.
<mgrwt>
<rscale>  3 0.55275514E+03</rscale>
<asrwt>0</asrwt>
<pdfrwt beam="1">  1        2 0.44344329E+00 0.55275514E+03</pdfrwt>
<pdfrwt beam="2">  1       -2 0.40770007E-02 0.55275514E+03</pdfrwt>
<totfact> 0.62519542E+02</totfact>
</mgrwt>
</event>
<event>
 4    0  0.1264838E-002  0.7725149E+03  0.7546771E-02  0.9600676E-01
         -2   -1    0    0    0  501 -0.00000000000E+00  0.00000000000E+00  0.86450577525E+02  0.86450577525E+02  0.00000000000E+00 0. -1.
          2   -1    0    0  502    0  0.00000000000E+00 -0.00000000000E+00 -0.17257814112E+04  0.17257814112E+04  0.00000000000E+00 0.  1.
         25    1    1    2    0    0 -0.11784163219E+02  0.25659288523E+03 -0.19651597031E+03  0.34673087812E+03  0.12500000000E+03 0.  0.
         21    1    1    2  502  501  0.11784163219E+02 -0.25659288523E+03 -0.14428148634E+04  0.14655011107E+04  0.00000000000E+00 0.  1.
<mgrwt>
<rscale>  3 0.77251485E+03</rscale>
<asrwt>0</asrwt>
<pdfrwt beam="1">  1        2 0.26550484E+00 0.77251485E+03</pdfrwt>
<pdfrwt beam="2">  1       -2 0.13300089E-01 0.77251485E+03</pdfrwt>
<totfact> 0.41332255E+02</totfact>
</mgrwt>
</event>
<event>
 4    0  0.1264838E-002  0.5807424E+03  0.7546771E-02  0.9946185E-01
         -2   -1    0    0    0  501 -0.00000000000E+00  0.00000000000E+00  0.21072810085E+02  0.21072810085E+02  0.00000000000E+00 0. -1.
          2   -1    0    0  502    0  0.00000000000E+00 -0.00000000000E+00 -0.40011485373E+04  0.40011485373E+04  0.00000000000E+00 0.  1.
         25    1    1    2    0    0 -0.21041821734E+03 -0.12764948612E+03 -0.12030498243E+04  0.12343111833E+04  0.12500000000E+03 0.  0.
         21    1    1    2  502  501  0.21041821734E+03  0.12764948612E+03 -0.27770259029E+04  0.27879101641E+04  0.00000000000E+00 0.  1.
<mgrwt>
<rscale>  3 0.58074243E+03</rscale>
<asrwt>0</asrwt>
<pdfrwt beam="1">  1        2 0.61556077E+00 0.58074243E+03</pdfrwt>
<pdfrwt beam="2">  1       -2 0.32419737E-02 0.58074243E+03</pdfrwt>
<totfact> 0.15558724E+02</totfact>
</mgrwt>
</event>
<event>
 4    0  0.1264838E-002  0.7500189E+03  0.7546771E-02  0.9635321E-01
          2   -1    0    0  502    0  0.00000000000E+00  0.00000000000E+00  0.73234878863E+03  0.73234878863E+03  0.00000000000E+00 0. -1.
         -2   -1    0    0    0  501 -0.00000000000E+00 -0.00000000000E+00 -0.19202885980E+03  0.19202885980E+03  0.00000000000E+00 0.  1.
         25    1    1    2    0    0 -0.12424717721E+02 -0.21584868644E+03  0.63948038711E+03  0.68651671104E+03  0.12500000000E+03 0.  0.
         21    1    1    2  502  501  0.12424717721E+02  0.21584868644E+03 -0.99160458274E+02  0.23786093739E+03  0.00000000000E+00 0.  1.
<mgrwt>
<rscale>  3 0.75001894E+03</rscale>
<asrwt>0</asrwt>
<pdfrwt beam="1">  1        2 0.11266904E+00 0.75001894E+03</pdfrwt>
<pdfrwt beam="2">  1       -2 0.29542902E-01 0.75001894E+03</pdfrwt>
<totfact> 0.41026222E+02</totfact>
</mgrwt>
</event>
<event>
 4    0  0.1264838E-002  0.5341674E+03  0.7546771E-02  0.1005226E+00
         -1   -1    0    0    0  501 -0.00000000000E+00  0.00000000000E+00  0.83297710018E+02  0.83297710018E+02  0.00000000000E+00 0.  1.
          1   -1    0    0  502    0  0.00000000000E+00 -0.00000000000E+00 -0.85637061459E+03  0.85637061459E+03  0.00000000000E+00 0. -1.
         25    1    1    2    0    0 -0.54585685293E+02  0.22588085945E+03 -0.23415170645E+03  0.35278007504E+03  0.12500000000E+03 0.  0.
         21    1    1    2  502  501  0.54585685293E+02 -0.22588085945E+03 -0.53892119812E+03  0.58688824958E+03  0.00000000000E+00 0.  1.
<mgrwt>
<rscale>  3 0.53416743E+03</rscale>
<asrwt>0</asrwt>
<pdfrwt beam="1">  1        1 0.13174933E+00 0.53416743E+03</pdfrwt>
<pdfrwt beam="2">  1       -1 0.12815032E-01 0.53416743E+03</pdfrwt>
<totfact> 0.84942614E+02</totfact>
</mgrwt>
</event>
<event>
 4    0  0.1264838E-002  0.5189937E+03  0.7546771E-02  0.1008937E+00
          1   -1    0    0  502    0  0.00000000000E+00  0.00000000000E+00  0.31788578026E+03  0.31788578026E+03  0.00000000000E+00 0. -1.
         -1   -1    0    0    0  501 -0.00000000000E+00 -0.00000000000E+00 -0.21183273969E+03  0.21183273969E+03  0.00000000000E+00 0.  1.
         25    1    1    2    0    0  0.66970627122E+02  0.22909539877E+03  0.10994631861E+03  0.29100336701E+03  0.12500000000E+03 0.  0.
         21    1    1    2  502  501 -0.66970627122E+02 -0.22909539877E+03 -0.38932780351E+01  0.23871515295E+03  0.00000000000E+00 0. -1.
<mgrwt>
<rscale>  3 0.51899370E+03</rscale>
<asrwt>0</asrwt>
<pdfrwt beam="1">  1        1 0.48905505E-01 0.51899370E+03</pdfrwt>
<pdfrwt beam="2">  1       -1 0.32589652E-01 0.51899370E+03</pdfrwt>
<totfact> 0.72143287E+02</totfact>
</mgrwt>
</event>
<event>
 4    0  0.1264838E-002  0.5228723E+03  0.7546771E-02  0.1007976E+00
          2   -1    0    0  502    0  0.00000000000E+00  0.00000000000E+00  0.90275249121E+03  0.90275249121E+03  0.00000000000E+00 0.  1.
         -2   -1    0    0    0  501 -0.00000000000E+00 -0.00000000000E+00 -0.75711619189E+02  0.75711619189E+02  0.00000000000E+00 0. -1.
         25    1    1    2    0    0 -0.81930927481E+02 -0.21374432812E+03  0.26604992493E+03  0.37256794982E+03  0.12500000000E+03 0.  0.
         21    1    1    2  502  501  0.81930927481E+02  0.21374432812E+03  0.56099094710E+03  0.60589616058E+03  0.00000000000E+00 0.  1.
<mgrwt>
<rscale>  3 0.52287227E+03</rscale>
<asrwt>0</asrwt>
<pdfrwt beam="1">  1        2 0.13888499E+00 0.52287227E+03</pdfrwt>
<pdfrwt beam="2">  1       -2 0.11647942E-01 0.52287227E+03</pdfrwt>
<totfact> 0.15688406E+03</totfact>
</mgrwt>
</event>
<event>
 4    0  0.1264838E-002  0.1217998E+04  0.7546771E-02  0.9097247E-01
          3   -1    0    0  502    0  0.00000000000E+00  0.00000000000E+00  0.23438846044E+03  0.23438846044E+03  0.00000000000E+00 0.  1.
         -3   -1    0    0    0  501 -0.00000000000E+00 -0.00000000000E+00 -0.15823289287E+04  0.15823289287E+04  0.00000000000E+00 0. -1.
         25    1    1    2    0    0  0.55541235642E+03  0.21090528503E+03 -0.53083995961E+03  0.80646139872E+03  0.12500000000E+03 0.  0.
         21    1    1    2  502  501 -0.55541235642E+03 -0.21090528503E+03 -0.81710050863E+03  0.10102559904E+04  0.00000000000E+00 0. -1.
<mgrwt>
<rscale>  3 0.12179978E+04</rscale>
<asrwt>0</asrwt>
<pdfrwt beam="1">  1        3 0.36059764E-01 0.12179978E+04</pdfrwt>
<pdfrwt beam="2">  1       -3 0.24343521E+00 0.12179978E+04</pdfrwt>
<totfact> 0.15773853E+00</totfact>
</mgrwt>
</event>
<event>
 4    0  0.1264838E-002  0.4654266E+03  0.7546771E-02  0.1023219E+00
         -2   -1    0    0    0  501 -0.00000000000E+00  0.00000000000E+00  0.11587911308E+03  0.11587911308E+03  0.00000000000E+00 0.  1.
          2   -1    0    0  502    0  0.00000000000E+00 -0.00000000000E+00 -0.46734471372E+03  0.46734471372E+03  0.00000000000E+00 0. -1.
         25    1    1    2    0    0  0.12706071455E+03  0.15610868292E+03 -0.28636173035E+03  0.37167510903E+03  0.12500000000E+03 0.  0.
         21    1    1    2  502  501 -0.12706071455E+03 -0.15610868292E+03 -0.65103870285E+02  0.21154871777E+03  0.00000000000E+00 0.  1.
<mgrwt>
<rscale>  3 0.46542665E+03</rscale>
<asrwt>0</asrwt>
<pdfrwt beam="1">  1        2 0.71899188E-01 0.46542665E+03</pdfrwt>
<pdfrwt beam="2">  1       -2 0.17827556E-01 0.46542665E+03</pdfrwt>
<totfact> 0.17297232E+03</totfact>
</mgrwt>
</event>
<event>
 4    0  0.1264838E-002  0.5703618E+03  0.7546771E-02  0.9968878E-01
         -2   -1    0    0    0  501 -0.00000000000E+00  0.00000000000E+00  0.36393469333E+02  0.36393469333E+02  0.00000000000E+00 0. -1.
          2   -1    0    0  502    0  0.00000000000E+00 -0.00000000000E+00 -0.22346902889E+04  0.22346902889E+04  0.00000000000E+00 0.  1.
         25    1    1    2    0    0 -0.25693118206E+03 -0.86221725207E+02 -0.12155801778E+04  0.12516820631E+04  0.12500000000E+03 0.  0.
         21    1    1    2  502  501  0.25693118206E+03  0.86221725207E+02 -0.98271664173E+03  0.10194016952E+04  0.00000000000E+00 0.  1.
<mgrwt>
<rscale>  3 0.57036175E+03</rscale>
<asrwt>0</asrwt>
<pdfrwt beam="1">  1        2 0.34379845E+00 0.57036175E+03</pdfrwt>
<pdfrwt beam="2">  1       -2 0.55989962E-02 0.57036175E+03</pdfrwt>
<totfact> 0.89096391E+02</totfact>
</mgrwt>
</event>
<event>
 4    0  0.1264838E-002  0.6071780E+03  0.7546771E-02  0.9890625E-01
         -2   -1    0    0    0  501 -0.00000000000E+00  0.00000000000E+00  0.74928359340E+02  0.74928359340E+02  0.00000000000E+00 0.  1.
          2   -1    0    0  502    0  0.00000000000E+00 -0.00000000000E+00 -0.12300586885E+04  0.12300586885E+04  0.00000000000E+00 0. -1.
         25    1    1    2    0    0  0.24455115994E+02  0.24063954739E+03 -0.94869520898E+03  0.98699191689E+03  0.12500000000E+03 0.  0.
         21    1    1    2  502  501 -0.24455115994E+02 -0.24063954739E+03 -0.20643512020E+03  0.31799513097E+03  0.00000000000E+00 0. -1.
<mgrwt>
<rscale>  3 0.60717800E+03</rscale>
<asrwt>0</asrwt>
<pdfrwt beam="1">  1        2 0.18923979E+00 0.60717800E+03</pdfrwt>
<pdfrwt beam="2">  1       -2 0.11527440E-01 0.60717800E+03</pdfrwt>
<totfact> 0.10005680E+03</totfact>
</mgrwt>
</event>
<event>
 4    0  0.1264838E-002  0.7516700E+03  0.7546771E-02  0.9632734E-01
          1   -1    0    0  502    0  0.00000000000E+00  0.00000000000E+00  0.44421353936E+03  0.44421353936E+03  0.00000000000E+00 0. -1.
         -1   -1    0    0    0  501 -0.00000000000E+00 -0.00000000000E+00 -0.31798212519E+03  0.31798212519E+03  0.00000000000E+00 0.  1.
         25    1    1    2    0    0 -0.10811961510E+03  0.19347931493E+03  0.35948684323E+03  0.44043147813E+03  0.12500000000E+03 0.  0.
         21    1    1    2  502  501  0.10811961510E+03 -0.19347931493E+03 -0.23325542906E+03  0.32176418642E+03  0.00000000000E+00 0.  1.
<mgrwt>
<rscale>  3 0.75167005E+03</rscale>
<asrwt>0</asrwt>
<pdfrwt beam="1">  1        1 0.68340545E-01 0.75167005E+03</pdfrwt>
<pdfrwt beam="2">  1       -1 0.48920327E-01 0.75167005E+03</pdfrwt>
<totfact> 0.22081742E+02</totfact>
</mgrwt>
</event>
<event>
 4    0  0.1264838E-002  0.1078560E+04  0.7546771E-02  0.9226344E-01
         -1   -1    0    0    0  501 -0.00000000000E+00  0.00000000000E+00  0.44039835505E+03  0.44039835505E+03  0.00000000000E+00 0.  1.
          1   -1    0    0  502    0  0.00000000000E+00 -0.00000000000E+00 -0.66036351628E+03  0.66036351628E+03  0.00000000000E+00 0. -1.
         25    1    1    2    0    0 -0.46175810683E+03 -0.17091607847E+03  0.94258523080E+02  0.51666480843E+03  0.12500000000E+03 0.  0.
         21    1    1    2  502  501  0.46175810683E+03  0.17091607847E+03 -0.31422368432E+03  0.58409706290E+03  0.00000000000E+00 0. -1.
<mgrwt>
<rscale>  3 0.10785602E+04</rscale>
<asrwt>0</asrwt>
<pdfrwt beam="1">  1        1 0.10159439E+00 0.10785602E+04</pdfrwt>
<pdfrwt beam="2">  1       -1 0.67753593E-01 0.10785602E+04</pdfrwt>
<totfact> 0.65500288E+01</totfact>
</mgrwt>
</event>
<event>
 4    0  0.1264838E-002  0.8506827E+03  0.7546771E-02  0.9489421E-01
         -2   -1    0    0    0  501 -0.00000000000E+00  0.00000000000E+00  0.14267984519E+04  0.14267984519E+04  0.00000000000E+00 0. -1.
          2   -1    0    0  502    0  0.00000000000E+00 -0.00000000000E+00 -0.12679805425E+03  0.12679805425E+03  0.00000000000E+00 0.  1.
         25    1    1    2    0    0 -0.24079686356E+03 -0.74733173842E+02  0.59371712860E+02  0.28760767907E+03  0.12500000000E+03 0.  0.
         21    1    1    2  502  501  0.24079686356E+03  0.74733173842E+02  0.12406286848E+04  0.12659888271E+04  0.00000000000E+00 0. -1.
<mgrwt>
<rscale>  3 0.85068271E+03</rscale>
<asrwt>0</asrwt>
<pdfrwt beam="1">  1        2 0.19507394E-01 0.85068271E+03</pdfrwt>
<pdfrwt beam="2">  1       -2 0.21950744E+00 0.85068271E+03</pdfrwt>
<totfact> 0.29521843E+01</totfact>
</mgrwt>
</event>
<event>
 4    0  0.1264838E-002  0.5803504E+03  0.7546771E-02  0.9947033E-01
          1   -1    0    0  502    0  0.00000000000E+00  0.00000000000E+00  0.26202886401E+03  0.26202886401E+03  0.00000000000E+00 0.  1.
         -1   -1    0    0    0  501 -0.00000000000E+00 -0.00000000000E+00 -0.32134490007E+03  0.32134490007E+03  0.00000000000E+00 0. -1.
         25    1    1    2    0    0 -0.18803555915E+03  0.15907773037E+03  0.95747142318E+02  0.29232791702E+03  0.12500000000E+03 0.  0.
         21    1    1    2  502  501  0.18803555915E+03 -0.15907773037E+03 -0.15506317838E+03  0.29104584707E+03  0.00000000000E+00 0. -1.
<mgrwt>
<rscale>  3 0.58035037E+03</rscale>
<asrwt>0</asrwt>
<pdfrwt beam="1">  1        1 0.40312133E-01 0.58035037E+03</pdfrwt>
<pdfrwt beam="2">  1       -1 0.49437677E-01 0.58035037E+03</pdfrwt>
<totfact> 0.43433273E+02</totfact>
</mgrwt>
</event>
<event>
 4    0  0.1264838E-002  0.5112483E+03  0.7546771E-02  0.1010884E+00
          2   -1    0    0  502    0  0.00000000000E+00  0.00000000000E+00  0.23977814771E+03  0.23977814771E+03  0.00000000000E+00 0.  1.
         -2   -1    0    0    0  501 -0.00000000000E+00 -0.00000000000E+00 -0.27251740024E+03  0.27251740024E+03  0.00000000000E+00 0. -1.
         25    1    1    2    0    0  0.22079889406E+03 -0.80154503424E+01 -0.11213760091E+03  0.27751800050E+03  0.12500000000E+03 0.  0.
         21    1    1    2  502  501 -0.22079889406E+03  0.80154503424E+01  0.79398348383E+02  0.23477754745E+03  0.00000000000E+00 0.  1.
<mgrwt>
<rscale>  3 0.51124834E+03</rscale>
<asrwt>0</asrwt>
<pdfrwt beam="1">  1        2 0.36888946E-01 0.51124834E+03</pdfrwt>
<pdfrwt beam="2">  1       -2 0.41925754E-01 0.51124834E+03</pdfrwt>
<totfact> 0.76372496E+02</totfact>
</mgrwt>
</event>
<event>
 4    0  0.1264838E-002  0.9194018E+03  0.7546771E-02  0.9401648E-01
         -1   -1    0    0    0  501 -0.00000000000E+00  0.00000000000E+00  0.15191952779E+03  0.15191952779E+03  0.00000000000E+00 0.  1.
          1   -1    0    0  502    0  0.00000000000E+00 -0.00000000000E+00 -0.13910319497E+04  0.13910319497E+04  0.00000000000E+00 0. -1.
         25    1    1    2    0    0 -0.17127864984E+03 -0.10339998317E+03 -0.13097134829E+04  0.13307901186E+04  0.12500000000E+03 0.  0.
         21    1    1    2  502  501  0.17127864984E+03  0.10339998317E+03  0.70601060977E+02  0.21216135892E+03  0.00000000000E+00 0.  1.
<mgrwt>
<rscale>  3 0.91940180E+03</rscale>
<asrwt>0</asrwt>
<pdfrwt beam="1">  1        1 0.21400492E+00 0.91940180E+03</pdfrwt>
<pdfrwt beam="2">  1       -1 0.23372235E-01 0.91940180E+03</pdfrwt>
<totfact> 0.12334452E+02</totfact>
</mgrwt>
</event>
<event>
 4    0  0.1264838E-002  0.4736082E+03  0.7546771E-02  0.1020907E+00
          1   -1    0    0  502    0  0.00000000000E+00  0.00000000000E+00  0.71120055398E+03  0.71120055398E+03  0.00000000000E+00 0.  1.
         -1   -1    0    0    0  501 -0.00000000000E+00 -0.00000000000E+00 -0.78847198889E+02  0.78847198889E+02  0.00000000000E+00 0. -1.
         25    1    1    2    0    0 -0.20577366348E+03  0.15571594162E+02  0.20952144928E+03  0.31954579145E+03  0.12500000000E+03 0.  0.
         21    1    1    2  502  501  0.20577366348E+03 -0.15571594162E+02  0.42283190581E+03  0.47050196142E+03  0.00000000000E+00 0.  1.
<mgrwt>
<rscale>  3 0.47360816E+03</rscale>
<asrwt>0</asrwt>
<pdfrwt beam="1">  1        1 0.10941547E+00 0.47360816E+03</pdfrwt>
<pdfrwt beam="2">  1       -1 0.12130339E-01 0.47360816E+03</pdfrwt>
<totfact> 0.12403958E+03</totfact>
</mgrwt>
</event>
<event>
 4    0  0.1264838E-002  0.4761539E+03  0.7546771E-02  0.1020198E+00
          1   -1    0    0  502    0  0.00000000000E+00  0.00000000000E+00  0.17869263589E+04  0.17869263589E+04  0.00000000000E+00 0.  1.
         -1   -1    0    0    0  501 -0.00000000000E+00 -0.00000000000E+00 -0.31719619448E+02  0.31719619448E+02  0.00000000000E+00 0. -1.
         25    1    1    2    0    0 -0.12547126304E+03 -0.17828816428E+03  0.10912265598E+04  0.11197902090E+04  0.12500000000E+03 0.  0.
         21    1    1    2  502  501  0.12547126304E+03  0.17828816428E+03  0.66398017962E+03  0.69885576932E+03  0.00000000000E+00 0. -1.
<mgrwt>
<rscale>  3 0.47615386E+03</rscale>
<asrwt>0</asrwt>
<pdfrwt beam="1">  1        1 0.27491167E+00 0.47615386E+03</pdfrwt>
<pdfrwt beam="2">  1       -1 0.48799428E-02 0.47615386E+03</pdfrwt>
<totfact> 0.83344651E+02</totfact>
</mgrwt>
</event>
<event>
 4    0  0.1264838E-002  0.4986425E+03  0.7546771E-02  0.1014134E+00
          2   -1    0    0  502    0  0.00000000000E+00  0.00000000000E+00  0.22372820966E+04  0.22372820966E+04  0.00000000000E+00 0.  1.
         -2   -1    0    0    0  501 -0.00000000000E+00 -0.00000000000E+00 -0.27784201998E+02  0.27784201998E+02  0.00000000000E+00 0. -1.
         25    1    1    2    0    0  0.19825859072E+03  0.11020590350E+03  0.91954042118E+03  0.95531743214E+03  0.12500000000E+03 0.  0.
         21    1    1    2  502  501 -0.19825859072E+03 -0.11020590350E+03  0.12899574735E+04  0.13097488665E+04  0.00000000000E+00 0.  1.
<mgrwt>
<rscale>  3 0.49864255E+03</rscale>
<asrwt>0</asrwt>
<pdfrwt beam="1">  1        2 0.34419710E+00 0.49864255E+03</pdfrwt>
<pdfrwt beam="2">  1       -2 0.42744944E-02 0.49864255E+03</pdfrwt>
<totfact> 0.13551055E+03</totfact>
</mgrwt>
</event>
<event>
 4    0  0.1264838E-002  0.4850551E+03  0.7546771E-02  0.1017755E+00
          2   -1    0    0  502    0  0.00000000000E+00  0.00000000000E+00  0.16616608545E+04  0.16616608545E+04  0.00000000000E+00 0.  1.
         -2   -1    0    0    0  501 -0.00000000000E+00 -0.00000000000E+00 -0.35398083260E+02  0.35398083260E+02  0.00000000000E+00 0. -1.
         25    1    1    2    0    0  0.29968941806E+02  0.20515480595E+03  0.54877216842E+03  0.59980207127E+03  0.12500000000E+03 0.  0.
         21    1    1    2  502  501 -0.29968941806E+02 -0.20515480595E+03  0.10774906028E+04  0.10972568665E+04  0.00000000000E+00 0.  1.
<mgrwt>
<rscale>  3 0.48505509E+03</rscale>
<asrwt>0</asrwt>
<pdfrwt beam="1">  1        2 0.25564007E+00 0.48505509E+03</pdfrwt>
<pdfrwt beam="2">  1       -2 0.54458602E-02 0.48505509E+03</pdfrwt>
<totfact> 0.19072690E+03</totfact>
</mgrwt>
</event>
<event>
 4    0  0.1264838E-002  0.5127047E+03  0.7546771E-02  0.1010515E+00
         -1   -1    0    0    0  501 -0.00000000000E+00  0.00000000000E+00  0.23643345286E+03  0.23643345286E+03  0.00000000000E+00 0. -1.
          1   -1    0    0  502    0  0.00000000000E+00 -0.00000000000E+00 -0.27794941367E+03  0.27794941367E+03  0.00000000000E+00 0.  1.
         25    1    1    2    0    0 -0.22727811034E+03 -0.25404505807E+02 -0.98632343795E+02  0.27866479433E+03  0.12500000000E+03 0.  0.
         21    1    1    2  502  501  0.22727811034E+03  0.25404505807E+02  0.57116382983E+02  0.23571807220E+03  0.00000000000E+00 0. -1.
<mgrwt>
<rscale>  3 0.51270475E+03</rscale>
<asrwt>0</asrwt>
<pdfrwt beam="1">  1        1 0.42761448E-01 0.51270475E+03</pdfrwt>
<pdfrwt beam="2">  1       -1 0.36374377E-01 0.51270475E+03</pdfrwt>
<totfact> 0.70634503E+02</totfact>
</mgrwt>
</event>
<event>
 4    0  0.1264838E-002  0.6676235E+03  0.7546771E-02  0.9774261E-01
         -1   -1    0    0    0  501 -0.00000000000E+00  0.00000000000E+00  0.17760426330E+03  0.17760426330E+03  0.00000000000E+00 0. -1.
          1   -1    0    0  502    0  0.00000000000E+00 -0.00000000000E+00 -0.62740762061E+03  0.62740762061E+03  0.00000000000E+00 0.  1.
         25    1    1    2    0    0  0.29953392675E+03 -0.10735789758E+03 -0.29317644987E+03  0.45035954770E+03  0.12500000000E+03 0.  0.
         21    1    1    2  502  501 -0.29953392675E+03  0.10735789758E+03 -0.15662690744E+03  0.35465233621E+03  0.00000000000E+00 0. -1.
<mgrwt>
<rscale>  3 0.66762345E+03</rscale>
<asrwt>0</asrwt>
<pdfrwt beam="1">  1        1 0.96524250E-01 0.66762345E+03</pdfrwt>
<pdfrwt beam="2">  1       -1 0.27323733E-01 0.66762345E+03</pdfrwt>
<totfact> 0.38979742E+02</totfact>
</mgrwt>
</event>
<event>
 4    0  0.1264838E-002  0.4734012E+03  0.7546771E-02  0.1020965E+00
          1   -1    0    0  502    0  0.00000000000E+00  0.00000000000E+00  0.27300985503E+04  0.27300985503E+04  0.00000000000E+00 0.  1.
         -1   -1    0    0    0  501 -0.00000000000E+00 -0.00000000000E+00 -0.20522037005E+02  0.20522037005E+02  0.00000000000E+00 0. -1.
         25    1    1    2    0    0 -0.96136430247E+02  0.19135712003E+03  0.17470647379E+04  0.17645735913E+04  0.12500000000E+03 0.  0.
         21    1    1    2  502  501  0.96136430247E+02 -0.19135712003E+03  0.96251177539E+03  0.98604699603E+03  0.00000000000E+00 0. -1.
<mgrwt>
<rscale>  3 0.47340124E+03</rscale>
<asrwt>0</asrwt>
<pdfrwt beam="1">  1        1 0.42001487E+00 0.47340124E+03</pdfrwt>
<pdfrwt beam="2">  1       -1 0.31572386E-02 0.47340124E+03</pdfrwt>
<totfact> 0.37674103E+02</totfact>
</mgrwt>
</event>
<event>
 4    0  0.1264838E-002  0.7356876E+03  0.7546771E-02  0.9658076E-01
         -1   -1    0    0    0  501 -0.00000000000E+00  0.00000000000E+00  0.17149412398E+03  0.17149412398E+03  0.00000000000E+00 0.  1.
          1   -1    0    0  502    0  0.00000000000E+00 -0.00000000000E+00 -0.78900116078E+03  0.78900116078E+03  0.00000000000E+00 0. -1.
         25    1    1    2    0    0  0.95491908080E+02  0.32159298597E+03 -0.15740222216E+03  0.39107699072E+03  0.12500000000E+03 0.  0.
         21    1    1    2  502  501 -0.95491908080E+02 -0.32159298597E+03 -0.46010481464E+03  0.56941829404E+03  0.00000000000E+00 0. -1.
<mgrwt>
<rscale>  3 0.73568760E+03</rscale>
<asrwt>0</asrwt>
<pdfrwt beam="1">  1        1 0.12138480E+00 0.73568760E+03</pdfrwt>
<pdfrwt beam="2">  1       -1 0.26383711E-01 0.73568760E+03</pdfrwt>
<totfact> 0.29168641E+02</totfact>
</mgrwt>
</event>
<event>
 4    0  0.1264838E-002  0.4630332E+03  0.7546771E-02  0.1023905E+00
          1   -1    0    0  502    0  0.00000000000E+00  0.00000000000E+00  0.12956855051E+03  0.12956855051E+03  0.00000000000E+00 0.  1.
         -1   -1    0    0    0  501 -0.00000000000E+00 -0.00000000000E+00 -0.41368018778E+03  0.41368018778E+03  0.00000000000E+00 0. -1.
         25    1    1    2    0    0  0.60430562591E+02  0.20072471800E+03 -0.20655396314E+03  0.31973708731E+03  0.12500000000E+03 0.  0.
         21    1    1    2  502  501 -0.60430562591E+02 -0.20072471800E+03 -0.77557674134E+02  0.22351165099E+03  0.00000000000E+00 0.  1.
<mgrwt>
<rscale>  3 0.46303323E+03</rscale>
<asrwt>0</asrwt>
<pdfrwt beam="1">  1        1 0.19933623E-01 0.46303323E+03</pdfrwt>
<pdfrwt beam="2">  1       -1 0.63643106E-01 0.46303323E+03</pdfrwt>
<totfact> 0.66552742E+02</totfact>
</mgrwt>
</event>
<event>
 4    0  0.1264838E-002  0.5991412E+03  0.7546771E-02  0.9907189E-01
          2   -1    0    0  502    0  0.00000000000E+00  0.00000000000E+00  0.10274781908E+03  0.10274781908E+03  0.00000000000E+00 0.  1.
         -2   -1    0    0    0  501 -0.00000000000E+00 -0.00000000000E+00 -0.87342532063E+03  0.87342532063E+03  0.00000000000E+00 0. -1.
         25    1    1    2    0    0  0.27085470105E+03 -0.50618133319E+02 -0.27407387440E+03  0.40824741657E+03  0.12500000000E+03 0.  0.
         21    1    1    2  502  501 -0.27085470105E+03  0.50618133319E+02 -0.49660362715E+03  0.56792572314E+03  0.00000000000E+00 0. -1.
<mgrwt>
<rscale>  3 0.59914121E+03</rscale>
<asrwt>0</asrwt>
<pdfrwt beam="1">  1        2 0.15807356E-01 0.59914121E+03</pdfrwt>
<pdfrwt beam="2">  1       -2 0.13437313E+00 0.59914121E+03</pdfrwt>
<totfact> 0.15245834E+02</totfact>
</mgrwt>
</event>
<event>
 4    0  0.1264838E-002  0.7035042E+03  0.7546771E-02  0.9711258E-01
         -3   -1    0    0    0  501 -0.00000000000E+00  0.00000000000E+00  0.33230042103E+03  0.33230042103E+03  0.00000000000E+00 0.  1.
          3   -1    0    0  502    0  0.00000000000E+00 -0.00000000000E+00 -0.37234237334E+03  0.37234237334E+03  0.00000000000E+00 0. -1.
         25    1    1    2    0    0  0.23007686136E+02  0.33901671911E+03 -0.44747378497E+02  0.36481367482E+03  0.12500000000E+03 0.  0.
         21    1    1    2  502  501 -0.23007686136E+02 -0.33901671911E+03  0.47054261934E+01  0.33982911955E+03  0.00000000000E+00 0.  1.
<mgrwt>
<rscale>  3 0.70350416E+03</rscale>
<asrwt>0</asrwt>
<pdfrwt beam="1">  1        3 0.57283442E-01 0.70350416E+03</pdfrwt>
<pdfrwt beam="2">  1       -3 0.51123142E-01 0.70350416E+03</pdfrwt>
<totfact> 0.29907471E+01</totfact>
</mgrwt>
</event>
<event>
 4    0  0.1264838E-002  0.6653847E+03  0.7546771E-02  0.9778331E-01
          2   -1    0    0  502    0  0.00000000000E+00  0.00000000000E+00  0.21026421793E+04  0.21026421793E+04  0.00000000000E+00 0. -1.
         -2   -1    0    0    0  501 -0.00000000000E+00 -0.00000000000E+00 -0.52640537183E+02  0.52640537183E+02  0.00000000000E+00 0.  1.
         25    1    1    2    0    0  0.23355391726E+03  0.15045337099E+03  0.15817212593E+04  0.16107919764E+04  0.12500000000E+03 0.  0.
         21    1    1    2  502  501 -0.23355391726E+03 -0.15045337099E+03  0.46828038282E+03  0.54449074009E+03  0.00000000000E+00 0. -1.
<mgrwt>
<rscale>  3 0.66538474E+03</rscale>
<asrwt>0</asrwt>
<pdfrwt beam="1">  1        2 0.32348335E+00 0.66538474E+03</pdfrwt>
<pdfrwt beam="2">  1       -2 0.80985458E-02 0.66538474E+03</pdfrwt>
<totfact> 0.58340476E+02</totfact>
</mgrwt>
</event>
<event>
 4    0  0.1264838E-002  0.4649312E+03  0.7546771E-02  0.1023361E+00
          1   -1    0    0  502    0  0.00000000000E+00  0.00000000000E+00  0.24935302078E+03  0.24935302078E+03  0.00000000000E+00 0. -1.
         -1   -1    0    0    0  501 -0.00000000000E+00 -0.00000000000E+00 -0.21672188047E+03  0.21672188047E+03  0.00000000000E+00 0.  1.
         25    1    1    2    0    0  0.18383723915E+03 -0.80077611353E+02 -0.62082720705E+02  0.24431090551E+03  0.12500000000E+03 0.  0.
         21    1    1    2  502  501 -0.18383723915E+03  0.80077611353E+02  0.94713861011E+02  0.22176399574E+03  0.00000000000E+00 0. -1.
<mgrwt>
<rscale>  3 0.46493120E+03</rscale>
<asrwt>0</asrwt>
<pdfrwt beam="1">  1        1 0.38362003E-01 0.46493120E+03</pdfrwt>
<pdfrwt beam="2">  1       -1 0.33341828E-01 0.46493120E+03</pdfrwt>
<totfact> 0.94672302E+02</totfact>
</mgrwt>
</event>
<event>
 4    0  0.1264838E-002  0.7787212E+03  0.7546771E-02  0.9591338E-01
          2   -1    0    0  502    0  0.00000000000E+00  0.00000000000E+00  0.14176754478E+04  0.14176754478E+04  0.00000000000E+00 0.  1.
         -2   -1    0    0    0  501 -0.00000000000E+00 -0.00000000000E+00 -0.10693680305E+03  0.10693680305E+03  0.00000000000E+00 0. -1.
         25    1    1    2    0    0 -0.27683370832E+03 -0.13512811091E+03  0.23889888777E+03  0.40938269015E+03  0.12500000000E+03 0.  0.
         21    1    1    2  502  501  0.27683370832E+03  0.13512811091E+03  0.10718397569E+04  0.11152295607E+04  0.00000000000E+00 0.  1.
<mgrwt>
<rscale>  3 0.77872121E+03</rscale>
<asrwt>0</asrwt>
<pdfrwt beam="1">  1        2 0.21810390E+00 0.77872121E+03</pdfrwt>
<pdfrwt beam="2">  1       -2 0.16451817E-01 0.77872121E+03</pdfrwt>
<totfact> 0.42727366E+02</totfact>
</mgrwt>
</event>
<event>
 4    0  0.1264838E-002  0.9031678E+03  0.7546771E-02  0.9421630E-01
         -2   -1    0    0    0  501 -0.00000000000E+00  0.00000000000E+00  0.21557483203E+03  0.21557483203E+03  0.00000000000E+00 0. -1.
          2   -1    0    0  502    0  0.00000000000E+00 -0.00000000000E+00 -0.94597317209E+03  0.94597317209E+03  0.00000000000E+00 0.  1.
         25    1    1    2    0    0  0.13343467045E+03  0.41106306396E+03 -0.49696893192E+03  0.67035868990E+03  0.12500000000E+03 0.  0.
         21    1    1    2  502  501 -0.13343467045E+03 -0.41106306396E+03 -0.23342940814E+03  0.49118931423E+03  0.00000000000E+00 0. -1.
<mgrwt>
<rscale>  3 0.90316778E+03</rscale>
<asrwt>0</asrwt>
<pdfrwt beam="1">  1        2 0.14553434E+00 0.90316778E+03</pdfrwt>
<pdfrwt beam="2">  1       -2 0.33165359E-01 0.90316778E+03</pdfrwt>
<totfact> 0.23219577E+02</totfact>
</mgrwt>
</event>
<event>
 4    0  0.1264838E-002  0.4683615E+03  0.7546771E-02  0.1022384E+00
         -1   -1    0    0    0  501 -0.00000000000E+00  0.00000000000E+00  0.17028413404E+02  0.17028413404E+02  0.00000000000E+00 0.  1.
          1   -1    0    0  502    0  0.00000000000E+00 -0.00000000000E+00 -0.32205362045E+04  0.32205362045E+04  0.00000000000E+00 0. -1.
         25    1    1    2    0    0  0.10322976107E+03  0.19051397765E+03 -0.18459777053E+04  0.18628501409E+04  0.12500000000E+03 0.  0.
         21    1    1    2  502  501 -0.10322976107E+03 -0.19051397765E+03 -0.13575300858E+04  0.13747144770E+04  0.00000000000E+00 0. -1.
<mgrwt>
<rscale>  3 0.46836149E+03</rscale>
<asrwt>0</asrwt>
<pdfrwt beam="1">  1        1 0.49546718E+00 0.46836149E+03</pdfrwt>
<pdfrwt beam="2">  1       -1 0.26197555E-02 0.46836149E+03</pdfrwt>
<totfact> 0.22400074E+02</totfact>
</mgrwt>
</event>
<event>
 4    0  0.1264838E-002  0.6127021E+03  0.7546771E-02  0.9879398E-01
         -2   -1    0    0    0  501 -0.00000000000E+00  0.00000000000E+00  0.41354227326E+02  0.41354227326E+02  0.00000000000E+00 0. -1.
          2   -1    0    0  502    0  0.00000000000E+00 -0.00000000000E+00 -0.22694408281E+04  0.22694408281E+04  0.00000000000E+00 0.  1.
         25    1    1    2    0    0 -0.27678773445E+03  0.97223010166E+02 -0.11162204936E+04  0.11608776654E+04  0.12500000000E+03 0.  0.
         21    1    1    2  502  501  0.27678773445E+03 -0.97223010166E+02 -0.11118661072E+04  0.11499173900E+04  0.00000000000E+00 0. -1.
<mgrwt>
<rscale>  3 0.61270212E+03</rscale>
<asrwt>0</asrwt>
<pdfrwt beam="1">  1        2 0.34914484E+00 0.61270212E+03</pdfrwt>
<pdfrwt beam="2">  1       -2 0.63621870E-02 0.61270212E+03</pdfrwt>
<totfact> 0.69577702E+02</totfact>
</mgrwt>
</event>
<event>
 4    0  0.1264838E-002  0.4426982E+03  0.7546771E-02  0.1029922E+00
         -2   -1    0    0    0  501 -0.00000000000E+00  0.00000000000E+00  0.60715717173E+02  0.60715717173E+02  0.00000000000E+00 0. -1.
          2   -1    0    0  502    0  0.00000000000E+00 -0.00000000000E+00 -0.80696436157E+03  0.80696436157E+03  0.00000000000E+00 0.  1.
         25    1    1    2    0    0 -0.18550183574E+03  0.79863359192E+02 -0.45492324891E+03  0.51319513793E+03  0.12500000000E+03 0.  0.
         21    1    1    2  502  501  0.18550183574E+03 -0.79863359192E+02 -0.29132539549E+03  0.35448494081E+03  0.00000000000E+00 0. -1.
<mgrwt>
<rscale>  3 0.44269818E+03</rscale>
<asrwt>0</asrwt>
<pdfrwt beam="1">  1        2 0.12414836E+00 0.44269818E+03</pdfrwt>
<pdfrwt beam="2">  1       -2 0.93408797E-02 0.44269818E+03</pdfrwt>
<totfact> 0.26069115E+03</totfact>
</mgrwt>
</event>
<event>
 4    0  0.1264838E-002  0.6995011E+03  0.7546771E-02  0.9718086E-01
          3   -1    0    0  502    0  0.00000000000E+00  0.00000000000E+00  0.14403294441E+04  0.14403294441E+04  0.00000000000E+00 0. -1.
         -3   -1    0    0    0  501 -0.00000000000E+00 -0.00000000000E+00 -0.84928797505E+02  0.84928797505E+02  0.00000000000E+00 0.  1.
         25    1    1    2    0    0  0.22803036266E+03  0.96812099692E+02  0.12025930839E+04  0.12341902424E+04  0.12500000000E+03 0.  0.
         21    1    1    2  502  501 -0.22803036266E+03 -0.96812099692E+02  0.15280756265E+03  0.29106799918E+03  0.00000000000E+00 0.  1.
<mgrwt>
<rscale>  3 0.69950110E+03</rscale>
<asrwt>0</asrwt>
<pdfrwt beam="1">  1        3 0.22158913E+00 0.69950110E+03</pdfrwt>
<pdfrwt beam="2">  1       -3 0.13065970E-01 0.69950110E+03</pdfrwt>
<totfact> 0.14120706E+01</totfact>
</mgrwt>
</event>
<event>
 4    0  0.1264838E-002  0.4566490E+03  0.7546771E-02  0.1025758E+00
          2   -1    0    0  502    0  0.00000000000E+00  0.00000000000E+00  0.90258883672E+02  0.90258883672E+02  0.00000000000E+00 0.  1.
         -2   -1    0    0    0  501 -0.00000000000E+00 -0.00000000000E+00 -0.57758400784E+03  0.57758400784E+03  0.00000000000E+00 0. -1.
         25    1    1    2    0    0  0.29971710577E+02  0.20421803330E+03 -0.19636922585E+03  0.31110959712E+03  0.12500000000E+03 0.  0.
         21    1    1    2  502  501 -0.29971710577E+02 -0.20421803330E+03 -0.29095589832E+03  0.35673329439E+03  0.00000000000E+00 0.  1.
<mgrwt>
<rscale>  3 0.45664905E+03</rscale>
<asrwt>0</asrwt>
<pdfrwt beam="1">  1        2 0.13885982E-01 0.45664905E+03</pdfrwt>
<pdfrwt beam="2">  1       -2 0.88859080E-01 0.45664905E+03</pdfrwt>
<totfact> 0.48380267E+02</totfact>
</mgrwt>
</event>
<event>
 4    0  0.1264838E-002  0.6212976E+03  0.7546771E-02  0.9862179E-01
          2   -1    0    0  502    0  0.00000000000E+00  0.00000000000E+00  0.18237791456E+04  0.18237791456E+04  0.00000000000E+00 0. -1.
         -2   -1    0    0    0  501 -0.00000000000E+00 -0.00000000000E+00 -0.52913584730E+02  0.52913584730E+02  0.00000000000E+00 0.  1.
         25    1    1    2    0    0  0.11399653637E+03  0.21625891512E+03  0.14364182919E+04  0.14624245752E+04  0.12500000000E+03 0.  0.
         21    1    1    2  502  501 -0.11399653637E+03 -0.21625891512E+03  0.33444726891E+03  0.41426815513E+03  0.00000000000E+00 0.  1.
<mgrwt>
<rscale>  3 0.62129765E+03</rscale>
<asrwt>0</asrwt>
<pdfrwt beam="1">  1        2 0.28058136E+00 0.62129765E+03</pdfrwt>
<pdfrwt beam="2">  1       -2 0.81405529E-02 0.62129765E+03</pdfrwt>
<totfact> 0.82240807E+02</totfact>
</mgrwt>
</event>
<event>
 4    0  0.1264838E-002  0.6158818E+03  0.7546771E-02  0.9872993E-01
         -1   -1    0    0    0  501 -0.00000000000E+00  0.00000000000E+00  0.67675525375E+02  0.67675525375E+02  0.00000000000E+00 0. -1.
          1   -1    0    0  502    0  0.00000000000E+00 -0.00000000000E+00 -0.14012097527E+04  0.14012097527E+04  0.00000000000E+00 0.  1.
         25    1    1    2    0    0  0.17021666740E+03 -0.21788752264E+03 -0.44721097539E+03  0.54043625238E+03  0.12500000000E+03 0.  0.
         21    1    1    2  502  501 -0.17021666740E+03  0.21788752264E+03 -0.88632325196E+03  0.92844902572E+03  0.00000000000E+00 0.  1.
<mgrwt>
<rscale>  3 0.61588183E+03</rscale>
<asrwt>0</asrwt>
<pdfrwt beam="1">  1        1 0.21557073E+00 0.61588183E+03</pdfrwt>
<pdfrwt beam="2">  1       -1 0.10411619E-01 0.61588183E+03</pdfrwt>
<totfact> 0.46440587E+02</totfact>
</mgrwt>
</event>
<event>
 4    0  0.1264838E-002  0.9807216E+03  0.7546771E-02  0.9329945E-01
          2   -1    0    0  502    0  0.00000000000E+00  0.00000000000E+00  0.24463002080E+04  0.24463002080E+04  0.00000000000E+00 0.  1.
         -2   -1    0    0    0  501 -0.00000000000E+00 -0.00000000000E+00 -0.98292797954E+02  0.98292797954E+02  0.00000000000E+00 0. -1.
         25    1    1    2    0    0  0.38735332053E+03 -0.20323826937E+03  0.17207225062E+04  0.17798481206E+04  0.12500000000E+03 0.  0.
         21    1    1    2  502  501 -0.38735332053E+03  0.20323826937E+03  0.62728490377E+03  0.76474488527E+03  0.00000000000E+00 0. -1.
<mgrwt>
<rscale>  3 0.98072155E+03</rscale>
<asrwt>0</asrwt>
<pdfrwt beam="1">  1        2 0.37635383E+00 0.98072155E+03</pdfrwt>
<pdfrwt beam="2">  1       -2 0.15121971E-01 0.98072155E+03</pdfrwt>
<totfact> 0.13099776E+02</totfact>
</mgrwt>
</event>
<event>
 4    0  0.1264838E-002  0.5009384E+03  0.7546771E-02  0.1013534E+00
          1   -1    0    0  502    0  0.00000000000E+00  0.00000000000E+00  0.31976684578E+04  0.31976684578E+04  0.00000000000E+00 0. -1.
         -1   -1    0    0    0  501 -0.00000000000E+00 -0.00000000000E+00 -0.19618928496E+02  0.19618928496E+02  0.00000000000E+00 0.  1.
         25    1    1    2    0    0  0.11963447994E+03 -0.16506041184E+03  0.24371811899E+04  0.24488843380E+04  0.12500000000E+03 0.  0.
         21    1    1    2  502  501 -0.11963447994E+03  0.16506041184E+03  0.74086833940E+03  0.76840304833E+03  0.00000000000E+00 0.  1.
<mgrwt>
<rscale>  3 0.50093843E+03</rscale>
<asrwt>0</asrwt>
<pdfrwt beam="1">  1        1 0.49194858E+00 0.50093843E+03</pdfrwt>
<pdfrwt beam="2">  1       -1 0.30182992E-02 0.50093843E+03</pdfrwt>
<totfact> 0.18743371E+02</totfact>
</mgrwt>
</event>
<event>
 4    0  0.1264838E-002  0.4464737E+03  0.7546771E-02  0.1028779E+00
         -2   -1    0    0    0  501 -0.00000000000E+00  0.00000000000E+00  0.68242306289E+02  0.68242306289E+02  0.00000000000E+00 0.  1.
          2   -1    0    0  502    0  0.00000000000E+00 -0.00000000000E+00 -0.73026082417E+03  0.73026082417E+03  0.00000000000E+00 0. -1.
         25    1    1    2    0    0  0.99153357959E+02  0.17496408208E+03 -0.43459503229E+03  0.49491581153E+03  0.12500000000E+03 0.  0.
         21    1    1    2  502  501 -0.99153357959E+02 -0.17496408208E+03 -0.22742348559E+03  0.30358731892E+03  0.00000000000E+00 0.  1.
<mgrwt>
<rscale>  3 0.44647366E+03</rscale>
<asrwt>0</asrwt>
<pdfrwt beam="1">  1        2 0.11234782E+00 0.44647366E+03</pdfrwt>
<pdfrwt beam="2">  1       -2 0.10498817E-01 0.44647366E+03</pdfrwt>
<totfact> 0.24546253E+03</totfact>
</mgrwt>
</event>
<event>
 4    0  0.1264838E-002  0.4533894E+03  0.7546771E-02  0.1026716E+00
         -2   -1    0    0    0  501 -0.00000000000E+00  0.00000000000E+00  0.21783753493E+03  0.21783753493E+03  0.00000000000E+00 0. -1.
          2   -1    0    0  502    0  0.00000000000E+00 -0.00000000000E+00 -0.23591194660E+03  0.23591194660E+03  0.00000000000E+00 0.  1.
         25    1    1    2    0    0  0.24831265306E+02  0.20370169996E+03 -0.51756556242E+02  0.24579405082E+03  0.12500000000E+03 0.  0.
         21    1    1    2  502  501 -0.24831265306E+02 -0.20370169996E+03  0.33682144572E+02  0.20795543072E+03  0.00000000000E+00 0. -1.
<mgrwt>
<rscale>  3 0.45338936E+03</rscale>
<asrwt>0</asrwt>
<pdfrwt beam="1">  1        2 0.36294145E-01 0.45338936E+03</pdfrwt>
<pdfrwt beam="2">  1       -2 0.33513467E-01 0.45338936E+03</pdfrwt>
<totfact> 0.11928265E+03</totfact>
</mgrwt>
</event>
<event>
 4    0  0.1264838E-002  0.7963578E+03  0.7546771E-02  0.9565304E-01
          2   -1    0    0  502    0  0.00000000000E+00  0.00000000000E+00  0.80691242193E+03  0.80691242193E+03  0.00000000000E+00 0.  1.
         -2   -1    0    0    0  501 -0.00000000000E+00 -0.00000000000E+00 -0.19648530380E+03  0.19648530380E+03  0.00000000000E+00 0. -1.
         25    1    1    2    0    0 -0.73679045433E+02  0.36936311948E+03  0.43208287845E+03  0.58666713699E+03  0.12500000000E+03 0.  0.
         21    1    1    2  502  501  0.73679045433E+02 -0.36936311948E+03  0.17834423968E+03  0.41673058875E+03  0.00000000000E+00 0. -1.
<mgrwt>
<rscale>  3 0.79635779E+03</rscale>
<asrwt>0</asrwt>
<pdfrwt beam="1">  1        2 0.12414037E+00 0.79635779E+03</pdfrwt>
<pdfrwt beam="2">  1       -2 0.30228509E-01 0.79635779E+03</pdfrwt>
<totfact> 0.34579515E+02</totfact>
</mgrwt>
</event>
<event>
 4    0  0.1264838E-002  0.4429772E+03  0.7546771E-02  0.1029837E+00
         -2   -1    0    0    0  501 -0.00000000000E+00  0.00000000000E+00  0.67705303299E+02  0.67705303299E+02  0.00000000000E+00 0. -1.
          2   -1    0    0  502    0  0.00000000000E+00 -0.00000000000E+00 -0.72456965439E+03  0.72456965439E+03  0.00000000000E+00 0.  1.
         25    1    1    2    0    0 -0.17835144970E+03 -0.90925794284E+02 -0.28580123702E+03  0.37065359402E+03  0.12500000000E+03 0.  0.
         21    1    1    2  502  501  0.17835144970E+03  0.90925794284E+02 -0.37106311407E+03  0.42162136367E+03  0.00000000000E+00 0.  1.
<mgrwt>
<rscale>  3 0.44297724E+03</rscale>
<asrwt>0</asrwt>
<pdfrwt beam="1">  1        2 0.11147224E+00 0.44297724E+03</pdfrwt>
<pdfrwt beam="2">  1       -2 0.10416201E-01 0.44297724E+03</pdfrwt>
<totfact> 0.25105804E+03</totfact>
</mgrwt>
</event>
<event>
 4    0  0.1264838E-002  0.4919287E+03  0.7546771E-02  0.1015907E+00
          1   -1    0    0  502    0  0.00000000000E+00  0.00000000000E+00  0.26388525165E+04  0.26388525165E+04  0.00000000000E+00 0. -1.
         -1   -1    0    0    0  501 -0.00000000000E+00 -0.00000000000E+00 -0.22926049156E+02  0.22926049156E+02  0.00000000000E+00 0.  1.
         25    1    1    2    0    0  0.13576545946E+03 -0.17479948668E+03  0.10522998796E+04  0.10825650821E+04  0.12500000000E+03 0.  0.
         21    1    1    2  502  501 -0.13576545946E+03  0.17479948668E+03  0.15636265878E+04  0.15792134835E+04  0.00000000000E+00 0.  1.
<mgrwt>
<rscale>  3 0.49192870E+03</rscale>
<asrwt>0</asrwt>
<pdfrwt beam="1">  1        1 0.40597707E+00 0.49192870E+03</pdfrwt>
<pdfrwt beam="2">  1       -1 0.35270866E-02 0.49192870E+03</pdfrwt>
<totfact> 0.36759479E+02</totfact>
</mgrwt>
</event>
<event>
 4    0  0.1264838E-002  0.6289657E+03  0.7546771E-02  0.9847069E-01
          2   -1    0    0  502    0  0.00000000000E+00  0.00000000000E+00  0.10515235705E+04  0.10515235705E+04  0.00000000000E+00 0. -1.
         -2   -1    0    0    0  501 -0.00000000000E+00 -0.00000000000E+00 -0.94053484726E+02  0.94053484726E+02  0.00000000000E+00 0.  1.
         25    1    1    2    0    0  0.13249465286E+02  0.29165179494E+03  0.63878405662E+03  0.71337675097E+03  0.12500000000E+03 0.  0.
         21    1    1    2  502  501 -0.13249465286E+02 -0.29165179494E+03  0.31868602915E+03  0.43220030426E+03  0.00000000000E+00 0. -1.
<mgrwt>
<rscale>  3 0.62896568E+03</rscale>
<asrwt>0</asrwt>
<pdfrwt beam="1">  1        2 0.16177285E+00 0.62896568E+03</pdfrwt>
<pdfrwt beam="2">  1       -2 0.14469768E-01 0.62896568E+03</pdfrwt>
<totfact> 0.87716126E+02</totfact>
</mgrwt>
</event>
<event>
 4    0  0.1264838E-002  0.5576626E+03  0.7546771E-02  0.9997357E-01
          2   -1    0    0  502    0  0.00000000000E+00  0.00000000000E+00  0.29804392382E+04  0.29804392382E+04  0.00000000000E+00 0.  1.
         -2   -1    0    0    0  501 -0.00000000000E+00 -0.00000000000E+00 -0.26085716875E+02  0.26085716875E+02  0.00000000000E+00 0. -1.
         25    1    1    2    0    0  0.22823048161E+03 -0.88039803246E+02  0.20982992544E+04  0.21162053116E+04  0.12500000000E+03 0.  0.
         21    1    1    2  502  501 -0.22823048161E+03  0.88039803246E+02  0.85605426688E+03  0.89031964346E+03  0.00000000000E+00 0. -1.
<mgrwt>
<rscale>  3 0.55766260E+03</rscale>
<asrwt>0</asrwt>
<pdfrwt beam="1">  1        2 0.45852884E+00 0.55766260E+03</pdfrwt>
<pdfrwt beam="2">  1       -2 0.40131896E-02 0.55766260E+03</pdfrwt>
<totfact> 0.55918377E+02</totfact>
</mgrwt>
</event>
<event>
 4    0  0.1264838E-002  0.4857204E+03  0.7546771E-02  0.1017575E+00
         -2   -1    0    0    0  501 -0.00000000000E+00  0.00000000000E+00  0.30416876015E+02  0.30416876015E+02  0.00000000000E+00 0. -1.
          2   -1    0    0  502    0  0.00000000000E+00 -0.00000000000E+00 -0.19390906779E+04  0.19390906779E+04  0.00000000000E+00 0.  1.
         25    1    1    2    0    0 -0.56410880805E+01  0.22470725873E+03 -0.11393287985E+04  0.11679984097E+04  0.12500000000E+03 0.  0.
         21    1    1    2  502  501  0.56410880805E+01 -0.22470725873E+03 -0.76934500333E+03  0.80150914415E+03  0.00000000000E+00 0. -1.
<mgrwt>
<rscale>  3 0.48572042E+03</rscale>
<asrwt>0</asrwt>
<pdfrwt beam="1">  1        2 0.29832164E+00 0.48572042E+03</pdfrwt>
<pdfrwt beam="2">  1       -2 0.46795194E-02 0.48572042E+03</pdfrwt>
<totfact> 0.17101009E+03</totfact>
</mgrwt>
</event>
<event>
 4    0  0.1264838E-002  0.4596966E+03  0.7546771E-02  0.1024869E+00
          2   -1    0    0  502    0  0.00000000000E+00  0.00000000000E+00  0.32774008920E+04  0.32774008920E+04  0.00000000000E+00 0.  1.
         -2   -1    0    0    0  501 -0.00000000000E+00 -0.00000000000E+00 -0.16119553379E+02  0.16119553379E+02  0.00000000000E+00 0. -1.
         25    1    1    2    0    0  0.19534953201E+03 -0.82870340945E+02  0.16318317368E+04  0.16503117130E+04  0.12500000000E+03 0.  0.
         21    1    1    2  502  501 -0.19534953201E+03  0.82870340945E+02  0.16294496019E+04  0.16432087323E+04  0.00000000000E+00 0.  1.
<mgrwt>
<rscale>  3 0.45969659E+03</rscale>
<asrwt>0</asrwt>
<pdfrwt beam="1">  1        2 0.50421499E+00 0.45969659E+03</pdfrwt>
<pdfrwt beam="2">  1       -2 0.24799339E-02 0.45969659E+03</pdfrwt>
<totfact> 0.76852744E+02</totfact>
</mgrwt>
</event>
<event>
 4    0  0.1264838E-002  0.4669434E+03  0.7546771E-02  0.1022786E+00
         -1   -1    0    0    0  501 -0.00000000000E+00  0.00000000000E+00  0.74186554985E+02  0.74186554985E+02  0.00000000000E+00 0.  1.
          1   -1    0    0  502    0  0.00000000000E+00 -0.00000000000E+00 -0.73475638055E+03  0.73475638055E+03  0.00000000000E+00 0. -1.
         25    1    1    2    0    0 -0.16133319365E+03 -0.12046901864E+03 -0.21497859061E+03  0.31997183977E+03  0.12500000000E+03 0.  0.
         21    1    1    2  502  501  0.16133319365E+03  0.12046901864E+03 -0.44559123495E+03  0.48897109576E+03  0.00000000000E+00 0. -1.
<mgrwt>
<rscale>  3 0.46694344E+03</rscale>
<asrwt>0</asrwt>
<pdfrwt beam="1">  1        1 0.11303944E+00 0.46694344E+03</pdfrwt>
<pdfrwt beam="2">  1       -1 0.11413317E-01 0.46694344E+03</pdfrwt>
<totfact> 0.13006857E+03</totfact>
</mgrwt>
</event>
<event>
 4    0  0.1264838E-002  0.5737606E+03  0.7546771E-02  0.9961391E-01
          2   -1    0    0  502    0  0.00000000000E+00  0.00000000000E+00  0.53191285449E+03  0.53191285449E+03  0.00000000000E+00 0. -1.
         -2   -1    0    0    0  501 -0.00000000000E+00 -0.00000000000E+00 -0.15472516612E+03  0.15472516612E+03  0.00000000000E+00 0.  1.
         25    1    1    2    0    0 -0.19706077765E+03 -0.13828887449E+03  0.42817076728E+02  0.27461803465E+03  0.12500000000E+03 0.  0.
         21    1    1    2  502  501  0.19706077765E+03  0.13828887449E+03  0.33437061165E+03  0.41201998596E+03  0.00000000000E+00 0.  1.
<mgrwt>
<rscale>  3 0.57376059E+03</rscale>
<asrwt>0</asrwt>
<pdfrwt beam="1">  1        2 0.81832746E-01 0.57376059E+03</pdfrwt>
<pdfrwt beam="2">  1       -2 0.23803872E-01 0.57376059E+03</pdfrwt>
<totfact> 0.90038670E+02</totfact>
</mgrwt>
</event>
<event>
 4    0  0.1264838E-002  0.5497702E+03  0.7546771E-02  0.1001547E+00
         -2   -1    0    0    0  501 -0.00000000000E+00  0.00000000000E+00  0.27465693788E+03  0.27465693788E+03  0.00000000000E+00 0. -1.
          2   -1    0    0  502    0  0.00000000000E+00 -0.00000000000E+00 -0.27511346946E+03  0.27511346946E+03  0.00000000000E+00 0.  1.
         25    1    1    2    0    0  0.17926738589E+03 -0.18734390576E+03 -0.27011818659E+02  0.28911792233E+03  0.12500000000E+03 0.  0.
         21    1    1    2  502  501 -0.17926738589E+03  0.18734390576E+03  0.26555287081E+02  0.26065248500E+03  0.00000000000E+00 0. -1.
<mgrwt>
<rscale>  3 0.54977022E+03</rscale>
<asrwt>0</asrwt>
<pdfrwt beam="1">  1        2 0.42325149E-01 0.54977022E+03</pdfrwt>
<pdfrwt beam="2">  1       -2 0.42254914E-01 0.54977022E+03</pdfrwt>
<totfact> 0.64605290E+02</totfact>
</mgrwt>
</event>
<event>
 4    0  0.1383795E-002  0.5330591E+03  0.7546771E-02  0.1005493E+00
         -1   -1    0    0    0  501 -0.00000000000E+00  0.00000000000E+00  0.36157099750E+02  0.36157099750E+02  0.00000000000E+00 0. -1.
          1   -1    0    0  502    0  0.00000000000E+00 -0.00000000000E+00 -0.19647037815E+04  0.19647037815E+04  0.00000000000E+00 0.  1.
         25    1    1    2    0    0  0.88329789207E+02 -0.18358772310E+03 -0.46139610236E+03  0.51963253074E+03  0.12500000000E+03 0.  0.
         21    1    1    2  502  501 -0.88329789207E+02  0.18358772310E+03 -0.14671505794E+04  0.14812283505E+04  0.00000000000E+00 0.  1.
<mgrwt>
<rscale>  3 0.53305906E+03</rscale>
<asrwt>0</asrwt>
<pdfrwt beam="1">  1        1 0.30226212E+00 0.53305906E+03</pdfrwt>
<pdfrwt beam="2">  1       -1 0.55626308E-02 0.53305906E+03</pdfrwt>
<totfact> 0.51835544E+02</totfact>
</mgrwt>
</event>
<event>
 4    0  0.1264838E-002  0.7814739E+03  0.7546771E-02  0.9587227E-01
         -2   -1    0    0    0  501 -0.00000000000E+00  0.00000000000E+00  0.26453163550E+03  0.26453163550E+03  0.00000000000E+00 0.  1.
          2   -1    0    0  502    0  0.00000000000E+00 -0.00000000000E+00 -0.57715356318E+03  0.57715356318E+03  0.00000000000E+00 0. -1.
         25    1    1    2    0    0  0.22773823442E+03  0.29421339527E+03 -0.73231733757E+02  0.39926696858E+03  0.12500000000E+03 0.  0.
         21    1    1    2  502  501 -0.22773823442E+03 -0.29421339527E+03 -0.23939019392E+03  0.44241823009E+03  0.00000000000E+00 0.  1.
<mgrwt>
<rscale>  3 0.78147393E+03</rscale>
<asrwt>0</asrwt>
<pdfrwt beam="1">  1        2 0.88792855E-01 0.78147393E+03</pdfrwt>
<pdfrwt beam="2">  1       -2 0.40697175E-01 0.78147393E+03</pdfrwt>
<totfact> 0.29907830E+02</totfact>
</mgrwt>
</event>
<event>
 4    0  0.1264838E-002  0.4820832E+03  0.7546771E-02  0.1018564E+00
          2   -1    0    0  502    0  0.00000000000E+00  0.00000000000E+00  0.35509287602E+03  0.35509287602E+03  0.00000000000E+00 0.  1.
         -2   -1    0    0    0  501 -0.00000000000E+00 -0.00000000000E+00 -0.16362209714E+03  0.16362209714E+03  0.00000000000E+00 0. -1.
         25    1    1    2    0    0  0.22327342541E+03 -0.24814622521E+02  0.11205562247E+03  0.28044295412E+03  0.12500000000E+03 0.  0.
         21    1    1    2  502  501 -0.22327342541E+03  0.24814622521E+02  0.79415156405E+02  0.23827201903E+03  0.00000000000E+00 0. -1.
<mgrwt>
<rscale>  3 0.48208315E+03</rscale>
<asrwt>0</asrwt>
<pdfrwt beam="1">  1        2 0.54629673E-01 0.48208315E+03</pdfrwt>
<pdfrwt beam="2">  1       -2 0.25172630E-01 0.48208315E+03</pdfrwt>
<totfact> 0.12854188E+03</totfact>
</mgrwt>
</event>
<event>
 4    0  0.1264838E-002  0.4579885E+03  0.7546771E-02  0.1025366E+00
          2   -1    0    0  502    0  0.00000000000E+00  0.00000000000E+00  0.16780570673E+04  0.16780570673E+04  0.00000000000E+00 0.  1.
         -2   -1    0    0    0  501 -0.00000000000E+00 -0.00000000000E+00 -0.31249454198E+02  0.31249454198E+02  0.00000000000E+00 0. -1.
         25    1    1    2    0    0 -0.17944074641E+03 -0.10004684303E+03  0.69050493366E+03  0.73118425563E+03  0.12500000000E+03 0.  0.
         21    1    1    2  502  501  0.17944074641E+03  0.10004684303E+03  0.95630267942E+03  0.97812226585E+03  0.00000000000E+00 0.  1.
<mgrwt>
<rscale>  3 0.45798850E+03</rscale>
<asrwt>0</asrwt>
<pdfrwt beam="1">  1        2 0.25816256E+00 0.45798850E+03</pdfrwt>
<pdfrwt beam="2">  1       -2 0.48076096E-02 0.45798850E+03</pdfrwt>
<totfact> 0.22679103E+03</totfact>
</mgrwt>
</event>
<event>
 4    0  0.1264838E-002  0.4708704E+03  0.7546771E-02  0.1021675E+00
         -2   -1    0    0    0  501 -0.00000000000E+00  0.00000000000E+00  0.93152713266E+02  0.93152713266E+02  0.00000000000E+00 0.  1.
          2   -1    0    0  502    0  0.00000000000E+00 -0.00000000000E+00 -0.59504160420E+03  0.59504160420E+03  0.00000000000E+00 0. -1.
         25    1    1    2    0    0  0.13455415086E+03  0.17251164599E+03 -0.27628419304E+03  0.37392919496E+03  0.12500000000E+03 0.  0.
         21    1    1    2  502  501 -0.13455415086E+03 -0.17251164599E+03 -0.22560469789E+03  0.31426512251E+03  0.00000000000E+00 0.  1.
<mgrwt>
<rscale>  3 0.47087043E+03</rscale>
<asrwt>0</asrwt>
<pdfrwt beam="1">  1        2 0.91544860E-01 0.47087043E+03</pdfrwt>
<pdfrwt beam="2">  1       -2 0.14331187E-01 0.47087043E+03</pdfrwt>
<totfact> 0.18911368E+03</totfact>
</mgrwt>
</event>
<event>
 4    0  0.1264838E-002  0.5092040E+03  0.7546771E-02  0.1011404E+00
          2   -1    0    0  502    0  0.00000000000E+00  0.00000000000E+00  0.11878943328E+04  0.11878943328E+04  0.00000000000E+00 0. -1.
         -2   -1    0    0    0  501 -0.00000000000E+00 -0.00000000000E+00 -0.54568976947E+02  0.54568976947E+02  0.00000000000E+00 0.  1.
         25    1    1    2    0    0 -0.13528238399E+03 -0.19371739626E+03  0.69267019221E+03  0.74245858349E+03  0.12500000000E+03 0.  0.
         21    1    1    2  502  501  0.13528238399E+03  0.19371739626E+03  0.44065516368E+03  0.50000472629E+03  0.00000000000E+00 0.  1.
<mgrwt>
<rscale>  3 0.50920400E+03</rscale>
<asrwt>0</asrwt>
<pdfrwt beam="1">  1        2 0.18275296E+00 0.50920400E+03</pdfrwt>
<pdfrwt beam="2">  1       -2 0.83952281E-02 0.50920400E+03</pdfrwt>
<totfact> 0.17733410E+03</totfact>
</mgrwt>
</event>
<event>
 4    0  0.1264838E-002  0.5748961E+03  0.7546771E-02  0.9958902E-01
          1   -1    0    0  502    0  0.00000000000E+00  0.00000000000E+00  0.37634121373E+03  0.37634121373E+03  0.00000000000E+00 0.  1.
         -1   -1    0    0    0  501 -0.00000000000E+00 -0.00000000000E+00 -0.21955178544E+03  0.21955178544E+03  0.00000000000E+00 0. -1.
         25    1    1    2    0    0  0.18369682960E+03  0.17806548332E+03 -0.19174945923E+02  0.28538486314E+03  0.12500000000E+03 0.  0.
         21    1    1    2  502  501 -0.18369682960E+03 -0.17806548332E+03  0.17596437421E+03  0.31050813604E+03  0.00000000000E+00 0.  1.
<mgrwt>
<rscale>  3 0.57489611E+03</rscale>
<asrwt>0</asrwt>
<pdfrwt beam="1">  1        1 0.57898648E-01 0.57489611E+03</pdfrwt>
<pdfrwt beam="2">  1       -1 0.33777198E-01 0.57489611E+03</pdfrwt>
<totfact> 0.54357346E+02</totfact>
</mgrwt>
</event>
<event>
 4    0  0.1264838E-002  0.5878519E+03  0.7546771E-02  0.9930935E-01
         -2   -1    0    0    0  501 -0.00000000000E+00  0.00000000000E+00  0.28403802271E+02  0.28403802271E+02  0.00000000000E+00 0.  1.
          2   -1    0    0  502    0  0.00000000000E+00 -0.00000000000E+00 -0.30415809384E+04  0.30415809384E+04  0.00000000000E+00 0. -1.
         25    1    1    2    0    0 -0.35855874370E+02 -0.27803905276E+03 -0.15075804937E+04  0.15385107421E+04  0.12500000000E+03 0.  0.
         21    1    1    2  502  501  0.35855874370E+02  0.27803905276E+03 -0.15055966424E+04  0.15314739985E+04  0.00000000000E+00 0. -1.
<mgrwt>
<rscale>  3 0.58785190E+03</rscale>
<asrwt>0</asrwt>
<pdfrwt beam="1">  1        2 0.46793524E+00 0.58785190E+03</pdfrwt>
<pdfrwt beam="2">  1       -2 0.43698184E-02 0.58785190E+03</pdfrwt>
<totfact> 0.44872111E+02</totfact>
</mgrwt>
</event>
<event>
 4    0  0.1264838E-002  0.5220993E+03  0.7546771E-02  0.1008166E+00
         -2   -1    0    0    0  501 -0.00000000000E+00  0.00000000000E+00  0.21950768378E+02  0.21950768378E+02  0.00000000000E+00 0.  1.
          2   -1    0    0  502    0  0.00000000000E+00 -0.00000000000E+00 -0.31045344705E+04  0.31045344705E+04  0.00000000000E+00 0. -1.
         25    1    1    2    0    0 -0.24509972067E+03  0.65734512765E+01 -0.17554292517E+04  0.17768719540E+04  0.12500000000E+03 0.  0.
         21    1    1    2  502  501  0.24509972067E+03 -0.65734512765E+01 -0.13271544504E+04  0.13496132848E+04  0.00000000000E+00 0. -1.
<mgrwt>
<rscale>  3 0.52209929E+03</rscale>
<asrwt>0</asrwt>
<pdfrwt beam="1">  1        2 0.47762076E+00 0.52209929E+03</pdfrwt>
<pdfrwt beam="2">  1       -2 0.33770408E-02 0.52209929E+03</pdfrwt>
<totfact> 0.61383150E+02</totfact>
</mgrwt>
</event>
<event>
 4    0  0.1264838E-002  0.6508775E+03  0.7546771E-02  0.9805134E-01
         -2   -1    0    0    0  501 -0.00000000000E+00  0.00000000000E+00  0.13945949106E+03  0.13945949106E+03  0.00000000000E+00 0.  1.
          2   -1    0    0  502    0  0.00000000000E+00 -0.00000000000E+00 -0.75943477281E+03  0.75943477281E+03  0.00000000000E+00 0. -1.
         25    1    1    2    0    0 -0.15137989928E+03  0.22107620910E+03 -0.96808440654E+02  0.31110679568E+03  0.12500000000E+03 0.  0.
         21    1    1    2  502  501  0.15137989928E+03 -0.22107620910E+03 -0.52316684110E+03  0.58778746819E+03  0.00000000000E+00 0. -1.
<mgrwt>
<rscale>  3 0.65087752E+03</rscale>
<asrwt>0</asrwt>
<pdfrwt beam="1">  1        2 0.11683612E+00 0.65087752E+03</pdfrwt>
<pdfrwt beam="2">  1       -2 0.21455307E-01 0.65087752E+03</pdfrwt>
<totfact> 0.69954577E+02</totfact>
</mgrwt>
</event>
<event>
 4    0  0.1264838E-002  0.7591168E+03  0.7546771E-02  0.9621155E-01
          2   -1    0    0  502    0  0.00000000000E+00  0.00000000000E+00  0.16953620551E+04  0.16953620551E+04  0.00000000000E+00 0. -1.
         -2   -1    0    0    0  501 -0.00000000000E+00 -0.00000000000E+00 -0.84975701861E+02  0.84975701861E+02  0.00000000000E+00 0.  1.
         25    1    1    2    0    0  0.32008471086E+03  0.14169239402E+03  0.11028028813E+04  0.11637569126E+04  0.12500000000E+03 0.  0.
         21    1    1    2  502  501 -0.32008471086E+03 -0.14169239402E+03  0.50758347202E+03  0.61658084442E+03  0.00000000000E+00 0.  1.
<mgrwt>
<rscale>  3 0.75911680E+03</rscale>
<asrwt>0</asrwt>
<pdfrwt beam="1">  1        2 0.26082491E+00 0.75911680E+03</pdfrwt>
<pdfrwt beam="2">  1       -2 0.13073186E-01 0.75911680E+03</pdfrwt>
<totfact> 0.44237262E+02</totfact>
</mgrwt>
</event>
<event>
 4    0  0.1264838E-002  0.6155961E+03  0.7546771E-02  0.9873567E-01
         -2   -1    0    0    0  501 -0.00000000000E+00  0.00000000000E+00  0.69540770689E+02  0.69540770689E+02  0.00000000000E+00 0. -1.
          2   -1    0    0  502    0  0.00000000000E+00 -0.00000000000E+00 -0.13623610536E+04  0.13623610536E+04  0.00000000000E+00 0.  1.
         25    1    1    2    0    0  0.25098944462E+03  0.13582877302E+03 -0.49832993088E+03  0.58770985775E+03  0.12500000000E+03 0.  0.
         21    1    1    2  502  501 -0.25098944462E+03 -0.13582877302E+03 -0.79449035200E+03  0.84419196650E+03  0.00000000000E+00 0.  1.
<mgrwt>
<rscale>  3 0.61559609E+03</rscale>
<asrwt>0</asrwt>
<pdfrwt beam="1">  1        2 0.20959401E+00 0.61559609E+03</pdfrwt>
<pdfrwt beam="2">  1       -2 0.10698580E-01 0.61559609E+03</pdfrwt>
<totfact> 0.94904601E+02</totfact>
</mgrwt>
</event>
<event>
 4    0  0.1264838E-002  0.6067452E+03  0.7546771E-02  0.9891510E-01
          2   -1    0    0  502    0  0.00000000000E+00  0.00000000000E+00  0.19546115785E+04  0.19546115785E+04  0.00000000000E+00 0.  1.
         -2   -1    0    0    0  501 -0.00000000000E+00 -0.00000000000E+00 -0.47086051574E+02  0.47086051574E+02  0.00000000000E+00 0. -1.
         25    1    1    2    0    0 -0.89909253041E+01 -0.28533430474E+03  0.81683625073E+03  0.87426710032E+03  0.12500000000E+03 0.  0.
         21    1    1    2  502  501  0.89909253041E+01  0.28533430474E+03  0.10906892762E+04  0.11274305297E+04  0.00000000000E+00 0.  1.
<mgrwt>
<rscale>  3 0.60674522E+03</rscale>
<asrwt>0</asrwt>
<pdfrwt beam="1">  1        2 0.30070941E+00 0.60674522E+03</pdfrwt>
<pdfrwt beam="2">  1       -2 0.72440094E-02 0.60674522E+03</pdfrwt>
<totfact> 0.84193287E+02</totfact>
</mgrwt>
</event>
<event>
 4    0  0.1308828E-002  0.5391714E+03  0.7546771E-02  0.1004032E+00
         -2   -1    0    0    0  501 -0.00000000000E+00  0.00000000000E+00  0.51263572496E+02  0.51263572496E+02  0.00000000000E+00 0. -1.
          2   -1    0    0  502    0  0.00000000000E+00 -0.00000000000E+00 -0.14177018342E+04  0.14177018342E+04  0.00000000000E+00 0.  1.
         25    1    1    2    0    0  0.16656457707E+03  0.14319026072E+03 -0.36652671966E+03  0.44521235981E+03  0.12500000000E+03 0.  0.
         21    1    1    2  502  501 -0.16656457707E+03 -0.14319026072E+03 -0.99991154201E+03  0.10237530469E+04  0.00000000000E+00 0.  1.
<mgrwt>
<rscale>  3 0.53917144E+03</rscale>
<asrwt>0</asrwt>
<pdfrwt beam="1">  1        2 0.21810796E+00 0.53917144E+03</pdfrwt>
<pdfrwt beam="2">  1       -2 0.78867039E-02 0.53917144E+03</pdfrwt>
<totfact> 0.14477948E+03</totfact>
</mgrwt>
</event>
<event>
 4    0  0.1264838E-002  0.6768736E+03  0.7546771E-02  0.9757620E-01
          4   -1    0    0  502    0  0.00000000000E+00  0.00000000000E+00  0.32792897635E+03  0.32792897635E+03  0.00000000000E+00 0.  1.
         -4   -1    0    0    0  501 -0.00000000000E+00 -0.00000000000E+00 -0.34928137397E+03  0.34928137397E+03  0.00000000000E+00 0. -1.
         25    1    1    2    0    0  0.26619351467E+03  0.65974230622E+02 -0.18902937222E+03  0.35576493633E+03  0.12500000000E+03 0.  0.
         21    1    1    2  502  501 -0.26619351467E+03 -0.65974230622E+02  0.16767697460E+03  0.32144541398E+03  0.00000000000E+00 0.  1.
<mgrwt>
<rscale>  3 0.67687365E+03</rscale>
<asrwt>0</asrwt>
<pdfrwt beam="1">  1        4 0.50450612E-01 0.67687365E+03</pdfrwt>
<pdfrwt beam="2">  1       -4 0.53735596E-01 0.67687365E+03</pdfrwt>
<totfact> 0.24886384E+01</totfact>
</mgrwt>
</event>
<event>
 4    0  0.1264838E-002  0.4750576E+03  0.7546771E-02  0.1020502E+00
          2   -1    0    0  502    0  0.00000000000E+00  0.00000000000E+00  0.65475003255E+03  0.65475003255E+03  0.00000000000E+00 0. -1.
         -2   -1    0    0    0  501 -0.00000000000E+00 -0.00000000000E+00 -0.86170196923E+02  0.86170196923E+02  0.00000000000E+00 0.  1.
         25    1    1    2    0    0 -0.20809513238E+03 -0.50748157705E+02  0.38938272684E+03  0.46165232328E+03  0.12500000000E+03 0.  0.
         21    1    1    2  502  501  0.20809513238E+03  0.50748157705E+02  0.17919710879E+03  0.27926790619E+03  0.00000000000E+00 0.  1.
<mgrwt>
<rscale>  3 0.47505764E+03</rscale>
<asrwt>0</asrwt>
<pdfrwt beam="1">  1        2 0.10073077E+00 0.47505764E+03</pdfrwt>
<pdfrwt beam="2">  1       -2 0.13256954E-01 0.47505764E+03</pdfrwt>
<totfact> 0.19190100E+03</totfact>
</mgrwt>
</event>
<event>
 4    0  0.1264838E-002  0.6789480E+03  0.7546771E-02  0.9753927E-01
          1   -1    0    0  502    0  0.00000000000E+00  0.00000000000E+00  0.23768071152E+04  0.23768071152E+04  0.00000000000E+00 0. -1.
         -1   -1    0    0    0  501 -0.00000000000E+00 -0.00000000000E+00 -0.48486308628E+02  0.48486308628E+02  0.00000000000E+00 0.  1.
         25    1    1    2    0    0 -0.21120635173E+03  0.22764885150E+03  0.15804831171E+04  0.16155444921E+04  0.12500000000E+03 0.  0.
         21    1    1    2  502  501  0.21120635173E+03 -0.22764885150E+03  0.74783768950E+03  0.80974893173E+03  0.00000000000E+00 0.  1.
<mgrwt>
<rscale>  3 0.67894802E+03</rscale>
<asrwt>0</asrwt>
<pdfrwt beam="1">  1        1 0.36566254E+00 0.67894802E+03</pdfrwt>
<pdfrwt beam="2">  1       -1 0.74594340E-02 0.67894802E+03</pdfrwt>
<totfact> 0.17251067E+02</totfact>
</mgrwt>
</event>
<event>
 4    0  0.1264838E-002  0.4878884E+03  0.7546771E-02  0.1016989E+00
         -2   -1    0    0    0  501 -0.00000000000E+00  0.00000000000E+00  0.37656441751E+02  0.37656441751E+02  0.00000000000E+00 0. -1.
          2   -1    0    0  502    0  0.00000000000E+00 -0.00000000000E+00 -0.15803080580E+04  0.15803080580E+04  0.00000000000E+00 0.  1.
         25    1    1    2    0    0 -0.98745645585E+02  0.20447379326E+03 -0.75626008062E+03  0.79944639857E+03  0.12500000000E+03 0.  0.
         21    1    1    2  502  501  0.98745645585E+02 -0.20447379326E+03 -0.78639153568E+03  0.81851810123E+03  0.00000000000E+00 0. -1.
<mgrwt>
<rscale>  3 0.48788842E+03</rscale>
<asrwt>0</asrwt>
<pdfrwt beam="1">  1        2 0.24312434E+00 0.48788842E+03</pdfrwt>
<pdfrwt beam="2">  1       -2 0.57932982E-02 0.48788842E+03</pdfrwt>
<totfact> 0.19174202E+03</totfact>
</mgrwt>
</event>
<event>
 4    0  0.1264838E-002  0.6836718E+03  0.7546771E-02  0.9745570E-01
          2   -1    0    0  502    0  0.00000000000E+00  0.00000000000E+00  0.95566661796E+03  0.95566661796E+03  0.00000000000E+00 0. -1.
         -2   -1    0    0    0  501 -0.00000000000E+00 -0.00000000000E+00 -0.12227255112E+03  0.12227255112E+03  0.00000000000E+00 0.  1.
         25    1    1    2    0    0 -0.28572889380E+03 -0.89702636904E+02  0.21055380439E+03  0.38684036548E+03  0.12500000000E+03 0.  0.
         21    1    1    2  502  501  0.28572889380E+03  0.89702636904E+02  0.62284026244E+03  0.69109880360E+03  0.00000000000E+00 0. -1.
<mgrwt>
<rscale>  3 0.68367184E+03</rscale>
<asrwt>0</asrwt>
<pdfrwt beam="1">  1        2 0.14702563E+00 0.68367184E+03</pdfrwt>
<pdfrwt beam="2">  1       -2 0.18811162E-01 0.68367184E+03</pdfrwt>
<totfact> 0.64377543E+02</totfact>
</mgrwt>
</event>
<event>
 4    0  0.1264838E-002  0.5252378E+03  0.7546771E-02  0.1007394E+00
          2   -1    0    0  502    0  0.00000000000E+00  0.00000000000E+00  0.11955993118E+04  0.11955993118E+04  0.00000000000E+00 0.  1.
         -2   -1    0    0    0  501 -0.00000000000E+00 -0.00000000000E+00 -0.57685457667E+02  0.57685457667E+02  0.00000000000E+00 0. -1.
         25    1    1    2    0    0 -0.19877854274E+03  0.48378926567E+02  0.26777181586E+03  0.35941643668E+03  0.12500000000E+03 0.  0.
         21    1    1    2  502  501  0.19877854274E+03 -0.48378926567E+02  0.87014203828E+03  0.89386833279E+03  0.00000000000E+00 0.  1.
<mgrwt>
<rscale>  3 0.52523783E+03</rscale>
<asrwt>0</asrwt>
<pdfrwt beam="1">  1        2 0.18393834E+00 0.52523783E+03</pdfrwt>
<pdfrwt beam="2">  1       -2 0.88746867E-02 0.52523783E+03</pdfrwt>
<totfact> 0.16054214E+03</totfact>
</mgrwt>
</event>
<event>
 4    0  0.1264838E-002  0.4514638E+03  0.7546771E-02  0.1027286E+00
          2   -1    0    0  502    0  0.00000000000E+00  0.00000000000E+00  0.13629372773E+03  0.13629372773E+03  0.00000000000E+00 0.  1.
         -2   -1    0    0    0  501 -0.00000000000E+00 -0.00000000000E+00 -0.37386080471E+03  0.37386080471E+03  0.00000000000E+00 0. -1.
         25    1    1    2    0    0 -0.53174008472E+02 -0.19781803641E+03 -0.84382519256E+02  0.25437150049E+03  0.12500000000E+03 0.  0.
         21    1    1    2  502  501  0.53174008472E+02  0.19781803641E+03 -0.15318455773E+03  0.25578303195E+03  0.00000000000E+00 0. -1.
<mgrwt>
<rscale>  3 0.45146376E+03</rscale>
<asrwt>0</asrwt>
<pdfrwt beam="1">  1        2 0.20968266E-01 0.45146376E+03</pdfrwt>
<pdfrwt beam="2">  1       -2 0.57517046E-01 0.45146376E+03</pdfrwt>
<totfact> 0.76424174E+02</totfact>
</mgrwt>
</event>
<event>
 4    0  0.1264838E-002  0.4654656E+03  0.7546771E-02  0.1023208E+00
          1   -1    0    0  502    0  0.00000000000E+00  0.00000000000E+00  0.30779129746E+03  0.30779129746E+03  0.00000000000E+00 0.  1.
         -1   -1    0    0    0  501 -0.00000000000E+00 -0.00000000000E+00 -0.17597815623E+03  0.17597815623E+03  0.00000000000E+00 0. -1.
         25    1    1    2    0    0 -0.19115746540E+03  0.83807412297E+02  0.12823571722E+03  0.27501683240E+03  0.12500000000E+03 0.  0.
         21    1    1    2  502  501  0.19115746540E+03 -0.83807412297E+02  0.35774240055E+01  0.20875262129E+03  0.00000000000E+00 0. -1.
<mgrwt>
<rscale>  3 0.46546555E+03</rscale>
<asrwt>0</asrwt>
<pdfrwt beam="1">  1        1 0.47352507E-01 0.46546555E+03</pdfrwt>
<pdfrwt beam="2">  1       -1 0.27073563E-01 0.46546555E+03</pdfrwt>
<totfact> 0.10362184E+03</totfact>
</mgrwt>
</event>
<event>
 4    0  0.1264838E-002  0.5150072E+03  0.7546771E-02  0.1009934E+00
         -1   -1    0    0    0  501 -0.00000000000E+00  0.00000000000E+00  0.40870078805E+02  0.40870078805E+02  0.00000000000E+00 0. -1.
          1   -1    0    0  502    0  0.00000000000E+00 -0.00000000000E+00 -0.16224119536E+04  0.16224119536E+04  0.00000000000E+00 0.  1.
         25    1    1    2    0    0  0.13447731636E+03  0.16067978995E+03 -0.12305698870E+04  0.12545235710E+04  0.12500000000E+03 0.  0.
         21    1    1    2  502  501 -0.13447731636E+03 -0.16067978995E+03 -0.35097198776E+03  0.40875846133E+03  0.00000000000E+00 0. -1.
<mgrwt>
<rscale>  3 0.51500720E+03</rscale>
<asrwt>0</asrwt>
<pdfrwt beam="1">  1        1 0.24960183E+00 0.51500720E+03</pdfrwt>
<pdfrwt beam="2">  1       -1 0.62877047E-02 0.51500720E+03</pdfrwt>
<totfact> 0.72597268E+02</totfact>
</mgrwt>
</event>
<event>
 4    0  0.1264838E-002  0.5878771E+03  0.7546771E-02  0.9930881E-01
         -2   -1    0    0    0  501 -0.00000000000E+00  0.00000000000E+00  0.11976374293E+03  0.11976374293E+03  0.00000000000E+00 0.  1.
          2   -1    0    0  502    0  0.00000000000E+00 -0.00000000000E+00 -0.72141932589E+03  0.72141932589E+03  0.00000000000E+00 0. -1.
         25    1    1    2    0    0  0.24943958464E+03  0.80042663995E+01 -0.13074090714E+03  0.30822452769E+03  0.12500000000E+03 0.  0.
         21    1    1    2  502  501 -0.24943958464E+03 -0.80042663995E+01 -0.47091467582E+03  0.53295854113E+03  0.00000000000E+00 0. -1.
<mgrwt>
<rscale>  3 0.58787713E+03</rscale>
<asrwt>0</asrwt>
<pdfrwt beam="1">  1        2 0.11098759E+00 0.58787713E+03</pdfrwt>
<pdfrwt beam="2">  1       -2 0.18425191E-01 0.58787713E+03</pdfrwt>
<totfact> 0.97541255E+02</totfact>
</mgrwt>
</event>
<event>
 4    0  0.1264838E-002  0.5376314E+03  0.7546771E-02  0.1004398E+00
         -1   -1    0    0    0  501 -0.00000000000E+00  0.00000000000E+00  0.25705923568E+03  0.25705923568E+03  0.00000000000E+00 0. -1.
          1   -1    0    0  502    0  0.00000000000E+00 -0.00000000000E+00 -0.28110981659E+03  0.28110981659E+03  0.00000000000E+00 0.  1.
         25    1    1    2    0    0 -0.74739408515E+02  0.23401528307E+03 -0.78402275905E+02  0.28656770362E+03  0.12500000000E+03 0.  0.
         21    1    1    2  502  501  0.74739408515E+02 -0.23401528307E+03  0.54351694988E+02  0.25160134865E+03  0.00000000000E+00 0. -1.
<mgrwt>
<rscale>  3 0.53763138E+03</rscale>
<asrwt>0</asrwt>
<pdfrwt beam="1">  1        1 0.43247664E-01 0.53763138E+03</pdfrwt>
<pdfrwt beam="2">  1       -1 0.39547575E-01 0.53763138E+03</pdfrwt>
<totfact> 0.59911112E+02</totfact>
</mgrwt>
</event>
<event>
 4    0  0.1264838E-002  0.6051902E+03  0.7546771E-02  0.9894696E-01
          1   -1    0    0  502    0  0.00000000000E+00  0.00000000000E+00  0.57314593090E+03  0.57314593090E+03  0.00000000000E+00 0.  1.
         -1   -1    0    0    0  501 -0.00000000000E+00 -0.00000000000E+00 -0.15975650930E+03  0.15975650930E+03  0.00000000000E+00 0. -1.
         25    1    1    2    0    0 -0.54374529797E+02 -0.23161788826E+03  0.41566047692E+03  0.49497683555E+03  0.12500000000E+03 0.  0.
         21    1    1    2  502  501  0.54374529797E+02  0.23161788826E+03 -0.22710553240E+01  0.23792560464E+03  0.00000000000E+00 0. -1.
<mgrwt>
<rscale>  3 0.60519020E+03</rscale>
<asrwt>0</asrwt>
<pdfrwt beam="1">  1        1 0.88176296E-01 0.60519020E+03</pdfrwt>
<pdfrwt beam="2">  1       -1 0.24577925E-01 0.60519020E+03</pdfrwt>
<totfact> 0.53280938E+02</totfact>
</mgrwt>
</event>
<event>
 4    0  0.1264838E-002  0.4488422E+03  0.7546771E-02  0.1028068E+00
         -2   -1    0    0    0  501 -0.00000000000E+00  0.00000000000E+00  0.19576555562E+02  0.19576555562E+02  0.00000000000E+00 0. -1.
          2   -1    0    0  502    0  0.00000000000E+00 -0.00000000000E+00 -0.25727110105E+04  0.25727110105E+04  0.00000000000E+00 0.  1.
         25    1    1    2    0    0  0.17617574405E+03 -0.10865621333E+03 -0.13562310506E+04  0.13776181358E+04  0.12500000000E+03 0.  0.
         21    1    1    2  502  501 -0.17617574405E+03  0.10865621333E+03 -0.11969034044E+04  0.12146694303E+04  0.00000000000E+00 0.  1.
<mgrwt>
<rscale>  3 0.44884216E+03</rscale>
<asrwt>0</asrwt>
<pdfrwt beam="1">  1        2 0.39580196E+00 0.44884216E+03</pdfrwt>
<pdfrwt beam="2">  1       -2 0.30117758E-02 0.44884216E+03</pdfrwt>
<totfact> 0.15117478E+03</totfact>
</mgrwt>
</event>
<event>
 4    0  0.1264838E-002  0.1125693E+04  0.7546771E-02  0.9180506E-01
          1   -1    0    0  502    0  0.00000000000E+00  0.00000000000E+00  0.71883749568E+03  0.71883749568E+03  0.00000000000E+00 0.  1.
         -1   -1    0    0    0  501 -0.00000000000E+00 -0.00000000000E+00 -0.44070607437E+03  0.44070607437E+03  0.00000000000E+00 0. -1.
         25    1    1    2    0    0 -0.53428799981E+03  0.98221741366E+02  0.19247175248E+02  0.55776933492E+03  0.12500000000E+03 0.  0.
         21    1    1    2  502  501  0.53428799981E+03 -0.98221741366E+02  0.25888424606E+03  0.60177423514E+03  0.00000000000E+00 0.  1.
<mgrwt>
<rscale>  3 0.11256928E+04</rscale>
<asrwt>0</asrwt>
<pdfrwt beam="1">  1        1 0.11059038E+00 0.11256928E+04</pdfrwt>
<pdfrwt beam="2">  1       -1 0.67800935E-01 0.11256928E+04</pdfrwt>
<totfact> 0.57338304E+01</totfact>
</mgrwt>
</event>
<event>
 4    0  0.1264838E-002  0.7318359E+03  0.7546771E-02  0.9664286E-01
          1   -1    0    0  502    0  0.00000000000E+00  0.00000000000E+00  0.88788188967E+03  0.88788188967E+03  0.00000000000E+00 0. -1.
         -1   -1    0    0    0  501 -0.00000000000E+00 -0.00000000000E+00 -0.15080378888E+03  0.15080378888E+03  0.00000000000E+00 0.  1.
         25    1    1    2    0    0  0.26651382170E+03 -0.22654148572E+03  0.29126340657E+03  0.47202757749E+03  0.12500000000E+03 0.  0.
         21    1    1    2  502  501 -0.26651382170E+03  0.22654148572E+03  0.44581469423E+03  0.56665810106E+03  0.00000000000E+00 0. -1.
<mgrwt>
<rscale>  3 0.73183592E+03</rscale>
<asrwt>0</asrwt>
<pdfrwt beam="1">  1        1 0.13659721E+00 0.73183592E+03</pdfrwt>
<pdfrwt beam="2">  1       -1 0.23200583E-01 0.73183592E+03</pdfrwt>
<totfact> 0.29962899E+02</totfact>
</mgrwt>
</event>
<event>
 4    0  0.1264838E-002  0.5864868E+03  0.7546771E-02  0.9933845E-01
         -2   -1    0    0    0  501 -0.00000000000E+00  0.00000000000E+00  0.55755617936E+02  0.55755617936E+02  0.00000000000E+00 0.  1.
          2   -1    0    0  502    0  0.00000000000E+00 -0.00000000000E+00 -0.15422965200E+04  0.15422965200E+04  0.00000000000E+00 0. -1.
         25    1    1    2    0    0 -0.87499364027E+02 -0.25348436776E+03 -0.99580218396E+03  0.10388250348E+04  0.12500000000E+03 0.  0.
         21    1    1    2  502  501  0.87499364027E+02  0.25348436776E+03 -0.49073871808E+03  0.55922710309E+03  0.00000000000E+00 0.  1.
<mgrwt>
<rscale>  3 0.58648681E+03</rscale>
<asrwt>0</asrwt>
<pdfrwt beam="1">  1        2 0.23727638E+00 0.58648681E+03</pdfrwt>
<pdfrwt beam="2">  1       -2 0.85777878E-02 0.58648681E+03</pdfrwt>
<totfact> 0.10784077E+03</totfact>
</mgrwt>
</event>
<event>
 4    0  0.1264838E-002  0.5680067E+03  0.7546771E-02  0.9974099E-01
         -1   -1    0    0    0  501 -0.00000000000E+00  0.00000000000E+00  0.16275953773E+03  0.16275953773E+03  0.00000000000E+00 0. -1.
          1   -1    0    0  502    0  0.00000000000E+00 -0.00000000000E+00 -0.49556482507E+03  0.49556482507E+03  0.00000000000E+00 0.  1.
         25    1    1    2    0    0  0.26987963349E+03 -0.12726639112E+02 -0.18156812064E+03  0.34869609454E+03  0.12500000000E+03 0.  0.
         21    1    1    2  502  501 -0.26987963349E+03  0.12726639112E+02 -0.15123716670E+03  0.30962826826E+03  0.00000000000E+00 0. -1.
<mgrwt>
<rscale>  3 0.56800670E+03</rscale>
<asrwt>0</asrwt>
<pdfrwt beam="1">  1        1 0.76240742E-01 0.56800670E+03</pdfrwt>
<pdfrwt beam="2">  1       -1 0.25039929E-01 0.56800670E+03</pdfrwt>
<totfact> 0.63216016E+02</totfact>
</mgrwt>
</event>
<event>
 4    0  0.1264838E-002  0.6030263E+03  0.7546771E-02  0.9899147E-01
          1   -1    0    0  502    0  0.00000000000E+00  0.00000000000E+00  0.44163305938E+03  0.44163305938E+03  0.00000000000E+00 0.  1.
         -1   -1    0    0    0  501 -0.00000000000E+00 -0.00000000000E+00 -0.20585002121E+03  0.20585002121E+03  0.00000000000E+00 0. -1.
         25    1    1    2    0    0  0.17565793106E+03 -0.21990902779E+03  0.54627241707E+02  0.31276960336E+03  0.12500000000E+03 0.  0.
         21    1    1    2  502  501 -0.17565793106E+03  0.21990902779E+03  0.18115579647E+03  0.33471347723E+03  0.00000000000E+00 0. -1.
<mgrwt>
<rscale>  3 0.60302628E+03</rscale>
<asrwt>0</asrwt>
<pdfrwt beam="1">  1        1 0.67943547E-01 0.60302628E+03</pdfrwt>
<pdfrwt beam="2">  1       -1 0.31669234E-01 0.60302628E+03</pdfrwt>
<totfact> 0.49234872E+02</totfact>
</mgrwt>
</event>
<event>
 4    0  0.1264838E-002  0.6538609E+03  0.7546771E-02  0.9799561E-01
         -1   -1    0    0    0  501 -0.00000000000E+00  0.00000000000E+00  0.25942550371E+03  0.25942550371E+03  0.00000000000E+00 0. -1.
          1   -1    0    0  502    0  0.00000000000E+00 -0.00000000000E+00 -0.41200075880E+03  0.41200075880E+03  0.00000000000E+00 0.  1.
         25    1    1    2    0    0  0.25845296283E+03 -0.17227566006E+03 -0.13279677113E+03  0.36018997691E+03  0.12500000000E+03 0.  0.
         21    1    1    2  502  501 -0.25845296283E+03  0.17227566006E+03 -0.19778483957E+02  0.31123628560E+03  0.00000000000E+00 0. -1.
<mgrwt>
<rscale>  3 0.65386085E+03</rscale>
<asrwt>0</asrwt>
<pdfrwt beam="1">  1        1 0.63384732E-01 0.65386085E+03</pdfrwt>
<pdfrwt beam="2">  1       -1 0.39911616E-01 0.65386085E+03</pdfrwt>
<totfact> 0.35718116E+02</totfact>
</mgrwt>
</event>
<event>
 4    0  0.1264838E-002  0.6787703E+03  0.7546771E-02  0.9754243E-01
         -2   -1    0    0    0  501 -0.00000000000E+00  0.00000000000E+00  0.63060363396E+02  0.63060363396E+02  0.00000000000E+00 0.  1.
          2   -1    0    0  502    0  0.00000000000E+00 -0.00000000000E+00 -0.18265402962E+04  0.18265402962E+04  0.00000000000E+00 0. -1.
         25    1    1    2    0    0  0.11178103551E+03 -0.29032307435E+03 -0.11998736212E+04  0.12458347379E+04  0.12500000000E+03 0.  0.
         21    1    1    2  502  501 -0.11178103551E+03  0.29032307435E+03 -0.56360631155E+03  0.64376592160E+03  0.00000000000E+00 0.  1.
<mgrwt>
<rscale>  3 0.67877034E+03</rscale>
<asrwt>0</asrwt>
<pdfrwt beam="1">  1        2 0.28100613E+00 0.67877034E+03</pdfrwt>
<pdfrwt beam="2">  1       -2 0.97015968E-02 0.67877034E+03</pdfrwt>
<totfact> 0.61576613E+02</totfact>
</mgrwt>
</event>
<event>
 4    0  0.1264838E-002  0.8544792E+03  0.7546771E-02  0.9484345E-01
         -2   -1    0    0    0  501 -0.00000000000E+00  0.00000000000E+00  0.72988219796E+03  0.72988219796E+03  0.00000000000E+00 0. -1.
          2   -1    0    0  502    0  0.00000000000E+00 -0.00000000000E+00 -0.25008650950E+03  0.25008650950E+03  0.00000000000E+00 0.  1.
         25    1    1    2    0    0 -0.39151904373E+03  0.12519852644E+03  0.33269682797E+03  0.54339121447E+03  0.12500000000E+03 0.  0.
         21    1    1    2  502  501  0.39151904373E+03 -0.12519852644E+03  0.14709886049E+03  0.43657749299E+03  0.00000000000E+00 0.  1.
<mgrwt>
<rscale>  3 0.85447924E+03</rscale>
<asrwt>0</asrwt>
<pdfrwt beam="1">  1        2 0.38474848E-01 0.85447924E+03</pdfrwt>
<pdfrwt beam="2">  1       -2 0.11228957E+00 0.85447924E+03</pdfrwt>
<totfact> 0.84490756E+01</totfact>
</mgrwt>
</event>
<event>
 4    0  0.1264838E-002  0.8058213E+03  0.7546771E-02  0.9551629E-01
          2   -1    0    0  502    0  0.00000000000E+00  0.00000000000E+00  0.19342131238E+04  0.19342131238E+04  0.00000000000E+00 0. -1.
         -2   -1    0    0    0  501 -0.00000000000E+00 -0.00000000000E+00 -0.83929211245E+02  0.83929211245E+02  0.00000000000E+00 0.  1.
         25    1    1    2    0    0 -0.12726898540E+03 -0.37013090067E+03  0.85288881584E+03  0.94669879606E+03  0.12500000000E+03 0.  0.
         21    1    1    2  502  501  0.12726898540E+03  0.37013090067E+03  0.99739509668E+03  0.10714435390E+04  0.00000000000E+00 0. -1.
<mgrwt>
<rscale>  3 0.80582128E+03</rscale>
<asrwt>0</asrwt>
<pdfrwt beam="1">  1        2 0.29757122E+00 0.80582128E+03</pdfrwt>
<pdfrwt beam="2">  1       -2 0.12912188E-01 0.80582128E+03</pdfrwt>
<totfact> 0.33337506E+02</totfact>
</mgrwt>
</event>
<event>
 4    0  0.1264838E-002  0.5638963E+03  0.7546771E-02  0.9983277E-01
         -2   -1    0    0    0  501 -0.00000000000E+00  0.00000000000E+00  0.90977758574E+02  0.90977758574E+02  0.00000000000E+00 0. -1.
          2   -1    0    0  502    0  0.00000000000E+00 -0.00000000000E+00 -0.87378245096E+03  0.87378245096E+03  0.00000000000E+00 0.  1.
         25    1    1    2    0    0  0.21700699622E+03  0.12141381814E+03 -0.23919781684E+03  0.36697949156E+03  0.12500000000E+03 0.  0.
         21    1    1    2  502  501 -0.21700699622E+03 -0.12141381814E+03 -0.54360687554E+03  0.59778071797E+03  0.00000000000E+00 0. -1.
<mgrwt>
<rscale>  3 0.56389633E+03</rscale>
<asrwt>0</asrwt>
<pdfrwt beam="1">  1        2 0.13442807E+00 0.56389633E+03</pdfrwt>
<pdfrwt beam="2">  1       -2 0.13996578E-01 0.56389633E+03</pdfrwt>
<totfact> 0.12100401E+03</totfact>
</mgrwt>
</event>
<event>
 4    0  0.1264838E-002  0.4908188E+03  0.7546771E-02  0.1016204E+00
         -2   -1    0    0    0  501 -0.00000000000E+00  0.00000000000E+00  0.74040790142E+03  0.74040790142E+03  0.00000000000E+00 0. -1.
          2   -1    0    0  502    0  0.00000000000E+00 -0.00000000000E+00 -0.81341328505E+02  0.81341328505E+02  0.00000000000E+00 0.  1.
         25    1    1    2    0    0  0.16629570020E+03 -0.13321877710E+03  0.20820173770E+03  0.32307037323E+03  0.12500000000E+03 0.  0.
         21    1    1    2  502  501 -0.16629570020E+03  0.13321877710E+03  0.45086483522E+03  0.49867885669E+03  0.00000000000E+00 0. -1.
<mgrwt>
<rscale>  3 0.49081875E+03</rscale>
<asrwt>0</asrwt>
<pdfrwt beam="1">  1        2 0.12514051E-01 0.49081875E+03</pdfrwt>
<pdfrwt beam="2">  1       -2 0.11390890E+00 0.49081875E+03</pdfrwt>
<totfact> 0.30630763E+02</totfact>
</mgrwt>
</event>
<event>
 4    0  0.1264838E-002  0.4841800E+03  0.7546771E-02  0.1017993E+00
          2   -1    0    0  502    0  0.00000000000E+00  0.00000000000E+00  0.40021259114E+03  0.40021259114E+03  0.00000000000E+00 0.  1.
         -2   -1    0    0    0  501 -0.00000000000E+00 -0.00000000000E+00 -0.14644108744E+03  0.14644108744E+03  0.00000000000E+00 0. -1.
         25    1    1    2    0    0 -0.10017084511E+03 -0.19636298378E+03  0.19137275899E+03  0.31755495979E+03  0.12500000000E+03 0.  0.
         21    1    1    2  502  501  0.10017084511E+03  0.19636298378E+03  0.62398744721E+02  0.22909871879E+03  0.00000000000E+00 0.  1.
<mgrwt>
<rscale>  3 0.48418000E+03</rscale>
<asrwt>0</asrwt>
<pdfrwt beam="1">  1        2 0.61571167E-01 0.48418000E+03</pdfrwt>
<pdfrwt beam="2">  1       -2 0.22529398E-01 0.48418000E+03</pdfrwt>
<totfact> 0.13713421E+03</totfact>
</mgrwt>
</event>
<event>
 4    0  0.1264838E-002  0.8487000E+03  0.7546771E-02  0.9492083E-01
          1   -1    0    0  502    0  0.00000000000E+00  0.00000000000E+00  0.27374330531E+04  0.27374330531E+04  0.00000000000E+00 0. -1.
         -1   -1    0    0    0  501 -0.00000000000E+00 -0.00000000000E+00 -0.65781675735E+02  0.65781675735E+02  0.00000000000E+00 0.  1.
         25    1    1    2    0    0  0.12374309970E+03 -0.19914972623E+03  0.24963819544E+04  0.25104821908E+04  0.12500000000E+03 0.  0.
         21    1    1    2  502  501 -0.12374309970E+03  0.19914972623E+03  0.17526942295E+03  0.29273253800E+03  0.00000000000E+00 0.  1.
<mgrwt>
<rscale>  3 0.84870003E+03</rscale>
<asrwt>0</asrwt>
<pdfrwt beam="1">  1        1 0.42114346E+00 0.84870003E+03</pdfrwt>
<pdfrwt beam="2">  1       -1 0.10120260E-01 0.84870003E+03</pdfrwt>
<totfact> 0.59322256E+01</totfact>
</mgrwt>
</event>
<event>
 4    0  0.1264838E-002  0.5209096E+03  0.7546771E-02  0.1008461E+00
         -2   -1    0    0    0  501 -0.00000000000E+00  0.00000000000E+00  0.38423435064E+03  0.38423435064E+03  0.00000000000E+00 0.  1.
          2   -1    0    0  502    0  0.00000000000E+00 -0.00000000000E+00 -0.17655031475E+03  0.17655031475E+03  0.00000000000E+00 0. -1.
         25    1    1    2    0    0 -0.20550336890E+03 -0.17606245994E+02  0.25307749560E+03  0.34959238165E+03  0.12500000000E+03 0.  0.
         21    1    1    2  502  501  0.20550336890E+03  0.17606245994E+02 -0.45393459713E+02  0.21119228374E+03  0.00000000000E+00 0. -1.
<mgrwt>
<rscale>  3 0.52090957E+03</rscale>
<asrwt>0</asrwt>
<pdfrwt beam="1">  1        2 0.27161587E-01 0.52090957E+03</pdfrwt>
<pdfrwt beam="2">  1       -2 0.59112977E-01 0.52090957E+03</pdfrwt>
<totfact> 0.53682790E+02</totfact>
</mgrwt>
</event>
<event>
 4    0  0.1264838E-002  0.7613182E+03  0.7546771E-02  0.9617759E-01
         -2   -1    0    0    0  501 -0.00000000000E+00  0.00000000000E+00  0.44068365345E+03  0.44068365345E+03  0.00000000000E+00 0.  1.
          2   -1    0    0  502    0  0.00000000000E+00 -0.00000000000E+00 -0.32881031648E+03  0.32881031648E+03  0.00000000000E+00 0. -1.
         25    1    1    2    0    0 -0.27299029572E+03 -0.23298103163E+03  0.15002672421E+03  0.40857909961E+03  0.12500000000E+03 0.  0.
         21    1    1    2  502  501  0.27299029572E+03  0.23298103163E+03 -0.38153387240E+02  0.36091487032E+03  0.00000000000E+00 0.  1.
<mgrwt>
<rscale>  3 0.76131815E+03</rscale>
<asrwt>0</asrwt>
<pdfrwt beam="1">  1        2 0.50586202E-01 0.76131815E+03</pdfrwt>
<pdfrwt beam="2">  1       -2 0.67797486E-01 0.76131815E+03</pdfrwt>
<totfact> 0.19924850E+02</totfact>
</mgrwt>
</event>
<event>
 4    0  0.1264838E-002  0.7284337E+03  0.7546771E-02  0.9669805E-01
          1   -1    0    0  502    0  0.00000000000E+00  0.00000000000E+00  0.29576441354E+04  0.29576441354E+04  0.00000000000E+00 0. -1.
         -1   -1    0    0    0  501 -0.00000000000E+00 -0.00000000000E+00 -0.44851206476E+02  0.44851206476E+02  0.00000000000E+00 0.  1.
         25    1    1    2    0    0 -0.32383430207E+03  0.10930741476E+03  0.18711567565E+04  0.19062186059E+04  0.12500000000E+03 0.  0.
         21    1    1    2  502  501  0.32383430207E+03 -0.10930741476E+03  0.10416361724E+04  0.10962767360E+04  0.00000000000E+00 0.  1.
<mgrwt>
<rscale>  3 0.72843368E+03</rscale>
<asrwt>0</asrwt>
<pdfrwt beam="1">  1        1 0.45502202E+00 0.72843368E+03</pdfrwt>
<pdfrwt beam="2">  1       -1 0.69001879E-02 0.72843368E+03</pdfrwt>
<totfact> 0.76753771E+01</totfact>
</mgrwt>
</event>
<event>
 4    0  0.1264838E-002  0.5583749E+03  0.7546771E-02  0.9995738E-01
         -3   -1    0    0    0  501 -0.00000000000E+00  0.00000000000E+00  0.17893940820E+03  0.17893940820E+03  0.00000000000E+00 0.  1.
          3   -1    0    0  502    0  0.00000000000E+00 -0.00000000000E+00 -0.43559794799E+03  0.43559794799E+03  0.00000000000E+00 0. -1.
         25    1    1    2    0    0 -0.15712295219E+03  0.18899356034E+03 -0.24439256380E+03  0.36845476411E+03  0.12500000000E+03 0.  0.
         21    1    1    2  502  501  0.15712295219E+03 -0.18899356034E+03 -0.12265975987E+02  0.24608259208E+03  0.00000000000E+00 0.  1.
<mgrwt>
<rscale>  3 0.55837492E+03</rscale>
<asrwt>0</asrwt>
<pdfrwt beam="1">  1        3 0.67015067E-01 0.55837492E+03</pdfrwt>
<pdfrwt beam="2">  1       -3 0.27529140E-01 0.55837492E+03</pdfrwt>
<totfact> 0.71711271E+01</totfact>
</mgrwt>
</event>
<event>
 4    0  0.1264838E-002  0.4654750E+03  0.7546771E-02  0.1023205E+00
          1   -1    0    0  502    0  0.00000000000E+00  0.00000000000E+00  0.80495897349E+02  0.80495897349E+02  0.00000000000E+00 0.  1.
         -1   -1    0    0    0  501 -0.00000000000E+00 -0.00000000000E+00 -0.67291296733E+03  0.67291296733E+03  0.00000000000E+00 0. -1.
         25    1    1    2    0    0 -0.11064171638E+03  0.16793573789E+03 -0.44493393857E+03  0.50401905832E+03  0.12500000000E+03 0.  0.
         21    1    1    2  502  501  0.11064171638E+03 -0.16793573789E+03 -0.14748313142E+03  0.24938980636E+03  0.00000000000E+00 0.  1.
<mgrwt>
<rscale>  3 0.46547495E+03</rscale>
<asrwt>0</asrwt>
<pdfrwt beam="1">  1        1 0.12383984E-01 0.46547495E+03</pdfrwt>
<pdfrwt beam="2">  1       -1 0.10352507E+00 0.46547495E+03</pdfrwt>
<totfact> 0.44748560E+02</totfact>
</mgrwt>
</event>
<event>
 4    0  0.1264838E-002  0.4804588E+03  0.7546771E-02  0.1019009E+00
          2   -1    0    0  502    0  0.00000000000E+00  0.00000000000E+00  0.65231218562E+03  0.65231218562E+03  0.00000000000E+00 0. -1.
         -2   -1    0    0    0  501 -0.00000000000E+00 -0.00000000000E+00 -0.88470154654E+02  0.88470154654E+02  0.00000000000E+00 0.  1.
         25    1    1    2    0    0  0.47275881055E+02 -0.21824636352E+03  0.32751119629E+03  0.41563814528E+03  0.12500000000E+03 0.  0.
         21    1    1    2  502  501 -0.47275881055E+02  0.21824636352E+03  0.23633083468E+03  0.32514419499E+03  0.00000000000E+00 0. -1.
<mgrwt>
<rscale>  3 0.48045878E+03</rscale>
<asrwt>0</asrwt>
<pdfrwt beam="1">  1        2 0.10035572E+00 0.48045878E+03</pdfrwt>
<pdfrwt beam="2">  1       -2 0.13610793E-01 0.48045878E+03</pdfrwt>
<totfact> 0.18454728E+03</totfact>
</mgrwt>
</event>
<event>
 4    0  0.1264838E-002  0.5179355E+03  0.7546771E-02  0.1009201E+00
          2   -1    0    0  502    0  0.00000000000E+00  0.00000000000E+00  0.58705587988E+02  0.58705587988E+02  0.00000000000E+00 0. -1.
         -2   -1    0    0    0  501 -0.00000000000E+00 -0.00000000000E+00 -0.11423834013E+04  0.11423834013E+04  0.00000000000E+00 0.  1.
         25    1    1    2    0    0 -0.54051822253E+02  0.19569485260E+03 -0.88677426351E+03  0.91826557664E+03  0.12500000000E+03 0.  0.
         21    1    1    2  502  501  0.54051822253E+02 -0.19569485260E+03 -0.19690354983E+03  0.28282341268E+03  0.00000000000E+00 0. -1.
<mgrwt>
<rscale>  3 0.51793548E+03</rscale>
<asrwt>0</asrwt>
<pdfrwt beam="1">  1        2 0.90316289E-02 0.51793548E+03</pdfrwt>
<pdfrwt beam="2">  1       -2 0.17575129E+00 0.51793548E+03</pdfrwt>
<totfact> 0.15031781E+02</totfact>
</mgrwt>
</event>
<event>
 4    0  0.1552853E-002  0.6452599E+03  0.7546771E-02  0.9815715E-01
          1   -1    0    0  502    0  0.00000000000E+00  0.00000000000E+00  0.11309161797E+04  0.11309161797E+04  0.00000000000E+00 0. -1.
         -1   -1    0    0    0  501 -0.00000000000E+00 -0.00000000000E+00 -0.92040492737E+02  0.92040492737E+02  0.00000000000E+00 0.  1.
         25    1    1    2    0    0 -0.14734831112E+03  0.14074020372E+03  0.94830112412E+02  0.25717130469E+03  0.12500000000E+03 0.  0.
         21    1    1    2  502  501  0.14734831112E+03 -0.14074020372E+03  0.94404557460E+03  0.96578536780E+03  0.00000000000E+00 0. -1.
<mgrwt>
<rscale>  3 0.64525989E+03</rscale>
<asrwt>0</asrwt>
<pdfrwt beam="1">  1        1 0.17398710E+00 0.64525989E+03</pdfrwt>
<pdfrwt beam="2">  1       -1 0.14160077E-01 0.64525989E+03</pdfrwt>
<totfact> 0.44126491E+02</totfact>
</mgrwt>
</event>
<event>
 4    0  0.1264838E-002  0.5391795E+03  0.7546771E-02  0.1004030E+00
         -2   -1    0    0    0  501 -0.00000000000E+00  0.00000000000E+00  0.22180533949E+03  0.22180533949E+03  0.00000000000E+00 0. -1.
          2   -1    0    0  502    0  0.00000000000E+00 -0.00000000000E+00 -0.32766850954E+03  0.32766850954E+03  0.00000000000E+00 0.  1.
         25    1    1    2    0    0  0.88844226448E+02  0.20725051701E+03  0.65790629564E+02  0.26608171736E+03  0.12500000000E+03 0.  0.
         21    1    1    2  502  501 -0.88844226448E+02 -0.20725051701E+03 -0.17165379961E+03  0.28339213167E+03  0.00000000000E+00 0.  1.
<mgrwt>
<rscale>  3 0.53917947E+03</rscale>
<asrwt>0</asrwt>
<pdfrwt beam="1">  1        2 0.50410539E-01 0.53917947E+03</pdfrwt>
<pdfrwt beam="2">  1       -2 0.34123899E-01 0.53917947E+03</pdfrwt>
<totfact> 0.80339929E+02</totfact>
</mgrwt>
</event>
<event>
 4    0  0.1264838E-002  0.4729752E+03  0.7546771E-02  0.1021084E+00
         -2   -1    0    0    0  501 -0.00000000000E+00  0.00000000000E+00  0.11147182210E+03  0.11147182210E+03  0.00000000000E+00 0.  1.
          2   -1    0    0  502    0  0.00000000000E+00 -0.00000000000E+00 -0.50170861208E+03  0.50170861208E+03  0.00000000000E+00 0. -1.
         25    1    1    2    0    0 -0.20224295796E+03  0.71403259598E+02 -0.27207408669E+03  0.36830686686E+03  0.12500000000E+03 0.  0.
         21    1    1    2  502  501  0.20224295796E+03 -0.71403259598E+02 -0.11816270328E+03  0.24487356732E+03  0.00000000000E+00 0.  1.
<mgrwt>
<rscale>  3 0.47297515E+03</rscale>
<asrwt>0</asrwt>
<pdfrwt beam="1">  1        2 0.77185940E-01 0.47297515E+03</pdfrwt>
<pdfrwt beam="2">  1       -2 0.17149511E-01 0.47297515E+03</pdfrwt>
<totfact> 0.17047960E+03</totfact>
</mgrwt>
</event>
<event>
 4    0  0.1264838E-002  0.5202692E+03  0.7546771E-02  0.1008620E+00
          2   -1    0    0  502    0  0.00000000000E+00  0.00000000000E+00  0.22134975188E+03  0.22134975188E+03  0.00000000000E+00 0. -1.
         -2   -1    0    0    0  501 -0.00000000000E+00 -0.00000000000E+00 -0.30571533968E+03  0.30571533968E+03  0.00000000000E+00 0.  1.
         25    1    1    2    0    0  0.21258440643E+02 -0.22802772571E+03  0.43898790743E+02  0.26457639505E+03  0.12500000000E+03 0.  0.
         21    1    1    2  502  501 -0.21258440643E+02  0.22802772571E+03 -0.12826437855E+03  0.26248869651E+03  0.00000000000E+00 0.  1.
<mgrwt>
<rscale>  3 0.52026922E+03</rscale>
<asrwt>0</asrwt>
<pdfrwt beam="1">  1        2 0.34053808E-01 0.52026922E+03</pdfrwt>
<pdfrwt beam="2">  1       -2 0.47033129E-01 0.52026922E+03</pdfrwt>
<totfact> 0.66496036E+02</totfact>
</mgrwt>
</event>
<event>
 4    0  0.1264838E-002  0.5121164E+03  0.7546771E-02  0.1010664E+00
         -2   -1    0    0    0  501 -0.00000000000E+00  0.00000000000E+00  0.25179275133E+02  0.25179275133E+02  0.00000000000E+00 0.  1.
          2   -1    0    0  502    0  0.00000000000E+00 -0.00000000000E+00 -0.26039589931E+04  0.26039589931E+04  0.00000000000E+00 0. -1.
         25    1    1    2    0    0 -0.86435419636E+02  0.19270721540E+03 -0.77238899167E+03  0.81044241442E+03  0.12500000000E+03 0.  0.
         21    1    1    2  502  501  0.86435419636E+02 -0.19270721540E+03 -0.18063907263E+04  0.18186958538E+04  0.00000000000E+00 0. -1.
<mgrwt>
<rscale>  3 0.51211639E+03</rscale>
<asrwt>0</asrwt>
<pdfrwt beam="1">  1        2 0.40060916E+00 0.51211639E+03</pdfrwt>
<pdfrwt beam="2">  1       -2 0.38737338E-02 0.51211639E+03</pdfrwt>
<totfact> 0.98471364E+02</totfact>
</mgrwt>
</event>
<event>
 4    0  0.1264838E-002  0.7283665E+03  0.7546771E-02  0.9669915E-01
         -2   -1    0    0    0  501 -0.00000000000E+00  0.00000000000E+00  0.30984919464E+03  0.30984919464E+03  0.00000000000E+00 0.  1.
          2   -1    0    0  502    0  0.00000000000E+00 -0.00000000000E+00 -0.42804511727E+03  0.42804511727E+03  0.00000000000E+00 0. -1.
         25    1    1    2    0    0 -0.19381543395E+03 -0.27389073827E+03 -0.17342928942E+03  0.39784830951E+03  0.12500000000E+03 0.  0.
         21    1    1    2  502  501  0.19381543395E+03  0.27389073827E+03  0.55233366789E+02  0.34004600241E+03  0.00000000000E+00 0.  1.
<mgrwt>
<rscale>  3 0.72836649E+03</rscale>
<asrwt>0</asrwt>
<pdfrwt beam="1">  1        2 0.65853095E-01 0.72836649E+03</pdfrwt>
<pdfrwt beam="2">  1       -2 0.47669107E-01 0.72836649E+03</pdfrwt>
<totfact> 0.30971361E+02</totfact>
</mgrwt>
</event>
<event>
 4    0  0.1264838E-002  0.5204711E+03  0.7546771E-02  0.1008570E+00
         -2   -1    0    0    0  501 -0.00000000000E+00  0.00000000000E+00  0.79366764206E+02  0.79366764206E+02  0.00000000000E+00 0. -1.
          2   -1    0    0  502    0  0.00000000000E+00 -0.00000000000E+00 -0.85328581022E+03  0.85328581022E+03  0.00000000000E+00 0.  1.
         25    1    1    2    0    0  0.20903186971E+03  0.91974073835E+02 -0.24918598040E+03  0.36037786508E+03  0.12500000000E+03 0.  0.
         21    1    1    2  502  501 -0.20903186971E+03 -0.91974073835E+02 -0.52473306561E+03  0.57227470934E+03  0.00000000000E+00 0.  1.
<mgrwt>
<rscale>  3 0.52047107E+03</rscale>
<asrwt>0</asrwt>
<pdfrwt beam="1">  1        2 0.13127473E+00 0.52047107E+03</pdfrwt>
<pdfrwt beam="2">  1       -2 0.12210272E-01 0.52047107E+03</pdfrwt>
<totfact> 0.15677843E+03</totfact>
</mgrwt>
</event>
<event>
 4    0  0.1264838E-002  0.8296465E+03  0.7546771E-02  0.9518069E-01
         -2   -1    0    0    0  501 -0.00000000000E+00  0.00000000000E+00  0.70800401729E+03  0.70800401729E+03  0.00000000000E+00 0. -1.
          2   -1    0    0  502    0  0.00000000000E+00 -0.00000000000E+00 -0.24304710526E+03  0.24304710526E+03  0.00000000000E+00 0.  1.
         25    1    1    2    0    0 -0.10174385799E+03  0.25197431841E+03  0.58263181521E+03  0.65492572241E+03  0.12500000000E+03 0.  0.
         21    1    1    2  502  501  0.10174385799E+03 -0.25197431841E+03 -0.11767490317E+03  0.29612540015E+03  0.00000000000E+00 0.  1.
<mgrwt>
<rscale>  3 0.82964650E+03</rscale>
<asrwt>0</asrwt>
<pdfrwt beam="1">  1        2 0.37391863E-01 0.82964650E+03</pdfrwt>
<pdfrwt beam="2">  1       -2 0.10892369E+00 0.82964650E+03</pdfrwt>
<totfact> 0.94019082E+01</totfact>
</mgrwt>
</event>
<event>
 4    0  0.1264838E-002  0.4389968E+03  0.7546771E-02  0.1031055E+00
          2   -1    0    0  502    0  0.00000000000E+00  0.00000000000E+00  0.32368665425E+04  0.32368665425E+04  0.00000000000E+00 0.  1.
         -2   -1    0    0    0  501 -0.00000000000E+00 -0.00000000000E+00 -0.14884628657E+02  0.14884628657E+02  0.00000000000E+00 0. -1.
         25    1    1    2    0    0 -0.13310772789E+03 -0.15154107067E+03  0.17328411338E+04  0.17490127954E+04  0.12500000000E+03 0.  0.
         21    1    1    2  502  501  0.13310772789E+03  0.15154107067E+03  0.14891407800E+04  0.15027383757E+04  0.00000000000E+00 0.  1.
<mgrwt>
<rscale>  3 0.43899684E+03</rscale>
<asrwt>0</asrwt>
<pdfrwt beam="1">  1        2 0.49797891E+00 0.43899684E+03</pdfrwt>
<pdfrwt beam="2">  1       -2 0.22899454E-02 0.43899684E+03</pdfrwt>
<totfact> 0.92146650E+02</totfact>
</mgrwt>
</event>
<event>
 4    0  0.1264838E-002  0.5639682E+03  0.7546771E-02  0.9983116E-01
         -2   -1    0    0    0  501 -0.00000000000E+00  0.00000000000E+00  0.30136897239E+03  0.30136897239E+03  0.00000000000E+00 0.  1.
          2   -1    0    0  502    0  0.00000000000E+00 -0.00000000000E+00 -0.26384612269E+03  0.26384612269E+03  0.00000000000E+00 0. -1.
         25    1    1    2    0    0  0.59257361069E+02 -0.24124530117E+03  0.12082054477E+03  0.30320510255E+03  0.12500000000E+03 0.  0.
         21    1    1    2  502  501 -0.59257361069E+02  0.24124530117E+03 -0.83297695068E+02  0.26200999252E+03  0.00000000000E+00 0. -1.
<mgrwt>
<rscale>  3 0.56396821E+03</rscale>
<asrwt>0</asrwt>
<pdfrwt beam="1">  1        2 0.40591711E-01 0.56396821E+03</pdfrwt>
<pdfrwt beam="2">  1       -2 0.46364457E-01 0.56396821E+03</pdfrwt>
<totfact> 0.56304326E+02</totfact>
</mgrwt>
</event>
<event>
 4    0  0.1264838E-002  0.4926583E+03  0.7546771E-02  0.1015713E+00
         -1   -1    0    0    0  501 -0.00000000000E+00  0.00000000000E+00  0.42482698995E+03  0.42482698995E+03  0.00000000000E+00 0. -1.
          1   -1    0    0  502    0  0.00000000000E+00 -0.00000000000E+00 -0.14283005437E+03  0.14283005437E+03  0.00000000000E+00 0.  1.
         25    1    1    2    0    0  0.18897897950E+03 -0.12847370776E+03  0.11553760091E+03  0.28494295132E+03  0.12500000000E+03 0.  0.
         21    1    1    2  502  501 -0.18897897950E+03  0.12847370776E+03  0.16645933468E+03  0.28271409300E+03  0.00000000000E+00 0.  1.
<mgrwt>
<rscale>  3 0.49265835E+03</rscale>
<asrwt>0</asrwt>
<pdfrwt beam="1">  1        1 0.21973855E-01 0.49265835E+03</pdfrwt>
<pdfrwt beam="2">  1       -1 0.65357998E-01 0.49265835E+03</pdfrwt>
<totfact> 0.55548247E+02</totfact>
</mgrwt>
</event>
<event>
 4    0  0.1264838E-002  0.5534277E+03  0.7546771E-02  0.1000704E+00
          3   -1    0    0  502    0  0.00000000000E+00  0.00000000000E+00  0.40196948735E+03  0.40196948735E+03  0.00000000000E+00 0.  1.
         -3   -1    0    0    0  501 -0.00000000000E+00 -0.00000000000E+00 -0.19048850005E+03  0.19048850005E+03  0.00000000000E+00 0. -1.
         25    1    1    2    0    0 -0.17066832718E+03 -0.11080159803E+03  0.28883118943E+03  0.37477076729E+03  0.12500000000E+03 0.  0.
         21    1    1    2  502  501  0.17066832718E+03  0.11080159803E+03 -0.77350202134E+02  0.21768722011E+03  0.00000000000E+00 0. -1.
<mgrwt>
<rscale>  3 0.55342774E+03</rscale>
<asrwt>0</asrwt>
<pdfrwt beam="1">  1        3 0.61841459E-01 0.55342774E+03</pdfrwt>
<pdfrwt beam="2">  1       -3 0.29305923E-01 0.55342774E+03</pdfrwt>
<totfact> 0.75654316E+01</totfact>
</mgrwt>
</event>
<event>
 4    0  0.1433454E-002  0.5517574E+03  0.7546771E-02  0.1001088E+00
         -2   -1    0    0    0  501 -0.00000000000E+00  0.00000000000E+00  0.68378012317E+02  0.68378012317E+02  0.00000000000E+00 0.  1.
          2   -1    0    0  502    0  0.00000000000E+00 -0.00000000000E+00 -0.11130633464E+04  0.11130633464E+04  0.00000000000E+00 0. -1.
         25    1    1    2    0    0  0.15623809147E+03 -0.13780423793E+03 -0.20993874780E+03  0.32109130640E+03  0.12500000000E+03 0.  0.
         21    1    1    2  502  501 -0.15623809147E+03  0.13780423793E+03 -0.83474658626E+03  0.86035005229E+03  0.00000000000E+00 0. -1.
<mgrwt>
<rscale>  3 0.55175741E+03</rscale>
<asrwt>0</asrwt>
<pdfrwt beam="1">  1        2 0.17124050E+00 0.55175741E+03</pdfrwt>
<pdfrwt beam="2">  1       -2 0.10519695E-01 0.55175741E+03</pdfrwt>
<totfact> 0.13649445E+03</totfact>
</mgrwt>
</event>
<event>
 4    0  0.1264838E-002  0.5789132E+03  0.7546771E-02  0.9950147E-01
          2   -1    0    0  502    0  0.00000000000E+00  0.00000000000E+00  0.40279832475E+03  0.40279832475E+03  0.00000000000E+00 0.  1.
         -2   -1    0    0    0  501 -0.00000000000E+00 -0.00000000000E+00 -0.20800759184E+03  0.20800759184E+03  0.00000000000E+00 0. -1.
         25    1    1    2    0    0  0.25793893797E+03  0.14494840407E+02  0.20429699061E+03  0.35228519199E+03  0.12500000000E+03 0.  0.
         21    1    1    2  502  501 -0.25793893797E+03 -0.14494840407E+02 -0.95062577041E+01  0.25852072461E+03  0.00000000000E+00 0. -1.
<mgrwt>
<rscale>  3 0.57891315E+03</rscale>
<asrwt>0</asrwt>
<pdfrwt beam="1">  1        2 0.61968973E-01 0.57891315E+03</pdfrwt>
<pdfrwt beam="2">  1       -2 0.32001168E-01 0.57891315E+03</pdfrwt>
<totfact> 0.72041190E+02</totfact>
</mgrwt>
</event>
<event>
 4    0  0.1264838E-002  0.5032920E+03  0.7546771E-02  0.1012923E+00
         -1   -1    0    0    0  501 -0.00000000000E+00  0.00000000000E+00  0.18600297521E+03  0.18600297521E+03  0.00000000000E+00 0. -1.
          1   -1    0    0  502    0  0.00000000000E+00 -0.00000000000E+00 -0.34045539192E+03  0.34045539192E+03  0.00000000000E+00 0.  1.
         25    1    1    2    0    0  0.10714326957E+02 -0.23070135573E+03 -0.13340799373E+03  0.29455153222E+03  0.12500000000E+03 0.  0.
         21    1    1    2  502  501 -0.10714326957E+02  0.23070135573E+03 -0.21044422978E+02  0.23190683491E+03  0.00000000000E+00 0.  1.
<mgrwt>
<rscale>  3 0.50329203E+03</rscale>
<asrwt>0</asrwt>
<pdfrwt beam="1">  1        1 0.52377752E-01 0.50329203E+03</pdfrwt>
<pdfrwt beam="2">  1       -1 0.28615843E-01 0.50329203E+03</pdfrwt>
<totfact> 0.82751969E+02</totfact>
</mgrwt>
</event>
<event>
 4    0  0.1264838E-002  0.7777549E+03  0.7546771E-02  0.9592786E-01
          2   -1    0    0  502    0  0.00000000000E+00  0.00000000000E+00  0.45669504915E+03  0.45669504915E+03  0.00000000000E+00 0. -1.
         -2   -1    0    0    0  501 -0.00000000000E+00 -0.00000000000E+00 -0.33113053364E+03  0.33113053364E+03  0.00000000000E+00 0.  1.
         25    1    1    2    0    0  0.30013934616E+03  0.20911778729E+03  0.16416883618E+03  0.41998843180E+03  0.12500000000E+03 0.  0.
         21    1    1    2  502  501 -0.30013934616E+03 -0.20911778729E+03 -0.38604320669E+02  0.36783715099E+03  0.00000000000E+00 0.  1.
<mgrwt>
<rscale>  3 0.77775491E+03</rscale>
<asrwt>0</asrwt>
<pdfrwt beam="1">  1        2 0.70260777E-01 0.77775491E+03</pdfrwt>
<pdfrwt beam="2">  1       -2 0.50943159E-01 0.77775491E+03</pdfrwt>
<totfact> 0.25099692E+02</totfact>
</mgrwt>
</event>
<event>
 4    0  0.1264838E-002  0.4916695E+03  0.7546771E-02  0.1015976E+00
         -1   -1    0    0    0  501 -0.00000000000E+00  0.00000000000E+00  0.47203537555E+03  0.47203537555E+03  0.00000000000E+00 0. -1.
          1   -1    0    0  502    0  0.00000000000E+00 -0.00000000000E+00 -0.12803005174E+03  0.12803005174E+03  0.00000000000E+00 0.  1.
         25    1    1    2    0    0  0.19561710936E+03  0.48563857303E+02  0.48038387174E+02  0.24198592594E+03  0.12500000000E+03 0.  0.
         21    1    1    2  502  501 -0.19561710936E+03 -0.48563857303E+02  0.29596693663E+03  0.35807950135E+03  0.00000000000E+00 0. -1.
<mgrwt>
<rscale>  3 0.49166946E+03</rscale>
<asrwt>0</asrwt>
<pdfrwt beam="1">  1        1 0.19696931E-01 0.49166946E+03</pdfrwt>
<pdfrwt beam="2">  1       -1 0.72620826E-01 0.49166946E+03</pdfrwt>
<totfact> 0.51812458E+02</totfact>
</mgrwt>
</event>
<event>
 4    0  0.1264838E-002  0.6582175E+03  0.7546771E-02  0.9791481E-01
          2   -1    0    0  502    0  0.00000000000E+00  0.00000000000E+00  0.21684251271E+04  0.21684251271E+04  0.00000000000E+00 0. -1.
         -2   -1    0    0    0  501 -0.00000000000E+00 -0.00000000000E+00 -0.49949878484E+02  0.49949878484E+02  0.00000000000E+00 0.  1.
         25    1    1    2    0    0 -0.97004706556E+02 -0.23789718046E+03  0.17246720370E+04  0.17481772270E+04  0.12500000000E+03 0.  0.
         21    1    1    2  502  501  0.97004706556E+02  0.23789718046E+03  0.39380321158E+03  0.47019777862E+03  0.00000000000E+00 0. -1.
<mgrwt>
<rscale>  3 0.65821751E+03</rscale>
<asrwt>0</asrwt>
<pdfrwt beam="1">  1        2 0.33360379E+00 0.65821751E+03</pdfrwt>
<pdfrwt beam="2">  1       -2 0.76845984E-02 0.65821751E+03</pdfrwt>
<totfact> 0.58425697E+02</totfact>
</mgrwt>
</event>
<event>
 4    0  0.1264838E-002  0.6450460E+03  0.7546771E-02  0.9816120E-01
         -2   -1    0    0    0  501 -0.00000000000E+00  0.00000000000E+00  0.22715456645E+03  0.22715456645E+03  0.00000000000E+00 0. -1.
          2   -1    0    0  502    0  0.00000000000E+00 -0.00000000000E+00 -0.45793081435E+03  0.45793081435E+03  0.00000000000E+00 0.  1.
         25    1    1    2    0    0 -0.13521826612E+03  0.22053803221E+03 -0.30193475951E+03  0.41678603880E+03  0.12500000000E+03 0.  0.
         21    1    1    2  502  501  0.13521826612E+03 -0.22053803221E+03  0.71158511603E+02  0.26829934200E+03  0.00000000000E+00 0. -1.
<mgrwt>
<rscale>  3 0.64504597E+03</rscale>
<asrwt>0</asrwt>
<pdfrwt beam="1">  1        2 0.70450894E-01 0.64504597E+03</pdfrwt>
<pdfrwt beam="2">  1       -2 0.34946857E-01 0.64504597E+03</pdfrwt>
<totfact> 0.52747755E+02</totfact>
</mgrwt>
</event>
<event>
 4    0  0.1264838E-002  0.1171114E+04  0.7546771E-02  0.9138523E-01
          2   -1    0    0  502    0  0.00000000000E+00  0.00000000000E+00  0.13354001451E+04  0.13354001451E+04  0.00000000000E+00 0. -1.
         -2   -1    0    0    0  501 -0.00000000000E+00 -0.00000000000E+00 -0.25675963442E+03  0.25675963442E+03  0.00000000000E+00 0.  1.
         25    1    1    2    0    0  0.50820284040E+02 -0.46889270362E+03  0.89129694642E+02  0.49599614036E+03  0.12500000000E+03 0.  0.
         21    1    1    2  502  501 -0.50820284040E+02  0.46889270362E+03  0.98951081604E+03  0.10961636392E+04  0.00000000000E+00 0. -1.
<mgrwt>
<rscale>  3 0.11711137E+04</rscale>
<asrwt>0</asrwt>
<pdfrwt beam="1">  1        2 0.20544617E+00 0.11711137E+04</pdfrwt>
<pdfrwt beam="2">  1       -2 0.39501483E-01 0.11711137E+04</pdfrwt>
<totfact> 0.94404068E+01</totfact>
</mgrwt>
</event>
<event>
 4    0  0.1264838E-002  0.6635449E+03  0.7546771E-02  0.9781690E-01
          2   -1    0    0  502    0  0.00000000000E+00  0.00000000000E+00  0.15988360149E+03  0.15988360149E+03  0.00000000000E+00 0.  1.
         -2   -1    0    0    0  501 -0.00000000000E+00 -0.00000000000E+00 -0.68845673817E+03  0.68845673817E+03  0.00000000000E+00 0. -1.
         25    1    1    2    0    0  0.79890225733E+02  0.24870386093E+03 -0.37357816882E+02  0.29198743995E+03  0.12500000000E+03 0.  0.
         21    1    1    2  502  501 -0.79890225733E+02 -0.24870386093E+03 -0.49121531980E+03  0.55635289971E+03  0.00000000000E+00 0. -1.
<mgrwt>
<rscale>  3 0.66354485E+03</rscale>
<asrwt>0</asrwt>
<pdfrwt beam="1">  1        2 0.24597477E-01 0.66354485E+03</pdfrwt>
<pdfrwt beam="2">  1       -2 0.10591642E+00 0.66354485E+03</pdfrwt>
<totfact> 0.16257760E+02</totfact>
</mgrwt>
</event>
<event>
 4    0  0.1264838E-002  0.7872514E+03  0.7546771E-02  0.9578656E-01
          2   -1    0    0  502    0  0.00000000000E+00  0.00000000000E+00  0.21810256735E+04  0.21810256735E+04  0.00000000000E+00 0. -1.
         -2   -1    0    0    0  501 -0.00000000000E+00 -0.00000000000E+00 -0.71040520882E+02  0.71040520882E+02  0.00000000000E+00 0.  1.
         25    1    1    2    0    0  0.73068878894E+02 -0.36945833025E+03  0.12915848058E+04  0.13511679501E+04  0.12500000000E+03 0.  0.
         21    1    1    2  502  501 -0.73068878894E+02  0.36945833025E+03  0.81840034685E+03  0.90089824430E+03  0.00000000000E+00 0. -1.
<mgrwt>
<rscale>  3 0.78725142E+03</rscale>
<asrwt>0</asrwt>
<pdfrwt beam="1">  1        2 0.33554236E+00 0.78725142E+03</pdfrwt>
<pdfrwt beam="2">  1       -2 0.10929313E-01 0.78725142E+03</pdfrwt>
<totfact> 0.32211532E+02</totfact>
</mgrwt>
</event>
<event>
 4    0  0.1264838E-002  0.5006490E+03  0.7546771E-02  0.1013610E+00
         -2   -1    0    0    0  501 -0.00000000000E+00  0.00000000000E+00  0.23878095952E+02  0.23878095952E+02  0.00000000000E+00 0.  1.
          2   -1    0    0  502    0  0.00000000000E+00 -0.00000000000E+00 -0.26242607114E+04  0.26242607114E+04  0.00000000000E+00 0. -1.
         25    1    1    2    0    0 -0.17174043957E+03 -0.11325288315E+03 -0.78346044054E+03  0.81960737918E+03  0.12500000000E+03 0.  0.
         21    1    1    2  502  501  0.17174043957E+03  0.11325288315E+03 -0.18169221749E+04  0.18285314282E+04  0.00000000000E+00 0. -1.
<mgrwt>
<rscale>  3 0.50064898E+03</rscale>
<asrwt>0</asrwt>
<pdfrwt beam="1">  1        2 0.40373227E+00 0.50064898E+03</pdfrwt>
<pdfrwt beam="2">  1       -2 0.36735545E-02 0.50064898E+03</pdfrwt>
<totfact> 0.10408906E+03</totfact>
</mgrwt>
</event>
<event>
 4    0  0.1264838E-002  0.6060115E+03  0.7546771E-02  0.9893012E-01
         -2   -1    0    0    0  501 -0.00000000000E+00  0.00000000000E+00  0.12225523135E+03  0.12225523135E+03  0.00000000000E+00 0.  1.
          2   -1    0    0  502    0  0.00000000000E+00 -0.00000000000E+00 -0.75099012667E+03  0.75099012667E+03  0.00000000000E+00 0. -1.
         25    1    1    2    0    0 -0.17564219752E+03  0.22513527780E+03 -0.40164191452E+03  0.50840663092E+03  0.12500000000E+03 0.  0.
         21    1    1    2  502  501  0.17564219752E+03 -0.22513527780E+03 -0.22709298080E+03  0.36483872709E+03  0.00000000000E+00 0.  1.
<mgrwt>
<rscale>  3 0.60601146E+03</rscale>
<asrwt>0</asrwt>
<pdfrwt beam="1">  1        2 0.11553694E+00 0.60601146E+03</pdfrwt>
<pdfrwt beam="2">  1       -2 0.18808497E-01 0.60601146E+03</pdfrwt>
<totfact> 0.89405510E+02</totfact>
</mgrwt>
</event>
<event>
 4    0  0.1264838E-002  0.8959481E+03  0.7546771E-02  0.9430661E-01
         -2   -1    0    0    0  501 -0.00000000000E+00  0.00000000000E+00  0.25813093963E+03  0.25813093963E+03  0.00000000000E+00 0.  1.
          2   -1    0    0  502    0  0.00000000000E+00 -0.00000000000E+00 -0.77743772027E+03  0.77743772027E+03  0.00000000000E+00 0. -1.
         25    1    1    2    0    0  0.28993051458E+03 -0.28452174980E+03 -0.71534474333E+02  0.43099247141E+03  0.12500000000E+03 0.  0.
         21    1    1    2  502  501 -0.28993051458E+03  0.28452174980E+03 -0.44777230631E+03  0.60457618849E+03  0.00000000000E+00 0.  1.
<mgrwt>
<rscale>  3 0.89594805E+03</rscale>
<asrwt>0</asrwt>
<pdfrwt beam="1">  1        2 0.11960580E+00 0.89594805E+03</pdfrwt>
<pdfrwt beam="2">  1       -2 0.39712453E-01 0.89594805E+03</pdfrwt>
<totfact> 0.21512633E+02</totfact>
</mgrwt>
</event>
<event>
 4    0  0.1264838E-002  0.4520045E+03  0.7546771E-02  0.1027126E+00
          3   -1    0    0  502    0  0.00000000000E+00  0.00000000000E+00  0.41534553332E+03  0.41534553332E+03  0.00000000000E+00 0. -1.
         -3   -1    0    0    0  501 -0.00000000000E+00 -0.00000000000E+00 -0.12297473868E+03  0.12297473868E+03  0.00000000000E+00 0.  1.
         25    1    1    2    0    0 -0.48872309906E+02 -0.19909791912E+03  0.11070808062E+03  0.26440454456E+03  0.12500000000E+03 0.  0.
         21    1    1    2  502  501  0.48872309906E+02  0.19909791912E+03  0.18166271402E+03  0.27391572744E+03  0.00000000000E+00 0. -1.
<mgrwt>
<rscale>  3 0.45200446E+03</rscale>
<asrwt>0</asrwt>
<pdfrwt beam="1">  1        3 0.63899312E-01 0.45200446E+03</pdfrwt>
<pdfrwt beam="2">  1       -3 0.18919191E-01 0.45200446E+03</pdfrwt>
<totfact> 0.15609450E+02</totfact>
</mgrwt>
</event>
<event>
 4    0  0.1264838E-002  0.6554189E+03  0.7546771E-02  0.9796664E-01
         -2   -1    0    0    0  501 -0.00000000000E+00  0.00000000000E+00  0.64744080379E+02  0.64744080379E+02  0.00000000000E+00 0. -1.
          2   -1    0    0  502    0  0.00000000000E+00 -0.00000000000E+00 -0.16587381977E+04  0.16587381977E+04  0.00000000000E+00 0.  1.
         25    1    1    2    0    0 -0.20285898747E+03 -0.10158421578E+03 -0.24836238973E+03  0.35885930157E+03  0.12500000000E+03 0.  0.
         21    1    1    2  502  501  0.20285898747E+03  0.10158421578E+03 -0.13456317276E+04  0.13646229765E+04  0.00000000000E+00 0.  1.
<mgrwt>
<rscale>  3 0.65541889E+03</rscale>
<asrwt>0</asrwt>
<pdfrwt beam="1">  1        2 0.25519048E+00 0.65541889E+03</pdfrwt>
<pdfrwt beam="2">  1       -2 0.99606283E-02 0.65541889E+03</pdfrwt>
<totfact> 0.72911222E+02</totfact>
</mgrwt>
</event>
<event>
 4    0  0.1264838E-002  0.4981991E+03  0.7546771E-02  0.1014250E+00
         -2   -1    0    0    0  501 -0.00000000000E+00  0.00000000000E+00  0.41308850504E+02  0.41308850504E+02  0.00000000000E+00 0.  1.
          2   -1    0    0  502    0  0.00000000000E+00 -0.00000000000E+00 -0.15021135558E+04  0.15021135558E+04  0.00000000000E+00 0. -1.
         25    1    1    2    0    0  0.19565454038E+03  0.12655538126E+03 -0.81875102879E+03  0.86039247489E+03  0.12500000000E+03 0.  0.
         21    1    1    2  502  501 -0.19565454038E+03 -0.12655538126E+03 -0.64205367651E+03  0.68302993142E+03  0.00000000000E+00 0.  1.
<mgrwt>
<rscale>  3 0.49819909E+03</rscale>
<asrwt>0</asrwt>
<pdfrwt beam="1">  1        2 0.23109437E+00 0.49819909E+03</pdfrwt>
<pdfrwt beam="2">  1       -2 0.63552083E-02 0.49819909E+03</pdfrwt>
<totfact> 0.18303123E+03</totfact>
</mgrwt>
</event>
<event>
 4    0  0.1264838E-002  0.5350141E+03  0.7546771E-02  0.1005023E+00
         -2   -1    0    0    0  501 -0.00000000000E+00  0.00000000000E+00  0.47854913514E+02  0.47854913514E+02  0.00000000000E+00 0.  1.
          2   -1    0    0  502    0  0.00000000000E+00 -0.00000000000E+00 -0.14953537149E+04  0.14953537149E+04  0.00000000000E+00 0. -1.
         25    1    1    2    0    0  0.11758483479E+03  0.21992161467E+03 -0.88457569254E+03  0.92751866062E+03  0.12500000000E+03 0.  0.
         21    1    1    2  502  501 -0.11758483479E+03 -0.21992161467E+03 -0.56292310887E+03  0.61568996781E+03  0.00000000000E+00 0. -1.
<mgrwt>
<rscale>  3 0.53501410E+03</rscale>
<asrwt>0</asrwt>
<pdfrwt beam="1">  1        2 0.23005440E+00 0.53501410E+03</pdfrwt>
<pdfrwt beam="2">  1       -2 0.73622950E-02 0.53501410E+03</pdfrwt>
<totfact> 0.14627229E+03</totfact>
</mgrwt>
</event>
<event>
 4    0  0.1264838E-002  0.5821417E+03  0.7546771E-02  0.9943165E-01
         -2   -1    0    0    0  501 -0.00000000000E+00  0.00000000000E+00  0.62341553619E+02  0.62341553619E+02  0.00000000000E+00 0.  1.
          2   -1    0    0  502    0  0.00000000000E+00 -0.00000000000E+00 -0.13590012342E+04  0.13590012342E+04  0.00000000000E+00 0. -1.
         25    1    1    2    0    0 -0.23268344128E+03  0.91561889729E+01 -0.10474124120E+04  0.10802421860E+04  0.12500000000E+03 0.  0.
         21    1    1    2  502  501  0.23268344128E+03 -0.91561889729E+01 -0.24924726852E+03  0.34110060174E+03  0.00000000000E+00 0. -1.
<mgrwt>
<rscale>  3 0.58214173E+03</rscale>
<asrwt>0</asrwt>
<pdfrwt beam="1">  1        2 0.20907711E+00 0.58214173E+03</pdfrwt>
<pdfrwt beam="2">  1       -2 0.95910085E-02 0.58214173E+03</pdfrwt>
<totfact> 0.11397661E+03</totfact>
</mgrwt>
</event>
<event>
 4    0  0.1264838E-002  0.5225585E+03  0.7546771E-02  0.1008053E+00
         -2   -1    0    0    0  501 -0.00000000000E+00  0.00000000000E+00  0.81155065711E+03  0.81155065711E+03  0.00000000000E+00 0. -1.
          2   -1    0    0  502    0  0.00000000000E+00 -0.00000000000E+00 -0.84119020551E+02  0.84119020551E+02  0.00000000000E+00 0.  1.
         25    1    1    2    0    0  0.22612047983E+03 -0.24847516539E+02  0.54649921398E+03  0.60500765396E+03  0.12500000000E+03 0.  0.
         21    1    1    2  502  501 -0.22612047983E+03  0.24847516539E+02  0.18093242258E+03  0.29066202369E+03  0.00000000000E+00 0.  1.
<mgrwt>
<rscale>  3 0.52255850E+03</rscale>
<asrwt>0</asrwt>
<pdfrwt beam="1">  1        2 0.12941388E-01 0.52255850E+03</pdfrwt>
<pdfrwt beam="2">  1       -2 0.12485394E+00 0.52255850E+03</pdfrwt>
<totfact> 0.23449024E+02</totfact>
</mgrwt>
</event>
<event>
 4    0  0.1451777E-002  0.5557047E+03  0.7546771E-02  0.1000182E+00
          1   -1    0    0  502    0  0.00000000000E+00  0.00000000000E+00  0.70915252092E+03  0.70915252092E+03  0.00000000000E+00 0. -1.
         -1   -1    0    0    0  501 -0.00000000000E+00 -0.00000000000E+00 -0.10886503746E+03  0.10886503746E+03  0.00000000000E+00 0.  1.
         25    1    1    2    0    0 -0.26078431678E+02 -0.20564172498E+03  0.75165179699E+02  0.25346283335E+03  0.12500000000E+03 0.  0.
         21    1    1    2  502  501  0.26078431678E+02  0.20564172498E+03  0.52512230376E+03  0.56455472504E+03  0.00000000000E+00 0. -1.
<mgrwt>
<rscale>  3 0.55570465E+03</rscale>
<asrwt>0</asrwt>
<pdfrwt beam="1">  1        1 0.10910038E+00 0.55570465E+03</pdfrwt>
<pdfrwt beam="2">  1       -1 0.16748468E-01 0.55570465E+03</pdfrwt>
<totfact> 0.74017174E+02</totfact>
</mgrwt>
</event>
<event>
 4    0  0.1264838E-002  0.5183520E+03  0.7546771E-02  0.1009097E+00
          2   -1    0    0  502    0  0.00000000000E+00  0.00000000000E+00  0.29595287915E+04  0.29595287915E+04  0.00000000000E+00 0.  1.
         -2   -1    0    0    0  501 -0.00000000000E+00 -0.00000000000E+00 -0.22696927606E+02  0.22696927606E+02  0.00000000000E+00 0. -1.
         25    1    1    2    0    0  0.65227404389E+02 -0.21371698897E+03  0.21191925646E+04  0.21346034038E+04  0.12500000000E+03 0.  0.
         21    1    1    2  502  501 -0.65227404389E+02  0.21371698897E+03  0.81763929935E+03  0.84762231536E+03  0.00000000000E+00 0. -1.
<mgrwt>
<rscale>  3 0.51835205E+03</rscale>
<asrwt>0</asrwt>
<pdfrwt beam="1">  1        2 0.45531182E+00 0.51835205E+03</pdfrwt>
<pdfrwt beam="2">  1       -2 0.34918374E-02 0.51835205E+03</pdfrwt>
<totfact> 0.71523864E+02</totfact>
</mgrwt>
</event>
<event>
 4    0  0.1264838E-002  0.7200390E+03  0.7546771E-02  0.9683563E-01
         -2   -1    0    0    0  501 -0.00000000000E+00  0.00000000000E+00  0.99082207743E+02  0.99082207743E+02  0.00000000000E+00 0. -1.
          2   -1    0    0  502    0  0.00000000000E+00 -0.00000000000E+00 -0.13081464620E+04  0.13081464620E+04  0.00000000000E+00 0.  1.
         25    1    1    2    0    0 -0.26087176553E+03 -0.15069869560E+03 -0.27778773718E+03  0.42843342754E+03  0.12500000000E+03 0.  0.
         21    1    1    2  502  501  0.26087176553E+03  0.15069869560E+03 -0.93127651709E+03  0.97879524222E+03  0.00000000000E+00 0.  1.
<mgrwt>
<rscale>  3 0.72003900E+03</rscale>
<asrwt>0</asrwt>
<pdfrwt beam="1">  1        2 0.20125331E+00 0.72003900E+03</pdfrwt>
<pdfrwt beam="2">  1       -2 0.15243416E-01 0.72003900E+03</pdfrwt>
<totfact> 0.56328714E+02</totfact>
</mgrwt>
</event>
<event>
 4    0  0.1264838E-002  0.5351232E+03  0.7546771E-02  0.1004997E+00
          1   -1    0    0  502    0  0.00000000000E+00  0.00000000000E+00  0.10604895996E+04  0.10604895996E+04  0.00000000000E+00 0. -1.
         -1   -1    0    0    0  501 -0.00000000000E+00 -0.00000000000E+00 -0.67505815021E+02  0.67505815021E+02  0.00000000000E+00 0.  1.
         25    1    1    2    0    0 -0.20504098495E+03  0.10677025265E+03  0.30709078219E+03  0.40419233153E+03  0.12500000000E+03 0.  0.
         21    1    1    2  502  501  0.20504098495E+03 -0.10677025265E+03  0.68589300237E+03  0.72380308307E+03  0.00000000000E+00 0. -1.
<mgrwt>
<rscale>  3 0.53512322E+03</rscale>
<asrwt>0</asrwt>
<pdfrwt beam="1">  1        1 0.16315223E+00 0.53512322E+03</pdfrwt>
<pdfrwt beam="2">  1       -1 0.10385511E-01 0.53512322E+03</pdfrwt>
<totfact> 0.82038866E+02</totfact>
</mgrwt>
</event>
<event>
 4    0  0.1264838E-002  0.5182830E+03  0.7546771E-02  0.1009114E+00
          3   -1    0    0  502    0  0.00000000000E+00  0.00000000000E+00  0.69201001623E+02  0.69201001623E+02  0.00000000000E+00 0. -1.
         -3   -1    0    0    0  501 -0.00000000000E+00 -0.00000000000E+00 -0.97042413629E+03  0.97042413629E+03  0.00000000000E+00 0.  1.
         25    1    1    2    0    0 -0.35168223362E+02 -0.23479581938E+03 -0.59034986585E+03  0.64846267806E+03  0.12500000000E+03 0.  0.
         21    1    1    2  502  501  0.35168223362E+02  0.23479581938E+03 -0.31087326882E+03  0.39116245985E+03  0.00000000000E+00 0. -1.
<mgrwt>
<rscale>  3 0.51828302E+03</rscale>
<asrwt>0</asrwt>
<pdfrwt beam="1">  1        3 0.10646308E-01 0.51828302E+03</pdfrwt>
<pdfrwt beam="2">  1       -3 0.14929602E+00 0.51828302E+03</pdfrwt>
<totfact> 0.59414873E+01</totfact>
</mgrwt>
</event>
<event>
 4    0  0.1264838E-002  0.1005163E+04  0.7546771E-02  0.9302900E-01
         -2   -1    0    0    0  501 -0.00000000000E+00  0.00000000000E+00  0.45802525183E+03  0.45802525183E+03  0.00000000000E+00 0.  1.
          2   -1    0    0  502    0  0.00000000000E+00 -0.00000000000E+00 -0.55147222490E+03  0.55147222490E+03  0.00000000000E+00 0. -1.
         25    1    1    2    0    0 -0.66238650917E+02  0.28543508671E+03  0.35299041214E+03  0.47548709621E+03  0.12500000000E+03 0.  0.
         21    1    1    2  502  501  0.66238650917E+02 -0.28543508671E+03 -0.44643738520E+03  0.53401038052E+03  0.00000000000E+00 0. -1.
<mgrwt>
<rscale>  3 0.10051631E+04</rscale>
<asrwt>0</asrwt>
<pdfrwt beam="1">  1        2 0.84841881E-01 0.10051631E+04</pdfrwt>
<pdfrwt beam="2">  1       -2 0.70465423E-01 0.10051631E+04</pdfrwt>
<totfact> 0.10043259E+02</totfact>
</mgrwt>
</event>
<event>
 4    0  0.1264838E-002  0.5772954E+03  0.7546771E-02  0.9953664E-01
         -2   -1    0    0    0  501 -0.00000000000E+00  0.00000000000E+00  0.19393946918E+03  0.19393946918E+03  0.00000000000E+00 0.  1.
          2   -1    0    0  502    0  0.00000000000E+00 -0.00000000000E+00 -0.42960564570E+03  0.42960564570E+03  0.00000000000E+00 0. -1.
         25    1    1    2    0    0  0.12062450002E+03  0.19277148505E+03  0.43892909802E+02  0.26317808226E+03  0.12500000000E+03 0.  0.
         21    1    1    2  502  501 -0.12062450002E+03 -0.19277148505E+03 -0.27955908632E+03  0.36036703262E+03  0.00000000000E+00 0. -1.
<mgrwt>
<rscale>  3 0.57729539E+03</rscale>
<asrwt>0</asrwt>
<pdfrwt beam="1">  1        2 0.66093176E-01 0.57729539E+03</pdfrwt>
<pdfrwt beam="2">  1       -2 0.29836842E-01 0.57729539E+03</pdfrwt>
<totfact> 0.76320249E+02</totfact>
</mgrwt>
</event>
<event>
 4    0  0.1264838E-002  0.4704310E+03  0.7546771E-02  0.1021799E+00
         -1   -1    0    0    0  501 -0.00000000000E+00  0.00000000000E+00  0.10171964443E+03  0.10171964443E+03  0.00000000000E+00 0.  1.
          1   -1    0    0  502    0  0.00000000000E+00 -0.00000000000E+00 -0.54391002818E+03  0.54391002818E+03  0.00000000000E+00 0. -1.
         25    1    1    2    0    0  0.17928407219E+03  0.11247690358E+03 -0.31182332252E+03  0.39705492926E+03  0.12500000000E+03 0.  0.
         21    1    1    2  502  501 -0.17928407219E+03 -0.11247690358E+03 -0.13036706123E+03  0.24857474336E+03  0.00000000000E+00 0.  1.
<mgrwt>
<rscale>  3 0.47043101E+03</rscale>
<asrwt>0</asrwt>
<pdfrwt beam="1">  1        1 0.83678466E-01 0.47043101E+03</pdfrwt>
<pdfrwt beam="2">  1       -1 0.15649176E-01 0.47043101E+03</pdfrwt>
<totfact> 0.12124082E+03</totfact>
</mgrwt>
</event>
<event>
 4    0  0.1264838E-002  0.4756623E+03  0.7546771E-02  0.1020334E+00
         -2   -1    0    0    0  501 -0.00000000000E+00  0.00000000000E+00  0.49099692448E+02  0.49099692448E+02  0.00000000000E+00 0.  1.
          2   -1    0    0  502    0  0.00000000000E+00 -0.00000000000E+00 -0.11520164312E+04  0.11520164312E+04  0.00000000000E+00 0. -1.
         25    1    1    2    0    0  0.20104615790E+03 -0.91834887230E+02 -0.55684023305E+03  0.61200428860E+03  0.12500000000E+03 0.  0.
         21    1    1    2  502  501 -0.20104615790E+03  0.91834887230E+02 -0.54607650569E+03  0.58911183504E+03  0.00000000000E+00 0.  1.
<mgrwt>
<rscale>  3 0.47566229E+03</rscale>
<asrwt>0</asrwt>
<pdfrwt beam="1">  1        2 0.17723328E+00 0.47566229E+03</pdfrwt>
<pdfrwt beam="2">  1       -2 0.75537994E-02 0.47566229E+03</pdfrwt>
<totfact> 0.22024861E+03</totfact>
</mgrwt>
</event>
<event>
 4    0  0.1264838E-002  0.4713084E+03  0.7546771E-02  0.1021552E+00
          2   -1    0    0  502    0  0.00000000000E+00  0.00000000000E+00  0.23290895543E+04  0.23290895543E+04  0.00000000000E+00 0.  1.
         -2   -1    0    0    0  501 -0.00000000000E+00 -0.00000000000E+00 -0.23843183282E+02  0.23843183282E+02  0.00000000000E+00 0. -1.
         25    1    1    2    0    0  0.11916403596E+02  0.21614438271E+03  0.10655252226E+04  0.10944539254E+04  0.12500000000E+03 0.  0.
         21    1    1    2  502  501 -0.11916403596E+02 -0.21614438271E+03  0.12397211484E+04  0.12584788122E+04  0.00000000000E+00 0. -1.
<mgrwt>
<rscale>  3 0.47130843E+03</rscale>
<asrwt>0</asrwt>
<pdfrwt beam="1">  1        2 0.35832129E+00 0.47130843E+03</pdfrwt>
<pdfrwt beam="2">  1       -2 0.36681839E-02 0.47130843E+03</pdfrwt>
<totfact> 0.15280734E+03</totfact>
</mgrwt>
</event>
<event>
 4    0  0.1264838E-002  0.4856531E+03  0.7546771E-02  0.1017593E+00
          2   -1    0    0  502    0  0.00000000000E+00  0.00000000000E+00  0.43431818822E+03  0.43431818822E+03  0.00000000000E+00 0.  1.
         -2   -1    0    0    0  501 -0.00000000000E+00 -0.00000000000E+00 -0.13576391932E+03  0.13576391932E+03  0.00000000000E+00 0. -1.
         25    1    1    2    0    0 -0.65886614334E+02 -0.20948611949E+03  0.92913782110E+02  0.26922750809E+03  0.12500000000E+03 0.  0.
         21    1    1    2  502  501  0.65886614334E+02  0.20948611949E+03  0.20564048679E+03  0.30085459945E+03  0.00000000000E+00 0.  1.
<mgrwt>
<rscale>  3 0.48565313E+03</rscale>
<asrwt>0</asrwt>
<pdfrwt beam="1">  1        2 0.66818182E-01 0.48565313E+03</pdfrwt>
<pdfrwt beam="2">  1       -2 0.20886757E-01 0.48565313E+03</pdfrwt>
<totfact> 0.14294660E+03</totfact>
</mgrwt>
</event>
<event>
 4    0  0.1264838E-002  0.4808599E+03  0.7546771E-02  0.1018899E+00
          1   -1    0    0  502    0  0.00000000000E+00  0.00000000000E+00  0.10326062785E+03  0.10326062785E+03  0.00000000000E+00 0. -1.
         -1   -1    0    0    0  501 -0.00000000000E+00 -0.00000000000E+00 -0.55981231207E+03  0.55981231207E+03  0.00000000000E+00 0.  1.
         25    1    1    2    0    0 -0.11270541215E+02  0.21407956454E+03 -0.15326890562E+03  0.29167352037E+03  0.12500000000E+03 0.  0.
         21    1    1    2  502  501  0.11270541215E+02 -0.21407956454E+03 -0.30328277859E+03  0.37139941955E+03  0.00000000000E+00 0.  1.
<mgrwt>
<rscale>  3 0.48085994E+03</rscale>
<asrwt>0</asrwt>
<pdfrwt beam="1">  1        1 0.15886251E-01 0.48085994E+03</pdfrwt>
<pdfrwt beam="2">  1       -1 0.86124969E-01 0.48085994E+03</pdfrwt>
<totfact> 0.48157685E+02</totfact>
</mgrwt>
</event>
<event>
 4    0  0.1264838E-002  0.7505935E+03  0.7546771E-02  0.9634420E-01
          2   -1    0    0  502    0  0.00000000000E+00  0.00000000000E+00  0.28114964042E+04  0.28114964042E+04  0.00000000000E+00 0. -1.
         -2   -1    0    0    0  501 -0.00000000000E+00 -0.00000000000E+00 -0.50097042468E+02  0.50097042468E+02  0.00000000000E+00 0.  1.
         25    1    1    2    0    0  0.30732598456E+03 -0.19711258641E+02  0.67282694132E+03  0.75043912976E+03  0.12500000000E+03 0.  0.
         21    1    1    2  502  501 -0.30732598456E+03  0.19711258641E+02  0.20885724204E+04  0.21111543169E+04  0.00000000000E+00 0. -1.
<mgrwt>
<rscale>  3 0.75059351E+03</rscale>
<asrwt>0</asrwt>
<pdfrwt beam="1">  1        2 0.43253779E+00 0.75059351E+03</pdfrwt>
<pdfrwt beam="2">  1       -2 0.77072395E-02 0.75059351E+03</pdfrwt>
<totfact> 0.24914402E+02</totfact>
</mgrwt>
</event>
<event>
 4    0  0.1264838E-002  0.5115103E+03  0.7546771E-02  0.1010817E+00
         -1   -1    0    0    0  501 -0.00000000000E+00  0.00000000000E+00  0.12725852896E+03  0.12725852896E+03  0.00000000000E+00 0.  1.
          1   -1    0    0  502    0  0.00000000000E+00 -0.00000000000E+00 -0.51399862747E+03  0.51399862747E+03  0.00000000000E+00 0. -1.
         25    1    1    2    0    0  0.16651602989E+03  0.16741016072E+03 -0.14777357461E+03  0.30531259305E+03  0.12500000000E+03 0.  0.
         21    1    1    2  502  501 -0.16651602989E+03 -0.16741016072E+03 -0.23896652390E+03  0.33594456339E+03  0.00000000000E+00 0.  1.
<mgrwt>
<rscale>  3 0.51151035E+03</rscale>
<asrwt>0</asrwt>
<pdfrwt beam="1">  1        1 0.79076712E-01 0.51151035E+03</pdfrwt>
<pdfrwt beam="2">  1       -1 0.19578235E-01 0.51151035E+03</pdfrwt>
<totfact> 0.90867266E+02</totfact>
</mgrwt>
</event>
<event>
 4    0  0.1264838E-002  0.4530034E+03  0.7546771E-02  0.1026830E+00
          1   -1    0    0  502    0  0.00000000000E+00  0.00000000000E+00  0.30637530895E+03  0.30637530895E+03  0.00000000000E+00 0.  1.
         -1   -1    0    0    0  501 -0.00000000000E+00 -0.00000000000E+00 -0.16745152456E+03  0.16745152456E+03  0.00000000000E+00 0. -1.
         25    1    1    2    0    0 -0.20209499986E+03 -0.54192551470E+02  0.71662814603E+02  0.25404680789E+03  0.12500000000E+03 0.  0.
         21    1    1    2  502  501  0.20209499986E+03  0.54192551470E+02  0.67260969782E+02  0.21978002562E+03  0.00000000000E+00 0. -1.
<mgrwt>
<rscale>  3 0.45300337E+03</rscale>
<asrwt>0</asrwt>
<pdfrwt beam="1">  1        1 0.47134663E-01 0.45300337E+03</pdfrwt>
<pdfrwt beam="2">  1       -1 0.25761773E-01 0.45300337E+03</pdfrwt>
<totfact> 0.11340647E+03</totfact>
</mgrwt>
</event>
<event>
 4    0  0.1264838E-002  0.4754657E+03  0.7546771E-02  0.1020389E+00
         -2   -1    0    0    0  501 -0.00000000000E+00  0.00000000000E+00  0.92386257269E+02  0.92386257269E+02  0.00000000000E+00 0. -1.
          2   -1    0    0  502    0  0.00000000000E+00 -0.00000000000E+00 -0.61174579162E+03  0.61174579162E+03  0.00000000000E+00 0.  1.
         25    1    1    2    0    0 -0.83572585590E+02 -0.20404529910E+03 -0.24970424519E+03  0.35580341653E+03  0.12500000000E+03 0.  0.
         21    1    1    2  502  501  0.83572585590E+02  0.20404529910E+03 -0.26965528916E+03  0.34832863236E+03  0.00000000000E+00 0.  1.
<mgrwt>
<rscale>  3 0.47546568E+03</rscale>
<asrwt>0</asrwt>
<pdfrwt beam="1">  1        2 0.94114740E-01 0.47546568E+03</pdfrwt>
<pdfrwt beam="2">  1       -2 0.14213270E-01 0.47546568E+03</pdfrwt>
<totfact> 0.18553019E+03</totfact>
</mgrwt>
</event>
<event>
 4    0  0.1264838E-002  0.4971365E+03  0.7546771E-02  0.1014529E+00
         -2   -1    0    0    0  501 -0.00000000000E+00  0.00000000000E+00  0.10991515014E+03  0.10991515014E+03  0.00000000000E+00 0.  1.
          2   -1    0    0  502    0  0.00000000000E+00 -0.00000000000E+00 -0.56212600773E+03  0.56212600773E+03  0.00000000000E+00 0. -1.
         25    1    1    2    0    0 -0.23078207355E+03  0.14929099101E+02 -0.27710878328E+03  0.38196534037E+03  0.12500000000E+03 0.  0.
         21    1    1    2  502  501  0.23078207355E+03 -0.14929099101E+02 -0.17510207431E+03  0.29007581751E+03  0.00000000000E+00 0.  1.
<mgrwt>
<rscale>  3 0.49713646E+03</rscale>
<asrwt>0</asrwt>
<pdfrwt beam="1">  1        2 0.86480925E-01 0.49713646E+03</pdfrwt>
<pdfrwt beam="2">  1       -2 0.16910023E-01 0.49713646E+03</pdfrwt>
<totfact> 0.15309518E+03</totfact>
</mgrwt>
</event>
<event>
 4    0  0.1264838E-002  0.5267180E+03  0.7546771E-02  0.1007031E+00
          1   -1    0    0  502    0  0.00000000000E+00  0.00000000000E+00  0.64288329319E+03  0.64288329319E+03  0.00000000000E+00 0.  1.
         -1   -1    0    0    0  501 -0.00000000000E+00 -0.00000000000E+00 -0.10788576060E+03  0.10788576060E+03  0.00000000000E+00 0. -1.
         25    1    1    2    0    0  0.39437776388E+02  0.23073928334E+03  0.16356925725E+03  0.31173042360E+03  0.12500000000E+03 0.  0.
         21    1    1    2  502  501 -0.39437776388E+02 -0.23073928334E+03  0.37142827534E+03  0.43903863019E+03  0.00000000000E+00 0.  1.
<mgrwt>
<rscale>  3 0.52671796E+03</rscale>
<asrwt>0</asrwt>
<pdfrwt beam="1">  1        1 0.98905120E-01 0.52671796E+03</pdfrwt>
<pdfrwt beam="2">  1       -1 0.16597810E-01 0.52671796E+03</pdfrwt>
<totfact> 0.86907956E+02</totfact>
</mgrwt>
</event>
<event>
 4    0  0.1264838E-002  0.6627708E+03  0.7546771E-02  0.9783106E-01
         -2   -1    0    0    0  501 -0.00000000000E+00  0.00000000000E+00  0.30650266370E+02  0.30650266370E+02  0.00000000000E+00 0. -1.
          2   -1    0    0  502    0  0.00000000000E+00 -0.00000000000E+00 -0.35828815648E+04  0.35828815648E+04  0.00000000000E+00 0.  1.
         25    1    1    2    0    0  0.21705965334E+02  0.27002846866E+03 -0.91473519960E+03  0.96216007411E+03  0.12500000000E+03 0.  0.
         21    1    1    2  502  501 -0.21705965334E+02 -0.27002846866E+03 -0.26374960988E+04  0.26513717571E+04  0.00000000000E+00 0.  1.
<mgrwt>
<rscale>  3 0.66277077E+03</rscale>
<asrwt>0</asrwt>
<pdfrwt beam="1">  1        2 0.55121258E+00 0.66277077E+03</pdfrwt>
<pdfrwt beam="2">  1       -2 0.47154253E-02 0.66277077E+03</pdfrwt>
<totfact> 0.17560656E+02</totfact>
</mgrwt>
</event>
<event>
 4    0  0.1264838E-002  0.5630977E+03  0.7546771E-02  0.9985070E-01
          1   -1    0    0  502    0  0.00000000000E+00  0.00000000000E+00  0.71326191025E+03  0.71326191025E+03  0.00000000000E+00 0. -1.
         -1   -1    0    0    0  501 -0.00000000000E+00 -0.00000000000E+00 -0.11113694137E+03  0.11113694137E+03  0.00000000000E+00 0.  1.
         25    1    1    2    0    0  0.19564241936E+03 -0.42706843203E+02  0.57594573259E+03  0.62244543342E+03  0.12500000000E+03 0.  0.
         21    1    1    2  502  501 -0.19564241936E+03  0.42706843203E+02  0.26179236294E+02  0.20195341819E+03  0.00000000000E+00 0.  1.
<mgrwt>
<rscale>  3 0.56309767E+03</rscale>
<asrwt>0</asrwt>
<pdfrwt beam="1">  1        1 0.10973260E+00 0.56309767E+03</pdfrwt>
<pdfrwt beam="2">  1       -1 0.17097991E-01 0.56309767E+03</pdfrwt>
<totfact> 0.70927142E+02</totfact>
</mgrwt>
</event>
<event>
 4    0  0.1264838E-002  0.4682124E+03  0.7546771E-02  0.1022426E+00
         -1   -1    0    0    0  501 -0.00000000000E+00  0.00000000000E+00  0.78475281791E+02  0.78475281791E+02  0.00000000000E+00 0. -1.
          1   -1    0    0  502    0  0.00000000000E+00 -0.00000000000E+00 -0.69838189918E+03  0.69838189918E+03  0.00000000000E+00 0.  1.
         25    1    1    2    0    0  0.72809288015E+02 -0.20387997706E+03 -0.29872059026E+03  0.38952179466E+03  0.12500000000E+03 0.  0.
         21    1    1    2  502  501 -0.72809288015E+02  0.20387997706E+03 -0.32118602713E+03  0.38733538631E+03  0.00000000000E+00 0. -1.
<mgrwt>
<rscale>  3 0.46821241E+03</rscale>
<asrwt>0</asrwt>
<pdfrwt beam="1">  1        1 0.10744337E+00 0.46821241E+03</pdfrwt>
<pdfrwt beam="2">  1       -1 0.12073120E-01 0.46821241E+03</pdfrwt>
<totfact> 0.12842366E+03</totfact>
</mgrwt>
</event>
<event>
 4    0  0.1264838E-002  0.4608846E+03  0.7546771E-02  0.1024525E+00
          1   -1    0    0  502    0  0.00000000000E+00  0.00000000000E+00  0.10767123655E+04  0.10767123655E+04  0.00000000000E+00 0.  1.
         -1   -1    0    0    0  501 -0.00000000000E+00 -0.00000000000E+00 -0.49320182546E+02  0.49320182546E+02  0.00000000000E+00 0. -1.
         25    1    1    2    0    0  0.16699113477E+03  0.13301282862E+03  0.55196235251E+03  0.60486849005E+03  0.12500000000E+03 0.  0.
         21    1    1    2  502  501 -0.16699113477E+03 -0.13301282862E+03  0.47542983045E+03  0.52116405800E+03  0.00000000000E+00 0.  1.
<mgrwt>
<rscale>  3 0.46088459E+03</rscale>
<asrwt>0</asrwt>
<pdfrwt beam="1">  1        1 0.16564804E+00 0.46088459E+03</pdfrwt>
<pdfrwt beam="2">  1       -1 0.75877212E-02 0.46088459E+03</pdfrwt>
<totfact> 0.13056827E+03</totfact>
</mgrwt>
</event>
<event>
 4    0  0.1264838E-002  0.8996863E+03  0.7546771E-02  0.9425974E-01
         -1   -1    0    0    0  501 -0.00000000000E+00  0.00000000000E+00  0.47536811483E+03  0.47536811483E+03  0.00000000000E+00 0.  1.
          1   -1    0    0  502    0  0.00000000000E+00 -0.00000000000E+00 -0.42568876525E+03  0.42568876525E+03  0.00000000000E+00 0. -1.
         25    1    1    2    0    0 -0.94633605092E+02 -0.42993342607E+03 -0.34212428664E+01  0.45764066140E+03  0.12500000000E+03 0.  0.
         21    1    1    2  502  501  0.94633605092E+02  0.42993342607E+03  0.53100592445E+02  0.44341621867E+03  0.00000000000E+00 0. -1.
<mgrwt>
<rscale>  3 0.89968631E+03</rscale>
<asrwt>0</asrwt>
<pdfrwt beam="1">  1        1 0.65490580E-01 0.89968631E+03</pdfrwt>
<pdfrwt beam="2">  1       -1 0.73133556E-01 0.89968631E+03</pdfrwt>
<totfact> 0.10489428E+02</totfact>
</mgrwt>
</event>
<event>
 4    0  0.1264838E-002  0.5509981E+03  0.7546771E-02  0.1001263E+00
          2   -1    0    0  502    0  0.00000000000E+00  0.00000000000E+00  0.17283454691E+04  0.17283454691E+04  0.00000000000E+00 0.  1.
         -2   -1    0    0    0  501 -0.00000000000E+00 -0.00000000000E+00 -0.43914667351E+02  0.43914667351E+02  0.00000000000E+00 0. -1.
         25    1    1    2    0    0 -0.21592866979E+03 -0.73459389071E+01  0.13583807151E+04  0.13811235717E+04  0.12500000000E+03 0.  0.
         21    1    1    2  502  501  0.21592866979E+03  0.73459389071E+01  0.32605008668E+03  0.39113656475E+03  0.00000000000E+00 0. -1.
<mgrwt>
<rscale>  3 0.55099806E+03</rscale>
<asrwt>0</asrwt>
<pdfrwt beam="1">  1        2 0.26589925E+00 0.55099806E+03</pdfrwt>
<pdfrwt beam="2">  1       -2 0.67561040E-02 0.55099806E+03</pdfrwt>
<totfact> 0.12497454E+03</totfact>
</mgrwt>
</event>
<event>
 4    0  0.1264838E-002  0.5766351E+03  0.7546771E-02  0.9955103E-01
          1   -1    0    0  502    0  0.00000000000E+00  0.00000000000E+00  0.56900810309E+02  0.56900810309E+02  0.00000000000E+00 0. -1.
         -1   -1    0    0    0  501 -0.00000000000E+00 -0.00000000000E+00 -0.14609108339E+04  0.14609108339E+04  0.00000000000E+00 0.  1.
         25    1    1    2    0    0 -0.20222146792E+03  0.13237332809E+03 -0.39097272308E+03  0.47634114904E+03  0.12500000000E+03 0.  0.
         21    1    1    2  502  501  0.20222146792E+03 -0.13237332809E+03 -0.10130373005E+04  0.10414704951E+04  0.00000000000E+00 0.  1.
<mgrwt>
<rscale>  3 0.57663510E+03</rscale>
<asrwt>0</asrwt>
<pdfrwt beam="1">  1        1 0.87539731E-02 0.57663510E+03</pdfrwt>
<pdfrwt beam="2">  1       -1 0.22475545E+00 0.57663510E+03</pdfrwt>
<totfact> 0.85744546E+01</totfact>
</mgrwt>
</event>
<event>
 4    0  0.1264838E-002  0.5249637E+03  0.7546771E-02  0.1007461E+00
          1   -1    0    0  502    0  0.00000000000E+00  0.00000000000E+00  0.14945226186E+04  0.14945226186E+04  0.00000000000E+00 0. -1.
         -1   -1    0    0    0  501 -0.00000000000E+00 -0.00000000000E+00 -0.46099481638E+02  0.46099481638E+02  0.00000000000E+00 0.  1.
         25    1    1    2    0    0  0.90509796398E+02 -0.22329732935E+03  0.93262790065E+03  0.97132565168E+03  0.12500000000E+03 0.  0.
         21    1    1    2  502  501 -0.90509796398E+02  0.22329732935E+03  0.51579523631E+03  0.56929644856E+03  0.00000000000E+00 0. -1.
<mgrwt>
<rscale>  3 0.52496369E+03</rscale>
<asrwt>0</asrwt>
<pdfrwt beam="1">  1        1 0.22992652E+00 0.52496369E+03</pdfrwt>
<pdfrwt beam="2">  1       -1 0.70922291E-02 0.52496369E+03</pdfrwt>
<totfact> 0.73475356E+02</totfact>
</mgrwt>
</event>
<event>
 4    0  0.1264838E-002  0.5567590E+03  0.7546771E-02  0.9999415E-01
         -1   -1    0    0    0  501 -0.00000000000E+00  0.00000000000E+00  0.66392706470E+02  0.66392706470E+02  0.00000000000E+00 0. -1.
          1   -1    0    0  502    0  0.00000000000E+00 -0.00000000000E+00 -0.11672239808E+04  0.11672239808E+04  0.00000000000E+00 0.  1.
         25    1    1    2    0    0  0.25274223853E+02  0.23486161762E+03 -0.31523834455E+03  0.41327833200E+03  0.12500000000E+03 0.  0.
         21    1    1    2  502  501 -0.25274223853E+02 -0.23486161762E+03 -0.78559292981E+03  0.82033835531E+03  0.00000000000E+00 0. -1.
<mgrwt>
<rscale>  3 0.55675905E+03</rscale>
<asrwt>0</asrwt>
<pdfrwt beam="1">  1        1 0.17957292E+00 0.55675905E+03</pdfrwt>
<pdfrwt beam="2">  1       -1 0.10214262E-01 0.55675905E+03</pdfrwt>
<totfact> 0.70219064E+02</totfact>
</mgrwt>
</event>
<event>
 4    0  0.1264838E-002  0.7754073E+03  0.7546771E-02  0.9596312E-01
          2   -1    0    0  502    0  0.00000000000E+00  0.00000000000E+00  0.10121349668E+04  0.10121349668E+04  0.00000000000E+00 0. -1.
         -2   -1    0    0    0  501 -0.00000000000E+00 -0.00000000000E+00 -0.14851192172E+03  0.14851192172E+03  0.00000000000E+00 0.  1.
         25    1    1    2    0    0 -0.21400957404E+03 -0.28346562493E+03  0.25105281386E+03  0.45255427701E+03  0.12500000000E+03 0.  0.
         21    1    1    2  502  501  0.21400957404E+03  0.28346562493E+03  0.61257023124E+03  0.70809261152E+03  0.00000000000E+00 0. -1.
<mgrwt>
<rscale>  3 0.77540727E+03</rscale>
<asrwt>0</asrwt>
<pdfrwt beam="1">  1        2 0.15571307E+00 0.77540727E+03</pdfrwt>
<pdfrwt beam="2">  1       -2 0.22847989E-01 0.77540727E+03</pdfrwt>
<totfact> 0.41927257E+02</totfact>
</mgrwt>
</event>
<event>
 4    0  0.1264838E-002  0.7515523E+03  0.7546771E-02  0.9632918E-01
          2   -1    0    0  502    0  0.00000000000E+00  0.00000000000E+00  0.33052673647E+03  0.33052673647E+03  0.00000000000E+00 0.  1.
         -2   -1    0    0    0  501 -0.00000000000E+00 -0.00000000000E+00 -0.42722026324E+03  0.42722026324E+03  0.00000000000E+00 0. -1.
         25    1    1    2    0    0  0.65827100046E+02 -0.28815969702E+03  0.16687462008E+03  0.36171999795E+03  0.12500000000E+03 0.  0.
         21    1    1    2  502  501 -0.65827100046E+02  0.28815969702E+03 -0.26356814685E+03  0.39602700176E+03  0.00000000000E+00 0. -1.
<mgrwt>
<rscale>  3 0.75155231E+03</rscale>
<asrwt>0</asrwt>
<pdfrwt beam="1">  1        2 0.50850267E-01 0.75155231E+03</pdfrwt>
<pdfrwt beam="2">  1       -2 0.65726194E-01 0.75155231E+03</pdfrwt>
<totfact> 0.21189758E+02</totfact>
</mgrwt>
</event>
<event>
 4    0  0.1264838E-002  0.4741538E+03  0.7546771E-02  0.1020754E+00
         -2   -1    0    0    0  501 -0.00000000000E+00  0.00000000000E+00  0.98467866404E+02  0.98467866404E+02  0.00000000000E+00 0.  1.
          2   -1    0    0  502    0  0.00000000000E+00 -0.00000000000E+00 -0.57079990568E+03  0.57079990568E+03  0.00000000000E+00 0. -1.
         25    1    1    2    0    0 -0.12570231620E+03 -0.17456099843E+03 -0.32161051611E+03  0.40660907336E+03  0.12500000000E+03 0.  0.
         21    1    1    2  502  501  0.12570231620E+03  0.17456099843E+03 -0.15072152317E+03  0.26265869873E+03  0.00000000000E+00 0.  1.
<mgrwt>
<rscale>  3 0.47415377E+03</rscale>
<asrwt>0</asrwt>
<pdfrwt beam="1">  1        2 0.87815373E-01 0.47415377E+03</pdfrwt>
<pdfrwt beam="2">  1       -2 0.15148902E-01 0.47415377E+03</pdfrwt>
<totfact> 0.18102754E+03</totfact>
</mgrwt>
</event>
<event>
 4    0  0.1264838E-002  0.4626345E+03  0.7546771E-02  0.1024020E+00
         -2   -1    0    0    0  501 -0.00000000000E+00  0.00000000000E+00  0.48287030456E+03  0.48287030456E+03  0.00000000000E+00 0. -1.
          2   -1    0    0  502    0  0.00000000000E+00 -0.00000000000E+00 -0.11081167292E+03  0.11081167292E+03  0.00000000000E+00 0.  1.
         25    1    1    2    0    0  0.13852559896E+03  0.14620089526E+03  0.29405250183E+03  0.37769818265E+03  0.12500000000E+03 0.  0.
         21    1    1    2  502  501 -0.13852559896E+03 -0.14620089526E+03  0.78006129810E+02  0.21598379483E+03  0.00000000000E+00 0.  1.
<mgrwt>
<rscale>  3 0.46263448E+03</rscale>
<asrwt>0</asrwt>
<pdfrwt beam="1">  1        2 0.17047950E-01 0.46263448E+03</pdfrwt>
<pdfrwt beam="2">  1       -2 0.74287738E-01 0.46263448E+03</pdfrwt>
<totfact> 0.56442477E+02</totfact>
</mgrwt>
</event>
<event>
 4    0  0.1264838E-002  0.4617244E+03  0.7546771E-02  0.1024282E+00
          2   -1    0    0  502    0  0.00000000000E+00  0.00000000000E+00  0.91094343370E+03  0.91094343370E+03  0.00000000000E+00 0. -1.
         -2   -1    0    0    0  501 -0.00000000000E+00 -0.00000000000E+00 -0.58507855860E+02  0.58507855860E+02  0.00000000000E+00 0.  1.
         25    1    1    2    0    0  0.18087841036E+03  0.11267650371E+03  0.49719114639E+03  0.55519098504E+03  0.12500000000E+03 0.  0.
         21    1    1    2  502  501 -0.18087841036E+03 -0.11267650371E+03  0.35524443146E+03  0.41426030452E+03  0.00000000000E+00 0. -1.
<mgrwt>
<rscale>  3 0.46172436E+03</rscale>
<asrwt>0</asrwt>
<pdfrwt beam="1">  1        2 0.14014513E+00 0.46172436E+03</pdfrwt>
<pdfrwt beam="2">  1       -2 0.90012092E-02 0.46172436E+03</pdfrwt>
<totfact> 0.23519177E+03</totfact>
</mgrwt>
</event>
<event>
 4    0  0.1455784E-002  0.8841819E+03  0.7546771E-02  0.9445574E-01
          1   -1    0    0  502    0  0.00000000000E+00  0.00000000000E+00  0.41145453531E+03  0.41145453531E+03  0.00000000000E+00 0.  1.
         -1   -1    0    0    0  501 -0.00000000000E+00 -0.00000000000E+00 -0.47500853638E+03  0.47500853638E+03  0.00000000000E+00 0. -1.
         25    1    1    2    0    0  0.78334836773E+02  0.23822831511E+03 -0.38662364217E+03  0.47748499186E+03  0.12500000000E+03 0.  0.
         21    1    1    2  502  501 -0.78334836773E+02 -0.23822831511E+03  0.32306964110E+03  0.40897807982E+03  0.00000000000E+00 0.  1.
<mgrwt>
<rscale>  3 0.88418192E+03</rscale>
<asrwt>0</asrwt>
<pdfrwt beam="1">  1        1 0.63300697E-01 0.88418192E+03</pdfrwt>
<pdfrwt beam="2">  1       -1 0.73078237E-01 0.88418192E+03</pdfrwt>
<totfact> 0.11004631E+02</totfact>
</mgrwt>
</event>
<event>
 4    0  0.1264838E-002  0.6623911E+03  0.7546771E-02  0.9783802E-01
         -1   -1    0    0    0  501 -0.00000000000E+00  0.00000000000E+00  0.85561458515E+02  0.85561458515E+02  0.00000000000E+00 0.  1.
          1   -1    0    0  502    0  0.00000000000E+00 -0.00000000000E+00 -0.12820080294E+04  0.12820080294E+04  0.00000000000E+00 0. -1.
         25    1    1    2    0    0  0.20719960162E+03  0.23466040508E+03 -0.75042789981E+03  0.82265680173E+03  0.12500000000E+03 0.  0.
         21    1    1    2  502  501 -0.20719960162E+03 -0.23466040508E+03 -0.44601867112E+03  0.54491268623E+03  0.00000000000E+00 0. -1.
<mgrwt>
<rscale>  3 0.66239105E+03</rscale>
<asrwt>0</asrwt>
<pdfrwt beam="1">  1        1 0.19723201E+00 0.66239105E+03</pdfrwt>
<pdfrwt beam="2">  1       -1 0.13163301E-01 0.66239105E+03</pdfrwt>
<totfact> 0.38594178E+02</totfact>
</mgrwt>
</event>
<event>
 4    0  0.1264838E-002  0.4607462E+03  0.7546771E-02  0.1024565E+00
          1   -1    0    0  502    0  0.00000000000E+00  0.00000000000E+00  0.21213667756E+03  0.21213667756E+03  0.00000000000E+00 0.  1.
         -1   -1    0    0    0  501 -0.00000000000E+00 -0.00000000000E+00 -0.25017727190E+03  0.25017727190E+03  0.00000000000E+00 0. -1.
         25    1    1    2    0    0  0.20032276535E+03  0.59516942159E+02  0.23031954839E+02  0.24459547761E+03  0.12500000000E+03 0.  0.
         21    1    1    2  502  501 -0.20032276535E+03 -0.59516942159E+02 -0.61072549183E+02  0.21771847185E+03  0.00000000000E+00 0. -1.
<mgrwt>
<rscale>  3 0.46074624E+03</rscale>
<asrwt>0</asrwt>
<pdfrwt beam="1">  1        1 0.32636412E-01 0.46074624E+03</pdfrwt>
<pdfrwt beam="2">  1       -1 0.38488811E-01 0.46074624E+03</pdfrwt>
<totfact> 0.90306942E+02</totfact>
</mgrwt>
</event>
<event>
 4    0  0.1264838E-002  0.5091992E+03  0.7546771E-02  0.1011405E+00
          2   -1    0    0  502    0  0.00000000000E+00  0.00000000000E+00  0.14495277748E+04  0.14495277748E+04  0.00000000000E+00 0.  1.
         -2   -1    0    0    0  501 -0.00000000000E+00 -0.00000000000E+00 -0.44718676199E+02  0.44718676199E+02  0.00000000000E+00 0. -1.
         25    1    1    2    0    0  0.90026636913E+02  0.21291370312E+03  0.92579014050E+03  0.96236657495E+03  0.12500000000E+03 0.  0.
         21    1    1    2  502  501 -0.90026636913E+02 -0.21291370312E+03  0.47901895813E+03  0.53187987608E+03  0.00000000000E+00 0. -1.
<mgrwt>
<rscale>  3 0.50919923E+03</rscale>
<asrwt>0</asrwt>
<pdfrwt beam="1">  1        2 0.22300424E+00 0.50919923E+03</pdfrwt>
<pdfrwt beam="2">  1       -2 0.68797975E-02 0.50919923E+03</pdfrwt>
<totfact> 0.17269482E+03</totfact>
</mgrwt>
</event>
<event>
 4    0  0.1264838E-002  0.9131216E+03  0.7546771E-02  0.9409326E-01
          1   -1    0    0  502    0  0.00000000000E+00  0.00000000000E+00  0.17050195886E+04  0.17050195886E+04  0.00000000000E+00 0. -1.
         -1   -1    0    0    0  501 -0.00000000000E+00 -0.00000000000E+00 -0.12225534033E+03  0.12225534033E+03  0.00000000000E+00 0.  1.
         25    1    1    2    0    0  0.22436878232E+03  0.34563739667E+03  0.11579897064E+04  0.12354641721E+04  0.12500000000E+03 0.  0.
         21    1    1    2  502  501 -0.22436878232E+03 -0.34563739667E+03  0.42477454184E+03  0.59181075679E+03  0.00000000000E+00 0.  1.
<mgrwt>
<rscale>  3 0.91312157E+03</rscale>
<asrwt>0</asrwt>
<pdfrwt beam="1">  1        1 0.26231069E+00 0.91312157E+03</pdfrwt>
<pdfrwt beam="2">  1       -1 0.18808515E-01 0.91312157E+03</pdfrwt>
<totfact> 0.10827850E+02</totfact>
</mgrwt>
</event>
<event>
 4    0  0.1264838E-002  0.4651374E+03  0.7546771E-02  0.1023302E+00
         -1   -1    0    0    0  501 -0.00000000000E+00  0.00000000000E+00  0.77768303996E+02  0.77768303996E+02  0.00000000000E+00 0.  1.
          1   -1    0    0  502    0  0.00000000000E+00 -0.00000000000E+00 -0.69550455365E+03  0.69550455365E+03  0.00000000000E+00 0. -1.
         25    1    1    2    0    0  0.12390021916E+03 -0.17525601481E+03 -0.36804539463E+03  0.44401390467E+03  0.12500000000E+03 0.  0.
         21    1    1    2  502  501 -0.12390021916E+03  0.17525601481E+03 -0.24969085502E+03  0.32925895298E+03  0.00000000000E+00 0.  1.
<mgrwt>
<rscale>  3 0.46513744E+03</rscale>
<asrwt>0</asrwt>
<pdfrwt beam="1">  1        1 0.10700070E+00 0.46513744E+03</pdfrwt>
<pdfrwt beam="2">  1       -1 0.11964354E-01 0.46513744E+03</pdfrwt>
<totfact> 0.13108645E+03</totfact>
</mgrwt>
</event>
<event>
 4    0  0.1264838E-002  0.4741390E+03  0.7546771E-02  0.1020758E+00
         -2   -1    0    0    0  501 -0.00000000000E+00  0.00000000000E+00  0.16778958252E+02  0.16778958252E+02  0.00000000000E+00 0.  1.
          2   -1    0    0  502    0  0.00000000000E+00 -0.00000000000E+00 -0.33495493195E+04  0.33495493195E+04  0.00000000000E+00 0. -1.
         25    1    1    2    0    0  0.88427391638E+02  0.18940212733E+03 -0.22826523271E+04  0.22956086809E+04  0.12500000000E+03 0.  0.
         21    1    1    2  502  501 -0.88427391638E+02 -0.18940212733E+03 -0.10501180342E+04  0.10707195969E+04  0.00000000000E+00 0. -1.
<mgrwt>
<rscale>  3 0.47413900E+03</rscale>
<asrwt>0</asrwt>
<pdfrwt beam="1">  1        2 0.51531527E+00 0.47413900E+03</pdfrwt>
<pdfrwt beam="2">  1       -2 0.25813783E-02 0.47413900E+03</pdfrwt>
<totfact> 0.64888794E+02</totfact>
</mgrwt>
</event>
<event>
 4    0  0.1264838E-002  0.5938367E+03  0.7546771E-02  0.9918276E-01
          2   -1    0    0  502    0  0.00000000000E+00  0.00000000000E+00  0.68969313931E+03  0.68969313931E+03  0.00000000000E+00 0. -1.
         -2   -1    0    0    0  501 -0.00000000000E+00 -0.00000000000E+00 -0.12782570178E+03  0.12782570178E+03  0.00000000000E+00 0.  1.
         25    1    1    2    0    0  0.52377326181E+02 -0.23648202123E+03  0.89866737767E+02  0.28699853871E+03  0.12500000000E+03 0.  0.
         21    1    1    2  502  501 -0.52377326181E+02  0.23648202123E+03  0.47200069977E+03  0.53052030239E+03  0.00000000000E+00 0. -1.
<mgrwt>
<rscale>  3 0.59383671E+03</rscale>
<asrwt>0</asrwt>
<pdfrwt beam="1">  1        2 0.10610663E+00 0.59383671E+03</pdfrwt>
<pdfrwt beam="2">  1       -2 0.19665493E-01 0.59383671E+03</pdfrwt>
<totfact> 0.92189965E+02</totfact>
</mgrwt>
</event>
<event>
 4    0  0.1264838E-002  0.5335417E+03  0.7546771E-02  0.1005377E+00
          2   -1    0    0  502    0  0.00000000000E+00  0.00000000000E+00  0.38954708775E+04  0.38954708775E+04  0.00000000000E+00 0.  1.
         -2   -1    0    0    0  501 -0.00000000000E+00 -0.00000000000E+00 -0.18269086479E+02  0.18269086479E+02  0.00000000000E+00 0. -1.
         25    1    1    2    0    0  0.20977136399E+03 -0.14306127218E+02  0.30656545750E+04  0.30753978057E+04  0.12500000000E+03 0.  0.
         21    1    1    2  502  501 -0.20977136399E+03  0.14306127218E+02  0.81154721606E+03  0.83834215826E+03  0.00000000000E+00 0. -1.
<mgrwt>
<rscale>  3 0.53354173E+03</rscale>
<asrwt>0</asrwt>
<pdfrwt beam="1">  1        2 0.59930255E+00 0.53354173E+03</pdfrwt>
<pdfrwt beam="2">  1       -2 0.28106318E-02 0.53354173E+03</pdfrwt>
<totfact> 0.23495626E+02</totfact>
</mgrwt>
</event>
<event>
 4    0  0.1264838E-002  0.1128541E+04  0.7546771E-02  0.9177812E-01
         -2   -1    0    0    0  501 -0.00000000000E+00  0.00000000000E+00  0.53595051269E+03  0.53595051269E+03  0.00000000000E+00 0.  1.
          2   -1    0    0  502    0  0.00000000000E+00 -0.00000000000E+00 -0.59408657236E+03  0.59408657236E+03  0.00000000000E+00 0. -1.
         25    1    1    2    0    0  0.20369378462E+03 -0.33742313171E+02 -0.54780475974E+03  0.59861904111E+03  0.12500000000E+03 0.  0.
         21    1    1    2  502  501 -0.20369378462E+03  0.33742313171E+02  0.48966870007E+03  0.53141804393E+03  0.00000000000E+00 0.  1.
<mgrwt>
<rscale>  3 0.11285407E+04</rscale>
<asrwt>0</asrwt>
<pdfrwt beam="1">  1        2 0.91397934E-01 0.11285407E+04</pdfrwt>
<pdfrwt beam="2">  1       -2 0.82453925E-01 0.11285407E+04</pdfrwt>
<totfact> 0.64271803E+01</totfact>
</mgrwt>
</event>
<event>
 4    0  0.1264838E-002  0.4885068E+03  0.7546771E-02  0.1016823E+00
         -3   -1    0    0    0  501 -0.00000000000E+00  0.00000000000E+00  0.72394765659E+02  0.72394765659E+02  0.00000000000E+00 0. -1.
          3   -1    0    0  502    0  0.00000000000E+00 -0.00000000000E+00 -0.82408877234E+03  0.82408877234E+03  0.00000000000E+00 0.  1.
         25    1    1    2    0    0  0.80925373467E+01  0.22444645166E+03 -0.32565726505E+03  0.41487269506E+03  0.12500000000E+03 0.  0.
         21    1    1    2  502  501 -0.80925373467E+01 -0.22444645166E+03 -0.42603674163E+03  0.48161084295E+03  0.00000000000E+00 0. -1.
<mgrwt>
<rscale>  3 0.48850676E+03</rscale>
<asrwt>0</asrwt>
<pdfrwt beam="1">  1        3 0.12678289E+00 0.48850676E+03</pdfrwt>
<pdfrwt beam="2">  1       -3 0.11137656E-01 0.48850676E+03</pdfrwt>
<totfact> 0.83003115E+01</totfact>
</mgrwt>
</event>
<event>
 4    0  0.1319081E-002  0.5282821E+03  0.7546771E-02  0.1006650E+00
          1   -1    0    0  502    0  0.00000000000E+00  0.00000000000E+00  0.11629528175E+04  0.11629528175E+04  0.00000000000E+00 0. -1.
         -1   -1    0    0    0  501 -0.00000000000E+00 -0.00000000000E+00 -0.59994262420E+02  0.59994262420E+02  0.00000000000E+00 0.  1.
         25    1    1    2    0    0  0.19507894389E+03 -0.88425022623E+02  0.28678450832E+03  0.37913735399E+03  0.12500000000E+03 0.  0.
         21    1    1    2  502  501 -0.19507894389E+03  0.88425022623E+02  0.81617404680E+03  0.84380972597E+03  0.00000000000E+00 0. -1.
<mgrwt>
<rscale>  3 0.52828211E+03</rscale>
<asrwt>0</asrwt>
<pdfrwt beam="1">  1        1 0.17891580E+00 0.52828211E+03</pdfrwt>
<pdfrwt beam="2">  1       -1 0.92298874E-02 0.52828211E+03</pdfrwt>
<totfact> 0.83037645E+02</totfact>
</mgrwt>
</event>
<event>
 4    0  0.1264838E-002  0.5034507E+03  0.7546771E-02  0.1012882E+00
          1   -1    0    0  502    0  0.00000000000E+00  0.00000000000E+00  0.19588861382E+03  0.19588861382E+03  0.00000000000E+00 0.  1.
         -1   -1    0    0    0  501 -0.00000000000E+00 -0.00000000000E+00 -0.32347798278E+03  0.32347798278E+03  0.00000000000E+00 0. -1.
         25    1    1    2    0    0 -0.17263896088E+03 -0.13458772901E+03  0.23824423940E+02  0.25320085069E+03  0.12500000000E+03 0.  0.
         21    1    1    2  502  501  0.17263896088E+03  0.13458772901E+03 -0.15141379290E+03  0.26616574591E+03  0.00000000000E+00 0. -1.
<mgrwt>
<rscale>  3 0.50345071E+03</rscale>
<asrwt>0</asrwt>
<pdfrwt beam="1">  1        1 0.30136710E-01 0.50345071E+03</pdfrwt>
<pdfrwt beam="2">  1       -1 0.49765843E-01 0.50345071E+03</pdfrwt>
<totfact> 0.62457437E+02</totfact>
</mgrwt>
</event>
<event>
 4    0  0.1264838E-002  0.5705923E+03  0.7546771E-02  0.9968369E-01
         -2   -1    0    0    0  501 -0.00000000000E+00  0.00000000000E+00  0.14059180147E+03  0.14059180147E+03  0.00000000000E+00 0. -1.
          2   -1    0    0  502    0  0.00000000000E+00 -0.00000000000E+00 -0.57893769513E+03  0.57893769513E+03  0.00000000000E+00 0.  1.
         25    1    1    2    0    0 -0.20517282731E+03 -0.12268489087E+03 -0.67115503159E+02  0.27798734194E+03  0.12500000000E+03 0.  0.
         21    1    1    2  502  501  0.20517282731E+03  0.12268489087E+03 -0.37123039049E+03  0.44154215466E+03  0.00000000000E+00 0.  1.
<mgrwt>
<rscale>  3 0.57059230E+03</rscale>
<asrwt>0</asrwt>
<pdfrwt beam="1">  1        2 0.89067337E-01 0.57059230E+03</pdfrwt>
<pdfrwt beam="2">  1       -2 0.21629508E-01 0.57059230E+03</pdfrwt>
<totfact> 0.96578105E+02</totfact>
</mgrwt>
</event>
<event>
 4    0  0.1264838E-002  0.5963959E+03  0.7546771E-02  0.9912912E-01
         -2   -1    0    0    0  501 -0.00000000000E+00  0.00000000000E+00  0.48652261202E+03  0.48652261202E+03  0.00000000000E+00 0.  1.
          2   -1    0    0  502    0  0.00000000000E+00 -0.00000000000E+00 -0.18277057982E+03  0.18277057982E+03  0.00000000000E+00 0. -1.
         25    1    1    2    0    0  0.16836708059E+03 -0.11308832217E+03 -0.66303698173E+02  0.24730067292E+03  0.12500000000E+03 0.  0.
         21    1    1    2  502  501 -0.16836708059E+03  0.11308832217E+03  0.37005573038E+03  0.42199251892E+03  0.00000000000E+00 0.  1.
<mgrwt>
<rscale>  3 0.59639591E+03</rscale>
<asrwt>0</asrwt>
<pdfrwt beam="1">  1        2 0.28118551E-01 0.59639591E+03</pdfrwt>
<pdfrwt beam="2">  1       -2 0.74849632E-01 0.59639591E+03</pdfrwt>
<totfact> 0.31052686E+02</totfact>
</mgrwt>
</event>
<event>
 4    0  0.1264838E-002  0.4857059E+03  0.7546771E-02  0.1017579E+00
         -2   -1    0    0    0  501 -0.00000000000E+00  0.00000000000E+00  0.27874386084E+02  0.27874386084E+02  0.00000000000E+00 0. -1.
          2   -1    0    0  502    0  0.00000000000E+00 -0.00000000000E+00 -0.21158337451E+04  0.21158337451E+04  0.00000000000E+00 0.  1.
         25    1    1    2    0    0  0.20252684959E+03  0.10101902897E+03 -0.10504244695E+04  0.10817756399E+04  0.12500000000E+03 0.  0.
         21    1    1    2  502  501 -0.20252684959E+03 -0.10101902897E+03 -0.10375348895E+04  0.10619324913E+04  0.00000000000E+00 0.  1.
<mgrwt>
<rscale>  3 0.48570595E+03</rscale>
<asrwt>0</asrwt>
<pdfrwt beam="1">  1        2 0.32551290E+00 0.48570595E+03</pdfrwt>
<pdfrwt beam="2">  1       -2 0.42883668E-02 0.48570595E+03</pdfrwt>
<totfact> 0.15707481E+03</totfact>
</mgrwt>
</event>
<event>
 4    0  0.1264838E-002  0.4866511E+03  0.7546771E-02  0.1017323E+00
         -2   -1    0    0    0  501 -0.00000000000E+00  0.00000000000E+00  0.82977588134E+02  0.82977588134E+02  0.00000000000E+00 0. -1.
          2   -1    0    0  502    0  0.00000000000E+00 -0.00000000000E+00 -0.71353384983E+03  0.71353384983E+03  0.00000000000E+00 0.  1.
         25    1    1    2    0    0 -0.10972140515E+03 -0.18773853776E+03 -0.22790677890E+03  0.33889680609E+03  0.12500000000E+03 0.  0.
         21    1    1    2  502  501  0.10972140515E+03  0.18773853776E+03 -0.40264948280E+03  0.45761463188E+03  0.00000000000E+00 0. -1.
<mgrwt>
<rscale>  3 0.48665108E+03</rscale>
<asrwt>0</asrwt>
<pdfrwt beam="1">  1        2 0.10977444E+00 0.48665108E+03</pdfrwt>
<pdfrwt beam="2">  1       -2 0.12765783E-01 0.48665108E+03</pdfrwt>
<totfact> 0.18370649E+03</totfact>
</mgrwt>
</event>
<event>
 4    0  0.1264838E-002  0.5646552E+03  0.7546771E-02  0.9981576E-01
         -1   -1    0    0    0  501 -0.00000000000E+00  0.00000000000E+00  0.48999327459E+02  0.48999327459E+02  0.00000000000E+00 0.  1.
          1   -1    0    0  502    0  0.00000000000E+00 -0.00000000000E+00 -0.16267341175E+04  0.16267341175E+04  0.00000000000E+00 0. -1.
         25    1    1    2    0    0 -0.26310591667E+03  0.15963136085E+02 -0.97909145430E+03  0.10216284163E+04  0.12500000000E+03 0.  0.
         21    1    1    2  502  501  0.26310591667E+03 -0.15963136085E+02 -0.59864333578E+03  0.65410502871E+03  0.00000000000E+00 0.  1.
<mgrwt>
<rscale>  3 0.56465521E+03</rscale>
<asrwt>0</asrwt>
<pdfrwt beam="1">  1        1 0.25026678E+00 0.56465521E+03</pdfrwt>
<pdfrwt beam="2">  1       -1 0.75383582E-02 0.56465521E+03</pdfrwt>
<totfact> 0.54307311E+02</totfact>
</mgrwt>
</event>
<event>
 4    0  0.1264838E-002  0.8153216E+03  0.7546771E-02  0.9538101E-01
          2   -1    0    0  502    0  0.00000000000E+00  0.00000000000E+00  0.17737742367E+04  0.17737742367E+04  0.00000000000E+00 0.  1.
         -2   -1    0    0    0  501 -0.00000000000E+00 -0.00000000000E+00 -0.93691362967E+02  0.93691362967E+02  0.00000000000E+00 0. -1.
         25    1    1    2    0    0  0.30095292808E+03  0.25986737097E+03  0.81615185117E+03  0.91642378820E+03  0.12500000000E+03 0.  0.
         21    1    1    2  502  501 -0.30095292808E+03 -0.25986737097E+03  0.86393102260E+03  0.95104181150E+03  0.00000000000E+00 0.  1.
<mgrwt>
<rscale>  3 0.81532160E+03</rscale>
<asrwt>0</asrwt>
<pdfrwt beam="1">  1        2 0.27288832E+00 0.81532160E+03</pdfrwt>
<pdfrwt beam="2">  1       -2 0.14414057E-01 0.81532160E+03</pdfrwt>
<totfact> 0.33897227E+02</totfact>
</mgrwt>
</event>
<event>
 4    0  0.1264838E-002  0.1561559E+04  0.7546771E-02  0.8844518E-01
          1   -1    0    0  502    0  0.00000000000E+00  0.00000000000E+00  0.56456415290E+03  0.56456415290E+03  0.00000000000E+00 0.  1.
         -1   -1    0    0    0  501 -0.00000000000E+00 -0.00000000000E+00 -0.10798001449E+04  0.10798001449E+04  0.00000000000E+00 0. -1.
         25    1    1    2    0    0 -0.42515510403E+03  0.64527471886E+03 -0.18713321378E+03  0.80484791419E+03  0.12500000000E+03 0.  0.
         21    1    1    2  502  501  0.42515510403E+03 -0.64527471886E+03 -0.32810277824E+03  0.83951638362E+03  0.00000000000E+00 0. -1.
<mgrwt>
<rscale>  3 0.15615588E+04</rscale>
<asrwt>0</asrwt>
<pdfrwt beam="1">  1        1 0.86856025E-01 0.15615588E+04</pdfrwt>
<pdfrwt beam="2">  1       -1 0.16612310E+00 0.15615588E+04</pdfrwt>
<totfact> 0.94568873E+00</totfact>
</mgrwt>
</event>
<event>
 4    0  0.1264838E-002  0.4925023E+03  0.7546771E-02  0.1015755E+00
          1   -1    0    0  502    0  0.00000000000E+00  0.00000000000E+00  0.16540727944E+03  0.16540727944E+03  0.00000000000E+00 0.  1.
         -1   -1    0    0    0  501 -0.00000000000E+00 -0.00000000000E+00 -0.36660802707E+03  0.36660802707E+03  0.00000000000E+00 0. -1.
         25    1    1    2    0    0 -0.14558897049E+03 -0.15703081211E+03 -0.19889353973E+03  0.31786548165E+03  0.12500000000E+03 0.  0.
         21    1    1    2  502  501  0.14558897049E+03  0.15703081211E+03 -0.23072079035E+01  0.21414982486E+03  0.00000000000E+00 0. -1.
<mgrwt>
<rscale>  3 0.49250233E+03</rscale>
<asrwt>0</asrwt>
<pdfrwt beam="1">  1        1 0.25447274E-01 0.49250233E+03</pdfrwt>
<pdfrwt beam="2">  1       -1 0.56401235E-01 0.49250233E+03</pdfrwt>
<totfact> 0.61262295E+02</totfact>
</mgrwt>
</event>
<event>
 4    0  0.1264838E-002  0.4878235E+03  0.7546771E-02  0.1017007E+00
         -2   -1    0    0    0  501 -0.00000000000E+00  0.00000000000E+00  0.14211686315E+03  0.14211686315E+03  0.00000000000E+00 0. -1.
          2   -1    0    0  502    0  0.00000000000E+00 -0.00000000000E+00 -0.41861980617E+03  0.41861980617E+03  0.00000000000E+00 0.  1.
         25    1    1    2    0    0 -0.18868767489E+03 -0.11833125064E+03 -0.20283269773E+03  0.32614632728E+03  0.12500000000E+03 0.  0.
         21    1    1    2  502  501  0.18868767489E+03  0.11833125064E+03 -0.73670245292E+02  0.23459034203E+03  0.00000000000E+00 0. -1.
<mgrwt>
<rscale>  3 0.48782347E+03</rscale>
<asrwt>0</asrwt>
<pdfrwt beam="1">  1        2 0.64403047E-01 0.48782347E+03</pdfrwt>
<pdfrwt beam="2">  1       -2 0.21864133E-01 0.48782347E+03</pdfrwt>
<totfact> 0.13750121E+03</totfact>
</mgrwt>
</event>
<event>
 4    0  0.1264838E-002  0.4808525E+03  0.7546771E-02  0.1018901E+00
         -2   -1    0    0    0  501 -0.00000000000E+00  0.00000000000E+00  0.38519544892E+03  0.38519544892E+03  0.00000000000E+00 0.  1.
          2   -1    0    0  502    0  0.00000000000E+00 -0.00000000000E+00 -0.15006610892E+03  0.15006610892E+03  0.00000000000E+00 0. -1.
         25    1    1    2    0    0  0.18550049861E+03  0.12525531137E+03  0.11156486573E+03  0.27959085692E+03  0.12500000000E+03 0.  0.
         21    1    1    2  502  501 -0.18550049861E+03 -0.12525531137E+03  0.12356447426E+03  0.25567070092E+03  0.00000000000E+00 0.  1.
<mgrwt>
<rscale>  3 0.48085250E+03</rscale>
<asrwt>0</asrwt>
<pdfrwt beam="1">  1        2 0.23087094E-01 0.48085250E+03</pdfrwt>
<pdfrwt beam="2">  1       -2 0.59260838E-01 0.48085250E+03</pdfrwt>
<totfact> 0.64281105E+02</totfact>
</mgrwt>
</event>
<event>
 4    0  0.1264838E-002  0.5059397E+03  0.7546771E-02  0.1012240E+00
         -1   -1    0    0    0  501 -0.00000000000E+00  0.00000000000E+00  0.46082571018E+03  0.46082571018E+03  0.00000000000E+00 0.  1.
          1   -1    0    0  502    0  0.00000000000E+00 -0.00000000000E+00 -0.13886756893E+03  0.13886756893E+03  0.00000000000E+00 0. -1.
         25    1    1    2    0    0 -0.14815477666E+03  0.18564998160E+03  0.17315651739E+03  0.31941185487E+03  0.12500000000E+03 0.  0.
         21    1    1    2  502  501  0.14815477666E+03 -0.18564998160E+03  0.14880162386E+03  0.28028142425E+03  0.00000000000E+00 0. -1.
<mgrwt>
<rscale>  3 0.50593970E+03</rscale>
<asrwt>0</asrwt>
<pdfrwt beam="1">  1        1 0.21364242E-01 0.50593970E+03</pdfrwt>
<pdfrwt beam="2">  1       -1 0.70896263E-01 0.50593970E+03</pdfrwt>
<totfact> 0.48902826E+02</totfact>
</mgrwt>
</event>
<event>
 4    0  0.1264838E-002  0.6057369E+03  0.7546771E-02  0.9893575E-01
          2   -1    0    0  502    0  0.00000000000E+00  0.00000000000E+00  0.45772306041E+03  0.45772306041E+03  0.00000000000E+00 0. -1.
         -2   -1    0    0    0  501 -0.00000000000E+00 -0.00000000000E+00 -0.20040348919E+03  0.20040348919E+03  0.00000000000E+00 0.  1.
         25    1    1    2    0    0 -0.13804691301E+03 -0.22446188361E+03  0.26642863337E+01  0.29167136611E+03  0.12500000000E+03 0.  0.
         21    1    1    2  502  501  0.13804691301E+03  0.22446188361E+03  0.25465528489E+03  0.36645518349E+03  0.00000000000E+00 0. -1.
<mgrwt>
<rscale>  3 0.60573690E+03</rscale>
<asrwt>0</asrwt>
<pdfrwt beam="1">  1        2 0.70418932E-01 0.60573690E+03</pdfrwt>
<pdfrwt beam="2">  1       -2 0.30831306E-01 0.60573690E+03</pdfrwt>
<totfact> 0.66825838E+02</totfact>
</mgrwt>
</event>
<event>
 4    0  0.1264838E-002  0.5145039E+03  0.7546771E-02  0.1010061E+00
         -2   -1    0    0    0  501 -0.00000000000E+00  0.00000000000E+00  0.86574940459E+02  0.86574940459E+02  0.00000000000E+00 0.  1.
          2   -1    0    0  502    0  0.00000000000E+00 -0.00000000000E+00 -0.76440777604E+03  0.76440777604E+03  0.00000000000E+00 0. -1.
         25    1    1    2    0    0 -0.17685618637E+03  0.16421981637E+03 -0.38988083783E+03  0.47526658461E+03  0.12500000000E+03 0.  0.
         21    1    1    2  502  501  0.17685618637E+03 -0.16421981637E+03 -0.28795199775E+03  0.37571613188E+03  0.00000000000E+00 0. -1.
<mgrwt>
<rscale>  3 0.51450387E+03</rscale>
<asrwt>0</asrwt>
<pdfrwt beam="1">  1        2 0.11760119E+00 0.51450387E+03</pdfrwt>
<pdfrwt beam="2">  1       -2 0.13319222E-01 0.51450387E+03</pdfrwt>
<totfact> 0.15692675E+03</totfact>
</mgrwt>
</event>
<event>
 4    0  0.1264838E-002  0.5233786E+03  0.7546771E-02  0.1007851E+00
          1   -1    0    0  502    0  0.00000000000E+00  0.00000000000E+00  0.13497194836E+04  0.13497194836E+04  0.00000000000E+00 0.  1.
         -1   -1    0    0    0  501 -0.00000000000E+00 -0.00000000000E+00 -0.50737422663E+02  0.50737422663E+02  0.00000000000E+00 0. -1.
         25    1    1    2    0    0 -0.85464068699E+02  0.21559526466E+03  0.91210382201E+03  0.94939128251E+03  0.12500000000E+03 0.  0.
         21    1    1    2  502  501  0.85464068699E+02 -0.21559526466E+03  0.38687823896E+03  0.45106562379E+03  0.00000000000E+00 0. -1.
<mgrwt>
<rscale>  3 0.52337859E+03</rscale>
<asrwt>0</asrwt>
<pdfrwt beam="1">  1        1 0.20764912E+00 0.52337859E+03</pdfrwt>
<pdfrwt beam="2">  1       -1 0.78057583E-02 0.52337859E+03</pdfrwt>
<totfact> 0.79586643E+02</totfact>
</mgrwt>
</event>
<event>
 4    0  0.1264838E-002  0.4972849E+03  0.7546771E-02  0.1014490E+00
         -2   -1    0    0    0  501 -0.00000000000E+00  0.00000000000E+00  0.50398540319E+02  0.50398540319E+02  0.00000000000E+00 0.  1.
          2   -1    0    0  502    0  0.00000000000E+00 -0.00000000000E+00 -0.12266838972E+04  0.12266838972E+04  0.00000000000E+00 0. -1.
         25    1    1    2    0    0  0.13154096602E+03 -0.19212465694E+03 -0.60856557694E+03  0.66346964587E+03  0.12500000000E+03 0.  0.
         21    1    1    2  502  501 -0.13154096602E+03  0.19212465694E+03 -0.56771977995E+03  0.61361279166E+03  0.00000000000E+00 0. -1.
<mgrwt>
<rscale>  3 0.49728494E+03</rscale>
<asrwt>0</asrwt>
<pdfrwt beam="1">  1        2 0.18872059E+00 0.49728494E+03</pdfrwt>
<pdfrwt beam="2">  1       -2 0.77536221E-02 0.49728494E+03</pdfrwt>
<totfact> 0.19106962E+03</totfact>
</mgrwt>
</event>
<event>
 4    0  0.1264838E-002  0.5210000E+03  0.7546771E-02  0.1008438E+00
          1   -1    0    0  502    0  0.00000000000E+00  0.00000000000E+00  0.10401857146E+04  0.10401857146E+04  0.00000000000E+00 0.  1.
         -1   -1    0    0    0  501 -0.00000000000E+00 -0.00000000000E+00 -0.65238602398E+02  0.65238602398E+02  0.00000000000E+00 0. -1.
         25    1    1    2    0    0  0.19021513756E+03 -0.66500963530E+02  0.81309521481E+03  0.84696694448E+03  0.12500000000E+03 0.  0.
         21    1    1    2  502  501 -0.19021513756E+03  0.66500963530E+02  0.16185189735E+03  0.25845737247E+03  0.00000000000E+00 0. -1.
<mgrwt>
<rscale>  3 0.52100005E+03</rscale>
<asrwt>0</asrwt>
<pdfrwt beam="1">  1        1 0.16002856E+00 0.52100005E+03</pdfrwt>
<pdfrwt beam="2">  1       -1 0.10036709E-01 0.52100005E+03</pdfrwt>
<totfact> 0.89718206E+02</totfact>
</mgrwt>
</event>
<event>
 4    0  0.1264838E-002  0.5125951E+03  0.7546771E-02  0.1010543E+00
          1   -1    0    0  502    0  0.00000000000E+00  0.00000000000E+00  0.13072172131E+03  0.13072172131E+03  0.00000000000E+00 0.  1.
         -1   -1    0    0    0  501 -0.00000000000E+00 -0.00000000000E+00 -0.50250586056E+03  0.50250586056E+03  0.00000000000E+00 0. -1.
         25    1    1    2    0    0  0.17053206561E+03 -0.16680849032E+03 -0.15411806919E+03  0.31029604750E+03  0.12500000000E+03 0.  0.
         21    1    1    2  502  501 -0.17053206561E+03  0.16680849032E+03 -0.21766607006E+03  0.32293153438E+03  0.00000000000E+00 0.  1.
<mgrwt>
<rscale>  3 0.51259509E+03</rscale>
<asrwt>0</asrwt>
<pdfrwt beam="1">  1        1 0.20111034E-01 0.51259509E+03</pdfrwt>
<pdfrwt beam="2">  1       -1 0.77308594E-01 0.51259509E+03</pdfrwt>
<totfact> 0.44278186E+02</totfact>
</mgrwt>
</event>
<event>
 4    0  0.1736523E-002  0.7834278E+03  0.7546771E-02  0.9584319E-01
          2   -1    0    0  502    0  0.00000000000E+00  0.00000000000E+00  0.21278279411E+04  0.21278279411E+04  0.00000000000E+00 0. -1.
         -2   -1    0    0    0  501 -0.00000000000E+00 -0.00000000000E+00 -0.72110984506E+02  0.72110984506E+02  0.00000000000E+00 0.  1.
         25    1    1    2    0    0 -0.21424883948E+01 -0.20520901732E+03  0.15013595777E+03  0.28333926107E+03  0.12500000000E+03 0.  0.
         21    1    1    2  502  501  0.21424883948E+01  0.20520901732E+03  0.19055809988E+04  0.19165996645E+04  0.00000000000E+00 0. -1.
<mgrwt>
<rscale>  3 0.78342777E+03</rscale>
<asrwt>0</asrwt>
<pdfrwt beam="1">  1        2 0.32735810E+00 0.78342777E+03</pdfrwt>
<pdfrwt beam="2">  1       -2 0.11093999E-01 0.78342777E+03</pdfrwt>
<totfact> 0.33631787E+02</totfact>
</mgrwt>
</event>
<event>
 4    0  0.1264838E-002  0.6190695E+03  0.7546771E-02  0.9866614E-01
         -2   -1    0    0    0  501 -0.00000000000E+00  0.00000000000E+00  0.15970686288E+03  0.15970686288E+03  0.00000000000E+00 0.  1.
          2   -1    0    0  502    0  0.00000000000E+00 -0.00000000000E+00 -0.59992254328E+03  0.59992254328E+03  0.00000000000E+00 0. -1.
         25    1    1    2    0    0  0.17529382084E+03 -0.19230978504E+03 -0.40454353793E+03  0.49698234489E+03  0.12500000000E+03 0.  0.
         21    1    1    2  502  501 -0.17529382084E+03  0.19230978504E+03 -0.35672142474E+02  0.26264706127E+03  0.00000000000E+00 0.  1.
<mgrwt>
<rscale>  3 0.61906945E+03</rscale>
<asrwt>0</asrwt>
<pdfrwt beam="1">  1        2 0.92295774E-01 0.61906945E+03</pdfrwt>
<pdfrwt beam="2">  1       -2 0.24570287E-01 0.61906945E+03</pdfrwt>
<totfact> 0.73750181E+02</totfact>
</mgrwt>
</event>
<event>
 4    0  0.1264838E-002  0.6675199E+03  0.7546771E-02  0.9774449E-01
          2   -1    0    0  502    0  0.00000000000E+00  0.00000000000E+00  0.64952396057E+03  0.64952396057E+03  0.00000000000E+00 0.  1.
         -2   -1    0    0    0  501 -0.00000000000E+00 -0.00000000000E+00 -0.17150361572E+03  0.17150361572E+03  0.00000000000E+00 0. -1.
         25    1    1    2    0    0  0.24985344148E+03 -0.59127088152E+01  0.49722460670E+03  0.57036743583E+03  0.12500000000E+03 0.  0.
         21    1    1    2  502  501 -0.24985344148E+03  0.59127088152E+01 -0.19204261846E+02  0.25066014046E+03  0.00000000000E+00 0. -1.
<mgrwt>
<rscale>  3 0.66751991E+03</rscale>
<asrwt>0</asrwt>
<pdfrwt beam="1">  1        2 0.99926762E-01 0.66751991E+03</pdfrwt>
<pdfrwt beam="2">  1       -2 0.26385172E-01 0.66751991E+03</pdfrwt>
<totfact> 0.58823349E+02</totfact>
</mgrwt>
</event>
<event>
 4    0  0.1264838E-002  0.5882024E+03  0.7546771E-02  0.9930189E-01
          2   -1    0    0  502    0  0.00000000000E+00  0.00000000000E+00  0.27270060134E+04  0.27270060134E+04  0.00000000000E+00 0. -1.
         -2   -1    0    0    0  501 -0.00000000000E+00 -0.00000000000E+00 -0.31718120927E+02  0.31718120927E+02  0.00000000000E+00 0.  1.
         25    1    1    2    0    0 -0.19135989981E+03  0.19497401937E+03  0.11036153732E+04  0.11437768014E+04  0.12500000000E+03 0.  0.
         21    1    1    2  502  501  0.19135989981E+03 -0.19497401937E+03  0.15916725193E+04  0.16149473329E+04  0.00000000000E+00 0.  1.
<mgrwt>
<rscale>  3 0.58820237E+03</rscale>
<asrwt>0</asrwt>
<pdfrwt beam="1">  1        2 0.41953920E+00 0.58820237E+03</pdfrwt>
<pdfrwt beam="2">  1       -2 0.48797131E-02 0.58820237E+03</pdfrwt>
<totfact> 0.58239699E+02</totfact>
</mgrwt>
</event>
<event>
 4    0  0.1264838E-002  0.5525673E+03  0.7546771E-02  0.1000901E+00
          2   -1    0    0  502    0  0.00000000000E+00  0.00000000000E+00  0.32798292080E+03  0.32798292080E+03  0.00000000000E+00 0. -1.
         -2   -1    0    0    0  501 -0.00000000000E+00 -0.00000000000E+00 -0.23273362727E+03  0.23273362727E+03  0.00000000000E+00 0.  1.
         25    1    1    2    0    0  0.21372895603E+03 -0.64420077757E+02 -0.89406228340E+02  0.27101381280E+03  0.12500000000E+03 0.  0.
         21    1    1    2  502  501 -0.21372895603E+03  0.64420077757E+02  0.18465552187E+03  0.28970273527E+03  0.00000000000E+00 0. -1.
<mgrwt>
<rscale>  3 0.55256730E+03</rscale>
<asrwt>0</asrwt>
<pdfrwt beam="1">  1        2 0.50458911E-01 0.55256730E+03</pdfrwt>
<pdfrwt beam="2">  1       -2 0.35805173E-01 0.55256730E+03</pdfrwt>
<totfact> 0.73264080E+02</totfact>
</mgrwt>
</event>
<event>
 4    0  0.1264838E-002  0.5345726E+03  0.7546771E-02  0.1005129E+00
         -2   -1    0    0    0  501 -0.00000000000E+00  0.00000000000E+00  0.68377520859E+02  0.68377520859E+02  0.00000000000E+00 0. -1.
          2   -1    0    0  502    0  0.00000000000E+00 -0.00000000000E+00 -0.10448167148E+04  0.10448167148E+04  0.00000000000E+00 0.  1.
         25    1    1    2    0    0  0.72445589109E+02  0.19522152400E+03 -0.81294663692E+03  0.84844978714E+03  0.12500000000E+03 0.  0.
         21    1    1    2  502  501 -0.72445589109E+02 -0.19522152400E+03 -0.16349255699E+03  0.26474444849E+03  0.00000000000E+00 0. -1.
<mgrwt>
<rscale>  3 0.53457264E+03</rscale>
<asrwt>0</asrwt>
<pdfrwt beam="1">  1        2 0.16074100E+00 0.53457264E+03</pdfrwt>
<pdfrwt beam="2">  1       -2 0.10519620E-01 0.53457264E+03</pdfrwt>
<totfact> 0.15027906E+03</totfact>
</mgrwt>
</event>
<event>
 4    0  0.1264838E-002  0.6266523E+03  0.7546771E-02  0.9851603E-01
         -2   -1    0    0    0  501 -0.00000000000E+00  0.00000000000E+00  0.53309521580E+02  0.53309521580E+02  0.00000000000E+00 0. -1.
          2   -1    0    0  502    0  0.00000000000E+00 -0.00000000000E+00 -0.18415710687E+04  0.18415710687E+04  0.00000000000E+00 0.  1.
         25    1    1    2    0    0 -0.14173267684E+03 -0.24508686511E+03 -0.62192432611E+03  0.69467300980E+03  0.12500000000E+03 0.  0.
         21    1    1    2  502  501  0.14173267684E+03  0.24508686511E+03 -0.11663372210E+04  0.12002075804E+04  0.00000000000E+00 0.  1.
<mgrwt>
<rscale>  3 0.62665229E+03</rscale>
<asrwt>0</asrwt>
<pdfrwt beam="1">  1        2 0.28331855E+00 0.62665229E+03</pdfrwt>
<pdfrwt beam="2">  1       -2 0.82014670E-02 0.62665229E+03</pdfrwt>
<totfact> 0.79457311E+02</totfact>
</mgrwt>
</event>
<event>
 4    0  0.1264838E-002  0.4833023E+03  0.7546771E-02  0.1018232E+00
         -1   -1    0    0    0  501 -0.00000000000E+00  0.00000000000E+00  0.71964134190E+02  0.71964134190E+02  0.00000000000E+00 0.  1.
          1   -1    0    0  502    0  0.00000000000E+00 -0.00000000000E+00 -0.81144964358E+03  0.81144964358E+03  0.00000000000E+00 0. -1.
         25    1    1    2    0    0 -0.21658201252E+03  0.53756441651E+02 -0.45360841852E+03  0.52075245609E+03  0.12500000000E+03 0.  0.
         21    1    1    2  502  501  0.21658201252E+03 -0.53756441651E+02 -0.28587709087E+03  0.36266132169E+03  0.00000000000E+00 0.  1.
<mgrwt>
<rscale>  3 0.48330227E+03</rscale>
<asrwt>0</asrwt>
<pdfrwt beam="1">  1        1 0.12483841E+00 0.48330227E+03</pdfrwt>
<pdfrwt beam="2">  1       -1 0.11071405E-01 0.48330227E+03</pdfrwt>
<totfact> 0.11698747E+03</totfact>
</mgrwt>
</event>
<event>
 4    0  0.1264838E-002  0.5659509E+03  0.7546771E-02  0.9978679E-01
          1   -1    0    0  502    0  0.00000000000E+00  0.00000000000E+00  0.40156985455E+03  0.40156985455E+03  0.00000000000E+00 0. -1.
         -1   -1    0    0    0  501 -0.00000000000E+00 -0.00000000000E+00 -0.19940518642E+03  0.19940518642E+03  0.00000000000E+00 0.  1.
         25    1    1    2    0    0 -0.19932236203E+03 -0.81122532363E+02  0.27770713288E+03  0.37290283039E+03  0.12500000000E+03 0.  0.
         21    1    1    2  502  501  0.19932236203E+03  0.81122532363E+02 -0.75542464748E+02  0.22807221058E+03  0.00000000000E+00 0.  1.
<mgrwt>
<rscale>  3 0.56595092E+03</rscale>
<asrwt>0</asrwt>
<pdfrwt beam="1">  1        1 0.61779978E-01 0.56595092E+03</pdfrwt>
<pdfrwt beam="2">  1       -1 0.30677721E-01 0.56595092E+03</pdfrwt>
<totfact> 0.59095909E+02</totfact>
</mgrwt>
</event>
<event>
 4    0  0.1264838E-002  0.6035175E+03  0.7546771E-02  0.9898135E-01
          1   -1    0    0  502    0  0.00000000000E+00  0.00000000000E+00  0.46765921227E+03  0.46765921227E+03  0.00000000000E+00 0. -1.
         -1   -1    0    0    0  501 -0.00000000000E+00 -0.00000000000E+00 -0.19471086332E+03  0.19471086332E+03  0.00000000000E+00 0.  1.
         25    1    1    2    0    0  0.11054528882E+03 -0.25246219788E+03  0.23709700965E+03  0.38444429275E+03  0.12500000000E+03 0.  0.
         21    1    1    2  502  501 -0.11054528882E+03  0.25246219788E+03  0.35851339304E+02  0.27792578284E+03  0.00000000000E+00 0.  1.
<mgrwt>
<rscale>  3 0.60351745E+03</rscale>
<asrwt>0</asrwt>
<pdfrwt beam="1">  1        1 0.71947571E-01 0.60351745E+03</pdfrwt>
<pdfrwt beam="2">  1       -1 0.29955518E-01 0.60351745E+03</pdfrwt>
<totfact> 0.50231431E+02</totfact>
</mgrwt>
</event>
<event>
 4    0  0.1264838E-002  0.5153933E+03  0.7546771E-02  0.1009837E+00
          1   -1    0    0  502    0  0.00000000000E+00  0.00000000000E+00  0.53655710701E+03  0.53655710701E+03  0.00000000000E+00 0.  1.
         -1   -1    0    0    0  501 -0.00000000000E+00 -0.00000000000E+00 -0.12376607849E+03  0.12376607849E+03  0.00000000000E+00 0. -1.
         25    1    1    2    0    0  0.19324035096E+03  0.74748249207E+02  0.57004500665E+02  0.24860339316E+03  0.12500000000E+03 0.  0.
         21    1    1    2  502  501 -0.19324035096E+03 -0.74748249207E+02  0.35578652785E+03  0.41171979233E+03  0.00000000000E+00 0.  1.
<mgrwt>
<rscale>  3 0.51539332E+03</rscale>
<asrwt>0</asrwt>
<pdfrwt beam="1">  1        1 0.82547246E-01 0.51539332E+03</pdfrwt>
<pdfrwt beam="2">  1       -1 0.19040935E-01 0.51539332E+03</pdfrwt>
<totfact> 0.89674451E+02</totfact>
</mgrwt>
</event>
<event>
 4    0  0.1549903E-002  0.5692262E+03  0.7546771E-02  0.9971392E-01
         -1   -1    0    0    0  501 -0.00000000000E+00  0.00000000000E+00  0.25902730424E+03  0.25902730424E+03  0.00000000000E+00 0.  1.
          1   -1    0    0  502    0  0.00000000000E+00 -0.00000000000E+00 -0.31272621284E+03  0.31272621284E+03  0.00000000000E+00 0. -1.
         25    1    1    2    0    0  0.10887947380E+03  0.17645799981E+03  0.14695225519E+03  0.28321746207E+03  0.12500000000E+03 0.  0.
         21    1    1    2  502  501 -0.10887947380E+03 -0.17645799981E+03 -0.20065116379E+03  0.28853605502E+03  0.00000000000E+00 0. -1.
<mgrwt>
<rscale>  3 0.56922624E+03</rscale>
<asrwt>0</asrwt>
<pdfrwt beam="1">  1        1 0.48111725E-01 0.56922624E+03</pdfrwt>
<pdfrwt beam="2">  1       -1 0.39850354E-01 0.56922624E+03</pdfrwt>
<totfact> 0.51479212E+02</totfact>
</mgrwt>
</event>
<event>
 4    0  0.1264838E-002  0.5198198E+03  0.7546771E-02  0.1008731E+00
          2   -1    0    0  502    0  0.00000000000E+00  0.00000000000E+00  0.80062949498E+03  0.80062949498E+03  0.00000000000E+00 0.  1.
         -2   -1    0    0    0  501 -0.00000000000E+00 -0.00000000000E+00 -0.84375065575E+02  0.84375065575E+02  0.00000000000E+00 0. -1.
         25    1    1    2    0    0  0.12190026624E+03 -0.21202662456E+03  0.39979693126E+03  0.48505417293E+03  0.12500000000E+03 0.  0.
         21    1    1    2  502  501 -0.12190026624E+03  0.21202662456E+03  0.31645749814E+03  0.39995038762E+03  0.00000000000E+00 0.  1.
<mgrwt>
<rscale>  3 0.51981984E+03</rscale>
<asrwt>0</asrwt>
<pdfrwt beam="1">  1        2 0.12317376E+00 0.51981984E+03</pdfrwt>
<pdfrwt beam="2">  1       -2 0.12980780E-01 0.51981984E+03</pdfrwt>
<totfact> 0.15421600E+03</totfact>
</mgrwt>
</event>
<event>
 4    0  0.1264838E-002  0.7096691E+03  0.7546771E-02  0.9700838E-01
          2   -1    0    0  502    0  0.00000000000E+00  0.00000000000E+00  0.17456577630E+03  0.17456577630E+03  0.00000000000E+00 0.  1.
         -2   -1    0    0    0  501 -0.00000000000E+00 -0.00000000000E+00 -0.72126148439E+03  0.72126148439E+03  0.00000000000E+00 0. -1.
         25    1    1    2    0    0 -0.22691809953E+03  0.20549392759E+03 -0.47939885520E+03  0.58238118148E+03  0.12500000000E+03 0.  0.
         21    1    1    2  502  501  0.22691809953E+03 -0.20549392759E+03 -0.67296852890E+02  0.31344607922E+03  0.00000000000E+00 0.  1.
<mgrwt>
<rscale>  3 0.70966914E+03</rscale>
<asrwt>0</asrwt>
<pdfrwt beam="1">  1        2 0.26856273E-01 0.70966914E+03</pdfrwt>
<pdfrwt beam="2">  1       -2 0.11096330E+00 0.70966914E+03</pdfrwt>
<totfact> 0.13119821E+02</totfact>
</mgrwt>
</event>
<event>
 4    0  0.1264838E-002  0.5136725E+03  0.7546771E-02  0.1010271E+00
          1   -1    0    0  502    0  0.00000000000E+00  0.00000000000E+00  0.21909126056E+03  0.21909126056E+03  0.00000000000E+00 0. -1.
         -1   -1    0    0    0  501 -0.00000000000E+00 -0.00000000000E+00 -0.30108393077E+03  0.30108393077E+03  0.00000000000E+00 0.  1.
         25    1    1    2    0    0  0.24148357268E+03 -0.74811319276E+01 -0.39718233536E+02  0.27490511324E+03  0.12500000000E+03 0.  0.
         21    1    1    2  502  501 -0.24148357268E+03  0.74811319276E+01 -0.42274436674E+02  0.24527007809E+03  0.00000000000E+00 0.  1.
<mgrwt>
<rscale>  3 0.51367249E+03</rscale>
<asrwt>0</asrwt>
<pdfrwt beam="1">  1        1 0.33706348E-01 0.51367249E+03</pdfrwt>
<pdfrwt beam="2">  1       -1 0.46320605E-01 0.51367249E+03</pdfrwt>
<totfact> 0.61818605E+02</totfact>
</mgrwt>
</event>
<event>
 4    0  0.1264838E-002  0.1007444E+04  0.7546771E-02  0.9300418E-01
         -2   -1    0    0    0  501 -0.00000000000E+00  0.00000000000E+00  0.32762285985E+03  0.32762285985E+03  0.00000000000E+00 0.  1.
          2   -1    0    0  502    0  0.00000000000E+00 -0.00000000000E+00 -0.77447513562E+03  0.77447513562E+03  0.00000000000E+00 0. -1.
         25    1    1    2    0    0  0.16029217661E+03 -0.15577709564E+03 -0.71120900721E+03  0.75591225506E+03  0.12500000000E+03 0.  0.
         21    1    1    2  502  501 -0.16029217661E+03  0.15577709564E+03  0.26435673144E+03  0.34618574042E+03  0.00000000000E+00 0.  1.
<mgrwt>
<rscale>  3 0.10074438E+04</rscale>
<asrwt>0</asrwt>
<pdfrwt beam="1">  1        2 0.11915002E+00 0.10074438E+04</pdfrwt>
<pdfrwt beam="2">  1       -2 0.50403518E-01 0.10074438E+04</pdfrwt>
<totfact> 0.13359324E+02</totfact>
</mgrwt>
</event>
<event>
 4    0  0.1264838E-002  0.8407541E+03  0.7546771E-02  0.9502831E-01
         -2   -1    0    0    0  501 -0.00000000000E+00  0.00000000000E+00  0.45284116677E+03  0.45284116677E+03  0.00000000000E+00 0.  1.
          2   -1    0    0  502    0  0.00000000000E+00 -0.00000000000E+00 -0.39024026772E+03  0.39024026772E+03  0.00000000000E+00 0. -1.
         25    1    1    2    0    0  0.13689058895E+03 -0.18398785628E+03 -0.31012674303E+03  0.40545549859E+03  0.12500000000E+03 0.  0.
         21    1    1    2  502  501 -0.13689058895E+03  0.18398785628E+03  0.37272764208E+03  0.43762593590E+03  0.00000000000E+00 0.  1.
<mgrwt>
<rscale>  3 0.84075409E+03</rscale>
<asrwt>0</asrwt>
<pdfrwt beam="1">  1        2 0.60036964E-01 0.84075409E+03</pdfrwt>
<pdfrwt beam="2">  1       -2 0.69667872E-01 0.84075409E+03</pdfrwt>
<totfact> 0.15457224E+02</totfact>
</mgrwt>
</event>
<event>
 4    0  0.1264838E-002  0.6301562E+03  0.7546771E-02  0.9844744E-01
          2   -1    0    0  502    0  0.00000000000E+00  0.00000000000E+00  0.38403458675E+03  0.38403458675E+03  0.00000000000E+00 0. -1.
         -2   -1    0    0    0  501 -0.00000000000E+00 -0.00000000000E+00 -0.25850327415E+03  0.25850327415E+03  0.00000000000E+00 0.  1.
         25    1    1    2    0    0 -0.19717152116E+03  0.83889042338E+02 -0.15274400218E+03  0.29132406420E+03  0.12500000000E+03 0.  0.
         21    1    1    2  502  501  0.19717152116E+03 -0.83889042338E+02  0.27827531478E+03  0.35121379670E+03  0.00000000000E+00 0. -1.
<mgrwt>
<rscale>  3 0.63015616E+03</rscale>
<asrwt>0</asrwt>
<pdfrwt beam="1">  1        2 0.59082244E-01 0.63015616E+03</pdfrwt>
<pdfrwt beam="2">  1       -2 0.39769734E-01 0.63015616E+03</pdfrwt>
<totfact> 0.50197315E+02</totfact>
</mgrwt>
</event>
<event>
 4    0  0.1264838E-002  0.5621239E+03  0.7546771E-02  0.9987260E-01
         -1   -1    0    0    0  501 -0.00000000000E+00  0.00000000000E+00  0.73155055565E+02  0.73155055565E+02  0.00000000000E+00 0.  1.
          1   -1    0    0  502    0  0.00000000000E+00 -0.00000000000E+00 -0.10798409417E+04  0.10798409417E+04  0.00000000000E+00 0. -1.
         25    1    1    2    0    0  0.88434756763E+02  0.21802576262E+03 -0.78785039803E+03  0.83167853709E+03  0.12500000000E+03 0.  0.
         21    1    1    2  502  501 -0.88434756763E+02 -0.21802576262E+03 -0.21883548815E+03  0.32131746022E+03  0.00000000000E+00 0.  1.
<mgrwt>
<rscale>  3 0.56212392E+03</rscale>
<asrwt>0</asrwt>
<pdfrwt beam="1">  1        1 0.16612938E+00 0.56212392E+03</pdfrwt>
<pdfrwt beam="2">  1       -1 0.11254623E-01 0.56212392E+03</pdfrwt>
<totfact> 0.69803152E+02</totfact>
</mgrwt>
</event>
<event>
 4    0  0.1264838E-002  0.4983985E+03  0.7546771E-02  0.1014198E+00
         -1   -1    0    0    0  501 -0.00000000000E+00  0.00000000000E+00  0.39253361908E+02  0.39253361908E+02  0.00000000000E+00 0.  1.
          1   -1    0    0  502    0  0.00000000000E+00 -0.00000000000E+00 -0.15820370907E+04  0.15820370907E+04  0.00000000000E+00 0. -1.
         25    1    1    2    0    0 -0.22265111791E+03 -0.12247674779E+02 -0.10455223621E+04  0.10763203685E+04  0.12500000000E+03 0.  0.
         21    1    1    2  502  501  0.22265111791E+03  0.12247674779E+02 -0.49726136663E+03  0.54497008412E+03  0.00000000000E+00 0.  1.
<mgrwt>
<rscale>  3 0.49839853E+03</rscale>
<asrwt>0</asrwt>
<pdfrwt beam="1">  1        1 0.24339030E+00 0.49839853E+03</pdfrwt>
<pdfrwt beam="2">  1       -1 0.60389792E-02 0.49839853E+03</pdfrwt>
<totfact> 0.82287885E+02</totfact>
</mgrwt>
</event>
<event>
 4    0  0.1264838E-002  0.9666077E+03  0.7546771E-02  0.9345947E-01
         -2   -1    0    0    0  501 -0.00000000000E+00  0.00000000000E+00  0.18821226446E+03  0.18821226446E+03  0.00000000000E+00 0. -1.
          2   -1    0    0  502    0  0.00000000000E+00 -0.00000000000E+00 -0.12410595869E+04  0.12410595869E+04  0.00000000000E+00 0.  1.
         25    1    1    2    0    0 -0.46092520298E+03 -0.10354132873E+03 -0.45892822882E+03  0.67038270317E+03  0.12500000000E+03 0.  0.
         21    1    1    2  502  501  0.46092520298E+03  0.10354132873E+03 -0.59391909364E+03  0.75888914822E+03  0.00000000000E+00 0.  1.
<mgrwt>
<rscale>  3 0.96660775E+03</rscale>
<asrwt>0</asrwt>
<pdfrwt beam="1">  1        2 0.19093224E+00 0.96660775E+03</pdfrwt>
<pdfrwt beam="2">  1       -2 0.28955733E-01 0.96660775E+03</pdfrwt>
<totfact> 0.19582415E+02</totfact>
</mgrwt>
</event>
<event>
 4    0  0.1264838E-002  0.6130419E+03  0.7546771E-02  0.9878712E-01
          1   -1    0    0  502    0  0.00000000000E+00  0.00000000000E+00  0.26011972966E+03  0.26011972966E+03  0.00000000000E+00 0.  1.
         -1   -1    0    0    0  501 -0.00000000000E+00 -0.00000000000E+00 -0.36119936624E+03  0.36119936624E+03  0.00000000000E+00 0. -1.
         25    1    1    2    0    0  0.17662400856E+03  0.22391144602E+03  0.18827802531E+02  0.31194849287E+03  0.12500000000E+03 0.  0.
         21    1    1    2  502  501 -0.17662400856E+03 -0.22391144602E+03 -0.11990743911E+03  0.30937060302E+03  0.00000000000E+00 0.  1.
<mgrwt>
<rscale>  3 0.61304186E+03</rscale>
<asrwt>0</asrwt>
<pdfrwt beam="1">  1        1 0.40018420E-01 0.61304186E+03</pdfrwt>
<pdfrwt beam="2">  1       -1 0.55569133E-01 0.61304186E+03</pdfrwt>
<totfact> 0.35058708E+02</totfact>
</mgrwt>
</event>
<event>
 4    0  0.1264838E-002  0.4750793E+03  0.7546771E-02  0.1020496E+00
          1   -1    0    0  502    0  0.00000000000E+00  0.00000000000E+00  0.52911183466E+03  0.52911183466E+03  0.00000000000E+00 0.  1.
         -1   -1    0    0    0  501 -0.00000000000E+00 -0.00000000000E+00 -0.10664113652E+03  0.10664113652E+03  0.00000000000E+00 0. -1.
         25    1    1    2    0    0 -0.12331939418E+03  0.17881524562E+03  0.17067612385E+03  0.30321263876E+03  0.12500000000E+03 0.  0.
         21    1    1    2  502  501  0.12331939418E+03 -0.17881524562E+03  0.25179457429E+03  0.33254033243E+03  0.00000000000E+00 0.  1.
<mgrwt>
<rscale>  3 0.47507931E+03</rscale>
<asrwt>0</asrwt>
<pdfrwt beam="1">  1        1 0.81401819E-01 0.47507931E+03</pdfrwt>
<pdfrwt beam="2">  1       -1 0.16406329E-01 0.47507931E+03</pdfrwt>
<totfact> 0.11665768E+03</totfact>
</mgrwt>
</event>
<event>
 4    0  0.1264838E-002  0.5081551E+03  0.7546771E-02  0.1011672E+00
         -4   -1    0    0    0  501 -0.00000000000E+00  0.00000000000E+00  0.12253518494E+04  0.12253518494E+04  0.00000000000E+00 0. -1.
          4   -1    0    0  502    0  0.00000000000E+00 -0.00000000000E+00 -0.52683157177E+02  0.52683157177E+02  0.00000000000E+00 0.  1.
         25    1    1    2    0    0 -0.12342192524E+03  0.19374374130E+03  0.45863227183E+03  0.52795659830E+03  0.12500000000E+03 0.  0.
         21    1    1    2  502  501  0.12342192524E+03 -0.19374374130E+03  0.71403642043E+03  0.75007840832E+03  0.00000000000E+00 0. -1.
<mgrwt>
<rscale>  3 0.50815511E+03</rscale>
<asrwt>0</asrwt>
<pdfrwt beam="1">  1        4 0.81051020E-02 0.50815511E+03</pdfrwt>
<pdfrwt beam="2">  1       -4 0.18851565E+00 0.50815511E+03</pdfrwt>
<totfact> 0.35428608E+01</totfact>
</mgrwt>
</event>
<event>
 4    0  0.1264838E-002  0.7851553E+03  0.7546771E-02  0.9581756E-01
          1   -1    0    0  502    0  0.00000000000E+00  0.00000000000E+00  0.79663179225E+03  0.79663179225E+03  0.00000000000E+00 0. -1.
         -1   -1    0    0    0  501 -0.00000000000E+00 -0.00000000000E+00 -0.19346105320E+03  0.19346105320E+03  0.00000000000E+00 0.  1.
         25    1    1    2    0    0  0.23474256038E+03 -0.55267255518E+02  0.68382769783E+03  0.73580150823E+03  0.12500000000E+03 0.  0.
         21    1    1    2  502  501 -0.23474256038E+03  0.55267255518E+02 -0.80656958789E+02  0.25429133722E+03  0.00000000000E+00 0.  1.
<mgrwt>
<rscale>  3 0.78515534E+03</rscale>
<asrwt>0</asrwt>
<pdfrwt beam="1">  1        1 0.12255874E+00 0.78515534E+03</pdfrwt>
<pdfrwt beam="2">  1       -1 0.29763239E-01 0.78515534E+03</pdfrwt>
<totfact> 0.23263300E+02</totfact>
</mgrwt>
</event>
<event>
 4    0  0.1264838E-002  0.6731179E+03  0.7546771E-02  0.9764342E-01
          2   -1    0    0  502    0  0.00000000000E+00  0.00000000000E+00  0.60707645500E+03  0.60707645500E+03  0.00000000000E+00 0. -1.
         -2   -1    0    0    0  501 -0.00000000000E+00 -0.00000000000E+00 -0.18658591345E+03  0.18658591345E+03  0.00000000000E+00 0.  1.
         25    1    1    2    0    0  0.12427341211E+03 -0.27821311935E+03  0.35062102041E+03  0.48104731648E+03  0.12500000000E+03 0.  0.
         21    1    1    2  502  501 -0.12427341211E+03  0.27821311935E+03  0.69869521143E+02  0.31261505198E+03  0.00000000000E+00 0.  1.
<mgrwt>
<rscale>  3 0.67311786E+03</rscale>
<asrwt>0</asrwt>
<pdfrwt beam="1">  1        2 0.93396377E-01 0.67311786E+03</pdfrwt>
<pdfrwt beam="2">  1       -2 0.28705525E-01 0.67311786E+03</pdfrwt>
<totfact> 0.54744649E+02</totfact>
</mgrwt>
</event>
<event>
 4    0  0.1264838E-002  0.5043877E+03  0.7546771E-02  0.1012640E+00
          2   -1    0    0  502    0  0.00000000000E+00  0.00000000000E+00  0.37718345296E+03  0.37718345296E+03  0.00000000000E+00 0. -1.
         -2   -1    0    0    0  501 -0.00000000000E+00 -0.00000000000E+00 -0.16862281638E+03  0.16862281638E+03  0.00000000000E+00 0.  1.
         25    1    1    2    0    0 -0.88579467150E+02 -0.20329538399E+03  0.21098938465E+02  0.25543198773E+03  0.12500000000E+03 0.  0.
         21    1    1    2  502  501  0.88579467150E+02  0.20329538399E+03  0.18746169812E+03  0.29037428160E+03  0.00000000000E+00 0. -1.
<mgrwt>
<rscale>  3 0.50438769E+03</rscale>
<asrwt>0</asrwt>
<pdfrwt beam="1">  1        2 0.58028223E-01 0.50438769E+03</pdfrwt>
<pdfrwt beam="2">  1       -2 0.25941972E-01 0.50438769E+03</pdfrwt>
<totfact> 0.11392998E+03</totfact>
</mgrwt>
</event>
<event>
 4    0  0.1264838E-002  0.6875324E+03  0.7546771E-02  0.9738794E-01
         -2   -1    0    0    0  501 -0.00000000000E+00  0.00000000000E+00  0.91358054784E+02  0.91358054784E+02  0.00000000000E+00 0. -1.
          2   -1    0    0  502    0  0.00000000000E+00 -0.00000000000E+00 -0.12935389315E+04  0.12935389315E+04  0.00000000000E+00 0.  1.
         25    1    1    2    0    0  0.10920039246E+03  0.23693686869E+03 -0.10358662247E+04  0.10755034360E+04  0.12500000000E+03 0.  0.
         21    1    1    2  502  501 -0.10920039246E+03 -0.23693686869E+03 -0.16631465201E+03  0.30939355024E+03  0.00000000000E+00 0.  1.
<mgrwt>
<rscale>  3 0.68753240E+03</rscale>
<asrwt>0</asrwt>
<pdfrwt beam="1">  1        2 0.19900598E+00 0.68753240E+03</pdfrwt>
<pdfrwt beam="2">  1       -2 0.14055086E-01 0.68753240E+03</pdfrwt>
<totfact> 0.65947928E+02</totfact>
</mgrwt>
</event>
<event>
 4    0  0.1264838E-002  0.9927819E+03  0.7546771E-02  0.9316497E-01
         -2   -1    0    0    0  501 -0.00000000000E+00  0.00000000000E+00  0.75594906141E+02  0.75594906141E+02  0.00000000000E+00 0. -1.
          2   -1    0    0  502    0  0.00000000000E+00 -0.00000000000E+00 -0.32595312699E+04  0.32595312699E+04  0.00000000000E+00 0.  1.
         25    1    1    2    0    0 -0.23786551172E+03 -0.12879317218E+03 -0.25061434232E+03  0.38935874389E+03  0.12500000000E+03 0.  0.
         21    1    1    2  502  501  0.23786551172E+03  0.12879317218E+03 -0.29333220214E+04  0.29457674321E+04  0.00000000000E+00 0.  1.
<mgrwt>
<rscale>  3 0.99278187E+03</rscale>
<asrwt>0</asrwt>
<pdfrwt beam="1">  1        2 0.50146625E+00 0.99278187E+03</pdfrwt>
<pdfrwt beam="2">  1       -2 0.11629988E-01 0.99278187E+03</pdfrwt>
<totfact> 0.65666797E+01</totfact>
</mgrwt>
</event>
<event>
 4    0  0.1264838E-002  0.5532354E+03  0.7546771E-02  0.1000748E+00
         -2   -1    0    0    0  501 -0.00000000000E+00  0.00000000000E+00  0.58624054018E+02  0.58624054018E+02  0.00000000000E+00 0.  1.
          2   -1    0    0  502    0  0.00000000000E+00 -0.00000000000E+00 -0.13052211172E+04  0.13052211172E+04  0.00000000000E+00 0. -1.
         25    1    1    2    0    0 -0.14371729261E+01 -0.24896003581E+03 -0.86020744759E+03  0.90419302020E+03  0.12500000000E+03 0.  0.
         21    1    1    2  502  501  0.14371729261E+01  0.24896003581E+03 -0.38638961562E+03  0.45965215105E+03  0.00000000000E+00 0. -1.
<mgrwt>
<rscale>  3 0.55323540E+03</rscale>
<asrwt>0</asrwt>
<pdfrwt beam="1">  1        2 0.20080324E+00 0.55323540E+03</pdfrwt>
<pdfrwt beam="2">  1       -2 0.90190854E-02 0.55323540E+03</pdfrwt>
<totfact> 0.13513245E+03</totfact>
</mgrwt>
</event>
<event>
 4    0  0.1264838E-002  0.5813274E+03  0.7546771E-02  0.9944921E-01
          4   -1    0    0  502    0  0.00000000000E+00  0.00000000000E+00  0.11014181837E+03  0.11014181837E+03  0.00000000000E+00 0.  1.
         -4   -1    0    0    0  501 -0.00000000000E+00 -0.00000000000E+00 -0.76706006519E+03  0.76706006519E+03  0.00000000000E+00 0. -1.
         25    1    1    2    0    0 -0.21033670825E+03  0.10145697621E+03 -0.11821618446E+03  0.29006053700E+03  0.12500000000E+03 0.  0.
         21    1    1    2  502  501  0.21033670825E+03 -0.10145697621E+03 -0.53870206235E+03  0.58714134656E+03  0.00000000000E+00 0.  1.
<mgrwt>
<rscale>  3 0.58132741E+03</rscale>
<asrwt>0</asrwt>
<pdfrwt beam="1">  1        4 0.16944895E-01 0.58132741E+03</pdfrwt>
<pdfrwt beam="2">  1       -4 0.11800924E+00 0.58132741E+03</pdfrwt>
<totfact> 0.34071940E+01</totfact>
</mgrwt>
</event>
<event>
 4    0  0.1264838E-002  0.4692836E+03  0.7546771E-02  0.1022123E+00
          2   -1    0    0  502    0  0.00000000000E+00  0.00000000000E+00  0.14905199623E+04  0.14905199623E+04  0.00000000000E+00 0. -1.
         -2   -1    0    0    0  501 -0.00000000000E+00 -0.00000000000E+00 -0.36937969823E+02  0.36937969823E+02  0.00000000000E+00 0.  1.
         25    1    1    2    0    0 -0.67778544295E+02  0.19661614294E+03  0.56567632187E+03  0.61552135614E+03  0.12500000000E+03 0.  0.
         21    1    1    2  502  501  0.67778544295E+02 -0.19661614294E+03  0.88790567058E+03  0.91193657596E+03  0.00000000000E+00 0. -1.
<mgrwt>
<rscale>  3 0.46928363E+03</rscale>
<asrwt>0</asrwt>
<pdfrwt beam="1">  1        2 0.22931072E+00 0.46928363E+03</pdfrwt>
<pdfrwt beam="2">  1       -2 0.56827657E-02 0.46928363E+03</pdfrwt>
<totfact> 0.22129107E+03</totfact>
</mgrwt>
</event>
<event>
 4    0  0.1264838E-002  0.4888467E+03  0.7546771E-02  0.1016732E+00
         -1   -1    0    0    0  501 -0.00000000000E+00  0.00000000000E+00  0.79158565695E+02  0.79158565695E+02  0.00000000000E+00 0.  1.
          1   -1    0    0  502    0  0.00000000000E+00 -0.00000000000E+00 -0.75472268474E+03  0.75472268474E+03  0.00000000000E+00 0. -1.
         25    1    1    2    0    0 -0.21504481434E+02 -0.22580132323E+03 -0.40617653708E+03  0.48171885947E+03  0.12500000000E+03 0.  0.
         21    1    1    2  502  501  0.21504481434E+02  0.22580132323E+03 -0.26938758196E+03  0.35216239097E+03  0.00000000000E+00 0.  1.
<mgrwt>
<rscale>  3 0.48884666E+03</rscale>
<asrwt>0</asrwt>
<pdfrwt beam="1">  1        1 0.11611118E+00 0.48884666E+03</pdfrwt>
<pdfrwt beam="2">  1       -1 0.12178241E-01 0.48884666E+03</pdfrwt>
<totfact> 0.11262171E+03</totfact>
</mgrwt>
</event>
<event>
 4    0  0.1264838E-002  0.5248299E+03  0.7546771E-02  0.1007494E+00
         -2   -1    0    0    0  501 -0.00000000000E+00  0.00000000000E+00  0.60032263388E+02  0.60032263388E+02  0.00000000000E+00 0.  1.
          2   -1    0    0  502    0  0.00000000000E+00 -0.00000000000E+00 -0.11470766652E+04  0.11470766652E+04  0.00000000000E+00 0. -1.
         25    1    1    2    0    0 -0.11180616803E+03 -0.19184443456E+03 -0.82594708756E+03  0.86436016667E+03  0.12500000000E+03 0.  0.
         21    1    1    2  502  501  0.11180616803E+03  0.19184443456E+03 -0.26109731424E+03  0.34274876191E+03  0.00000000000E+00 0.  1.
<mgrwt>
<rscale>  3 0.52482991E+03</rscale>
<asrwt>0</asrwt>
<pdfrwt beam="1">  1        2 0.17647332E+00 0.52482991E+03</pdfrwt>
<pdfrwt beam="2">  1       -2 0.92357337E-02 0.52482991E+03</pdfrwt>
<totfact> 0.16084358E+03</totfact>
</mgrwt>
</event>
<event>
 4    0  0.1412209E-002  0.7222529E+03  0.7546771E-02  0.9679916E-01
         -1   -1    0    0    0  501 -0.00000000000E+00  0.00000000000E+00  0.26055425457E+03  0.26055425457E+03  0.00000000000E+00 0. -1.
          1   -1    0    0  502    0  0.00000000000E+00 -0.00000000000E+00 -0.50051879998E+03  0.50051879998E+03  0.00000000000E+00 0.  1.
         25    1    1    2    0    0  0.20646052842E+03  0.97542585780E+02  0.15636489265E+03  0.30367002732E+03  0.12500000000E+03 0.  0.
         21    1    1    2  502  501 -0.20646052842E+03 -0.97542585780E+02 -0.39632943806E+03  0.45740302722E+03  0.00000000000E+00 0.  1.
<mgrwt>
<rscale>  3 0.72225287E+03</rscale>
<asrwt>0</asrwt>
<pdfrwt beam="1">  1        1 0.77002891E-01 0.72225287E+03</pdfrwt>
<pdfrwt beam="2">  1       -1 0.40085271E-01 0.72225287E+03</pdfrwt>
<totfact> 0.27185970E+02</totfact>
</mgrwt>
</event>
<event>
 4    0  0.1264838E-002  0.4427575E+03  0.7546771E-02  0.1029904E+00
         -2   -1    0    0    0  501 -0.00000000000E+00  0.00000000000E+00  0.18791339505E+02  0.18791339505E+02  0.00000000000E+00 0. -1.
          2   -1    0    0  502    0  0.00000000000E+00 -0.00000000000E+00 -0.26080391473E+04  0.26080391473E+04  0.00000000000E+00 0.  1.
         25    1    1    2    0    0  0.68193844867E+02  0.19016020836E+03 -0.15543433412E+04  0.15723929305E+04  0.12500000000E+03 0.  0.
         21    1    1    2  502  501 -0.68193844867E+02 -0.19016020836E+03 -0.10349044665E+04  0.10544375563E+04  0.00000000000E+00 0.  1.
<mgrwt>
<rscale>  3 0.44275749E+03</rscale>
<asrwt>0</asrwt>
<pdfrwt beam="1">  1        2 0.40123667E+00 0.44275749E+03</pdfrwt>
<pdfrwt beam="2">  1       -2 0.28909762E-02 0.44275749E+03</pdfrwt>
<totfact> 0.15367570E+03</totfact>
</mgrwt>
</event>
<event>
 4    0  0.1264838E-002  0.6531731E+03  0.7546771E-02  0.9800843E-01
          2   -1    0    0  502    0  0.00000000000E+00  0.00000000000E+00  0.14991357096E+04  0.14991357096E+04  0.00000000000E+00 0.  1.
         -2   -1    0    0    0  501 -0.00000000000E+00 -0.00000000000E+00 -0.71146836845E+02  0.71146836845E+02  0.00000000000E+00 0. -1.
         25    1    1    2    0    0 -0.27271232794E+03  0.22062463796E+02  0.11135942897E+04  0.11535059637E+04  0.12500000000E+03 0.  0.
         21    1    1    2  502  501  0.27271232794E+03 -0.22062463796E+02  0.31439458306E+03  0.41677658281E+03  0.00000000000E+00 0. -1.
<mgrwt>
<rscale>  3 0.65317307E+03</rscale>
<asrwt>0</asrwt>
<pdfrwt beam="1">  1        2 0.23063624E+00 0.65317307E+03</pdfrwt>
<pdfrwt beam="2">  1       -2 0.10945668E-01 0.65317307E+03</pdfrwt>
<totfact> 0.76528771E+02</totfact>
</mgrwt>
</event>
<event>
 4    0  0.1264838E-002  0.4975583E+03  0.7546771E-02  0.1014418E+00
         -4   -1    0    0    0  501 -0.00000000000E+00  0.00000000000E+00  0.26230470144E+03  0.26230470144E+03  0.00000000000E+00 0. -1.
          4   -1    0    0  502    0  0.00000000000E+00 -0.00000000000E+00 -0.23595101311E+03  0.23595101311E+03  0.00000000000E+00 0.  1.
         25    1    1    2    0    0 -0.16942412990E+03  0.14443959684E+03 -0.55064774856E+02  0.26119812855E+03  0.12500000000E+03 0.  0.
         21    1    1    2  502  501  0.16942412990E+03 -0.14443959684E+03  0.81418463190E+02  0.23705758599E+03  0.00000000000E+00 0. -1.
<mgrwt>
<rscale>  3 0.49755828E+03</rscale>
<asrwt>0</asrwt>
<pdfrwt beam="1">  1        4 0.36300156E-01 0.49755828E+03</pdfrwt>
<pdfrwt beam="2">  1       -4 0.40354570E-01 0.49755828E+03</pdfrwt>
<totfact> 0.86254246E+01</totfact>
</mgrwt>
</event>
<event>
 4    0  0.1264838E-002  0.4768981E+03  0.7546771E-02  0.1019991E+00
         -1   -1    0    0    0  501 -0.00000000000E+00  0.00000000000E+00  0.59465855720E+02  0.59465855720E+02  0.00000000000E+00 0. -1.
          1   -1    0    0  502    0  0.00000000000E+00 -0.00000000000E+00 -0.95614430043E+03  0.95614430043E+03  0.00000000000E+00 0.  1.
         25    1    1    2    0    0 -0.14222154616E+03  0.15713206715E+03 -0.62034520979E+03  0.66736094734E+03  0.12500000000E+03 0.  0.
         21    1    1    2  502  501  0.14222154616E+03 -0.15713206715E+03 -0.27633323492E+03  0.34824920882E+03  0.00000000000E+00 0. -1.
<mgrwt>
<rscale>  3 0.47689806E+03</rscale>
<asrwt>0</asrwt>
<pdfrwt beam="1">  1        1 0.14709912E+00 0.47689806E+03</pdfrwt>
<pdfrwt beam="2">  1       -1 0.91485936E-02 0.47689806E+03</pdfrwt>
<totfact> 0.12048887E+03</totfact>
</mgrwt>
</event>
<event>
 4    0  0.1264838E-002  0.4780112E+03  0.7546771E-02  0.1019683E+00
         -2   -1    0    0    0  501 -0.00000000000E+00  0.00000000000E+00  0.49391880794E+02  0.49391880794E+02  0.00000000000E+00 0.  1.
          2   -1    0    0  502    0  0.00000000000E+00 -0.00000000000E+00 -0.11565397367E+04  0.11565397367E+04  0.00000000000E+00 0. -1.
         25    1    1    2    0    0  0.21081958671E+03  0.65173290136E+02 -0.51634222872E+03  0.57526233411E+03  0.12500000000E+03 0.  0.
         21    1    1    2  502  501 -0.21081958671E+03 -0.65173290136E+02 -0.59080562720E+03  0.63066928340E+03  0.00000000000E+00 0.  1.
<mgrwt>
<rscale>  3 0.47801118E+03</rscale>
<asrwt>0</asrwt>
<pdfrwt beam="1">  1        2 0.17792917E+00 0.47801118E+03</pdfrwt>
<pdfrwt beam="2">  1       -2 0.75987519E-02 0.47801118E+03</pdfrwt>
<totfact> 0.21684980E+03</totfact>
</mgrwt>
</event>
<event>
 4    0  0.1264838E-002  0.6638820E+03  0.7546771E-02  0.9781074E-01
         -2   -1    0    0    0  501 -0.00000000000E+00  0.00000000000E+00  0.88217549142E+02  0.88217549142E+02  0.00000000000E+00 0. -1.
          2   -1    0    0  502    0  0.00000000000E+00 -0.00000000000E+00 -0.12490127118E+04  0.12490127118E+04  0.00000000000E+00 0.  1.
         25    1    1    2    0    0 -0.17469154048E+03  0.14542121852E+03 -0.10551717030E+04  0.10865895213E+04  0.12500000000E+03 0.  0.
         21    1    1    2  502  501  0.17469154048E+03 -0.14542121852E+03 -0.10562345967E+03  0.25064073960E+03  0.00000000000E+00 0.  1.
<mgrwt>
<rscale>  3 0.66388204E+03</rscale>
<asrwt>0</asrwt>
<pdfrwt beam="1">  1        2 0.19215580E+00 0.66388204E+03</pdfrwt>
<pdfrwt beam="2">  1       -2 0.13571931E-01 0.66388204E+03</pdfrwt>
<totfact> 0.74275123E+02</totfact>
</mgrwt>
</event>
<event>
 4    0  0.1264838E-002  0.5533731E+03  0.7546771E-02  0.1000716E+00
          1   -1    0    0  502    0  0.00000000000E+00  0.00000000000E+00  0.52818217542E+03  0.52818217542E+03  0.00000000000E+00 0.  1.
         -1   -1    0    0    0  501 -0.00000000000E+00 -0.00000000000E+00 -0.14494138446E+03  0.14494138446E+03  0.00000000000E+00 0. -1.
         25    1    1    2    0    0  0.22232689543E+03  0.10888555248E+03  0.30783786121E+03  0.41433616879E+03  0.12500000000E+03 0.  0.
         21    1    1    2  502  501 -0.22232689543E+03 -0.10888555248E+03  0.75402929748E+02  0.25878739109E+03  0.00000000000E+00 0.  1.
<mgrwt>
<rscale>  3 0.55337313E+03</rscale>
<asrwt>0</asrwt>
<pdfrwt beam="1">  1        1 0.81258795E-01 0.55337313E+03</pdfrwt>
<pdfrwt beam="2">  1       -1 0.22298675E-01 0.55337313E+03</pdfrwt>
<totfact> 0.70452020E+02</totfact>
</mgrwt>
</event>
<event>
 4    0  0.1264838E-002  0.8371824E+03  0.7546771E-02  0.9507704E-01
          2   -1    0    0  502    0  0.00000000000E+00  0.00000000000E+00  0.45007333208E+03  0.45007333208E+03  0.00000000000E+00 0.  1.
         -2   -1    0    0    0  501 -0.00000000000E+00 -0.00000000000E+00 -0.38931119670E+03  0.38931119670E+03  0.00000000000E+00 0. -1.
         25    1    1    2    0    0  0.18052656533E+03 -0.30428936605E+03  0.23729657875E+03  0.44397806857E+03  0.12500000000E+03 0.  0.
         21    1    1    2  502  501 -0.18052656533E+03  0.30428936605E+03 -0.17653444337E+03  0.39540646021E+03  0.00000000000E+00 0. -1.
<mgrwt>
<rscale>  3 0.83718239E+03</rscale>
<asrwt>0</asrwt>
<pdfrwt beam="1">  1        2 0.69242051E-01 0.83718239E+03</pdfrwt>
<pdfrwt beam="2">  1       -2 0.59894030E-01 0.83718239E+03</pdfrwt>
<totfact> 0.18192437E+02</totfact>
</mgrwt>
</event>
<event>
 4    0  0.1264838E-002  0.7493905E+03  0.7546771E-02  0.9636307E-01
          2   -1    0    0  502    0  0.00000000000E+00  0.00000000000E+00  0.10707458668E+04  0.10707458668E+04  0.00000000000E+00 0. -1.
         -2   -1    0    0    0  501 -0.00000000000E+00 -0.00000000000E+00 -0.13112029390E+03  0.13112029390E+03  0.00000000000E+00 0.  1.
         25    1    1    2    0    0 -0.14688031782E+03  0.32561715692E+03  0.59733192028E+03  0.70712854817E+03  0.12500000000E+03 0.  0.
         21    1    1    2  502  501  0.14688031782E+03 -0.32561715692E+03  0.34229365266E+03  0.49473761257E+03  0.00000000000E+00 0.  1.
<mgrwt>
<rscale>  3 0.74939045E+03</rscale>
<asrwt>0</asrwt>
<pdfrwt beam="1">  1        2 0.16473013E+00 0.74939045E+03</pdfrwt>
<pdfrwt beam="2">  1       -2 0.20172354E-01 0.74939045E+03</pdfrwt>
<totfact> 0.48064362E+02</totfact>
</mgrwt>
</event>
<event>
 4    0  0.1264838E-002  0.4622833E+03  0.7546771E-02  0.1024121E+00
          1   -1    0    0  502    0  0.00000000000E+00  0.00000000000E+00  0.21411089171E+04  0.21411089171E+04  0.00000000000E+00 0.  1.
         -1   -1    0    0    0  501 -0.00000000000E+00 -0.00000000000E+00 -0.24952711426E+02  0.24952711426E+02  0.00000000000E+00 0. -1.
         25    1    1    2    0    0  0.19073073009E+03  0.96773317226E+02  0.11940161222E+04  0.12194436380E+04  0.12500000000E+03 0.  0.
         21    1    1    2  502  501 -0.19073073009E+03 -0.96773317226E+02  0.92214008352E+03  0.94661799051E+03  0.00000000000E+00 0. -1.
<mgrwt>
<rscale>  3 0.46228335E+03</rscale>
<asrwt>0</asrwt>
<pdfrwt beam="1">  1        1 0.32940123E+00 0.46228335E+03</pdfrwt>
<pdfrwt beam="2">  1       -1 0.38388804E-02 0.46228335E+03</pdfrwt>
<totfact> 0.70012050E+02</totfact>
</mgrwt>
</event>
<event>
 4    0  0.1264838E-002  0.7646585E+03  0.7546771E-02  0.9612630E-01
          1   -1    0    0  502    0  0.00000000000E+00  0.00000000000E+00  0.36367435439E+03  0.36367435439E+03  0.00000000000E+00 0. -1.
         -1   -1    0    0    0  501 -0.00000000000E+00 -0.00000000000E+00 -0.40194101881E+03  0.40194101881E+03  0.00000000000E+00 0.  1.
         25    1    1    2    0    0 -0.29656915536E+03 -0.19667679044E+03  0.89268805514E+02  0.38759378664E+03  0.12500000000E+03 0.  0.
         21    1    1    2  502  501  0.29656915536E+03  0.19667679044E+03 -0.12753546993E+03  0.37802158655E+03  0.00000000000E+00 0. -1.
<mgrwt>
<rscale>  3 0.76465846E+03</rscale>
<asrwt>0</asrwt>
<pdfrwt beam="1">  1        1 0.55949901E-01 0.76465846E+03</pdfrwt>
<pdfrwt beam="2">  1       -1 0.61837080E-01 0.76465846E+03</pdfrwt>
<totfact> 0.18297477E+02</totfact>
</mgrwt>
</event>
<event>
 4    0  0.1264838E-002  0.5972089E+03  0.7546771E-02  0.9911214E-01
          1   -1    0    0  502    0  0.00000000000E+00  0.00000000000E+00  0.48496563382E+03  0.48496563382E+03  0.00000000000E+00 0.  1.
         -1   -1    0    0    0  501 -0.00000000000E+00 -0.00000000000E+00 -0.18385759543E+03  0.18385759543E+03  0.00000000000E+00 0. -1.
         25    1    1    2    0    0 -0.77099474564E+02 -0.22124841646E+03 -0.25599211173E+02  0.26678738796E+03  0.12500000000E+03 0.  0.
         21    1    1    2  502  501  0.77099474564E+02  0.22124841646E+03  0.32670724956E+03  0.40203584129E+03  0.00000000000E+00 0.  1.
<mgrwt>
<rscale>  3 0.59720889E+03</rscale>
<asrwt>0</asrwt>
<pdfrwt beam="1">  1        1 0.74610097E-01 0.59720889E+03</pdfrwt>
<pdfrwt beam="2">  1       -1 0.28285784E-01 0.59720889E+03</pdfrwt>
<totfact> 0.52817801E+02</totfact>
</mgrwt>
</event>
<event>
 4    0  0.1264838E-002  0.5778215E+03  0.7546771E-02  0.9952518E-01
          2   -1    0    0  502    0  0.00000000000E+00  0.00000000000E+00  0.24605122304E+04  0.24605122304E+04  0.00000000000E+00 0. -1.
         -2   -1    0    0    0  501 -0.00000000000E+00 -0.00000000000E+00 -0.33923600751E+02  0.33923600751E+02  0.00000000000E+00 0.  1.
         25    1    1    2    0    0  0.99368865448E+02 -0.24655191942E+03  0.95944150872E+03  0.10034017286E+04  0.12500000000E+03 0.  0.
         21    1    1    2  502  501 -0.99368865448E+02  0.24655191942E+03  0.14671471209E+04  0.14910341025E+04  0.00000000000E+00 0. -1.
<mgrwt>
<rscale>  3 0.57782155E+03</rscale>
<asrwt>0</asrwt>
<pdfrwt beam="1">  1        2 0.37854020E+00 0.57782155E+03</pdfrwt>
<pdfrwt beam="2">  1       -2 0.52190174E-02 0.57782155E+03</pdfrwt>
<totfact> 0.74494539E+02</totfact>
</mgrwt>
</event>
<event>
 4    0  0.1264838E-002  0.4445316E+03  0.7546771E-02  0.1029365E+00
          2   -1    0    0  502    0  0.00000000000E+00  0.00000000000E+00  0.84218300405E+03  0.84218300405E+03  0.00000000000E+00 0.  1.
         -2   -1    0    0    0  501 -0.00000000000E+00 -0.00000000000E+00 -0.58659550150E+02  0.58659550150E+02  0.00000000000E+00 0. -1.
         25    1    1    2    0    0 -0.18641318146E+03 -0.78168804660E+02  0.35744221986E+03  0.42924372655E+03  0.12500000000E+03 0.  0.
         21    1    1    2  502  501  0.18641318146E+03  0.78168804660E+02  0.42608123405E+03  0.47159882766E+03  0.00000000000E+00 0.  1.
<mgrwt>
<rscale>  3 0.44453156E+03</rscale>
<asrwt>0</asrwt>
<pdfrwt beam="1">  1        2 0.12956661E+00 0.44453156E+03</pdfrwt>
<pdfrwt beam="2">  1       -2 0.90245468E-02 0.44453156E+03</pdfrwt>
<totfact> 0.26041034E+03</totfact>
</mgrwt>
</event>
<event>
 4    0  0.1264838E-002  0.4611813E+03  0.7546771E-02  0.1024439E+00
          2   -1    0    0  502    0  0.00000000000E+00  0.00000000000E+00  0.77807543372E+03  0.77807543372E+03  0.00000000000E+00 0.  1.
         -2   -1    0    0    0  501 -0.00000000000E+00 -0.00000000000E+00 -0.68337916722E+02  0.68337916722E+02  0.00000000000E+00 0. -1.
         25    1    1    2    0    0 -0.19430360558E+03 -0.83024757835E+02  0.32291503044E+03  0.40564284592E+03  0.12500000000E+03 0.  0.
         21    1    1    2  502  501  0.19430360558E+03  0.83024757835E+02  0.38682248655E+03  0.44077050452E+03  0.00000000000E+00 0.  1.
<mgrwt>
<rscale>  3 0.46118133E+03</rscale>
<asrwt>0</asrwt>
<pdfrwt beam="1">  1        2 0.11970391E+00 0.46118133E+03</pdfrwt>
<pdfrwt beam="2">  1       -2 0.10513526E-01 0.46118133E+03</pdfrwt>
<totfact> 0.22596044E+03</totfact>
</mgrwt>
</event>
<event>
 4    0  0.1264838E-002  0.5091297E+03  0.7546771E-02  0.1011423E+00
         -2   -1    0    0    0  501 -0.00000000000E+00  0.00000000000E+00  0.13460129109E+03  0.13460129109E+03  0.00000000000E+00 0.  1.
          2   -1    0    0  502    0  0.00000000000E+00 -0.00000000000E+00 -0.48144609269E+03  0.48144609269E+03  0.00000000000E+00 0. -1.
         25    1    1    2    0    0 -0.16534497651E+03  0.16053993634E+03 -0.10626418202E+03  0.28289416537E+03  0.12500000000E+03 0.  0.
         21    1    1    2  502  501  0.16534497651E+03 -0.16053993634E+03 -0.24058061959E+03  0.33315321841E+03  0.00000000000E+00 0. -1.
<mgrwt>
<rscale>  3 0.50912971E+03</rscale>
<asrwt>0</asrwt>
<pdfrwt beam="1">  1        2 0.74068630E-01 0.50912971E+03</pdfrwt>
<pdfrwt beam="2">  1       -2 0.20707891E-01 0.50912971E+03</pdfrwt>
<totfact> 0.12917401E+03</totfact>
</mgrwt>
</event>
<event>
 4    0  0.1264838E-002  0.6229699E+03  0.7546771E-02  0.9858864E-01
          3   -1    0    0  502    0  0.00000000000E+00  0.00000000000E+00  0.90463952680E+02  0.90463952680E+02  0.00000000000E+00 0. -1.
         -3   -1    0    0    0  501 -0.00000000000E+00 -0.00000000000E+00 -0.10725030318E+04  0.10725030318E+04  0.00000000000E+00 0.  1.
         25    1    1    2    0    0  0.77790811386E+02 -0.27792536578E+03 -0.65627665807E+03  0.72774856317E+03  0.12500000000E+03 0.  0.
         21    1    1    2  502  501 -0.77790811386E+02  0.27792536578E+03 -0.32576242108E+03  0.43521842133E+03  0.00000000000E+00 0. -1.
<mgrwt>
<rscale>  3 0.62296987E+03</rscale>
<asrwt>0</asrwt>
<pdfrwt beam="1">  1        3 0.13917532E-01 0.62296987E+03</pdfrwt>
<pdfrwt beam="2">  1       -3 0.16500046E+00 0.62296987E+03</pdfrwt>
<totfact> 0.28960888E+01</totfact>
</mgrwt>
</event>
<event>
 4    0  0.1264838E-002  0.5277675E+03  0.7546771E-02  0.1006775E+00
         -1   -1    0    0    0  501 -0.00000000000E+00  0.00000000000E+00  0.18110862173E+03  0.18110862173E+03  0.00000000000E+00 0.  1.
          1   -1    0    0  502    0  0.00000000000E+00 -0.00000000000E+00 -0.38449102610E+03  0.38449102610E+03  0.00000000000E+00 0. -1.
         25    1    1    2    0    0 -0.77532074043E+02 -0.23560405715E+03 -0.13185198142E+03  0.30745802844E+03  0.12500000000E+03 0.  0.
         21    1    1    2  502  501  0.77532074043E+02  0.23560405715E+03 -0.71530422953E+02  0.25814161938E+03  0.00000000000E+00 0. -1.
<mgrwt>
<rscale>  3 0.52776752E+03</rscale>
<asrwt>0</asrwt>
<pdfrwt beam="1">  1        1 0.59152466E-01 0.52776752E+03</pdfrwt>
<pdfrwt beam="2">  1       -1 0.27862865E-01 0.52776752E+03</pdfrwt>
<totfact> 0.73933272E+02</totfact>
</mgrwt>
</event>
<event>
 4    0  0.1264838E-002  0.6020965E+03  0.7546771E-02  0.9901066E-01
         -2   -1    0    0    0  501 -0.00000000000E+00  0.00000000000E+00  0.78001221244E+02  0.78001221244E+02  0.00000000000E+00 0. -1.
          2   -1    0    0  502    0  0.00000000000E+00 -0.00000000000E+00 -0.11619054141E+04  0.11619054141E+04  0.00000000000E+00 0.  1.
         25    1    1    2    0    0 -0.20701757835E+03 -0.17095027002E+03 -0.78036519620E+03  0.83467066080E+03  0.12500000000E+03 0.  0.
         21    1    1    2  502  501  0.20701757835E+03  0.17095027002E+03 -0.30353899661E+03  0.40523597450E+03  0.00000000000E+00 0. -1.
<mgrwt>
<rscale>  3 0.60209647E+03</rscale>
<asrwt>0</asrwt>
<pdfrwt beam="1">  1        2 0.17875469E+00 0.60209647E+03</pdfrwt>
<pdfrwt beam="2">  1       -2 0.12000187E-01 0.60209647E+03</pdfrwt>
<totfact> 0.10273195E+03</totfact>
</mgrwt>
</event>
<event>
 4    0  0.1264838E-002  0.6209916E+03  0.7546771E-02  0.9862787E-01
          1   -1    0    0  502    0  0.00000000000E+00  0.00000000000E+00  0.12059226764E+04  0.12059226764E+04  0.00000000000E+00 0.  1.
         -1   -1    0    0    0  501 -0.00000000000E+00 -0.00000000000E+00 -0.79945131159E+02  0.79945131159E+02  0.00000000000E+00 0. -1.
         25    1    1    2    0    0  0.22285088539E+03 -0.44830105843E+02  0.98453765422E+03  0.10181412712E+04  0.12500000000E+03 0.  0.
         21    1    1    2  502  501 -0.22285088539E+03  0.44830105843E+02  0.14143989103E+03  0.26772653638E+03  0.00000000000E+00 0. -1.
<mgrwt>
<rscale>  3 0.62099162E+03</rscale>
<asrwt>0</asrwt>
<pdfrwt beam="1">  1        1 0.18552655E+00 0.62099162E+03</pdfrwt>
<pdfrwt beam="2">  1       -1 0.12299252E-01 0.62099162E+03</pdfrwt>
<totfact> 0.48871545E+02</totfact>
</mgrwt>
</event>
<event>
 4    0  0.1264838E-002  0.7717277E+03  0.7546771E-02  0.9601866E-01
          3   -1    0    0  502    0  0.00000000000E+00  0.00000000000E+00  0.23054190391E+04  0.23054190391E+04  0.00000000000E+00 0. -1.
         -3   -1    0    0    0  501 -0.00000000000E+00 -0.00000000000E+00 -0.64583010019E+02  0.64583010019E+02  0.00000000000E+00 0.  1.
         25    1    1    2    0    0 -0.10765153509E+02  0.33110646350E+03  0.16942918115E+04  0.17308948903E+04  0.12500000000E+03 0.  0.
         21    1    1    2  502  501  0.10765153509E+02 -0.33110646350E+03  0.54654421761E+03  0.63910715886E+03  0.00000000000E+00 0.  1.
<mgrwt>
<rscale>  3 0.77172767E+03</rscale>
<asrwt>0</asrwt>
<pdfrwt beam="1">  1        3 0.35467979E+00 0.77172767E+03</pdfrwt>
<pdfrwt beam="2">  1       -3 0.99358495E-02 0.77172767E+03</pdfrwt>
<totfact> 0.41398058E+00</totfact>
</mgrwt>
</event>
<event>
 4    0  0.1264838E-002  0.5507762E+03  0.7546771E-02  0.1001314E+00
         -1   -1    0    0    0  501 -0.00000000000E+00  0.00000000000E+00  0.23843659928E+03  0.23843659928E+03  0.00000000000E+00 0. -1.
          1   -1    0    0  502    0  0.00000000000E+00 -0.00000000000E+00 -0.31806609228E+03  0.31806609228E+03  0.00000000000E+00 0.  1.
         25    1    1    2    0    0 -0.62073648892E+02 -0.22752246665E+03 -0.15531689740E+03  0.30881701594E+03  0.12500000000E+03 0.  0.
         21    1    1    2  502  501  0.62073648892E+02  0.22752246665E+03  0.75687404397E+02  0.24768567561E+03  0.00000000000E+00 0. -1.
<mgrwt>
<rscale>  3 0.55077617E+03</rscale>
<asrwt>0</asrwt>
<pdfrwt beam="1">  1        1 0.48933245E-01 0.55077617E+03</pdfrwt>
<pdfrwt beam="2">  1       -1 0.36682554E-01 0.55077617E+03</pdfrwt>
<totfact> 0.58464201E+02</totfact>
</mgrwt>
</event>
<event>
 4    0  0.1264838E-002  0.5662683E+03  0.7546771E-02  0.9977971E-01
         -1   -1    0    0    0  501 -0.00000000000E+00  0.00000000000E+00  0.51138123667E+03  0.51138123667E+03  0.00000000000E+00 0. -1.
          1   -1    0    0  502    0  0.00000000000E+00 -0.00000000000E+00 -0.15676160535E+03  0.15676160535E+03  0.00000000000E+00 0.  1.
         25    1    1    2    0    0 -0.26359978451E+03 -0.51824990300E+02  0.20871025799E+03  0.36243019715E+03  0.12500000000E+03 0.  0.
         21    1    1    2  502  501  0.26359978451E+03  0.51824990300E+02  0.14590937333E+03  0.30571264488E+03  0.00000000000E+00 0.  1.
<mgrwt>
<rscale>  3 0.56626829E+03</rscale>
<asrwt>0</asrwt>
<pdfrwt beam="1">  1        1 0.24117170E-01 0.56626829E+03</pdfrwt>
<pdfrwt beam="2">  1       -1 0.78674035E-01 0.56626829E+03</pdfrwt>
<totfact> 0.33597285E+02</totfact>
</mgrwt>
</event>
<event>
 4    0  0.1264838E-002  0.5206234E+03  0.7546771E-02  0.1008532E+00
          2   -1    0    0  502    0  0.00000000000E+00  0.00000000000E+00  0.89768234191E+03  0.89768234191E+03  0.00000000000E+00 0. -1.
         -2   -1    0    0    0  501 -0.00000000000E+00 -0.00000000000E+00 -0.75485706791E+02  0.75485706791E+02  0.00000000000E+00 0.  1.
         25    1    1    2    0    0  0.17144969838E+03 -0.17282895461E+03  0.37840827239E+03  0.46699321970E+03  0.12500000000E+03 0.  0.
         21    1    1    2  502  501 -0.17144969838E+03  0.17282895461E+03  0.44378836272E+03  0.50617482900E+03  0.00000000000E+00 0.  1.
<mgrwt>
<rscale>  3 0.52062342E+03</rscale>
<asrwt>0</asrwt>
<pdfrwt beam="1">  1        2 0.13810497E+00 0.52062342E+03</pdfrwt>
<pdfrwt beam="2">  1       -2 0.11613186E-01 0.52062342E+03</pdfrwt>
<totfact> 0.15888483E+03</totfact>
</mgrwt>
</event>
<event>
 4    0  0.1264838E-002  0.6458001E+03  0.7546771E-02  0.9814692E-01
          1   -1    0    0  502    0  0.00000000000E+00  0.00000000000E+00  0.95230983669E+03  0.95230983669E+03  0.00000000000E+00 0.  1.
         -1   -1    0    0    0  501 -0.00000000000E+00 -0.00000000000E+00 -0.10948582393E+03  0.10948582393E+03  0.00000000000E+00 0. -1.
         25    1    1    2    0    0  0.80783794393E+02 -0.27715483895E+03  0.24789045347E+03  0.40051904213E+03  0.12500000000E+03 0.  0.
         21    1    1    2  502  501 -0.80783794393E+02  0.27715483895E+03  0.59493355929E+03  0.66127661849E+03  0.00000000000E+00 0.  1.
<mgrwt>
<rscale>  3 0.64580005E+03</rscale>
<asrwt>0</asrwt>
<pdfrwt beam="1">  1        1 0.14650920E+00 0.64580005E+03</pdfrwt>
<pdfrwt beam="2">  1       -1 0.16843974E-01 0.64580005E+03</pdfrwt>
<totfact> 0.45484669E+02</totfact>
</mgrwt>
</event>
<event>
 4    0  0.1264838E-002  0.6346013E+03  0.7546771E-02  0.9836111E-01
         -2   -1    0    0    0  501 -0.00000000000E+00  0.00000000000E+00  0.38013606725E+02  0.38013606725E+02  0.00000000000E+00 0. -1.
          2   -1    0    0  502    0  0.00000000000E+00 -0.00000000000E+00 -0.26485170873E+04  0.26485170873E+04  0.00000000000E+00 0.  1.
         25    1    1    2    0    0 -0.69961284185E+02 -0.20173423486E+03 -0.22778406509E+04  0.22912385982E+04  0.12500000000E+03 0.  0.
         21    1    1    2  502  501  0.69961284185E+02  0.20173423486E+03 -0.33266282962E+03  0.39529209581E+03  0.00000000000E+00 0. -1.
<mgrwt>
<rscale>  3 0.63460125E+03</rscale>
<asrwt>0</asrwt>
<pdfrwt beam="1">  1        2 0.40746421E+00 0.63460125E+03</pdfrwt>
<pdfrwt beam="2">  1       -2 0.58482466E-02 0.63460125E+03</pdfrwt>
<totfact> 0.48543038E+02</totfact>
</mgrwt>
</event>
<event>
 4    0  0.1264838E-002  0.6541831E+03  0.7546771E-02  0.9798961E-01
          2   -1    0    0  502    0  0.00000000000E+00  0.00000000000E+00  0.88682835435E+03  0.88682835435E+03  0.00000000000E+00 0. -1.
         -2   -1    0    0    0  501 -0.00000000000E+00 -0.00000000000E+00 -0.12064215874E+03  0.12064215874E+03  0.00000000000E+00 0.  1.
         25    1    1    2    0    0  0.87413330083E+02  0.26643892656E+03  0.61859074203E+03  0.69058692283E+03  0.12500000000E+03 0.  0.
         21    1    1    2  502  501 -0.87413330083E+02 -0.26643892656E+03  0.14759545358E+03  0.31688359027E+03  0.00000000000E+00 0.  1.
<mgrwt>
<rscale>  3 0.65418312E+03</rscale>
<asrwt>0</asrwt>
<pdfrwt beam="1">  1        2 0.13643513E+00 0.65418312E+03</pdfrwt>
<pdfrwt beam="2">  1       -2 0.18560333E-01 0.65418312E+03</pdfrwt>
<totfact> 0.73253366E+02</totfact>
</mgrwt>
</event>
<event>
 4    0  0.1264838E-002  0.6068966E+03  0.7546771E-02  0.9891200E-01
         -2   -1    0    0    0  501 -0.00000000000E+00  0.00000000000E+00  0.34478892355E+02  0.34478892355E+02  0.00000000000E+00 0.  1.
          2   -1    0    0  502    0  0.00000000000E+00 -0.00000000000E+00 -0.26706445713E+04  0.26706445713E+04  0.00000000000E+00 0. -1.
         25    1    1    2    0    0  0.14721628805E+03 -0.21919013018E+03 -0.83326415599E+03  0.88298986534E+03  0.12500000000E+03 0.  0.
         21    1    1    2  502  501 -0.14721628805E+03  0.21919013018E+03 -0.18029015230E+04  0.18221335984E+04  0.00000000000E+00 0.  1.
<mgrwt>
<rscale>  3 0.60689659E+03</rscale>
<asrwt>0</asrwt>
<pdfrwt beam="1">  1        2 0.41086863E+00 0.60689659E+03</pdfrwt>
<pdfrwt beam="2">  1       -2 0.53044419E-02 0.60689659E+03</pdfrwt>
<totfact> 0.55044571E+02</totfact>
</mgrwt>
</event>
<event>
 4    0  0.1264838E-002  0.5882290E+03  0.7546771E-02  0.9930133E-01
         -1   -1    0    0    0  501 -0.00000000000E+00  0.00000000000E+00  0.12765152446E+03  0.12765152446E+03  0.00000000000E+00 0.  1.
          1   -1    0    0  502    0  0.00000000000E+00 -0.00000000000E+00 -0.67765222738E+03  0.67765222738E+03  0.00000000000E+00 0. -1.
         25    1    1    2    0    0  0.23867078044E+03 -0.61206130737E+02 -0.10294298800E+03  0.29484265406E+03  0.12500000000E+03 0.  0.
         21    1    1    2  502  501 -0.23867078044E+03  0.61206130737E+02 -0.44705771492E+03  0.51046109778E+03  0.00000000000E+00 0. -1.
<mgrwt>
<rscale>  3 0.58822900E+03</rscale>
<asrwt>0</asrwt>
<pdfrwt beam="1">  1        1 0.10425419E+00 0.58822900E+03</pdfrwt>
<pdfrwt beam="2">  1       -1 0.19638696E-01 0.58822900E+03</pdfrwt>
<totfact> 0.60926035E+02</totfact>
</mgrwt>
</event>
<event>
 4    0  0.1264838E-002  0.6180028E+03  0.7546771E-02  0.9868744E-01
         -2   -1    0    0    0  501 -0.00000000000E+00  0.00000000000E+00  0.24490880539E+03  0.24490880539E+03  0.00000000000E+00 0.  1.
          2   -1    0    0  502    0  0.00000000000E+00 -0.00000000000E+00 -0.38986703886E+03  0.38986703886E+03  0.00000000000E+00 0. -1.
         25    1    1    2    0    0  0.19760106045E+03 -0.14634254333E+03  0.94474883570E+02  0.29156958467E+03  0.12500000000E+03 0.  0.
         21    1    1    2  502  501 -0.19760106045E+03  0.14634254333E+03 -0.23943311705E+03  0.34320625958E+03  0.00000000000E+00 0. -1.
<mgrwt>
<rscale>  3 0.61800282E+03</rscale>
<asrwt>0</asrwt>
<pdfrwt beam="1">  1        2 0.59979544E-01 0.61800282E+03</pdfrwt>
<pdfrwt beam="2">  1       -2 0.37678278E-01 0.61800282E+03</pdfrwt>
<totfact> 0.54803219E+02</totfact>
</mgrwt>
</event>
<event>
 4    0  0.1264838E-002  0.7471999E+03  0.7546771E-02  0.9639754E-01
         -2   -1    0    0    0  501 -0.00000000000E+00  0.00000000000E+00  0.34597010586E+02  0.34597010586E+02  0.00000000000E+00 0.  1.
          2   -1    0    0  502    0  0.00000000000E+00 -0.00000000000E+00 -0.40343631333E+04  0.40343631333E+04  0.00000000000E+00 0. -1.
         25    1    1    2    0    0 -0.12596358122E+03 -0.33539406821E+03 -0.17328712338E+04  0.17739288931E+04  0.12500000000E+03 0.  0.
         21    1    1    2  502  501  0.12596358122E+03  0.33539406821E+03 -0.22668948889E+04  0.22950312507E+04  0.00000000000E+00 0. -1.
<mgrwt>
<rscale>  3 0.74719985E+03</rscale>
<asrwt>0</asrwt>
<pdfrwt beam="1">  1        2 0.62067129E+00 0.74719985E+03</pdfrwt>
<pdfrwt beam="2">  1       -2 0.53226167E-02 0.74719985E+03</pdfrwt>
<totfact> 0.66335853E+01</totfact>
</mgrwt>
</event>
<event>
 4    0  0.1264838E-002  0.5427123E+03  0.7546771E-02  0.1003195E+00
         -2   -1    0    0    0  501 -0.00000000000E+00  0.00000000000E+00  0.34328252812E+02  0.34328252812E+02  0.00000000000E+00 0. -1.
          2   -1    0    0  502    0  0.00000000000E+00 -0.00000000000E+00 -0.21450014290E+04  0.21450014290E+04  0.00000000000E+00 0.  1.
         25    1    1    2    0    0 -0.25646851100E+03 -0.85657725767E+01 -0.10575352690E+04  0.10953790735E+04  0.12500000000E+03 0.  0.
         21    1    1    2  502  501  0.25646851100E+03  0.85657725767E+01 -0.10531379072E+04  0.10839506083E+04  0.00000000000E+00 0. -1.
<mgrwt>
<rscale>  3 0.54271227E+03</rscale>
<asrwt>0</asrwt>
<pdfrwt beam="1">  1        2 0.33000036E+00 0.54271227E+03</pdfrwt>
<pdfrwt beam="2">  1       -2 0.52812674E-02 0.54271227E+03</pdfrwt>
<totfact> 0.10942883E+03</totfact>
</mgrwt>
</event>
<event>
 4    0  0.1264838E-002  0.6677758E+03  0.7546771E-02  0.9773984E-01
          1   -1    0    0  502    0  0.00000000000E+00  0.00000000000E+00  0.35975568274E+04  0.35975568274E+04  0.00000000000E+00 0.  1.
         -1   -1    0    0    0  501 -0.00000000000E+00 -0.00000000000E+00 -0.30988013057E+02  0.30988013057E+02  0.00000000000E+00 0. -1.
         25    1    1    2    0    0  0.24329144634E+03  0.14076266886E+03  0.99004657791E+03  0.10367362650E+04  0.12500000000E+03 0.  0.
         21    1    1    2  502  501 -0.24329144634E+03 -0.14076266886E+03  0.25765222365E+04  0.25918085755E+04  0.00000000000E+00 0. -1.
<mgrwt>
<rscale>  3 0.66777582E+03</rscale>
<asrwt>0</asrwt>
<pdfrwt beam="1">  1        1 0.55346995E+00 0.66777582E+03</pdfrwt>
<pdfrwt beam="2">  1       -1 0.47673895E-02 0.66777582E+03</pdfrwt>
<totfact> 0.45601078E+01</totfact>
</mgrwt>
</event>
<event>
 4    0  0.1264838E-002  0.8770462E+03  0.7546771E-02  0.9454739E-01
         -2   -1    0    0    0  501 -0.00000000000E+00  0.00000000000E+00  0.11007459789E+03  0.11007459789E+03  0.00000000000E+00 0. -1.
          2   -1    0    0  502    0  0.00000000000E+00 -0.00000000000E+00 -0.17470197654E+04  0.17470197654E+04  0.00000000000E+00 0.  1.
         25    1    1    2    0    0  0.57952740661E+02  0.42187428387E+03 -0.71470321003E+03  0.84128598584E+03  0.12500000000E+03 0.  0.
         21    1    1    2  502  501 -0.57952740661E+02 -0.42187428387E+03 -0.92224195746E+03  0.10158083774E+04  0.00000000000E+00 0.  1.
<mgrwt>
<rscale>  3 0.87704617E+03</rscale>
<asrwt>0</asrwt>
<pdfrwt beam="1">  1        2 0.26877227E+00 0.87704617E+03</pdfrwt>
<pdfrwt beam="2">  1       -2 0.16934554E-01 0.87704617E+03</pdfrwt>
<totfact> 0.26539938E+02</totfact>
</mgrwt>
</event>
<event>
 4    0  0.1264838E-002  0.1113185E+04  0.7546771E-02  0.9192435E-01
          1   -1    0    0  502    0  0.00000000000E+00  0.00000000000E+00  0.15897228071E+04  0.15897228071E+04  0.00000000000E+00 0. -1.
         -1   -1    0    0    0  501 -0.00000000000E+00 -0.00000000000E+00 -0.19487388098E+03  0.19487388098E+03  0.00000000000E+00 0.  1.
         25    1    1    2    0    0  0.25805569849E+03 -0.48428545635E+03  0.65793576408E+03  0.86581153631E+03  0.12500000000E+03 0.  0.
         21    1    1    2  502  501 -0.25805569849E+03  0.48428545635E+03  0.73691316207E+03  0.91878515181E+03  0.00000000000E+00 0.  1.
<mgrwt>
<rscale>  3 0.11131854E+04</rscale>
<asrwt>0</asrwt>
<pdfrwt beam="1">  1        1 0.24457273E+00 0.11131854E+04</pdfrwt>
<pdfrwt beam="2">  1       -1 0.29980598E-01 0.11131854E+04</pdfrwt>
<totfact> 0.57689490E+01</totfact>
</mgrwt>
</event>
<event>
 4    0  0.1264838E-002  0.8333835E+03  0.7546771E-02  0.9512914E-01
          2   -1    0    0  502    0  0.00000000000E+00  0.00000000000E+00  0.26768897230E+04  0.26768897230E+04  0.00000000000E+00 0. -1.
         -2   -1    0    0    0  501 -0.00000000000E+00 -0.00000000000E+00 -0.64863341829E+02  0.64863341829E+02  0.00000000000E+00 0.  1.
         25    1    1    2    0    0 -0.27123604791E+03  0.76580768703E+02  0.23028385967E+04  0.23233863669E+04  0.12500000000E+03 0.  0.
         21    1    1    2  502  501  0.27123604791E+03 -0.76580768703E+02  0.30918778455E+03  0.41836669793E+03  0.00000000000E+00 0.  1.
<mgrwt>
<rscale>  3 0.83338350E+03</rscale>
<asrwt>0</asrwt>
<pdfrwt beam="1">  1        2 0.41182910E+00 0.83338350E+03</pdfrwt>
<pdfrwt beam="2">  1       -2 0.99789778E-02 0.83338350E+03</pdfrwt>
<totfact> 0.19537777E+02</totfact>
</mgrwt>
</event>
<event>
 4    0  0.1264838E-002  0.5439403E+03  0.7546771E-02  0.1002906E+00
         -2   -1    0    0    0  501 -0.00000000000E+00  0.00000000000E+00  0.79955636327E+02  0.79955636327E+02  0.00000000000E+00 0.  1.
          2   -1    0    0  502    0  0.00000000000E+00 -0.00000000000E+00 -0.92511003606E+03  0.92511003606E+03  0.00000000000E+00 0. -1.
         25    1    1    2    0    0 -0.73200289948E+01  0.25475457568E+03 -0.37555800970E+03  0.47076777216E+03  0.12500000000E+03 0.  0.
         21    1    1    2  502  501  0.73200289948E+01 -0.25475457568E+03 -0.46959639003E+03  0.53429790022E+03  0.00000000000E+00 0. -1.
<mgrwt>
<rscale>  3 0.54394030E+03</rscale>
<asrwt>0</asrwt>
<pdfrwt beam="1">  1        2 0.14232461E+00 0.54394030E+03</pdfrwt>
<pdfrwt beam="2">  1       -2 0.12300868E-01 0.54394030E+03</pdfrwt>
<totfact> 0.13861167E+03</totfact>
</mgrwt>
</event>
<event>
 4    0  0.1264838E-002  0.4824996E+03  0.7546771E-02  0.1018450E+00
          2   -1    0    0  502    0  0.00000000000E+00  0.00000000000E+00  0.81832706444E+02  0.81832706444E+02  0.00000000000E+00 0. -1.
         -2   -1    0    0    0  501 -0.00000000000E+00 -0.00000000000E+00 -0.71122504510E+03  0.71122504510E+03  0.00000000000E+00 0.  1.
         25    1    1    2    0    0  0.13827041043E+02  0.20658869491E+03 -0.19083087414E+03  0.30807709823E+03  0.12500000000E+03 0.  0.
         21    1    1    2  502  501 -0.13827041043E+02 -0.20658869491E+03 -0.43856146452E+03  0.48498065331E+03  0.00000000000E+00 0.  1.
<mgrwt>
<rscale>  3 0.48249962E+03</rscale>
<asrwt>0</asrwt>
<pdfrwt beam="1">  1        2 0.12589647E-01 0.48249962E+03</pdfrwt>
<pdfrwt beam="2">  1       -2 0.10941924E+00 0.48249962E+03</pdfrwt>
<totfact> 0.33500259E+02</totfact>
</mgrwt>
</event>
<event>
 4    0  0.1264838E-002  0.5689188E+03  0.7546771E-02  0.9972074E-01
         -2   -1    0    0    0  501 -0.00000000000E+00  0.00000000000E+00  0.73374674335E+03  0.73374674335E+03  0.00000000000E+00 0.  1.
          2   -1    0    0  502    0  0.00000000000E+00 -0.00000000000E+00 -0.11027938450E+03  0.11027938450E+03  0.00000000000E+00 0. -1.
         25    1    1    2    0    0  0.74968117144E+02 -0.21826224137E+03  0.53677118553E+03  0.59750056921E+03  0.12500000000E+03 0.  0.
         21    1    1    2  502  501 -0.74968117144E+02  0.21826224137E+03  0.86696173329E+02  0.24652555864E+03  0.00000000000E+00 0. -1.
<mgrwt>
<rscale>  3 0.56891876E+03</rscale>
<asrwt>0</asrwt>
<pdfrwt beam="1">  1        2 0.16966060E-01 0.56891876E+03</pdfrwt>
<pdfrwt beam="2">  1       -2 0.11288411E+00 0.56891876E+03</pdfrwt>
<totfact> 0.21602048E+02</totfact>
</mgrwt>
</event>
<event>
 4    0  0.1264838E-002  0.6754982E+03  0.7546771E-02  0.9760076E-01
          2   -1    0    0  502    0  0.00000000000E+00  0.00000000000E+00  0.11898020726E+04  0.11898020726E+04  0.00000000000E+00 0. -1.
         -2   -1    0    0    0  501 -0.00000000000E+00 -0.00000000000E+00 -0.95876823485E+02  0.95876823485E+02  0.00000000000E+00 0.  1.
         25    1    1    2    0    0  0.11096415605E+03 -0.20846076015E+03  0.13744118550E+03  0.30047298035E+03  0.12500000000E+03 0.  0.
         21    1    1    2  502  501 -0.11096415605E+03  0.20846076015E+03  0.95648406367E+03  0.98520591579E+03  0.00000000000E+00 0.  1.
<mgrwt>
<rscale>  3 0.67549817E+03</rscale>
<asrwt>0</asrwt>
<pdfrwt beam="1">  1        2 0.18304646E+00 0.67549817E+03</pdfrwt>
<pdfrwt beam="2">  1       -2 0.14750281E-01 0.67549817E+03</pdfrwt>
<totfact> 0.69932130E+02</totfact>
</mgrwt>
</event>
<event>
 4    0  0.1264838E-002  0.4932983E+03  0.7546771E-02  0.1015543E+00
         -1   -1    0    0    0  501 -0.00000000000E+00  0.00000000000E+00  0.12951601367E+03  0.12951601367E+03  0.00000000000E+00 0.  1.
          1   -1    0    0  502    0  0.00000000000E+00 -0.00000000000E+00 -0.46971642818E+03  0.46971642818E+03  0.00000000000E+00 0. -1.
         25    1    1    2    0    0 -0.21779563965E+03  0.70724882446E+02 -0.14587497107E+03  0.29890041290E+03  0.12500000000E+03 0.  0.
         21    1    1    2  502  501  0.21779563965E+03 -0.70724882446E+02 -0.19432544344E+03  0.30033202896E+03  0.00000000000E+00 0. -1.
<mgrwt>
<rscale>  3 0.49329828E+03</rscale>
<asrwt>0</asrwt>
<pdfrwt beam="1">  1        1 0.72264065E-01 0.49329828E+03</pdfrwt>
<pdfrwt beam="2">  1       -1 0.19925541E-01 0.49329828E+03</pdfrwt>
<totfact> 0.99744894E+02</totfact>
</mgrwt>
</event>
<event>
 4    0  0.1264838E-002  0.1000576E+04  0.7546771E-02  0.9307913E-01
         -1   -1    0    0    0  501 -0.00000000000E+00  0.00000000000E+00  0.87849918375E+03  0.87849918375E+03  0.00000000000E+00 0. -1.
          1   -1    0    0  502    0  0.00000000000E+00 -0.00000000000E+00 -0.28490419379E+03  0.28490419379E+03  0.00000000000E+00 0.  1.
         25    1    1    2    0    0  0.16594638701E+03  0.19905429183E+03 -0.18549865925E+03  0.34233838090E+03  0.12500000000E+03 0.  0.
         21    1    1    2  502  501 -0.16594638701E+03 -0.19905429183E+03  0.77909364921E+03  0.82106499664E+03  0.00000000000E+00 0. -1.
<mgrwt>
<rscale>  3 0.10005760E+04</rscale>
<asrwt>0</asrwt>
<pdfrwt beam="1">  1        1 0.43831415E-01 0.10005760E+04</pdfrwt>
<pdfrwt beam="2">  1       -1 0.13515372E+00 0.10005760E+04</pdfrwt>
<totfact> 0.43201630E+01</totfact>
</mgrwt>
</event>
<event>
 4    0  0.1264838E-002  0.6346198E+03  0.7546771E-02  0.9836075E-01
          2   -1    0    0  502    0  0.00000000000E+00  0.00000000000E+00  0.26087321290E+04  0.26087321290E+04  0.00000000000E+00 0.  1.
         -2   -1    0    0    0  501 -0.00000000000E+00 -0.00000000000E+00 -0.38595591680E+02  0.38595591680E+02  0.00000000000E+00 0. -1.
         25    1    1    2    0    0  0.19825934074E+03 -0.18298266101E+03  0.74152417720E+03  0.79891959908E+03  0.12500000000E+03 0.  0.
         21    1    1    2  502  501 -0.19825934074E+03  0.18298266101E+03  0.18286123601E+04  0.18484081216E+04  0.00000000000E+00 0.  1.
<mgrwt>
<rscale>  3 0.63461976E+03</rscale>
<asrwt>0</asrwt>
<pdfrwt beam="1">  1        2 0.40134326E+00 0.63461976E+03</pdfrwt>
<pdfrwt beam="2">  1       -2 0.59377854E-02 0.63461976E+03</pdfrwt>
<totfact> 0.49957847E+02</totfact>
</mgrwt>
</event>
<event>
 4    0  0.1264838E-002  0.5556697E+03  0.7546771E-02  0.1000190E+00
         -4   -1    0    0    0  501 -0.00000000000E+00  0.00000000000E+00  0.10396946056E+03  0.10396946056E+03  0.00000000000E+00 0. -1.
          4   -1    0    0  502    0  0.00000000000E+00 -0.00000000000E+00 -0.74245074902E+03  0.74245074902E+03  0.00000000000E+00 0.  1.
         25    1    1    2    0    0 -0.15042001177E+03 -0.19351307614E+03 -0.18689779800E+03  0.33260979762E+03  0.12500000000E+03 0.  0.
         21    1    1    2  502  501  0.15042001177E+03  0.19351307614E+03 -0.45158349045E+03  0.51381041195E+03  0.00000000000E+00 0.  1.
<mgrwt>
<rscale>  3 0.55566970E+03</rscale>
<asrwt>0</asrwt>
<pdfrwt beam="1">  1        4 0.11422319E+00 0.55566970E+03</pdfrwt>
<pdfrwt beam="2">  1       -4 0.15995302E-01 0.55566970E+03</pdfrwt>
<totfact> 0.40847883E+01</totfact>
</mgrwt>
</event>
<event>
 4    0  0.1309367E-002  0.6338657E+03  0.7546771E-02  0.9837534E-01
         -1   -1    0    0    0  501 -0.00000000000E+00  0.00000000000E+00  0.11294253640E+03  0.11294253640E+03  0.00000000000E+00 0. -1.
          1   -1    0    0  502    0  0.00000000000E+00 -0.00000000000E+00 -0.88935880481E+03  0.88935880481E+03  0.00000000000E+00 0.  1.
         25    1    1    2    0    0 -0.15740244300E+03  0.17958495071E+03 -0.10428723534E+03  0.28901057254E+03  0.12500000000E+03 0.  0.
         21    1    1    2  502  501  0.15740244300E+03 -0.17958495071E+03 -0.67212903307E+03  0.71329076868E+03  0.00000000000E+00 0.  1.
<mgrwt>
<rscale>  3 0.63386572E+03</rscale>
<asrwt>0</asrwt>
<pdfrwt beam="1">  1        1 0.13682443E+00 0.63386572E+03</pdfrwt>
<pdfrwt beam="2">  1       -1 0.17375775E-01 0.63386572E+03</pdfrwt>
<totfact> 0.48577497E+02</totfact>
</mgrwt>
</event>
<event>
 4    0  0.1264838E-002  0.7641241E+03  0.7546771E-02  0.9613449E-01
         -2   -1    0    0    0  501 -0.00000000000E+00  0.00000000000E+00  0.26593757763E+03  0.26593757763E+03  0.00000000000E+00 0.  1.
          2   -1    0    0  502    0  0.00000000000E+00 -0.00000000000E+00 -0.54889345305E+03  0.54889345305E+03  0.00000000000E+00 0. -1.
         25    1    1    2    0    0 -0.33730301158E+03 -0.14949761836E+03 -0.95927451049E+02  0.40118566198E+03  0.12500000000E+03 0.  0.
         21    1    1    2  502  501  0.33730301158E+03  0.14949761836E+03 -0.18702842438E+03  0.41364536869E+03  0.00000000000E+00 0. -1.
<mgrwt>
<rscale>  3 0.76412406E+03</rscale>
<asrwt>0</asrwt>
<pdfrwt beam="1">  1        2 0.84445146E-01 0.76412406E+03</pdfrwt>
<pdfrwt beam="2">  1       -2 0.40913474E-01 0.76412406E+03</pdfrwt>
<totfact> 0.31439631E+02</totfact>
</mgrwt>
</event>
<event>
 4    0  0.1264838E-002  0.5000569E+03  0.7546771E-02  0.1013764E+00
         -2   -1    0    0    0  501 -0.00000000000E+00  0.00000000000E+00  0.51257976598E+03  0.51257976598E+03  0.00000000000E+00 0. -1.
          2   -1    0    0  502    0  0.00000000000E+00 -0.00000000000E+00 -0.12196001883E+03  0.12196001883E+03  0.00000000000E+00 0.  1.
         25    1    1    2    0    0  0.23347766487E+03 -0.89573927648E+01  0.18364691314E+03  0.32240230084E+03  0.12500000000E+03 0.  0.
         21    1    1    2  502  501 -0.23347766487E+03  0.89573927648E+01  0.20697283401E+03  0.31213748397E+03  0.00000000000E+00 0. -1.
<mgrwt>
<rscale>  3 0.50005695E+03</rscale>
<asrwt>0</asrwt>
<pdfrwt beam="1">  1        2 0.18763080E-01 0.50005695E+03</pdfrwt>
<pdfrwt beam="2">  1       -2 0.78858424E-01 0.50005695E+03</pdfrwt>
<totfact> 0.44161598E+02</totfact>
</mgrwt>
</event>
<event>
 4    0  0.1264838E-002  0.4647440E+03  0.7546771E-02  0.1023414E+00
          2   -1    0    0  502    0  0.00000000000E+00  0.00000000000E+00  0.22758449066E+04  0.22758449066E+04  0.00000000000E+00 0.  1.
         -2   -1    0    0    0  501 -0.00000000000E+00 -0.00000000000E+00 -0.23726024241E+02  0.23726024241E+02  0.00000000000E+00 0. -1.
         25    1    1    2    0    0  0.20014290829E+03  0.50164497506E+02  0.15162556649E+04  0.15353272947E+04  0.12500000000E+03 0.  0.
         21    1    1    2  502  501 -0.20014290829E+03 -0.50164497506E+02  0.73586321742E+03  0.76424363609E+03  0.00000000000E+00 0. -1.
<mgrwt>
<rscale>  3 0.46474402E+03</rscale>
<asrwt>0</asrwt>
<pdfrwt beam="1">  1        2 0.35012981E+00 0.46474402E+03</pdfrwt>
<pdfrwt beam="2">  1       -2 0.36501594E-02 0.46474402E+03</pdfrwt>
<totfact> 0.16471497E+03</totfact>
</mgrwt>
</event>
<event>
 4    0  0.1264838E-002  0.4869635E+03  0.7546771E-02  0.1017239E+00
         -2   -1    0    0    0  501 -0.00000000000E+00  0.00000000000E+00  0.13846003766E+03  0.13846003766E+03  0.00000000000E+00 0.  1.
          2   -1    0    0  502    0  0.00000000000E+00 -0.00000000000E+00 -0.42816229565E+03  0.42816229565E+03  0.00000000000E+00 0. -1.
         25    1    1    2    0    0 -0.73309928379E+02  0.21052460890E+03 -0.10192713870E+03  0.27515286325E+03  0.12500000000E+03 0.  0.
         21    1    1    2  502  501  0.73309928379E+02 -0.21052460890E+03 -0.18777511930E+03  0.29146947006E+03  0.00000000000E+00 0.  1.
<mgrwt>
<rscale>  3 0.48696352E+03</rscale>
<asrwt>0</asrwt>
<pdfrwt beam="1">  1        2 0.65871121E-01 0.48696352E+03</pdfrwt>
<pdfrwt beam="2">  1       -2 0.21301545E-01 0.48696352E+03</pdfrwt>
<totfact> 0.14034671E+03</totfact>
</mgrwt>
</event>
<event>
 4    0  0.1264838E-002  0.4795666E+03  0.7546771E-02  0.1019254E+00
         -2   -1    0    0    0  501 -0.00000000000E+00  0.00000000000E+00  0.52786566782E+02  0.52786566782E+02  0.00000000000E+00 0.  1.
          2   -1    0    0  502    0  0.00000000000E+00 -0.00000000000E+00 -0.10892170564E+04  0.10892170564E+04  0.00000000000E+00 0. -1.
         25    1    1    2    0    0 -0.10671470721E+03  0.17882926863E+03 -0.74660328640E+03  0.78511744556E+03  0.12500000000E+03 0.  0.
         21    1    1    2  502  501  0.10671470721E+03 -0.17882926863E+03 -0.28982720324E+03  0.35688617764E+03  0.00000000000E+00 0. -1.
<mgrwt>
<rscale>  3 0.47956659E+03</rscale>
<asrwt>0</asrwt>
<pdfrwt beam="1">  1        2 0.16757184E+00 0.47956659E+03</pdfrwt>
<pdfrwt beam="2">  1       -2 0.81210108E-02 0.47956659E+03</pdfrwt>
<totfact> 0.21409003E+03</totfact>
</mgrwt>
</event>
<event>
 4    0  0.1264838E-002  0.5691199E+03  0.7546771E-02  0.9971628E-01
         -1   -1    0    0    0  501 -0.00000000000E+00  0.00000000000E+00  0.27476278213E+03  0.27476278213E+03  0.00000000000E+00 0. -1.
          1   -1    0    0  502    0  0.00000000000E+00 -0.00000000000E+00 -0.29470650013E+03  0.29470650013E+03  0.00000000000E+00 0.  1.
         25    1    1    2    0    0  0.29125120430E+02 -0.26848799525E+03  0.99616103321E+01  0.29775545321E+03  0.12500000000E+03 0.  0.
         21    1    1    2  502  501 -0.29125120430E+02  0.26848799525E+03 -0.29905328330E+02  0.27171382905E+03  0.00000000000E+00 0. -1.
<mgrwt>
<rscale>  3 0.56911994E+03</rscale>
<asrwt>0</asrwt>
<pdfrwt beam="1">  1        1 0.45339462E-01 0.56911994E+03</pdfrwt>
<pdfrwt beam="2">  1       -1 0.42271197E-01 0.56911994E+03</pdfrwt>
<totfact> 0.49924676E+02</totfact>
</mgrwt>
</event>
<event>
 4    0  0.1264838E-002  0.5107042E+03  0.7546771E-02  0.1011022E+00
         -1   -1    0    0    0  501 -0.00000000000E+00  0.00000000000E+00  0.60672701675E+02  0.60672701675E+02  0.00000000000E+00 0. -1.
          1   -1    0    0  502    0  0.00000000000E+00 -0.00000000000E+00 -0.10746957258E+04  0.10746957258E+04  0.00000000000E+00 0.  1.
         25    1    1    2    0    0  0.17812938345E+02  0.20976305064E+03 -0.28091930155E+03  0.37263721254E+03  0.12500000000E+03 0.  0.
         21    1    1    2  502  501 -0.17812938345E+02 -0.20976305064E+03 -0.73310372262E+03  0.76273121498E+03  0.00000000000E+00 0.  1.
<mgrwt>
<rscale>  3 0.51070419E+03</rscale>
<asrwt>0</asrwt>
<pdfrwt beam="1">  1        1 0.16533780E+00 0.51070419E+03</pdfrwt>
<pdfrwt beam="2">  1       -1 0.93342619E-02 0.51070419E+03</pdfrwt>
<totfact> 0.94767487E+02</totfact>
</mgrwt>
</event>
<event>
 4    0  0.1264838E-002  0.5975301E+03  0.7546771E-02  0.9910544E-01
         -1   -1    0    0    0  501 -0.00000000000E+00  0.00000000000E+00  0.50737555451E+03  0.50737555451E+03  0.00000000000E+00 0.  1.
          1   -1    0    0  502    0  0.00000000000E+00 -0.00000000000E+00 -0.17592598996E+03  0.17592598996E+03  0.00000000000E+00 0. -1.
         25    1    1    2    0    0 -0.22180902830E+03 -0.72647026923E+02 -0.15420077674E+02  0.26521616533E+03  0.12500000000E+03 0.  0.
         21    1    1    2  502  501  0.22180902830E+03  0.72647026923E+02  0.34686964222E+03  0.41808537914E+03  0.00000000000E+00 0.  1.
<mgrwt>
<rscale>  3 0.59753007E+03</rscale>
<asrwt>0</asrwt>
<pdfrwt beam="1">  1        1 0.27065537E-01 0.59753007E+03</pdfrwt>
<pdfrwt beam="2">  1       -1 0.78057777E-01 0.59753007E+03</pdfrwt>
<totfact> 0.29363414E+02</totfact>
</mgrwt>
</event>
<event>
 4    0  0.1264838E-002  0.4912322E+03  0.7546771E-02  0.1016093E+00
          2   -1    0    0  502    0  0.00000000000E+00  0.00000000000E+00  0.30357962780E+03  0.30357962780E+03  0.00000000000E+00 0.  1.
         -2   -1    0    0    0  501 -0.00000000000E+00 -0.00000000000E+00 -0.19871974449E+03  0.19871974449E+03  0.00000000000E+00 0. -1.
         25    1    1    2    0    0  0.50465210074E+02  0.22181051816E+03  0.88498707160E+02  0.27423286558E+03  0.12500000000E+03 0.  0.
         21    1    1    2  502  501 -0.50465210074E+02 -0.22181051816E+03  0.16361176153E+02  0.22806650671E+03  0.00000000000E+00 0.  1.
<mgrwt>
<rscale>  3 0.49123219E+03</rscale>
<asrwt>0</asrwt>
<pdfrwt beam="1">  1        2 0.46704558E-01 0.49123219E+03</pdfrwt>
<pdfrwt beam="2">  1       -2 0.30572269E-01 0.49123219E+03</pdfrwt>
<totfact> 0.10728126E+03</totfact>
</mgrwt>
</event>
<event>
 4    0  0.1264838E-002  0.6256849E+03  0.7546771E-02  0.9853506E-01
         -2   -1    0    0    0  501 -0.00000000000E+00  0.00000000000E+00  0.70475566528E+02  0.70475566528E+02  0.00000000000E+00 0.  1.
          2   -1    0    0  502    0  0.00000000000E+00 -0.00000000000E+00 -0.13887137322E+04  0.13887137322E+04  0.00000000000E+00 0. -1.
         25    1    1    2    0    0  0.14054735811E+02 -0.28148195460E+03 -0.44323999848E+03  0.53992251538E+03  0.12500000000E+03 0.  0.
         21    1    1    2  502  501 -0.14054735811E+02  0.28148195460E+03 -0.87499816716E+03  0.91926678331E+03  0.00000000000E+00 0. -1.
<mgrwt>
<rscale>  3 0.62568486E+03</rscale>
<asrwt>0</asrwt>
<pdfrwt beam="1">  1        2 0.21364825E+00 0.62568486E+03</pdfrwt>
<pdfrwt beam="2">  1       -2 0.10842396E-01 0.62568486E+03</pdfrwt>
<totfact> 0.89694961E+02</totfact>
</mgrwt>
</event>
<event>
 4    0  0.1264838E-002  0.5414248E+03  0.7546771E-02  0.1003498E+00
          1   -1    0    0  502    0  0.00000000000E+00  0.00000000000E+00  0.15918627857E+03  0.15918627857E+03  0.00000000000E+00 0. -1.
         -1   -1    0    0    0  501 -0.00000000000E+00 -0.00000000000E+00 -0.46037389164E+03  0.46037389164E+03  0.00000000000E+00 0.  1.
         25    1    1    2    0    0  0.17067117188E+03  0.18783144561E+03 -0.19942670783E+03  0.34612904048E+03  0.12500000000E+03 0.  0.
         21    1    1    2  502  501 -0.17067117188E+03 -0.18783144561E+03 -0.10176090524E+03  0.27343112973E+03  0.00000000000E+00 0. -1.
<mgrwt>
<rscale>  3 0.54142481E+03</rscale>
<asrwt>0</asrwt>
<pdfrwt beam="1">  1        1 0.24490197E-01 0.54142481E+03</pdfrwt>
<pdfrwt beam="2">  1       -1 0.70826752E-01 0.54142481E+03</pdfrwt>
<totfact> 0.40962832E+02</totfact>
</mgrwt>
</event>
<event>
 4    0  0.1264838E-002  0.5776783E+03  0.7546771E-02  0.9952830E-01
          1   -1    0    0  502    0  0.00000000000E+00  0.00000000000E+00  0.46558622520E+03  0.46558622520E+03  0.00000000000E+00 0. -1.
         -1   -1    0    0    0  501 -0.00000000000E+00 -0.00000000000E+00 -0.17918928766E+03  0.17918928766E+03  0.00000000000E+00 0.  1.
         25    1    1    2    0    0 -0.18070646068E+03  0.20759690375E+03  0.14223814449E+03  0.33407781897E+03  0.12500000000E+03 0.  0.
         21    1    1    2  502  501  0.18070646068E+03 -0.20759690375E+03  0.14415879305E+03  0.31069769390E+03  0.00000000000E+00 0.  1.
<mgrwt>
<rscale>  3 0.57767833E+03</rscale>
<asrwt>0</asrwt>
<pdfrwt beam="1">  1        1 0.71628650E-01 0.57767833E+03</pdfrwt>
<pdfrwt beam="2">  1       -1 0.27567583E-01 0.57767833E+03</pdfrwt>
<totfact> 0.58366689E+02</totfact>
</mgrwt>
</event>
<event>
 4    0  0.1264838E-002  0.5283049E+03  0.7546771E-02  0.1006644E+00
         -1   -1    0    0    0  501 -0.00000000000E+00  0.00000000000E+00  0.12820313834E+03  0.12820313834E+03  0.00000000000E+00 0. -1.
          1   -1    0    0  502    0  0.00000000000E+00 -0.00000000000E+00 -0.54426531301E+03  0.54426531301E+03  0.00000000000E+00 0.  1.
         25    1    1    2    0    0 -0.47875951760E+01 -0.22429691882E+03 -0.81110477935E+02  0.26932496819E+03  0.12500000000E+03 0.  0.
         21    1    1    2  502  501  0.47875951760E+01  0.22429691882E+03 -0.33495169674E+03  0.40314348316E+03  0.00000000000E+00 0.  1.
<mgrwt>
<rscale>  3 0.52830492E+03</rscale>
<asrwt>0</asrwt>
<pdfrwt beam="1">  1        1 0.83733126E-01 0.52830492E+03</pdfrwt>
<pdfrwt beam="2">  1       -1 0.19723560E-01 0.52830492E+03</pdfrwt>
<totfact> 0.82938222E+02</totfact>
</mgrwt>
</event>
<event>
 4    0  0.1264838E-002  0.6825888E+03  0.7546771E-02  0.9747480E-01
          2   -1    0    0  502    0  0.00000000000E+00  0.00000000000E+00  0.29904300895E+04  0.29904300895E+04  0.00000000000E+00 0.  1.
         -2   -1    0    0    0  501 -0.00000000000E+00 -0.00000000000E+00 -0.38951539563E+02  0.38951539563E+02  0.00000000000E+00 0. -1.
         25    1    1    2    0    0 -0.26789059354E+03  0.48661300259E+02  0.69889888457E+03  0.76040643284E+03  0.12500000000E+03 0.  0.
         21    1    1    2  502  501  0.26789059354E+03 -0.48661300259E+02  0.22525796654E+04  0.22689751963E+04  0.00000000000E+00 0.  1.
<mgrwt>
<rscale>  3 0.68258877E+03</rscale>
<asrwt>0</asrwt>
<pdfrwt beam="1">  1        2 0.46006599E+00 0.68258877E+03</pdfrwt>
<pdfrwt beam="2">  1       -2 0.59925469E-02 0.68258877E+03</pdfrwt>
<totfact> 0.29190144E+02</totfact>
</mgrwt>
</event>
<event>
 4    0  0.1264838E-002  0.5445642E+03  0.7546771E-02  0.1002760E+00
         -1   -1    0    0    0  501 -0.00000000000E+00  0.00000000000E+00  0.29437277109E+03  0.29437277109E+03  0.00000000000E+00 0. -1.
          1   -1    0    0  502    0  0.00000000000E+00 -0.00000000000E+00 -0.25184920750E+03  0.25184920750E+03  0.00000000000E+00 0.  1.
         25    1    1    2    0    0  0.16140431456E+02  0.25121884805E+03 -0.33997986578E+02  0.28311179106E+03  0.12500000000E+03 0.  0.
         21    1    1    2  502  501 -0.16140431456E+02 -0.25121884805E+03  0.76521550172E+02  0.26311018753E+03  0.00000000000E+00 0.  1.
<mgrwt>
<rscale>  3 0.54456423E+03</rscale>
<asrwt>0</asrwt>
<pdfrwt beam="1">  1        1 0.38746032E-01 0.54456423E+03</pdfrwt>
<pdfrwt beam="2">  1       -1 0.45288119E-01 0.54456423E+03</pdfrwt>
<totfact> 0.53861088E+02</totfact>
</mgrwt>
</event>
<event>
 4    0  0.1264838E-002  0.5062672E+03  0.7546771E-02  0.1012156E+00
         -2   -1    0    0    0  501 -0.00000000000E+00  0.00000000000E+00  0.19749936788E+03  0.19749936788E+03  0.00000000000E+00 0. -1.
          2   -1    0    0  502    0  0.00000000000E+00 -0.00000000000E+00 -0.32443959757E+03  0.32443959757E+03  0.00000000000E+00 0.  1.
         25    1    1    2    0    0  0.16160719235E+03 -0.16071256503E+03  0.22545818269E+01  0.25995287326E+03  0.12500000000E+03 0.  0.
         21    1    1    2  502  501 -0.16160719235E+03  0.16071256503E+03 -0.12919481151E+03  0.26198609219E+03  0.00000000000E+00 0.  1.
<mgrwt>
<rscale>  3 0.50626718E+03</rscale>
<asrwt>0</asrwt>
<pdfrwt beam="1">  1        2 0.49913784E-01 0.50626718E+03</pdfrwt>
<pdfrwt beam="2">  1       -2 0.30384518E-01 0.50626718E+03</pdfrwt>
<totfact> 0.10086437E+03</totfact>
</mgrwt>
</event>
<event>
 4    0  0.1264838E-002  0.6721856E+03  0.7546771E-02  0.9766018E-01
          2   -1    0    0  502    0  0.00000000000E+00  0.00000000000E+00  0.54951118315E+03  0.54951118315E+03  0.00000000000E+00 0.  1.
         -2   -1    0    0    0  501 -0.00000000000E+00 -0.00000000000E+00 -0.20556154252E+03  0.20556154252E+03  0.00000000000E+00 0. -1.
         25    1    1    2    0    0 -0.24199212381E+03 -0.90210673178E+02 -0.42724253911E+02  0.29008363520E+03  0.12500000000E+03 0.  0.
         21    1    1    2  502  501  0.24199212381E+03  0.90210673178E+02  0.38667389454E+03  0.46498909048E+03  0.00000000000E+00 0.  1.
<mgrwt>
<rscale>  3 0.67218559E+03</rscale>
<asrwt>0</asrwt>
<pdfrwt beam="1">  1        2 0.84540181E-01 0.67218559E+03</pdfrwt>
<pdfrwt beam="2">  1       -2 0.31624853E-01 0.67218559E+03</pdfrwt>
<totfact> 0.51517360E+02</totfact>
</mgrwt>
</event>
<event>
 4    0  0.1264838E-002  0.4919786E+03  0.7546771E-02  0.1015894E+00
          1   -1    0    0  502    0  0.00000000000E+00  0.00000000000E+00  0.78955603303E+03  0.78955603303E+03  0.00000000000E+00 0.  1.
         -1   -1    0    0    0  501 -0.00000000000E+00 -0.00000000000E+00 -0.76638943762E+02  0.76638943762E+02  0.00000000000E+00 0. -1.
         25    1    1    2    0    0 -0.22989480915E+03 -0.17434222951E+01  0.39669724193E+03  0.47523506242E+03  0.12500000000E+03 0.  0.
         21    1    1    2  502  501  0.22989480915E+03  0.17434222951E+01  0.31621984734E+03  0.39095991438E+03  0.00000000000E+00 0. -1.
<mgrwt>
<rscale>  3 0.49197862E+03</rscale>
<asrwt>0</asrwt>
<pdfrwt beam="1">  1        1 0.12147015E+00 0.49197862E+03</pdfrwt>
<pdfrwt beam="2">  1       -1 0.11790607E-01 0.49197862E+03</pdfrwt>
<totfact> 0.11053957E+03</totfact>
</mgrwt>
</event>
<event>
 4    0  0.1264838E-002  0.5872916E+03  0.7546771E-02  0.9932128E-01
          2   -1    0    0  502    0  0.00000000000E+00  0.00000000000E+00  0.43775183962E+03  0.43775183962E+03  0.00000000000E+00 0. -1.
         -2   -1    0    0    0  501 -0.00000000000E+00 -0.00000000000E+00 -0.19697885675E+03  0.19697885675E+03  0.00000000000E+00 0.  1.
         25    1    1    2    0    0  0.21010559617E+03  0.83566247261E+02  0.30495133503E+03  0.39968487082E+03  0.12500000000E+03 0.  0.
         21    1    1    2  502  501 -0.21010559617E+03 -0.83566247261E+02 -0.64178352166E+02  0.23504582555E+03  0.00000000000E+00 0.  1.
<mgrwt>
<rscale>  3 0.58729160E+03</rscale>
<asrwt>0</asrwt>
<pdfrwt beam="1">  1        2 0.67346437E-01 0.58729160E+03</pdfrwt>
<pdfrwt beam="2">  1       -2 0.30304439E-01 0.58729160E+03</pdfrwt>
<totfact> 0.72594523E+02</totfact>
</mgrwt>
</event>
<event>
 4    0  0.1264838E-002  0.5001455E+03  0.7546771E-02  0.1013741E+00
         -2   -1    0    0    0  501 -0.00000000000E+00  0.00000000000E+00  0.30908979449E+03  0.30908979449E+03  0.00000000000E+00 0. -1.
          2   -1    0    0  502    0  0.00000000000E+00 -0.00000000000E+00 -0.20232431436E+03  0.20232431436E+03  0.00000000000E+00 0.  1.
         25    1    1    2    0    0 -0.18398672298E+03  0.12010137678E+03  0.14036763057E+03  0.28914274441E+03  0.12500000000E+03 0.  0.
         21    1    1    2  502  501  0.18398672298E+03 -0.12010137678E+03 -0.33602150439E+02  0.22227136444E+03  0.00000000000E+00 0.  1.
<mgrwt>
<rscale>  3 0.50014550E+03</rscale>
<asrwt>0</asrwt>
<pdfrwt beam="1">  1        2 0.31126818E-01 0.50014550E+03</pdfrwt>
<pdfrwt beam="2">  1       -2 0.47552276E-01 0.50014550E+03</pdfrwt>
<totfact> 0.71909377E+02</totfact>
</mgrwt>
</event>
<event>
 4    0  0.1264838E-002  0.5184489E+03  0.7546771E-02  0.1009073E+00
          1   -1    0    0  502    0  0.00000000000E+00  0.00000000000E+00  0.33213760063E+02  0.33213760063E+02  0.00000000000E+00 0.  1.
         -1   -1    0    0    0  501 -0.00000000000E+00 -0.00000000000E+00 -0.20231767384E+04  0.20231767384E+04  0.00000000000E+00 0. -1.
         25    1    1    2    0    0  0.89015228049E+01  0.21340484535E+03 -0.15219843826E+04  0.15419735167E+04  0.12500000000E+03 0.  0.
         21    1    1    2  502  501 -0.89015228049E+01 -0.21340484535E+03 -0.46797859575E+03  0.51441698184E+03  0.00000000000E+00 0.  1.
<mgrwt>
<rscale>  3 0.51844887E+03</rscale>
<asrwt>0</asrwt>
<pdfrwt beam="1">  1        1 0.51098082E-02 0.51844887E+03</pdfrwt>
<pdfrwt beam="2">  1       -1 0.31125802E+00 0.51844887E+03</pdfrwt>
<totfact> 0.51239728E+01</totfact>
</mgrwt>
</event>
<event>
 4    0  0.1264838E-002  0.6545315E+03  0.7546771E-02  0.9798313E-01
         -2   -1    0    0    0  501 -0.00000000000E+00  0.00000000000E+00  0.25845907317E+02  0.25845907317E+02  0.00000000000E+00 0.  1.
          2   -1    0    0  502    0  0.00000000000E+00 -0.00000000000E+00 -0.41439010267E+04  0.41439010267E+04  0.00000000000E+00 0. -1.
         25    1    1    2    0    0 -0.17854874895E+03 -0.25944193727E+03 -0.22334473317E+04  0.22590045945E+04  0.12500000000E+03 0.  0.
         21    1    1    2  502  501  0.17854874895E+03  0.25944193727E+03 -0.18846077877E+04  0.19107423395E+04  0.00000000000E+00 0.  1.
<mgrwt>
<rscale>  3 0.65453153E+03</rscale>
<asrwt>0</asrwt>
<pdfrwt beam="1">  1        2 0.63752297E+00 0.65453153E+03</pdfrwt>
<pdfrwt beam="2">  1       -2 0.39762951E-02 0.65453153E+03</pdfrwt>
<totfact> 0.86282287E+01</totfact>
</mgrwt>
</event>
<event>
 4    0  0.1264838E-002  0.5833750E+03  0.7546771E-02  0.9940511E-01
         -2   -1    0    0    0  501 -0.00000000000E+00  0.00000000000E+00  0.29587878564E+02  0.29587878564E+02  0.00000000000E+00 0. -1.
          2   -1    0    0  502    0  0.00000000000E+00 -0.00000000000E+00 -0.28755559816E+04  0.28755559816E+04  0.00000000000E+00 0.  1.
         25    1    1    2    0    0  0.15362925223E+03  0.14118919162E+03 -0.57125693818E+03  0.62088310042E+03  0.12500000000E+03 0.  0.
         21    1    1    2  502  501 -0.15362925223E+03 -0.14118919162E+03 -0.22747111649E+04  0.22842607598E+04  0.00000000000E+00 0.  1.
<mgrwt>
<rscale>  3 0.58337501E+03</rscale>
<asrwt>0</asrwt>
<pdfrwt beam="1">  1        2 0.44239324E+00 0.58337501E+03</pdfrwt>
<pdfrwt beam="2">  1       -2 0.45519812E-02 0.58337501E+03</pdfrwt>
<totfact> 0.53081537E+02</totfact>
</mgrwt>
</event>
<event>
 4    0  0.1264838E-002  0.5924923E+03  0.7546771E-02  0.9921106E-01
          2   -1    0    0  502    0  0.00000000000E+00  0.00000000000E+00  0.66422180403E+03  0.66422180403E+03  0.00000000000E+00 0.  1.
         -2   -1    0    0    0  501 -0.00000000000E+00 -0.00000000000E+00 -0.13212723237E+03  0.13212723237E+03  0.00000000000E+00 0. -1.
         25    1    1    2    0    0  0.12312467773E+03  0.22051792611E+03  0.44967365800E+03  0.53067809518E+03  0.12500000000E+03 0.  0.
         21    1    1    2  502  501 -0.12312467773E+03 -0.22051792611E+03  0.82420913652E+02  0.26567094122E+03  0.00000000000E+00 0. -1.
<mgrwt>
<rscale>  3 0.59249232E+03</rscale>
<asrwt>0</asrwt>
<pdfrwt beam="1">  1        2 0.10218797E+00 0.59249232E+03</pdfrwt>
<pdfrwt beam="2">  1       -2 0.20327267E-01 0.59249232E+03</pdfrwt>
<totfact> 0.91180605E+02</totfact>
</mgrwt>
</event>
<event>
 4    0  0.1264838E-002  0.4426300E+03  0.7546771E-02  0.1029943E+00
          2   -1    0    0  502    0  0.00000000000E+00  0.00000000000E+00  0.99322322011E+03  0.99322322011E+03  0.00000000000E+00 0.  1.
         -2   -1    0    0    0  501 -0.00000000000E+00 -0.00000000000E+00 -0.49314513513E+02  0.49314513513E+02  0.00000000000E+00 0. -1.
         25    1    1    2    0    0 -0.16336142351E+02  0.20225465612E+03  0.55076333259E+03  0.60011587547E+03  0.12500000000E+03 0.  0.
         21    1    1    2  502  501  0.16336142351E+02 -0.20225465612E+03  0.39314537400E+03  0.44242185815E+03  0.00000000000E+00 0. -1.
<mgrwt>
<rscale>  3 0.44262996E+03</rscale>
<asrwt>0</asrwt>
<pdfrwt beam="1">  1        2 0.15280356E+00 0.44262996E+03</pdfrwt>
<pdfrwt beam="2">  1       -2 0.75868490E-02 0.44262996E+03</pdfrwt>
<totfact> 0.27319991E+03</totfact>
</mgrwt>
</event>
<event>
 4    0  0.1264838E-002  0.6080311E+03  0.7546771E-02  0.9888883E-01
          1   -1    0    0  502    0  0.00000000000E+00  0.00000000000E+00  0.18515661827E+04  0.18515661827E+04  0.00000000000E+00 0. -1.
         -1   -1    0    0    0  501 -0.00000000000E+00 -0.00000000000E+00 -0.49917449261E+02  0.49917449261E+02  0.00000000000E+00 0.  1.
         25    1    1    2    0    0 -0.26079567155E+03  0.11124040437E+03  0.73171002387E+03  0.79461523324E+03  0.12500000000E+03 0.  0.
         21    1    1    2  502  501  0.26079567155E+03 -0.11124040437E+03  0.10699387096E+04  0.11068683987E+04  0.00000000000E+00 0. -1.
<mgrwt>
<rscale>  3 0.60803112E+03</rscale>
<asrwt>0</asrwt>
<pdfrwt beam="1">  1        1 0.28485628E+00 0.60803112E+03</pdfrwt>
<pdfrwt beam="2">  1       -1 0.76796090E-02 0.60803112E+03</pdfrwt>
<totfact> 0.37226651E+02</totfact>
</mgrwt>
</event>
<event>
 4    0  0.1264838E-002  0.6415548E+03  0.7546771E-02  0.9822756E-01
          1   -1    0    0  502    0  0.00000000000E+00  0.00000000000E+00  0.63251399252E+03  0.63251399252E+03  0.00000000000E+00 0. -1.
         -1   -1    0    0    0  501 -0.00000000000E+00 -0.00000000000E+00 -0.16268122400E+03  0.16268122400E+03  0.00000000000E+00 0.  1.
         25    1    1    2    0    0  0.38309205543E+02  0.24917720909E+03  0.46443787036E+03  0.54303260692E+03  0.12500000000E+03 0.  0.
         21    1    1    2  502  501 -0.38309205543E+02 -0.24917720909E+03  0.53948981662E+01  0.25216260961E+03  0.00000000000E+00 0.  1.
<mgrwt>
<rscale>  3 0.64155483E+03</rscale>
<asrwt>0</asrwt>
<pdfrwt beam="1">  1        1 0.97309844E-01 0.64155483E+03</pdfrwt>
<pdfrwt beam="2">  1       -1 0.25027881E-01 0.64155483E+03</pdfrwt>
<totfact> 0.44804402E+02</totfact>
</mgrwt>
</event>
<event>
 4    0  0.1264838E-002  0.5670031E+03  0.7546771E-02  0.9976332E-01
         -2   -1    0    0    0  501 -0.00000000000E+00  0.00000000000E+00  0.20185218997E+03  0.20185218997E+03  0.00000000000E+00 0.  1.
          2   -1    0    0  502    0  0.00000000000E+00 -0.00000000000E+00 -0.39817818534E+03  0.39817818534E+03  0.00000000000E+00 0. -1.
         25    1    1    2    0    0  0.39776969466E+02 -0.26096247969E+03 -0.16153891885E+03  0.33377154673E+03  0.12500000000E+03 0.  0.
         21    1    1    2  502  501 -0.39776969466E+02  0.26096247969E+03 -0.34787076518E+02  0.26625882858E+03  0.00000000000E+00 0.  1.
<mgrwt>
<rscale>  3 0.56700313E+03</rscale>
<asrwt>0</asrwt>
<pdfrwt beam="1">  1        2 0.61258181E-01 0.56700313E+03</pdfrwt>
<pdfrwt beam="2">  1       -2 0.31054184E-01 0.56700313E+03</pdfrwt>
<totfact> 0.77183952E+02</totfact>
</mgrwt>
</event>
<event>
 4    0  0.1264838E-002  0.4490191E+03  0.7546771E-02  0.1028015E+00
         -2   -1    0    0    0  501 -0.00000000000E+00  0.00000000000E+00  0.74707184657E+02  0.74707184657E+02  0.00000000000E+00 0.  1.
          2   -1    0    0  502    0  0.00000000000E+00 -0.00000000000E+00 -0.67469460501E+03  0.67469460501E+03  0.00000000000E+00 0. -1.
         25    1    1    2    0    0 -0.14222677704E+02 -0.20653391977E+03 -0.33328652119E+03  0.41178082736E+03  0.12500000000E+03 0.  0.
         21    1    1    2  502  501  0.14222677704E+02  0.20653391977E+03 -0.26670089917E+03  0.33762096231E+03  0.00000000000E+00 0. -1.
<mgrwt>
<rscale>  3 0.44901908E+03</rscale>
<asrwt>0</asrwt>
<pdfrwt beam="1">  1        2 0.10379917E+00 0.44901908E+03</pdfrwt>
<pdfrwt beam="2">  1       -2 0.11493413E-01 0.44901908E+03</pdfrwt>
<totfact> 0.23379144E+03</totfact>
</mgrwt>
</event>
<event>
 4    0  0.1264838E-002  0.4989792E+03  0.7546771E-02  0.1014046E+00
          3   -1    0    0  502    0  0.00000000000E+00  0.00000000000E+00  0.26911425791E+04  0.26911425791E+04  0.00000000000E+00 0. -1.
         -3   -1    0    0    0  501 -0.00000000000E+00 -0.00000000000E+00 -0.23129603153E+02  0.23129603153E+02  0.00000000000E+00 0.  1.
         25    1    1    2    0    0 -0.13795853375E+02  0.22165866525E+03  0.10196684282E+04  0.10510335831E+04  0.12500000000E+03 0.  0.
         21    1    1    2  502  501  0.13795853375E+02 -0.22165866525E+03  0.16483445478E+04  0.16632385992E+04  0.00000000000E+00 0. -1.
<mgrwt>
<rscale>  3 0.49897920E+03</rscale>
<asrwt>0</asrwt>
<pdfrwt beam="1">  1        3 0.41402169E+00 0.49897920E+03</pdfrwt>
<pdfrwt beam="2">  1       -3 0.35584026E-02 0.49897920E+03</pdfrwt>
<totfact> 0.11057689E+01</totfact>
</mgrwt>
</event>
<event>
 4    0  0.1264838E-002  0.8958243E+03  0.7546771E-02  0.9430816E-01
         -2   -1    0    0    0  501 -0.00000000000E+00  0.00000000000E+00  0.24654828972E+03  0.24654828972E+03  0.00000000000E+00 0.  1.
          2   -1    0    0  502    0  0.00000000000E+00 -0.00000000000E+00 -0.81373636912E+03  0.81373636912E+03  0.00000000000E+00 0. -1.
         25    1    1    2    0    0 -0.41185717136E+03 -0.14588415890E+03 -0.34178658918E+03  0.56864012342E+03  0.12500000000E+03 0.  0.
         21    1    1    2  502  501  0.41185717136E+03  0.14588415890E+03 -0.22540149022E+03  0.49164453542E+03  0.00000000000E+00 0.  1.
<mgrwt>
<rscale>  3 0.89582434E+03</rscale>
<asrwt>0</asrwt>
<pdfrwt beam="1">  1        2 0.12519021E+00 0.89582434E+03</pdfrwt>
<pdfrwt beam="2">  1       -2 0.37930506E-01 0.89582434E+03</pdfrwt>
<totfact> 0.22136765E+02</totfact>
</mgrwt>
</event>
<event>
 4    0  0.1264838E-002  0.1043812E+04  0.7546771E-02  0.9261756E-01
          2   -1    0    0  502    0  0.00000000000E+00  0.00000000000E+00  0.13160653710E+04  0.13160653710E+04  0.00000000000E+00 0.  1.
         -2   -1    0    0    0  501 -0.00000000000E+00 -0.00000000000E+00 -0.20696974006E+03  0.20696974006E+03  0.00000000000E+00 0. -1.
         25    1    1    2    0    0  0.25540489535E+03  0.39787307016E+03  0.85828818860E+03  0.98783513565E+03  0.12500000000E+03 0.  0.
         21    1    1    2  502  501 -0.25540489535E+03 -0.39787307016E+03  0.25080744230E+03  0.53519997538E+03  0.00000000000E+00 0. -1.
<mgrwt>
<rscale>  3 0.10438117E+04</rscale>
<asrwt>0</asrwt>
<pdfrwt beam="1">  1        2 0.20247159E+00 0.10438117E+04</pdfrwt>
<pdfrwt beam="2">  1       -2 0.31841499E-01 0.10438117E+04</pdfrwt>
<totfact> 0.14758917E+02</totfact>
</mgrwt>
</event>
<event>
 4    0  0.1264838E-002  0.6771665E+03  0.7546771E-02  0.9757097E-01
         -2   -1    0    0    0  501 -0.00000000000E+00  0.00000000000E+00  0.19972720323E+03  0.19972720323E+03  0.00000000000E+00 0.  1.
          2   -1    0    0  502    0  0.00000000000E+00 -0.00000000000E+00 -0.57397601797E+03  0.57397601797E+03  0.00000000000E+00 0. -1.
         25    1    1    2    0    0 -0.19204579188E+03 -0.24894065516E+03 -0.90630895268E+02  0.35027417140E+03  0.12500000000E+03 0.  0.
         21    1    1    2  502  501  0.19204579188E+03  0.24894065516E+03 -0.28361791947E+03  0.42342904980E+03  0.00000000000E+00 0. -1.
<mgrwt>
<rscale>  3 0.67716652E+03</rscale>
<asrwt>0</asrwt>
<pdfrwt beam="1">  1        2 0.88304002E-01 0.67716652E+03</pdfrwt>
<pdfrwt beam="2">  1       -2 0.30727262E-01 0.67716652E+03</pdfrwt>
<totfact> 0.51618304E+02</totfact>
</mgrwt>
</event>
<event>
 4    0  0.1264838E-002  0.8579074E+03  0.7546771E-02  0.9479785E-01
          2   -1    0    0  502    0  0.00000000000E+00  0.00000000000E+00  0.74029460451E+03  0.74029460451E+03  0.00000000000E+00 0. -1.
         -2   -1    0    0    0  501 -0.00000000000E+00 -0.00000000000E+00 -0.24855141450E+03  0.24855141450E+03  0.00000000000E+00 0.  1.
         25    1    1    2    0    0 -0.33955755047E+03 -0.18589768908E+03  0.43842194518E+03  0.59807698744E+03  0.12500000000E+03 0.  0.
         21    1    1    2  502  501  0.33955755047E+03  0.18589768908E+03  0.53321244834E+02  0.39076903157E+03  0.00000000000E+00 0.  1.
<mgrwt>
<rscale>  3 0.85790739E+03</rscale>
<asrwt>0</asrwt>
<pdfrwt beam="1">  1        2 0.11389148E+00 0.85790739E+03</pdfrwt>
<pdfrwt beam="2">  1       -2 0.38238679E-01 0.85790739E+03</pdfrwt>
<totfact> 0.24721255E+02</totfact>
</mgrwt>
</event>
<event>
 4    0  0.1264838E-002  0.6348856E+03  0.7546771E-02  0.9835561E-01
         -1   -1    0    0    0  501 -0.00000000000E+00  0.00000000000E+00  0.13190495668E+03  0.13190495668E+03  0.00000000000E+00 0.  1.
          1   -1    0    0  502    0  0.00000000000E+00 -0.00000000000E+00 -0.76395873862E+03  0.76395873862E+03  0.00000000000E+00 0. -1.
         25    1    1    2    0    0 -0.24045804479E+03 -0.13783010068E+03 -0.14817099682E+03  0.33822603723E+03  0.12500000000E+03 0.  0.
         21    1    1    2  502  501  0.24045804479E+03  0.13783010068E+03 -0.48388278513E+03  0.55763765807E+03  0.00000000000E+00 0. -1.
<mgrwt>
<rscale>  3 0.63488564E+03</rscale>
<asrwt>0</asrwt>
<pdfrwt beam="1">  1        1 0.11753211E+00 0.63488564E+03</pdfrwt>
<pdfrwt beam="2">  1       -1 0.20293070E-01 0.63488564E+03</pdfrwt>
<totfact> 0.48012791E+02</totfact>
</mgrwt>
</event>
<event>
 4    0  0.1264838E-002  0.4564348E+03  0.7546771E-02  0.1025820E+00
          1   -1    0    0  502    0  0.00000000000E+00  0.00000000000E+00  0.14170722595E+04  0.14170722595E+04  0.00000000000E+00 0.  1.
         -1   -1    0    0    0  501 -0.00000000000E+00 -0.00000000000E+00 -0.36754079491E+02  0.36754079491E+02  0.00000000000E+00 0. -1.
         25    1    1    2    0    0 -0.86505671704E+02 -0.19243598338E+03  0.76417576787E+03  0.80256117720E+03  0.12500000000E+03 0.  0.
         21    1    1    2  502  501  0.86505671704E+02  0.19243598338E+03  0.61614241212E+03  0.65126516178E+03  0.00000000000E+00 0. -1.
<mgrwt>
<rscale>  3 0.45643482E+03</rscale>
<asrwt>0</asrwt>
<pdfrwt beam="1">  1        1 0.21801108E+00 0.45643482E+03</pdfrwt>
<pdfrwt beam="2">  1       -1 0.56544748E-02 0.45643482E+03</pdfrwt>
<totfact> 0.11790233E+03</totfact>
</mgrwt>
</event>
<event>
 4    0  0.1264838E-002  0.1186540E+04  0.7546771E-02  0.9124720E-01
          1   -1    0    0  502    0  0.00000000000E+00  0.00000000000E+00  0.74141018453E+03  0.74141018453E+03  0.00000000000E+00 0.  1.
         -1   -1    0    0    0  501 -0.00000000000E+00 -0.00000000000E+00 -0.47472942175E+03  0.47472942175E+03  0.00000000000E+00 0. -1.
         25    1    1    2    0    0  0.14804633072E+03 -0.26190934544E+03 -0.38141687875E+03  0.50161544699E+03  0.12500000000E+03 0.  0.
         21    1    1    2  502  501 -0.14804633072E+03  0.26190934544E+03  0.64809764152E+03  0.71452415929E+03  0.00000000000E+00 0.  1.
<mgrwt>
<rscale>  3 0.11865399E+04</rscale>
<asrwt>0</asrwt>
<pdfrwt beam="1">  1        1 0.11406311E+00 0.11865399E+04</pdfrwt>
<pdfrwt beam="2">  1       -1 0.73035295E-01 0.11865399E+04</pdfrwt>
<totfact> 0.46703029E+01</totfact>
</mgrwt>
</event>
<event>
 4    0  0.1264838E-002  0.5528232E+03  0.7546771E-02  0.1000843E+00
          2   -1    0    0  502    0  0.00000000000E+00  0.00000000000E+00  0.57104432331E+03  0.57104432331E+03  0.00000000000E+00 0.  1.
         -2   -1    0    0    0  501 -0.00000000000E+00 -0.00000000000E+00 -0.13379584783E+03  0.13379584783E+03  0.00000000000E+00 0. -1.
         25    1    1    2    0    0 -0.21767914441E+03 -0.92171920398E+02  0.84931481237E+02  0.28056769117E+03  0.12500000000E+03 0.  0.
         21    1    1    2  502  501  0.21767914441E+03  0.92171920398E+02  0.35231699425E+03  0.42427247997E+03  0.00000000000E+00 0.  1.
<mgrwt>
<rscale>  3 0.55282315E+03</rscale>
<asrwt>0</asrwt>
<pdfrwt beam="1">  1        2 0.87852971E-01 0.55282315E+03</pdfrwt>
<pdfrwt beam="2">  1       -2 0.20583977E-01 0.55282315E+03</pdfrwt>
<totfact> 0.10708535E+03</totfact>
</mgrwt>
</event>
<event>
 4    0  0.1264838E-002  0.4912650E+03  0.7546771E-02  0.1016084E+00
          3   -1    0    0  502    0  0.00000000000E+00  0.00000000000E+00  0.18188616841E+03  0.18188616841E+03  0.00000000000E+00 0.  1.
         -3   -1    0    0    0  501 -0.00000000000E+00 -0.00000000000E+00 -0.33172019656E+03  0.33172019656E+03  0.00000000000E+00 0. -1.
         25    1    1    2    0    0 -0.19907523283E+03  0.39434792105E+02  0.32783857553E+02  0.24059474739E+03  0.12500000000E+03 0.  0.
         21    1    1    2  502  501  0.19907523283E+03 -0.39434792105E+02 -0.18261788570E+03  0.27301161758E+03  0.00000000000E+00 0. -1.
<mgrwt>
<rscale>  3 0.49126496E+03</rscale>
<asrwt>0</asrwt>
<pdfrwt beam="1">  1        3 0.27982488E-01 0.49126496E+03</pdfrwt>
<pdfrwt beam="2">  1       -3 0.51033876E-01 0.49126496E+03</pdfrwt>
<totfact> 0.12242140E+02</totfact>
</mgrwt>
</event>
<event>
 4    0  0.1264838E-002  0.5529672E+03  0.7546771E-02  0.1000809E+00
          2   -1    0    0  502    0  0.00000000000E+00  0.00000000000E+00  0.17531189828E+03  0.17531189828E+03  0.00000000000E+00 0.  1.
         -2   -1    0    0    0  501 -0.00000000000E+00 -0.00000000000E+00 -0.43604107562E+03  0.43604107562E+03  0.00000000000E+00 0. -1.
         25    1    1    2    0    0 -0.19275616047E+03 -0.92751474745E+02  0.30908380423E+02  0.24967599293E+03  0.12500000000E+03 0.  0.
         21    1    1    2  502  501  0.19275616047E+03  0.92751474745E+02 -0.29163755777E+03  0.36167698097E+03  0.00000000000E+00 0.  1.
<mgrwt>
<rscale>  3 0.55296723E+03</rscale>
<asrwt>0</asrwt>
<pdfrwt beam="1">  1        2 0.26971062E-01 0.55296723E+03</pdfrwt>
<pdfrwt beam="2">  1       -2 0.67083241E-01 0.55296723E+03</pdfrwt>
<totfact> 0.41361382E+02</totfact>
</mgrwt>
</event>
<event>
 4    0  0.1264838E-002  0.4890945E+03  0.7546771E-02  0.1016665E+00
         -2   -1    0    0    0  501 -0.00000000000E+00  0.00000000000E+00  0.65733980351E+02  0.65733980351E+02  0.00000000000E+00 0.  1.
          2   -1    0    0  502    0  0.00000000000E+00 -0.00000000000E+00 -0.90977843852E+03  0.90977843852E+03  0.00000000000E+00 0. -1.
         25    1    1    2    0    0  0.19657757300E+03  0.10678567031E+03 -0.54314143224E+03  0.60056101855E+03  0.12500000000E+03 0.  0.
         21    1    1    2  502  501 -0.19657757300E+03 -0.10678567031E+03 -0.30090302593E+03  0.37495140032E+03  0.00000000000E+00 0.  1.
<mgrwt>
<rscale>  3 0.48909450E+03</rscale>
<asrwt>0</asrwt>
<pdfrwt beam="1">  1        2 0.13996591E+00 0.48909450E+03</pdfrwt>
<pdfrwt beam="2">  1       -2 0.10112920E-01 0.48909450E+03</pdfrwt>
<totfact> 0.19538656E+03</totfact>
</mgrwt>
</event>
<event>
 4    0  0.1264838E-002  0.6040291E+03  0.7546771E-02  0.9897082E-01
          2   -1    0    0  502    0  0.00000000000E+00  0.00000000000E+00  0.13143186276E+04  0.13143186276E+04  0.00000000000E+00 0.  1.
         -2   -1    0    0    0  501 -0.00000000000E+00 -0.00000000000E+00 -0.69399289917E+02  0.69399289917E+02  0.00000000000E+00 0. -1.
         25    1    1    2    0    0  0.18924883208E+03  0.21373950881E+03  0.75328899445E+03  0.81521102006E+03  0.12500000000E+03 0.  0.
         21    1    1    2  502  501 -0.18924883208E+03 -0.21373950881E+03  0.49163034326E+03  0.56850689748E+03  0.00000000000E+00 0.  1.
<mgrwt>
<rscale>  3 0.60402907E+03</rscale>
<asrwt>0</asrwt>
<pdfrwt beam="1">  1        2 0.20220285E+00 0.60402907E+03</pdfrwt>
<pdfrwt beam="2">  1       -2 0.10676815E-01 0.60402907E+03</pdfrwt>
<totfact> 0.10144066E+03</totfact>
</mgrwt>
</event>
<event>
 4    0  0.1264838E-002  0.4864052E+03  0.7546771E-02  0.1017390E+00
          1   -1    0    0  502    0  0.00000000000E+00  0.00000000000E+00  0.10605406439E+04  0.10605406439E+04  0.00000000000E+00 0. -1.
         -1   -1    0    0    0  501 -0.00000000000E+00 -0.00000000000E+00 -0.55771083200E+02  0.55771083200E+02  0.00000000000E+00 0.  1.
         25    1    1    2    0    0 -0.20690482668E+03 -0.93719142659E+02  0.53485960232E+03  0.59438428579E+03  0.12500000000E+03 0.  0.
         21    1    1    2  502  501  0.20690482668E+03  0.93719142659E+02  0.46990995843E+03  0.52192744135E+03  0.00000000000E+00 0.  1.
<mgrwt>
<rscale>  3 0.48640518E+03</rscale>
<asrwt>0</asrwt>
<pdfrwt beam="1">  1        1 0.16316008E+00 0.48640518E+03</pdfrwt>
<pdfrwt beam="2">  1       -1 0.85801674E-02 0.48640518E+03</pdfrwt>
<totfact> 0.11084187E+03</totfact>
</mgrwt>
</event>
<event>
 4    0  0.1264838E-002  0.1072124E+04  0.7546771E-02  0.9232796E-01
          2   -1    0    0  502    0  0.00000000000E+00  0.00000000000E+00  0.32420047958E+04  0.32420047958E+04  0.00000000000E+00 0.  1.
         -2   -1    0    0    0  501 -0.00000000000E+00 -0.00000000000E+00 -0.88637313634E+02  0.88637313634E+02  0.00000000000E+00 0. -1.
         25    1    1    2    0    0 -0.86474320217E+01 -0.40655228827E+03  0.26481395222E+04  0.26820938594E+04  0.12500000000E+03 0.  0.
         21    1    1    2  502  501  0.86474320217E+01  0.40655228827E+03  0.50522795990E+03  0.64854825005E+03  0.00000000000E+00 0. -1.
<mgrwt>
<rscale>  3 0.10721242E+04</rscale>
<asrwt>0</asrwt>
<pdfrwt beam="1">  1        2 0.49876988E+00 0.10721242E+04</pdfrwt>
<pdfrwt beam="2">  1       -2 0.13636512E-01 0.10721242E+04</pdfrwt>
<totfact> 0.51237477E+01</totfact>
</mgrwt>
</event>
<event>
 4    0  0.1264838E-002  0.4721012E+03  0.7546771E-02  0.1021329E+00
          2   -1    0    0  502    0  0.00000000000E+00  0.00000000000E+00  0.32023033662E+03  0.32023033662E+03  0.00000000000E+00 0. -1.
         -2   -1    0    0    0  501 -0.00000000000E+00 -0.00000000000E+00 -0.17399937420E+03  0.17399937420E+03  0.00000000000E+00 0.  1.
         25    1    1    2    0    0 -0.11290566277E+03 -0.18780735530E+03  0.64919414926E+02  0.26049725876E+03  0.12500000000E+03 0.  0.
         21    1    1    2  502  501  0.11290566277E+03  0.18780735530E+03  0.81311547488E+02  0.23373245205E+03  0.00000000000E+00 0. -1.
<mgrwt>
<rscale>  3 0.47210117E+03</rscale>
<asrwt>0</asrwt>
<pdfrwt beam="1">  1        2 0.49266205E-01 0.47210117E+03</pdfrwt>
<pdfrwt beam="2">  1       -2 0.26769135E-01 0.47210117E+03</pdfrwt>
<totfact> 0.12893379E+03</totfact>
</mgrwt>
</event>
<event>
 4    0  0.1264838E-002  0.6494851E+03  0.7546771E-02  0.9807746E-01
          1   -1    0    0  502    0  0.00000000000E+00  0.00000000000E+00  0.77290668729E+03  0.77290668729E+03  0.00000000000E+00 0.  1.
         -1   -1    0    0    0  501 -0.00000000000E+00 -0.00000000000E+00 -0.13644301897E+03  0.13644301897E+03  0.00000000000E+00 0. -1.
         25    1    1    2    0    0 -0.15175050946E+03  0.21324147383E+03  0.56963758610E+03  0.63922775501E+03  0.12500000000E+03 0.  0.
         21    1    1    2  502  501  0.15175050946E+03 -0.21324147383E+03  0.66826082231E+02  0.27012195125E+03  0.00000000000E+00 0. -1.
<mgrwt>
<rscale>  3 0.64948509E+03</rscale>
<asrwt>0</asrwt>
<pdfrwt beam="1">  1        1 0.11890872E+00 0.64948509E+03</pdfrwt>
<pdfrwt beam="2">  1       -1 0.20991234E-01 0.64948509E+03</pdfrwt>
<totfact> 0.44536566E+02</totfact>
</mgrwt>
</event>
<event>
 4    0  0.1264838E-002  0.6650434E+03  0.7546771E-02  0.9778954E-01
          2   -1    0    0  502    0  0.00000000000E+00  0.00000000000E+00  0.44422103793E+03  0.44422103793E+03  0.00000000000E+00 0. -1.
         -2   -1    0    0    0  501 -0.00000000000E+00 -0.00000000000E+00 -0.24890914498E+03  0.24890914498E+03  0.00000000000E+00 0.  1.
         25    1    1    2    0    0 -0.15150763834E+03  0.28115054470E+03  0.69908760070E+02  0.35001775383E+03  0.12500000000E+03 0.  0.
         21    1    1    2  502  501  0.15150763834E+03 -0.28115054470E+03  0.12540313288E+03  0.34311242909E+03  0.00000000000E+00 0. -1.
<mgrwt>
<rscale>  3 0.66504339E+03</rscale>
<asrwt>0</asrwt>
<pdfrwt beam="1">  1        2 0.68341698E-01 0.66504339E+03</pdfrwt>
<pdfrwt beam="2">  1       -2 0.38293715E-01 0.66504339E+03</pdfrwt>
<totfact> 0.45812131E+02</totfact>
</mgrwt>
</event>
<event>
 4    0  0.1272563E-002  0.6895713E+03  0.7546771E-02  0.9735235E-01
         -3   -1    0    0    0  501 -0.00000000000E+00  0.00000000000E+00  0.31722951392E+03  0.31722951392E+03  0.00000000000E+00 0. -1.
          3   -1    0    0  502    0  0.00000000000E+00 -0.00000000000E+00 -0.37473546155E+03  0.37473546155E+03  0.00000000000E+00 0.  1.
         25    1    1    2    0    0 -0.25114364488E+03  0.31744684162E+02  0.18810899536E+03  0.33925042295E+03  0.12500000000E+03 0.  0.
         21    1    1    2  502  501  0.25114364488E+03 -0.31744684162E+02 -0.24561494299E+03  0.35271455251E+03  0.00000000000E+00 0.  1.
<mgrwt>
<rscale>  3 0.68957131E+03</rscale>
<asrwt>0</asrwt>
<pdfrwt beam="1">  1        3 0.57651609E-01 0.68957131E+03</pdfrwt>
<pdfrwt beam="2">  1       -3 0.48804541E-01 0.68957131E+03</pdfrwt>
<totfact> 0.32444036E+01</totfact>
</mgrwt>
</event>
<event>
 4    0  0.1264838E-002  0.6375488E+03  0.7546771E-02  0.9830428E-01
          2   -1    0    0  502    0  0.00000000000E+00  0.00000000000E+00  0.11959721818E+04  0.11959721818E+04  0.00000000000E+00 0. -1.
         -2   -1    0    0    0  501 -0.00000000000E+00 -0.00000000000E+00 -0.84966126205E+02  0.84966126205E+02  0.00000000000E+00 0.  1.
         25    1    1    2    0    0 -0.20081935135E+03 -0.22652189860E+03  0.48020406032E+03  0.58125856722E+03  0.12500000000E+03 0.  0.
         21    1    1    2  502  501  0.20081935135E+03  0.22652189860E+03  0.63080199530E+03  0.69967974081E+03  0.00000000000E+00 0.  1.
<mgrwt>
<rscale>  3 0.63754882E+03</rscale>
<asrwt>0</asrwt>
<pdfrwt beam="1">  1        2 0.18399571E+00 0.63754882E+03</pdfrwt>
<pdfrwt beam="2">  1       -2 0.13071713E-01 0.63754882E+03</pdfrwt>
<totfact> 0.85021498E+02</totfact>
</mgrwt>
</event>
<event>
 4    0  0.1264838E-002  0.5527807E+03  0.7546771E-02  0.1000852E+00
         -1   -1    0    0    0  501 -0.00000000000E+00  0.00000000000E+00  0.14958368205E+03  0.14958368205E+03  0.00000000000E+00 0. -1.
          1   -1    0    0  502    0  0.00000000000E+00 -0.00000000000E+00 -0.51069483450E+03  0.51069483450E+03  0.00000000000E+00 0.  1.
         25    1    1    2    0    0 -0.23471456625E+03  0.21326133030E+02 -0.52382245637E+02  0.27187245395E+03  0.12500000000E+03 0.  0.
         21    1    1    2  502  501  0.23471456625E+03 -0.21326133030E+02 -0.30872890681E+03  0.38840606260E+03  0.00000000000E+00 0.  1.
<mgrwt>
<rscale>  3 0.55278066E+03</rscale>
<asrwt>0</asrwt>
<pdfrwt beam="1">  1        1 0.78568434E-01 0.55278066E+03</pdfrwt>
<pdfrwt beam="2">  1       -1 0.23012875E-01 0.55278066E+03</pdfrwt>
<totfact> 0.69988932E+02</totfact>
</mgrwt>
</event>
<event>
 4    0  0.1264838E-002  0.5864133E+03  0.7546771E-02  0.9934002E-01
          2   -1    0    0  502    0  0.00000000000E+00  0.00000000000E+00  0.44160039287E+03  0.44160039287E+03  0.00000000000E+00 0. -1.
         -2   -1    0    0    0  501 -0.00000000000E+00 -0.00000000000E+00 -0.19467856194E+03  0.19467856194E+03  0.00000000000E+00 0.  1.
         25    1    1    2    0    0 -0.11162072994E+03  0.25623506771E+03  0.14514680786E+03  0.33883357730E+03  0.12500000000E+03 0.  0.
         21    1    1    2  502  501  0.11162072994E+03 -0.25623506771E+03  0.10177502308E+03  0.29744537751E+03  0.00000000000E+00 0.  1.
<mgrwt>
<rscale>  3 0.58641327E+03</rscale>
<asrwt>0</asrwt>
<pdfrwt beam="1">  1        2 0.67938522E-01 0.58641327E+03</pdfrwt>
<pdfrwt beam="2">  1       -2 0.29950548E-01 0.58641327E+03</pdfrwt>
<totfact> 0.73459198E+02</totfact>
</mgrwt>
</event>
<event>
 4    0  0.1264838E-002  0.6989816E+03  0.7546771E-02  0.9718975E-01
         -1   -1    0    0    0  501 -0.00000000000E+00  0.00000000000E+00  0.47374340532E+03  0.47374340532E+03  0.00000000000E+00 0.  1.
          1   -1    0    0  502    0  0.00000000000E+00 -0.00000000000E+00 -0.25782696304E+03  0.25782696304E+03  0.00000000000E+00 0. -1.
         25    1    1    2    0    0 -0.26716949571E+03  0.14355767190E+03 -0.45470658270E+02  0.33118110659E+03  0.12500000000E+03 0.  0.
         21    1    1    2  502  501  0.26716949571E+03 -0.14355767190E+03  0.26138710055E+03  0.40038926176E+03  0.00000000000E+00 0.  1.
<mgrwt>
<rscale>  3 0.69898161E+03</rscale>
<asrwt>0</asrwt>
<pdfrwt beam="1">  1        1 0.39665687E-01 0.69898161E+03</pdfrwt>
<pdfrwt beam="2">  1       -1 0.72883601E-01 0.69898161E+03</pdfrwt>
<totfact> 0.20574587E+02</totfact>
</mgrwt>
</event>
<event>
 4    0  0.1264838E-002  0.5100653E+03  0.7546771E-02  0.1011185E+00
         -2   -1    0    0    0  501 -0.00000000000E+00  0.00000000000E+00  0.13379493926E+03  0.13379493926E+03  0.00000000000E+00 0. -1.
          2   -1    0    0  502    0  0.00000000000E+00 -0.00000000000E+00 -0.48612930340E+03  0.48612930340E+03  0.00000000000E+00 0.  1.
         25    1    1    2    0    0  0.11041433192E+03 -0.21159690719E+03 -0.15959330068E+03  0.31314469092E+03  0.12500000000E+03 0.  0.
         21    1    1    2  502  501 -0.11041433192E+03  0.21159690719E+03 -0.19274106346E+03  0.30677955175E+03  0.00000000000E+00 0. -1.
<mgrwt>
<rscale>  3 0.51006525E+03</rscale>
<asrwt>0</asrwt>
<pdfrwt beam="1">  1        2 0.74789122E-01 0.51006525E+03</pdfrwt>
<pdfrwt beam="2">  1       -2 0.20583837E-01 0.51006525E+03</pdfrwt>
<totfact> 0.12910168E+03</totfact>
</mgrwt>
</event>
<event>
 4    0  0.1425029E-002  0.7494586E+03  0.7546771E-02  0.9636200E-01
         -2   -1    0    0    0  501 -0.00000000000E+00  0.00000000000E+00  0.13408706237E+03  0.13408706237E+03  0.00000000000E+00 0.  1.
          2   -1    0    0  502    0  0.00000000000E+00 -0.00000000000E+00 -0.10472453921E+04  0.10472453921E+04  0.00000000000E+00 0. -1.
         25    1    1    2    0    0 -0.20628968426E+03  0.15166863348E+03 -0.60793548941E+02  0.29134114678E+03  0.12500000000E+03 0.  0.
         21    1    1    2  502  501  0.20628968426E+03 -0.15166863348E+03 -0.85236478083E+03  0.88999130772E+03  0.00000000000E+00 0. -1.
<mgrwt>
<rscale>  3 0.74945863E+03</rscale>
<asrwt>0</asrwt>
<pdfrwt beam="1">  1        2 0.16111468E+00 0.74945863E+03</pdfrwt>
<pdfrwt beam="2">  1       -2 0.20628778E-01 0.74945863E+03</pdfrwt>
<totfact> 0.47795105E+02</totfact>
</mgrwt>
</event>
<event>
 4    0  0.1264838E-002  0.8101894E+03  0.7546771E-02  0.9545384E-01
          2   -1    0    0  502    0  0.00000000000E+00  0.00000000000E+00  0.15932142685E+04  0.15932142685E+04  0.00000000000E+00 0.  1.
         -2   -1    0    0    0  501 -0.00000000000E+00 -0.00000000000E+00 -0.10300041106E+03  0.10300041106E+03  0.00000000000E+00 0. -1.
         25    1    1    2    0    0 -0.28941241022E+03 -0.26794723476E+03  0.82304831057E+03  0.92118878919E+03  0.12500000000E+03 0.  0.
         21    1    1    2  502  501  0.28941241022E+03  0.26794723476E+03  0.66716554691E+03  0.77502589040E+03  0.00000000000E+00 0.  1.
<mgrwt>
<rscale>  3 0.81018942E+03</rscale>
<asrwt>0</asrwt>
<pdfrwt beam="1">  1        2 0.24510987E+00 0.81018942E+03</pdfrwt>
<pdfrwt beam="2">  1       -2 0.15846218E-01 0.81018942E+03</pdfrwt>
<totfact> 0.36289731E+02</totfact>
</mgrwt>
</event>
<event>
 4    0  0.1264838E-002  0.7471698E+03  0.7546771E-02  0.9639801E-01
         -2   -1    0    0    0  501 -0.00000000000E+00  0.00000000000E+00  0.22513661742E+03  0.22513661742E+03  0.00000000000E+00 0.  1.
          2   -1    0    0  502    0  0.00000000000E+00 -0.00000000000E+00 -0.61991541311E+03  0.61991541311E+03  0.00000000000E+00 0. -1.
         25    1    1    2    0    0  0.24543366333E+03  0.19030709519E+03  0.99071838699E+01  0.33492928487E+03  0.12500000000E+03 0.  0.
         21    1    1    2  502  501 -0.24543366333E+03 -0.19030709519E+03 -0.40468597956E+03  0.51012274565E+03  0.00000000000E+00 0. -1.
<mgrwt>
<rscale>  3 0.74716975E+03</rscale>
<asrwt>0</asrwt>
<pdfrwt beam="1">  1        2 0.95371600E-01 0.74716975E+03</pdfrwt>
<pdfrwt beam="2">  1       -2 0.34636403E-01 0.74716975E+03</pdfrwt>
<totfact> 0.37486589E+02</totfact>
</mgrwt>
</event>
<event>
 4    0  0.1264838E-002  0.6397834E+03  0.7546771E-02  0.9826141E-01
          1   -1    0    0  502    0  0.00000000000E+00  0.00000000000E+00  0.29152761329E+03  0.29152761329E+03  0.00000000000E+00 0. -1.
         -1   -1    0    0    0  501 -0.00000000000E+00 -0.00000000000E+00 -0.35101548961E+03  0.35101548961E+03  0.00000000000E+00 0.  1.
         25    1    1    2    0    0 -0.21925601786E+03  0.19119493406E+03 -0.13150442045E+03  0.34285145001E+03  0.12500000000E+03 0.  0.
         21    1    1    2  502  501  0.21925601786E+03 -0.19119493406E+03  0.72016544134E+02  0.29969165288E+03  0.00000000000E+00 0. -1.
<mgrwt>
<rscale>  3 0.63978343E+03</rscale>
<asrwt>0</asrwt>
<pdfrwt beam="1">  1        1 0.44850402E-01 0.63978343E+03</pdfrwt>
<pdfrwt beam="2">  1       -1 0.54002383E-01 0.63978343E+03</pdfrwt>
<totfact> 0.31949095E+02</totfact>
</mgrwt>
</event>
<event>
 4    0  0.1264838E-002  0.5842867E+03  0.7546771E-02  0.9938553E-01
         -1   -1    0    0    0  501 -0.00000000000E+00  0.00000000000E+00  0.12943649268E+04  0.12943649268E+04  0.00000000000E+00 0. -1.
          1   -1    0    0  502    0  0.00000000000E+00 -0.00000000000E+00 -0.65937932646E+02  0.65937932646E+02  0.00000000000E+00 0.  1.
         25    1    1    2    0    0 -0.23394528368E+03 -0.15073077237E+03  0.68014370817E+03  0.74543317961E+03  0.12500000000E+03 0.  0.
         21    1    1    2  502  501  0.23394528368E+03  0.15073077237E+03  0.54828328594E+03  0.61486967980E+03  0.00000000000E+00 0. -1.
<mgrwt>
<rscale>  3 0.58428674E+03</rscale>
<asrwt>0</asrwt>
<pdfrwt beam="1">  1        1 0.10144298E-01 0.58428674E+03</pdfrwt>
<pdfrwt beam="2">  1       -1 0.19913305E+00 0.58428674E+03</pdfrwt>
<totfact> 0.10369714E+02</totfact>
</mgrwt>
</event>
<event>
 4    0  0.1264838E-002  0.4532762E+03  0.7546771E-02  0.1026750E+00
         -2   -1    0    0    0  501 -0.00000000000E+00  0.00000000000E+00  0.42127238117E+02  0.42127238117E+02  0.00000000000E+00 0.  1.
          2   -1    0    0  502    0  0.00000000000E+00 -0.00000000000E+00 -0.12192783620E+04  0.12192783620E+04  0.00000000000E+00 0. -1.
         25    1    1    2    0    0  0.20333785181E+03 -0.34583408337E+02 -0.53272493326E+03  0.58477615258E+03  0.12500000000E+03 0.  0.
         21    1    1    2  502  501 -0.20333785181E+03  0.34583408337E+02 -0.64442619061E+03  0.67662944752E+03  0.00000000000E+00 0. -1.
<mgrwt>
<rscale>  3 0.45327621E+03</rscale>
<asrwt>0</asrwt>
<pdfrwt beam="1">  1        2 0.18758128E+00 0.45327621E+03</pdfrwt>
<pdfrwt beam="2">  1       -2 0.64811139E-02 0.45327621E+03</pdfrwt>
<totfact> 0.25601368E+03</totfact>
</mgrwt>
</event>
<event>
 4    0  0.1264838E-002  0.4992595E+03  0.7546771E-02  0.1013972E+00
         -2   -1    0    0    0  501 -0.00000000000E+00  0.00000000000E+00  0.75482777946E+03  0.75482777946E+03  0.00000000000E+00 0. -1.
          2   -1    0    0  502    0  0.00000000000E+00 -0.00000000000E+00 -0.82555278435E+02  0.82555278435E+02  0.00000000000E+00 0.  1.
         25    1    1    2    0    0 -0.19133209272E+03  0.12579197713E+03  0.27649337450E+03  0.38013836606E+03  0.12500000000E+03 0.  0.
         21    1    1    2  502  501  0.19133209272E+03 -0.12579197713E+03  0.39577912653E+03  0.45724469184E+03  0.00000000000E+00 0.  1.
<mgrwt>
<rscale>  3 0.49925952E+03</rscale>
<asrwt>0</asrwt>
<pdfrwt beam="1">  1        2 0.12700813E-01 0.49925952E+03</pdfrwt>
<pdfrwt beam="2">  1       -2 0.11612735E+00 0.49925952E+03</pdfrwt>
<totfact> 0.28699155E+02</totfact>
</mgrwt>
</event>
<event>
 4    0  0.1264838E-002  0.5332021E+03  0.7546771E-02  0.1005459E+00
          1   -1    0    0  502    0  0.00000000000E+00  0.00000000000E+00  0.63160674933E+03  0.63160674933E+03  0.00000000000E+00 0. -1.
         -1   -1    0    0    0  501 -0.00000000000E+00 -0.00000000000E+00 -0.11253221712E+03  0.11253221712E+03  0.00000000000E+00 0.  1.
         25    1    1    2    0    0  0.96663197547E+02 -0.22510065371E+03  0.35594294411E+03  0.44981602630E+03  0.12500000000E+03 0.  0.
         21    1    1    2  502  501 -0.96663197547E+02  0.22510065371E+03  0.16313158810E+03  0.29432294015E+03  0.00000000000E+00 0.  1.
<mgrwt>
<rscale>  3 0.53320205E+03</rscale>
<asrwt>0</asrwt>
<pdfrwt beam="1">  1        1 0.97170267E-01 0.53320205E+03</pdfrwt>
<pdfrwt beam="2">  1       -1 0.17312649E-01 0.53320205E+03</pdfrwt>
<totfact> 0.83228247E+02</totfact>
</mgrwt>
</event>
<event>
 4    0  0.1264838E-002  0.4970041E+03  0.7546771E-02  0.1014564E+00
         -1   -1    0    0    0  501 -0.00000000000E+00  0.00000000000E+00  0.51970387976E+03  0.51970387976E+03  0.00000000000E+00 0.  1.
          1   -1    0    0  502    0  0.00000000000E+00 -0.00000000000E+00 -0.11882394238E+03  0.11882394238E+03  0.00000000000E+00 0. -1.
         25    1    1    2    0    0 -0.20720438738E+03  0.77273610993E+02  0.11973770593E+03  0.28083266784E+03  0.12500000000E+03 0.  0.
         21    1    1    2  502  501  0.20720438738E+03 -0.77273610993E+02  0.28114223145E+03  0.35769515430E+03  0.00000000000E+00 0.  1.
<mgrwt>
<rscale>  3 0.49700408E+03</rscale>
<asrwt>0</asrwt>
<pdfrwt beam="1">  1        1 0.18280607E-01 0.49700408E+03</pdfrwt>
<pdfrwt beam="2">  1       -1 0.79954442E-01 0.49700408E+03</pdfrwt>
<totfact> 0.46810082E+02</totfact>
</mgrwt>
</event>
<event>
 4    0  0.1264838E-002  0.4745585E+03  0.7546771E-02  0.1020641E+00
         -2   -1    0    0    0  501 -0.00000000000E+00  0.00000000000E+00  0.18416790035E+03  0.18416790035E+03  0.00000000000E+00 0.  1.
          2   -1    0    0  502    0  0.00000000000E+00 -0.00000000000E+00 -0.30570710045E+03  0.30570710045E+03  0.00000000000E+00 0. -1.
         25    1    1    2    0    0 -0.20213964938E+03 -0.88795266906E+02 -0.60998936467E+02  0.26094234521E+03  0.12500000000E+03 0.  0.
         21    1    1    2  502  501  0.20213964938E+03  0.88795266906E+02 -0.60540263627E+02  0.22893265559E+03  0.00000000000E+00 0. -1.
<mgrwt>
<rscale>  3 0.47455847E+03</rscale>
<asrwt>0</asrwt>
<pdfrwt beam="1">  1        2 0.47031861E-01 0.47455847E+03</pdfrwt>
<pdfrwt beam="2">  1       -2 0.28333524E-01 0.47455847E+03</pdfrwt>
<totfact> 0.12238818E+03</totfact>
</mgrwt>
</event>
<event>
 4    0  0.1264838E-002  0.6230136E+03  0.7546771E-02  0.9858778E-01
          2   -1    0    0  502    0  0.00000000000E+00  0.00000000000E+00  0.26415603576E+04  0.26415603576E+04  0.00000000000E+00 0.  1.
         -2   -1    0    0    0  501 -0.00000000000E+00 -0.00000000000E+00 -0.36734533207E+02  0.36734533207E+02  0.00000000000E+00 0. -1.
         25    1    1    2    0    0 -0.14685067842E+03  0.21684008400E+03  0.19747910660E+04  0.19959983713E+04  0.12500000000E+03 0.  0.
         21    1    1    2  502  501  0.14685067842E+03 -0.21684008400E+03  0.63003475841E+03  0.68229651955E+03  0.00000000000E+00 0.  1.
<mgrwt>
<rscale>  3 0.62301360E+03</rscale>
<asrwt>0</asrwt>
<pdfrwt beam="1">  1        2 0.40639375E+00 0.62301360E+03</pdfrwt>
<pdfrwt beam="2">  1       -2 0.56514687E-02 0.62301360E+03</pdfrwt>
<totfact> 0.51743410E+02</totfact>
</mgrwt>
</event>
<event>
 4    0  0.1264838E-002  0.5025082E+03  0.7546771E-02  0.1013126E+00
         -2   -1    0    0    0  501 -0.00000000000E+00  0.00000000000E+00  0.33160689486E+03  0.33160689486E+03  0.00000000000E+00 0.  1.
          2   -1    0    0  502    0  0.00000000000E+00 -0.00000000000E+00 -0.19037184676E+03  0.19037184676E+03  0.00000000000E+00 0. -1.
         25    1    1    2    0    0  0.16073879465E+03 -0.15797403598E+03  0.14669132822E+03  0.29654021975E+03  0.12500000000E+03 0.  0.
         21    1    1    2  502  501 -0.16073879465E+03  0.15797403598E+03 -0.54562801222E+01  0.22543852187E+03  0.00000000000E+00 0.  1.
<mgrwt>
<rscale>  3 0.50250818E+03</rscale>
<asrwt>0</asrwt>
<pdfrwt beam="1">  1        2 0.29287976E-01 0.50250818E+03</pdfrwt>
<pdfrwt beam="2">  1       -2 0.51016445E-01 0.50250818E+03</pdfrwt>
<totfact> 0.66810908E+02</totfact>
</mgrwt>
</event>
<event>
 4    0  0.1264838E-002  0.5131420E+03  0.7546771E-02  0.1010404E+00
         -2   -1    0    0    0  501 -0.00000000000E+00  0.00000000000E+00  0.83178663000E+02  0.83178663000E+02  0.00000000000E+00 0. -1.
          2   -1    0    0  502    0  0.00000000000E+00 -0.00000000000E+00 -0.79141300669E+03  0.79141300669E+03  0.00000000000E+00 0.  1.
         25    1    1    2    0    0 -0.19042443275E+02  0.24052467738E+03 -0.38495627964E+03  0.47120173207E+03  0.12500000000E+03 0.  0.
         21    1    1    2  502  501  0.19042443275E+02 -0.24052467738E+03 -0.32327806405E+03  0.40338993762E+03  0.00000000000E+00 0.  1.
<mgrwt>
<rscale>  3 0.51314199E+03</rscale>
<asrwt>0</asrwt>
<pdfrwt beam="1">  1        2 0.12175585E+00 0.51314199E+03</pdfrwt>
<pdfrwt beam="2">  1       -2 0.12796717E-01 0.51314199E+03</pdfrwt>
<totfact> 0.16031255E+03</totfact>
</mgrwt>
</event>
<event>
 4    0  0.1264838E-002  0.5251724E+03  0.7546771E-02  0.1007410E+00
          2   -1    0    0  502    0  0.00000000000E+00  0.00000000000E+00  0.13238348397E+04  0.13238348397E+04  0.00000000000E+00 0. -1.
         -2   -1    0    0    0  501 -0.00000000000E+00 -0.00000000000E+00 -0.52084677604E+02  0.52084677604E+02  0.00000000000E+00 0.  1.
         25    1    1    2    0    0 -0.14334479754E+03 -0.20202021460E+03  0.67357658329E+03  0.72848494264E+03  0.12500000000E+03 0.  0.
         21    1    1    2  502  501  0.14334479754E+03  0.20202021460E+03  0.59817357876E+03  0.64743457463E+03  0.00000000000E+00 0.  1.
<mgrwt>
<rscale>  3 0.52517239E+03</rscale>
<asrwt>0</asrwt>
<pdfrwt beam="1">  1        2 0.20366687E+00 0.52517239E+03</pdfrwt>
<pdfrwt beam="2">  1       -2 0.80130283E-02 0.52517239E+03</pdfrwt>
<totfact> 0.15945071E+03</totfact>
</mgrwt>
</event>
<event>
 4    0  0.1264838E-002  0.7560169E+03  0.7546771E-02  0.9625958E-01
          2   -1    0    0  502    0  0.00000000000E+00  0.00000000000E+00  0.56774226327E+03  0.56774226327E+03  0.00000000000E+00 0. -1.
         -2   -1    0    0    0  501 -0.00000000000E+00 -0.00000000000E+00 -0.25168176411E+03  0.25168176411E+03  0.00000000000E+00 0.  1.
         25    1    1    2    0    0 -0.10922359527E+03  0.23422673898E+03  0.44580405966E+03  0.53024354652E+03  0.12500000000E+03 0.  0.
         21    1    1    2  502  501  0.10922359527E+03 -0.23422673898E+03 -0.12974356050E+03  0.28918048086E+03  0.00000000000E+00 0.  1.
<mgrwt>
<rscale>  3 0.75601686E+03</rscale>
<asrwt>0</asrwt>
<pdfrwt beam="1">  1        2 0.87344963E-01 0.75601686E+03</pdfrwt>
<pdfrwt beam="2">  1       -2 0.38720272E-01 0.75601686E+03</pdfrwt>
<totfact> 0.33636791E+02</totfact>
</mgrwt>
</event>
<event>
 4    0  0.1264838E-002  0.5446046E+03  0.7546771E-02  0.1002751E+00
          2   -1    0    0  502    0  0.00000000000E+00  0.00000000000E+00  0.86415694280E+03  0.86415694280E+03  0.00000000000E+00 0.  1.
         -2   -1    0    0    0  501 -0.00000000000E+00 -0.00000000000E+00 -0.85804484662E+02  0.85804484662E+02  0.00000000000E+00 0. -1.
         25    1    1    2    0    0  0.20005410368E+03 -0.80289504281E+02  0.16254074699E+03  0.29751057684E+03  0.12500000000E+03 0.  0.
         21    1    1    2  502  501 -0.20005410368E+03  0.80289504281E+02  0.61581171115E+03  0.65245085063E+03  0.00000000000E+00 0. -1.
<mgrwt>
<rscale>  3 0.54460459E+03</rscale>
<asrwt>0</asrwt>
<pdfrwt beam="1">  1        2 0.13294722E+00 0.54460459E+03</pdfrwt>
<pdfrwt beam="2">  1       -2 0.13200691E-01 0.54460459E+03</pdfrwt>
<totfact> 0.13545490E+03</totfact>
</mgrwt>
</event>
<event>
 4    0  0.1264838E-002  0.4872807E+03  0.7546771E-02  0.1017153E+00
         -2   -1    0    0    0  501 -0.00000000000E+00  0.00000000000E+00  0.31335396463E+02  0.31335396463E+02  0.00000000000E+00 0.  1.
          2   -1    0    0  502    0  0.00000000000E+00 -0.00000000000E+00 -0.18943629184E+04  0.18943629184E+04  0.00000000000E+00 0. -1.
         25    1    1    2    0    0  0.99455099711E+02  0.20471575212E+03 -0.98370625437E+03  0.10174000447E+04  0.12500000000E+03 0.  0.
         21    1    1    2  502  501 -0.99455099711E+02 -0.20471575212E+03 -0.87932126760E+03  0.90829827021E+03  0.00000000000E+00 0.  1.
<mgrwt>
<rscale>  3 0.48728067E+03</rscale>
<asrwt>0</asrwt>
<pdfrwt beam="1">  1        2 0.29144041E+00 0.48728067E+03</pdfrwt>
<pdfrwt beam="2">  1       -2 0.48208309E-02 0.48728067E+03</pdfrwt>
<totfact> 0.17262161E+03</totfact>
</mgrwt>
</event>
<event>
 4    0  0.1264838E-002  0.4863644E+03  0.7546771E-02  0.1017401E+00
         -2   -1    0    0    0  501 -0.00000000000E+00  0.00000000000E+00  0.23951148843E+02  0.23951148843E+02  0.00000000000E+00 0.  1.
          2   -1    0    0  502    0  0.00000000000E+00 -0.00000000000E+00 -0.24690917982E+04  0.24690917982E+04  0.00000000000E+00 0. -1.
         25    1    1    2    0    0 -0.69613049340E+02  0.21613747330E+03 -0.13272161387E+04  0.13522903027E+04  0.12500000000E+03 0.  0.
         21    1    1    2  502  501  0.69613049340E+02 -0.21613747330E+03 -0.11179245106E+04  0.11407526443E+04  0.00000000000E+00 0.  1.
<mgrwt>
<rscale>  3 0.48636441E+03</rscale>
<asrwt>0</asrwt>
<pdfrwt beam="1">  1        2 0.37986033E+00 0.48636441E+03</pdfrwt>
<pdfrwt beam="2">  1       -2 0.36847916E-02 0.48636441E+03</pdfrwt>
<totfact> 0.12684039E+03</totfact>
</mgrwt>
</event>
<event>
 4    0  0.1264838E-002  0.6406829E+03  0.7546771E-02  0.9824421E-01
         -2   -1    0    0    0  501 -0.00000000000E+00  0.00000000000E+00  0.92182308872E+03  0.92182308872E+03  0.00000000000E+00 0. -1.
          2   -1    0    0  502    0  0.00000000000E+00 -0.00000000000E+00 -0.11132142276E+03  0.11132142276E+03  0.00000000000E+00 0.  1.
         25    1    1    2    0    0 -0.16641650694E+03  0.18332626259E+03  0.12486036239E+03  0.30416785239E+03  0.12500000000E+03 0.  0.
         21    1    1    2  502  501  0.16641650694E+03 -0.18332626259E+03  0.68564130357E+03  0.72897665909E+03  0.00000000000E+00 0. -1.
<mgrwt>
<rscale>  3 0.64068294E+03</rscale>
<asrwt>0</asrwt>
<pdfrwt beam="1">  1        2 0.17126373E-01 0.64068294E+03</pdfrwt>
<pdfrwt beam="2">  1       -2 0.14181893E+00 0.64068294E+03</pdfrwt>
<totfact> 0.12037502E+02</totfact>
</mgrwt>
</event>
<event>
 4    0  0.1264838E-002  0.6291521E+03  0.7546771E-02  0.9846705E-01
          1   -1    0    0  502    0  0.00000000000E+00  0.00000000000E+00  0.17678045133E+04  0.17678045133E+04  0.00000000000E+00 0.  1.
         -1   -1    0    0    0  501 -0.00000000000E+00 -0.00000000000E+00 -0.55977968740E+02  0.55977968740E+02  0.00000000000E+00 0. -1.
         25    1    1    2    0    0  0.14900206704E+03 -0.17891936958E+03  0.14479415295E+04  0.14718605333E+04  0.12500000000E+03 0.  0.
         21    1    1    2  502  501 -0.14900206704E+03  0.17891936958E+03  0.26388501506E+03  0.35192194868E+03  0.00000000000E+00 0. -1.
<mgrwt>
<rscale>  3 0.62915215E+03</rscale>
<asrwt>0</asrwt>
<pdfrwt beam="1">  1        1 0.27196988E+00 0.62915215E+03</pdfrwt>
<pdfrwt beam="2">  1       -1 0.86119965E-02 0.62915215E+03</pdfrwt>
<totfact> 0.35338909E+02</totfact>
</mgrwt>
</event>
<event>
 4    0  0.1264838E-002  0.5082249E+03  0.7546771E-02  0.1011654E+00
         -1   -1    0    0    0  501 -0.00000000000E+00  0.00000000000E+00  0.56162821493E+02  0.56162821493E+02  0.00000000000E+00 0. -1.
          1   -1    0    0  502    0  0.00000000000E+00 -0.00000000000E+00 -0.11497489118E+04  0.11497489118E+04  0.00000000000E+00 0.  1.
         25    1    1    2    0    0 -0.11451627722E+03  0.20920288600E+03 -0.55419159809E+03  0.61614377596E+03  0.12500000000E+03 0.  0.
         21    1    1    2  502  501  0.11451627722E+03 -0.20920288600E+03 -0.53939449217E+03  0.58976795729E+03  0.00000000000E+00 0. -1.
<mgrwt>
<rscale>  3 0.50822492E+03</rscale>
<asrwt>0</asrwt>
<pdfrwt beam="1">  1        1 0.17688445E+00 0.50822492E+03</pdfrwt>
<pdfrwt beam="2">  1       -1 0.86404342E-02 0.50822492E+03</pdfrwt>
<totfact> 0.94189173E+02</totfact>
</mgrwt>
</event>
<event>
 4    0  0.1264838E-002  0.5650676E+03  0.7546771E-02  0.9980653E-01
         -4   -1    0    0    0  501 -0.00000000000E+00  0.00000000000E+00  0.22458625911E+03  0.22458625911E+03  0.00000000000E+00 0.  1.
          4   -1    0    0  502    0  0.00000000000E+00 -0.00000000000E+00 -0.35543295168E+03  0.35543295168E+03  0.00000000000E+00 0. -1.
         25    1    1    2    0    0 -0.22187996287E+03 -0.10799906960E+03  0.40535158637E+02  0.27957577871E+03  0.12500000000E+03 0.  0.
         21    1    1    2  502  501  0.22187996287E+03  0.10799906960E+03 -0.17138185120E+03  0.30044343208E+03  0.00000000000E+00 0. -1.
<mgrwt>
<rscale>  3 0.56506763E+03</rscale>
<asrwt>0</asrwt>
<pdfrwt beam="1">  1        4 0.54681992E-01 0.56506763E+03</pdfrwt>
<pdfrwt beam="2">  1       -4 0.34551733E-01 0.56506763E+03</pdfrwt>
<totfact> 0.51244482E+01</totfact>
</mgrwt>
</event>
<event>
 4    0  0.1264838E-002  0.7301748E+03  0.7546771E-02  0.9666977E-01
          1   -1    0    0  502    0  0.00000000000E+00  0.00000000000E+00  0.11271808351E+04  0.11271808351E+04  0.00000000000E+00 0.  1.
         -1   -1    0    0    0  501 -0.00000000000E+00 -0.00000000000E+00 -0.11824972264E+03  0.11824972264E+03  0.00000000000E+00 0. -1.
         25    1    1    2    0    0 -0.12114420674E+03  0.33071327670E+03  0.58626312580E+03  0.69525293446E+03  0.12500000000E+03 0.  0.
         21    1    1    2  502  501  0.12114420674E+03 -0.33071327670E+03  0.42266798670E+03  0.55017762331E+03  0.00000000000E+00 0. -1.
<mgrwt>
<rscale>  3 0.73017483E+03</rscale>
<asrwt>0</asrwt>
<pdfrwt beam="1">  1        1 0.17341243E+00 0.73017483E+03</pdfrwt>
<pdfrwt beam="2">  1       -1 0.18192266E-01 0.73017483E+03</pdfrwt>
<totfact> 0.29356902E+02</totfact>
</mgrwt>
</event>
<event>
 4    0  0.1264838E-002  0.5195543E+03  0.7546771E-02  0.1008797E+00
         -2   -1    0    0    0  501 -0.00000000000E+00  0.00000000000E+00  0.12308463994E+03  0.12308463994E+03  0.00000000000E+00 0.  1.
          2   -1    0    0  502    0  0.00000000000E+00 -0.00000000000E+00 -0.54827455315E+03  0.54827455315E+03  0.00000000000E+00 0. -1.
         25    1    1    2    0    0  0.70779608290E+02 -0.21199109443E+03 -0.35378142557E+03  0.43673364210E+03  0.12500000000E+03 0.  0.
         21    1    1    2  502  501 -0.70779608290E+02  0.21199109443E+03 -0.71408487639E+02  0.23462555098E+03  0.00000000000E+00 0.  1.
<mgrwt>
<rscale>  3 0.51955433E+03</rscale>
<asrwt>0</asrwt>
<pdfrwt beam="1">  1        2 0.84349933E-01 0.51955433E+03</pdfrwt>
<pdfrwt beam="2">  1       -2 0.18936098E-01 0.51955433E+03</pdfrwt>
<totfact> 0.12986112E+03</totfact>
</mgrwt>
</event>
<event>
 4    0  0.1264838E-002  0.5398407E+03  0.7546771E-02  0.1003873E+00
          1   -1    0    0  502    0  0.00000000000E+00  0.00000000000E+00  0.47621222509E+03  0.47621222509E+03  0.00000000000E+00 0.  1.
         -1   -1    0    0    0  501 -0.00000000000E+00 -0.00000000000E+00 -0.15299270925E+03  0.15299270925E+03  0.00000000000E+00 0. -1.
         25    1    1    2    0    0 -0.13794735539E+03  0.21065088261E+03  0.12013379962E+03  0.30571293236E+03  0.12500000000E+03 0.  0.
         21    1    1    2  502  501  0.13794735539E+03 -0.21065088261E+03  0.20308571622E+03  0.32349200197E+03  0.00000000000E+00 0.  1.
<mgrwt>
<rscale>  3 0.53984071E+03</rscale>
<asrwt>0</asrwt>
<pdfrwt beam="1">  1        1 0.73263419E-01 0.53984071E+03</pdfrwt>
<pdfrwt beam="2">  1       -1 0.23537340E-01 0.53984071E+03</pdfrwt>
<totfact> 0.74122093E+02</totfact>
</mgrwt>
</event>
<event>
 4    0  0.1264838E-002  0.5979900E+03  0.7546771E-02  0.9909585E-01
          2   -1    0    0  502    0  0.00000000000E+00  0.00000000000E+00  0.16328096141E+04  0.16328096141E+04  0.00000000000E+00 0.  1.
         -2   -1    0    0    0  501 -0.00000000000E+00 -0.00000000000E+00 -0.54751032652E+02  0.54751032652E+02  0.00000000000E+00 0. -1.
         25    1    1    2    0    0  0.60532350071E+02  0.20291801318E+03  0.13657248056E+04  0.13876848094E+04  0.12500000000E+03 0.  0.
         21    1    1    2  502  501 -0.60532350071E+02 -0.20291801318E+03  0.21233377577E+03  0.29987583732E+03  0.00000000000E+00 0. -1.
<mgrwt>
<rscale>  3 0.59799001E+03</rscale>
<asrwt>0</asrwt>
<pdfrwt beam="1">  1        2 0.25120144E+00 0.59799001E+03</pdfrwt>
<pdfrwt beam="2">  1       -2 0.84232370E-02 0.59799001E+03</pdfrwt>
<totfact> 0.99002288E+02</totfact>
</mgrwt>
</event>
<event>
 4    0  0.1264838E-002  0.4598038E+03  0.7546771E-02  0.1024838E+00
         -2   -1    0    0    0  501 -0.00000000000E+00  0.00000000000E+00  0.27963638915E+03  0.27963638915E+03  0.00000000000E+00 0. -1.
          2   -1    0    0  502    0  0.00000000000E+00 -0.00000000000E+00 -0.18901293524E+03  0.18901293524E+03  0.00000000000E+00 0.  1.
         25    1    1    2    0    0  0.20203113069E+03 -0.32852399499E+02 -0.11077853351E+02  0.24009076774E+03  0.12500000000E+03 0.  0.
         21    1    1    2  502  501 -0.20203113069E+03  0.32852399499E+02  0.10170130726E+03  0.22855855665E+03  0.00000000000E+00 0. -1.
<mgrwt>
<rscale>  3 0.45980385E+03</rscale>
<asrwt>0</asrwt>
<pdfrwt beam="1">  1        2 0.29078913E-01 0.45980385E+03</pdfrwt>
<pdfrwt beam="2">  1       -2 0.43020983E-01 0.45980385E+03</pdfrwt>
<totfact> 0.94597186E+02</totfact>
</mgrwt>
</event>
<event>
 4    0  0.1264838E-002  0.4756010E+03  0.7546771E-02  0.1020351E+00
         -2   -1    0    0    0  501 -0.00000000000E+00  0.00000000000E+00  0.10745083426E+03  0.10745083426E+03  0.00000000000E+00 0. -1.
          2   -1    0    0  502    0  0.00000000000E+00 -0.00000000000E+00 -0.52627857556E+03  0.52627857556E+03  0.00000000000E+00 0.  1.
         25    1    1    2    0    0  0.77686085555E+02  0.20694790789E+03 -0.20789868557E+03  0.32819114542E+03  0.12500000000E+03 0.  0.
         21    1    1    2  502  501 -0.77686085555E+02 -0.20694790789E+03 -0.21092905572E+03  0.30553826440E+03  0.00000000000E+00 0.  1.
<mgrwt>
<rscale>  3 0.47560098E+03</rscale>
<asrwt>0</asrwt>
<pdfrwt beam="1">  1        2 0.80965934E-01 0.47560098E+03</pdfrwt>
<pdfrwt beam="2">  1       -2 0.16530898E-01 0.47560098E+03</pdfrwt>
<totfact> 0.17175015E+03</totfact>
</mgrwt>
</event>
<event>
 4    0  0.1264838E-002  0.5443549E+03  0.7546771E-02  0.1002809E+00
         -1   -1    0    0    0  501 -0.00000000000E+00  0.00000000000E+00  0.40331264797E+03  0.40331264797E+03  0.00000000000E+00 0.  1.
          1   -1    0    0  502    0  0.00000000000E+00 -0.00000000000E+00 -0.18368027250E+03  0.18368027250E+03  0.00000000000E+00 0. -1.
         25    1    1    2    0    0  0.14827846371E+03  0.18029030281E+03 -0.24341787477E+01  0.26480562931E+03  0.12500000000E+03 0.  0.
         21    1    1    2  502  501 -0.14827846371E+03 -0.18029030281E+03  0.22206655421E+03  0.32218729116E+03  0.00000000000E+00 0.  1.
<mgrwt>
<rscale>  3 0.54435495E+03</rscale>
<asrwt>0</asrwt>
<pdfrwt beam="1">  1        1 0.28258504E-01 0.54435495E+03</pdfrwt>
<pdfrwt beam="2">  1       -1 0.62048099E-01 0.54435495E+03</pdfrwt>
<totfact> 0.44360209E+02</totfact>
</mgrwt>
</event>
<event>
 4    0  0.1264838E-002  0.8022936E+03  0.7546771E-02  0.9556703E-01
          1   -1    0    0  502    0  0.00000000000E+00  0.00000000000E+00  0.21003251016E+04  0.21003251016E+04  0.00000000000E+00 0. -1.
         -1   -1    0    0    0  501 -0.00000000000E+00 -0.00000000000E+00 -0.76616112311E+02  0.76616112311E+02  0.00000000000E+00 0.  1.
         25    1    1    2    0    0 -0.89700535177E+02 -0.25788066568E+03  0.17973903697E+04  0.18223023253E+04  0.12500000000E+03 0.  0.
         21    1    1    2  502  501  0.89700535177E+02  0.25788066568E+03  0.22631861963E+03  0.35463888864E+03  0.00000000000E+00 0.  1.
<mgrwt>
<rscale>  3 0.80229357E+03</rscale>
<asrwt>0</asrwt>
<pdfrwt beam="1">  1        1 0.32312689E+00 0.80229357E+03</pdfrwt>
<pdfrwt beam="2">  1       -1 0.11787096E-01 0.80229357E+03</pdfrwt>
<totfact> 0.12703801E+02</totfact>
</mgrwt>
</event>
<event>
 4    0  0.1264838E-002  0.1094372E+04  0.7546771E-02  0.9210695E-01
         -1   -1    0    0    0  501 -0.00000000000E+00  0.00000000000E+00  0.11894452114E+03  0.11894452114E+03  0.00000000000E+00 0.  1.
          1   -1    0    0  502    0  0.00000000000E+00 -0.00000000000E+00 -0.25172429019E+04  0.25172429019E+04  0.00000000000E+00 0. -1.
         25    1    1    2    0    0  0.64434077947E+02  0.50894641484E+03 -0.16212599134E+04  0.17050768049E+04  0.12500000000E+03 0.  0.
         21    1    1    2  502  501 -0.64434077947E+02 -0.50894641484E+03 -0.77703846736E+03  0.93111061821E+03  0.00000000000E+00 0. -1.
<mgrwt>
<rscale>  3 0.10943715E+04</rscale>
<asrwt>0</asrwt>
<pdfrwt beam="1">  1        1 0.38726812E+00 0.10943715E+04</pdfrwt>
<pdfrwt beam="2">  1       -1 0.18299158E-01 0.10943715E+04</pdfrwt>
<totfact> 0.31459245E+01</totfact>
</mgrwt>
</event>
<event>
 4    0  0.1264838E-002  0.5791372E+03  0.7546771E-02  0.9949661E-01
          1   -1    0    0  502    0  0.00000000000E+00  0.00000000000E+00  0.64207158863E+03  0.64207158863E+03  0.00000000000E+00 0. -1.
         -1   -1    0    0    0  501 -0.00000000000E+00 -0.00000000000E+00 -0.13059286617E+03  0.13059286617E+03  0.00000000000E+00 0.  1.
         25    1    1    2    0    0 -0.25756595728E+03  0.19312157956E+02  0.39773445125E+03  0.49043947181E+03  0.12500000000E+03 0.  0.
         21    1    1    2  502  501  0.25756595728E+03 -0.19312157956E+02  0.11374427121E+03  0.28222498300E+03  0.00000000000E+00 0.  1.
<mgrwt>
<rscale>  3 0.57913718E+03</rscale>
<asrwt>0</asrwt>
<pdfrwt beam="1">  1        1 0.98780242E-01 0.57913718E+03</pdfrwt>
<pdfrwt beam="2">  1       -1 0.20091211E-01 0.57913718E+03</pdfrwt>
<totfact> 0.63529582E+02</totfact>
</mgrwt>
</event>
<event>
 4    0  0.1331873E-002  0.5765096E+03  0.7546771E-02  0.9955376E-01
         -1   -1    0    0    0  501 -0.00000000000E+00  0.00000000000E+00  0.15147553243E+03  0.15147553243E+03  0.00000000000E+00 0.  1.
          1   -1    0    0  502    0  0.00000000000E+00 -0.00000000000E+00 -0.54854298095E+03  0.54854298095E+03  0.00000000000E+00 0. -1.
         25    1    1    2    0    0  0.12711417814E+03  0.18786045585E+03 -0.19709938215E+02  0.25973649497E+03  0.12500000000E+03 0.  0.
         21    1    1    2  502  501 -0.12711417814E+03 -0.18786045585E+03 -0.37735751031E+03  0.44028201842E+03  0.00000000000E+00 0. -1.
<mgrwt>
<rscale>  3 0.57650964E+03</rscale>
<asrwt>0</asrwt>
<pdfrwt beam="1">  1        1 0.84391230E-01 0.57650964E+03</pdfrwt>
<pdfrwt beam="2">  1       -1 0.23303928E-01 0.57650964E+03</pdfrwt>
<totfact> 0.62046234E+02</totfact>
</mgrwt>
</event>
<event>
 4    0  0.1264838E-002  0.4464600E+03  0.7546771E-02  0.1028783E+00
         -1   -1    0    0    0  501 -0.00000000000E+00  0.00000000000E+00  0.25450762879E+02  0.25450762879E+02  0.00000000000E+00 0.  1.
          1   -1    0    0  502    0  0.00000000000E+00 -0.00000000000E+00 -0.19579619280E+04  0.19579619280E+04  0.00000000000E+00 0. -1.
         25    1    1    2    0    0  0.12752758913E+03  0.16012010096E+03 -0.95056530508E+03  0.98035765511E+03  0.12500000000E+03 0.  0.
         21    1    1    2  502  501 -0.12752758913E+03 -0.16012010096E+03 -0.98194586000E+03  0.10030550357E+04  0.00000000000E+00 0. -1.
<mgrwt>
<rscale>  3 0.44645996E+03</rscale>
<asrwt>0</asrwt>
<pdfrwt beam="1">  1        1 0.30122487E+00 0.44645996E+03</pdfrwt>
<pdfrwt beam="2">  1       -1 0.39155025E-02 0.44645996E+03</pdfrwt>
<totfact> 0.89876226E+02</totfact>
</mgrwt>
</event>
<event>
 4    0  0.1264838E-002  0.4686650E+03  0.7546771E-02  0.1022298E+00
         -2   -1    0    0    0  501 -0.00000000000E+00  0.00000000000E+00  0.63426195258E+02  0.63426195258E+02  0.00000000000E+00 0.  1.
          2   -1    0    0  502    0  0.00000000000E+00 -0.00000000000E+00 -0.86575769990E+03  0.86575769990E+03  0.00000000000E+00 0. -1.
         25    1    1    2    0    0 -0.20304735022E+03 -0.38561642582E+02 -0.56507243543E+03  0.61452996997E+03  0.12500000000E+03 0.  0.
         21    1    1    2  502  501  0.20304735022E+03  0.38561642582E+02 -0.23725906922E+03  0.31465392519E+03  0.00000000000E+00 0.  1.
<mgrwt>
<rscale>  3 0.46866498E+03</rscale>
<asrwt>0</asrwt>
<pdfrwt beam="1">  1        2 0.13319348E+00 0.46866498E+03</pdfrwt>
<pdfrwt beam="2">  1       -2 0.97578772E-02 0.46866498E+03</pdfrwt>
<totfact> 0.22145478E+03</totfact>
</mgrwt>
</event>
<event>
 4    0  0.1264838E-002  0.5360386E+03  0.7546771E-02  0.1004778E+00
          1   -1    0    0  502    0  0.00000000000E+00  0.00000000000E+00  0.12117202950E+04  0.12117202950E+04  0.00000000000E+00 0.  1.
         -1   -1    0    0    0  501 -0.00000000000E+00 -0.00000000000E+00 -0.59282943832E+02  0.59282943832E+02  0.00000000000E+00 0. -1.
         25    1    1    2    0    0 -0.11465047656E+03  0.21955155669E+03  0.48015913475E+03  0.55454973853E+03  0.12500000000E+03 0.  0.
         21    1    1    2  502  501  0.11465047656E+03 -0.21955155669E+03  0.67227821641E+03  0.71645350029E+03  0.00000000000E+00 0.  1.
<mgrwt>
<rscale>  3 0.53603860E+03</rscale>
<asrwt>0</asrwt>
<pdfrwt beam="1">  1        1 0.18641849E+00 0.53603860E+03</pdfrwt>
<pdfrwt beam="2">  1       -1 0.91204538E-02 0.53603860E+03</pdfrwt>
<totfact> 0.78014092E+02</totfact>
</mgrwt>
</event>
<event>
 4    0  0.1264838E-002  0.5049771E+03  0.7546771E-02  0.1012488E+00
          3   -1    0    0  502    0  0.00000000000E+00  0.00000000000E+00  0.82608622968E+02  0.82608622968E+02  0.00000000000E+00 0. -1.
         -3   -1    0    0    0  501 -0.00000000000E+00 -0.00000000000E+00 -0.77171695550E+03  0.77171695550E+03  0.00000000000E+00 0.  1.
         25    1    1    2    0    0  0.15365822514E+03 -0.17647094384E+03 -0.30181354793E+03  0.40183238034E+03  0.12500000000E+03 0.  0.
         21    1    1    2  502  501 -0.15365822514E+03  0.17647094384E+03 -0.38729478460E+03  0.45249319813E+03  0.00000000000E+00 0.  1.
<mgrwt>
<rscale>  3 0.50497713E+03</rscale>
<asrwt>0</asrwt>
<pdfrwt beam="1">  1        3 0.12709019E-01 0.50497713E+03</pdfrwt>
<pdfrwt beam="2">  1       -3 0.11872568E+00 0.50497713E+03</pdfrwt>
<totfact> 0.77574325E+01</totfact>
</mgrwt>
</event>
<event>
 4    0  0.1264838E-002  0.5163208E+03  0.7546771E-02  0.1009605E+00
          2   -1    0    0  502    0  0.00000000000E+00  0.00000000000E+00  0.23563267014E+04  0.23563267014E+04  0.00000000000E+00 0.  1.
         -2   -1    0    0    0  501 -0.00000000000E+00 -0.00000000000E+00 -0.28284194996E+02  0.28284194996E+02  0.00000000000E+00 0. -1.
         25    1    1    2    0    0 -0.98426428811E+02  0.21131405998E+03  0.91488431672E+03  0.95235482191E+03  0.12500000000E+03 0.  0.
         21    1    1    2  502  501  0.98426428811E+02 -0.21131405998E+03  0.14131581897E+04  0.14322560745E+04  0.00000000000E+00 0.  1.
<mgrwt>
<rscale>  3 0.51632085E+03</rscale>
<asrwt>0</asrwt>
<pdfrwt beam="1">  1        2 0.36251165E+00 0.51632085E+03</pdfrwt>
<pdfrwt beam="2">  1       -2 0.43514165E-02 0.51632085E+03</pdfrwt>
<totfact> 0.11330121E+03</totfact>
</mgrwt>
</event>
<event>
 4    0  0.1264838E-002  0.4946467E+03  0.7546771E-02  0.1015186E+00
         -2   -1    0    0    0  501 -0.00000000000E+00  0.00000000000E+00  0.17109868226E+04  0.17109868226E+04  0.00000000000E+00 0. -1.
          2   -1    0    0  502    0  0.00000000000E+00 -0.00000000000E+00 -0.35750618113E+02  0.35750618113E+02  0.00000000000E+00 0.  1.
         25    1    1    2    0    0 -0.13718929904E+03  0.17854727418E+03  0.10814625845E+04  0.11117042568E+04  0.12500000000E+03 0.  0.
         21    1    1    2  502  501  0.13718929904E+03 -0.17854727418E+03  0.59377361996E+03  0.63503318389E+03  0.00000000000E+00 0. -1.
<mgrwt>
<rscale>  3 0.49464669E+03</rscale>
<asrwt>0</asrwt>
<pdfrwt beam="1">  1        2 0.55000964E-02 0.49464669E+03</pdfrwt>
<pdfrwt beam="2">  1       -2 0.26322868E+00 0.49464669E+03</pdfrwt>
<totfact> 0.81491432E+01</totfact>
</mgrwt>
</event>
<event>
 4    0  0.1264838E-002  0.5385127E+03  0.7546771E-02  0.1004188E+00
          2   -1    0    0  502    0  0.00000000000E+00  0.00000000000E+00  0.16629211424E+03  0.16629211424E+03  0.00000000000E+00 0.  1.
         -2   -1    0    0    0  501 -0.00000000000E+00 -0.00000000000E+00 -0.43597361948E+03  0.43597361948E+03  0.00000000000E+00 0. -1.
         25    1    1    2    0    0  0.18301351962E+03 -0.14403010706E+03 -0.25756734565E+03  0.36905901648E+03  0.12500000000E+03 0.  0.
         21    1    1    2  502  501 -0.18301351962E+03  0.14403010706E+03 -0.12114159596E+02  0.23320671724E+03  0.00000000000E+00 0.  1.
<mgrwt>
<rscale>  3 0.53851267E+03</rscale>
<asrwt>0</asrwt>
<pdfrwt beam="1">  1        2 0.25583402E-01 0.53851267E+03</pdfrwt>
<pdfrwt beam="2">  1       -2 0.67072866E-01 0.53851267E+03</pdfrwt>
<totfact> 0.43944348E+02</totfact>
</mgrwt>
</event>
<event>
 4    0  0.1264838E-002  0.5319932E+03  0.7546771E-02  0.1005750E+00
          2   -1    0    0  502    0  0.00000000000E+00  0.00000000000E+00  0.56872992563E+03  0.56872992563E+03  0.00000000000E+00 0.  1.
         -2   -1    0    0    0  501 -0.00000000000E+00 -0.00000000000E+00 -0.12440735699E+03  0.12440735699E+03  0.00000000000E+00 0. -1.
         25    1    1    2    0    0  0.56204229564E+02  0.23739543504E+03  0.31305385648E+03  0.41610482460E+03  0.12500000000E+03 0.  0.
         21    1    1    2  502  501 -0.56204229564E+02 -0.23739543504E+03  0.13126871216E+03  0.27703245802E+03  0.00000000000E+00 0.  1.
<mgrwt>
<rscale>  3 0.53199318E+03</rscale>
<asrwt>0</asrwt>
<pdfrwt beam="1">  1        2 0.87496910E-01 0.53199318E+03</pdfrwt>
<pdfrwt beam="2">  1       -2 0.19139594E-01 0.53199318E+03</pdfrwt>
<totfact> 0.12211789E+03</totfact>
</mgrwt>
</event>
<event>
 4    0  0.1264838E-002  0.4612907E+03  0.7546771E-02  0.1024408E+00
         -2   -1    0    0    0  501 -0.00000000000E+00  0.00000000000E+00  0.27557187752E+02  0.27557187752E+02  0.00000000000E+00 0. -1.
          2   -1    0    0  502    0  0.00000000000E+00 -0.00000000000E+00 -0.19304323269E+04  0.19304323269E+04  0.00000000000E+00 0.  1.
         25    1    1    2    0    0  0.82142127715E+01  0.21354499225E+03 -0.10143485135E+04  0.10441249178E+04  0.12500000000E+03 0.  0.
         21    1    1    2  502  501 -0.82142127715E+01 -0.21354499225E+03 -0.88852662563E+03  0.91386459690E+03  0.00000000000E+00 0. -1.
<mgrwt>
<rscale>  3 0.46129074E+03</rscale>
<asrwt>0</asrwt>
<pdfrwt beam="1">  1        2 0.29698967E+00 0.46129074E+03</pdfrwt>
<pdfrwt beam="2">  1       -2 0.42395662E-02 0.46129074E+03</pdfrwt>
<totfact> 0.20138707E+03</totfact>
</mgrwt>
</event>
<event>
 4    0  0.1264838E-002  0.4382061E+03  0.7546771E-02  0.1031299E+00
          1   -1    0    0  502    0  0.00000000000E+00  0.00000000000E+00  0.20483879635E+04  0.20483879635E+04  0.00000000000E+00 0. -1.
         -1   -1    0    0    0  501 -0.00000000000E+00 -0.00000000000E+00 -0.23436062288E+02  0.23436062288E+02  0.00000000000E+00 0.  1.
         25    1    1    2    0    0  0.71079129598E+02 -0.18817521515E+03  0.11280727653E+04  0.11526644430E+04  0.12500000000E+03 0.  0.
         21    1    1    2  502  501 -0.71079129598E+02  0.18817521515E+03  0.89687913593E+03  0.91915958284E+03  0.00000000000E+00 0.  1.
<mgrwt>
<rscale>  3 0.43820611E+03</rscale>
<asrwt>0</asrwt>
<pdfrwt beam="1">  1        1 0.31513647E+00 0.43820611E+03</pdfrwt>
<pdfrwt beam="2">  1       -1 0.36055496E-02 0.43820611E+03</pdfrwt>
<totfact> 0.88762600E+02</totfact>
</mgrwt>
</event>
<event>
 4    0  0.1264838E-002  0.6874073E+03  0.7546771E-02  0.9739013E-01
         -1   -1    0    0    0  501 -0.00000000000E+00  0.00000000000E+00  0.16300431681E+04  0.16300431681E+04  0.00000000000E+00 0.  1.
          1   -1    0    0  502    0  0.00000000000E+00 -0.00000000000E+00 -0.72471827600E+02  0.72471827600E+02  0.00000000000E+00 0. -1.
         25    1    1    2    0    0 -0.22043099331E+03 -0.91788000378E+02  0.23202414433E+03  0.35563332715E+03  0.12500000000E+03 0.  0.
         21    1    1    2  502  501  0.22043099331E+03  0.91788000378E+02  0.13255471962E+04  0.13468816686E+04  0.00000000000E+00 0. -1.
<mgrwt>
<rscale>  3 0.68740732E+03</rscale>
<asrwt>0</asrwt>
<pdfrwt beam="1">  1        1 0.11149513E-01 0.68740732E+03</pdfrwt>
<pdfrwt beam="2">  1       -1 0.25077584E+00 0.68740732E+03</pdfrwt>
<totfact> 0.41273739E+01</totfact>
</mgrwt>
</event>
<event>
 4    0  0.1264838E-002  0.4674386E+03  0.7546771E-02  0.1022646E+00
         -1   -1    0    0    0  501 -0.00000000000E+00  0.00000000000E+00  0.27415393073E+03  0.27415393073E+03  0.00000000000E+00 0. -1.
          1   -1    0    0  502    0  0.00000000000E+00 -0.00000000000E+00 -0.19924829340E+03  0.19924829340E+03  0.00000000000E+00 0.  1.
         25    1    1    2    0    0  0.16186539817E+03 -0.13728584617E+03  0.85915502653E+02  0.26087216080E+03  0.12500000000E+03 0.  0.
         21    1    1    2  502  501 -0.16186539817E+03  0.13728584617E+03 -0.11009865327E+02  0.21253006333E+03  0.00000000000E+00 0.  1.
<mgrwt>
<rscale>  3 0.46743856E+03</rscale>
<asrwt>0</asrwt>
<pdfrwt beam="1">  1        1 0.30653584E-01 0.46743856E+03</pdfrwt>
<pdfrwt beam="2">  1       -1 0.42177528E-01 0.46743856E+03</pdfrwt>
<totfact> 0.82973420E+02</totfact>
</mgrwt>
</event>
<event>
 4    0  0.1264838E-002  0.5890354E+03  0.7546771E-02  0.9928419E-01
         -1   -1    0    0    0  501 -0.00000000000E+00  0.00000000000E+00  0.15159584395E+03  0.15159584395E+03  0.00000000000E+00 0. -1.
          1   -1    0    0  502    0  0.00000000000E+00 -0.00000000000E+00 -0.57218381747E+03  0.57218381747E+03  0.00000000000E+00 0.  1.
         25    1    1    2    0    0 -0.27477502452E+03  0.84974825946E+01 -0.29277523986E+03  0.42061367356E+03  0.12500000000E+03 0.  0.
         21    1    1    2  502  501  0.27477502452E+03 -0.84974825946E+01 -0.12781273367E+03  0.30316598786E+03  0.00000000000E+00 0. -1.
<mgrwt>
<rscale>  3 0.58903544E+03</rscale>
<asrwt>0</asrwt>
<pdfrwt beam="1">  1        1 0.88028278E-01 0.58903544E+03</pdfrwt>
<pdfrwt beam="2">  1       -1 0.23322438E-01 0.58903544E+03</pdfrwt>
<totfact> 0.58383715E+02</totfact>
</mgrwt>
</event>
<event>
 4    0  0.1264838E-002  0.6334930E+03  0.7546771E-02  0.9838256E-01
          4   -1    0    0  502    0  0.00000000000E+00  0.00000000000E+00  0.24231284642E+03  0.24231284642E+03  0.00000000000E+00 0.  1.
         -4   -1    0    0    0  501 -0.00000000000E+00 -0.00000000000E+00 -0.41404465758E+03  0.41404465758E+03  0.00000000000E+00 0. -1.
         25    1    1    2    0    0 -0.27782132382E+02 -0.29698773968E+03 -0.15218410790E+03  0.35743330440E+03  0.12500000000E+03 0.  0.
         21    1    1    2  502  501  0.27782132382E+02  0.29698773968E+03 -0.19547703259E+02  0.29892419959E+03  0.00000000000E+00 0.  1.
<mgrwt>
<rscale>  3 0.63349298E+03</rscale>
<asrwt>0</asrwt>
<pdfrwt beam="1">  1        4 0.37278900E-01 0.63349298E+03</pdfrwt>
<pdfrwt beam="2">  1       -4 0.63699178E-01 0.63349298E+03</pdfrwt>
<totfact> 0.31962392E+01</totfact>
</mgrwt>
</event>
<event>
 4    0  0.1264838E-002  0.5177191E+03  0.7546771E-02  0.1009255E+00
          1   -1    0    0  502    0  0.00000000000E+00  0.00000000000E+00  0.17373955663E+03  0.17373955663E+03  0.00000000000E+00 0.  1.
         -1   -1    0    0    0  501 -0.00000000000E+00 -0.00000000000E+00 -0.38568233974E+03  0.38568233974E+03  0.00000000000E+00 0. -1.
         25    1    1    2    0    0 -0.17573629894E+03 -0.16447415629E+03 -0.70460188964E+02  0.28022247069E+03  0.12500000000E+03 0.  0.
         21    1    1    2  502  501  0.17573629894E+03  0.16447415629E+03 -0.14148259415E+03  0.27919942568E+03  0.00000000000E+00 0. -1.
<mgrwt>
<rscale>  3 0.51771915E+03</rscale>
<asrwt>0</asrwt>
<pdfrwt beam="1">  1        1 0.26729163E-01 0.51771915E+03</pdfrwt>
<pdfrwt beam="2">  1       -1 0.59335743E-01 0.51771915E+03</pdfrwt>
<totfact> 0.52074754E+02</totfact>
</mgrwt>
</event>
<event>
 4    0  0.1264838E-002  0.4513732E+03  0.7546771E-02  0.1027313E+00
          2   -1    0    0  502    0  0.00000000000E+00  0.00000000000E+00  0.94254320661E+03  0.94254320661E+03  0.00000000000E+00 0.  1.
         -2   -1    0    0    0  501 -0.00000000000E+00 -0.00000000000E+00 -0.54039375235E+02  0.54039375235E+02  0.00000000000E+00 0. -1.
         25    1    1    2    0    0 -0.20319154429E+03  0.45024209419E+02  0.50121850171E+03  0.55691917686E+03  0.12500000000E+03 0.  0.
         21    1    1    2  502  501  0.20319154429E+03 -0.45024209419E+02  0.38728532967E+03  0.43966340498E+03  0.00000000000E+00 0. -1.
<mgrwt>
<rscale>  3 0.45137322E+03</rscale>
<asrwt>0</asrwt>
<pdfrwt beam="1">  1        2 0.14500663E+00 0.45137322E+03</pdfrwt>
<pdfrwt beam="2">  1       -2 0.83137508E-02 0.45137322E+03</pdfrwt>
<totfact> 0.25458121E+03</totfact>
</mgrwt>
</event>
<event>
 4    0  0.1264838E-002  0.5930633E+03  0.7546771E-02  0.9919903E-01
          2   -1    0    0  502    0  0.00000000000E+00  0.00000000000E+00  0.10083779214E+04  0.10083779214E+04  0.00000000000E+00 0.  1.
         -2   -1    0    0    0  501 -0.00000000000E+00 -0.00000000000E+00 -0.87200452126E+02  0.87200452126E+02  0.00000000000E+00 0. -1.
         25    1    1    2    0    0 -0.14921212033E+03  0.20525176196E+03  0.24811526555E+03  0.37626948806E+03  0.12500000000E+03 0.  0.
         21    1    1    2  502  501  0.14921212033E+03 -0.20525176196E+03  0.67306220373E+03  0.71930888548E+03  0.00000000000E+00 0.  1.
<mgrwt>
<rscale>  3 0.59306327E+03</rscale>
<asrwt>0</asrwt>
<pdfrwt beam="1">  1        2 0.15513506E+00 0.59306327E+03</pdfrwt>
<pdfrwt beam="2">  1       -2 0.13415455E-01 0.59306327E+03</pdfrwt>
<totfact> 0.10603753E+03</totfact>
</mgrwt>
</event>
<event>
 4    0  0.1264838E-002  0.5468221E+03  0.7546771E-02  0.1002232E+00
          2   -1    0    0  502    0  0.00000000000E+00  0.00000000000E+00  0.47921111684E+03  0.47921111684E+03  0.00000000000E+00 0. -1.
         -2   -1    0    0    0  501 -0.00000000000E+00 -0.00000000000E+00 -0.15599307168E+03  0.15599307168E+03  0.00000000000E+00 0.  1.
         25    1    1    2    0    0 -0.19585318125E+03  0.76852278166E+02  0.34576530951E+03  0.42360759026E+03  0.12500000000E+03 0.  0.
         21    1    1    2  502  501  0.19585318125E+03 -0.76852278166E+02 -0.22547264351E+02  0.21159659826E+03  0.00000000000E+00 0.  1.
<mgrwt>
<rscale>  3 0.54682214E+03</rscale>
<asrwt>0</asrwt>
<pdfrwt beam="1">  1        2 0.73724786E-01 0.54682214E+03</pdfrwt>
<pdfrwt beam="2">  1       -2 0.23998934E-01 0.54682214E+03</pdfrwt>
<totfact> 0.10010455E+03</totfact>
</mgrwt>
</event>
<event>
 4    0  0.1264838E-002  0.5668223E+03  0.7546771E-02  0.9976735E-01
          2   -1    0    0  502    0  0.00000000000E+00  0.00000000000E+00  0.29123597363E+03  0.29123597363E+03  0.00000000000E+00 0.  1.
         -2   -1    0    0    0  501 -0.00000000000E+00 -0.00000000000E+00 -0.27579659080E+03  0.27579659080E+03  0.00000000000E+00 0. -1.
         25    1    1    2    0    0 -0.67517558757E+01  0.26537424682E+03 -0.39148259311E+02  0.29601801177E+03  0.12500000000E+03 0.  0.
         21    1    1    2  502  501  0.67517558757E+01 -0.26537424682E+03  0.54587642140E+02  0.27101455267E+03  0.00000000000E+00 0.  1.
<mgrwt>
<rscale>  3 0.56682233E+03</rscale>
<asrwt>0</asrwt>
<pdfrwt beam="1">  1        2 0.44805535E-01 0.56682233E+03</pdfrwt>
<pdfrwt beam="2">  1       -2 0.42430245E-01 0.56682233E+03</pdfrwt>
<totfact> 0.60171624E+02</totfact>
</mgrwt>
</event>
<event>
 4    0  0.1264838E-002  0.7502891E+03  0.7546771E-02  0.9634897E-01
         -2   -1    0    0    0  501 -0.00000000000E+00  0.00000000000E+00  0.87149854744E+02  0.87149854744E+02  0.00000000000E+00 0. -1.
          2   -1    0    0  502    0  0.00000000000E+00 -0.00000000000E+00 -0.16148442354E+04  0.16148442354E+04  0.00000000000E+00 0.  1.
         25    1    1    2    0    0 -0.19554537666E+03 -0.25388139397E+03 -0.11801476514E+04  0.12292547480E+04  0.12500000000E+03 0.  0.
         21    1    1    2  502  501  0.19554537666E+03  0.25388139397E+03 -0.34754672927E+03  0.47273934210E+03  0.00000000000E+00 0. -1.
<mgrwt>
<rscale>  3 0.75028912E+03</rscale>
<asrwt>0</asrwt>
<pdfrwt beam="1">  1        2 0.24843756E+00 0.75028912E+03</pdfrwt>
<pdfrwt beam="2">  1       -2 0.13407671E-01 0.75028912E+03</pdfrwt>
<totfact> 0.46977780E+02</totfact>
</mgrwt>
</event>
<event>
 4    0  0.1264838E-002  0.5137323E+03  0.7546771E-02  0.1010255E+00
         -2   -1    0    0    0  501 -0.00000000000E+00  0.00000000000E+00  0.97761768351E+02  0.97761768351E+02  0.00000000000E+00 0.  1.
          2   -1    0    0  502    0  0.00000000000E+00 -0.00000000000E+00 -0.67490817390E+03  0.67490817390E+03  0.00000000000E+00 0. -1.
         25    1    1    2    0    0  0.68426876460E+02  0.21322976273E+03 -0.16904875766E+03  0.30716713952E+03  0.12500000000E+03 0.  0.
         21    1    1    2  502  501 -0.68426876460E+02 -0.21322976273E+03 -0.40809764789E+03  0.46550280273E+03  0.00000000000E+00 0. -1.
<mgrwt>
<rscale>  3 0.51373229E+03</rscale>
<asrwt>0</asrwt>
<pdfrwt beam="1">  1        2 0.10383203E+00 0.51373229E+03</pdfrwt>
<pdfrwt beam="2">  1       -2 0.15040272E-01 0.51373229E+03</pdfrwt>
<totfact> 0.14983460E+03</totfact>
</mgrwt>
</event>
<event>
 4    0  0.1264838E-002  0.8881539E+03  0.7546771E-02  0.9440512E-01
          1   -1    0    0  502    0  0.00000000000E+00  0.00000000000E+00  0.56491624452E+03  0.56491624452E+03  0.00000000000E+00 0. -1.
         -1   -1    0    0    0  501 -0.00000000000E+00 -0.00000000000E+00 -0.34908598690E+03  0.34908598690E+03  0.00000000000E+00 0.  1.
         25    1    1    2    0    0  0.41735061972E+03  0.50230873913E+01  0.23718948467E+03  0.49607521892E+03  0.12500000000E+03 0.  0.
         21    1    1    2  502  501 -0.41735061972E+03 -0.50230873913E+01 -0.21359227052E+02  0.41792701249E+03  0.00000000000E+00 0.  1.
<mgrwt>
<rscale>  3 0.88815392E+03</rscale>
<asrwt>0</asrwt>
<pdfrwt beam="1">  1        1 0.86910191E-01 0.88815392E+03</pdfrwt>
<pdfrwt beam="2">  1       -1 0.53705537E-01 0.88815392E+03</pdfrwt>
<totfact> 0.13175393E+02</totfact>
</mgrwt>
</event>
<event>
 4    0  0.1264838E-002  0.5520693E+03  0.7546771E-02  0.1001016E+00
          1   -1    0    0  502    0  0.00000000000E+00  0.00000000000E+00  0.32314266125E+03  0.32314266125E+03  0.00000000000E+00 0. -1.
         -1   -1    0    0    0  501 -0.00000000000E+00 -0.00000000000E+00 -0.23579404775E+03  0.23579404775E+03  0.00000000000E+00 0.  1.
         25    1    1    2    0    0  0.23812856226E+03 -0.69772621133E+02  0.13067722112E+03  0.30704228853E+03  0.12500000000E+03 0.  0.
         21    1    1    2  502  501 -0.23812856226E+03  0.69772621133E+02 -0.43328607627E+02  0.25189442047E+03  0.00000000000E+00 0.  1.
<mgrwt>
<rscale>  3 0.55206926E+03</rscale>
<asrwt>0</asrwt>
<pdfrwt beam="1">  1        1 0.49714256E-01 0.55206926E+03</pdfrwt>
<pdfrwt beam="2">  1       -1 0.36276007E-01 0.55206926E+03</pdfrwt>
<totfact> 0.58427407E+02</totfact>
</mgrwt>
</event>
<event>
 4    0  0.1264838E-002  0.5682465E+03  0.7546771E-02  0.9973566E-01
         -2   -1    0    0    0  501 -0.00000000000E+00  0.00000000000E+00  0.22542905935E+02  0.22542905935E+02  0.00000000000E+00 0.  1.
          2   -1    0    0  502    0  0.00000000000E+00 -0.00000000000E+00 -0.35809940608E+04  0.35809940608E+04  0.00000000000E+00 0. -1.
         25    1    1    2    0    0  0.20992028437E+03  0.86603746111E+02 -0.27959412089E+04  0.28079314412E+04  0.12500000000E+03 0.  0.
         21    1    1    2  502  501 -0.20992028437E+03 -0.86603746111E+02 -0.76250994596E+03  0.79560552557E+03  0.00000000000E+00 0.  1.
<mgrwt>
<rscale>  3 0.56824647E+03</rscale>
<asrwt>0</asrwt>
<pdfrwt beam="1">  1        2 0.55092231E+00 0.56824647E+03</pdfrwt>
<pdfrwt beam="2">  1       -2 0.34681385E-02 0.56824647E+03</pdfrwt>
<totfact> 0.28638504E+02</totfact>
</mgrwt>
</event>
<event>
 4    0  0.1264838E-002  0.5399659E+03  0.7546771E-02  0.1003843E+00
         -1   -1    0    0    0  501 -0.00000000000E+00  0.00000000000E+00  0.76938729436E+02  0.76938729436E+02  0.00000000000E+00 0. -1.
          1   -1    0    0  502    0  0.00000000000E+00 -0.00000000000E+00 -0.94738769344E+03  0.94738769344E+03  0.00000000000E+00 0.  1.
         25    1    1    2    0    0  0.64264012397E+02 -0.20710567643E+03 -0.71492712426E+03  0.75747502765E+03  0.12500000000E+03 0.  0.
         21    1    1    2  502  501 -0.64264012397E+02  0.20710567643E+03 -0.15552183974E+03  0.26685139523E+03  0.00000000000E+00 0.  1.
<mgrwt>
<rscale>  3 0.53996594E+03</rscale>
<asrwt>0</asrwt>
<pdfrwt beam="1">  1        1 0.14575195E+00 0.53996594E+03</pdfrwt>
<pdfrwt beam="2">  1       -1 0.11836728E-01 0.53996594E+03</pdfrwt>
<totfact> 0.81415856E+02</totfact>
</mgrwt>
</event>
<event>
 4    0  0.1264838E-002  0.4941728E+03  0.7546771E-02  0.1015311E+00
         -2   -1    0    0    0  501 -0.00000000000E+00  0.00000000000E+00  0.30764444419E+02  0.30764444419E+02  0.00000000000E+00 0. -1.
          2   -1    0    0  502    0  0.00000000000E+00 -0.00000000000E+00 -0.19844886237E+04  0.19844886237E+04  0.00000000000E+00 0.  1.
         25    1    1    2    0    0  0.18215786673E+03  0.92002258751E+02 -0.14831626139E+04  0.15023455805E+04  0.12500000000E+03 0.  0.
         21    1    1    2  502  501 -0.18215786673E+03 -0.92002258751E+02 -0.47056156539E+03  0.51290748761E+03  0.00000000000E+00 0. -1.
<mgrwt>
<rscale>  3 0.49417280E+03</rscale>
<asrwt>0</asrwt>
<pdfrwt beam="1">  1        2 0.30530600E+00 0.49417280E+03</pdfrwt>
<pdfrwt beam="2">  1       -2 0.47329905E-02 0.49417280E+03</pdfrwt>
<totfact> 0.15878904E+03</totfact>
</mgrwt>
</event>
<event>
 4    0  0.1264838E-002  0.5341977E+03  0.7546771E-02  0.1005219E+00
         -1   -1    0    0    0  501 -0.00000000000E+00  0.00000000000E+00  0.50846392182E+03  0.50846392182E+03  0.00000000000E+00 0.  1.
          1   -1    0    0  502    0  0.00000000000E+00 -0.00000000000E+00 -0.14030848262E+03  0.14030848262E+03  0.00000000000E+00 0. -1.
         25    1    1    2    0    0  0.82450410659E+02 -0.22395646072E+03  0.29422144033E+03  0.39893084923E+03  0.12500000000E+03 0.  0.
         21    1    1    2  502  501 -0.82450410659E+02  0.22395646072E+03  0.73933998871E+02  0.24984155520E+03  0.00000000000E+00 0. -1.
<mgrwt>
<rscale>  3 0.53419772E+03</rscale>
<asrwt>0</asrwt>
<pdfrwt beam="1">  1        1 0.21585921E-01 0.53419772E+03</pdfrwt>
<pdfrwt beam="2">  1       -1 0.78225218E-01 0.53419772E+03</pdfrwt>
<totfact> 0.39345986E+02</totfact>
</mgrwt>
</event>
<event>
 4    0  0.1264838E-002  0.5632984E+03  0.7546771E-02  0.9984619E-01
          1   -1    0    0  502    0  0.00000000000E+00  0.00000000000E+00  0.72075027831E+03  0.72075027831E+03  0.00000000000E+00 0. -1.
         -1   -1    0    0    0  501 -0.00000000000E+00 -0.00000000000E+00 -0.11006067623E+03  0.11006067623E+03  0.00000000000E+00 0.  1.
         25    1    1    2    0    0 -0.10311213175E+03 -0.19876002599E+03  0.53698823534E+03  0.59507900697E+03  0.12500000000E+03 0.  0.
         21    1    1    2  502  501  0.10311213175E+03  0.19876002599E+03  0.73701366736E+02  0.23573194757E+03  0.00000000000E+00 0.  1.
<mgrwt>
<rscale>  3 0.56329837E+03</rscale>
<asrwt>0</asrwt>
<pdfrwt beam="1">  1        1 0.11088466E+00 0.56329837E+03</pdfrwt>
<pdfrwt beam="2">  1       -1 0.16932412E-01 0.56329837E+03</pdfrwt>
<totfact> 0.70933955E+02</totfact>
</mgrwt>
</event>
<event>
 4    0  0.1264838E-002  0.6523825E+03  0.7546771E-02  0.9802319E-01
         -2   -1    0    0    0  501 -0.00000000000E+00  0.00000000000E+00  0.13092615458E+03  0.13092615458E+03  0.00000000000E+00 0.  1.
          2   -1    0    0  502    0  0.00000000000E+00 -0.00000000000E+00 -0.81267733447E+03  0.81267733447E+03  0.00000000000E+00 0. -1.
         25    1    1    2    0    0 -0.39796570714E+02 -0.31143543678E+03 -0.33533446813E+03  0.47607772878E+03  0.12500000000E+03 0.  0.
         21    1    1    2  502  501  0.39796570714E+02  0.31143543678E+03 -0.34641671176E+03  0.46752576026E+03  0.00000000000E+00 0. -1.
<mgrwt>
<rscale>  3 0.65238246E+03</rscale>
<asrwt>0</asrwt>
<pdfrwt beam="1">  1        2 0.12502728E+00 0.65238246E+03</pdfrwt>
<pdfrwt beam="2">  1       -2 0.20142486E-01 0.65238246E+03</pdfrwt>
<totfact> 0.71510398E+02</totfact>
</mgrwt>
</event>
<event>
 4    0  0.1264838E-002  0.5235515E+03  0.7546771E-02  0.1007808E+00
         -2   -1    0    0    0  501 -0.00000000000E+00  0.00000000000E+00  0.24274249542E+02  0.24274249542E+02  0.00000000000E+00 0. -1.
          2   -1    0    0  502    0  0.00000000000E+00 -0.00000000000E+00 -0.28230133657E+04  0.28230133657E+04  0.00000000000E+00 0.  1.
         25    1    1    2    0    0 -0.21238841982E+03 -0.12011347975E+03 -0.12756073391E+04  0.13047356715E+04  0.12500000000E+03 0.  0.
         21    1    1    2  502  501  0.21238841982E+03  0.12011347975E+03 -0.15231317770E+04  0.15425519437E+04  0.00000000000E+00 0.  1.
<mgrwt>
<rscale>  3 0.52355145E+03</rscale>
<asrwt>0</asrwt>
<pdfrwt beam="1">  1        2 0.43430963E+00 0.52355145E+03</pdfrwt>
<pdfrwt beam="2">  1       -2 0.37345009E-02 0.52355145E+03</pdfrwt>
<totfact> 0.77758545E+02</totfact>
</mgrwt>
</event>
<event>
 4    0  0.1264838E-002  0.5781357E+03  0.7546771E-02  0.9951835E-01
          2   -1    0    0  502    0  0.00000000000E+00  0.00000000000E+00  0.18203051596E+04  0.18203051596E+04  0.00000000000E+00 0.  1.
         -2   -1    0    0    0  501 -0.00000000000E+00 -0.00000000000E+00 -0.45904513639E+02  0.45904513639E+02  0.00000000000E+00 0. -1.
         25    1    1    2    0    0  0.23712133753E+03 -0.12728680360E+03  0.73765405732E+03  0.79510185974E+03  0.12500000000E+03 0.  0.
         21    1    1    2  502  501 -0.23712133753E+03  0.12728680360E+03  0.10367465887E+04  0.10711078135E+04  0.00000000000E+00 0. -1.
<mgrwt>
<rscale>  3 0.57813570E+03</rscale>
<asrwt>0</asrwt>
<pdfrwt beam="1">  1        2 0.28004689E+00 0.57813570E+03</pdfrwt>
<pdfrwt beam="2">  1       -2 0.70622343E-02 0.57813570E+03</pdfrwt>
<totfact> 0.10378259E+03</totfact>
</mgrwt>
</event>
<event>
 4    0  0.1264838E-002  0.5060557E+03  0.7546771E-02  0.1012210E+00
          2   -1    0    0  502    0  0.00000000000E+00  0.00000000000E+00  0.15705916891E+04  0.15705916891E+04  0.00000000000E+00 0.  1.
         -2   -1    0    0    0  501 -0.00000000000E+00 -0.00000000000E+00 -0.40763685276E+02  0.40763685276E+02  0.00000000000E+00 0. -1.
         25    1    1    2    0    0  0.85075490570E+02 -0.18589526062E+03  0.11970371409E+04  0.12207857321E+04  0.12500000000E+03 0.  0.
         21    1    1    2  502  501 -0.85075490570E+02  0.18589526062E+03  0.33279086292E+03  0.39056964227E+03  0.00000000000E+00 0. -1.
<mgrwt>
<rscale>  3 0.50605575E+03</rscale>
<asrwt>0</asrwt>
<pdfrwt beam="1">  1        2 0.24162944E+00 0.50605575E+03</pdfrwt>
<pdfrwt beam="2">  1       -2 0.62713374E-02 0.50605575E+03</pdfrwt>
<totfact> 0.17139694E+03</totfact>
</mgrwt>
</event>
<event>
 4    0  0.1264838E-002  0.4512616E+03  0.7546771E-02  0.1027346E+00
          3   -1    0    0  502    0  0.00000000000E+00  0.00000000000E+00  0.34418461182E+03  0.34418461182E+03  0.00000000000E+00 0.  1.
         -3   -1    0    0    0  501 -0.00000000000E+00 -0.00000000000E+00 -0.14791267102E+03  0.14791267102E+03  0.00000000000E+00 0. -1.
         25    1    1    2    0    0 -0.83694817021E+02 -0.18871990121E+03  0.75279173749E+02  0.25280818324E+03  0.12500000000E+03 0.  0.
         21    1    1    2  502  501  0.83694817021E+02  0.18871990121E+03  0.12099276704E+03  0.23928909960E+03  0.00000000000E+00 0.  1.
<mgrwt>
<rscale>  3 0.45126163E+03</rscale>
<asrwt>0</asrwt>
<pdfrwt beam="1">  1        3 0.52951478E-01 0.45126163E+03</pdfrwt>
<pdfrwt beam="2">  1       -3 0.22755796E-01 0.45126163E+03</pdfrwt>
<totfact> 0.16562398E+02</totfact>
</mgrwt>
</event>
<event>
 4    0  0.1264838E-002  0.4381453E+03  0.7546771E-02  0.1031317E+00
          2   -1    0    0  502    0  0.00000000000E+00  0.00000000000E+00  0.28576346263E+04  0.28576346263E+04  0.00000000000E+00 0. -1.
         -2   -1    0    0    0  501 -0.00000000000E+00 -0.00000000000E+00 -0.16794600412E+02  0.16794600412E+02  0.00000000000E+00 0.  1.
         25    1    1    2    0    0  0.18246899967E+03  0.84722891822E+02  0.15690730608E+04  0.15868485039E+04  0.12500000000E+03 0.  0.
         21    1    1    2  502  501 -0.18246899967E+03 -0.84722891822E+02  0.12717669651E+04  0.12875807228E+04  0.00000000000E+00 0. -1.
<mgrwt>
<rscale>  3 0.43814533E+03</rscale>
<asrwt>0</asrwt>
<pdfrwt beam="1">  1        2 0.43963571E+00 0.43814533E+03</pdfrwt>
<pdfrwt beam="2">  1       -2 0.25837870E-02 0.43814533E+03</pdfrwt>
<totfact> 0.13077575E+03</totfact>
</mgrwt>
</event>
<event>
 4    0  0.1264838E-002  0.5116804E+03  0.7546771E-02  0.1010774E+00
          2   -1    0    0  502    0  0.00000000000E+00  0.00000000000E+00  0.16109432313E+04  0.16109432313E+04  0.00000000000E+00 0.  1.
         -2   -1    0    0    0  501 -0.00000000000E+00 -0.00000000000E+00 -0.40630985136E+02  0.40630985136E+02  0.00000000000E+00 0. -1.
         25    1    1    2    0    0 -0.23260891227E+03  0.48989921263E+02  0.95139274690E+03  0.98857477072E+03  0.12500000000E+03 0.  0.
         21    1    1    2  502  501  0.23260891227E+03 -0.48989921263E+02  0.61891949929E+03  0.66299944575E+03  0.00000000000E+00 0. -1.
<mgrwt>
<rscale>  3 0.51168041E+03</rscale>
<asrwt>0</asrwt>
<pdfrwt beam="1">  1        2 0.24783737E+00 0.51168041E+03</pdfrwt>
<pdfrwt beam="2">  1       -2 0.62509220E-02 0.51168041E+03</pdfrwt>
<totfact> 0.16374758E+03</totfact>
</mgrwt>
</event>
<event>
 4    0  0.1264838E-002  0.4696104E+03  0.7546771E-02  0.1022030E+00
         -1   -1    0    0    0  501 -0.00000000000E+00  0.00000000000E+00  0.69284419006E+03  0.69284419006E+03  0.00000000000E+00 0.  1.
          1   -1    0    0  502    0  0.00000000000E+00 -0.00000000000E+00 -0.79575594432E+02  0.79575594432E+02  0.00000000000E+00 0. -1.
         25    1    1    2    0    0  0.17133912718E+03 -0.12983510351E+03  0.26718020330E+03  0.36499933101E+03  0.12500000000E+03 0.  0.
         21    1    1    2  502  501 -0.17133912718E+03  0.12983510351E+03  0.34608839233E+03  0.40742045348E+03  0.00000000000E+00 0. -1.
<mgrwt>
<rscale>  3 0.46961043E+03</rscale>
<asrwt>0</asrwt>
<pdfrwt beam="1">  1        1 0.12242400E-01 0.46961043E+03</pdfrwt>
<pdfrwt beam="2">  1       -1 0.10659141E+00 0.46961043E+03</pdfrwt>
<totfact> 0.42494469E+02</totfact>
</mgrwt>
</event>
<event>
 4    0  0.1264838E-002  0.5028514E+03  0.7546771E-02  0.1013037E+00
          1   -1    0    0  502    0  0.00000000000E+00  0.00000000000E+00  0.60387316444E+03  0.60387316444E+03  0.00000000000E+00 0.  1.
         -1   -1    0    0    0  501 -0.00000000000E+00 -0.00000000000E+00 -0.10468239320E+03  0.10468239320E+03  0.00000000000E+00 0. -1.
         25    1    1    2    0    0 -0.18546096324E+02  0.22048058998E+03  0.14978319634E+03  0.29498415916E+03  0.12500000000E+03 0.  0.
         21    1    1    2  502  501  0.18546096324E+02 -0.22048058998E+03  0.34940757489E+03  0.41357139848E+03  0.00000000000E+00 0. -1.
<mgrwt>
<rscale>  3 0.50285142E+03</rscale>
<asrwt>0</asrwt>
<pdfrwt beam="1">  1        1 0.92903562E-01 0.50285142E+03</pdfrwt>
<pdfrwt beam="2">  1       -1 0.16104984E-01 0.50285142E+03</pdfrwt>
<totfact> 0.99914238E+02</totfact>
</mgrwt>
</event>
<event>
 4    0  0.1264838E-002  0.4897796E+03  0.7546771E-02  0.1016482E+00
          1   -1    0    0  502    0  0.00000000000E+00  0.00000000000E+00  0.29298721613E+03  0.29298721613E+03  0.00000000000E+00 0.  1.
         -1   -1    0    0    0  501 -0.00000000000E+00 -0.00000000000E+00 -0.20468817073E+03  0.20468817073E+03  0.00000000000E+00 0. -1.
         25    1    1    2    0    0 -0.70689440076E+02 -0.21771307950E+03  0.42839174785E+02  0.26430319109E+03  0.12500000000E+03 0.  0.
         21    1    1    2  502  501  0.70689440076E+02  0.21771307950E+03  0.45459870612E+02  0.23337219577E+03  0.00000000000E+00 0. -1.
<mgrwt>
<rscale>  3 0.48977961E+03</rscale>
<asrwt>0</asrwt>
<pdfrwt beam="1">  1        1 0.45074956E-01 0.48977961E+03</pdfrwt>
<pdfrwt beam="2">  1       -1 0.31490488E-01 0.48977961E+03</pdfrwt>
<totfact> 0.85089585E+02</totfact>
</mgrwt>
</event>
<event>
 4    0  0.1264838E-002  0.6331316E+03  0.7546771E-02  0.9838957E-01
          2   -1    0    0  502    0  0.00000000000E+00  0.00000000000E+00  0.92922452092E+03  0.92922452092E+03  0.00000000000E+00 0.  1.
         -2   -1    0    0    0  501 -0.00000000000E+00 -0.00000000000E+00 -0.10784681419E+03  0.10784681419E+03  0.00000000000E+00 0. -1.
         25    1    1    2    0    0  0.27696552139E+03 -0.10063090184E+03  0.30284432975E+03  0.44065424825E+03  0.12500000000E+03 0.  0.
         21    1    1    2  502  501 -0.27696552139E+03  0.10063090184E+03  0.51853337699E+03  0.59641708686E+03  0.00000000000E+00 0. -1.
<mgrwt>
<rscale>  3 0.63313160E+03</rscale>
<asrwt>0</asrwt>
<pdfrwt beam="1">  1        2 0.14295761E+00 0.63313160E+03</pdfrwt>
<pdfrwt beam="2">  1       -2 0.16591818E-01 0.63313160E+03</pdfrwt>
<totfact> 0.83261523E+02</totfact>
</mgrwt>
</event>
<event>
 4    0  0.1264838E-002  0.4554043E+03  0.7546771E-02  0.1026123E+00
          2   -1    0    0  502    0  0.00000000000E+00  0.00000000000E+00  0.26678658372E+03  0.26678658372E+03  0.00000000000E+00 0. -1.
         -2   -1    0    0    0  501 -0.00000000000E+00 -0.00000000000E+00 -0.19434361309E+03  0.19434361309E+03  0.00000000000E+00 0.  1.
         25    1    1    2    0    0  0.11857552275E+03  0.16930180445E+03  0.79539445682E+02  0.25431236503E+03  0.12500000000E+03 0.  0.
         21    1    1    2  502  501 -0.11857552275E+03 -0.16930180445E+03 -0.70964750521E+01  0.20681783178E+03  0.00000000000E+00 0.  1.
<mgrwt>
<rscale>  3 0.45540430E+03</rscale>
<asrwt>0</asrwt>
<pdfrwt beam="1">  1        2 0.41044090E-01 0.45540430E+03</pdfrwt>
<pdfrwt beam="2">  1       -2 0.29899017E-01 0.45540430E+03</pdfrwt>
<totfact> 0.12875051E+03</totfact>
</mgrwt>
</event>
<event>
 4    0  0.1264838E-002  0.4775477E+03  0.7546771E-02  0.1019811E+00
          2   -1    0    0  502    0  0.00000000000E+00  0.00000000000E+00  0.89916722807E+03  0.89916722807E+03  0.00000000000E+00 0.  1.
         -2   -1    0    0    0  501 -0.00000000000E+00 -0.00000000000E+00 -0.63406390665E+02  0.63406390665E+02  0.00000000000E+00 0. -1.
         25    1    1    2    0    0 -0.40062507736E+02 -0.21062153982E+03  0.32723544325E+03  0.41069997916E+03  0.12500000000E+03 0.  0.
         21    1    1    2  502  501  0.40062507736E+02  0.21062153982E+03  0.50852539416E+03  0.55187363958E+03  0.00000000000E+00 0.  1.
<mgrwt>
<rscale>  3 0.47754769E+03</rscale>
<asrwt>0</asrwt>
<pdfrwt beam="1">  1        2 0.13833341E+00 0.47754769E+03</pdfrwt>
<pdfrwt beam="2">  1       -2 0.97548300E-02 0.47754769E+03</pdfrwt>
<totfact> 0.21045873E+03</totfact>
</mgrwt>
</event>
<event>
 4    0  0.1264838E-002  0.4655832E+03  0.7546771E-02  0.1023174E+00
          2   -1    0    0  502    0  0.00000000000E+00  0.00000000000E+00  0.41043804642E+03  0.41043804642E+03  0.00000000000E+00 0. -1.
         -2   -1    0    0    0  501 -0.00000000000E+00 -0.00000000000E+00 -0.13203435915E+03  0.13203435915E+03  0.00000000000E+00 0.  1.
         25    1    1    2    0    0 -0.10311354251E+03  0.18576054746E+03  0.10378594891E+03  0.26746197268E+03  0.12500000000E+03 0.  0.
         21    1    1    2  502  501  0.10311354251E+03 -0.18576054746E+03  0.17461773837E+03  0.27501043288E+03  0.00000000000E+00 0.  1.
<mgrwt>
<rscale>  3 0.46558318E+03</rscale>
<asrwt>0</asrwt>
<pdfrwt beam="1">  1        2 0.63144314E-01 0.46558318E+03</pdfrwt>
<pdfrwt beam="2">  1       -2 0.20312979E-01 0.46558318E+03</pdfrwt>
<totfact> 0.15979570E+03</totfact>
</mgrwt>
</event>
<event>
 4    0  0.1356182E-002  0.7749133E+03  0.7546771E-02  0.9597056E-01
         -2   -1    0    0    0  501 -0.00000000000E+00  0.00000000000E+00  0.60535457511E+02  0.60535457511E+02  0.00000000000E+00 0.  1.
          2   -1    0    0  502    0  0.00000000000E+00 -0.00000000000E+00 -0.24799128644E+04  0.24799128644E+04  0.00000000000E+00 0. -1.
         25    1    1    2    0    0  0.21794961264E+03 -0.35393011105E+02 -0.23787268520E+03  0.34779751760E+03  0.12500000000E+03 0.  0.
         21    1    1    2  502  501 -0.21794961264E+03  0.35393011105E+02 -0.21815047217E+04  0.21926508043E+04  0.00000000000E+00 0. -1.
<mgrwt>
<rscale>  3 0.77491331E+03</rscale>
<asrwt>0</asrwt>
<pdfrwt beam="1">  1        2 0.38152500E+00 0.77491331E+03</pdfrwt>
<pdfrwt beam="2">  1       -2 0.93131486E-02 0.77491331E+03</pdfrwt>
<totfact> 0.28510996E+02</totfact>
</mgrwt>
</event>
<event>
 4    0  0.1264838E-002  0.5227155E+03  0.7546771E-02  0.1008014E+00
          2   -1    0    0  502    0  0.00000000000E+00  0.00000000000E+00  0.40496434759E+03  0.40496434759E+03  0.00000000000E+00 0. -1.
         -2   -1    0    0    0  501 -0.00000000000E+00 -0.00000000000E+00 -0.16867624524E+03  0.16867624524E+03  0.00000000000E+00 0.  1.
         25    1    1    2    0    0  0.24450054270E+03 -0.16795897968E+02  0.15301080266E+03  0.31480140295E+03  0.12500000000E+03 0.  0.
         21    1    1    2  502  501 -0.24450054270E+03  0.16795897968E+02  0.83277299693E+02  0.25883918987E+03  0.00000000000E+00 0.  1.
<mgrwt>
<rscale>  3 0.52271547E+03</rscale>
<asrwt>0</asrwt>
<pdfrwt beam="1">  1        2 0.62302207E-01 0.52271547E+03</pdfrwt>
<pdfrwt beam="2">  1       -2 0.25950192E-01 0.52271547E+03</pdfrwt>
<totfact> 0.10521685E+03</totfact>
</mgrwt>
</event>
<event>
 4    0  0.1264838E-002  0.6130603E+03  0.7546771E-02  0.9878675E-01
          1   -1    0    0  502    0  0.00000000000E+00  0.00000000000E+00  0.90480738484E+03  0.90480738484E+03  0.00000000000E+00 0. -1.
         -1   -1    0    0    0  501 -0.00000000000E+00 -0.00000000000E+00 -0.10384611520E+03  0.10384611520E+03  0.00000000000E+00 0.  1.
         25    1    1    2    0    0  0.12659260480E+03 -0.17567746823E+03  0.74380058336E+03  0.78469903036E+03  0.12500000000E+03 0.  0.
         21    1    1    2  502  501 -0.12659260480E+03  0.17567746823E+03  0.57160686270E+02  0.22395446968E+03  0.00000000000E+00 0. -1.
<mgrwt>
<rscale>  3 0.61306030E+03</rscale>
<asrwt>0</asrwt>
<pdfrwt beam="1">  1        1 0.13920113E+00 0.61306030E+03</pdfrwt>
<pdfrwt beam="2">  1       -1 0.15976326E-01 0.61306030E+03</pdfrwt>
<totfact> 0.54187271E+02</totfact>
</mgrwt>
</event>
<event>
 4    0  0.1264838E-002  0.5120094E+03  0.7546771E-02  0.1010691E+00
         -2   -1    0    0    0  501 -0.00000000000E+00  0.00000000000E+00  0.25570030072E+02  0.25570030072E+02  0.00000000000E+00 0. -1.
          2   -1    0    0  502    0  0.00000000000E+00 -0.00000000000E+00 -0.25630949184E+04  0.25630949184E+04  0.00000000000E+00 0.  1.
         25    1    1    2    0    0 -0.13560901119E+03  0.15249432825E+03 -0.19901623175E+04  0.20044987837E+04  0.12500000000E+03 0.  0.
         21    1    1    2  502  501  0.13560901119E+03 -0.15249432825E+03 -0.54736257087E+03  0.58416616476E+03  0.00000000000E+00 0. -1.
<mgrwt>
<rscale>  3 0.51200943E+03</rscale>
<asrwt>0</asrwt>
<pdfrwt beam="1">  1        2 0.39432229E+00 0.51200943E+03</pdfrwt>
<pdfrwt beam="2">  1       -2 0.39338509E-02 0.51200943E+03</pdfrwt>
<totfact> 0.10144237E+03</totfact>
</mgrwt>
</event>
<event>
 4    0  0.1264838E-002  0.7636406E+03  0.7546771E-02  0.9614190E-01
         -2   -1    0    0    0  501 -0.00000000000E+00  0.00000000000E+00  0.12663693981E+03  0.12663693981E+03  0.00000000000E+00 0. -1.
          2   -1    0    0  502    0  0.00000000000E+00 -0.00000000000E+00 -0.11512182110E+04  0.11512182110E+04  0.00000000000E+00 0.  1.
         25    1    1    2    0    0 -0.23823299347E+03  0.25796052887E+03 -0.72945625465E+03  0.81916422107E+03  0.12500000000E+03 0.  0.
         21    1    1    2  502  501  0.23823299347E+03 -0.25796052887E+03 -0.29512501655E+03  0.45869092974E+03  0.00000000000E+00 0. -1.
<mgrwt>
<rscale>  3 0.76364063E+03</rscale>
<asrwt>0</asrwt>
<pdfrwt beam="1">  1        2 0.17711049E+00 0.76364063E+03</pdfrwt>
<pdfrwt beam="2">  1       -2 0.19482606E-01 0.76364063E+03</pdfrwt>
<totfact> 0.45593603E+02</totfact>
</mgrwt>
</event>
<event>
 4    0  0.1264838E-002  0.4544401E+03  0.7546771E-02  0.1026406E+00
         -3   -1    0    0    0  501 -0.00000000000E+00  0.00000000000E+00  0.23752677256E+03  0.23752677256E+03  0.00000000000E+00 0. -1.
          3   -1    0    0  502    0  0.00000000000E+00 -0.00000000000E+00 -0.21736058449E+03  0.21736058449E+03  0.00000000000E+00 0.  1.
         25    1    1    2    0    0  0.66845050432E+02 -0.19249144886E+03 -0.40103880070E+02  0.24239335768E+03  0.12500000000E+03 0.  0.
         21    1    1    2  502  501 -0.66845050432E+02  0.19249144886E+03  0.60270068142E+02  0.21249399936E+03  0.00000000000E+00 0. -1.
<mgrwt>
<rscale>  3 0.45444013E+03</rscale>
<asrwt>0</asrwt>
<pdfrwt beam="1">  1        3 0.33440090E-01 0.45444013E+03</pdfrwt>
<pdfrwt beam="2">  1       -3 0.36542580E-01 0.45444013E+03</pdfrwt>
<totfact> 0.16921154E+02</totfact>
</mgrwt>
</event>
<event>
 4    0  0.1264838E-002  0.4782258E+03  0.7546771E-02  0.1019624E+00
          2   -1    0    0  502    0  0.00000000000E+00  0.00000000000E+00  0.22929462774E+04  0.22929462774E+04  0.00000000000E+00 0.  1.
         -2   -1    0    0    0  501 -0.00000000000E+00 -0.00000000000E+00 -0.24935156912E+02  0.24935156912E+02  0.00000000000E+00 0. -1.
         25    1    1    2    0    0 -0.53548814302E+02  0.21587492500E+03  0.12727700069E+04  0.12980901160E+04  0.12500000000E+03 0.  0.
         21    1    1    2  502  501  0.53548814302E+02 -0.21587492500E+03  0.99524111356E+03  0.10197913183E+04  0.00000000000E+00 0.  1.
<mgrwt>
<rscale>  3 0.47822578E+03</rscale>
<asrwt>0</asrwt>
<pdfrwt beam="1">  1        2 0.35276080E+00 0.47822578E+03</pdfrwt>
<pdfrwt beam="2">  1       -2 0.38361798E-02 0.47822578E+03</pdfrwt>
<totfact> 0.14930837E+03</totfact>
</mgrwt>
</event>
<event>
 4    0  0.1264838E-002  0.8769093E+03  0.7546771E-02  0.9454915E-01
         -2   -1    0    0    0  501 -0.00000000000E+00  0.00000000000E+00  0.82952666396E+02  0.82952666396E+02  0.00000000000E+00 0.  1.
          2   -1    0    0  502    0  0.00000000000E+00 -0.00000000000E+00 -0.23174960153E+04  0.23174960153E+04  0.00000000000E+00 0. -1.
         25    1    1    2    0    0  0.12332601291E+02 -0.20185878393E+03 -0.21773364165E+04  0.21902780491E+04  0.12500000000E+03 0.  0.
         21    1    1    2  502  501 -0.12332601291E+02  0.20185878393E+03 -0.57206932428E+02  0.21017063263E+03  0.00000000000E+00 0.  1.
<mgrwt>
<rscale>  3 0.87690929E+03</rscale>
<asrwt>0</asrwt>
<pdfrwt beam="1">  1        2 0.35653788E+00 0.87690929E+03</pdfrwt>
<pdfrwt beam="2">  1       -2 0.12761948E-01 0.87690929E+03</pdfrwt>
<totfact> 0.20782580E+02</totfact>
</mgrwt>
</event>
<event>
 4    0  0.1264838E-002  0.5591092E+03  0.7546771E-02  0.9994072E-01
          1   -1    0    0  502    0  0.00000000000E+00  0.00000000000E+00  0.94981800619E+03  0.94981800619E+03  0.00000000000E+00 0. -1.
         -1   -1    0    0    0  501 -0.00000000000E+00 -0.00000000000E+00 -0.82279742022E+02  0.82279742022E+02  0.00000000000E+00 0.  1.
         25    1    1    2    0    0 -0.11018955354E+02  0.23781591855E+03  0.67273976978E+03  0.72448714711E+03  0.12500000000E+03 0.  0.
         21    1    1    2  502  501  0.11018955354E+02 -0.23781591855E+03  0.19479849439E+03  0.30761060110E+03  0.00000000000E+00 0.  1.
<mgrwt>
<rscale>  3 0.55910922E+03</rscale>
<asrwt>0</asrwt>
<pdfrwt beam="1">  1        1 0.14612584E+00 0.55910922E+03</pdfrwt>
<pdfrwt beam="2">  1       -1 0.12658423E-01 0.55910922E+03</pdfrwt>
<totfact> 0.72784851E+02</totfact>
</mgrwt>
</event>
<event>
 4    0  0.1264838E-002  0.7700553E+03  0.7546771E-02  0.9604402E-01
         -1   -1    0    0    0  501 -0.00000000000E+00  0.00000000000E+00  0.60836732211E+02  0.60836732211E+02  0.00000000000E+00 0. -1.
          1   -1    0    0  502    0  0.00000000000E+00 -0.00000000000E+00 -0.24367894350E+04  0.24367894350E+04  0.00000000000E+00 0.  1.
         25    1    1    2    0    0 -0.26957045048E+02 -0.29592956839E+03 -0.47798707776E+03  0.57653936399E+03  0.12500000000E+03 0.  0.
         21    1    1    2  502  501  0.26957045048E+02  0.29592956839E+03 -0.18979656251E+04  0.19210868033E+04  0.00000000000E+00 0.  1.
<mgrwt>
<rscale>  3 0.77005534E+03</rscale>
<asrwt>0</asrwt>
<pdfrwt beam="1">  1        1 0.37489066E+00 0.77005534E+03</pdfrwt>
<pdfrwt beam="2">  1       -1 0.93594977E-02 0.77005534E+03</pdfrwt>
<totfact> 0.10904650E+02</totfact>
</mgrwt>
</event>
<event>
 4    0  0.1264838E-002  0.8622190E+03  0.7546771E-02  0.9474082E-01
         -2   -1    0    0    0  501 -0.00000000000E+00  0.00000000000E+00  0.36492711947E+03  0.36492711947E+03  0.00000000000E+00 0. -1.
          2   -1    0    0  502    0  0.00000000000E+00 -0.00000000000E+00 -0.50929461684E+03  0.50929461684E+03  0.00000000000E+00 0.  1.
         25    1    1    2    0    0  0.24603301301E+03 -0.92937778775E+02 -0.40837972726E+03  0.50156622280E+03  0.12500000000E+03 0.  0.
         21    1    1    2  502  501 -0.24603301301E+03  0.92937778775E+02  0.26401222989E+03  0.37265551351E+03  0.00000000000E+00 0. -1.
<mgrwt>
<rscale>  3 0.86221904E+03</rscale>
<asrwt>0</asrwt>
<pdfrwt beam="1">  1        2 0.78353018E-01 0.86221904E+03</pdfrwt>
<pdfrwt beam="2">  1       -2 0.56142634E-01 0.86221904E+03</pdfrwt>
<totfact> 0.18046404E+02</totfact>
</mgrwt>
</event>
<event>
 4    0  0.1264838E-002  0.4671455E+03  0.7546771E-02  0.1022729E+00
          2   -1    0    0  502    0  0.00000000000E+00  0.00000000000E+00  0.12055868554E+04  0.12055868554E+04  0.00000000000E+00 0. -1.
         -2   -1    0    0    0  501 -0.00000000000E+00 -0.00000000000E+00 -0.45252832995E+02  0.45252832995E+02  0.00000000000E+00 0.  1.
         25    1    1    2    0    0  0.16710769090E+03 -0.13321019588E+03  0.72021587831E+03  0.76158114998E+03  0.12500000000E+03 0.  0.
         21    1    1    2  502  501 -0.16710769090E+03  0.13321019588E+03  0.44011814411E+03  0.48925853842E+03  0.00000000000E+00 0.  1.
<mgrwt>
<rscale>  3 0.46714546E+03</rscale>
<asrwt>0</asrwt>
<pdfrwt beam="1">  1        2 0.18547488E+00 0.46714546E+03</pdfrwt>
<pdfrwt beam="2">  1       -2 0.69619752E-02 0.46714546E+03</pdfrwt>
<totfact> 0.23303274E+03</totfact>
</mgrwt>
</event>
<event>
 4    0  0.1264838E-002  0.4711759E+03  0.7546771E-02  0.1021589E+00
          1   -1    0    0  502    0  0.00000000000E+00  0.00000000000E+00  0.33314016099E+02  0.33314016099E+02  0.00000000000E+00 0.  1.
         -1   -1    0    0    0  501 -0.00000000000E+00 -0.00000000000E+00 -0.16660161707E+04  0.16660161707E+04  0.00000000000E+00 0. -1.
         25    1    1    2    0    0 -0.44679896603E+02  0.21436879206E+03 -0.86038821286E+03  0.89657300260E+03  0.12500000000E+03 0.  0.
         21    1    1    2  502  501  0.44679896603E+02 -0.21436879206E+03 -0.77231394174E+03  0.80275718419E+03  0.00000000000E+00 0. -1.
<mgrwt>
<rscale>  3 0.47117593E+03</rscale>
<asrwt>0</asrwt>
<pdfrwt beam="1">  1        1 0.51252336E-02 0.47117593E+03</pdfrwt>
<pdfrwt beam="2">  1       -1 0.25631016E+00 0.47117593E+03</pdfrwt>
<totfact> 0.11430205E+02</totfact>
</mgrwt>
</event>
<event>
 4    0  0.1264838E-002  0.5407101E+03  0.7546771E-02  0.1003667E+00
          2   -1    0    0  502    0  0.00000000000E+00  0.00000000000E+00  0.61586696630E+03  0.61586696630E+03  0.00000000000E+00 0. -1.
         -2   -1    0    0    0  501 -0.00000000000E+00 -0.00000000000E+00 -0.11868124379E+03  0.11868124379E+03  0.00000000000E+00 0.  1.
         25    1    1    2    0    0  0.20865241146E+02  0.23728965820E+03  0.13482979327E+03  0.30090831383E+03  0.12500000000E+03 0.  0.
         21    1    1    2  502  501 -0.20865241146E+02 -0.23728965820E+03  0.36235592925E+03  0.43363989627E+03  0.00000000000E+00 0. -1.
<mgrwt>
<rscale>  3 0.54071012E+03</rscale>
<asrwt>0</asrwt>
<pdfrwt beam="1">  1        2 0.94748762E-01 0.54071012E+03</pdfrwt>
<pdfrwt beam="2">  1       -2 0.18258653E-01 0.54071012E+03</pdfrwt>
<totfact> 0.12046964E+03</totfact>
</mgrwt>
</event>
<event>
 4    0  0.1264838E-002  0.5163666E+03  0.7546771E-02  0.1009593E+00
         -1   -1    0    0    0  501 -0.00000000000E+00  0.00000000000E+00  0.30617797227E+03  0.30617797227E+03  0.00000000000E+00 0. -1.
          1   -1    0    0  502    0  0.00000000000E+00 -0.00000000000E+00 -0.21771199978E+03  0.21771199978E+03  0.00000000000E+00 0.  1.
         25    1    1    2    0    0 -0.24246170704E+03  0.97269296298E+01  0.32739880736E+02  0.27491670071E+03  0.12500000000E+03 0.  0.
         21    1    1    2  502  501  0.24246170704E+03 -0.97269296298E+01  0.55726091754E+02  0.24897327134E+03  0.00000000000E+00 0.  1.
<mgrwt>
<rscale>  3 0.51636661E+03</rscale>
<asrwt>0</asrwt>
<pdfrwt beam="1">  1        1 0.33494154E-01 0.51636661E+03</pdfrwt>
<pdfrwt beam="2">  1       -1 0.47104303E-01 0.51636661E+03</pdfrwt>
<totfact> 0.60408800E+02</totfact>
</mgrwt>
</event>
<event>
 4    0  0.1264838E-002  0.7873414E+03  0.7546771E-02  0.9578523E-01
          2   -1    0    0  502    0  0.00000000000E+00  0.00000000000E+00  0.23858135652E+04  0.23858135652E+04  0.00000000000E+00 0. -1.
         -2   -1    0    0    0  501 -0.00000000000E+00 -0.00000000000E+00 -0.64957549728E+02  0.64957549728E+02  0.00000000000E+00 0.  1.
         25    1    1    2    0    0 -0.20102950482E+03 -0.19410292931E+03  0.20083498733E+04  0.20315469531E+04  0.12500000000E+03 0.  0.
         21    1    1    2  502  501  0.20102950482E+03  0.19410292931E+03  0.31250614213E+03  0.41922416181E+03  0.00000000000E+00 0.  1.
<mgrwt>
<rscale>  3 0.78734136E+03</rscale>
<asrwt>0</asrwt>
<pdfrwt beam="1">  1        2 0.36704817E+00 0.78734136E+03</pdfrwt>
<pdfrwt beam="2">  1       -2 0.99934710E-02 0.78734136E+03</pdfrwt>
<totfact> 0.28694465E+02</totfact>
</mgrwt>
</event>
<event>
 4    0  0.1264838E-002  0.4644950E+03  0.7546771E-02  0.1023486E+00
         -1   -1    0    0    0  501 -0.00000000000E+00  0.00000000000E+00  0.50224259000E+02  0.50224259000E+02  0.00000000000E+00 0. -1.
          1   -1    0    0  502    0  0.00000000000E+00 -0.00000000000E+00 -0.10739610660E+04  0.10739610660E+04  0.00000000000E+00 0.  1.
         25    1    1    2    0    0 -0.17666718402E+03 -0.12306453163E+03 -0.56657670960E+03  0.61886213385E+03  0.12500000000E+03 0.  0.
         21    1    1    2  502  501  0.17666718402E+03  0.12306453163E+03 -0.45716009738E+03  0.50532319113E+03  0.00000000000E+00 0.  1.
<mgrwt>
<rscale>  3 0.46449499E+03</rscale>
<asrwt>0</asrwt>
<pdfrwt beam="1">  1        1 0.16522477E+00 0.46449499E+03</pdfrwt>
<pdfrwt beam="2">  1       -1 0.77268095E-02 0.46449499E+03</pdfrwt>
<totfact> 0.12753519E+03</totfact>
</mgrwt>
</event>
<event>
 4    0  0.1264838E-002  0.5114019E+03  0.7546771E-02  0.1010845E+00
         -2   -1    0    0    0  501 -0.00000000000E+00  0.00000000000E+00  0.10750523893E+03  0.10750523893E+03  0.00000000000E+00 0. -1.
          2   -1    0    0  502    0  0.00000000000E+00 -0.00000000000E+00 -0.60818403304E+03  0.60818403304E+03  0.00000000000E+00 0.  1.
         25    1    1    2    0    0  0.49602154143E+02  0.23504137555E+03 -0.25136955654E+03  0.36948136065E+03  0.12500000000E+03 0.  0.
         21    1    1    2  502  501 -0.49602154143E+02 -0.23504137555E+03 -0.24930923758E+03  0.34620791131E+03  0.00000000000E+00 0. -1.
<mgrwt>
<rscale>  3 0.51140188E+03</rscale>
<asrwt>0</asrwt>
<pdfrwt beam="1">  1        2 0.93566774E-01 0.51140188E+03</pdfrwt>
<pdfrwt beam="2">  1       -2 0.16539268E-01 0.51140188E+03</pdfrwt>
<totfact> 0.14481818E+03</totfact>
</mgrwt>
</event>
<event>
 4    0  0.1264838E-002  0.4992572E+03  0.7546771E-02  0.1013973E+00
          2   -1    0    0  502    0  0.00000000000E+00  0.00000000000E+00  0.44314660181E+03  0.44314660181E+03  0.00000000000E+00 0. -1.
         -2   -1    0    0    0  501 -0.00000000000E+00 -0.00000000000E+00 -0.14061813403E+03  0.14061813403E+03  0.00000000000E+00 0.  1.
         25    1    1    2    0    0 -0.23364453761E+03 -0.65990596290E+01  0.17320324744E+03  0.31663493564E+03  0.12500000000E+03 0.  0.
         21    1    1    2  502  501  0.23364453761E+03  0.65990596290E+01  0.12932522033E+03  0.26712980020E+03  0.00000000000E+00 0. -1.
<mgrwt>
<rscale>  3 0.49925724E+03</rscale>
<asrwt>0</asrwt>
<pdfrwt beam="1">  1        2 0.68176400E-01 0.49925724E+03</pdfrwt>
<pdfrwt beam="2">  1       -2 0.21633559E-01 0.49925724E+03</pdfrwt>
<totfact> 0.13143147E+03</totfact>
</mgrwt>
</event>
<event>
 4    0  0.1264838E-002  0.6044590E+03  0.7546771E-02  0.9896198E-01
          1   -1    0    0  502    0  0.00000000000E+00  0.00000000000E+00  0.18264163677E+03  0.18264163677E+03  0.00000000000E+00 0. -1.
         -1   -1    0    0    0  501 -0.00000000000E+00 -0.00000000000E+00 -0.50011969198E+03  0.50011969198E+03  0.00000000000E+00 0.  1.
         25    1    1    2    0    0  0.19853681566E+03 -0.51619526453E+02 -0.39595326545E+03  0.46312571846E+03  0.12500000000E+03 0.  0.
         21    1    1    2  502  501 -0.19853681566E+03  0.51619526453E+02  0.78475210241E+02  0.21963561028E+03  0.00000000000E+00 0. -1.
<mgrwt>
<rscale>  3 0.60445903E+03</rscale>
<asrwt>0</asrwt>
<pdfrwt beam="1">  1        1 0.28098714E-01 0.60445903E+03</pdfrwt>
<pdfrwt beam="2">  1       -1 0.76941491E-01 0.60445903E+03</pdfrwt>
<totfact> 0.28819462E+02</totfact>
</mgrwt>
</event>
<event>
 4    0  0.1264838E-002  0.4760231E+03  0.7546771E-02  0.1020234E+00
         -2   -1    0    0    0  501 -0.00000000000E+00  0.00000000000E+00  0.32331897449E+03  0.32331897449E+03  0.00000000000E+00 0. -1.
          2   -1    0    0  502    0  0.00000000000E+00 -0.00000000000E+00 -0.17521238871E+03  0.17521238871E+03  0.00000000000E+00 0.  1.
         25    1    1    2    0    0 -0.12824040511E+02 -0.21572636620E+03  0.27810402158E+02  0.25119860581E+03  0.12500000000E+03 0.  0.
         21    1    1    2  502  501  0.12824040511E+02  0.21572636620E+03  0.12029618362E+03  0.24733275740E+03  0.00000000000E+00 0. -1.
<mgrwt>
<rscale>  3 0.47602307E+03</rscale>
<asrwt>0</asrwt>
<pdfrwt beam="1">  1        2 0.26955752E-01 0.47602307E+03</pdfrwt>
<pdfrwt beam="2">  1       -2 0.49741380E-01 0.47602307E+03</pdfrwt>
<totfact> 0.77204287E+02</totfact>
</mgrwt>
</event>
<event>
 4    0  0.1264838E-002  0.5029687E+03  0.7546771E-02  0.1013007E+00
          1   -1    0    0  502    0  0.00000000000E+00  0.00000000000E+00  0.35470005985E+03  0.35470005985E+03  0.00000000000E+00 0. -1.
         -1   -1    0    0    0  501 -0.00000000000E+00 -0.00000000000E+00 -0.17830385021E+03  0.17830385021E+03  0.00000000000E+00 0.  1.
         25    1    1    2    0    0  0.42117960052E+02  0.23214452489E+03  0.90620226554E+02  0.28196104067E+03  0.12500000000E+03 0.  0.
         21    1    1    2  502  501 -0.42117960052E+02 -0.23214452489E+03  0.85775983081E+02  0.25104286939E+03  0.00000000000E+00 0. -1.
<mgrwt>
<rscale>  3 0.50296873E+03</rscale>
<asrwt>0</asrwt>
<pdfrwt beam="1">  1        1 0.54569240E-01 0.50296873E+03</pdfrwt>
<pdfrwt beam="2">  1       -1 0.27431362E-01 0.50296873E+03</pdfrwt>
<totfact> 0.84374122E+02</totfact>
</mgrwt>
</event>
<event>
 4    0  0.1264838E-002  0.4859634E+03  0.7546771E-02  0.1017509E+00
         -2   -1    0    0    0  501 -0.00000000000E+00  0.00000000000E+00  0.51203355206E+02  0.51203355206E+02  0.00000000000E+00 0. -1.
          2   -1    0    0  502    0  0.00000000000E+00 -0.00000000000E+00 -0.11530516810E+04  0.11530516810E+04  0.00000000000E+00 0.  1.
         25    1    1    2    0    0  0.43987882726E+02  0.21010374339E+03 -0.76960270824E+03  0.80869762294E+03  0.12500000000E+03 0.  0.
         21    1    1    2  502  501 -0.43987882726E+02 -0.21010374339E+03 -0.33224561757E+03  0.39555741328E+03  0.00000000000E+00 0. -1.
<mgrwt>
<rscale>  3 0.48596343E+03</rscale>
<asrwt>0</asrwt>
<pdfrwt beam="1">  1        2 0.17739256E+00 0.48596343E+03</pdfrwt>
<pdfrwt beam="2">  1       -2 0.78774396E-02 0.48596343E+03</pdfrwt>
<totfact> 0.20578415E+03</totfact>
</mgrwt>
</event>
<event>
 4    0  0.1264838E-002  0.5202730E+03  0.7546771E-02  0.1008619E+00
         -2   -1    0    0    0  501 -0.00000000000E+00  0.00000000000E+00  0.65792031613E+03  0.65792031613E+03  0.00000000000E+00 0. -1.
          2   -1    0    0  502    0  0.00000000000E+00 -0.00000000000E+00 -0.10285592167E+03  0.10285592167E+03  0.00000000000E+00 0.  1.
         25    1    1    2    0    0  0.21296996046E+03 -0.99785313345E+02  0.39455112596E+03  0.47603456158E+03  0.12500000000E+03 0.  0.
         21    1    1    2  502  501 -0.21296996046E+03  0.99785313345E+02  0.16051326849E+03  0.28474167622E+03  0.00000000000E+00 0.  1.
<mgrwt>
<rscale>  3 0.52027301E+03</rscale>
<asrwt>0</asrwt>
<pdfrwt beam="1">  1        2 0.15823988E-01 0.52027301E+03</pdfrwt>
<pdfrwt beam="2">  1       -2 0.10121851E+00 0.52027301E+03</pdfrwt>
<totfact> 0.30523005E+02</totfact>
</mgrwt>
</event>
<event>
 4    0  0.1264838E-002  0.4697552E+03  0.7546771E-02  0.1021989E+00
         -2   -1    0    0    0  501 -0.00000000000E+00  0.00000000000E+00  0.19294284990E+02  0.19294284990E+02  0.00000000000E+00 0.  1.
          2   -1    0    0  502    0  0.00000000000E+00 -0.00000000000E+00 -0.28592660560E+04  0.28592660560E+04  0.00000000000E+00 0. -1.
         25    1    1    2    0    0 -0.18765344258E+03 -0.79519460044E+02 -0.19989077432E+04  0.20131553156E+04  0.12500000000E+03 0.  0.
         21    1    1    2  502  501  0.18765344258E+03  0.79519460044E+02 -0.84106402784E+03  0.86540502539E+03  0.00000000000E+00 0.  1.
<mgrwt>
<rscale>  3 0.46975523E+03</rscale>
<asrwt>0</asrwt>
<pdfrwt beam="1">  1        2 0.43988700E+00 0.46975523E+03</pdfrwt>
<pdfrwt beam="2">  1       -2 0.29683521E-02 0.46975523E+03</pdfrwt>
<totfact> 0.10552871E+03</totfact>
</mgrwt>
</event>
<event>
 4    0  0.1264838E-002  0.8556035E+03  0.7546771E-02  0.9482847E-01
         -1   -1    0    0    0  501 -0.00000000000E+00  0.00000000000E+00  0.42890125196E+03  0.42890125196E+03  0.00000000000E+00 0.  1.
          1   -1    0    0  502    0  0.00000000000E+00 -0.00000000000E+00 -0.42670511134E+03  0.42670511134E+03  0.00000000000E+00 0. -1.
         25    1    1    2    0    0  0.27403703310E+03 -0.15982183040E+03  0.27433645967E+03  0.43763547170E+03  0.12500000000E+03 0.  0.
         21    1    1    2  502  501 -0.27403703310E+03  0.15982183040E+03 -0.27214031905E+03  0.41797089161E+03  0.00000000000E+00 0. -1.
<mgrwt>
<rscale>  3 0.85560354E+03</rscale>
<asrwt>0</asrwt>
<pdfrwt beam="1">  1        1 0.65646940E-01 0.85560354E+03</pdfrwt>
<pdfrwt beam="2">  1       -1 0.65984808E-01 0.85560354E+03</pdfrwt>
<totfact> 0.12938281E+02</totfact>
</mgrwt>
</event>
<event>
 4    0  0.1264838E-002  0.4836214E+03  0.7546771E-02  0.1018145E+00
          3   -1    0    0  502    0  0.00000000000E+00  0.00000000000E+00  0.10379949331E+03  0.10379949331E+03  0.00000000000E+00 0. -1.
         -3   -1    0    0    0  501 -0.00000000000E+00 -0.00000000000E+00 -0.56332080580E+03  0.56332080580E+03  0.00000000000E+00 0.  1.
         25    1    1    2    0    0  0.10749998121E+03  0.19733423755E+03 -0.21671157863E+03  0.33628255320E+03  0.12500000000E+03 0.  0.
         21    1    1    2  502  501 -0.10749998121E+03 -0.19733423755E+03 -0.24280973385E+03  0.33083774592E+03  0.00000000000E+00 0. -1.
<mgrwt>
<rscale>  3 0.48362140E+03</rscale>
<asrwt>0</asrwt>
<pdfrwt beam="1">  1        3 0.15969153E-01 0.48362140E+03</pdfrwt>
<pdfrwt beam="2">  1       -3 0.86664739E-01 0.48362140E+03</pdfrwt>
<totfact> 0.10846099E+02</totfact>
</mgrwt>
</event>
<event>
 4    0  0.1264838E-002  0.5558832E+03  0.7546771E-02  0.1000141E+00
         -2   -1    0    0    0  501 -0.00000000000E+00  0.00000000000E+00  0.41086186991E+02  0.41086186991E+02  0.00000000000E+00 0. -1.
          2   -1    0    0  502    0  0.00000000000E+00 -0.00000000000E+00 -0.18802314616E+04  0.18802314616E+04  0.00000000000E+00 0.  1.
         25    1    1    2    0    0 -0.13520349022E+03 -0.17972865634E+03 -0.48896958323E+03  0.55253834889E+03  0.12500000000E+03 0.  0.
         21    1    1    2  502  501  0.13520349022E+03  0.17972865634E+03 -0.13501756913E+04  0.13687792997E+04  0.00000000000E+00 0.  1.
<mgrwt>
<rscale>  3 0.55588323E+03</rscale>
<asrwt>0</asrwt>
<pdfrwt beam="1">  1        2 0.28926641E+00 0.55588323E+03</pdfrwt>
<pdfrwt beam="2">  1       -2 0.63209512E-02 0.55588323E+03</pdfrwt>
<totfact> 0.11485862E+03</totfact>
</mgrwt>
</event>
<event>
 4    0  0.1264838E-002  0.6047128E+03  0.7546771E-02  0.9895676E-01
         -1   -1    0    0    0  501 -0.00000000000E+00  0.00000000000E+00  0.10438043373E+03  0.10438043373E+03  0.00000000000E+00 0.  1.
          1   -1    0    0  502    0  0.00000000000E+00 -0.00000000000E+00 -0.87582891532E+03  0.87582891532E+03  0.00000000000E+00 0. -1.
         25    1    1    2    0    0 -0.21235776757E+03 -0.17730712561E+03 -0.26428044521E+03  0.40249570427E+03  0.12500000000E+03 0.  0.
         21    1    1    2  502  501  0.21235776757E+03  0.17730712561E+03 -0.50716803638E+03  0.57771364478E+03  0.00000000000E+00 0.  1.
<mgrwt>
<rscale>  3 0.60471283E+03</rscale>
<asrwt>0</asrwt>
<pdfrwt beam="1">  1        1 0.13474291E+00 0.60471283E+03</pdfrwt>
<pdfrwt beam="2">  1       -1 0.16058528E-01 0.60471283E+03</pdfrwt>
<totfact> 0.56752895E+02</totfact>
</mgrwt>
</event>
<event>
 4    0  0.1264838E-002  0.5934341E+03  0.7546771E-02  0.9919123E-01
         -2   -1    0    0    0  501 -0.00000000000E+00  0.00000000000E+00  0.37115399566E+02  0.37115399566E+02  0.00000000000E+00 0. -1.
          2   -1    0    0  502    0  0.00000000000E+00 -0.00000000000E+00 -0.23720881101E+04  0.23720881101E+04  0.00000000000E+00 0.  1.
         25    1    1    2    0    0 -0.21435763491E+03 -0.15692609737E+03 -0.16217318558E+04  0.16480941137E+04  0.12500000000E+03 0.  0.
         21    1    1    2  502  501  0.21435763491E+03  0.15692609737E+03 -0.71324085472E+03  0.76110939589E+03  0.00000000000E+00 0. -1.
<mgrwt>
<rscale>  3 0.59343407E+03</rscale>
<asrwt>0</asrwt>
<pdfrwt beam="1">  1        2 0.36493670E+00 0.59343407E+03</pdfrwt>
<pdfrwt beam="2">  1       -2 0.57100605E-02 0.59343407E+03</pdfrwt>
<totfact> 0.72443306E+02</totfact>
</mgrwt>
</event>
<event>
 4    0  0.1264838E-002  0.7574163E+03  0.7546771E-02  0.9623787E-01
         -2   -1    0    0    0  501 -0.00000000000E+00  0.00000000000E+00  0.31560391564E+03  0.31560391564E+03  0.00000000000E+00 0.  1.
          2   -1    0    0  502    0  0.00000000000E+00 -0.00000000000E+00 -0.45442996998E+03  0.45442996998E+03  0.00000000000E+00 0. -1.
         25    1    1    2    0    0 -0.72142806433E+02 -0.23360260961E+03 -0.35146455622E+03  0.44601244155E+03  0.12500000000E+03 0.  0.
         21    1    1    2  502  501  0.72142806433E+02  0.23360260961E+03  0.21263850187E+03  0.32402144407E+03  0.00000000000E+00 0.  1.
<mgrwt>
<rscale>  3 0.75741634E+03</rscale>
<asrwt>0</asrwt>
<pdfrwt beam="1">  1        2 0.69912303E-01 0.75741634E+03</pdfrwt>
<pdfrwt beam="2">  1       -2 0.48554449E-01 0.75741634E+03</pdfrwt>
<totfact> 0.27851499E+02</totfact>
</mgrwt>
</event>
<event>
 4    0  0.1264838E-002  0.5361852E+03  0.7546771E-02  0.1004743E+00
          1   -1    0    0  502    0  0.00000000000E+00  0.00000000000E+00  0.36594657538E+03  0.36594657538E+03  0.00000000000E+00 0.  1.
         -1   -1    0    0    0  501 -0.00000000000E+00 -0.00000000000E+00 -0.19640472184E+03  0.19640472184E+03  0.00000000000E+00 0. -1.
         25    1    1    2    0    0 -0.68310811715E+02  0.21527876264E+03 -0.31403093565E+02  0.26004320204E+03  0.12500000000E+03 0.  0.
         21    1    1    2  502  501  0.68310811715E+02 -0.21527876264E+03  0.20094494711E+03  0.30230809518E+03  0.00000000000E+00 0.  1.
<mgrwt>
<rscale>  3 0.53618517E+03</rscale>
<asrwt>0</asrwt>
<pdfrwt beam="1">  1        1 0.56299473E-01 0.53618517E+03</pdfrwt>
<pdfrwt beam="2">  1       -1 0.30216111E-01 0.53618517E+03</pdfrwt>
<totfact> 0.68560060E+02</totfact>
</mgrwt>
</event>
<event>
 4    0  0.1264838E-002  0.5958947E+03  0.7546771E-02  0.9913960E-01
          3   -1    0    0  502    0  0.00000000000E+00  0.00000000000E+00  0.59262210546E+03  0.59262210546E+03  0.00000000000E+00 0. -1.
         -3   -1    0    0    0  501 -0.00000000000E+00 -0.00000000000E+00 -0.14979634285E+03  0.14979634285E+03  0.00000000000E+00 0.  1.
         25    1    1    2    0    0  0.74594136301E+02 -0.26503602176E+03  0.32205973782E+03  0.44176447653E+03  0.12500000000E+03 0.  0.
         21    1    1    2  502  501 -0.74594136301E+02  0.26503602176E+03  0.12076602478E+03  0.30065397177E+03  0.00000000000E+00 0.  1.
<mgrwt>
<rscale>  3 0.59589470E+03</rscale>
<asrwt>0</asrwt>
<pdfrwt beam="1">  1        3 0.91172630E-01 0.59589470E+03</pdfrwt>
<pdfrwt beam="2">  1       -3 0.23045591E-01 0.59589470E+03</pdfrwt>
<totfact> 0.50519625E+01</totfact>
</mgrwt>
</event>
<event>
 4    0  0.1496740E-002  0.5332960E+03  0.7546771E-02  0.1005436E+00
         -2   -1    0    0    0  501 -0.00000000000E+00  0.00000000000E+00  0.38420538481E+02  0.38420538481E+02  0.00000000000E+00 0. -1.
          2   -1    0    0  502    0  0.00000000000E+00 -0.00000000000E+00 -0.18506024508E+04  0.18506024508E+04  0.00000000000E+00 0.  1.
         25    1    1    2    0    0  0.19289244026E+03  0.61911940165E+02 -0.42498701373E+03  0.48711348132E+03  0.12500000000E+03 0.  0.
         21    1    1    2  502  501 -0.19289244026E+03 -0.61911940165E+02 -0.13871948986E+04  0.14019095080E+04  0.00000000000E+00 0.  1.
<mgrwt>
<rscale>  3 0.53329595E+03</rscale>
<asrwt>0</asrwt>
<pdfrwt beam="1">  1        2 0.28470808E+00 0.53329595E+03</pdfrwt>
<pdfrwt beam="2">  1       -2 0.59108519E-02 0.53329595E+03</pdfrwt>
<totfact> 0.13251553E+03</totfact>
</mgrwt>
</event>
<event>
 4    0  0.1264838E-002  0.5531505E+03  0.7546771E-02  0.1000767E+00
         -2   -1    0    0    0  501 -0.00000000000E+00  0.00000000000E+00  0.30772698837E+02  0.30772698837E+02  0.00000000000E+00 0. -1.
          2   -1    0    0  502    0  0.00000000000E+00 -0.00000000000E+00 -0.24857705553E+04  0.24857705553E+04  0.00000000000E+00 0.  1.
         25    1    1    2    0    0 -0.10803702255E+03  0.23915212816E+03 -0.12724996661E+04  0.13052762692E+04  0.12500000000E+03 0.  0.
         21    1    1    2  502  501  0.10803702255E+03 -0.23915212816E+03 -0.11824981903E+04  0.12112669849E+04  0.00000000000E+00 0. -1.
<mgrwt>
<rscale>  3 0.55315050E+03</rscale>
<asrwt>0</asrwt>
<pdfrwt beam="1">  1        2 0.38242627E+00 0.55315050E+03</pdfrwt>
<pdfrwt beam="2">  1       -2 0.47342610E-02 0.55315050E+03</pdfrwt>
<totfact> 0.84044027E+02</totfact>
</mgrwt>
</event>
<event>
 4    0  0.1264838E-002  0.8719103E+03  0.7546771E-02  0.9461392E-01
          1   -1    0    0  502    0  0.00000000000E+00  0.00000000000E+00  0.10791673760E+04  0.10791673760E+04  0.00000000000E+00 0. -1.
         -1   -1    0    0    0  501 -0.00000000000E+00 -0.00000000000E+00 -0.17611439764E+03  0.17611439764E+03  0.00000000000E+00 0.  1.
         25    1    1    2    0    0 -0.86853425050E+02 -0.22017195941E+03  0.97246560384E+03  0.10086295454E+04  0.12500000000E+03 0.  0.
         21    1    1    2  502  501  0.86853425050E+02  0.22017195941E+03 -0.69412625442E+02  0.24665222830E+03  0.00000000000E+00 0.  1.
<mgrwt>
<rscale>  3 0.87191034E+03</rscale>
<asrwt>0</asrwt>
<pdfrwt beam="1">  1        1 0.16602575E+00 0.87191034E+03</pdfrwt>
<pdfrwt beam="2">  1       -1 0.27094524E-01 0.87191034E+03</pdfrwt>
<totfact> 0.16147178E+02</totfact>
</mgrwt>
</event>
<event>
 4    0  0.1264838E-002  0.6697124E+03  0.7546771E-02  0.9770478E-01
         -1   -1    0    0    0  501 -0.00000000000E+00  0.00000000000E+00  0.21157699069E+03  0.21157699069E+03  0.00000000000E+00 0.  1.
          1   -1    0    0  502    0  0.00000000000E+00 -0.00000000000E+00 -0.52996625074E+03  0.52996625074E+03  0.00000000000E+00 0. -1.
         25    1    1    2    0    0 -0.25478237020E+03 -0.87735008325E+02  0.32838057523E+02  0.29885586137E+03  0.12500000000E+03 0.  0.
         21    1    1    2  502  501  0.25478237020E+03  0.87735008325E+02 -0.35122731758E+03  0.44268738006E+03  0.00000000000E+00 0. -1.
<mgrwt>
<rscale>  3 0.66971237E+03</rscale>
<asrwt>0</asrwt>
<pdfrwt beam="1">  1        1 0.81533268E-01 0.66971237E+03</pdfrwt>
<pdfrwt beam="2">  1       -1 0.32550307E-01 0.66971237E+03</pdfrwt>
<totfact> 0.36528864E+02</totfact>
</mgrwt>
</event>
<event>
 4    0  0.1264838E-002  0.5008068E+03  0.7546771E-02  0.1013569E+00
         -2   -1    0    0    0  501 -0.00000000000E+00  0.00000000000E+00  0.11754112946E+03  0.11754112946E+03  0.00000000000E+00 0. -1.
          2   -1    0    0  502    0  0.00000000000E+00 -0.00000000000E+00 -0.53344616932E+03  0.53344616932E+03  0.00000000000E+00 0.  1.
         25    1    1    2    0    0  0.14571199418E+03  0.15933147669E+03 -0.10096479401E+03  0.26914195946E+03  0.12500000000E+03 0.  0.
         21    1    1    2  502  501 -0.14571199418E+03 -0.15933147669E+03 -0.31494024584E+03  0.38184533932E+03  0.00000000000E+00 0.  1.
<mgrwt>
<rscale>  3 0.50080681E+03</rscale>
<asrwt>0</asrwt>
<pdfrwt beam="1">  1        2 0.82068640E-01 0.50080681E+03</pdfrwt>
<pdfrwt beam="2">  1       -2 0.18083251E-01 0.50080681E+03</pdfrwt>
<totfact> 0.14513007E+03</totfact>
</mgrwt>
</event>
<event>
 4    0  0.1264838E-002  0.4831694E+03  0.7546771E-02  0.1018268E+00
          1   -1    0    0  502    0  0.00000000000E+00  0.00000000000E+00  0.35881412157E+03  0.35881412157E+03  0.00000000000E+00 0.  1.
         -1   -1    0    0    0  501 -0.00000000000E+00 -0.00000000000E+00 -0.16265569984E+03  0.16265569984E+03  0.00000000000E+00 0. -1.
         25    1    1    2    0    0  0.71465454939E+01 -0.22252953512E+03  0.14267377983E+03  0.29249149485E+03  0.12500000000E+03 0.  0.
         21    1    1    2  502  501 -0.71465454939E+01  0.22252953512E+03  0.53484641900E+02  0.22897832655E+03  0.00000000000E+00 0.  1.
<mgrwt>
<rscale>  3 0.48316938E+03</rscale>
<asrwt>0</asrwt>
<pdfrwt beam="1">  1        1 0.55202172E-01 0.48316938E+03</pdfrwt>
<pdfrwt beam="2">  1       -1 0.25023954E-01 0.48316938E+03</pdfrwt>
<totfact> 0.97180839E+02</totfact>
</mgrwt>
</event>
<event>
 4    0  0.1264838E-002  0.7195411E+03  0.7546771E-02  0.9684386E-01
         -2   -1    0    0    0  501 -0.00000000000E+00  0.00000000000E+00  0.69924062547E+02  0.69924062547E+02  0.00000000000E+00 0.  1.
          2   -1    0    0  502    0  0.00000000000E+00 -0.00000000000E+00 -0.18510773168E+04  0.18510773168E+04  0.00000000000E+00 0. -1.
         25    1    1    2    0    0 -0.44220010625E+02 -0.33980130913E+03 -0.74198124711E+03  0.82678988267E+03  0.12500000000E+03 0.  0.
         21    1    1    2  502  501  0.44220010625E+02  0.33980130913E+03 -0.10391720071E+04  0.10942114966E+04  0.00000000000E+00 0. -1.
<mgrwt>
<rscale>  3 0.71954109E+03</rscale>
<asrwt>0</asrwt>
<pdfrwt beam="1">  1        2 0.28478112E+00 0.71954109E+03</pdfrwt>
<pdfrwt beam="2">  1       -2 0.10757548E-01 0.71954109E+03</pdfrwt>
<totfact> 0.50327146E+02</totfact>
</mgrwt>
</event>
<event>
 4    0  0.1264838E-002  0.6167949E+03  0.7546771E-02  0.9871162E-01
         -2   -1    0    0    0  501 -0.00000000000E+00  0.00000000000E+00  0.31544386620E+02  0.31544386620E+02  0.00000000000E+00 0.  1.
          2   -1    0    0  502    0  0.00000000000E+00 -0.00000000000E+00 -0.30150841465E+04  0.30150841465E+04  0.00000000000E+00 0. -1.
         25    1    1    2    0    0 -0.18922272686E+03 -0.16346383862E+03 -0.23329600713E+04  0.23496496252E+04  0.12500000000E+03 0.  0.
         21    1    1    2  502  501  0.18922272686E+03  0.16346383862E+03 -0.65057968855E+03  0.69697890789E+03  0.00000000000E+00 0.  1.
<mgrwt>
<rscale>  3 0.61679488E+03</rscale>
<asrwt>0</asrwt>
<pdfrwt beam="1">  1        2 0.46385917E+00 0.61679488E+03</pdfrwt>
<pdfrwt beam="2">  1       -2 0.48529818E-02 0.61679488E+03</pdfrwt>
<totfact> 0.39475144E+02</totfact>
</mgrwt>
</event>
<event>
 4    0  0.1264838E-002  0.4658516E+03  0.7546771E-02  0.1023098E+00
          2   -1    0    0  502    0  0.00000000000E+00  0.00000000000E+00  0.23404953613E+04  0.23404953613E+04  0.00000000000E+00 0. -1.
         -2   -1    0    0    0  501 -0.00000000000E+00 -0.00000000000E+00 -0.23180742501E+02  0.23180742501E+02  0.00000000000E+00 0.  1.
         25    1    1    2    0    0 -0.13809349111E+03 -0.16013465130E+03  0.10145877338E+04  0.10438995107E+04  0.12500000000E+03 0.  0.
         21    1    1    2  502  501  0.13809349111E+03  0.16013465130E+03  0.13027268850E+04  0.13197765931E+04  0.00000000000E+00 0. -1.
<mgrwt>
<rscale>  3 0.46585157E+03</rscale>
<asrwt>0</asrwt>
<pdfrwt beam="1">  1        2 0.36007602E+00 0.46585157E+03</pdfrwt>
<pdfrwt beam="2">  1       -2 0.35662699E-02 0.46585157E+03</pdfrwt>
<totfact> 0.15728150E+03</totfact>
</mgrwt>
</event>
<event>
 4    0  0.1583946E-002  0.7253898E+03  0.7546771E-02  0.9674771E-01
         -1   -1    0    0    0  501 -0.00000000000E+00  0.00000000000E+00  0.12864719067E+03  0.12864719067E+03  0.00000000000E+00 0. -1.
          1   -1    0    0  502    0  0.00000000000E+00 -0.00000000000E+00 -0.10225454335E+04  0.10225454335E+04  0.00000000000E+00 0.  1.
         25    1    1    2    0    0  0.19650569199E+03  0.13419129350E+03 -0.48734348102E+02  0.27316995977E+03  0.12500000000E+03 0.  0.
         21    1    1    2  502  501 -0.19650569199E+03 -0.13419129350E+03 -0.84516389473E+03  0.87802266439E+03  0.00000000000E+00 0.  1.
<mgrwt>
<rscale>  3 0.72538982E+03</rscale>
<asrwt>0</asrwt>
<pdfrwt beam="1">  1        1 0.15731469E+00 0.72538982E+03</pdfrwt>
<pdfrwt beam="2">  1       -1 0.19791875E-01 0.72538982E+03</pdfrwt>
<totfact> 0.30612040E+02</totfact>
</mgrwt>
</event>
<event>
 4    0  0.1264838E-002  0.7829088E+03  0.7546771E-02  0.9585091E-01
         -1   -1    0    0    0  501 -0.00000000000E+00  0.00000000000E+00  0.14713843882E+03  0.14713843882E+03  0.00000000000E+00 0. -1.
          1   -1    0    0  502    0  0.00000000000E+00 -0.00000000000E+00 -0.10414446907E+04  0.10414446907E+04  0.00000000000E+00 0.  1.
         25    1    1    2    0    0 -0.21841386219E+03  0.65829351680E+02 -0.92273617353E+03  0.95869972602E+03  0.12500000000E+03 0.  0.
         21    1    1    2  502  501  0.21841386219E+03 -0.65829351680E+02  0.28429921677E+02  0.22988340346E+03  0.00000000000E+00 0. -1.
<mgrwt>
<rscale>  3 0.78290880E+03</rscale>
<asrwt>0</asrwt>
<pdfrwt beam="1">  1        1 0.16022226E+00 0.78290880E+03</pdfrwt>
<pdfrwt beam="2">  1       -1 0.22636683E-01 0.78290880E+03</pdfrwt>
<totfact> 0.23564652E+02</totfact>
</mgrwt>
</event>
<event>
 4    0  0.1264838E-002  0.9723046E+03  0.7546771E-02  0.9339453E-01
         -2   -1    0    0    0  501 -0.00000000000E+00  0.00000000000E+00  0.70442250435E+03  0.70442250435E+03  0.00000000000E+00 0. -1.
          2   -1    0    0  502    0  0.00000000000E+00 -0.00000000000E+00 -0.33551461667E+03  0.33551461667E+03  0.00000000000E+00 0.  1.
         25    1    1    2    0    0 -0.23843187685E+03 -0.41438255580E+03  0.19368807720E+03  0.53075675568E+03  0.12500000000E+03 0.  0.
         21    1    1    2  502  501  0.23843187685E+03  0.41438255580E+03  0.17521981048E+03  0.50918036533E+03  0.00000000000E+00 0. -1.
<mgrwt>
<rscale>  3 0.97230457E+03</rscale>
<asrwt>0</asrwt>
<pdfrwt beam="1">  1        2 0.51617633E-01 0.97230457E+03</pdfrwt>
<pdfrwt beam="2">  1       -2 0.10837269E+00 0.97230457E+03</pdfrwt>
<totfact> 0.65982177E+01</totfact>
</mgrwt>
</event>
<event>
 4    0  0.1264838E-002  0.4545733E+03  0.7546771E-02  0.1026367E+00
         -1   -1    0    0    0  501 -0.00000000000E+00  0.00000000000E+00  0.96054821324E+03  0.96054821324E+03  0.00000000000E+00 0. -1.
          1   -1    0    0  502    0  0.00000000000E+00 -0.00000000000E+00 -0.53780985138E+02  0.53780985138E+02  0.00000000000E+00 0.  1.
         25    1    1    2    0    0  0.17993364049E+03 -0.10451012367E+03  0.42285550822E+03  0.48757590359E+03  0.12500000000E+03 0.  0.
         21    1    1    2  502  501 -0.17993364049E+03  0.10451012367E+03  0.48391171988E+03  0.52675329478E+03  0.00000000000E+00 0. -1.
<mgrwt>
<rscale>  3 0.45457333E+03</rscale>
<asrwt>0</asrwt>
<pdfrwt beam="1">  1        1 0.82739984E-02 0.45457333E+03</pdfrwt>
<pdfrwt beam="2">  1       -1 0.14777664E+00 0.45457333E+03</pdfrwt>
<totfact> 0.32478557E+02</totfact>
</mgrwt>
</event>
<event>
 4    0  0.1264838E-002  0.8438070E+03  0.7546771E-02  0.9498687E-01
          2   -1    0    0  502    0  0.00000000000E+00  0.00000000000E+00  0.81681882406E+03  0.81681882406E+03  0.00000000000E+00 0.  1.
         -2   -1    0    0    0  501 -0.00000000000E+00 -0.00000000000E+00 -0.21792173988E+03  0.21792173988E+03  0.00000000000E+00 0. -1.
         25    1    1    2    0    0  0.13782602232E+03  0.20560766830E+03  0.71088664292E+03  0.76305658032E+03  0.12500000000E+03 0.  0.
         21    1    1    2  502  501 -0.13782602232E+03 -0.20560766830E+03 -0.11198955874E+03  0.27168398362E+03  0.00000000000E+00 0. -1.
<mgrwt>
<rscale>  3 0.84380704E+03</rscale>
<asrwt>0</asrwt>
<pdfrwt beam="1">  1        2 0.12566443E+00 0.84380704E+03</pdfrwt>
<pdfrwt beam="2">  1       -2 0.33526422E-01 0.84380704E+03</pdfrwt>
<totfact> 0.27958119E+02</totfact>
</mgrwt>
</event>
<event>
 4    0  0.1264838E-002  0.6773397E+03  0.7546771E-02  0.9756789E-01
          2   -1    0    0  502    0  0.00000000000E+00  0.00000000000E+00  0.10322091215E+03  0.10322091215E+03  0.00000000000E+00 0. -1.
         -2   -1    0    0    0  501 -0.00000000000E+00 -0.00000000000E+00 -0.11111825663E+04  0.11111825663E+04  0.00000000000E+00 0.  1.
         25    1    1    2    0    0 -0.10583043561E+03  0.19788826874E+03 -0.94381747331E+02  0.27366542024E+03  0.12500000000E+03 0.  0.
         21    1    1    2  502  501  0.10583043561E+03 -0.19788826874E+03 -0.91357990685E+03  0.94073805823E+03  0.00000000000E+00 0.  1.
<mgrwt>
<rscale>  3 0.67733973E+03</rscale>
<asrwt>0</asrwt>
<pdfrwt beam="1">  1        2 0.15880140E-01 0.67733973E+03</pdfrwt>
<pdfrwt beam="2">  1       -2 0.17095117E+00 0.67733973E+03</pdfrwt>
<totfact> 0.79832316E+01</totfact>
</mgrwt>
</event>
<event>
 4    0  0.1361976E-002  0.6835648E+03  0.7546771E-02  0.9745759E-01
          2   -1    0    0  502    0  0.00000000000E+00  0.00000000000E+00  0.51923596425E+03  0.51923596425E+03  0.00000000000E+00 0.  1.
         -2   -1    0    0    0  501 -0.00000000000E+00 -0.00000000000E+00 -0.22497516936E+03  0.22497516936E+03  0.00000000000E+00 0. -1.
         25    1    1    2    0    0 -0.12537782725E+03 -0.18342944580E+03 -0.11411314532E+03  0.27930766386E+03  0.12500000000E+03 0.  0.
         21    1    1    2  502  501  0.12537782725E+03  0.18342944580E+03  0.40837394021E+03  0.46490346976E+03  0.00000000000E+00 0.  1.
<mgrwt>
<rscale>  3 0.68356477E+03</rscale>
<asrwt>0</asrwt>
<pdfrwt beam="1">  1        2 0.79882456E-01 0.68356477E+03</pdfrwt>
<pdfrwt beam="2">  1       -2 0.34611565E-01 0.68356477E+03</pdfrwt>
<totfact> 0.46438906E+02</totfact>
</mgrwt>
</event>
<event>
 4    0  0.1264838E-002  0.6812056E+03  0.7546771E-02  0.9749924E-01
          2   -1    0    0  502    0  0.00000000000E+00  0.00000000000E+00  0.16535415933E+04  0.16535415933E+04  0.00000000000E+00 0.  1.
         -2   -1    0    0    0  501 -0.00000000000E+00 -0.00000000000E+00 -0.70158668813E+02  0.70158668813E+02  0.00000000000E+00 0. -1.
         25    1    1    2    0    0 -0.30021522033E+03  0.34363360731E+02  0.11484555699E+04  0.11941043569E+04  0.12500000000E+03 0.  0.
         21    1    1    2  502  501  0.30021522033E+03 -0.34363360731E+02  0.43492735461E+03  0.52959590525E+03  0.00000000000E+00 0. -1.
<mgrwt>
<rscale>  3 0.68120563E+03</rscale>
<asrwt>0</asrwt>
<pdfrwt beam="1">  1        2 0.25439099E+00 0.68120563E+03</pdfrwt>
<pdfrwt beam="2">  1       -2 0.10793643E-01 0.68120563E+03</pdfrwt>
<totfact> 0.64289666E+02</totfact>
</mgrwt>
</event>
<event>
 4    0  0.1264838E-002  0.6780570E+03  0.7546771E-02  0.9755511E-01
         -3   -1    0    0    0  501 -0.00000000000E+00  0.00000000000E+00  0.99373220428E+03  0.99373220428E+03  0.00000000000E+00 0.  1.
          3   -1    0    0  502    0  0.00000000000E+00 -0.00000000000E+00 -0.11566528230E+03  0.11566528230E+03  0.00000000000E+00 0. -1.
         25    1    1    2    0    0  0.21298118574E+03  0.23965653216E+03  0.56327391599E+03  0.66007480131E+03  0.12500000000E+03 0.  0.
         21    1    1    2  502  501 -0.21298118574E+03 -0.23965653216E+03  0.31479300598E+03  0.44932268527E+03  0.00000000000E+00 0. -1.
<mgrwt>
<rscale>  3 0.67805698E+03</rscale>
<asrwt>0</asrwt>
<pdfrwt beam="1">  1        3 0.17794660E-01 0.67805698E+03</pdfrwt>
<pdfrwt beam="2">  1       -3 0.15288187E+00 0.67805698E+03</pdfrwt>
<totfact> 0.22969922E+01</totfact>
</mgrwt>
</event>
<event>
 4    0  0.1264838E-002  0.4860023E+03  0.7546771E-02  0.1017498E+00
          2   -1    0    0  502    0  0.00000000000E+00  0.00000000000E+00  0.94368880466E+03  0.94368880466E+03  0.00000000000E+00 0.  1.
         -2   -1    0    0    0  501 -0.00000000000E+00 -0.00000000000E+00 -0.62573120538E+02  0.62573120538E+02  0.00000000000E+00 0. -1.
         25    1    1    2    0    0  0.19582049782E+03  0.87254710014E+02  0.31564275769E+03  0.40151513330E+03  0.12500000000E+03 0.  0.
         21    1    1    2  502  501 -0.19582049782E+03 -0.87254710014E+02  0.56547292644E+03  0.60474679190E+03  0.00000000000E+00 0.  1.
<mgrwt>
<rscale>  3 0.48600228E+03</rscale>
<asrwt>0</asrwt>
<pdfrwt beam="1">  1        2 0.14518288E+00 0.48600228E+03</pdfrwt>
<pdfrwt beam="2">  1       -2 0.96266346E-02 0.48600228E+03</pdfrwt>
<totfact> 0.20104416E+03</totfact>
</mgrwt>
</event>
<event>
 4    0  0.1264838E-002  0.5364427E+03  0.7546771E-02  0.1004682E+00
         -2   -1    0    0    0  501 -0.00000000000E+00  0.00000000000E+00  0.21311552961E+02  0.21311552961E+02  0.00000000000E+00 0. -1.
          2   -1    0    0  502    0  0.00000000000E+00 -0.00000000000E+00 -0.33757601501E+04  0.33757601501E+04  0.00000000000E+00 0.  1.
         25    1    1    2    0    0 -0.24926800992E+03  0.49978719642E+01 -0.14724327542E+04  0.14986136043E+04  0.12500000000E+03 0.  0.
         21    1    1    2  502  501  0.24926800992E+03 -0.49978719642E+01 -0.18820158429E+04  0.18984580987E+04  0.00000000000E+00 0.  1.
<mgrwt>
<rscale>  3 0.53644269E+03</rscale>
<asrwt>0</asrwt>
<pdfrwt beam="1">  1        2 0.51934722E+00 0.53644269E+03</pdfrwt>
<pdfrwt beam="2">  1       -2 0.32787036E-02 0.53644269E+03</pdfrwt>
<totfact> 0.43078289E+02</totfact>
</mgrwt>
</event>
<event>
 4    0  0.1264838E-002  0.5500362E+03  0.7546771E-02  0.1001486E+00
          2   -1    0    0  502    0  0.00000000000E+00  0.00000000000E+00  0.19417802801E+04  0.19417802801E+04  0.00000000000E+00 0.  1.
         -2   -1    0    0    0  501 -0.00000000000E+00 -0.00000000000E+00 -0.38951344247E+02  0.38951344247E+02  0.00000000000E+00 0. -1.
         25    1    1    2    0    0 -0.21755227042E+03  0.75481368959E+02  0.55954208302E+03  0.61785011944E+03  0.12500000000E+03 0.  0.
         21    1    1    2  502  501  0.21755227042E+03 -0.75481368959E+02  0.13432868529E+04  0.13628815049E+04  0.00000000000E+00 0.  1.
<mgrwt>
<rscale>  3 0.55003619E+03</rscale>
<asrwt>0</asrwt>
<pdfrwt beam="1">  1        2 0.29873535E+00 0.55003619E+03</pdfrwt>
<pdfrwt beam="2">  1       -2 0.59925160E-02 0.55003619E+03</pdfrwt>
<totfact> 0.11571921E+03</totfact>
</mgrwt>
</event>
<event>
 4    0  0.1264838E-002  0.5427070E+03  0.7546771E-02  0.1003196E+00
         -1   -1    0    0    0  501 -0.00000000000E+00  0.00000000000E+00  0.25298329562E+02  0.25298329562E+02  0.00000000000E+00 0. -1.
          1   -1    0    0  502    0  0.00000000000E+00 -0.00000000000E+00 -0.29105759780E+04  0.29105759780E+04  0.00000000000E+00 0.  1.
         25    1    1    2    0    0 -0.89043262500E+02 -0.22009434320E+03 -0.20507874982E+04  0.20682660818E+04  0.12500000000E+03 0.  0.
         21    1    1    2  502  501  0.89043262500E+02  0.22009434320E+03 -0.83449015026E+03  0.86760822575E+03  0.00000000000E+00 0. -1.
<mgrwt>
<rscale>  3 0.54270696E+03</rscale>
<asrwt>0</asrwt>
<pdfrwt beam="1">  1        1 0.44778043E+00 0.54270696E+03</pdfrwt>
<pdfrwt beam="2">  1       -1 0.38920549E-02 0.54270696E+03</pdfrwt>
<totfact> 0.20406435E+02</totfact>
</mgrwt>
</event>
<event>
 4    0  0.1529453E-002  0.8323247E+03  0.7546771E-02  0.9514372E-01
          1   -1    0    0  502    0  0.00000000000E+00  0.00000000000E+00  0.11163388405E+04  0.11163388405E+04  0.00000000000E+00 0.  1.
         -1   -1    0    0    0  501 -0.00000000000E+00 -0.00000000000E+00 -0.15514204847E+03  0.15514204847E+03  0.00000000000E+00 0. -1.
         25    1    1    2    0    0  0.24251580616E+03  0.18487670569E+02 -0.66499860148E+01  0.27354146398E+03  0.12500000000E+03 0.  0.
         21    1    1    2  502  501 -0.24251580616E+03 -0.18487670569E+02  0.96784677804E+03  0.99793942499E+03  0.00000000000E+00 0.  1.
<mgrwt>
<rscale>  3 0.83232468E+03</rscale>
<asrwt>0</asrwt>
<pdfrwt beam="1">  1        1 0.17174443E+00 0.83232468E+03</pdfrwt>
<pdfrwt beam="2">  1       -1 0.23868008E-01 0.83232468E+03</pdfrwt>
<totfact> 0.18861784E+02</totfact>
</mgrwt>
</event>
<event>
 4    0  0.1264838E-002  0.6462996E+03  0.7546771E-02  0.9813748E-01
         -2   -1    0    0    0  501 -0.00000000000E+00  0.00000000000E+00  0.18230328661E+03  0.18230328661E+03  0.00000000000E+00 0.  1.
          2   -1    0    0  502    0  0.00000000000E+00 -0.00000000000E+00 -0.57281361633E+03  0.57281361633E+03  0.00000000000E+00 0. -1.
         25    1    1    2    0    0 -0.37722587210E+02  0.23221657572E+03 -0.44032127296E+03  0.51464099627E+03  0.12500000000E+03 0.  0.
         21    1    1    2  502  501  0.37722587210E+02 -0.23221657572E+03  0.49810943241E+02  0.24047590667E+03  0.00000000000E+00 0.  1.
<mgrwt>
<rscale>  3 0.64629964E+03</rscale>
<asrwt>0</asrwt>
<pdfrwt beam="1">  1        2 0.88125171E-01 0.64629964E+03</pdfrwt>
<pdfrwt beam="2">  1       -2 0.28046660E-01 0.64629964E+03</pdfrwt>
<totfact> 0.61283860E+02</totfact>
</mgrwt>
</event>
<event>
 4    0  0.1264838E-002  0.5767573E+03  0.7546771E-02  0.9954836E-01
          2   -1    0    0  502    0  0.00000000000E+00  0.00000000000E+00  0.33491875001E+03  0.33491875001E+03  0.00000000000E+00 0.  1.
         -2   -1    0    0    0  501 -0.00000000000E+00 -0.00000000000E+00 -0.24830572510E+03  0.24830572510E+03  0.00000000000E+00 0. -1.
         25    1    1    2    0    0 -0.24159617015E+03 -0.12638071756E+03  0.10421898205E+02  0.30012399298E+03  0.12500000000E+03 0.  0.
         21    1    1    2  502  501  0.24159617015E+03  0.12638071756E+03  0.76191126705E+02  0.28310048214E+03  0.00000000000E+00 0.  1.
<mgrwt>
<rscale>  3 0.57675729E+03</rscale>
<asrwt>0</asrwt>
<pdfrwt beam="1">  1        2 0.51525961E-01 0.57675729E+03</pdfrwt>
<pdfrwt beam="2">  1       -2 0.38200881E-01 0.57675729E+03</pdfrwt>
<totfact> 0.63230780E+02</totfact>
</mgrwt>
</event>
<event>
 4    0  0.1264838E-002  0.4670261E+03  0.7546771E-02  0.1022763E+00
          3   -1    0    0  502    0  0.00000000000E+00  0.00000000000E+00  0.43060630716E+03  0.43060630716E+03  0.00000000000E+00 0. -1.
         -3   -1    0    0    0  501 -0.00000000000E+00 -0.00000000000E+00 -0.12663153597E+03  0.12663153597E+03  0.00000000000E+00 0.  1.
         25    1    1    2    0    0  0.20077166363E+03 -0.60380853289E+02  0.97082812782E+02  0.26268837222E+03  0.12500000000E+03 0.  0.
         21    1    1    2  502  501 -0.20077166363E+03  0.60380853289E+02  0.20689195841E+03  0.29454947091E+03  0.00000000000E+00 0. -1.
<mgrwt>
<rscale>  3 0.46702607E+03</rscale>
<asrwt>0</asrwt>
<pdfrwt beam="1">  1        3 0.66247124E-01 0.46702607E+03</pdfrwt>
<pdfrwt beam="2">  1       -3 0.19481775E-01 0.46702607E+03</pdfrwt>
<totfact> 0.13739679E+02</totfact>
</mgrwt>
</event>
<event>
 4    0  0.1264838E-002  0.6303489E+03  0.7546771E-02  0.9844368E-01
         -2   -1    0    0    0  501 -0.00000000000E+00  0.00000000000E+00  0.29048141535E+03  0.29048141535E+03  0.00000000000E+00 0. -1.
          2   -1    0    0  502    0  0.00000000000E+00 -0.00000000000E+00 -0.34196661196E+03  0.34196661196E+03  0.00000000000E+00 0.  1.
         25    1    1    2    0    0 -0.98343040562E+02  0.27785628229E+03 -0.96271900801E+02  0.33431833051E+03  0.12500000000E+03 0.  0.
         21    1    1    2  502  501  0.98343040562E+02 -0.27785628229E+03  0.44786704191E+02  0.29812969679E+03  0.00000000000E+00 0. -1.
<mgrwt>
<rscale>  3 0.63034894E+03</rscale>
<asrwt>0</asrwt>
<pdfrwt beam="1">  1        2 0.52610248E-01 0.63034894E+03</pdfrwt>
<pdfrwt beam="2">  1       -2 0.44689449E-01 0.63034894E+03</pdfrwt>
<totfact> 0.45428994E+02</totfact>
</mgrwt>
</event>
<event>
 4    0  0.1264838E-002  0.5845719E+03  0.7546771E-02  0.9937942E-01
          1   -1    0    0  502    0  0.00000000000E+00  0.00000000000E+00  0.11014814037E+03  0.11014814037E+03  0.00000000000E+00 0. -1.
         -1   -1    0    0    0  501 -0.00000000000E+00 -0.00000000000E+00 -0.77560150812E+03  0.77560150812E+03  0.00000000000E+00 0.  1.
         25    1    1    2    0    0 -0.17561299568E+03 -0.21454268555E+03 -0.39411532093E+03  0.49781560277E+03  0.12500000000E+03 0.  0.
         21    1    1    2  502  501  0.17561299568E+03  0.21454268555E+03 -0.27133804682E+03  0.38793404572E+03  0.00000000000E+00 0. -1.
<mgrwt>
<rscale>  3 0.58457186E+03</rscale>
<asrwt>0</asrwt>
<pdfrwt beam="1">  1        1 0.16945867E-01 0.58457186E+03</pdfrwt>
<pdfrwt beam="2">  1       -1 0.11932331E+00 0.58457186E+03</pdfrwt>
<totfact> 0.20954812E+02</totfact>
</mgrwt>
</event>
<event>
 4    0  0.1264838E-002  0.4627487E+03  0.7546771E-02  0.1023987E+00
          2   -1    0    0  502    0  0.00000000000E+00  0.00000000000E+00  0.34059301635E+04  0.34059301635E+04  0.00000000000E+00 0.  1.
         -2   -1    0    0    0  501 -0.00000000000E+00 -0.00000000000E+00 -0.15717907767E+02  0.15717907767E+02  0.00000000000E+00 0. -1.
         25    1    1    2    0    0 -0.10211814488E+03 -0.18296797809E+03  0.14798507089E+04  0.14998294961E+04  0.12500000000E+03 0.  0.
         21    1    1    2  502  501  0.10211814488E+03  0.18296797809E+03  0.19103615468E+04  0.19218185752E+04  0.00000000000E+00 0.  1.
<mgrwt>
<rscale>  3 0.46274873E+03</rscale>
<asrwt>0</asrwt>
<pdfrwt beam="1">  1        2 0.52398867E+00 0.46274873E+03</pdfrwt>
<pdfrwt beam="2">  1       -2 0.24181424E-02 0.46274873E+03</pdfrwt>
<totfact> 0.65866486E+02</totfact>
</mgrwt>
</event>
<event>
 4    0  0.1264838E-002  0.6236549E+03  0.7546771E-02  0.9857510E-01
          1   -1    0    0  502    0  0.00000000000E+00  0.00000000000E+00  0.38519187785E+03  0.38519187785E+03  0.00000000000E+00 0. -1.
         -1   -1    0    0    0  501 -0.00000000000E+00 -0.00000000000E+00 -0.25243618736E+03  0.25243618736E+03  0.00000000000E+00 0.  1.
         25    1    1    2    0    0 -0.26729081781E+03  0.83369994774E+02  0.17717728245E+03  0.35413518144E+03  0.12500000000E+03 0.  0.
         21    1    1    2  502  501  0.26729081781E+03 -0.83369994774E+02 -0.44421591956E+02  0.28349288377E+03  0.00000000000E+00 0.  1.
<mgrwt>
<rscale>  3 0.62365493E+03</rscale>
<asrwt>0</asrwt>
<pdfrwt beam="1">  1        1 0.59260289E-01 0.62365493E+03</pdfrwt>
<pdfrwt beam="2">  1       -1 0.38836336E-01 0.62365493E+03</pdfrwt>
<totfact> 0.41054685E+02</totfact>
</mgrwt>
</event>
<event>
 4    0  0.1264838E-002  0.5095427E+03  0.7546771E-02  0.1011318E+00
          2   -1    0    0  502    0  0.00000000000E+00  0.00000000000E+00  0.25136914478E+04  0.25136914478E+04  0.00000000000E+00 0.  1.
         -2   -1    0    0    0  501 -0.00000000000E+00 -0.00000000000E+00 -0.25821958471E+02  0.25821958471E+02  0.00000000000E+00 0. -1.
         25    1    1    2    0    0 -0.20513447862E+03  0.11897145616E+03  0.11537498204E+04  0.11844821695E+04  0.12500000000E+03 0.  0.
         21    1    1    2  502  501  0.20513447862E+03 -0.11897145616E+03  0.13341196689E+04  0.13550312368E+04  0.00000000000E+00 0. -1.
<mgrwt>
<rscale>  3 0.50954268E+03</rscale>
<asrwt>0</asrwt>
<pdfrwt beam="1">  1        2 0.38672157E+00 0.50954268E+03</pdfrwt>
<pdfrwt beam="2">  1       -2 0.39726110E-02 0.50954268E+03</pdfrwt>
<totfact> 0.10656206E+03</totfact>
</mgrwt>
</event>
<event>
 4    0  0.1264838E-002  0.8755288E+03  0.7546771E-02  0.9456699E-01
          2   -1    0    0  502    0  0.00000000000E+00  0.00000000000E+00  0.73248089859E+03  0.73248089859E+03  0.00000000000E+00 0.  1.
         -2   -1    0    0    0  501 -0.00000000000E+00 -0.00000000000E+00 -0.26162820036E+03  0.26162820036E+03  0.00000000000E+00 0. -1.
         25    1    1    2    0    0  0.11216801524E+03  0.41065750859E+03  0.18140627941E+03  0.47932712338E+03  0.12500000000E+03 0.  0.
         21    1    1    2  502  501 -0.11216801524E+03 -0.41065750859E+03  0.28944641882E+03  0.51478197557E+03  0.00000000000E+00 0. -1.
<mgrwt>
<rscale>  3 0.87552878E+03</rscale>
<asrwt>0</asrwt>
<pdfrwt beam="1">  1        2 0.11268937E+00 0.87552878E+03</pdfrwt>
<pdfrwt beam="2">  1       -2 0.40250493E-01 0.87552878E+03</pdfrwt>
<totfact> 0.22664015E+02</totfact>
</mgrwt>
</event>
<event>
 4    0  0.1264838E-002  0.5151209E+03  0.7546771E-02  0.1009906E+00
         -2   -1    0    0    0  501 -0.00000000000E+00  0.00000000000E+00  0.70686734554E+03  0.70686734554E+03  0.00000000000E+00 0.  1.
          2   -1    0    0  502    0  0.00000000000E+00 -0.00000000000E+00 -0.93847000207E+02  0.93847000207E+02  0.00000000000E+00 0. -1.
         25    1    1    2    0    0 -0.75960633575E+02 -0.19521096464E+03  0.51415714131E+03  0.56908690420E+03  0.12500000000E+03 0.  0.
         21    1    1    2  502  501  0.75960633575E+02  0.19521096464E+03  0.98863204023E+02  0.23162744155E+03  0.00000000000E+00 0. -1.
<mgrwt>
<rscale>  3 0.51512088E+03</rscale>
<asrwt>0</asrwt>
<pdfrwt beam="1">  1        2 0.14438000E-01 0.51512088E+03</pdfrwt>
<pdfrwt beam="2">  1       -2 0.10874882E+00 0.51512088E+03</pdfrwt>
<totfact> 0.28738840E+02</totfact>
</mgrwt>
</event>
<event>
 4    0  0.1264838E-002  0.5091603E+03  0.7546771E-02  0.1011415E+00
          2   -1    0    0  502    0  0.00000000000E+00  0.00000000000E+00  0.57163102954E+03  0.57163102954E+03  0.00000000000E+00 0. -1.
         -2   -1    0    0    0  501 -0.00000000000E+00 -0.00000000000E+00 -0.11337917564E+03  0.11337917564E+03  0.00000000000E+00 0.  1.
         25    1    1    2    0    0  0.19934178013E+03  0.12360161682E+03  0.17955326882E+03  0.32074737930E+03  0.12500000000E+03 0.  0.
         21    1    1    2  502  501 -0.19934178013E+03 -0.12360161682E+03  0.27869858508E+03  0.36426282587E+03  0.00000000000E+00 0.  1.
<mgrwt>
<rscale>  3 0.50916031E+03</rscale>
<asrwt>0</asrwt>
<pdfrwt beam="1">  1        2 0.87943234E-01 0.50916031E+03</pdfrwt>
<pdfrwt beam="2">  1       -2 0.17442950E-01 0.50916031E+03</pdfrwt>
<totfact> 0.14238032E+03</totfact>
</mgrwt>
</event>
<event>
 4    0  0.1264838E-002  0.8036987E+03  0.7546771E-02  0.9554679E-01
         -2   -1    0    0    0  501 -0.00000000000E+00  0.00000000000E+00  0.27258511753E+03  0.27258511753E+03  0.00000000000E+00 0. -1.
          2   -1    0    0  502    0  0.00000000000E+00 -0.00000000000E+00 -0.59241280289E+03  0.59241280289E+03  0.00000000000E+00 0.  1.
         25    1    1    2    0    0 -0.15504801440E+02 -0.27671462598E+03  0.13478089347E+03  0.33256919933E+03  0.12500000000E+03 0.  0.
         21    1    1    2  502  501  0.15504801440E+02  0.27671462598E+03 -0.45460857883E+03  0.53242872109E+03  0.00000000000E+00 0.  1.
<mgrwt>
<rscale>  3 0.80369873E+03</rscale>
<asrwt>0</asrwt>
<pdfrwt beam="1">  1        2 0.91140430E-01 0.80369873E+03</pdfrwt>
<pdfrwt beam="2">  1       -2 0.41936172E-01 0.80369873E+03</pdfrwt>
<totfact> 0.27305809E+02</totfact>
</mgrwt>
</event>
<event>
 4    0  0.1264838E-002  0.7189586E+03  0.7546771E-02  0.9685349E-01
          2   -1    0    0  502    0  0.00000000000E+00  0.00000000000E+00  0.42658580697E+03  0.42658580697E+03  0.00000000000E+00 0. -1.
         -2   -1    0    0    0  501 -0.00000000000E+00 -0.00000000000E+00 -0.30292933566E+03  0.30292933566E+03  0.00000000000E+00 0.  1.
         25    1    1    2    0    0  0.24702377291E+03  0.19102201326E+02  0.31254354474E+03  0.41796423990E+03  0.12500000000E+03 0.  0.
         21    1    1    2  502  501 -0.24702377291E+03 -0.19102201326E+02 -0.18888707343E+03  0.31155090272E+03  0.00000000000E+00 0.  1.
<mgrwt>
<rscale>  3 0.71895857E+03</rscale>
<asrwt>0</asrwt>
<pdfrwt beam="1">  1        2 0.65628586E-01 0.71895857E+03</pdfrwt>
<pdfrwt beam="2">  1       -2 0.46604513E-01 0.71895857E+03</pdfrwt>
<totfact> 0.32545000E+02</totfact>
</mgrwt>
</event>
<event>
 4    0  0.1264838E-002  0.5061998E+03  0.7546771E-02  0.1012173E+00
          2   -1    0    0  502    0  0.00000000000E+00  0.00000000000E+00  0.19454562132E+04  0.19454562132E+04  0.00000000000E+00 0. -1.
         -2   -1    0    0    0  501 -0.00000000000E+00 -0.00000000000E+00 -0.32927786921E+02  0.32927786921E+02  0.00000000000E+00 0.  1.
         25    1    1    2    0    0 -0.23432826798E+03 -0.17477854129E+02  0.11538590694E+04  0.11841583359E+04  0.12500000000E+03 0.  0.
         21    1    1    2  502  501  0.23432826798E+03  0.17477854129E+02  0.75866935687E+03  0.79422566417E+03  0.00000000000E+00 0.  1.
<mgrwt>
<rscale>  3 0.50619983E+03</rscale>
<asrwt>0</asrwt>
<pdfrwt beam="1">  1        2 0.29930087E+00 0.50619983E+03</pdfrwt>
<pdfrwt beam="2">  1       -2 0.50658149E-02 0.50619983E+03</pdfrwt>
<totfact> 0.14995607E+03</totfact>
</mgrwt>
</event>
<event>
 4    0  0.1264838E-002  0.5357344E+03  0.7546771E-02  0.1004851E+00
         -2   -1    0    0    0  501 -0.00000000000E+00  0.00000000000E+00  0.69335065359E+02  0.69335065359E+02  0.00000000000E+00 0.  1.
          2   -1    0    0  502    0  0.00000000000E+00 -0.00000000000E+00 -0.10348709460E+04  0.10348709460E+04  0.00000000000E+00 0. -1.
         25    1    1    2    0    0  0.21873484460E+03  0.99051913894E+02 -0.67518070228E+03  0.72742710605E+03  0.12500000000E+03 0.  0.
         21    1    1    2  502  501 -0.21873484460E+03 -0.99051913894E+02 -0.29035517837E+03  0.37677890532E+03  0.00000000000E+00 0.  1.
<mgrwt>
<rscale>  3 0.53573443E+03</rscale>
<asrwt>0</asrwt>
<pdfrwt beam="1">  1        2 0.15921092E+00 0.53573443E+03</pdfrwt>
<pdfrwt beam="2">  1       -2 0.10666933E-01 0.53573443E+03</pdfrwt>
<totfact> 0.14901523E+03</totfact>
</mgrwt>
</event>
<event>
 4    0  0.1264838E-002  0.4745019E+03  0.7546771E-02  0.1020657E+00
         -2   -1    0    0    0  501 -0.00000000000E+00  0.00000000000E+00  0.62432259249E+02  0.62432259249E+02  0.00000000000E+00 0.  1.
          2   -1    0    0  502    0  0.00000000000E+00 -0.00000000000E+00 -0.90158541329E+03  0.90158541329E+03  0.00000000000E+00 0. -1.
         25    1    1    2    0    0  0.13710878959E+03 -0.16848939294E+03 -0.36847383995E+03  0.44562929262E+03  0.12500000000E+03 0.  0.
         21    1    1    2  502  501 -0.13710878959E+03  0.16848939294E+03 -0.47067931410E+03  0.51838837992E+03  0.00000000000E+00 0. -1.
<mgrwt>
<rscale>  3 0.47450190E+03</rscale>
<asrwt>0</asrwt>
<pdfrwt beam="1">  1        2 0.13870544E+00 0.47450190E+03</pdfrwt>
<pdfrwt beam="2">  1       -2 0.96049637E-02 0.47450190E+03</pdfrwt>
<totfact> 0.21497451E+03</totfact>
</mgrwt>
</event>
<event>
 4    0  0.1264838E-002  0.5979357E+03  0.7546771E-02  0.9909698E-01
          1   -1    0    0  502    0  0.00000000000E+00  0.00000000000E+00  0.61843767097E+03  0.61843767097E+03  0.00000000000E+00 0.  1.
         -1   -1    0    0    0  501 -0.00000000000E+00 -0.00000000000E+00 -0.14452834451E+03  0.14452834451E+03  0.00000000000E+00 0. -1.
         25    1    1    2    0    0  0.35405970857E+02 -0.28224860915E+03  0.21072383819E+03  0.37542961540E+03  0.12500000000E+03 0.  0.
         21    1    1    2  502  501 -0.35405970857E+02  0.28224860915E+03  0.26318548828E+03  0.38753640008E+03  0.00000000000E+00 0.  1.
<mgrwt>
<rscale>  3 0.59793569E+03</rscale>
<asrwt>0</asrwt>
<pdfrwt beam="1">  1        1 0.95144255E-01 0.59793569E+03</pdfrwt>
<pdfrwt beam="2">  1       -1 0.22235130E-01 0.59793569E+03</pdfrwt>
<totfact> 0.56610074E+02</totfact>
</mgrwt>
</event>
<event>
 4    0  0.1264838E-002  0.5580124E+03  0.7546771E-02  0.9996562E-01
          2   -1    0    0  502    0  0.00000000000E+00  0.00000000000E+00  0.69842532594E+03  0.69842532594E+03  0.00000000000E+00 0. -1.
         -2   -1    0    0    0  501 -0.00000000000E+00 -0.00000000000E+00 -0.11145708816E+03  0.11145708816E+03  0.00000000000E+00 0.  1.
         25    1    1    2    0    0 -0.19980930448E+03 -0.17291712501E+03  0.33737902524E+03  0.44640082544E+03  0.12500000000E+03 0.  0.
         21    1    1    2  502  501  0.19980930448E+03  0.17291712501E+03  0.24958921254E+03  0.36348158866E+03  0.00000000000E+00 0.  1.
<mgrwt>
<rscale>  3 0.55801238E+03</rscale>
<asrwt>0</asrwt>
<pdfrwt beam="1">  1        2 0.10745005E+00 0.55801238E+03</pdfrwt>
<pdfrwt beam="2">  1       -2 0.17147245E-01 0.55801238E+03</pdfrwt>
<totfact> 0.11497535E+03</totfact>
</mgrwt>
</event>
<event>
 4    0  0.1264838E-002  0.5955433E+03  0.7546771E-02  0.9914696E-01
          1   -1    0    0  502    0  0.00000000000E+00  0.00000000000E+00  0.24705868128E+03  0.24705868128E+03  0.00000000000E+00 0.  1.
         -1   -1    0    0    0  501 -0.00000000000E+00 -0.00000000000E+00 -0.35889429961E+03  0.35889429961E+03  0.00000000000E+00 0. -1.
         25    1    1    2    0    0 -0.22448596438E+03 -0.12690065068E+03  0.64265389417E+02  0.29368820818E+03  0.12500000000E+03 0.  0.
         21    1    1    2  502  501  0.22448596438E+03  0.12690065068E+03 -0.17610100775E+03  0.31226477271E+03  0.00000000000E+00 0. -1.
<mgrwt>
<rscale>  3 0.59554329E+03</rscale>
<asrwt>0</asrwt>
<pdfrwt beam="1">  1        1 0.38009028E-01 0.59554329E+03</pdfrwt>
<pdfrwt beam="2">  1       -1 0.55214508E-01 0.59554329E+03</pdfrwt>
<totfact> 0.37949737E+02</totfact>
</mgrwt>
</event>
<event>
 4    0  0.1264838E-002  0.5912938E+03  0.7546771E-02  0.9923635E-01
         -2   -1    0    0    0  501 -0.00000000000E+00  0.00000000000E+00  0.49341475517E+03  0.49341475517E+03  0.00000000000E+00 0. -1.
          2   -1    0    0  502    0  0.00000000000E+00 -0.00000000000E+00 -0.17714732211E+03  0.17714732211E+03  0.00000000000E+00 0.  1.
         25    1    1    2    0    0 -0.12548510879E+03  0.15897282230E+03  0.38844136202E+03  0.45555522441E+03  0.12500000000E+03 0.  0.
         21    1    1    2  502  501  0.12548510879E+03 -0.15897282230E+03 -0.72173928956E+02  0.21500685287E+03  0.00000000000E+00 0.  1.
<mgrwt>
<rscale>  3 0.59129384E+03</rscale>
<asrwt>0</asrwt>
<pdfrwt beam="1">  1        2 0.27253434E-01 0.59129384E+03</pdfrwt>
<pdfrwt beam="2">  1       -2 0.75909961E-01 0.59129384E+03</pdfrwt>
<totfact> 0.31189866E+02</totfact>
</mgrwt>
</event>
<event>
 4    0  0.1264838E-002  0.5694371E+03  0.7546771E-02  0.9970925E-01
         -2   -1    0    0    0  501 -0.00000000000E+00  0.00000000000E+00  0.13062661099E+03  0.13062661099E+03  0.00000000000E+00 0. -1.
          2   -1    0    0  502    0  0.00000000000E+00 -0.00000000000E+00 -0.62058293296E+03  0.62058293296E+03  0.00000000000E+00 0.  1.
         25    1    1    2    0    0  0.26335153726E+03  0.37740055327E+02 -0.32484758750E+03  0.43809736253E+03  0.12500000000E+03 0.  0.
         21    1    1    2  502  501 -0.26335153726E+03 -0.37740055327E+02 -0.16510873447E+03  0.31311218141E+03  0.00000000000E+00 0. -1.
<mgrwt>
<rscale>  3 0.56943707E+03</rscale>
<asrwt>0</asrwt>
<pdfrwt beam="1">  1        2 0.95474295E-01 0.56943707E+03</pdfrwt>
<pdfrwt beam="2">  1       -2 0.20096402E-01 0.56943707E+03</pdfrwt>
<totfact> 0.10108516E+03</totfact>
</mgrwt>
</event>
<event>
 4    0  0.1264838E-002  0.4962230E+03  0.7546771E-02  0.1014769E+00
          3   -1    0    0  502    0  0.00000000000E+00  0.00000000000E+00  0.33505356344E+03  0.33505356344E+03  0.00000000000E+00 0. -1.
         -3   -1    0    0    0  501 -0.00000000000E+00 -0.00000000000E+00 -0.18372978343E+03  0.18372978343E+03  0.00000000000E+00 0.  1.
         25    1    1    2    0    0  0.12645239367E+03  0.18734333315E+03  0.13683048123E+03  0.29229319686E+03  0.12500000000E+03 0.  0.
         21    1    1    2  502  501 -0.12645239367E+03 -0.18734333315E+03  0.14493298777E+02  0.22649015000E+03  0.00000000000E+00 0.  1.
<mgrwt>
<rscale>  3 0.49622301E+03</rscale>
<asrwt>0</asrwt>
<pdfrwt beam="1">  1        3 0.51546702E-01 0.49622301E+03</pdfrwt>
<pdfrwt beam="2">  1       -3 0.28266120E-01 0.49622301E+03</pdfrwt>
<totfact> 0.11780486E+02</totfact>
</mgrwt>
</event>
<event>
 4    0  0.1264838E-002  0.5224474E+03  0.7546771E-02  0.1008080E+00
          2   -1    0    0  502    0  0.00000000000E+00  0.00000000000E+00  0.24747678935E+04  0.24747678935E+04  0.00000000000E+00 0. -1.
         -2   -1    0    0    0  501 -0.00000000000E+00 -0.00000000000E+00 -0.27573423949E+02  0.27573423949E+02  0.00000000000E+00 0.  1.
         25    1    1    2    0    0  0.19131510464E+03  0.11224305299E+03  0.18061335879E+04  0.18239910936E+04  0.12500000000E+03 0.  0.
         21    1    1    2  502  501 -0.19131510464E+03 -0.11224305299E+03  0.64106088166E+03  0.67835022386E+03  0.00000000000E+00 0.  1.
<mgrwt>
<rscale>  3 0.52244741E+03</rscale>
<asrwt>0</asrwt>
<pdfrwt beam="1">  1        2 0.38073335E+00 0.52244741E+03</pdfrwt>
<pdfrwt beam="2">  1       -2 0.42420672E-02 0.52244741E+03</pdfrwt>
<totfact> 0.10121437E+03</totfact>
</mgrwt>
</event>
<event>
 4    0  0.1264838E-002  0.4795116E+03  0.7546771E-02  0.1019269E+00
          4   -1    0    0  502    0  0.00000000000E+00  0.00000000000E+00  0.61306229704E+03  0.61306229704E+03  0.00000000000E+00 0.  1.
         -4   -1    0    0    0  501 -0.00000000000E+00 -0.00000000000E+00 -0.93763481837E+02  0.93763481837E+02  0.00000000000E+00 0. -1.
         25    1    1    2    0    0 -0.13413050818E+03  0.17738311853E+03  0.30959016520E+03  0.40115687001E+03  0.12500000000E+03 0.  0.
         21    1    1    2  502  501  0.13413050818E+03 -0.17738311853E+03  0.20970865000E+03  0.30566890887E+03  0.00000000000E+00 0. -1.
<mgrwt>
<rscale>  3 0.47951165E+03</rscale>
<asrwt>0</asrwt>
<pdfrwt beam="1">  1        4 0.94317274E-01 0.47951165E+03</pdfrwt>
<pdfrwt beam="2">  1       -4 0.14425151E-01 0.47951165E+03</pdfrwt>
<totfact> 0.76967548E+01</totfact>
</mgrwt>
</event>
<event>
 4    0  0.1264838E-002  0.1122513E+04  0.7546771E-02  0.9183522E-01
         -1   -1    0    0    0  501 -0.00000000000E+00  0.00000000000E+00  0.12618424358E+04  0.12618424358E+04  0.00000000000E+00 0. -1.
          1   -1    0    0  502    0  0.00000000000E+00 -0.00000000000E+00 -0.24964215333E+03  0.24964215333E+03  0.00000000000E+00 0.  1.
         25    1    1    2    0    0 -0.73051448848E+02  0.49415259239E+03  0.18887042665E+03  0.54847090790E+03  0.12500000000E+03 0.  0.
         21    1    1    2  502  501  0.73051448848E+02 -0.49415259239E+03  0.82332985577E+03  0.96301368118E+03  0.00000000000E+00 0. -1.
<mgrwt>
<rscale>  3 0.11225134E+04</rscale>
<asrwt>0</asrwt>
<pdfrwt beam="1">  1        1 0.38406486E-01 0.11225134E+04</pdfrwt>
<pdfrwt beam="2">  1       -1 0.19412960E+00 0.11225134E+04</pdfrwt>
<totfact> 0.18336421E+01</totfact>
</mgrwt>
</event>
<event>
 4    0  0.1264838E-002  0.4946083E+03  0.7546771E-02  0.1015196E+00
          2   -1    0    0  502    0  0.00000000000E+00  0.00000000000E+00  0.21016773863E+04  0.21016773863E+04  0.00000000000E+00 0. -1.
         -2   -1    0    0    0  501 -0.00000000000E+00 -0.00000000000E+00 -0.29100257097E+02  0.29100257097E+02  0.00000000000E+00 0.  1.
         25    1    1    2    0    0  0.12628039468E+02 -0.20074758504E+03  0.15962518056E+04  0.16137236093E+04  0.12500000000E+03 0.  0.
         21    1    1    2  502  501 -0.12628039468E+02  0.20074758504E+03  0.47632532356E+03  0.51705403406E+03  0.00000000000E+00 0.  1.
<mgrwt>
<rscale>  3 0.49460834E+03</rscale>
<asrwt>0</asrwt>
<pdfrwt beam="1">  1        2 0.32333486E+00 0.49460834E+03</pdfrwt>
<pdfrwt beam="2">  1       -2 0.44769643E-02 0.49460834E+03</pdfrwt>
<totfact> 0.14955955E+03</totfact>
</mgrwt>
</event>
<event>
 4    0  0.1264838E-002  0.4795484E+03  0.7546771E-02  0.1019259E+00
         -1   -1    0    0    0  501 -0.00000000000E+00  0.00000000000E+00  0.40161031325E+03  0.40161031325E+03  0.00000000000E+00 0. -1.
          1   -1    0    0  502    0  0.00000000000E+00 -0.00000000000E+00 -0.14315284127E+03  0.14315284127E+03  0.00000000000E+00 0.  1.
         25    1    1    2    0    0  0.61263753231E+02  0.19506600962E+03  0.24050415012E+03  0.33951618783E+03  0.12500000000E+03 0.  0.
         21    1    1    2  502  501 -0.61263753231E+02 -0.19506600962E+03  0.17953321859E+02  0.20524696669E+03  0.00000000000E+00 0.  1.
<mgrwt>
<rscale>  3 0.47954836E+03</rscale>
<asrwt>0</asrwt>
<pdfrwt beam="1">  1        1 0.22023514E-01 0.47954836E+03</pdfrwt>
<pdfrwt beam="2">  1       -1 0.61786202E-01 0.47954836E+03</pdfrwt>
<totfact> 0.61916577E+02</totfact>
</mgrwt>
</event>
<event>
 4    0  0.1264838E-002  0.5759777E+03  0.7546771E-02  0.9956537E-01
         -2   -1    0    0    0  501 -0.00000000000E+00  0.00000000000E+00  0.71235747802E+02  0.71235747802E+02  0.00000000000E+00 0.  1.
          2   -1    0    0  502    0  0.00000000000E+00 -0.00000000000E+00 -0.11642691561E+04  0.11642691561E+04  0.00000000000E+00 0. -1.
         25    1    1    2    0    0  0.14608991591E+03  0.18899529127E+03 -0.28249492163E+03  0.39049950627E+03  0.12500000000E+03 0.  0.
         21    1    1    2  502  501 -0.14608991591E+03 -0.18899529127E+03 -0.81053848670E+03  0.84500539766E+03  0.00000000000E+00 0. -1.
<mgrwt>
<rscale>  3 0.57597772E+03</rscale>
<asrwt>0</asrwt>
<pdfrwt beam="1">  1        2 0.17911833E+00 0.57597772E+03</pdfrwt>
<pdfrwt beam="2">  1       -2 0.10959346E-01 0.57597772E+03</pdfrwt>
<totfact> 0.11892538E+03</totfact>
</mgrwt>
</event>
<event>
 4    0  0.1264838E-002  0.4831220E+03  0.7546771E-02  0.1018281E+00
         -1   -1    0    0    0  501 -0.00000000000E+00  0.00000000000E+00  0.39818316850E+02  0.39818316850E+02  0.00000000000E+00 0.  1.
          1   -1    0    0  502    0  0.00000000000E+00 -0.00000000000E+00 -0.14654491387E+04  0.14654491387E+04  0.00000000000E+00 0. -1.
         25    1    1    2    0    0 -0.21615310185E+03  0.46199818060E+02 -0.62315487368E+03  0.67290681615E+03  0.12500000000E+03 0.  0.
         21    1    1    2  502  501  0.21615310185E+03 -0.46199818060E+02 -0.80247594817E+03  0.83236063940E+03  0.00000000000E+00 0. -1.
<mgrwt>
<rscale>  3 0.48312201E+03</rscale>
<asrwt>0</asrwt>
<pdfrwt beam="1">  1        1 0.22545376E+00 0.48312201E+03</pdfrwt>
<pdfrwt beam="2">  1       -1 0.61258937E-02 0.48312201E+03</pdfrwt>
<totfact> 0.96567792E+02</totfact>
</mgrwt>
</event>
<event>
 4    0  0.1264838E-002  0.4780534E+03  0.7546771E-02  0.1019672E+00
          2   -1    0    0  502    0  0.00000000000E+00  0.00000000000E+00  0.28572095384E+03  0.28572095384E+03  0.00000000000E+00 0. -1.
         -2   -1    0    0    0  501 -0.00000000000E+00 -0.00000000000E+00 -0.19996350185E+03  0.19996350185E+03  0.00000000000E+00 0.  1.
         25    1    1    2    0    0 -0.10424531163E+03 -0.19677531163E+03  0.44944977795E+02  0.25929261326E+03  0.12500000000E+03 0.  0.
         21    1    1    2  502  501  0.10424531163E+03  0.19677531163E+03  0.40812474194E+02  0.22639184242E+03  0.00000000000E+00 0.  1.
<mgrwt>
<rscale>  3 0.47805340E+03</rscale>
<asrwt>0</asrwt>
<pdfrwt beam="1">  1        2 0.43957070E-01 0.47805340E+03</pdfrwt>
<pdfrwt beam="2">  1       -2 0.30763616E-01 0.47805340E+03</pdfrwt>
<totfact> 0.11334010E+03</totfact>
</mgrwt>
</event>
<event>
 4    0  0.1264838E-002  0.7661785E+03  0.7546771E-02  0.9610305E-01
          1   -1    0    0  502    0  0.00000000000E+00  0.00000000000E+00  0.22520552702E+04  0.22520552702E+04  0.00000000000E+00 0.  1.
         -1   -1    0    0    0  501 -0.00000000000E+00 -0.00000000000E+00 -0.65165976639E+02  0.65165976639E+02  0.00000000000E+00 0. -1.
         25    1    1    2    0    0 -0.15159565532E+03  0.32612287940E+03  0.82450504481E+03  0.90816900635E+03  0.12500000000E+03 0.  0.
         21    1    1    2  502  501  0.15159565532E+03 -0.32612287940E+03  0.13623842487E+04  0.14090522405E+04  0.00000000000E+00 0. -1.
<mgrwt>
<rscale>  3 0.76617852E+03</rscale>
<asrwt>0</asrwt>
<pdfrwt beam="1">  1        1 0.34646998E+00 0.76617852E+03</pdfrwt>
<pdfrwt beam="2">  1       -1 0.10025537E-01 0.76617852E+03</pdfrwt>
<totfact> 0.13046093E+02</totfact>
</mgrwt>
</event>
<event>
 4    0  0.1264838E-002  0.4529150E+03  0.7546771E-02  0.1026856E+00
         -1   -1    0    0    0  501 -0.00000000000E+00  0.00000000000E+00  0.70585783099E+03  0.70585783099E+03  0.00000000000E+00 0.  1.
          1   -1    0    0  502    0  0.00000000000E+00 -0.00000000000E+00 -0.72653431520E+02  0.72653431520E+02  0.00000000000E+00 0. -1.
         25    1    1    2    0    0 -0.20318036612E+03 -0.44059582537E+02  0.38082840842E+03  0.45152938403E+03  0.12500000000E+03 0.  0.
         21    1    1    2  502  501  0.20318036612E+03  0.44059582537E+02  0.25237599105E+03  0.32698187847E+03  0.00000000000E+00 0. -1.
<mgrwt>
<rscale>  3 0.45291497E+03</rscale>
<asrwt>0</asrwt>
<pdfrwt beam="1">  1        1 0.11177451E-01 0.45291497E+03</pdfrwt>
<pdfrwt beam="2">  1       -1 0.10859351E+00 0.45291497E+03</pdfrwt>
<totfact> 0.46059949E+02</totfact>
</mgrwt>
</event>
<event>
 4    0  0.1264838E-002  0.4624302E+03  0.7546771E-02  0.1024079E+00
          1   -1    0    0  502    0  0.00000000000E+00  0.00000000000E+00  0.49450400654E+03  0.49450400654E+03  0.00000000000E+00 0. -1.
         -1   -1    0    0    0  501 -0.00000000000E+00 -0.00000000000E+00 -0.10810918070E+03  0.10810918070E+03  0.00000000000E+00 0.  1.
         25    1    1    2    0    0 -0.14393954314E+03 -0.14385362581E+03  0.29493418451E+03  0.37950445443E+03  0.12500000000E+03 0.  0.
         21    1    1    2  502  501  0.14393954314E+03  0.14385362581E+03  0.91460641324E+02  0.22310873280E+03  0.00000000000E+00 0. -1.
<mgrwt>
<rscale>  3 0.46243020E+03</rscale>
<asrwt>0</asrwt>
<pdfrwt beam="1">  1        1 0.76077538E-01 0.46243020E+03</pdfrwt>
<pdfrwt beam="2">  1       -1 0.16632182E-01 0.46243020E+03</pdfrwt>
<totfact> 0.12511763E+03</totfact>
</mgrwt>
</event>
<event>
 4    0  0.1264838E-002  0.5144057E+03  0.7546771E-02  0.1010086E+00
          2   -1    0    0  502    0  0.00000000000E+00  0.00000000000E+00  0.22162249780E+03  0.22162249780E+03  0.00000000000E+00 0.  1.
         -2   -1    0    0    0  501 -0.00000000000E+00 -0.00000000000E+00 -0.29849547822E+03  0.29849547822E+03  0.00000000000E+00 0. -1.
         25    1    1    2    0    0  0.23923483798E+03 -0.36224398721E+02 -0.35554761232E+02  0.27465370162E+03  0.12500000000E+03 0.  0.
         21    1    1    2  502  501 -0.23923483798E+03  0.36224398721E+02 -0.41318219188E+02  0.24546427440E+03  0.00000000000E+00 0. -1.
<mgrwt>
<rscale>  3 0.51440573E+03</rscale>
<asrwt>0</asrwt>
<pdfrwt beam="1">  1        2 0.34095769E-01 0.51440573E+03</pdfrwt>
<pdfrwt beam="2">  1       -2 0.45922381E-01 0.51440573E+03</pdfrwt>
<totfact> 0.69647278E+02</totfact>
</mgrwt>
</event>
<event>
 4    0  0.1264838E-002  0.4606499E+03  0.7546771E-02  0.1024593E+00
          4   -1    0    0  502    0  0.00000000000E+00  0.00000000000E+00  0.21418598424E+03  0.21418598424E+03  0.00000000000E+00 0. -1.
         -4   -1    0    0    0  501 -0.00000000000E+00 -0.00000000000E+00 -0.24767999432E+03  0.24767999432E+03  0.00000000000E+00 0.  1.
         25    1    1    2    0    0  0.18010657485E+03 -0.11214363699E+03  0.46658034428E+01  0.24629523614E+03  0.12500000000E+03 0.  0.
         21    1    1    2  502  501 -0.18010657485E+03  0.11214363699E+03 -0.38159813520E+02  0.21557074242E+03  0.00000000000E+00 0. -1.
<mgrwt>
<rscale>  3 0.46064990E+03</rscale>
<asrwt>0</asrwt>
<pdfrwt beam="1">  1        4 0.32951690E-01 0.46064990E+03</pdfrwt>
<pdfrwt beam="2">  1       -4 0.38104614E-01 0.46064990E+03</pdfrwt>
<totfact> 0.11630725E+02</totfact>
</mgrwt>
</event>
<event>
 4    0  0.1264838E-002  0.5759363E+03  0.7546771E-02  0.9956628E-01
         -2   -1    0    0    0  501 -0.00000000000E+00  0.00000000000E+00  0.37743791900E+02  0.37743791900E+02  0.00000000000E+00 0. -1.
          2   -1    0    0  502    0  0.00000000000E+00 -0.00000000000E+00 -0.21970671569E+04  0.21970671569E+04  0.00000000000E+00 0.  1.
         25    1    1    2    0    0  0.20334947629E+03 -0.13623844579E+03 -0.64921690165E+03  0.70499610567E+03  0.12500000000E+03 0.  0.
         21    1    1    2  502  501 -0.20334947629E+03  0.13623844579E+03 -0.15101064634E+04  0.15298148432E+04  0.00000000000E+00 0.  1.
<mgrwt>
<rscale>  3 0.57593627E+03</rscale>
<asrwt>0</asrwt>
<pdfrwt beam="1">  1        2 0.33801031E+00 0.57593627E+03</pdfrwt>
<pdfrwt beam="2">  1       -2 0.58067376E-02 0.57593627E+03</pdfrwt>
<totfact> 0.88220414E+02</totfact>
</mgrwt>
</event>
<event>
 4    0  0.1264838E-002  0.5043105E+03  0.7546771E-02  0.1012660E+00
         -2   -1    0    0    0  501 -0.00000000000E+00  0.00000000000E+00  0.11786155952E+03  0.11786155952E+03  0.00000000000E+00 0. -1.
          2   -1    0    0  502    0  0.00000000000E+00 -0.00000000000E+00 -0.53946579671E+03  0.53946579671E+03  0.00000000000E+00 0.  1.
         25    1    1    2    0    0 -0.11441277324E+03 -0.20676673339E+03 -0.20690910081E+03  0.33805197931E+03  0.12500000000E+03 0.  0.
         21    1    1    2  502  501  0.11441277324E+03  0.20676673339E+03 -0.21469513638E+03  0.31927537691E+03  0.00000000000E+00 0.  1.
<mgrwt>
<rscale>  3 0.50431054E+03</rscale>
<asrwt>0</asrwt>
<pdfrwt beam="1">  1        2 0.82994738E-01 0.50431054E+03</pdfrwt>
<pdfrwt beam="2">  1       -2 0.18132548E-01 0.50431054E+03</pdfrwt>
<totfact> 0.14258417E+03</totfact>
</mgrwt>
</event>
<event>
 4    0  0.1264838E-002  0.5042604E+03  0.7546771E-02  0.1012673E+00
         -2   -1    0    0    0  501 -0.00000000000E+00  0.00000000000E+00  0.15093293041E+02  0.15093293041E+02  0.00000000000E+00 0. -1.
          2   -1    0    0  502    0  0.00000000000E+00 -0.00000000000E+00 -0.42117802292E+04  0.42117802292E+04  0.00000000000E+00 0.  1.
         25    1    1    2    0    0  0.20799657474E+03 -0.65451416676E+02 -0.29978509768E+04  0.30083686513E+04  0.12500000000E+03 0.  0.
         21    1    1    2  502  501 -0.20799657474E+03  0.65451416676E+02 -0.11988359593E+04  0.12185048709E+04  0.00000000000E+00 0. -1.
<mgrwt>
<rscale>  3 0.50426038E+03</rscale>
<asrwt>0</asrwt>
<pdfrwt beam="1">  1        2 0.64796689E+00 0.50426038E+03</pdfrwt>
<pdfrwt beam="2">  1       -2 0.23220426E-02 0.50426038E+03</pdfrwt>
<totfact> 0.17641353E+02</totfact>
</mgrwt>
</event>
<event>
 4    0  0.1264838E-002  0.8312363E+03  0.7546771E-02  0.9515873E-01
          2   -1    0    0  502    0  0.00000000000E+00  0.00000000000E+00  0.30131977083E+03  0.30131977083E+03  0.00000000000E+00 0. -1.
         -2   -1    0    0    0  501 -0.00000000000E+00 -0.00000000000E+00 -0.57327283368E+03  0.57327283368E+03  0.00000000000E+00 0.  1.
         25    1    1    2    0    0 -0.28925681356E+03 -0.15947648301E+03  0.10973910380E+03  0.36982417948E+03  0.12500000000E+03 0.  0.
         21    1    1    2  502  501  0.28925681356E+03  0.15947648301E+03 -0.38169216666E+03  0.50476842503E+03  0.00000000000E+00 0.  1.
<mgrwt>
<rscale>  3 0.83123628E+03</rscale>
<asrwt>0</asrwt>
<pdfrwt beam="1">  1        2 0.46356888E-01 0.83123628E+03</pdfrwt>
<pdfrwt beam="2">  1       -2 0.88195820E-01 0.83123628E+03</pdfrwt>
<totfact> 0.12175038E+02</totfact>
</mgrwt>
</event>
<event>
 4    0  0.1264838E-002  0.4714033E+03  0.7546771E-02  0.1021525E+00
          1   -1    0    0  502    0  0.00000000000E+00  0.00000000000E+00  0.14395518403E+04  0.14395518403E+04  0.00000000000E+00 0. -1.
         -1   -1    0    0    0  501 -0.00000000000E+00 -0.00000000000E+00 -0.38592064591E+02  0.38592064591E+02  0.00000000000E+00 0.  1.
         25    1    1    2    0    0 -0.13770403909E+03 -0.15623164076E+03  0.96347804186E+03  0.99362249628E+03  0.12500000000E+03 0.  0.
         21    1    1    2  502  501  0.13770403909E+03  0.15623164076E+03  0.43748173385E+03  0.48452140861E+03  0.00000000000E+00 0. -1.
<mgrwt>
<rscale>  3 0.47140334E+03</rscale>
<asrwt>0</asrwt>
<pdfrwt beam="1">  1        1 0.22146947E+00 0.47140334E+03</pdfrwt>
<pdfrwt beam="2">  1       -1 0.59372418E-02 0.47140334E+03</pdfrwt>
<totfact> 0.10556134E+03</totfact>
</mgrwt>
</event>
<event>
 4    0  0.1264838E-002  0.4646909E+03  0.7546771E-02  0.1023429E+00
          2   -1    0    0  502    0  0.00000000000E+00  0.00000000000E+00  0.25038370625E+03  0.25038370625E+03  0.00000000000E+00 0.  1.
         -2   -1    0    0    0  501 -0.00000000000E+00 -0.00000000000E+00 -0.21560673427E+03  0.21560673427E+03  0.00000000000E+00 0. -1.
         25    1    1    2    0    0  0.65549009981E+01  0.21535823741E+03  0.12936228552E+02  0.24942831266E+03  0.12500000000E+03 0.  0.
         21    1    1    2  502  501 -0.65549009981E+01 -0.21535823741E+03  0.21840743424E+02  0.21656212786E+03  0.00000000000E+00 0. -1.
<mgrwt>
<rscale>  3 0.46469092E+03</rscale>
<asrwt>0</asrwt>
<pdfrwt beam="1">  1        2 0.38520570E-01 0.46469092E+03</pdfrwt>
<pdfrwt beam="2">  1       -2 0.33170267E-01 0.46469092E+03</pdfrwt>
<totfact> 0.11389463E+03</totfact>
</mgrwt>
</event>
<event>
 4    0  0.1264838E-002  0.4920218E+03  0.7546771E-02  0.1015883E+00
         -1   -1    0    0    0  501 -0.00000000000E+00  0.00000000000E+00  0.11643478585E+03  0.11643478585E+03  0.00000000000E+00 0.  1.
          1   -1    0    0  502    0  0.00000000000E+00 -0.00000000000E+00 -0.51978768003E+03  0.51978768003E+03  0.00000000000E+00 0. -1.
         25    1    1    2    0    0  0.20476539772E+03  0.80639903875E+02 -0.12766882300E+03  0.28347132230E+03  0.12500000000E+03 0.  0.
         21    1    1    2  502  501 -0.20476539772E+03 -0.80639903875E+02 -0.27568407118E+03  0.35275114359E+03  0.00000000000E+00 0. -1.
<mgrwt>
<rscale>  3 0.49202182E+03</rscale>
<asrwt>0</asrwt>
<pdfrwt beam="1">  1        1 0.79967335E-01 0.49202182E+03</pdfrwt>
<pdfrwt beam="2">  1       -1 0.17913044E-01 0.49202182E+03</pdfrwt>
<totfact> 0.10358347E+03</totfact>
</mgrwt>
</event>
<event>
 4    0  0.1264838E-002  0.4895770E+03  0.7546771E-02  0.1016536E+00
         -1   -1    0    0    0  501 -0.00000000000E+00  0.00000000000E+00  0.56918592892E+02  0.56918592892E+02  0.00000000000E+00 0.  1.
          1   -1    0    0  502    0  0.00000000000E+00 -0.00000000000E+00 -0.10527564738E+04  0.10527564738E+04  0.00000000000E+00 0. -1.
         25    1    1    2    0    0  0.52898556951E+01 -0.21991815374E+03 -0.38753575216E+03  0.46281846994E+03  0.12500000000E+03 0.  0.
         21    1    1    2  502  501 -0.52898556951E+01  0.21991815374E+03 -0.60830212871E+03  0.64685659671E+03  0.00000000000E+00 0. -1.
<mgrwt>
<rscale>  3 0.48957703E+03</rscale>
<asrwt>0</asrwt>
<pdfrwt beam="1">  1        1 0.16196252E+00 0.48957703E+03</pdfrwt>
<pdfrwt beam="2">  1       -1 0.87567074E-02 0.48957703E+03</pdfrwt>
<totfact> 0.10881745E+03</totfact>
</mgrwt>
</event>
<event>
 4    0  0.1264838E-002  0.5198956E+03  0.7546771E-02  0.1008712E+00
          1   -1    0    0  502    0  0.00000000000E+00  0.00000000000E+00  0.40511646431E+02  0.40511646431E+02  0.00000000000E+00 0. -1.
         -1   -1    0    0    0  501 -0.00000000000E+00 -0.00000000000E+00 -0.16679857767E+04  0.16679857767E+04  0.00000000000E+00 0.  1.
         25    1    1    2    0    0 -0.18492324073E+03 -0.15507569938E+03 -0.99789989534E+03  0.10342505879E+04  0.12500000000E+03 0.  0.
         21    1    1    2  502  501  0.18492324073E+03  0.15507569938E+03 -0.62957423489E+03  0.67424683517E+03  0.00000000000E+00 0.  1.
<mgrwt>
<rscale>  3 0.51989557E+03</rscale>
<asrwt>0</asrwt>
<pdfrwt beam="1">  1        1 0.62325630E-02 0.51989557E+03</pdfrwt>
<pdfrwt beam="2">  1       -1 0.25661312E+00 0.51989557E+03</pdfrwt>
<totfact> 0.86105065E+01</totfact>
</mgrwt>
</event>
<event>
 4    0  0.1264838E-002  0.6130116E+03  0.7546771E-02  0.9878773E-01
          2   -1    0    0  502    0  0.00000000000E+00  0.00000000000E+00  0.29282367854E+03  0.29282367854E+03  0.00000000000E+00 0.  1.
         -2   -1    0    0    0  501 -0.00000000000E+00 -0.00000000000E+00 -0.32082717022E+03  0.32082717022E+03  0.00000000000E+00 0. -1.
         25    1    1    2    0    0 -0.12043267737E+03 -0.19519237667E+03  0.16916025668E+03  0.31119814608E+03  0.12500000000E+03 0.  0.
         21    1    1    2  502  501  0.12043267737E+03  0.19519237667E+03 -0.19716374836E+03  0.30245270267E+03  0.00000000000E+00 0. -1.
<mgrwt>
<rscale>  3 0.61301156E+03</rscale>
<asrwt>0</asrwt>
<pdfrwt beam="1">  1        2 0.45049796E-01 0.61301156E+03</pdfrwt>
<pdfrwt beam="2">  1       -2 0.49358027E-01 0.61301156E+03</pdfrwt>
<totfact> 0.44220234E+02</totfact>
</mgrwt>
</event>
<event>
 4    0  0.1264838E-002  0.5627997E+03  0.7546771E-02  0.9985740E-01
         -1   -1    0    0    0  501 -0.00000000000E+00  0.00000000000E+00  0.29207043299E+03  0.29207043299E+03  0.00000000000E+00 0.  1.
          1   -1    0    0  502    0  0.00000000000E+00 -0.00000000000E+00 -0.27111913108E+03  0.27111913108E+03  0.00000000000E+00 0. -1.
         25    1    1    2    0    0 -0.41233871357E+02  0.23995999391E+03  0.12190712291E+03  0.29961204488E+03  0.12500000000E+03 0.  0.
         21    1    1    2  502  501  0.41233871357E+02 -0.23995999391E+03 -0.10095582100E+03  0.26357751918E+03  0.00000000000E+00 0. -1.
<mgrwt>
<rscale>  3 0.56279972E+03</rscale>
<asrwt>0</asrwt>
<pdfrwt beam="1">  1        1 0.41710635E-01 0.56279972E+03</pdfrwt>
<pdfrwt beam="2">  1       -1 0.44933913E-01 0.56279972E+03</pdfrwt>
<totfact> 0.49690065E+02</totfact>
</mgrwt>
</event>
<event>
 4    0  0.1264838E-002  0.6227243E+03  0.7546771E-02  0.9859351E-01
         -1   -1    0    0    0  501 -0.00000000000E+00  0.00000000000E+00  0.70399251426E+02  0.70399251426E+02  0.00000000000E+00 0.  1.
          1   -1    0    0  502    0  0.00000000000E+00 -0.00000000000E+00 -0.13770940889E+04  0.13770940889E+04  0.00000000000E+00 0. -1.
         25    1    1    2    0    0 -0.90502765689E+02 -0.23334855538E+03 -0.10591284002E+04  0.10954543655E+04  0.12500000000E+03 0.  0.
         21    1    1    2  502  501  0.90502765689E+02  0.23334855538E+03 -0.24756643726E+03  0.35203897476E+03  0.00000000000E+00 0.  1.
<mgrwt>
<rscale>  3 0.62272431E+03</rscale>
<asrwt>0</asrwt>
<pdfrwt beam="1">  1        1 0.21186062E+00 0.62272431E+03</pdfrwt>
<pdfrwt beam="2">  1       -1 0.10830654E-01 0.62272431E+03</pdfrwt>
<totfact> 0.45316037E+02</totfact>
</mgrwt>
</event>
<event>
 4    0  0.1264838E-002  0.7440617E+03  0.7546771E-02  0.9644713E-01
          1   -1    0    0  502    0  0.00000000000E+00  0.00000000000E+00  0.13383408751E+04  0.13383408751E+04  0.00000000000E+00 0. -1.
         -1   -1    0    0    0  501 -0.00000000000E+00 -0.00000000000E+00 -0.10341680828E+03  0.10341680828E+03  0.00000000000E+00 0.  1.
         25    1    1    2    0    0 -0.33490228224E+02  0.32917771543E+03  0.35259019637E+03  0.49942407861E+03  0.12500000000E+03 0.  0.
         21    1    1    2  502  501  0.33490228224E+02 -0.32917771543E+03  0.88233387044E+03  0.94233360475E+03  0.00000000000E+00 0. -1.
<mgrwt>
<rscale>  3 0.74406167E+03</rscale>
<asrwt>0</asrwt>
<pdfrwt beam="1">  1        1 0.20589858E+00 0.74406167E+03</pdfrwt>
<pdfrwt beam="2">  1       -1 0.15910279E-01 0.74406167E+03</pdfrwt>
<totfact> 0.25775938E+02</totfact>
</mgrwt>
</event>
<event>
 4    0  0.1264838E-002  0.6052058E+03  0.7546771E-02  0.9894664E-01
         -1   -1    0    0    0  501 -0.00000000000E+00  0.00000000000E+00  0.32703249380E+02  0.32703249380E+02  0.00000000000E+00 0.  1.
          1   -1    0    0  502    0  0.00000000000E+00 -0.00000000000E+00 -0.27999824621E+04  0.27999824621E+04  0.00000000000E+00 0. -1.
         25    1    1    2    0    0 -0.17733918968E+03  0.10354340793E+03 -0.23990550162E+04  0.24110703839E+04  0.12500000000E+03 0.  0.
         21    1    1    2  502  501  0.17733918968E+03 -0.10354340793E+03 -0.36822419655E+03  0.42161532758E+03  0.00000000000E+00 0.  1.
<mgrwt>
<rscale>  3 0.60520583E+03</rscale>
<asrwt>0</asrwt>
<pdfrwt beam="1">  1        1 0.43076661E+00 0.60520583E+03</pdfrwt>
<pdfrwt beam="2">  1       -1 0.50312682E-02 0.60520583E+03</pdfrwt>
<totfact> 0.16377354E+02</totfact>
</mgrwt>
</event>
<event>
 4    0  0.1605166E-002  0.5935779E+03  0.7546771E-02  0.9918820E-01
         -2   -1    0    0    0  501 -0.00000000000E+00  0.00000000000E+00  0.77096641938E+02  0.77096641938E+02  0.00000000000E+00 0.  1.
          2   -1    0    0  502    0  0.00000000000E+00 -0.00000000000E+00 -0.11425097705E+04  0.11425097705E+04  0.00000000000E+00 0. -1.
         25    1    1    2    0    0 -0.15353799974E+03 -0.13624172005E+03 -0.15417821298E+03  0.28553746690E+03  0.12500000000E+03 0.  0.
         21    1    1    2  502  501  0.15353799974E+03  0.13624172005E+03 -0.91123491560E+03  0.93406894556E+03  0.00000000000E+00 0. -1.
<mgrwt>
<rscale>  3 0.59357785E+03</rscale>
<asrwt>0</asrwt>
<pdfrwt beam="1">  1        2 0.17577073E+00 0.59357785E+03</pdfrwt>
<pdfrwt beam="2">  1       -2 0.11861022E-01 0.59357785E+03</pdfrwt>
<totfact> 0.10757787E+03</totfact>
</mgrwt>
</event>
<event>
 4    0  0.1264838E-002  0.5626647E+03  0.7546771E-02  0.9986043E-01
          2   -1    0    0  502    0  0.00000000000E+00  0.00000000000E+00  0.88988842252E+03  0.88988842252E+03  0.00000000000E+00 0. -1.
         -2   -1    0    0    0  501 -0.00000000000E+00 -0.00000000000E+00 -0.88941356758E+02  0.88941356758E+02  0.00000000000E+00 0.  1.
         25    1    1    2    0    0 -0.33913827672E+02 -0.23147682839E+03  0.64569710445E+03  0.69805545660E+03  0.12500000000E+03 0.  0.
         21    1    1    2  502  501  0.33913827672E+02  0.23147682839E+03  0.15524996132E+03  0.28077432268E+03  0.00000000000E+00 0.  1.
<mgrwt>
<rscale>  3 0.56266467E+03</rscale>
<asrwt>0</asrwt>
<pdfrwt beam="1">  1        2 0.13690591E+00 0.56266467E+03</pdfrwt>
<pdfrwt beam="2">  1       -2 0.13683286E-01 0.56266467E+03</pdfrwt>
<totfact> 0.12256472E+03</totfact>
</mgrwt>
</event>
<event>
 4    0  0.1264838E-002  0.4370106E+03  0.7546771E-02  0.1031668E+00
         -1   -1    0    0    0  501 -0.00000000000E+00  0.00000000000E+00  0.43205697841E+02  0.43205697841E+02  0.00000000000E+00 0.  1.
          1   -1    0    0  502    0  0.00000000000E+00 -0.00000000000E+00 -0.11050526318E+04  0.11050526318E+04  0.00000000000E+00 0. -1.
         25    1    1    2    0    0 -0.96627921404E+02 -0.17578477125E+03 -0.58433940836E+03  0.63032910861E+03  0.12500000000E+03 0.  0.
         21    1    1    2  502  501  0.96627921404E+02  0.17578477125E+03 -0.47750752564E+03  0.51792922107E+03  0.00000000000E+00 0.  1.
<mgrwt>
<rscale>  3 0.43701062E+03</rscale>
<asrwt>0</asrwt>
<pdfrwt beam="1">  1        1 0.17000808E+00 0.43701062E+03</pdfrwt>
<pdfrwt beam="2">  1       -1 0.66470311E-02 0.43701062E+03</pdfrwt>
<totfact> 0.15268329E+03</totfact>
</mgrwt>
</event>
<event>
 4    0  0.1264838E-002  0.6499007E+03  0.7546771E-02  0.9806966E-01
         -1   -1    0    0    0  501 -0.00000000000E+00  0.00000000000E+00  0.77312164394E+02  0.77312164394E+02  0.00000000000E+00 0. -1.
          1   -1    0    0  502    0  0.00000000000E+00 -0.00000000000E+00 -0.13657969385E+04  0.13657969385E+04  0.00000000000E+00 0.  1.
         25    1    1    2    0    0  0.11556930866E+03 -0.20960582755E+03 -0.11156815160E+04  0.11478942082E+04  0.12500000000E+03 0.  0.
         21    1    1    2  502  501 -0.11556930866E+03  0.20960582755E+03 -0.17280325811E+03  0.29521489471E+03  0.00000000000E+00 0. -1.
<mgrwt>
<rscale>  3 0.64990066E+03</rscale>
<asrwt>0</asrwt>
<pdfrwt beam="1">  1        1 0.21012258E+00 0.64990066E+03</pdfrwt>
<pdfrwt beam="2">  1       -1 0.11894181E-01 0.64990066E+03</pdfrwt>
<totfact> 0.39686364E+02</totfact>
</mgrwt>
</event>
<event>
 4    0  0.1264838E-002  0.4679667E+03  0.7546771E-02  0.1022496E+00
         -2   -1    0    0    0  501 -0.00000000000E+00  0.00000000000E+00  0.29486681462E+02  0.29486681462E+02  0.00000000000E+00 0.  1.
          2   -1    0    0  502    0  0.00000000000E+00 -0.00000000000E+00 -0.18567094860E+04  0.18567094860E+04  0.00000000000E+00 0. -1.
         25    1    1    2    0    0 -0.19856419808E+03  0.53578596523E+02 -0.69619320331E+03  0.73661956470E+03  0.12500000000E+03 0.  0.
         21    1    1    2  502  501  0.19856419808E+03 -0.53578596523E+02 -0.11310296012E+04  0.11495766028E+04  0.00000000000E+00 0.  1.
<mgrwt>
<rscale>  3 0.46796667E+03</rscale>
<asrwt>0</asrwt>
<pdfrwt beam="1">  1        2 0.28564767E+00 0.46796667E+03</pdfrwt>
<pdfrwt beam="2">  1       -2 0.45364116E-02 0.46796667E+03</pdfrwt>
<totfact> 0.19876264E+03</totfact>
</mgrwt>
</event>
<event>
 4    0  0.1264838E-002  0.5581146E+03  0.7546771E-02  0.9996330E-01
          2   -1    0    0  502    0  0.00000000000E+00  0.00000000000E+00  0.48805946838E+03  0.48805946838E+03  0.00000000000E+00 0.  1.
         -2   -1    0    0    0  501 -0.00000000000E+00 -0.00000000000E+00 -0.15955635304E+03  0.15955635304E+03  0.00000000000E+00 0. -1.
         25    1    1    2    0    0  0.13788980887E+03 -0.21395043031E+03  0.86686192693E+02  0.29652635974E+03  0.12500000000E+03 0.  0.
         21    1    1    2  502  501 -0.13788980887E+03  0.21395043031E+03  0.24181692265E+03  0.35108946168E+03  0.00000000000E+00 0.  1.
<mgrwt>
<rscale>  3 0.55811464E+03</rscale>
<asrwt>0</asrwt>
<pdfrwt beam="1">  1        2 0.75086072E-01 0.55811464E+03</pdfrwt>
<pdfrwt beam="2">  1       -2 0.24547131E-01 0.55811464E+03</pdfrwt>
<totfact> 0.94147431E+02</totfact>
</mgrwt>
</event>
<event>
 4    0  0.1264838E-002  0.5538375E+03  0.7546771E-02  0.1000610E+00
          2   -1    0    0  502    0  0.00000000000E+00  0.00000000000E+00  0.79520956778E+02  0.79520956778E+02  0.00000000000E+00 0.  1.
         -2   -1    0    0    0  501 -0.00000000000E+00 -0.00000000000E+00 -0.96432443983E+03  0.96432443983E+03  0.00000000000E+00 0. -1.
         25    1    1    2    0    0  0.24470642647E+03 -0.36109017353E+02 -0.63230276724E+03  0.69037445329E+03  0.12500000000E+03 0.  0.
         21    1    1    2  502  501 -0.24470642647E+03  0.36109017353E+02 -0.25250071581E+03  0.35347094332E+03  0.00000000000E+00 0. -1.
<mgrwt>
<rscale>  3 0.55383753E+03</rscale>
<asrwt>0</asrwt>
<pdfrwt beam="1">  1        2 0.12233994E-01 0.55383753E+03</pdfrwt>
<pdfrwt beam="2">  1       -2 0.14835760E+00 0.55383753E+03</pdfrwt>
<totfact> 0.16177000E+02</totfact>
</mgrwt>
</event>
<event>
 4    0  0.1264838E-002  0.4878861E+03  0.7546771E-02  0.1016990E+00
         -2   -1    0    0    0  501 -0.00000000000E+00  0.00000000000E+00  0.13108771734E+03  0.13108771734E+03  0.00000000000E+00 0.  1.
          2   -1    0    0  502    0  0.00000000000E+00 -0.00000000000E+00 -0.45395727657E+03  0.45395727657E+03  0.00000000000E+00 0. -1.
         25    1    1    2    0    0 -0.16604346964E+03  0.13184579202E+03 -0.27234763874E+03  0.36708579789E+03  0.12500000000E+03 0.  0.
         21    1    1    2  502  501  0.16604346964E+03 -0.13184579202E+03 -0.50521920491E+02  0.21795919603E+03  0.00000000000E+00 0.  1.
<mgrwt>
<rscale>  3 0.48788615E+03</rscale>
<asrwt>0</asrwt>
<pdfrwt beam="1">  1        2 0.69839582E-01 0.48788615E+03</pdfrwt>
<pdfrwt beam="2">  1       -2 0.20167341E-01 0.48788615E+03</pdfrwt>
<totfact> 0.14457301E+03</totfact>
</mgrwt>
</event>
<event>
 4    0  0.1264838E-002  0.4772541E+03  0.7546771E-02  0.1019893E+00
          2   -1    0    0  502    0  0.00000000000E+00  0.00000000000E+00  0.14846987631E+04  0.14846987631E+04  0.00000000000E+00 0.  1.
         -2   -1    0    0    0  501 -0.00000000000E+00 -0.00000000000E+00 -0.38353140186E+02  0.38353140186E+02  0.00000000000E+00 0. -1.
         25    1    1    2    0    0  0.13146397699E+03  0.16030206680E+03  0.10284592103E+04  0.10565665512E+04  0.12500000000E+03 0.  0.
         21    1    1    2  502  501 -0.13146397699E+03 -0.16030206680E+03  0.41788641264E+03  0.46648535211E+03  0.00000000000E+00 0. -1.
<mgrwt>
<rscale>  3 0.47725406E+03</rscale>
<asrwt>0</asrwt>
<pdfrwt beam="1">  1        2 0.22841515E+00 0.47725406E+03</pdfrwt>
<pdfrwt beam="2">  1       -2 0.59004842E-02 0.47725406E+03</pdfrwt>
<totfact> 0.21022247E+03</totfact>
</mgrwt>
</event>
<event>
 4    0  0.1264838E-002  0.7273470E+03  0.7546771E-02  0.9671575E-01
         -2   -1    0    0    0  501 -0.00000000000E+00  0.00000000000E+00  0.10260325616E+03  0.10260325616E+03  0.00000000000E+00 0.  1.
          2   -1    0    0  502    0  0.00000000000E+00 -0.00000000000E+00 -0.12890274132E+04  0.12890274132E+04  0.00000000000E+00 0. -1.
         25    1    1    2    0    0  0.10219004551E+03  0.33779180523E+03 -0.60328010353E+03  0.71001267059E+03  0.12500000000E+03 0.  0.
         21    1    1    2  502  501 -0.10219004551E+03 -0.33779180523E+03 -0.58314405349E+03  0.68161799874E+03  0.00000000000E+00 0.  1.
<mgrwt>
<rscale>  3 0.72734699E+03</rscale>
<asrwt>0</asrwt>
<pdfrwt beam="1">  1        2 0.19831191E+00 0.72734699E+03</pdfrwt>
<pdfrwt beam="2">  1       -2 0.15785116E-01 0.72734699E+03</pdfrwt>
<totfact> 0.54433133E+02</totfact>
</mgrwt>
</event>
<event>
 4    0  0.1264838E-002  0.4861114E+03  0.7546771E-02  0.1017469E+00
         -2   -1    0    0    0  501 -0.00000000000E+00  0.00000000000E+00  0.29903582439E+02  0.29903582439E+02  0.00000000000E+00 0. -1.
          2   -1    0    0  502    0  0.00000000000E+00 -0.00000000000E+00 -0.19755516650E+04  0.19755516650E+04  0.00000000000E+00 0.  1.
         25    1    1    2    0    0 -0.88286594195E+02 -0.18834896052E+03 -0.14119127432E+04  0.14326173418E+04  0.12500000000E+03 0.  0.
         21    1    1    2  502  501  0.88286594195E+02  0.18834896052E+03 -0.53373533937E+03  0.57283790564E+03  0.00000000000E+00 0. -1.
<mgrwt>
<rscale>  3 0.48611139E+03</rscale>
<asrwt>0</asrwt>
<pdfrwt beam="1">  1        2 0.30393110E+00 0.48611139E+03</pdfrwt>
<pdfrwt beam="2">  1       -2 0.46005499E-02 0.48611139E+03</pdfrwt>
<totfact> 0.16780300E+03</totfact>
</mgrwt>
</event>
<event>
 4    0  0.1264838E-002  0.4469527E+03  0.7546771E-02  0.1028635E+00
         -2   -1    0    0    0  501 -0.00000000000E+00  0.00000000000E+00  0.44098194100E+02  0.44098194100E+02  0.00000000000E+00 0.  1.
          2   -1    0    0  502    0  0.00000000000E+00 -0.00000000000E+00 -0.11325106288E+04  0.11325106288E+04  0.00000000000E+00 0. -1.
         25    1    1    2    0    0  0.15129626967E+03 -0.13782064010E+03 -0.52505564940E+03  0.57722917894E+03  0.12500000000E+03 0.  0.
         21    1    1    2  502  501 -0.15129626967E+03  0.13782064010E+03 -0.56335678533E+03  0.59937964399E+03  0.00000000000E+00 0.  1.
<mgrwt>
<rscale>  3 0.44695268E+03</rscale>
<asrwt>0</asrwt>
<pdfrwt beam="1">  1        2 0.17423241E+00 0.44695268E+03</pdfrwt>
<pdfrwt beam="2">  1       -2 0.67843374E-02 0.44695268E+03</pdfrwt>
<totfact> 0.26789219E+03</totfact>
</mgrwt>
</event>
<event>
 4    0  0.1264838E-002  0.5180846E+03  0.7546771E-02  0.1009163E+00
          1   -1    0    0  502    0  0.00000000000E+00  0.00000000000E+00  0.39048916349E+03  0.39048916349E+03  0.00000000000E+00 0. -1.
         -1   -1    0    0    0  501 -0.00000000000E+00 -0.00000000000E+00 -0.17184322151E+03  0.17184322151E+03  0.00000000000E+00 0.  1.
         25    1    1    2    0    0  0.18712532566E+03  0.12867756645E+03  0.18945609898E+02  0.25991871758E+03  0.12500000000E+03 0.  0.
         21    1    1    2  502  501 -0.18712532566E+03 -0.12867756645E+03  0.19970033208E+03  0.30241366743E+03  0.00000000000E+00 0. -1.
<mgrwt>
<rscale>  3 0.51808461E+03</rscale>
<asrwt>0</asrwt>
<pdfrwt beam="1">  1        1 0.60075256E-01 0.51808461E+03</pdfrwt>
<pdfrwt beam="2">  1       -1 0.26437419E-01 0.51808461E+03</pdfrwt>
<totfact> 0.79266869E+02</totfact>
</mgrwt>
</event>
<event>
 4    0  0.1264838E-002  0.7133702E+03  0.7546771E-02  0.9694637E-01
         -2   -1    0    0    0  501 -0.00000000000E+00  0.00000000000E+00  0.87801055432E+02  0.87801055432E+02  0.00000000000E+00 0.  1.
          2   -1    0    0  502    0  0.00000000000E+00 -0.00000000000E+00 -0.14490060353E+04  0.14490060353E+04  0.00000000000E+00 0. -1.
         25    1    1    2    0    0  0.31557114769E+03 -0.12959551929E+03 -0.82243846151E+03  0.89911632776E+03  0.12500000000E+03 0.  0.
         21    1    1    2  502  501 -0.31557114769E+03  0.12959551929E+03 -0.53876651833E+03  0.63769076294E+03  0.00000000000E+00 0.  1.
<mgrwt>
<rscale>  3 0.71337020E+03</rscale>
<asrwt>0</asrwt>
<pdfrwt beam="1">  1        2 0.22292400E+00 0.71337020E+03</pdfrwt>
<pdfrwt beam="2">  1       -2 0.13507855E-01 0.71337020E+03</pdfrwt>
<totfact> 0.57458946E+02</totfact>
</mgrwt>
</event>
<event>
 4    0  0.1530330E-002  0.6972143E+03  0.7546771E-02  0.9722008E-01
          2   -1    0    0  502    0  0.00000000000E+00  0.00000000000E+00  0.13160186107E+04  0.13160186107E+04  0.00000000000E+00 0.  1.
         -2   -1    0    0    0  501 -0.00000000000E+00 -0.00000000000E+00 -0.92344409694E+02  0.92344409694E+02  0.00000000000E+00 0. -1.
         25    1    1    2    0    0  0.83552005246E+02 -0.20507087762E+03  0.11727910122E+03  0.28002569527E+03  0.12500000000E+03 0.  0.
         21    1    1    2  502  501 -0.83552005246E+02  0.20507087762E+03  0.11063950997E+04  0.11283373251E+04  0.00000000000E+00 0.  1.
<mgrwt>
<rscale>  3 0.69721435E+03</rscale>
<asrwt>0</asrwt>
<pdfrwt beam="1">  1        2 0.20246439E+00 0.69721435E+03</pdfrwt>
<pdfrwt beam="2">  1       -2 0.14206833E-01 0.69721435E+03</pdfrwt>
<totfact> 0.62844047E+02</totfact>
</mgrwt>
</event>
<event>
 4    0  0.1264838E-002  0.6313363E+03  0.7546771E-02  0.9842445E-01
          1   -1    0    0  502    0  0.00000000000E+00  0.00000000000E+00  0.11210672951E+04  0.11210672951E+04  0.00000000000E+00 0. -1.
         -1   -1    0    0    0  501 -0.00000000000E+00 -0.00000000000E+00 -0.88885270665E+02  0.88885270665E+02  0.00000000000E+00 0.  1.
         25    1    1    2    0    0 -0.10848435043E+02  0.30030223259E+03  0.45758544898E+03  0.56152343011E+03  0.12500000000E+03 0.  0.
         21    1    1    2  502  501  0.10848435043E+02 -0.30030223259E+03  0.57459657545E+03  0.64842913565E+03  0.00000000000E+00 0. -1.
<mgrwt>
<rscale>  3 0.63133627E+03</rscale>
<asrwt>0</asrwt>
<pdfrwt beam="1">  1        1 0.17247188E+00 0.63133627E+03</pdfrwt>
<pdfrwt beam="2">  1       -1 0.13674658E-01 0.63133627E+03</pdfrwt>
<totfact> 0.47501315E+02</totfact>
</mgrwt>
</event>
<event>
 4    0  0.1264838E-002  0.4815068E+03  0.7546771E-02  0.1018722E+00
         -1   -1    0    0    0  501 -0.00000000000E+00  0.00000000000E+00  0.30776871852E+02  0.30776871852E+02  0.00000000000E+00 0.  1.
          1   -1    0    0  502    0  0.00000000000E+00 -0.00000000000E+00 -0.18833034832E+04  0.18833034832E+04  0.00000000000E+00 0. -1.
         25    1    1    2    0    0 -0.20607036694E+03 -0.85353667794E+02 -0.10910201201E+04  0.11205802726E+04  0.12500000000E+03 0.  0.
         21    1    1    2  502  501  0.20607036694E+03  0.85353667794E+02 -0.76150649118E+03  0.79350008245E+03  0.00000000000E+00 0.  1.
<mgrwt>
<rscale>  3 0.48150676E+03</rscale>
<asrwt>0</asrwt>
<pdfrwt beam="1">  1        1 0.28973899E+00 0.48150676E+03</pdfrwt>
<pdfrwt beam="2">  1       -1 0.47349034E-02 0.48150676E+03</pdfrwt>
<totfact> 0.75320201E+02</totfact>
</mgrwt>
</event>
<event>
 4    0  0.1264838E-002  0.5566620E+03  0.7546771E-02  0.9999636E-01
          2   -1    0    0  502    0  0.00000000000E+00  0.00000000000E+00  0.13766168363E+04  0.13766168363E+04  0.00000000000E+00 0. -1.
         -2   -1    0    0    0  501 -0.00000000000E+00 -0.00000000000E+00 -0.56274289994E+02  0.56274289994E+02  0.00000000000E+00 0.  1.
         25    1    1    2    0    0 -0.17900253389E+03 -0.15337956243E+03  0.38580191061E+03  0.46907921670E+03  0.12500000000E+03 0.  0.
         21    1    1    2  502  501  0.17900253389E+03  0.15337956243E+03  0.93454063573E+03  0.96381190963E+03  0.00000000000E+00 0. -1.
<mgrwt>
<rscale>  3 0.55666196E+03</rscale>
<asrwt>0</asrwt>
<pdfrwt beam="1">  1        2 0.21178718E+00 0.55666196E+03</pdfrwt>
<pdfrwt beam="2">  1       -2 0.86575841E-02 0.55666196E+03</pdfrwt>
<totfact> 0.13146669E+03</totfact>
</mgrwt>
</event>
<event>
 4    0  0.1264838E-002  0.5215004E+03  0.7546771E-02  0.1008315E+00
          2   -1    0    0  502    0  0.00000000000E+00  0.00000000000E+00  0.20930201379E+03  0.20930201379E+03  0.00000000000E+00 0.  1.
         -2   -1    0    0    0  501 -0.00000000000E+00 -0.00000000000E+00 -0.32484482658E+03  0.32484482658E+03  0.00000000000E+00 0. -1.
         25    1    1    2    0    0 -0.11515744309E+03  0.21049697872E+03 -0.65797718721E+01  0.27062614092E+03  0.12500000000E+03 0.  0.
         21    1    1    2  502  501  0.11515744309E+03 -0.21049697872E+03 -0.10896304092E+03  0.26352069945E+03  0.00000000000E+00 0. -1.
<mgrwt>
<rscale>  3 0.52150044E+03</rscale>
<asrwt>0</asrwt>
<pdfrwt beam="1">  1        2 0.32200310E-01 0.52150044E+03</pdfrwt>
<pdfrwt beam="2">  1       -2 0.49976127E-01 0.52150044E+03</pdfrwt>
<totfact> 0.62642579E+02</totfact>
</mgrwt>
</event>
<event>
 4    0  0.1264838E-002  0.5123338E+03  0.7546771E-02  0.1010609E+00
          2   -1    0    0  502    0  0.00000000000E+00  0.00000000000E+00  0.19188951835E+03  0.19188951835E+03  0.00000000000E+00 0.  1.
         -2   -1    0    0    0  501 -0.00000000000E+00 -0.00000000000E+00 -0.34197534454E+03  0.34197534454E+03  0.00000000000E+00 0. -1.
         25    1    1    2    0    0 -0.14477526983E+03  0.18846223325E+03 -0.38305569203E+02  0.27123828776E+03  0.12500000000E+03 0.  0.
         21    1    1    2  502  501  0.14477526983E+03 -0.18846223325E+03 -0.11178025699E+03  0.26262657513E+03  0.00000000000E+00 0. -1.
<mgrwt>
<rscale>  3 0.51233381E+03</rscale>
<asrwt>0</asrwt>
<pdfrwt beam="1">  1        2 0.29521464E-01 0.51233381E+03</pdfrwt>
<pdfrwt beam="2">  1       -2 0.52611592E-01 0.51233381E+03</pdfrwt>
<totfact> 0.62191327E+02</totfact>
</mgrwt>
</event>
<event>
 4    0  0.1264838E-002  0.4942415E+03  0.7546771E-02  0.1015293E+00
          1   -1    0    0  502    0  0.00000000000E+00  0.00000000000E+00  0.60317144687E+03  0.60317144687E+03  0.00000000000E+00 0. -1.
         -1   -1    0    0    0  501 -0.00000000000E+00 -0.00000000000E+00 -0.10124596585E+03  0.10124596585E+03  0.00000000000E+00 0.  1.
         25    1    1    2    0    0  0.21860179060E+03 -0.33790148348E+02  0.17058690191E+03  0.30602844325E+03  0.12500000000E+03 0.  0.
         21    1    1    2  502  501 -0.21860179060E+03  0.33790148348E+02  0.33133857912E+03  0.39838896946E+03  0.00000000000E+00 0. -1.
<mgrwt>
<rscale>  3 0.49424154E+03</rscale>
<asrwt>0</asrwt>
<pdfrwt beam="1">  1        1 0.92795605E-01 0.49424154E+03</pdfrwt>
<pdfrwt beam="2">  1       -1 0.15576303E-01 0.49424154E+03</pdfrwt>
<totfact> 0.10565359E+03</totfact>
</mgrwt>
</event>
<event>
 4    0  0.1264838E-002  0.4956265E+03  0.7546771E-02  0.1014927E+00
          1   -1    0    0  502    0  0.00000000000E+00  0.00000000000E+00  0.73864683886E+03  0.73864683886E+03  0.00000000000E+00 0. -1.
         -1   -1    0    0    0  501 -0.00000000000E+00 -0.00000000000E+00 -0.83140410555E+02  0.83140410555E+02  0.00000000000E+00 0.  1.
         25    1    1    2    0    0 -0.21869137484E+03  0.76720705971E+02  0.32930828790E+03  0.42164076254E+03  0.12500000000E+03 0.  0.
         21    1    1    2  502  501  0.21869137484E+03 -0.76720705971E+02  0.32619814041E+03  0.40014648688E+03  0.00000000000E+00 0.  1.
<mgrwt>
<rscale>  3 0.49562648E+03</rscale>
<asrwt>0</asrwt>
<pdfrwt beam="1">  1        1 0.11363797E+00 0.49562648E+03</pdfrwt>
<pdfrwt beam="2">  1       -1 0.12790833E-01 0.49562648E+03</pdfrwt>
<totfact> 0.10763164E+03</totfact>
</mgrwt>
</event>
<event>
 4    0  0.1264838E-002  0.5474779E+03  0.7546771E-02  0.1002079E+00
         -2   -1    0    0    0  501 -0.00000000000E+00  0.00000000000E+00  0.14122033167E+04  0.14122033167E+04  0.00000000000E+00 0. -1.
          2   -1    0    0  502    0  0.00000000000E+00 -0.00000000000E+00 -0.53061067076E+02  0.53061067076E+02  0.00000000000E+00 0.  1.
         25    1    1    2    0    0  0.24479257057E+02 -0.24695256629E+03  0.91775625980E+03  0.95889851206E+03  0.12500000000E+03 0.  0.
         21    1    1    2  502  501 -0.24479257057E+02  0.24695256629E+03  0.44138598981E+03  0.50636587170E+03  0.00000000000E+00 0.  1.
<mgrwt>
<rscale>  3 0.54747791E+03</rscale>
<asrwt>0</asrwt>
<pdfrwt beam="1">  1        2 0.81632421E-02 0.54747791E+03</pdfrwt>
<pdfrwt beam="2">  1       -2 0.21726202E+00 0.54747791E+03</pdfrwt>
<totfact> 0.91668800E+01</totfact>
</mgrwt>
</event>
<event>
 4    0  0.1264838E-002  0.4887945E+03  0.7546771E-02  0.1016746E+00
          2   -1    0    0  502    0  0.00000000000E+00  0.00000000000E+00  0.19185039077E+04  0.19185039077E+04  0.00000000000E+00 0.  1.
         -2   -1    0    0    0  501 -0.00000000000E+00 -0.00000000000E+00 -0.31133641278E+02  0.31133641278E+02  0.00000000000E+00 0. -1.
         25    1    1    2    0    0 -0.13773061275E+03  0.18204924484E+03  0.10366362528E+04  0.10688083878E+04  0.12500000000E+03 0.  0.
         21    1    1    2  502  501  0.13773061275E+03 -0.18204924484E+03  0.85073401367E+03  0.88082916121E+03  0.00000000000E+00 0. -1.
<mgrwt>
<rscale>  3 0.48879449E+03</rscale>
<asrwt>0</asrwt>
<pdfrwt beam="1">  1        2 0.29515436E+00 0.48879449E+03</pdfrwt>
<pdfrwt beam="2">  1       -2 0.47897925E-02 0.48879449E+03</pdfrwt>
<totfact> 0.16920939E+03</totfact>
</mgrwt>
</event>
<event>
 4    0  0.1264838E-002  0.6184943E+03  0.7546771E-02  0.9867762E-01
          2   -1    0    0  502    0  0.00000000000E+00  0.00000000000E+00  0.11568156200E+04  0.11568156200E+04  0.00000000000E+00 0.  1.
         -2   -1    0    0    0  501 -0.00000000000E+00 -0.00000000000E+00 -0.82669865140E+02  0.82669865140E+02  0.00000000000E+00 0. -1.
         25    1    1    2    0    0 -0.15482111908E+03 -0.23569640369E+03  0.37469891411E+03  0.48533148452E+03  0.12500000000E+03 0.  0.
         21    1    1    2  502  501  0.15482111908E+03  0.23569640369E+03  0.69944684075E+03  0.75415400063E+03  0.00000000000E+00 0.  1.
<mgrwt>
<rscale>  3 0.61849427E+03</rscale>
<asrwt>0</asrwt>
<pdfrwt beam="1">  1        2 0.17797162E+00 0.61849427E+03</pdfrwt>
<pdfrwt beam="2">  1       -2 0.12718442E-01 0.61849427E+03</pdfrwt>
<totfact> 0.93924922E+02</totfact>
</mgrwt>
</event>
<event>
 4    0  0.1264838E-002  0.6198732E+03  0.7546771E-02  0.9865012E-01
          2   -1    0    0  502    0  0.00000000000E+00  0.00000000000E+00  0.17462580056E+04  0.17462580056E+04  0.00000000000E+00 0. -1.
         -2   -1    0    0    0  501 -0.00000000000E+00 -0.00000000000E+00 -0.55009445908E+02  0.55009445908E+02  0.00000000000E+00 0.  1.
         25    1    1    2    0    0 -0.24375106705E+03  0.86033107943E+02  0.45302939189E+03  0.53635520718E+03  0.12500000000E+03 0.  0.
         21    1    1    2  502  501  0.24375106705E+03 -0.86033107943E+02  0.12382191678E+04  0.12649122444E+04  0.00000000000E+00 0. -1.
<mgrwt>
<rscale>  3 0.61987317E+03</rscale>
<asrwt>0</asrwt>
<pdfrwt beam="1">  1        2 0.26865504E+00 0.61987317E+03</pdfrwt>
<pdfrwt beam="2">  1       -2 0.84629930E-02 0.61987317E+03</pdfrwt>
<totfact> 0.85145381E+02</totfact>
</mgrwt>
</event>
<event>
 4    0  0.1264838E-002  0.4619705E+03  0.7546771E-02  0.1024211E+00
          1   -1    0    0  502    0  0.00000000000E+00  0.00000000000E+00  0.30561909405E+02  0.30561909405E+02  0.00000000000E+00 0.  1.
         -1   -1    0    0    0  501 -0.00000000000E+00 -0.00000000000E+00 -0.17457740877E+04  0.17457740877E+04  0.00000000000E+00 0. -1.
         25    1    1    2    0    0  0.20923472444E+03  0.30848815021E+02 -0.10477408570E+04  0.10761583168E+04  0.12500000000E+03 0.  0.
         21    1    1    2  502  501 -0.20923472444E+03 -0.30848815021E+02 -0.66747132120E+03  0.70017768026E+03  0.00000000000E+00 0. -1.
<mgrwt>
<rscale>  3 0.46197052E+03</rscale>
<asrwt>0</asrwt>
<pdfrwt beam="1">  1        1 0.47018297E-02 0.46197052E+03</pdfrwt>
<pdfrwt beam="2">  1       -1 0.26858077E+00 0.46197052E+03</pdfrwt>
<totfact> 0.10797290E+02</totfact>
</mgrwt>
</event>
<event>
 4    0  0.1264838E-002  0.6011465E+03  0.7546771E-02  0.9903030E-01
          1   -1    0    0  502    0  0.00000000000E+00  0.00000000000E+00  0.21741560648E+03  0.21741560648E+03  0.00000000000E+00 0.  1.
         -1   -1    0    0    0  501 -0.00000000000E+00 -0.00000000000E+00 -0.41553721424E+03  0.41553721424E+03  0.00000000000E+00 0. -1.
         25    1    1    2    0    0  0.23787696934E+03  0.15585250502E+03 -0.58360965257E+02  0.31607982873E+03  0.12500000000E+03 0.  0.
         21    1    1    2  502  501 -0.23787696934E+03 -0.15585250502E+03 -0.13976064250E+03  0.31687299199E+03  0.00000000000E+00 0. -1.
<mgrwt>
<rscale>  3 0.60114649E+03</rscale>
<asrwt>0</asrwt>
<pdfrwt beam="1">  1        1 0.33448555E-01 0.60114649E+03</pdfrwt>
<pdfrwt beam="2">  1       -1 0.63928801E-01 0.60114649E+03</pdfrwt>
<totfact> 0.33575471E+02</totfact>
</mgrwt>
</event>
<event>
 4    0  0.1264838E-002  0.5061590E+03  0.7546771E-02  0.1012184E+00
         -1   -1    0    0    0  501 -0.00000000000E+00  0.00000000000E+00  0.74903084220E+02  0.74903084220E+02  0.00000000000E+00 0. -1.
          1   -1    0    0  502    0  0.00000000000E+00 -0.00000000000E+00 -0.85509464514E+03  0.85509464514E+03  0.00000000000E+00 0.  1.
         25    1    1    2    0    0 -0.95881199853E+02  0.20596873682E+03 -0.28581563888E+03  0.38591696576E+03  0.12500000000E+03 0.  0.
         21    1    1    2  502  501  0.95881199853E+02 -0.20596873682E+03 -0.49437592204E+03  0.54408076360E+03  0.00000000000E+00 0.  1.
<mgrwt>
<rscale>  3 0.50615897E+03</rscale>
<asrwt>0</asrwt>
<pdfrwt beam="1">  1        1 0.13155302E+00 0.50615897E+03</pdfrwt>
<pdfrwt beam="2">  1       -1 0.11523552E-01 0.50615897E+03</pdfrwt>
<totfact> 0.10090782E+03</totfact>
</mgrwt>
</event>
<event>
 4    0  0.1264838E-002  0.8480730E+03  0.7546771E-02  0.9492927E-01
          2   -1    0    0  502    0  0.00000000000E+00  0.00000000000E+00  0.82696987763E+03  0.82696987763E+03  0.00000000000E+00 0.  1.
         -2   -1    0    0    0  501 -0.00000000000E+00 -0.00000000000E+00 -0.21742865048E+03  0.21742865048E+03  0.00000000000E+00 0. -1.
         25    1    1    2    0    0 -0.39110974016E+02  0.40468158767E+03  0.20997101900E+03  0.47435185728E+03  0.12500000000E+03 0.  0.
         21    1    1    2  502  501  0.39110974016E+02 -0.40468158767E+03  0.39957020815E+03  0.57004667083E+03  0.00000000000E+00 0.  1.
<mgrwt>
<rscale>  3 0.84807298E+03</rscale>
<asrwt>0</asrwt>
<pdfrwt beam="1">  1        2 0.12722613E+00 0.84807298E+03</pdfrwt>
<pdfrwt beam="2">  1       -2 0.33450562E-01 0.84807298E+03</pdfrwt>
<totfact> 0.27610850E+02</totfact>
</mgrwt>
</event>
<event>
 4    0  0.1264838E-002  0.6318568E+03  0.7546771E-02  0.9841432E-01
         -2   -1    0    0    0  501 -0.00000000000E+00  0.00000000000E+00  0.21090125686E+03  0.21090125686E+03  0.00000000000E+00 0.  1.
          2   -1    0    0  502    0  0.00000000000E+00 -0.00000000000E+00 -0.47325829452E+03  0.47325829452E+03  0.00000000000E+00 0. -1.
         25    1    1    2    0    0  0.22483348791E+03 -0.17583011222E+03 -0.24388628221E+02  0.31254780568E+03  0.12500000000E+03 0.  0.
         21    1    1    2  502  501 -0.22483348791E+03  0.17583011222E+03 -0.23796840944E+03  0.37161174570E+03  0.00000000000E+00 0. -1.
<mgrwt>
<rscale>  3 0.63185685E+03</rscale>
<asrwt>0</asrwt>
<pdfrwt beam="1">  1        2 0.72808968E-01 0.63185685E+03</pdfrwt>
<pdfrwt beam="2">  1       -2 0.32446348E-01 0.63185685E+03</pdfrwt>
<totfact> 0.58454692E+02</totfact>
</mgrwt>
</event>
<event>
 4    0  0.1264838E-002  0.6152589E+03  0.7546771E-02  0.9874245E-01
         -1   -1    0    0    0  501 -0.00000000000E+00  0.00000000000E+00  0.61549921408E+02  0.61549921408E+02  0.00000000000E+00 0. -1.
          1   -1    0    0  502    0  0.00000000000E+00 -0.00000000000E+00 -0.15375468881E+04  0.15375468881E+04  0.00000000000E+00 0.  1.
         25    1    1    2    0    0  0.13700654362E+03  0.19648546947E+03 -0.12156753871E+04  0.12453389014E+04  0.12500000000E+03 0.  0.
         21    1    1    2  502  501 -0.13700654362E+03 -0.19648546947E+03 -0.26032157962E+03  0.35375790807E+03  0.00000000000E+00 0.  1.
<mgrwt>
<rscale>  3 0.61525894E+03</rscale>
<asrwt>0</asrwt>
<pdfrwt beam="1">  1        1 0.23654567E+00 0.61525894E+03</pdfrwt>
<pdfrwt beam="2">  1       -1 0.94692189E-02 0.61525894E+03</pdfrwt>
<totfact> 0.43522517E+02</totfact>
</mgrwt>
</event>
<event>
 4    0  0.1264838E-002  0.6023424E+03  0.7546771E-02  0.9900558E-01
          2   -1    0    0  502    0  0.00000000000E+00  0.00000000000E+00  0.15346388068E+04  0.15346388068E+04  0.00000000000E+00 0.  1.
         -2   -1    0    0    0  501 -0.00000000000E+00 -0.00000000000E+00 -0.59104517855E+02  0.59104517855E+02  0.00000000000E+00 0. -1.
         25    1    1    2    0    0  0.25930106581E+03 -0.81657359824E+02  0.10227028624E+04  0.10655754839E+04  0.12500000000E+03 0.  0.
         21    1    1    2  502  501 -0.25930106581E+03  0.81657359824E+02  0.45283142660E+03  0.52816784080E+03  0.00000000000E+00 0. -1.
<mgrwt>
<rscale>  3 0.60234238E+03</rscale>
<asrwt>0</asrwt>
<pdfrwt beam="1">  1        2 0.23609825E+00 0.60234238E+03</pdfrwt>
<pdfrwt beam="2">  1       -2 0.90930039E-02 0.60234238E+03</pdfrwt>
<totfact> 0.99082896E+02</totfact>
</mgrwt>
</event>
<event>
 4    0  0.1550112E-002  0.7506328E+03  0.7546771E-02  0.9634358E-01
          3   -1    0    0  502    0  0.00000000000E+00  0.00000000000E+00  0.31191514402E+03  0.31191514402E+03  0.00000000000E+00 0. -1.
         -3   -1    0    0    0  501 -0.00000000000E+00 -0.00000000000E+00 -0.45160485831E+03  0.45160485831E+03  0.00000000000E+00 0.  1.
         25    1    1    2    0    0 -0.40355802599E+02  0.20299039966E+03 -0.37748193030E+03  0.44827592046E+03  0.12500000000E+03 0.  0.
         21    1    1    2  502  501  0.40355802599E+02 -0.20299039966E+03  0.23779221601E+03  0.31524408187E+03  0.00000000000E+00 0. -1.
<mgrwt>
<rscale>  3 0.75063278E+03</rscale>
<asrwt>0</asrwt>
<pdfrwt beam="1">  1        3 0.47986945E-01 0.75063278E+03</pdfrwt>
<pdfrwt beam="2">  1       -3 0.69477670E-01 0.75063278E+03</pdfrwt>
<totfact> 0.22551076E+01</totfact>
</mgrwt>
</event>
<event>
 4    0  0.1264838E-002  0.4627538E+03  0.7546771E-02  0.1023986E+00
          1   -1    0    0  502    0  0.00000000000E+00  0.00000000000E+00  0.59897569367E+03  0.59897569367E+03  0.00000000000E+00 0.  1.
         -1   -1    0    0    0  501 -0.00000000000E+00 -0.00000000000E+00 -0.89378027583E+02  0.89378027583E+02  0.00000000000E+00 0. -1.
         25    1    1    2    0    0 -0.85096215725E+02  0.19328069824E+03  0.32922673547E+03  0.41062639661E+03  0.12500000000E+03 0.  0.
         21    1    1    2  502  501  0.85096215725E+02 -0.19328069824E+03  0.18037093061E+03  0.27772732464E+03  0.00000000000E+00 0. -1.
<mgrwt>
<rscale>  3 0.46275378E+03</rscale>
<asrwt>0</asrwt>
<pdfrwt beam="1">  1        1 0.92150104E-01 0.46275378E+03</pdfrwt>
<pdfrwt beam="2">  1       -1 0.13750466E-01 0.46275378E+03</pdfrwt>
<totfact> 0.13043961E+03</totfact>
</mgrwt>
</event>
<event>
 4    0  0.1264838E-002  0.5463663E+03  0.7546771E-02  0.1002339E+00
         -2   -1    0    0    0  501 -0.00000000000E+00  0.00000000000E+00  0.36552254688E+02  0.36552254688E+02  0.00000000000E+00 0.  1.
          2   -1    0    0  502    0  0.00000000000E+00 -0.00000000000E+00 -0.20417077902E+04  0.20417077902E+04  0.00000000000E+00 0. -1.
         25    1    1    2    0    0 -0.17359969484E+03  0.19203170018E+03 -0.10443250972E+04  0.10831680094E+04  0.12500000000E+03 0.  0.
         21    1    1    2  502  501  0.17359969484E+03 -0.19203170018E+03 -0.96083043827E+03  0.99509203545E+03  0.00000000000E+00 0.  1.
<mgrwt>
<rscale>  3 0.54636626E+03</rscale>
<asrwt>0</asrwt>
<pdfrwt beam="1">  1        2 0.31410899E+00 0.54636626E+03</pdfrwt>
<pdfrwt beam="2">  1       -2 0.56234220E-02 0.54636626E+03</pdfrwt>
<totfact> 0.11288106E+03</totfact>
</mgrwt>
</event>
<event>
 4    0  0.1264838E-002  0.5981198E+03  0.7546771E-02  0.9909315E-01
         -1   -1    0    0    0  501 -0.00000000000E+00  0.00000000000E+00  0.46989551761E+02  0.46989551761E+02  0.00000000000E+00 0.  1.
          1   -1    0    0  502    0  0.00000000000E+00 -0.00000000000E+00 -0.19033342051E+04  0.19033342051E+04  0.00000000000E+00 0. -1.
         25    1    1    2    0    0 -0.23914135695E+03  0.39055708075E+02 -0.47332290569E+03  0.54623576410E+03  0.12500000000E+03 0.  0.
         21    1    1    2  502  501  0.23914135695E+03 -0.39055708075E+02 -0.13830217477E+04  0.14040879928E+04  0.00000000000E+00 0. -1.
<mgrwt>
<rscale>  3 0.59811979E+03</rscale>
<asrwt>0</asrwt>
<pdfrwt beam="1">  1        1 0.29282054E+00 0.59811979E+03</pdfrwt>
<pdfrwt beam="2">  1       -1 0.72291645E-02 0.59811979E+03</pdfrwt>
<totfact> 0.37807657E+02</totfact>
</mgrwt>
</event>
<event>
 4    0  0.1264838E-002  0.5223589E+03  0.7546771E-02  0.1008102E+00
         -2   -1    0    0    0  501 -0.00000000000E+00  0.00000000000E+00  0.19229981247E+03  0.19229981247E+03  0.00000000000E+00 0.  1.
          2   -1    0    0  502    0  0.00000000000E+00 -0.00000000000E+00 -0.35473094856E+03  0.35473094856E+03  0.00000000000E+00 0. -1.
         25    1    1    2    0    0 -0.21430269769E+03 -0.12035046779E+03 -0.70475155750E+02  0.28460785110E+03  0.12500000000E+03 0.  0.
         21    1    1    2  502  501  0.21430269769E+03  0.12035046779E+03 -0.91955980343E+02  0.26242290992E+03  0.00000000000E+00 0.  1.
<mgrwt>
<rscale>  3 0.52235886E+03</rscale>
<asrwt>0</asrwt>
<pdfrwt beam="1">  1        2 0.54573991E-01 0.52235886E+03</pdfrwt>
<pdfrwt beam="2">  1       -2 0.29584587E-01 0.52235886E+03</pdfrwt>
<totfact> 0.96007632E+02</totfact>
</mgrwt>
</event>
<event>
 4    0  0.1693588E-002  0.7202467E+03  0.7546771E-02  0.9683221E-01
         -2   -1    0    0    0  501 -0.00000000000E+00  0.00000000000E+00  0.91319986118E+02  0.91319986118E+02  0.00000000000E+00 0. -1.
          2   -1    0    0  502    0  0.00000000000E+00 -0.00000000000E+00 -0.14201583725E+04  0.14201583725E+04  0.00000000000E+00 0.  1.
         25    1    1    2    0    0  0.62927925794E+02 -0.20317814857E+03 -0.10304168142E+03  0.26736467981E+03  0.12500000000E+03 0.  0.
         21    1    1    2  502  501 -0.62927925794E+02  0.20317814857E+03 -0.12257967049E+04  0.12441136788E+04  0.00000000000E+00 0.  1.
<mgrwt>
<rscale>  3 0.72024674E+03</rscale>
<asrwt>0</asrwt>
<pdfrwt beam="1">  1        2 0.21848592E+00 0.72024674E+03</pdfrwt>
<pdfrwt beam="2">  1       -2 0.14049228E-01 0.72024674E+03</pdfrwt>
<totfact> 0.55821086E+02</totfact>
</mgrwt>
</event>
<event>
 4    0  0.1264838E-002  0.4815244E+03  0.7546771E-02  0.1018717E+00
         -1   -1    0    0    0  501 -0.00000000000E+00  0.00000000000E+00  0.91468419965E+02  0.91468419965E+02  0.00000000000E+00 0. -1.
          1   -1    0    0  502    0  0.00000000000E+00 -0.00000000000E+00 -0.63373168002E+03  0.63373168002E+03  0.00000000000E+00 0.  1.
         25    1    1    2    0    0  0.40880899244E+02 -0.20971714271E+03 -0.18544544957E+03  0.30930170163E+03  0.12500000000E+03 0.  0.
         21    1    1    2  502  501 -0.40880899244E+02  0.20971714271E+03 -0.35681781049E+03  0.41589839836E+03  0.00000000000E+00 0.  1.
<mgrwt>
<rscale>  3 0.48152439E+03</rscale>
<asrwt>0</asrwt>
<pdfrwt beam="1">  1        1 0.97497180E-01 0.48152439E+03</pdfrwt>
<pdfrwt beam="2">  1       -1 0.14072065E-01 0.48152439E+03</pdfrwt>
<totfact> 0.11594483E+03</totfact>
</mgrwt>
</event>
<event>
 4    0  0.1264838E-002  0.4418873E+03  0.7546771E-02  0.1030169E+00
          1   -1    0    0  502    0  0.00000000000E+00  0.00000000000E+00  0.53849211362E+03  0.53849211362E+03  0.00000000000E+00 0.  1.
         -1   -1    0    0    0  501 -0.00000000000E+00 -0.00000000000E+00 -0.90653329357E+02  0.90653329357E+02  0.00000000000E+00 0. -1.
         25    1    1    2    0    0  0.17996119430E+03 -0.92666950105E+02  0.26820534005E+03  0.35851401580E+03  0.12500000000E+03 0.  0.
         21    1    1    2  502  501 -0.17996119430E+03  0.92666950105E+02  0.17963344421E+03  0.27063142717E+03  0.00000000000E+00 0. -1.
<mgrwt>
<rscale>  3 0.44188733E+03</rscale>
<asrwt>0</asrwt>
<pdfrwt beam="1">  1        1 0.82844939E-01 0.44188733E+03</pdfrwt>
<pdfrwt beam="2">  1       -1 0.13946666E-01 0.44188733E+03</pdfrwt>
<totfact> 0.14794043E+03</totfact>
</mgrwt>
</event>
<event>
 4    0  0.1264838E-002  0.6695812E+03  0.7546771E-02  0.9770715E-01
         -2   -1    0    0    0  501 -0.00000000000E+00  0.00000000000E+00  0.14971523784E+04  0.14971523784E+04  0.00000000000E+00 0. -1.
          2   -1    0    0  502    0  0.00000000000E+00 -0.00000000000E+00 -0.74865294518E+02  0.74865294518E+02  0.00000000000E+00 0.  1.
         25    1    1    2    0    0 -0.31544613676E+03 -0.10431037116E+02  0.89847200858E+03  0.96046448239E+03  0.12500000000E+03 0.  0.
         21    1    1    2  502  501  0.31544613676E+03  0.10431037116E+02  0.52381507533E+03  0.61155319055E+03  0.00000000000E+00 0.  1.
<mgrwt>
<rscale>  3 0.66958122E+03</rscale>
<asrwt>0</asrwt>
<pdfrwt beam="1">  1        2 0.11517739E-01 0.66958122E+03</pdfrwt>
<pdfrwt beam="2">  1       -2 0.23033111E+00 0.66958122E+03</pdfrwt>
<totfact> 0.48673175E+01</totfact>
</mgrwt>
</event>
<event>
 4    0  0.1264838E-002  0.5615957E+03  0.7546771E-02  0.9988451E-01
          2   -1    0    0  502    0  0.00000000000E+00  0.00000000000E+00  0.13666584401E+04  0.13666584401E+04  0.00000000000E+00 0. -1.
         -2   -1    0    0    0  501 -0.00000000000E+00 -0.00000000000E+00 -0.57693590064E+02  0.57693590064E+02  0.00000000000E+00 0.  1.
         25    1    1    2    0    0  0.16787824900E+03 -0.20635397950E+03  0.74150309048E+03  0.79763206087E+03  0.12500000000E+03 0.  0.
         21    1    1    2  502  501 -0.16787824900E+03  0.20635397950E+03  0.56746175952E+03  0.62671996926E+03  0.00000000000E+00 0.  1.
<mgrwt>
<rscale>  3 0.56159570E+03</rscale>
<asrwt>0</asrwt>
<pdfrwt beam="1">  1        2 0.21025512E+00 0.56159570E+03</pdfrwt>
<pdfrwt beam="2">  1       -2 0.88759380E-02 0.56159570E+03</pdfrwt>
<totfact> 0.12793921E+03</totfact>
</mgrwt>
</event>
<event>
 4    0  0.1264838E-002  0.4874297E+03  0.7546771E-02  0.1017113E+00
         -1   -1    0    0    0  501 -0.00000000000E+00  0.00000000000E+00  0.92197507998E+03  0.92197507998E+03  0.00000000000E+00 0.  1.
          1   -1    0    0  502    0  0.00000000000E+00 -0.00000000000E+00 -0.64423564802E+02  0.64423564802E+02  0.00000000000E+00 0. -1.
         25    1    1    2    0    0  0.87205876485E+02 -0.20942673499E+03  0.49626141070E+03  0.55978996951E+03  0.12500000000E+03 0.  0.
         21    1    1    2  502  501 -0.87205876485E+02  0.20942673499E+03  0.36129010448E+03  0.42660867527E+03  0.00000000000E+00 0.  1.
<mgrwt>
<rscale>  3 0.48742967E+03</rscale>
<asrwt>0</asrwt>
<pdfrwt beam="1">  1        1 0.99113184E-02 0.48742967E+03</pdfrwt>
<pdfrwt beam="2">  1       -1 0.14184231E+00 0.48742967E+03</pdfrwt>
<totfact> 0.28175092E+02</totfact>
</mgrwt>
</event>
<event>
 4    0  0.1264838E-002  0.4554817E+03  0.7546771E-02  0.1026100E+00
         -2   -1    0    0    0  501 -0.00000000000E+00  0.00000000000E+00  0.12472569367E+03  0.12472569367E+03  0.00000000000E+00 0.  1.
          2   -1    0    0  502    0  0.00000000000E+00 -0.00000000000E+00 -0.41583962943E+03  0.41583962943E+03  0.00000000000E+00 0. -1.
         25    1    1    2    0    0  0.60771876148E+00 -0.20092044843E+03 -0.81664666450E+02  0.25032681371E+03  0.12500000000E+03 0.  0.
         21    1    1    2  502  501 -0.60771876148E+00  0.20092044843E+03 -0.20944926931E+03  0.29023850939E+03  0.00000000000E+00 0. -1.
<mgrwt>
<rscale>  3 0.45548166E+03</rscale>
<asrwt>0</asrwt>
<pdfrwt beam="1">  1        2 0.63975329E-01 0.45548166E+03</pdfrwt>
<pdfrwt beam="2">  1       -2 0.19188568E-01 0.45548166E+03</pdfrwt>
<totfact> 0.17376776E+03</totfact>
</mgrwt>
</event>
<event>
 4    0  0.1264838E-002  0.1396014E+04  0.7546771E-02  0.8956709E-01
         -2   -1    0    0    0  501 -0.00000000000E+00  0.00000000000E+00  0.26343363026E+03  0.26343363026E+03  0.00000000000E+00 0. -1.
          2   -1    0    0  502    0  0.00000000000E+00 -0.00000000000E+00 -0.18494747173E+04  0.18494747173E+04  0.00000000000E+00 0.  1.
         25    1    1    2    0    0 -0.14484753564E+03 -0.66294129845E+03 -0.59096894438E+03  0.90848294811E+03  0.12500000000E+03 0.  0.
         21    1    1    2  502  501  0.14484753564E+03  0.66294129845E+03 -0.99507214269E+03  0.12044253995E+04  0.00000000000E+00 0.  1.
<mgrwt>
<rscale>  3 0.13960141E+04</rscale>
<asrwt>0</asrwt>
<pdfrwt beam="1">  1        2 0.28453458E+00 0.13960141E+04</pdfrwt>
<pdfrwt beam="2">  1       -2 0.40528250E-01 0.13960141E+04</pdfrwt>
<totfact> 0.45461302E+01</totfact>
</mgrwt>
</event>
<event>
 4    0  0.1264838E-002  0.8290147E+03  0.7546771E-02  0.9518944E-01
          2   -1    0    0  502    0  0.00000000000E+00  0.00000000000E+00  0.12724828235E+04  0.12724828235E+04  0.00000000000E+00 0.  1.
         -2   -1    0    0    0  501 -0.00000000000E+00 -0.00000000000E+00 -0.13502447469E+03  0.13502447469E+03  0.00000000000E+00 0. -1.
         25    1    1    2    0    0 -0.32600486419E+03  0.40536323152E+02  0.98404417230E+03  0.10449355473E+04  0.12500000000E+03 0.  0.
         21    1    1    2  502  501  0.32600486419E+03 -0.40536323152E+02  0.15341417647E+03  0.36257175085E+03  0.00000000000E+00 0. -1.
<mgrwt>
<rscale>  3 0.82901466E+03</rscale>
<asrwt>0</asrwt>
<pdfrwt beam="1">  1        2 0.19576658E+00 0.82901466E+03</pdfrwt>
<pdfrwt beam="2">  1       -2 0.20772997E-01 0.82901466E+03</pdfrwt>
<totfact> 0.34433915E+02</totfact>
</mgrwt>
</event>
<event>
 4    0  0.1264838E-002  0.8360721E+03  0.7546771E-02  0.9509224E-01
         -2   -1    0    0    0  501 -0.00000000000E+00  0.00000000000E+00  0.68726179565E+03  0.68726179565E+03  0.00000000000E+00 0.  1.
          2   -1    0    0  502    0  0.00000000000E+00 -0.00000000000E+00 -0.25427592930E+03  0.25427592930E+03  0.00000000000E+00 0. -1.
         25    1    1    2    0    0  0.85031105388E+02 -0.35057695973E+03  0.43764114253E+03  0.58076610027E+03  0.12500000000E+03 0.  0.
         21    1    1    2  502  501 -0.85031105388E+02  0.35057695973E+03 -0.46552761838E+01  0.36077162468E+03  0.00000000000E+00 0. -1.
<mgrwt>
<rscale>  3 0.83607208E+03</rscale>
<asrwt>0</asrwt>
<pdfrwt beam="1">  1        2 0.39119374E-01 0.83607208E+03</pdfrwt>
<pdfrwt beam="2">  1       -2 0.10573258E+00 0.83607208E+03</pdfrwt>
<totfact> 0.96012102E+01</totfact>
</mgrwt>
</event>
<event>
 4    0  0.1264838E-002  0.5798128E+03  0.7546771E-02  0.9948196E-01
         -2   -1    0    0    0  501 -0.00000000000E+00  0.00000000000E+00  0.22349653433E+03  0.22349653433E+03  0.00000000000E+00 0.  1.
          2   -1    0    0  502    0  0.00000000000E+00 -0.00000000000E+00 -0.37604935652E+03  0.37604935652E+03  0.00000000000E+00 0. -1.
         25    1    1    2    0    0 -0.23174154202E+03  0.88863458078E+02  0.46033209247E+02  0.28168229059E+03  0.12500000000E+03 0.  0.
         21    1    1    2  502  501  0.23174154202E+03 -0.88863458078E+02 -0.19858603144E+03  0.31786360025E+03  0.00000000000E+00 0. -1.
<mgrwt>
<rscale>  3 0.57981282E+03</rscale>
<asrwt>0</asrwt>
<pdfrwt beam="1">  1        2 0.57853747E-01 0.57981282E+03</pdfrwt>
<pdfrwt beam="2">  1       -2 0.34384082E-01 0.57981282E+03</pdfrwt>
<totfact> 0.67962701E+02</totfact>
</mgrwt>
</event>
<event>
 4    0  0.1264838E-002  0.7629099E+03  0.7546771E-02  0.9615312E-01
          4   -1    0    0  502    0  0.00000000000E+00  0.00000000000E+00  0.46030728268E+03  0.46030728268E+03  0.00000000000E+00 0.  1.
         -4   -1    0    0    0  501 -0.00000000000E+00 -0.00000000000E+00 -0.31611030064E+03  0.31611030064E+03  0.00000000000E+00 0. -1.
         25    1    1    2    0    0 -0.28436567725E+03  0.23519123692E+03  0.33053420521E+02  0.39101954546E+03  0.12500000000E+03 0.  0.
         21    1    1    2  502  501  0.28436567725E+03 -0.23519123692E+03  0.11114356151E+03  0.38539803786E+03  0.00000000000E+00 0.  1.
<mgrwt>
<rscale>  3 0.76290989E+03</rscale>
<asrwt>0</asrwt>
<pdfrwt beam="1">  1        4 0.70816505E-01 0.76290989E+03</pdfrwt>
<pdfrwt beam="2">  1       -4 0.48632354E-01 0.76290989E+03</pdfrwt>
<totfact> 0.14826260E+01</totfact>
</mgrwt>
</event>
<event>
 4    0  0.1264838E-002  0.5009700E+03  0.7546771E-02  0.1013526E+00
          2   -1    0    0  502    0  0.00000000000E+00  0.00000000000E+00  0.24387391825E+04  0.24387391825E+04  0.00000000000E+00 0.  1.
         -2   -1    0    0    0  501 -0.00000000000E+00 -0.00000000000E+00 -0.25727531595E+02  0.25727531595E+02  0.00000000000E+00 0. -1.
         25    1    1    2    0    0  0.13692203247E+03 -0.17166119649E+03  0.87126498614E+03  0.90716199515E+03  0.12500000000E+03 0.  0.
         21    1    1    2  502  501 -0.13692203247E+03  0.17166119649E+03  0.15417466647E+04  0.15573047189E+04  0.00000000000E+00 0.  1.
<mgrwt>
<rscale>  3 0.50097002E+03</rscale>
<asrwt>0</asrwt>
<pdfrwt beam="1">  1        2 0.37519046E+00 0.50097002E+03</pdfrwt>
<pdfrwt beam="2">  1       -2 0.39580837E-02 0.50097002E+03</pdfrwt>
<totfact> 0.11808533E+03</totfact>
</mgrwt>
</event>
<event>
 4    0  0.1264838E-002  0.4771548E+03  0.7546771E-02  0.1019920E+00
         -1   -1    0    0    0  501 -0.00000000000E+00  0.00000000000E+00  0.37929051661E+02  0.37929051661E+02  0.00000000000E+00 0.  1.
          1   -1    0    0  502    0  0.00000000000E+00 -0.00000000000E+00 -0.15006751317E+04  0.15006751317E+04  0.00000000000E+00 0. -1.
         25    1    1    2    0    0 -0.15471613558E+03  0.15649184862E+03 -0.68228440228E+03  0.72771133486E+03  0.12500000000E+03 0.  0.
         21    1    1    2  502  501  0.15471613558E+03 -0.15649184862E+03 -0.78046167778E+03  0.81089284852E+03  0.00000000000E+00 0.  1.
<mgrwt>
<rscale>  3 0.47715484E+03</rscale>
<asrwt>0</asrwt>
<pdfrwt beam="1">  1        1 0.23087309E+00 0.47715484E+03</pdfrwt>
<pdfrwt beam="2">  1       -1 0.58352389E-02 0.47715484E+03</pdfrwt>
<totfact> 0.98504525E+02</totfact>
</mgrwt>
</event>
<event>
 4    0  0.1264838E-002  0.4422439E+03  0.7546771E-02  0.1030061E+00
         -1   -1    0    0    0  501 -0.00000000000E+00  0.00000000000E+00  0.74463437452E+02  0.74463437452E+02  0.00000000000E+00 0.  1.
          1   -1    0    0  502    0  0.00000000000E+00 -0.00000000000E+00 -0.65662993095E+03  0.65662993095E+03  0.00000000000E+00 0. -1.
         25    1    1    2    0    0 -0.14087798190E+03 -0.14511166905E+03 -0.27772577808E+03  0.36559623916E+03  0.12500000000E+03 0.  0.
         21    1    1    2  502  501  0.14087798190E+03  0.14511166905E+03 -0.30444071542E+03  0.36549712924E+03  0.00000000000E+00 0. -1.
<mgrwt>
<rscale>  3 0.44224392E+03</rscale>
<asrwt>0</asrwt>
<pdfrwt beam="1">  1        1 0.10101999E+00 0.44224392E+03</pdfrwt>
<pdfrwt beam="2">  1       -1 0.11455913E-01 0.44224392E+03</pdfrwt>
<totfact> 0.15282097E+03</totfact>
</mgrwt>
</event>
<event>
 4    0  0.1264838E-002  0.5528907E+03  0.7546771E-02  0.1000827E+00
         -1   -1    0    0    0  501 -0.00000000000E+00  0.00000000000E+00  0.29674243705E+02  0.29674243705E+02  0.00000000000E+00 0.  1.
          1   -1    0    0  502    0  0.00000000000E+00 -0.00000000000E+00 -0.25753658462E+04  0.25753658462E+04  0.00000000000E+00 0. -1.
         25    1    1    2    0    0 -0.42179263402E+02  0.25884181340E+03 -0.13116626794E+04  0.13434515843E+04  0.12500000000E+03 0.  0.
         21    1    1    2  502  501  0.42179263402E+02 -0.25884181340E+03 -0.12340289231E+04  0.12615885056E+04  0.00000000000E+00 0.  1.
<mgrwt>
<rscale>  3 0.55289071E+03</rscale>
<asrwt>0</asrwt>
<pdfrwt beam="1">  1        1 0.39621026E+00 0.55289071E+03</pdfrwt>
<pdfrwt beam="2">  1       -1 0.45652668E-02 0.55289071E+03</pdfrwt>
<totfact> 0.27298516E+02</totfact>
</mgrwt>
</event>
<event>
 4    0  0.1264838E-002  0.5173450E+03  0.7546771E-02  0.1009348E+00
         -1   -1    0    0    0  501 -0.00000000000E+00  0.00000000000E+00  0.27382633920E+02  0.27382633920E+02  0.00000000000E+00 0.  1.
          1   -1    0    0  502    0  0.00000000000E+00 -0.00000000000E+00 -0.24435724464E+04  0.24435724464E+04  0.00000000000E+00 0. -1.
         25    1    1    2    0    0  0.69730339697E+02  0.19755170523E+03 -0.18720672738E+04  0.18878956205E+04  0.12500000000E+03 0.  0.
         21    1    1    2  502  501 -0.69730339697E+02 -0.19755170523E+03 -0.54412253874E+03  0.58305945982E+03  0.00000000000E+00 0.  1.
<mgrwt>
<rscale>  3 0.51734495E+03</rscale>
<asrwt>0</asrwt>
<pdfrwt beam="1">  1        1 0.37593424E+00 0.51734495E+03</pdfrwt>
<pdfrwt beam="2">  1       -1 0.42127127E-02 0.51734495E+03</pdfrwt>
<totfact> 0.38029369E+02</totfact>
</mgrwt>
</event>
<event>
 4    0  0.1264838E-002  0.6506376E+03  0.7546771E-02  0.9805583E-01
         -2   -1    0    0    0  501 -0.00000000000E+00  0.00000000000E+00  0.50637452269E+03  0.50637452269E+03  0.00000000000E+00 0. -1.
          2   -1    0    0  502    0  0.00000000000E+00 -0.00000000000E+00 -0.20900011861E+03  0.20900011861E+03  0.00000000000E+00 0.  1.
         25    1    1    2    0    0 -0.25612924082E+03 -0.12620393298E+03  0.12368160381E+02  0.31194164854E+03  0.12500000000E+03 0.  0.
         21    1    1    2  502  501  0.25612924082E+03  0.12620393298E+03  0.28500624371E+03  0.40343299277E+03  0.00000000000E+00 0. -1.
<mgrwt>
<rscale>  3 0.65063764E+03</rscale>
<asrwt>0</asrwt>
<pdfrwt beam="1">  1        2 0.32153864E-01 0.65063764E+03</pdfrwt>
<pdfrwt beam="2">  1       -2 0.77903773E-01 0.65063764E+03</pdfrwt>
<totfact> 0.24399395E+02</totfact>
</mgrwt>
</event>
<event>
 4    0  0.1264838E-002  0.6967395E+03  0.7546771E-02  0.9722824E-01
          2   -1    0    0  502    0  0.00000000000E+00  0.00000000000E+00  0.21569732379E+04  0.21569732379E+04  0.00000000000E+00 0.  1.
         -2   -1    0    0    0  501 -0.00000000000E+00 -0.00000000000E+00 -0.56264706811E+02  0.56264706811E+02  0.00000000000E+00 0. -1.
         25    1    1    2    0    0  0.23139669549E+03 -0.23307864212E+03  0.84214577730E+03  0.91252648965E+03  0.12500000000E+03 0.  0.
         21    1    1    2  502  501 -0.23139669549E+03  0.23307864212E+03  0.12585627538E+04  0.13007114551E+04  0.00000000000E+00 0. -1.
<mgrwt>
<rscale>  3 0.69673945E+03</rscale>
<asrwt>0</asrwt>
<pdfrwt beam="1">  1        2 0.33184197E+00 0.69673945E+03</pdfrwt>
<pdfrwt beam="2">  1       -2 0.86561104E-02 0.69673945E+03</pdfrwt>
<totfact> 0.48847321E+02</totfact>
</mgrwt>
</event>
<event>
 4    0  0.1264838E-002  0.4968725E+03  0.7546771E-02  0.1014598E+00
          2   -1    0    0  502    0  0.00000000000E+00  0.00000000000E+00  0.43492575075E+03  0.43492575075E+03  0.00000000000E+00 0.  1.
         -2   -1    0    0    0  501 -0.00000000000E+00 -0.00000000000E+00 -0.14191056567E+03  0.14191056567E+03  0.00000000000E+00 0. -1.
         25    1    1    2    0    0 -0.14584251822E+03 -0.18112887510E+03  0.16600498217E+03  0.31186593854E+03  0.12500000000E+03 0.  0.
         21    1    1    2  502  501  0.14584251822E+03  0.18112887510E+03  0.12701020291E+03  0.26497037789E+03  0.00000000000E+00 0.  1.
<mgrwt>
<rscale>  3 0.49687246E+03</rscale>
<asrwt>0</asrwt>
<pdfrwt beam="1">  1        2 0.66911653E-01 0.49687246E+03</pdfrwt>
<pdfrwt beam="2">  1       -2 0.21832395E-01 0.49687246E+03</pdfrwt>
<totfact> 0.13208733E+03</totfact>
</mgrwt>
</event>
<event>
 4    0  0.1264838E-002  0.8532654E+03  0.7546771E-02  0.9485965E-01
          2   -1    0    0  502    0  0.00000000000E+00  0.00000000000E+00  0.21390911431E+04  0.21390911431E+04  0.00000000000E+00 0.  1.
         -2   -1    0    0    0  501 -0.00000000000E+00 -0.00000000000E+00 -0.85090085019E+02  0.85090085019E+02  0.00000000000E+00 0. -1.
         25    1    1    2    0    0  0.37641033987E+03  0.18050182473E+03  0.10610223872E+04  0.11470218650E+04  0.12500000000E+03 0.  0.
         21    1    1    2  502  501 -0.37641033987E+03 -0.18050182473E+03  0.99297867082E+03  0.10771593630E+04  0.00000000000E+00 0. -1.
<mgrwt>
<rscale>  3 0.85326537E+03</rscale>
<asrwt>0</asrwt>
<pdfrwt beam="1">  1        2 0.32909091E+00 0.85326537E+03</pdfrwt>
<pdfrwt beam="2">  1       -2 0.13090784E-01 0.85326537E+03</pdfrwt>
<totfact> 0.25065277E+02</totfact>
</mgrwt>
</event>
<event>
 4    0  0.1264838E-002  0.5000384E+03  0.7546771E-02  0.1013769E+00
         -1   -1    0    0    0  501 -0.00000000000E+00  0.00000000000E+00  0.38525585860E+02  0.38525585860E+02  0.00000000000E+00 0. -1.
          1   -1    0    0  502    0  0.00000000000E+00 -0.00000000000E+00 -0.16225479372E+04  0.16225479372E+04  0.00000000000E+00 0.  1.
         25    1    1    2    0    0  0.10234392160E+03  0.20675768676E+03 -0.70380820237E+03  0.75112848770E+03  0.12500000000E+03 0.  0.
         21    1    1    2  502  501 -0.10234392160E+03 -0.20675768676E+03 -0.88021414902E+03  0.90994503540E+03  0.00000000000E+00 0. -1.
<mgrwt>
<rscale>  3 0.50003844E+03</rscale>
<asrwt>0</asrwt>
<pdfrwt beam="1">  1        1 0.24962274E+00 0.50003844E+03</pdfrwt>
<pdfrwt beam="2">  1       -1 0.59270136E-02 0.50003844E+03</pdfrwt>
<totfact> 0.79546832E+02</totfact>
</mgrwt>
</event>
<event>
 4    0  0.1264838E-002  0.5477294E+03  0.7546771E-02  0.1002021E+00
          3   -1    0    0  502    0  0.00000000000E+00  0.00000000000E+00  0.25848797899E+04  0.25848797899E+04  0.00000000000E+00 0. -1.
         -3   -1    0    0    0  501 -0.00000000000E+00 -0.00000000000E+00 -0.29015611537E+02  0.29015611537E+02  0.00000000000E+00 0.  1.
         25    1    1    2    0    0 -0.13403961701E+03  0.17117906723E+03  0.66750528514E+03  0.71306184702E+03  0.12500000000E+03 0.  0.
         21    1    1    2  502  501  0.13403961701E+03 -0.17117906723E+03  0.18883588932E+04  0.19008335544E+04  0.00000000000E+00 0. -1.
<mgrwt>
<rscale>  3 0.54772938E+03</rscale>
<asrwt>0</asrwt>
<pdfrwt beam="1">  1        3 0.39767363E+00 0.54772938E+03</pdfrwt>
<pdfrwt beam="2">  1       -3 0.44639423E-02 0.54772938E+03</pdfrwt>
<totfact> 0.93299802E+00</totfact>
</mgrwt>
</event>
<event>
 4    0  0.1264838E-002  0.5197862E+03  0.7546771E-02  0.1008740E+00
          2   -1    0    0  502    0  0.00000000000E+00  0.00000000000E+00  0.85985273295E+03  0.85985273295E+03  0.00000000000E+00 0. -1.
         -2   -1    0    0    0  501 -0.00000000000E+00 -0.00000000000E+00 -0.78553483720E+02  0.78553483720E+02  0.00000000000E+00 0.  1.
         25    1    1    2    0    0 -0.12635511353E+02 -0.24390176574E+03  0.38144946446E+03  0.46986851503E+03  0.12500000000E+03 0.  0.
         21    1    1    2  502  501  0.12635511353E+02  0.24390176574E+03  0.39984978477E+03  0.46853770164E+03  0.00000000000E+00 0. -1.
<mgrwt>
<rscale>  3 0.51978622E+03</rscale>
<asrwt>0</asrwt>
<pdfrwt beam="1">  1        2 0.13228503E+00 0.51978622E+03</pdfrwt>
<pdfrwt beam="2">  1       -2 0.12085152E-01 0.51978622E+03</pdfrwt>
<totfact> 0.15781988E+03</totfact>
</mgrwt>
</event>
<event>
 4    0  0.1264838E-002  0.4487386E+03  0.7546771E-02  0.1028099E+00
         -2   -1    0    0    0  501 -0.00000000000E+00  0.00000000000E+00  0.18592295980E+03  0.18592295980E+03  0.00000000000E+00 0. -1.
          2   -1    0    0  502    0  0.00000000000E+00 -0.00000000000E+00 -0.27076587912E+03  0.27076587912E+03  0.00000000000E+00 0.  1.
         25    1    1    2    0    0 -0.19764340094E+03 -0.60836056286E+02 -0.54121421503E+02  0.24762485324E+03  0.12500000000E+03 0.  0.
         21    1    1    2  502  501  0.19764340094E+03  0.60836056286E+02 -0.30721497813E+02  0.20906398568E+03  0.00000000000E+00 0. -1.
<mgrwt>
<rscale>  3 0.44873865E+03</rscale>
<asrwt>0</asrwt>
<pdfrwt beam="1">  1        2 0.41656289E-01 0.44873865E+03</pdfrwt>
<pdfrwt beam="2">  1       -2 0.28603532E-01 0.44873865E+03</pdfrwt>
<totfact> 0.13736297E+03</totfact>
</mgrwt>
</event>
<event>
 4    0  0.1264838E-002  0.5359151E+03  0.7546771E-02  0.1004808E+00
          1   -1    0    0  502    0  0.00000000000E+00  0.00000000000E+00  0.25828345996E+03  0.25828345996E+03  0.00000000000E+00 0. -1.
         -1   -1    0    0    0  501 -0.00000000000E+00 -0.00000000000E+00 -0.27799395050E+03  0.27799395050E+03  0.00000000000E+00 0.  1.
         25    1    1    2    0    0  0.66258896182E+02  0.22289420093E+03 -0.11110331924E+03  0.28642802530E+03  0.12500000000E+03 0.  0.
         21    1    1    2  502  501 -0.66258896182E+02 -0.22289420093E+03  0.91392828691E+02  0.24984938516E+03  0.00000000000E+00 0.  1.
<mgrwt>
<rscale>  3 0.53591507E+03</rscale>
<asrwt>0</asrwt>
<pdfrwt beam="1">  1        1 0.39735917E-01 0.53591507E+03</pdfrwt>
<pdfrwt beam="2">  1       -1 0.42768300E-01 0.53591507E+03</pdfrwt>
<totfact> 0.57939580E+02</totfact>
</mgrwt>
</event>
<event>
 4    0  0.1264838E-002  0.9061458E+03  0.7546771E-02  0.9417931E-01
         -1   -1    0    0    0  501 -0.00000000000E+00  0.00000000000E+00  0.45524363029E+03  0.45524363029E+03  0.00000000000E+00 0. -1.
          1   -1    0    0  502    0  0.00000000000E+00 -0.00000000000E+00 -0.45091249420E+03  0.45091249420E+03  0.00000000000E+00 0.  1.
         25    1    1    2    0    0  0.38326977634E+03 -0.51476969056E+02 -0.21686483372E+03  0.46065274981E+03  0.12500000000E+03 0.  0.
         21    1    1    2  502  501 -0.38326977634E+03  0.51476969056E+02  0.22119596981E+03  0.44550337469E+03  0.00000000000E+00 0.  1.
<mgrwt>
<rscale>  3 0.90614577E+03</rscale>
<asrwt>0</asrwt>
<pdfrwt beam="1">  1        1 0.69371153E-01 0.90614577E+03</pdfrwt>
<pdfrwt beam="2">  1       -1 0.70037482E-01 0.90614577E+03</pdfrwt>
<totfact> 0.10609129E+02</totfact>
</mgrwt>
</event>
<event>
 4    0  0.1264838E-002  0.5943665E+03  0.7546771E-02  0.9917163E-01
          2   -1    0    0  502    0  0.00000000000E+00  0.00000000000E+00  0.30636512815E+03  0.30636512815E+03  0.00000000000E+00 0.  1.
         -2   -1    0    0    0  501 -0.00000000000E+00 -0.00000000000E+00 -0.28827658613E+03  0.28827658613E+03  0.00000000000E+00 0. -1.
         25    1    1    2    0    0  0.21280798857E+03 -0.17453906363E+03 -0.60781079589E+02  0.30833498726E+03  0.12500000000E+03 0.  0.
         21    1    1    2  502  501 -0.21280798857E+03  0.17453906363E+03  0.78869621606E+02  0.28630672703E+03  0.00000000000E+00 0.  1.
<mgrwt>
<rscale>  3 0.59436653E+03</rscale>
<asrwt>0</asrwt>
<pdfrwt beam="1">  1        2 0.47133096E-01 0.59436653E+03</pdfrwt>
<pdfrwt beam="2">  1       -2 0.44350244E-01 0.59436653E+03</pdfrwt>
<totfact> 0.52127332E+02</totfact>
</mgrwt>
</event>
<event>
 4    0  0.1264838E-002  0.5920939E+03  0.7546771E-02  0.9921946E-01
         -2   -1    0    0    0  501 -0.00000000000E+00  0.00000000000E+00  0.49547132992E+03  0.49547132992E+03  0.00000000000E+00 0.  1.
          2   -1    0    0  502    0  0.00000000000E+00 -0.00000000000E+00 -0.17688973446E+03  0.17688973446E+03  0.00000000000E+00 0. -1.
         25    1    1    2    0    0 -0.27311086014E+03  0.38578351818E+02  0.95224181769E+02  0.31744365792E+03  0.12500000000E+03 0.  0.
         21    1    1    2  502  501  0.27311086014E+03 -0.38578351818E+02  0.22335741370E+03  0.35491740646E+03  0.00000000000E+00 0.  1.
<mgrwt>
<rscale>  3 0.59209388E+03</rscale>
<asrwt>0</asrwt>
<pdfrwt beam="1">  1        2 0.27213806E-01 0.59209388E+03</pdfrwt>
<pdfrwt beam="2">  1       -2 0.76226358E-01 0.59209388E+03</pdfrwt>
<totfact> 0.30954428E+02</totfact>
</mgrwt>
</event>
<event>
 4    0  0.1264838E-002  0.7284516E+03  0.7546771E-02  0.9669776E-01
          1   -1    0    0  502    0  0.00000000000E+00  0.00000000000E+00  0.20862347867E+04  0.20862347867E+04  0.00000000000E+00 0. -1.
         -1   -1    0    0    0  501 -0.00000000000E+00 -0.00000000000E+00 -0.63588450501E+02  0.63588450501E+02  0.00000000000E+00 0.  1.
         25    1    1    2    0    0  0.18966796499E+03 -0.20201137652E+03  0.16888967183E+04  0.17160360306E+04  0.12500000000E+03 0.  0.
         21    1    1    2  502  501 -0.18966796499E+03  0.20201137652E+03  0.33374961795E+03  0.43378720667E+03  0.00000000000E+00 0.  1.
<mgrwt>
<rscale>  3 0.72845161E+03</rscale>
<asrwt>0</asrwt>
<pdfrwt beam="1">  1        1 0.32095915E+00 0.72845161E+03</pdfrwt>
<pdfrwt beam="2">  1       -1 0.97828401E-02 0.72845161E+03</pdfrwt>
<totfact> 0.17580936E+02</totfact>
</mgrwt>
</event>
<event>
 4    0  0.1264838E-002  0.5428997E+03  0.7546771E-02  0.1003151E+00
          2   -1    0    0  502    0  0.00000000000E+00  0.00000000000E+00  0.94122436766E+03  0.94122436766E+03  0.00000000000E+00 0.  1.
         -2   -1    0    0    0  501 -0.00000000000E+00 -0.00000000000E+00 -0.78286345391E+02  0.78286345391E+02  0.00000000000E+00 0. -1.
         25    1    1    2    0    0 -0.24590316447E+03 -0.74902150887E+02  0.45612267840E+03  0.53828579421E+03  0.12500000000E+03 0.  0.
         21    1    1    2  502  501  0.24590316447E+03  0.74902150887E+02  0.40681534387E+03  0.48122491883E+03  0.00000000000E+00 0.  1.
<mgrwt>
<rscale>  3 0.54289968E+03</rscale>
<asrwt>0</asrwt>
<pdfrwt beam="1">  1        2 0.14480374E+00 0.54289968E+03</pdfrwt>
<pdfrwt beam="2">  1       -2 0.12044054E-01 0.54289968E+03</pdfrwt>
<totfact> 0.14007822E+03</totfact>
</mgrwt>
</event>
<event>
 4    0  0.1264838E-002  0.5571306E+03  0.7546771E-02  0.9998568E-01
          2   -1    0    0  502    0  0.00000000000E+00  0.00000000000E+00  0.15081065781E+04  0.15081065781E+04  0.00000000000E+00 0. -1.
         -2   -1    0    0    0  501 -0.00000000000E+00 -0.00000000000E+00 -0.51454346092E+02  0.51454346092E+02  0.00000000000E+00 0.  1.
         25    1    1    2    0    0 -0.13640816850E+03  0.18519487786E+03  0.11308111269E+04  0.11607166476E+04  0.12500000000E+03 0.  0.
         21    1    1    2  502  501  0.13640816850E+03 -0.18519487786E+03  0.32584110512E+03  0.39884427664E+03  0.00000000000E+00 0.  1.
<mgrwt>
<rscale>  3 0.55713064E+03</rscale>
<asrwt>0</asrwt>
<pdfrwt beam="1">  1        2 0.23201636E+00 0.55713064E+03</pdfrwt>
<pdfrwt beam="2">  1       -2 0.79160544E-02 0.55713064E+03</pdfrwt>
<totfact> 0.12817339E+03</totfact>
</mgrwt>
</event>
<event>
 4    0  0.1264838E-002  0.5788386E+03  0.7546771E-02  0.9950309E-01
          1   -1    0    0  502    0  0.00000000000E+00  0.00000000000E+00  0.19676551606E+04  0.19676551606E+04  0.00000000000E+00 0.  1.
         -1   -1    0    0    0  501 -0.00000000000E+00 -0.00000000000E+00 -0.42570232674E+02  0.42570232674E+02  0.00000000000E+00 0. -1.
         25    1    1    2    0    0 -0.16524759210E+03 -0.21509081214E+03  0.11832258874E+04  0.12203357426E+04  0.12500000000E+03 0.  0.
         21    1    1    2  502  501  0.16524759210E+03  0.21509081214E+03  0.74185904052E+03  0.78988965062E+03  0.00000000000E+00 0.  1.
<mgrwt>
<rscale>  3 0.57883862E+03</rscale>
<asrwt>0</asrwt>
<pdfrwt beam="1">  1        1 0.30271611E+00 0.57883862E+03</pdfrwt>
<pdfrwt beam="2">  1       -1 0.65492681E-02 0.57883862E+03</pdfrwt>
<totfact> 0.39992012E+02</totfact>
</mgrwt>
</event>
<event>
 4    0  0.1264838E-002  0.5967366E+03  0.7546771E-02  0.9912200E-01
          2   -1    0    0  502    0  0.00000000000E+00  0.00000000000E+00  0.57602399543E+03  0.57602399543E+03  0.00000000000E+00 0. -1.
         -2   -1    0    0    0  501 -0.00000000000E+00 -0.00000000000E+00 -0.15454847970E+03  0.15454847970E+03  0.00000000000E+00 0.  1.
         25    1    1    2    0    0  0.14944921239E+03  0.24061901962E+03  0.17846815119E+03  0.35736320555E+03  0.12500000000E+03 0.  0.
         21    1    1    2  502  501 -0.14944921239E+03 -0.24061901962E+03  0.24300736453E+03  0.37320926959E+03  0.00000000000E+00 0.  1.
<mgrwt>
<rscale>  3 0.59673657E+03</rscale>
<asrwt>0</asrwt>
<pdfrwt beam="1">  1        2 0.88619075E-01 0.59673657E+03</pdfrwt>
<pdfrwt beam="2">  1       -2 0.23776689E-01 0.59673657E+03</pdfrwt>
<totfact> 0.82132278E+02</totfact>
</mgrwt>
</event>
<event>
 4    0  0.1264838E-002  0.4839993E+03  0.7546771E-02  0.1018042E+00
         -4   -1    0    0    0  501 -0.00000000000E+00  0.00000000000E+00  0.20405649458E+03  0.20405649458E+03  0.00000000000E+00 0. -1.
          4   -1    0    0  502    0  0.00000000000E+00 -0.00000000000E+00 -0.28699810417E+03  0.28699810417E+03  0.00000000000E+00 0.  1.
         25    1    1    2    0    0  0.30049676409E+01  0.21699675325E+03  0.19247188607E+02  0.25118135883E+03  0.12500000000E+03 0.  0.
         21    1    1    2  502  501 -0.30049676409E+01 -0.21699675325E+03 -0.10218879820E+03  0.23987323992E+03  0.00000000000E+00 0.  1.
<mgrwt>
<rscale>  3 0.48399929E+03</rscale>
<asrwt>0</asrwt>
<pdfrwt beam="1">  1        4 0.44153554E-01 0.48399929E+03</pdfrwt>
<pdfrwt beam="2">  1       -4 0.31393307E-01 0.48399929E+03</pdfrwt>
<totfact> 0.95354480E+01</totfact>
</mgrwt>
</event>
<event>
 4    0  0.1264838E-002  0.6634306E+03  0.7546771E-02  0.9781899E-01
          1   -1    0    0  502    0  0.00000000000E+00  0.00000000000E+00  0.32085390809E+03  0.32085390809E+03  0.00000000000E+00 0. -1.
         -1   -1    0    0    0  501 -0.00000000000E+00 -0.00000000000E+00 -0.34294439459E+03  0.34294439459E+03  0.00000000000E+00 0.  1.
         25    1    1    2    0    0 -0.30851836462E+03  0.78097932140E+02  0.21419135103E+02  0.34258816042E+03  0.12500000000E+03 0.  0.
         21    1    1    2  502  501  0.30851836462E+03 -0.78097932140E+02 -0.43509621600E+02  0.32121014225E+03  0.00000000000E+00 0.  1.
<mgrwt>
<rscale>  3 0.66343063E+03</rscale>
<asrwt>0</asrwt>
<pdfrwt beam="1">  1        1 0.49362140E-01 0.66343063E+03</pdfrwt>
<pdfrwt beam="2">  1       -1 0.52760676E-01 0.66343063E+03</pdfrwt>
<totfact> 0.29480130E+02</totfact>
</mgrwt>
</event>
<event>
 4    0  0.1264838E-002  0.5090283E+03  0.7546771E-02  0.1011449E+00
         -1   -1    0    0    0  501 -0.00000000000E+00  0.00000000000E+00  0.23375149296E+04  0.23375149296E+04  0.00000000000E+00 0.  1.
          1   -1    0    0  502    0  0.00000000000E+00 -0.00000000000E+00 -0.27712098663E+02  0.27712098663E+02  0.00000000000E+00 0. -1.
         25    1    1    2    0    0 -0.22729762404E+03 -0.74919855097E+01  0.88056941615E+03  0.91801298270E+03  0.12500000000E+03 0.  0.
         21    1    1    2  502  501  0.22729762404E+03  0.74919855097E+01  0.14292334147E+04  0.14472140455E+04  0.00000000000E+00 0. -1.
<mgrwt>
<rscale>  3 0.50902827E+03</rscale>
<asrwt>0</asrwt>
<pdfrwt beam="1">  1        1 0.42634016E-02 0.50902827E+03</pdfrwt>
<pdfrwt beam="2">  1       -1 0.35961753E+00 0.50902827E+03</pdfrwt>
<totfact> 0.32345171E+01</totfact>
</mgrwt>
</event>
<event>
 4    0  0.1264838E-002  0.5496508E+03  0.7546771E-02  0.1001575E+00
         -2   -1    0    0    0  501 -0.00000000000E+00  0.00000000000E+00  0.45753910600E+02  0.45753910600E+02  0.00000000000E+00 0. -1.
          2   -1    0    0  502    0  0.00000000000E+00 -0.00000000000E+00 -0.16507658783E+04  0.16507658783E+04  0.00000000000E+00 0.  1.
         25    1    1    2    0    0 -0.22626608793E+03  0.11540218469E+03 -0.10241045745E+04  0.10625107935E+04  0.12500000000E+03 0.  0.
         21    1    1    2  502  501  0.22626608793E+03 -0.11540218469E+03 -0.58090739318E+03  0.63400899538E+03  0.00000000000E+00 0. -1.
<mgrwt>
<rscale>  3 0.54965078E+03</rscale>
<asrwt>0</asrwt>
<pdfrwt beam="1">  1        2 0.25396394E+00 0.54965078E+03</pdfrwt>
<pdfrwt beam="2">  1       -2 0.70390642E-02 0.54965078E+03</pdfrwt>
<totfact> 0.12906039E+03</totfact>
</mgrwt>
</event>
<event>
 4    0  0.1264838E-002  0.5051734E+03  0.7546771E-02  0.1012437E+00
         -2   -1    0    0    0  501 -0.00000000000E+00  0.00000000000E+00  0.16689957633E+03  0.16689957633E+03  0.00000000000E+00 0.  1.
          2   -1    0    0  502    0  0.00000000000E+00 -0.00000000000E+00 -0.38226598032E+03  0.38226598032E+03  0.00000000000E+00 0. -1.
         25    1    1    2    0    0 -0.16272118243E+03  0.15355782295E+03 -0.28896899781E+02  0.25791126191E+03  0.12500000000E+03 0.  0.
         21    1    1    2  502  501  0.16272118243E+03 -0.15355782295E+03 -0.18646950421E+03  0.29125429474E+03  0.00000000000E+00 0. -1.
<mgrwt>
<rscale>  3 0.50517336E+03</rscale>
<asrwt>0</asrwt>
<pdfrwt beam="1">  1        2 0.58810150E-01 0.50517336E+03</pdfrwt>
<pdfrwt beam="2">  1       -2 0.25676858E-01 0.50517336E+03</pdfrwt>
<totfact> 0.11434633E+03</totfact>
</mgrwt>
</event>
<event>
 4    0  0.1264838E-002  0.5395381E+03  0.7546771E-02  0.1003945E+00
          2   -1    0    0  502    0  0.00000000000E+00  0.00000000000E+00  0.27394462036E+04  0.27394462036E+04  0.00000000000E+00 0. -1.
         -2   -1    0    0    0  501 -0.00000000000E+00 -0.00000000000E+00 -0.26565709553E+02  0.26565709553E+02  0.00000000000E+00 0.  1.
         25    1    1    2    0    0 -0.15037807495E+03 -0.20076824456E+03  0.11860137563E+04  0.12186775963E+04  0.12500000000E+03 0.  0.
         21    1    1    2  502  501  0.15037807495E+03  0.20076824456E+03  0.15268667377E+04  0.15473343168E+04  0.00000000000E+00 0. -1.
<mgrwt>
<rscale>  3 0.53953807E+03</rscale>
<asrwt>0</asrwt>
<pdfrwt beam="1">  1        2 0.42145304E+00 0.53953807E+03</pdfrwt>
<pdfrwt beam="2">  1       -2 0.40870344E-02 0.53953807E+03</pdfrwt>
<totfact> 0.75652492E+02</totfact>
</mgrwt>
</event>
<event>
 4    0  0.1264838E-002  0.5526096E+03  0.7546771E-02  0.1000892E+00
          1   -1    0    0  502    0  0.00000000000E+00  0.00000000000E+00  0.42805309394E+03  0.42805309394E+03  0.00000000000E+00 0.  1.
         -1   -1    0    0    0  501 -0.00000000000E+00 -0.00000000000E+00 -0.17835247640E+03  0.17835247640E+03  0.00000000000E+00 0. -1.
         25    1    1    2    0    0 -0.11865927847E+03 -0.23343242171E+03  0.14516125021E+03  0.32444954683E+03  0.12500000000E+03 0.  0.
         21    1    1    2  502  501  0.11865927847E+03  0.23343242171E+03  0.10453936732E+03  0.28195602351E+03  0.00000000000E+00 0.  1.
<mgrwt>
<rscale>  3 0.55260955E+03</rscale>
<asrwt>0</asrwt>
<pdfrwt beam="1">  1        1 0.65854322E-01 0.55260955E+03</pdfrwt>
<pdfrwt beam="2">  1       -1 0.27438843E-01 0.55260955E+03</pdfrwt>
<totfact> 0.65869282E+02</totfact>
</mgrwt>
</event>
<event>
 4    0  0.1264838E-002  0.4936072E+03  0.7546771E-02  0.1015461E+00
          2   -1    0    0  502    0  0.00000000000E+00  0.00000000000E+00  0.15622833883E+04  0.15622833883E+04  0.00000000000E+00 0.  1.
         -2   -1    0    0    0  501 -0.00000000000E+00 -0.00000000000E+00 -0.38989088577E+02  0.38989088577E+02  0.00000000000E+00 0. -1.
         25    1    1    2    0    0 -0.20470207968E+03  0.10021439972E+03  0.93205079883E+03  0.96762056558E+03  0.12500000000E+03 0.  0.
         21    1    1    2  502  501  0.20470207968E+03 -0.10021439972E+03  0.59124350089E+03  0.63365191129E+03  0.00000000000E+00 0.  1.
<mgrwt>
<rscale>  3 0.49360715E+03</rscale>
<asrwt>0</asrwt>
<pdfrwt beam="1">  1        2 0.24035124E+00 0.49360715E+03</pdfrwt>
<pdfrwt beam="2">  1       -2 0.59983225E-02 0.49360715E+03</pdfrwt>
<totfact> 0.18574401E+03</totfact>
</mgrwt>
</event>
<event>
 4    0  0.1264838E-002  0.7139228E+03  0.7546771E-02  0.9693714E-01
         -1   -1    0    0    0  501 -0.00000000000E+00  0.00000000000E+00  0.20039973118E+03  0.20039973118E+03  0.00000000000E+00 0. -1.
          1   -1    0    0  502    0  0.00000000000E+00 -0.00000000000E+00 -0.63583638832E+03  0.63583638832E+03  0.00000000000E+00 0.  1.
         25    1    1    2    0    0  0.19923915133E+03  0.27760382971E+03 -0.16057357986E+03  0.39770466460E+03  0.12500000000E+03 0.  0.
         21    1    1    2  502  501 -0.19923915133E+03 -0.27760382971E+03 -0.27486307728E+03  0.43853145490E+03  0.00000000000E+00 0.  1.
<mgrwt>
<rscale>  3 0.71392280E+03</rscale>
<asrwt>0</asrwt>
<pdfrwt beam="1">  1        1 0.97820982E-01 0.71392280E+03</pdfrwt>
<pdfrwt beam="2">  1       -1 0.30830728E-01 0.71392280E+03</pdfrwt>
<totfact> 0.30947134E+02</totfact>
</mgrwt>
</event>
<event>
 4    0  0.1264838E-002  0.6672202E+03  0.7546771E-02  0.9774993E-01
          1   -1    0    0  502    0  0.00000000000E+00  0.00000000000E+00  0.25412069508E+04  0.25412069508E+04  0.00000000000E+00 0.  1.
         -1   -1    0    0    0  501 -0.00000000000E+00 -0.00000000000E+00 -0.43796399232E+02  0.43796399232E+02  0.00000000000E+00 0. -1.
         25    1    1    2    0    0  0.78708493330E+02  0.29924172777E+03  0.16364432809E+04  0.16701234237E+04  0.12500000000E+03 0.  0.
         21    1    1    2  502  501 -0.78708493330E+02 -0.29924172777E+03  0.86096727058E+03  0.91487992632E+03  0.00000000000E+00 0.  1.
<mgrwt>
<rscale>  3 0.66722025E+03</rscale>
<asrwt>0</asrwt>
<pdfrwt beam="1">  1        1 0.39095480E+00 0.66722025E+03</pdfrwt>
<pdfrwt beam="2">  1       -1 0.67379096E-02 0.66722025E+03</pdfrwt>
<totfact> 0.15645483E+02</totfact>
</mgrwt>
</event>
<event>
 4    0  0.1264838E-002  0.7092968E+03  0.7546771E-02  0.9701464E-01
          2   -1    0    0  502    0  0.00000000000E+00  0.00000000000E+00  0.33282503104E+03  0.33282503104E+03  0.00000000000E+00 0.  1.
         -2   -1    0    0    0  501 -0.00000000000E+00 -0.00000000000E+00 -0.37790275634E+03  0.37790275634E+03  0.00000000000E+00 0. -1.
         25    1    1    2    0    0  0.19539197915E+03 -0.27609417513E+03 -0.84010165499E+02  0.37025494860E+03  0.12500000000E+03 0.  0.
         21    1    1    2  502  501 -0.19539197915E+03  0.27609417513E+03  0.38932440198E+02  0.34047283879E+03  0.00000000000E+00 0.  1.
<mgrwt>
<rscale>  3 0.70929683E+03</rscale>
<asrwt>0</asrwt>
<pdfrwt beam="1">  1        2 0.51203851E-01 0.70929683E+03</pdfrwt>
<pdfrwt beam="2">  1       -2 0.58138886E-01 0.70929683E+03</pdfrwt>
<totfact> 0.27320712E+02</totfact>
</mgrwt>
</event>
<event>
 4    0  0.1264838E-002  0.5138783E+03  0.7546771E-02  0.1010219E+00
          2   -1    0    0  502    0  0.00000000000E+00  0.00000000000E+00  0.14557077617E+04  0.14557077617E+04  0.00000000000E+00 0.  1.
         -2   -1    0    0    0  501 -0.00000000000E+00 -0.00000000000E+00 -0.45350951226E+02  0.45350951226E+02  0.00000000000E+00 0. -1.
         25    1    1    2    0    0 -0.12913812307E+03 -0.20364037929E+03  0.79667321778E+03  0.84170022861E+03  0.12500000000E+03 0.  0.
         21    1    1    2  502  501  0.12913812307E+03  0.20364037929E+03  0.61368359271E+03  0.65935848433E+03  0.00000000000E+00 0.  1.
<mgrwt>
<rscale>  3 0.51387832E+03</rscale>
<asrwt>0</asrwt>
<pdfrwt beam="1">  1        2 0.22395500E+00 0.51387832E+03</pdfrwt>
<pdfrwt beam="2">  1       -2 0.69770705E-02 0.51387832E+03</pdfrwt>
<totfact> 0.16757067E+03</totfact>
</mgrwt>
</event>
<event>
 4    0  0.1264838E-002  0.1313801E+04  0.7546771E-02  0.9018692E-01
          2   -1    0    0  502    0  0.00000000000E+00  0.00000000000E+00  0.16653414215E+04  0.16653414215E+04  0.00000000000E+00 0. -1.
         -2   -1    0    0    0  501 -0.00000000000E+00 -0.00000000000E+00 -0.25911717091E+03  0.25911717091E+03  0.00000000000E+00 0.  1.
         25    1    1    2    0    0  0.22403164591E+03 -0.45051473700E+03  0.13144732168E+04  0.14130175315E+04  0.12500000000E+03 0.  0.
         21    1    1    2  502  501 -0.22403164591E+03  0.45051473700E+03  0.91751033847E+02  0.51144106096E+03  0.00000000000E+00 0.  1.
<mgrwt>
<rscale>  3 0.13138014E+04</rscale>
<asrwt>0</asrwt>
<pdfrwt beam="1">  1        2 0.25620637E+00 0.13138014E+04</pdfrwt>
<pdfrwt beam="2">  1       -2 0.39864181E-01 0.13138014E+04</pdfrwt>
<totfact> 0.59763698E+01</totfact>
</mgrwt>
</event>
<event>
 4    0  0.1264838E-002  0.7840932E+03  0.7546771E-02  0.9583331E-01
          1   -1    0    0  502    0  0.00000000000E+00  0.00000000000E+00  0.56775370402E+03  0.56775370402E+03  0.00000000000E+00 0. -1.
         -1   -1    0    0    0  501 -0.00000000000E+00 -0.00000000000E+00 -0.27071691378E+03  0.27071691378E+03  0.00000000000E+00 0.  1.
         25    1    1    2    0    0 -0.16544446034E+03 -0.21072076320E+03  0.44360456673E+03  0.53309016229E+03  0.12500000000E+03 0.  0.
         21    1    1    2  502  501  0.16544446034E+03  0.21072076320E+03 -0.14656777650E+03  0.30538045551E+03  0.00000000000E+00 0.  1.
<mgrwt>
<rscale>  3 0.78409318E+03</rscale>
<asrwt>0</asrwt>
<pdfrwt beam="1">  1        1 0.87346723E-01 0.78409318E+03</pdfrwt>
<pdfrwt beam="2">  1       -1 0.41648756E-01 0.78409318E+03</pdfrwt>
<totfact> 0.21202933E+02</totfact>
</mgrwt>
</event>
<event>
 4    0  0.1264838E-002  0.4916140E+03  0.7546771E-02  0.1015991E+00
         -2   -1    0    0    0  501 -0.00000000000E+00  0.00000000000E+00  0.24464661043E+02  0.24464661043E+02  0.00000000000E+00 0.  1.
          2   -1    0    0  502    0  0.00000000000E+00 -0.00000000000E+00 -0.24697293507E+04  0.24697293507E+04  0.00000000000E+00 0. -1.
         25    1    1    2    0    0  0.13674644327E+03 -0.15229120108E+03 -0.18330351774E+04  0.18486576647E+04  0.12500000000E+03 0.  0.
         21    1    1    2  502  501 -0.13674644327E+03  0.15229120108E+03 -0.61222951228E+03  0.64553634706E+03  0.00000000000E+00 0.  1.
<mgrwt>
<rscale>  3 0.49161404E+03</rscale>
<asrwt>0</asrwt>
<pdfrwt beam="1">  1        2 0.37995843E+00 0.49161404E+03</pdfrwt>
<pdfrwt beam="2">  1       -2 0.37637933E-02 0.49161404E+03</pdfrwt>
<totfact> 0.12264854E+03</totfact>
</mgrwt>
</event>
<event>
 4    0  0.1264838E-002  0.4471617E+03  0.7546771E-02  0.1028572E+00
          2   -1    0    0  502    0  0.00000000000E+00  0.00000000000E+00  0.17839515384E+04  0.17839515384E+04  0.00000000000E+00 0.  1.
         -2   -1    0    0    0  501 -0.00000000000E+00 -0.00000000000E+00 -0.28021161018E+02  0.28021161018E+02  0.00000000000E+00 0. -1.
         25    1    1    2    0    0  0.15440516752E+03  0.13351193739E+03  0.83090809750E+03  0.86469628175E+03  0.12500000000E+03 0.  0.
         21    1    1    2  502  501 -0.15440516752E+03 -0.13351193739E+03  0.92502227984E+03  0.94727641762E+03  0.00000000000E+00 0.  1.
<mgrwt>
<rscale>  3 0.44716169E+03</rscale>
<asrwt>0</asrwt>
<pdfrwt beam="1">  1        2 0.27445399E+00 0.44716169E+03</pdfrwt>
<pdfrwt beam="2">  1       -2 0.43109493E-02 0.44716169E+03</pdfrwt>
<totfact> 0.23530562E+03</totfact>
</mgrwt>
</event>
<event>
 4    0  0.1264838E-002  0.4916731E+03  0.7546771E-02  0.1015975E+00
          2   -1    0    0  502    0  0.00000000000E+00  0.00000000000E+00  0.16913769587E+04  0.16913769587E+04  0.00000000000E+00 0. -1.
         -2   -1    0    0    0  501 -0.00000000000E+00 -0.00000000000E+00 -0.35731601590E+02  0.35731601590E+02  0.00000000000E+00 0.  1.
         25    1    1    2    0    0  0.19828851738E+03  0.11638724179E+03  0.86954085554E+03  0.90806972509E+03  0.12500000000E+03 0.  0.
         21    1    1    2  502  501 -0.19828851738E+03 -0.11638724179E+03  0.78610450157E+03  0.81903883520E+03  0.00000000000E+00 0.  1.
<mgrwt>
<rscale>  3 0.49167309E+03</rscale>
<asrwt>0</asrwt>
<pdfrwt beam="1">  1        2 0.26021178E+00 0.49167309E+03</pdfrwt>
<pdfrwt beam="2">  1       -2 0.54971708E-02 0.49167309E+03</pdfrwt>
<totfact> 0.18110934E+03</totfact>
</mgrwt>
</event>
<event>
 4    0  0.1264838E-002  0.7104702E+03  0.7546771E-02  0.9699492E-01
          2   -1    0    0  502    0  0.00000000000E+00  0.00000000000E+00  0.99459757314E+03  0.99459757314E+03  0.00000000000E+00 0.  1.
         -2   -1    0    0    0  501 -0.00000000000E+00 -0.00000000000E+00 -0.12687743869E+03  0.12687743869E+03  0.00000000000E+00 0. -1.
         25    1    1    2    0    0 -0.20335911331E+03  0.73513016594E+02  0.87008370212E+03  0.90522358634E+03  0.12500000000E+03 0.  0.
         21    1    1    2  502  501  0.20335911331E+03 -0.73513016594E+02 -0.23635676729E+01  0.21625142549E+03  0.00000000000E+00 0. -1.
<mgrwt>
<rscale>  3 0.71047025E+03</rscale>
<asrwt>0</asrwt>
<pdfrwt beam="1">  1        2 0.15301501E+00 0.71047025E+03</pdfrwt>
<pdfrwt beam="2">  1       -2 0.19519607E-01 0.71047025E+03</pdfrwt>
<totfact> 0.56926918E+02</totfact>
</mgrwt>
</event>
<event>
 4    0  0.1264838E-002  0.8385712E+03  0.7546771E-02  0.9505806E-01
          1   -1    0    0  502    0  0.00000000000E+00  0.00000000000E+00  0.28034901386E+03  0.28034901386E+03  0.00000000000E+00 0. -1.
         -1   -1    0    0    0  501 -0.00000000000E+00 -0.00000000000E+00 -0.62707699891E+03  0.62707699891E+03  0.00000000000E+00 0.  1.
         25    1    1    2    0    0 -0.37113050890E+03 -0.90412290684E+02 -0.33831050060E+03  0.52534867637E+03  0.12500000000E+03 0.  0.
         21    1    1    2  502  501  0.37113050890E+03  0.90412290684E+02 -0.84174844395E+01  0.38207733640E+03  0.00000000000E+00 0. -1.
<mgrwt>
<rscale>  3 0.83857121E+03</rscale>
<asrwt>0</asrwt>
<pdfrwt beam="1">  1        1 0.43130617E-01 0.83857121E+03</pdfrwt>
<pdfrwt beam="2">  1       -1 0.96473385E-01 0.83857121E+03</pdfrwt>
<totfact> 0.10017221E+02</totfact>
</mgrwt>
</event>
<event>
 4    0  0.1264838E-002  0.6237358E+03  0.7546771E-02  0.9857350E-01
         -2   -1    0    0    0  501 -0.00000000000E+00  0.00000000000E+00  0.70374857922E+03  0.70374857922E+03  0.00000000000E+00 0.  1.
          2   -1    0    0  502    0  0.00000000000E+00 -0.00000000000E+00 -0.13820500598E+03  0.13820500598E+03  0.00000000000E+00 0. -1.
         25    1    1    2    0    0 -0.26652829456E+03  0.86179603586E+02  0.43661164613E+03  0.53359065341E+03  0.12500000000E+03 0.  0.
         21    1    1    2  502  501  0.26652829456E+03 -0.86179603586E+02  0.12893192711E+03  0.30836293179E+03  0.00000000000E+00 0.  1.
<mgrwt>
<rscale>  3 0.62373577E+03</rscale>
<asrwt>0</asrwt>
<pdfrwt beam="1">  1        2 0.21262309E-01 0.62373577E+03</pdfrwt>
<pdfrwt beam="2">  1       -2 0.10826901E+00 0.62373577E+03</pdfrwt>
<totfact> 0.18278127E+02</totfact>
</mgrwt>
</event>
<event>
 4    0  0.1264838E-002  0.6297752E+03  0.7546771E-02  0.9845488E-01
         -1   -1    0    0    0  501 -0.00000000000E+00  0.00000000000E+00  0.17940977981E+03  0.17940977981E+03  0.00000000000E+00 0. -1.
          1   -1    0    0  502    0  0.00000000000E+00 -0.00000000000E+00 -0.55266892865E+03  0.55266892865E+03  0.00000000000E+00 0.  1.
         25    1    1    2    0    0 -0.18543828604E+03  0.18661144405E+03 -0.20452691130E+02  0.29198373509E+03  0.12500000000E+03 0.  0.
         21    1    1    2  502  501  0.18543828604E+03 -0.18661144405E+03 -0.35280645771E+03  0.44009497337E+03  0.00000000000E+00 0.  1.
<mgrwt>
<rscale>  3 0.62977523E+03</rscale>
<asrwt>0</asrwt>
<pdfrwt beam="1">  1        1 0.85025989E-01 0.62977523E+03</pdfrwt>
<pdfrwt beam="2">  1       -1 0.27601504E-01 0.62977523E+03</pdfrwt>
<totfact> 0.45964786E+02</totfact>
</mgrwt>
</event>
<event>
 4    0  0.1264838E-002  0.4553846E+03  0.7546771E-02  0.1026128E+00
         -2   -1    0    0    0  501 -0.00000000000E+00  0.00000000000E+00  0.28552676845E+02  0.28552676845E+02  0.00000000000E+00 0. -1.
          2   -1    0    0  502    0  0.00000000000E+00 -0.00000000000E+00 -0.18157243494E+04  0.18157243494E+04  0.00000000000E+00 0.  1.
         25    1    1    2    0    0 -0.15050361372E+03  0.14122717213E+03 -0.11293235177E+04  0.11548129977E+04  0.12500000000E+03 0.  0.
         21    1    1    2  502  501  0.15050361372E+03 -0.14122717213E+03 -0.65784815486E+03  0.68946402861E+03  0.00000000000E+00 0.  1.
<mgrwt>
<rscale>  3 0.45538463E+03</rscale>
<asrwt>0</asrwt>
<pdfrwt beam="1">  1        2 0.27934220E+00 0.45538463E+03</pdfrwt>
<pdfrwt beam="2">  1       -2 0.43927197E-02 0.45538463E+03</pdfrwt>
<totfact> 0.21977434E+03</totfact>
</mgrwt>
</event>
<event>
 4    0  0.1264838E-002  0.6605086E+03  0.7546771E-02  0.9787258E-01
         -1   -1    0    0    0  501 -0.00000000000E+00  0.00000000000E+00  0.35747175053E+03  0.35747175053E+03  0.00000000000E+00 0. -1.
          1   -1    0    0  502    0  0.00000000000E+00 -0.00000000000E+00 -0.30510918090E+03  0.30510918090E+03  0.00000000000E+00 0.  1.
         25    1    1    2    0    0 -0.15223473178E+03  0.26616882312E+03  0.11326072182E+03  0.34996320816E+03  0.12500000000E+03 0.  0.
         21    1    1    2  502  501  0.15223473178E+03 -0.26616882312E+03 -0.60898152185E+02  0.31261772327E+03  0.00000000000E+00 0.  1.
<mgrwt>
<rscale>  3 0.66050863E+03</rscale>
<asrwt>0</asrwt>
<pdfrwt beam="1">  1        1 0.46939874E-01 0.66050863E+03</pdfrwt>
<pdfrwt beam="2">  1       -1 0.54995654E-01 0.66050863E+03</pdfrwt>
<totfact> 0.29062687E+02</totfact>
</mgrwt>
</event>
<event>
 4    0  0.1264838E-002  0.7872730E+03  0.7546771E-02  0.9578624E-01
         -2   -1    0    0    0  501 -0.00000000000E+00  0.00000000000E+00  0.14330302650E+03  0.14330302650E+03  0.00000000000E+00 0. -1.
          2   -1    0    0  502    0  0.00000000000E+00 -0.00000000000E+00 -0.10812731381E+04  0.10812731381E+04  0.00000000000E+00 0.  1.
         25    1    1    2    0    0 -0.12131525261E+03 -0.35468054066E+03 -0.60831842722E+03  0.72539091898E+03  0.12500000000E+03 0.  0.
         21    1    1    2  502  501  0.12131525261E+03  0.35468054066E+03 -0.32965168440E+03  0.49918524564E+03  0.00000000000E+00 0. -1.
<mgrwt>
<rscale>  3 0.78727305E+03</rscale>
<asrwt>0</asrwt>
<pdfrwt beam="1">  1        2 0.16634972E+00 0.78727305E+03</pdfrwt>
<pdfrwt beam="2">  1       -2 0.22046619E-01 0.78727305E+03</pdfrwt>
<totfact> 0.40417450E+02</totfact>
</mgrwt>
</event>
<event>
 4    0  0.1264838E-002  0.5011414E+03  0.7546771E-02  0.1013481E+00
         -2   -1    0    0    0  501 -0.00000000000E+00  0.00000000000E+00  0.36506253894E+03  0.36506253894E+03  0.00000000000E+00 0. -1.
          2   -1    0    0  502    0  0.00000000000E+00 -0.00000000000E+00 -0.17198610489E+03  0.17198610489E+03  0.00000000000E+00 0.  1.
         25    1    1    2    0    0  0.63900934628E+02 -0.20066803942E+03  0.21424940419E+03  0.32539022525E+03  0.12500000000E+03 0.  0.
         21    1    1    2  502  501 -0.63900934628E+02  0.20066803942E+03 -0.21172970144E+02  0.21165841858E+03  0.00000000000E+00 0.  1.
<mgrwt>
<rscale>  3 0.50114143E+03</rscale>
<asrwt>0</asrwt>
<pdfrwt beam="1">  1        2 0.26459401E-01 0.50114143E+03</pdfrwt>
<pdfrwt beam="2">  1       -2 0.56163468E-01 0.50114143E+03</pdfrwt>
<totfact> 0.61522101E+02</totfact>
</mgrwt>
</event>
<event>
 4    0  0.1264838E-002  0.4506153E+03  0.7546771E-02  0.1027539E+00
         -2   -1    0    0    0  501 -0.00000000000E+00  0.00000000000E+00  0.48472290033E+02  0.48472290033E+02  0.00000000000E+00 0.  1.
          2   -1    0    0  502    0  0.00000000000E+00 -0.00000000000E+00 -0.10472690132E+04  0.10472690132E+04  0.00000000000E+00 0. -1.
         25    1    1    2    0    0 -0.17773527626E+03 -0.10777873638E+03 -0.52141946424E+03  0.57507333631E+03  0.12500000000E+03 0.  0.
         21    1    1    2  502  501  0.17773527626E+03  0.10777873638E+03 -0.47737725896E+03  0.52066796696E+03  0.00000000000E+00 0. -1.
<mgrwt>
<rscale>  3 0.45061526E+03</rscale>
<asrwt>0</asrwt>
<pdfrwt beam="1">  1        2 0.16111829E+00 0.45061526E+03</pdfrwt>
<pdfrwt beam="2">  1       -2 0.74572764E-02 0.45061526E+03</pdfrwt>
<totfact> 0.25988008E+03</totfact>
</mgrwt>
</event>
<event>
 4    0  0.1264838E-002  0.7514827E+03  0.7546771E-02  0.9633027E-01
         -1   -1    0    0    0  501 -0.00000000000E+00  0.00000000000E+00  0.28983450584E+03  0.28983450584E+03  0.00000000000E+00 0. -1.
          1   -1    0    0  502    0  0.00000000000E+00 -0.00000000000E+00 -0.48711099469E+03  0.48711099469E+03  0.00000000000E+00 0.  1.
         25    1    1    2    0    0  0.25192717273E+03 -0.14819276135E+03 -0.32799490885E+03  0.45676477000E+03  0.12500000000E+03 0.  0.
         21    1    1    2  502  501 -0.25192717273E+03  0.14819276135E+03  0.13071842000E+03  0.32018073053E+03  0.00000000000E+00 0. -1.
<mgrwt>
<rscale>  3 0.75148273E+03</rscale>
<asrwt>0</asrwt>
<pdfrwt beam="1">  1        1 0.74940152E-01 0.75148273E+03</pdfrwt>
<pdfrwt beam="2">  1       -1 0.44589925E-01 0.75148273E+03</pdfrwt>
<totfact> 0.23174583E+02</totfact>
</mgrwt>
</event>
<event>
 4    0  0.1264838E-002  0.4899920E+03  0.7546771E-02  0.1016425E+00
         -2   -1    0    0    0  501 -0.00000000000E+00  0.00000000000E+00  0.40732707881E+03  0.40732707881E+03  0.00000000000E+00 0.  1.
          2   -1    0    0  502    0  0.00000000000E+00 -0.00000000000E+00 -0.14735836026E+03  0.14735836026E+03  0.00000000000E+00 0. -1.
         25    1    1    2    0    0 -0.11408659506E+03 -0.19660801627E+03  0.10653922043E+03  0.28043906419E+03  0.12500000000E+03 0.  0.
         21    1    1    2  502  501  0.11408659506E+03  0.19660801627E+03  0.15342949812E+03  0.27424637487E+03  0.00000000000E+00 0. -1.
<mgrwt>
<rscale>  3 0.48999204E+03</rscale>
<asrwt>0</asrwt>
<pdfrwt beam="1">  1        2 0.22670517E-01 0.48999204E+03</pdfrwt>
<pdfrwt beam="2">  1       -2 0.62665704E-01 0.48999204E+03</pdfrwt>
<totfact> 0.58364259E+02</totfact>
</mgrwt>
</event>
<event>
 4    0  0.1264838E-002  0.4513931E+03  0.7546771E-02  0.1027307E+00
         -2   -1    0    0    0  501 -0.00000000000E+00  0.00000000000E+00  0.31927005099E+02  0.31927005099E+02  0.00000000000E+00 0.  1.
          2   -1    0    0  502    0  0.00000000000E+00 -0.00000000000E+00 -0.15954808817E+04  0.15954808817E+04  0.00000000000E+00 0. -1.
         25    1    1    2    0    0  0.19657242160E+03  0.66968351413E+02 -0.77922982972E+03  0.81605735371E+03  0.12500000000E+03 0.  0.
         21    1    1    2  502  501 -0.19657242160E+03 -0.66968351413E+02 -0.78432404690E+03  0.81135053311E+03  0.00000000000E+00 0. -1.
<mgrwt>
<rscale>  3 0.45139307E+03</rscale>
<asrwt>0</asrwt>
<pdfrwt beam="1">  1        2 0.24545855E+00 0.45139307E+03</pdfrwt>
<pdfrwt beam="2">  1       -2 0.49118478E-02 0.45139307E+03</pdfrwt>
<totfact> 0.24318300E+03</totfact>
</mgrwt>
</event>
<event>
 4    0  0.1264838E-002  0.5279314E+03  0.7546771E-02  0.1006735E+00
          2   -1    0    0  502    0  0.00000000000E+00  0.00000000000E+00  0.22682542097E+04  0.22682542097E+04  0.00000000000E+00 0. -1.
         -2   -1    0    0    0  501 -0.00000000000E+00 -0.00000000000E+00 -0.30718732581E+02  0.30718732581E+02  0.00000000000E+00 0.  1.
         25    1    1    2    0    0  0.13353360161E+03 -0.16453173971E+03  0.17523075205E+04  0.17694938719E+04  0.12500000000E+03 0.  0.
         21    1    1    2  502  501 -0.13353360161E+03  0.16453173971E+03  0.48522795658E+03  0.52947907039E+03  0.00000000000E+00 0.  1.
<mgrwt>
<rscale>  3 0.52793141E+03</rscale>
<asrwt>0</asrwt>
<pdfrwt beam="1">  1        2 0.34896206E+00 0.52793141E+03</pdfrwt>
<pdfrwt beam="2">  1       -2 0.47259606E-02 0.52793141E+03</pdfrwt>
<totfact> 0.11143956E+03</totfact>
</mgrwt>
</event>
<event>
 4    0  0.1264838E-002  0.8752342E+03  0.7546771E-02  0.9457081E-01
          2   -1    0    0  502    0  0.00000000000E+00  0.00000000000E+00  0.10835806075E+03  0.10835806075E+03  0.00000000000E+00 0. -1.
         -2   -1    0    0    0  501 -0.00000000000E+00 -0.00000000000E+00 -0.17673693219E+04  0.17673693219E+04  0.00000000000E+00 0.  1.
         25    1    1    2    0    0  0.97899427442E+01  0.42285756392E+03 -0.99600679953E+03  0.10892928472E+04  0.12500000000E+03 0.  0.
         21    1    1    2  502  501 -0.97899427442E+01 -0.42285756392E+03 -0.66300446161E+03  0.78643453539E+03  0.00000000000E+00 0. -1.
<mgrwt>
<rscale>  3 0.87523417E+03</rscale>
<asrwt>0</asrwt>
<pdfrwt beam="1">  1        2 0.16670472E-01 0.87523417E+03</pdfrwt>
<pdfrwt beam="2">  1       -2 0.27190295E+00 0.87523417E+03</pdfrwt>
<totfact> 0.17011091E+01</totfact>
</mgrwt>
</event>
<event>
 4    0  0.1264838E-002  0.6324743E+03  0.7546771E-02  0.9840232E-01
         -1   -1    0    0    0  501 -0.00000000000E+00  0.00000000000E+00  0.12168209100E+03  0.12168209100E+03  0.00000000000E+00 0. -1.
          1   -1    0    0  502    0  0.00000000000E+00 -0.00000000000E+00 -0.82186230273E+03  0.82186230273E+03  0.00000000000E+00 0.  1.
         25    1    1    2    0    0 -0.12896980965E+03 -0.26263609065E+03 -0.24133389247E+03  0.39934693635E+03  0.12500000000E+03 0.  0.
         21    1    1    2  502  501  0.12896980965E+03  0.26263609065E+03 -0.45884631927E+03  0.54419745738E+03  0.00000000000E+00 0.  1.
<mgrwt>
<rscale>  3 0.63247426E+03</rscale>
<asrwt>0</asrwt>
<pdfrwt beam="1">  1        1 0.12644036E+00 0.63247426E+03</pdfrwt>
<pdfrwt beam="2">  1       -1 0.18720321E-01 0.63247426E+03</pdfrwt>
<totfact> 0.48898523E+02</totfact>
</mgrwt>
</event>
<event>
 4    0  0.1264838E-002  0.4731535E+03  0.7546771E-02  0.1021034E+00
         -1   -1    0    0    0  501 -0.00000000000E+00  0.00000000000E+00  0.22103366360E+03  0.22103366360E+03  0.00000000000E+00 0. -1.
          1   -1    0    0  502    0  0.00000000000E+00 -0.00000000000E+00 -0.25321278662E+03  0.25321278662E+03  0.00000000000E+00 0.  1.
         25    1    1    2    0    0 -0.75989280092E+02 -0.19543300542E+03 -0.84151896171E+02  0.25821497231E+03  0.12500000000E+03 0.  0.
         21    1    1    2  502  501  0.75989280092E+02  0.19543300542E+03  0.51972773158E+02  0.21603147791E+03  0.00000000000E+00 0.  1.
<mgrwt>
<rscale>  3 0.47315346E+03</rscale>
<asrwt>0</asrwt>
<pdfrwt beam="1">  1        1 0.38955813E-01 0.47315346E+03</pdfrwt>
<pdfrwt beam="2">  1       -1 0.34005179E-01 0.47315346E+03</pdfrwt>
<totfact> 0.89676375E+02</totfact>
</mgrwt>
</event>
<event>
 4    0  0.1264838E-002  0.4797940E+03  0.7546771E-02  0.1019192E+00
          1   -1    0    0  502    0  0.00000000000E+00  0.00000000000E+00  0.37324076858E+03  0.37324076858E+03  0.00000000000E+00 0.  1.
         -1   -1    0    0    0  501 -0.00000000000E+00 -0.00000000000E+00 -0.15419157506E+03  0.15419157506E+03  0.00000000000E+00 0. -1.
         25    1    1    2    0    0  0.62305194107E+02  0.19733785919E+03  0.21010055819E+03  0.32029894229E+03  0.12500000000E+03 0.  0.
         21    1    1    2  502  501 -0.62305194107E+02 -0.19733785919E+03  0.89486353302E+01  0.20713340135E+03  0.00000000000E+00 0. -1.
<mgrwt>
<rscale>  3 0.47979405E+03</rscale>
<asrwt>0</asrwt>
<pdfrwt beam="1">  1        1 0.57421657E-01 0.47979405E+03</pdfrwt>
<pdfrwt beam="2">  1       -1 0.23721781E-01 0.47979405E+03</pdfrwt>
<totfact> 0.10103100E+03</totfact>
</mgrwt>
</event>
<event>
 4    0  0.1264838E-002  0.6619983E+03  0.7546771E-02  0.9784522E-01
          1   -1    0    0  502    0  0.00000000000E+00  0.00000000000E+00  0.57052609687E+03  0.57052609687E+03  0.00000000000E+00 0. -1.
         -1   -1    0    0    0  501 -0.00000000000E+00 -0.00000000000E+00 -0.19203407525E+03  0.19203407525E+03  0.00000000000E+00 0.  1.
         25    1    1    2    0    0  0.12270568304E+03  0.29248847474E+03  0.15476489251E+03  0.37441068957E+03  0.12500000000E+03 0.  0.
         21    1    1    2  502  501 -0.12270568304E+03 -0.29248847474E+03  0.22372712910E+03  0.38814948255E+03  0.00000000000E+00 0.  1.
<mgrwt>
<rscale>  3 0.66199834E+03</rscale>
<asrwt>0</asrwt>
<pdfrwt beam="1">  1        1 0.87773245E-01 0.66199834E+03</pdfrwt>
<pdfrwt beam="2">  1       -1 0.29543704E-01 0.66199834E+03</pdfrwt>
<totfact> 0.39034567E+02</totfact>
</mgrwt>
</event>
<event>
 4    0  0.1264838E-002  0.5399220E+03  0.7546771E-02  0.1003854E+00
          2   -1    0    0  502    0  0.00000000000E+00  0.00000000000E+00  0.24394098399E+03  0.24394098399E+03  0.00000000000E+00 0.  1.
         -2   -1    0    0    0  501 -0.00000000000E+00 -0.00000000000E+00 -0.29875645325E+03  0.29875645325E+03  0.00000000000E+00 0. -1.
         25    1    1    2    0    0 -0.21499570880E+03 -0.26889526549E+02  0.10720608352E+03  0.27214765438E+03  0.12500000000E+03 0.  0.
         21    1    1    2  502  501  0.21499570880E+03  0.26889526549E+02 -0.16202155278E+03  0.27054978286E+03  0.00000000000E+00 0. -1.
<mgrwt>
<rscale>  3 0.53992201E+03</rscale>
<asrwt>0</asrwt>
<pdfrwt beam="1">  1        2 0.37529382E-01 0.53992201E+03</pdfrwt>
<pdfrwt beam="2">  1       -2 0.45962531E-01 0.53992201E+03</pdfrwt>
<totfact> 0.62496790E+02</totfact>
</mgrwt>
</event>
<event>
 4    0  0.1264838E-002  0.4964536E+03  0.7546771E-02  0.1014709E+00
          2   -1    0    0  502    0  0.00000000000E+00  0.00000000000E+00  0.10672932952E+04  0.10672932952E+04  0.00000000000E+00 0.  1.
         -2   -1    0    0    0  501 -0.00000000000E+00 -0.00000000000E+00 -0.57731598157E+02  0.57731598157E+02  0.00000000000E+00 0. -1.
         25    1    1    2    0    0 -0.84448422306E+02  0.18329509454E+03  0.79835050885E+03  0.83289684997E+03  0.12500000000E+03 0.  0.
         21    1    1    2  502  501  0.84448422306E+02 -0.18329509454E+03  0.21121118817E+03  0.29212804336E+03  0.00000000000E+00 0. -1.
<mgrwt>
<rscale>  3 0.49645361E+03</rscale>
<asrwt>0</asrwt>
<pdfrwt beam="1">  1        2 0.16419895E+00 0.49645361E+03</pdfrwt>
<pdfrwt beam="2">  1       -2 0.88817851E-02 0.49645361E+03</pdfrwt>
<totfact> 0.19136017E+03</totfact>
</mgrwt>
</event>
<event>
 4    0  0.1264838E-002  0.8556799E+03  0.7546771E-02  0.9482745E-01
          2   -1    0    0  502    0  0.00000000000E+00  0.00000000000E+00  0.88627771746E+03  0.88627771746E+03  0.00000000000E+00 0. -1.
         -2   -1    0    0    0  501 -0.00000000000E+00 -0.00000000000E+00 -0.20653459210E+03  0.20653459210E+03  0.00000000000E+00 0.  1.
         25    1    1    2    0    0 -0.77214305871E+02 -0.28184439295E+03 -0.35842520125E+02  0.31985621320E+03  0.12500000000E+03 0.  0.
         21    1    1    2  502  501  0.77214305871E+02  0.28184439295E+03  0.71558564549E+03  0.77295609636E+03  0.00000000000E+00 0. -1.
<mgrwt>
<rscale>  3 0.85567986E+03</rscale>
<asrwt>0</asrwt>
<pdfrwt beam="1">  1        2 0.13635042E+00 0.85567986E+03</pdfrwt>
<pdfrwt beam="2">  1       -2 0.31774553E-01 0.85567986E+03</pdfrwt>
<totfact> 0.27659669E+02</totfact>
</mgrwt>
</event>
<event>
 4    0  0.1264838E-002  0.5168775E+03  0.7546771E-02  0.1009465E+00
          2   -1    0    0  502    0  0.00000000000E+00  0.00000000000E+00  0.43496818467E+03  0.43496818467E+03  0.00000000000E+00 0.  1.
         -2   -1    0    0    0  501 -0.00000000000E+00 -0.00000000000E+00 -0.15355279572E+03  0.15355279572E+03  0.00000000000E+00 0. -1.
         25    1    1    2    0    0 -0.36519919881E+02 -0.23948947198E+03  0.12303205565E+03  0.29908326342E+03  0.12500000000E+03 0.  0.
         21    1    1    2  502  501  0.36519919881E+02  0.23948947198E+03  0.15838333330E+03  0.28943771697E+03  0.00000000000E+00 0.  1.
<mgrwt>
<rscale>  3 0.51687747E+03</rscale>
<asrwt>0</asrwt>
<pdfrwt beam="1">  1        2 0.66918182E-01 0.51687747E+03</pdfrwt>
<pdfrwt beam="2">  1       -2 0.23623507E-01 0.51687747E+03</pdfrwt>
<totfact> 0.11490285E+03</totfact>
</mgrwt>
</event>
<event>
 4    0  0.1264838E-002  0.5483875E+03  0.7546771E-02  0.1001868E+00
         -2   -1    0    0    0  501 -0.00000000000E+00  0.00000000000E+00  0.17581028079E+02  0.17581028079E+02  0.00000000000E+00 0. -1.
          2   -1    0    0  502    0  0.00000000000E+00 -0.00000000000E+00 -0.42763259106E+04  0.42763259106E+04  0.00000000000E+00 0.  1.
         25    1    1    2    0    0  0.31109128702E+02  0.24605133656E+03 -0.16302873024E+04  0.16537746904E+04  0.12500000000E+03 0.  0.
         21    1    1    2  502  501 -0.31109128702E+02 -0.24605133656E+03 -0.26284575801E+04  0.26401322483E+04  0.00000000000E+00 0. -1.
<mgrwt>
<rscale>  3 0.54838748E+03</rscale>
<asrwt>0</asrwt>
<pdfrwt beam="1">  1        2 0.65789637E+00 0.54838748E+03</pdfrwt>
<pdfrwt beam="2">  1       -2 0.27047733E-02 0.54838748E+03</pdfrwt>
<totfact> 0.12244102E+02</totfact>
</mgrwt>
</event>
<event>
 4    0  0.1264838E-002  0.4898265E+03  0.7546771E-02  0.1016469E+00
         -1   -1    0    0    0  501 -0.00000000000E+00  0.00000000000E+00  0.39641658925E+03  0.39641658925E+03  0.00000000000E+00 0. -1.
          1   -1    0    0  502    0  0.00000000000E+00 -0.00000000000E+00 -0.15131175589E+03  0.15131175589E+03  0.00000000000E+00 0.  1.
         25    1    1    2    0    0  0.15545401407E+03  0.15607698944E+03  0.60715612427E+02  0.26045606677E+03  0.12500000000E+03 0.  0.
         21    1    1    2  502  501 -0.15545401407E+03 -0.15607698944E+03  0.18438922093E+03  0.28727227837E+03  0.00000000000E+00 0. -1.
<mgrwt>
<rscale>  3 0.48982646E+03</rscale>
<asrwt>0</asrwt>
<pdfrwt beam="1">  1        1 0.23278732E-01 0.48982646E+03</pdfrwt>
<pdfrwt beam="2">  1       -1 0.60987167E-01 0.48982646E+03</pdfrwt>
<totfact> 0.59083926E+02</totfact>
</mgrwt>
</event>
<event>
 4    0  0.1264838E-002  0.5857034E+03  0.7546771E-02  0.9935519E-01
          1   -1    0    0  502    0  0.00000000000E+00  0.00000000000E+00  0.34519289852E+03  0.34519289852E+03  0.00000000000E+00 0. -1.
         -1   -1    0    0    0  501 -0.00000000000E+00 -0.00000000000E+00 -0.24844691511E+03  0.24844691511E+03  0.00000000000E+00 0.  1.
         25    1    1    2    0    0  0.17346867655E+03 -0.21123208986E+03  0.10982478198E+03  0.31999509414E+03  0.12500000000E+03 0.  0.
         21    1    1    2  502  501 -0.17346867655E+03  0.21123208986E+03 -0.13078798572E+02  0.27364471949E+03  0.00000000000E+00 0.  1.
<mgrwt>
<rscale>  3 0.58570337E+03</rscale>
<asrwt>0</asrwt>
<pdfrwt beam="1">  1        1 0.53106600E-01 0.58570337E+03</pdfrwt>
<pdfrwt beam="2">  1       -1 0.38222602E-01 0.58570337E+03</pdfrwt>
<totfact> 0.48812308E+02</totfact>
</mgrwt>
</event>
<event>
 4    0  0.1264838E-002  0.4777530E+03  0.7546771E-02  0.1019755E+00
          2   -1    0    0  502    0  0.00000000000E+00  0.00000000000E+00  0.93915439463E+03  0.93915439463E+03  0.00000000000E+00 0.  1.
         -2   -1    0    0    0  501 -0.00000000000E+00 -0.00000000000E+00 -0.60758884144E+02  0.60758884144E+02  0.00000000000E+00 0. -1.
         25    1    1    2    0    0 -0.21689543211E+03  0.10281818046E+02  0.36742620793E+03  0.44472054431E+03  0.12500000000E+03 0.  0.
         21    1    1    2  502  501  0.21689543211E+03 -0.10281818046E+02  0.51096930256E+03  0.55519273447E+03  0.00000000000E+00 0. -1.
<mgrwt>
<rscale>  3 0.47775296E+03</rscale>
<asrwt>0</asrwt>
<pdfrwt beam="1">  1        2 0.14448528E+00 0.47775296E+03</pdfrwt>
<pdfrwt beam="2">  1       -2 0.93475213E-02 0.47775296E+03</pdfrwt>
<totfact> 0.21221200E+03</totfact>
</mgrwt>
</event>
<event>
 4    0  0.1264838E-002  0.7544141E+03  0.7546771E-02  0.9628451E-01
         -2   -1    0    0    0  501 -0.00000000000E+00  0.00000000000E+00  0.13148932849E+03  0.13148932849E+03  0.00000000000E+00 0. -1.
          2   -1    0    0  502    0  0.00000000000E+00 -0.00000000000E+00 -0.10821042979E+04  0.10821042979E+04  0.00000000000E+00 0.  1.
         25    1    1    2    0    0  0.27451787980E+03  0.20988549173E+03 -0.68647560131E+03  0.77864352380E+03  0.12500000000E+03 0.  0.
         21    1    1    2  502  501 -0.27451787980E+03 -0.20988549173E+03 -0.26413936814E+03  0.43495010262E+03  0.00000000000E+00 0. -1.
<mgrwt>
<rscale>  3 0.75441412E+03</rscale>
<asrwt>0</asrwt>
<pdfrwt beam="1">  1        2 0.16647759E+00 0.75441412E+03</pdfrwt>
<pdfrwt beam="2">  1       -2 0.20229127E-01 0.75441412E+03</pdfrwt>
<totfact> 0.47051868E+02</totfact>
</mgrwt>
</event>
<event>
 4    0  0.1264838E-002  0.4779454E+03  0.7546771E-02  0.1019701E+00
         -2   -1    0    0    0  501 -0.00000000000E+00  0.00000000000E+00  0.11143474524E+03  0.11143474524E+03  0.00000000000E+00 0.  1.
          2   -1    0    0  502    0  0.00000000000E+00 -0.00000000000E+00 -0.51247876603E+03  0.51247876603E+03  0.00000000000E+00 0. -1.
         25    1    1    2    0    0  0.14597039405E+03  0.16776435428E+03 -0.20052195500E+03  0.32447848764E+03  0.12500000000E+03 0.  0.
         21    1    1    2  502  501 -0.14597039405E+03 -0.16776435428E+03 -0.20052206579E+03  0.29943502363E+03  0.00000000000E+00 0.  1.
<mgrwt>
<rscale>  3 0.47794536E+03</rscale>
<asrwt>0</asrwt>
<pdfrwt beam="1">  1        2 0.78842889E-01 0.47794536E+03</pdfrwt>
<pdfrwt beam="2">  1       -2 0.17143807E-01 0.47794536E+03</pdfrwt>
<totfact> 0.16648019E+03</totfact>
</mgrwt>
</event>
<event>
 4    0  0.1264838E-002  0.5930381E+03  0.7546771E-02  0.9919956E-01
          2   -1    0    0  502    0  0.00000000000E+00  0.00000000000E+00  0.43430680378E+02  0.43430680378E+02  0.00000000000E+00 0. -1.
         -2   -1    0    0    0  501 -0.00000000000E+00 -0.00000000000E+00 -0.20244573791E+04  0.20244573791E+04  0.00000000000E+00 0.  1.
         25    1    1    2    0    0  0.26884479382E+03 -0.73455247443E+02 -0.85633021822E+03  0.90917525218E+03  0.12500000000E+03 0.  0.
         21    1    1    2  502  501 -0.26884479382E+03  0.73455247443E+02 -0.11246964805E+04  0.11587128073E+04  0.00000000000E+00 0.  1.
<mgrwt>
<rscale>  3 0.59303815E+03</rscale>
<asrwt>0</asrwt>
<pdfrwt beam="1">  1        2 0.66816435E-02 0.59303815E+03</pdfrwt>
<pdfrwt beam="2">  1       -2 0.31145497E+00 0.59303815E+03</pdfrwt>
<totfact> 0.32181756E+01</totfact>
</mgrwt>
</event>
<event>
 4    0  0.1264838E-002  0.5177332E+03  0.7546771E-02  0.1009251E+00
         -2   -1    0    0    0  501 -0.00000000000E+00  0.00000000000E+00  0.15655614609E+03  0.15655614609E+03  0.00000000000E+00 0.  1.
          2   -1    0    0  502    0  0.00000000000E+00 -0.00000000000E+00 -0.42803764969E+03  0.42803764969E+03  0.00000000000E+00 0. -1.
         25    1    1    2    0    0 -0.27757089540E+02 -0.23941215578E+03 -0.18496339995E+03  0.32851955144E+03  0.12500000000E+03 0.  0.
         21    1    1    2  502  501  0.27757089540E+02  0.23941215578E+03 -0.86518103648E+02  0.25607424434E+03  0.00000000000E+00 0. -1.
<mgrwt>
<rscale>  3 0.51773323E+03</rscale>
<asrwt>0</asrwt>
<pdfrwt beam="1">  1        2 0.65851945E-01 0.51773323E+03</pdfrwt>
<pdfrwt beam="2">  1       -2 0.24085561E-01 0.51773323E+03</pdfrwt>
<totfact> 0.11302996E+03</totfact>
</mgrwt>
</event>
<event>
 4    0  0.1264838E-002  0.6703270E+03  0.7546771E-02  0.9769367E-01
         -2   -1    0    0    0  501 -0.00000000000E+00  0.00000000000E+00  0.30749673032E+02  0.30749673032E+02  0.00000000000E+00 0.  1.
          2   -1    0    0  502    0  0.00000000000E+00 -0.00000000000E+00 -0.36531953094E+04  0.36531953094E+04  0.00000000000E+00 0. -1.
         25    1    1    2    0    0 -0.28571658486E+03 -0.64026343512E+02 -0.11181746763E+04  0.11626147024E+04  0.12500000000E+03 0.  0.
         21    1    1    2  502  501  0.28571658486E+03  0.64026343512E+02 -0.25042709601E+04  0.25213302801E+04  0.00000000000E+00 0. -1.
<mgrwt>
<rscale>  3 0.67032697E+03</rscale>
<asrwt>0</asrwt>
<pdfrwt beam="1">  1        2 0.56202969E+00 0.67032697E+03</pdfrwt>
<pdfrwt beam="2">  1       -2 0.47307219E-02 0.67032697E+03</pdfrwt>
<totfact> 0.15580212E+02</totfact>
</mgrwt>
</event>
<event>
 4    0  0.1264838E-002  0.6498857E+03  0.7546771E-02  0.9806994E-01
         -2   -1    0    0    0  501 -0.00000000000E+00  0.00000000000E+00  0.10453003892E+03  0.10453003892E+03  0.00000000000E+00 0.  1.
          2   -1    0    0  502    0  0.00000000000E+00 -0.00000000000E+00 -0.10101197030E+04  0.10101197030E+04  0.00000000000E+00 0. -1.
         25    1    1    2    0    0  0.43163204778E+02 -0.26570603729E+03 -0.19588948229E+03  0.35561278066E+03  0.12500000000E+03 0.  0.
         21    1    1    2  502  501 -0.43163204778E+02  0.26570603729E+03 -0.70970018176E+03  0.75903696122E+03  0.00000000000E+00 0. -1.
<mgrwt>
<rscale>  3 0.64988569E+03</rscale>
<asrwt>0</asrwt>
<pdfrwt beam="1">  1        2 0.15540303E+00 0.64988569E+03</pdfrwt>
<pdfrwt beam="2">  1       -2 0.16081544E-01 0.64988569E+03</pdfrwt>
<totfact> 0.77837115E+02</totfact>
</mgrwt>
</event>
<event>
 4    0  0.1264838E-002  0.5777401E+03  0.7546771E-02  0.9952696E-01
         -1   -1    0    0    0  501 -0.00000000000E+00  0.00000000000E+00  0.38341100658E+03  0.38341100658E+03  0.00000000000E+00 0.  1.
          1   -1    0    0  502    0  0.00000000000E+00 -0.00000000000E+00 -0.21764085346E+03  0.21764085346E+03  0.00000000000E+00 0. -1.
         25    1    1    2    0    0  0.14590721874E+03 -0.22441250105E+03  0.19613163103E+02  0.29607357747E+03  0.12500000000E+03 0.  0.
         21    1    1    2  502  501 -0.14590721874E+03  0.22441250105E+03  0.14615699002E+03  0.30497828257E+03  0.00000000000E+00 0.  1.
<mgrwt>
<rscale>  3 0.57774008E+03</rscale>
<asrwt>0</asrwt>
<pdfrwt beam="1">  1        1 0.33483208E-01 0.57774008E+03</pdfrwt>
<pdfrwt beam="2">  1       -1 0.58986309E-01 0.57774008E+03</pdfrwt>
<totfact> 0.39327158E+02</totfact>
</mgrwt>
</event>
<event>
 4    0  0.1264838E-002  0.5904547E+03  0.7546771E-02  0.9925410E-01
          2   -1    0    0  502    0  0.00000000000E+00  0.00000000000E+00  0.20676243537E+04  0.20676243537E+04  0.00000000000E+00 0. -1.
         -2   -1    0    0    0  501 -0.00000000000E+00 -0.00000000000E+00 -0.42154264634E+02  0.42154264634E+02  0.00000000000E+00 0.  1.
         25    1    1    2    0    0  0.66687673798E+02  0.22231789601E+03  0.48587067982E+03  0.55278188305E+03  0.12500000000E+03 0.  0.
         21    1    1    2  502  501 -0.66687673798E+02 -0.22231789601E+03  0.15395994093E+04  0.15569967353E+04  0.00000000000E+00 0. -1.
<mgrwt>
<rscale>  3 0.59045469E+03</rscale>
<asrwt>0</asrwt>
<pdfrwt beam="1">  1        2 0.31809597E+00 0.59045469E+03</pdfrwt>
<pdfrwt beam="2">  1       -2 0.64852731E-02 0.59045469E+03</pdfrwt>
<totfact> 0.87168007E+02</totfact>
</mgrwt>
</event>
<event>
 4    0  0.1264838E-002  0.7429602E+03  0.7546771E-02  0.9646460E-01
          2   -1    0    0  502    0  0.00000000000E+00  0.00000000000E+00  0.22392800883E+04  0.22392800883E+04  0.00000000000E+00 0. -1.
         -2   -1    0    0    0  501 -0.00000000000E+00 -0.00000000000E+00 -0.61625820867E+02  0.61625820867E+02  0.00000000000E+00 0.  1.
         25    1    1    2    0    0 -0.16999372465E+03 -0.28535158088E+03  0.68197923477E+03  0.76879390463E+03  0.12500000000E+03 0.  0.
         21    1    1    2  502  501  0.16999372465E+03  0.28535158088E+03  0.14956750327E+04  0.15321120046E+04  0.00000000000E+00 0. -1.
<mgrwt>
<rscale>  3 0.74296022E+03</rscale>
<asrwt>0</asrwt>
<pdfrwt beam="1">  1        2 0.34450457E+00 0.74296022E+03</pdfrwt>
<pdfrwt beam="2">  1       -2 0.94808972E-02 0.74296022E+03</pdfrwt>
<totfact> 0.37854813E+02</totfact>
</mgrwt>
</event>
<event>
 4    0  0.1264838E-002  0.6598681E+03  0.7546771E-02  0.9788437E-01
          2   -1    0    0  502    0  0.00000000000E+00  0.00000000000E+00  0.21719410130E+03  0.21719410130E+03  0.00000000000E+00 0. -1.
         -2   -1    0    0    0  501 -0.00000000000E+00 -0.00000000000E+00 -0.50119443187E+03  0.50119443187E+03  0.00000000000E+00 0.  1.
         25    1    1    2    0    0 -0.28895348022E+03  0.85002188997E+02 -0.25846489614E+03  0.41611126926E+03  0.12500000000E+03 0.  0.
         21    1    1    2  502  501  0.28895348022E+03 -0.85002188997E+02 -0.25535434428E+02  0.30227726391E+03  0.00000000000E+00 0. -1.
<mgrwt>
<rscale>  3 0.65986809E+03</rscale>
<asrwt>0</asrwt>
<pdfrwt beam="1">  1        2 0.33414477E-01 0.65986809E+03</pdfrwt>
<pdfrwt beam="2">  1       -2 0.77106835E-01 0.65986809E+03</pdfrwt>
<totfact> 0.23905377E+02</totfact>
</mgrwt>
</event>
<event>
 4    0  0.1264838E-002  0.4397649E+03  0.7546771E-02  0.1030819E+00
          2   -1    0    0  502    0  0.00000000000E+00  0.00000000000E+00  0.35044040874E+03  0.35044040874E+03  0.00000000000E+00 0.  1.
         -2   -1    0    0    0  501 -0.00000000000E+00 -0.00000000000E+00 -0.13796434786E+03  0.13796434786E+03  0.00000000000E+00 0. -1.
         25    1    1    2    0    0 -0.69426605200E+02 -0.18980578663E+03  0.11732799091E+03  0.26502291901E+03  0.12500000000E+03 0.  0.
         21    1    1    2  502  501  0.69426605200E+02  0.18980578663E+03  0.95148069960E+02  0.22338183759E+03  0.00000000000E+00 0. -1.
<mgrwt>
<rscale>  3 0.43976486E+03</rscale>
<asrwt>0</asrwt>
<pdfrwt beam="1">  1        2 0.53913909E-01 0.43976486E+03</pdfrwt>
<pdfrwt beam="2">  1       -2 0.21225284E-01 0.43976486E+03</pdfrwt>
<totfact> 0.17619242E+03</totfact>
</mgrwt>
</event>
<event>
 4    0  0.1532280E-002  0.6048452E+03  0.7546771E-02  0.9895404E-01
          2   -1    0    0  502    0  0.00000000000E+00  0.00000000000E+00  0.13211850356E+04  0.13211850356E+04  0.00000000000E+00 0. -1.
         -2   -1    0    0    0  501 -0.00000000000E+00 -0.00000000000E+00 -0.69225306365E+02  0.69225306365E+02  0.00000000000E+00 0.  1.
         25    1    1    2    0    0  0.14317951283E+03  0.17206863709E+03  0.23067816099E+03  0.34488462233E+03  0.12500000000E+03 0.  0.
         21    1    1    2  502  501 -0.14317951283E+03 -0.17206863709E+03  0.10212815682E+04  0.10455257196E+04  0.00000000000E+00 0. -1.
<mgrwt>
<rscale>  3 0.60484523E+03</rscale>
<asrwt>0</asrwt>
<pdfrwt beam="1">  1        2 0.20325922E+00 0.60484523E+03</pdfrwt>
<pdfrwt beam="2">  1       -2 0.10650048E-01 0.60484523E+03</pdfrwt>
<totfact> 0.10093957E+03</totfact>
</mgrwt>
</event>
<event>
 4    0  0.1264838E-002  0.4599203E+03  0.7546771E-02  0.1024804E+00
         -2   -1    0    0    0  501 -0.00000000000E+00  0.00000000000E+00  0.85397404788E+02  0.85397404788E+02  0.00000000000E+00 0. -1.
          2   -1    0    0  502    0  0.00000000000E+00 -0.00000000000E+00 -0.61924226076E+03  0.61924226076E+03  0.00000000000E+00 0.  1.
         25    1    1    2    0    0  0.47595170811E+02 -0.20081797259E+03 -0.20608332358E+03  0.31731450432E+03  0.12500000000E+03 0.  0.
         21    1    1    2  502  501 -0.47595170811E+02  0.20081797259E+03 -0.32776153239E+03  0.38732516122E+03  0.00000000000E+00 0.  1.
<mgrwt>
<rscale>  3 0.45992035E+03</rscale>
<asrwt>0</asrwt>
<pdfrwt beam="1">  1        2 0.95268040E-01 0.45992035E+03</pdfrwt>
<pdfrwt beam="2">  1       -2 0.13138062E-01 0.45992035E+03</pdfrwt>
<totfact> 0.20830563E+03</totfact>
</mgrwt>
</event>
<event>
 4    0  0.1264838E-002  0.4664834E+03  0.7546771E-02  0.1022917E+00
          2   -1    0    0  502    0  0.00000000000E+00  0.00000000000E+00  0.95211696488E+03  0.95211696488E+03  0.00000000000E+00 0. -1.
         -2   -1    0    0    0  501 -0.00000000000E+00 -0.00000000000E+00 -0.57137610866E+02  0.57137610866E+02  0.00000000000E+00 0.  1.
         25    1    1    2    0    0 -0.31239164296E+02 -0.20121287664E+03  0.32052877875E+03  0.39978269737E+03  0.12500000000E+03 0.  0.
         21    1    1    2  502  501  0.31239164296E+02  0.20121287664E+03  0.57445057526E+03  0.60947187837E+03  0.00000000000E+00 0. -1.
<mgrwt>
<rscale>  3 0.46648339E+03</rscale>
<asrwt>0</asrwt>
<pdfrwt beam="1">  1        2 0.14647952E+00 0.46648339E+03</pdfrwt>
<pdfrwt beam="2">  1       -2 0.87904024E-02 0.46648339E+03</pdfrwt>
<totfact> 0.22968565E+03</totfact>
</mgrwt>
</event>
<event>
 4    0  0.1264838E-002  0.8484544E+03  0.7546771E-02  0.9492414E-01
          2   -1    0    0  502    0  0.00000000000E+00  0.00000000000E+00  0.79288722388E+03  0.79288722388E+03  0.00000000000E+00 0.  1.
         -2   -1    0    0    0  501 -0.00000000000E+00 -0.00000000000E+00 -0.22697893918E+03  0.22697893918E+03  0.00000000000E+00 0. -1.
         25    1    1    2    0    0 -0.17120066472E+03 -0.31234927743E+03  0.54512843824E+03  0.66306994570E+03  0.12500000000E+03 0.  0.
         21    1    1    2  502  501  0.17120066472E+03  0.31234927743E+03  0.20779846463E+02  0.35679621737E+03  0.00000000000E+00 0. -1.
<mgrwt>
<rscale>  3 0.84845436E+03</rscale>
<asrwt>0</asrwt>
<pdfrwt beam="1">  1        2 0.12198265E+00 0.84845436E+03</pdfrwt>
<pdfrwt beam="2">  1       -2 0.34919837E-01 0.84845436E+03</pdfrwt>
<totfact> 0.26917662E+02</totfact>
</mgrwt>
</event>
<event>
 4    0  0.1264838E-002  0.4897523E+03  0.7546771E-02  0.1016489E+00
         -2   -1    0    0    0  501 -0.00000000000E+00  0.00000000000E+00  0.24307884594E+02  0.24307884594E+02  0.00000000000E+00 0. -1.
          2   -1    0    0  502    0  0.00000000000E+00 -0.00000000000E+00 -0.24668672539E+04  0.24668672539E+04  0.00000000000E+00 0.  1.
         25    1    1    2    0    0 -0.86692424526E+02 -0.20321332319E+03 -0.16058239649E+04  0.16257634630E+04  0.12500000000E+03 0.  0.
         21    1    1    2  502  501  0.86692424526E+02  0.20321332319E+03 -0.83673540440E+03  0.86541167555E+03  0.00000000000E+00 0. -1.
<mgrwt>
<rscale>  3 0.48975228E+03</rscale>
<asrwt>0</asrwt>
<pdfrwt beam="1">  1        2 0.37951802E+00 0.48975228E+03</pdfrwt>
<pdfrwt beam="2">  1       -2 0.37396747E-02 0.48975228E+03</pdfrwt>
<totfact> 0.12433253E+03</totfact>
</mgrwt>
</event>
<event>
 4    0  0.1264838E-002  0.8017321E+03  0.7546771E-02  0.9557513E-01
         -2   -1    0    0    0  501 -0.00000000000E+00  0.00000000000E+00  0.90585844816E+02  0.90585844816E+02  0.00000000000E+00 0.  1.
          2   -1    0    0  502    0  0.00000000000E+00 -0.00000000000E+00 -0.17739370417E+04  0.17739370417E+04  0.00000000000E+00 0. -1.
         25    1    1    2    0    0  0.21737347079E+03  0.19131824100E+03 -0.25070518213E+03  0.40290443468E+03  0.12500000000E+03 0.  0.
         21    1    1    2  502  501 -0.21737347079E+03 -0.19131824100E+03 -0.14326460147E+04  0.14616184518E+04  0.00000000000E+00 0. -1.
<mgrwt>
<rscale>  3 0.80173209E+03</rscale>
<asrwt>0</asrwt>
<pdfrwt beam="1">  1        2 0.27291340E+00 0.80173209E+03</pdfrwt>
<pdfrwt beam="2">  1       -2 0.13936283E-01 0.80173209E+03</pdfrwt>
<totfact> 0.35901579E+02</totfact>
</mgrwt>
</event>
<event>
 4    0  0.1264838E-002  0.5000326E+03  0.7546771E-02  0.1013770E+00
          1   -1    0    0  502    0  0.00000000000E+00  0.00000000000E+00  0.41165977063E+03  0.41165977063E+03  0.00000000000E+00 0. -1.
         -1   -1    0    0    0  501 -0.00000000000E+00 -0.00000000000E+00 -0.15184423324E+03  0.15184423324E+03  0.00000000000E+00 0.  1.
         25    1    1    2    0    0  0.23117946954E+03 -0.42978994518E+01  0.18134117376E+03  0.31933061297E+03  0.12500000000E+03 0.  0.
         21    1    1    2  502  501 -0.23117946954E+03  0.42978994518E+01  0.78474363632E+02  0.24417339090E+03  0.00000000000E+00 0.  1.
<mgrwt>
<rscale>  3 0.50003265E+03</rscale>
<asrwt>0</asrwt>
<pdfrwt beam="1">  1        1 0.63332272E-01 0.50003265E+03</pdfrwt>
<pdfrwt beam="2">  1       -1 0.23360651E-01 0.50003265E+03</pdfrwt>
<totfact> 0.91190631E+02</totfact>
</mgrwt>
</event>
<event>
 4    0  0.1264838E-002  0.5658620E+03  0.7546771E-02  0.9978878E-01
         -2   -1    0    0    0  501 -0.00000000000E+00  0.00000000000E+00  0.66566537473E+03  0.66566537473E+03  0.00000000000E+00 0.  1.
          2   -1    0    0  502    0  0.00000000000E+00 -0.00000000000E+00 -0.12025552174E+03  0.12025552174E+03  0.00000000000E+00 0. -1.
         25    1    1    2    0    0  0.18904800096E+03  0.18785572538E+03  0.23406082730E+03  0.37608295774E+03  0.12500000000E+03 0.  0.
         21    1    1    2  502  501 -0.18904800096E+03 -0.18785572538E+03  0.31134902570E+03  0.40983793873E+03  0.00000000000E+00 0.  1.
<mgrwt>
<rscale>  3 0.56586195E+03</rscale>
<asrwt>0</asrwt>
<pdfrwt beam="1">  1        2 0.18500850E-01 0.56586195E+03</pdfrwt>
<pdfrwt beam="2">  1       -2 0.10241006E+00 0.56586195E+03</pdfrwt>
<totfact> 0.24619815E+02</totfact>
</mgrwt>
</event>
<event>
 4    0  0.1264838E-002  0.6067833E+03  0.7546771E-02  0.9891432E-01
         -2   -1    0    0    0  501 -0.00000000000E+00  0.00000000000E+00  0.19365910934E+03  0.19365910934E+03  0.00000000000E+00 0. -1.
          2   -1    0    0  502    0  0.00000000000E+00 -0.00000000000E+00 -0.47530163537E+03  0.47530163537E+03  0.00000000000E+00 0.  1.
         25    1    1    2    0    0 -0.55499922517E+02  0.25770628712E+03 -0.28140266649E+03  0.40534581844E+03  0.12500000000E+03 0.  0.
         21    1    1    2  502  501  0.55499922517E+02 -0.25770628712E+03 -0.23985953630E+00  0.26361492627E+03  0.00000000000E+00 0.  1.
<mgrwt>
<rscale>  3 0.60678329E+03</rscale>
<asrwt>0</asrwt>
<pdfrwt beam="1">  1        2 0.73123329E-01 0.60678329E+03</pdfrwt>
<pdfrwt beam="2">  1       -2 0.29793709E-01 0.60678329E+03</pdfrwt>
<totfact> 0.68203174E+02</totfact>
</mgrwt>
</event>
<event>
 4    0  0.1264838E-002  0.5578377E+03  0.7546771E-02  0.9996959E-01
         -3   -1    0    0    0  501 -0.00000000000E+00  0.00000000000E+00  0.46073086722E+02  0.46073086722E+02  0.00000000000E+00 0. -1.
          3   -1    0    0  502    0  0.00000000000E+00 -0.00000000000E+00 -0.16885283401E+04  0.16885283401E+04  0.00000000000E+00 0.  1.
         25    1    1    2    0    0  0.18564182451E+03 -0.10712436882E+03 -0.13465968886E+04  0.13692650210E+04  0.12500000000E+03 0.  0.
         21    1    1    2  502  501 -0.18564182451E+03  0.10712436882E+03 -0.29585836483E+03  0.36533640585E+03  0.00000000000E+00 0. -1.
<mgrwt>
<rscale>  3 0.55783766E+03</rscale>
<asrwt>0</asrwt>
<pdfrwt beam="1">  1        3 0.25977360E+00 0.55783766E+03</pdfrwt>
<pdfrwt beam="2">  1       -3 0.70881670E-02 0.55783766E+03</pdfrwt>
<totfact> 0.24029454E+01</totfact>
</mgrwt>
</event>
<event>
 4    0  0.1264838E-002  0.6447962E+03  0.7546771E-02  0.9816593E-01
         -1   -1    0    0    0  501 -0.00000000000E+00  0.00000000000E+00  0.15757839411E+03  0.15757839411E+03  0.00000000000E+00 0. -1.
          1   -1    0    0  502    0  0.00000000000E+00 -0.00000000000E+00 -0.65961163831E+03  0.65961163831E+03  0.00000000000E+00 0.  1.
         25    1    1    2    0    0  0.21601625888E+03  0.50247726854E+02 -0.53546183385E+03  0.59290153792E+03  0.12500000000E+03 0.  0.
         21    1    1    2  502  501 -0.21601625888E+03 -0.50247726854E+02  0.33428589657E+02  0.22428849450E+03  0.00000000000E+00 0. -1.
<mgrwt>
<rscale>  3 0.64479622E+03</rscale>
<asrwt>0</asrwt>
<pdfrwt beam="1">  1        1 0.10147871E+00 0.64479622E+03</pdfrwt>
<pdfrwt beam="2">  1       -1 0.24242830E-01 0.64479622E+03</pdfrwt>
<totfact> 0.44470710E+02</totfact>
</mgrwt>
</event>
<event>
 4    0  0.1264838E-002  0.6712250E+03  0.7546771E-02  0.9767747E-01
          1   -1    0    0  502    0  0.00000000000E+00  0.00000000000E+00  0.40462990249E+04  0.40462990249E+04  0.00000000000E+00 0. -1.
         -1   -1    0    0    0  501 -0.00000000000E+00 -0.00000000000E+00 -0.27836736427E+02  0.27836736427E+02  0.00000000000E+00 0.  1.
         25    1    1    2    0    0  0.12180960722E+03 -0.16036027530E+03  0.36192982064E+04  0.36270507999E+04  0.12500000000E+03 0.  0.
         21    1    1    2  502  501 -0.12180960722E+03  0.16036027530E+03  0.39916408209E+03  0.44708496143E+03  0.00000000000E+00 0.  1.
<mgrwt>
<rscale>  3 0.67122503E+03</rscale>
<asrwt>0</asrwt>
<pdfrwt beam="1">  1        1 0.62250708E+00 0.67122503E+03</pdfrwt>
<pdfrwt beam="2">  1       -1 0.42825780E-02 0.67122503E+03</pdfrwt>
<totfact> 0.22885026E+01</totfact>
</mgrwt>
</event>
<event>
 4    0  0.1264838E-002  0.7244573E+03  0.7546771E-02  0.9676298E-01
          2   -1    0    0  502    0  0.00000000000E+00  0.00000000000E+00  0.64550519759E+03  0.64550519759E+03  0.00000000000E+00 0. -1.
         -2   -1    0    0    0  501 -0.00000000000E+00 -0.00000000000E+00 -0.20326651040E+03  0.20326651040E+03  0.00000000000E+00 0.  1.
         25    1    1    2    0    0  0.68662034495E+02 -0.33767282438E+03  0.14673513558E+03  0.39483365019E+03  0.12500000000E+03 0.  0.
         21    1    1    2  502  501 -0.68662034495E+02  0.33767282438E+03  0.29550355161E+03  0.45393805780E+03  0.00000000000E+00 0. -1.
<mgrwt>
<rscale>  3 0.72445728E+03</rscale>
<asrwt>0</asrwt>
<pdfrwt beam="1">  1        2 0.99308491E-01 0.72445728E+03</pdfrwt>
<pdfrwt beam="2">  1       -2 0.31271771E-01 0.72445728E+03</pdfrwt>
<totfact> 0.43281807E+02</totfact>
</mgrwt>
</event>
<event>
 4    0  0.1264838E-002  0.4684807E+03  0.7546771E-02  0.1022350E+00
          2   -1    0    0  502    0  0.00000000000E+00  0.00000000000E+00  0.20019610293E+03  0.20019610293E+03  0.00000000000E+00 0. -1.
         -2   -1    0    0    0  501 -0.00000000000E+00 -0.00000000000E+00 -0.27407395213E+03  0.27407395213E+03  0.00000000000E+00 0.  1.
         25    1    1    2    0    0 -0.16971012653E+03  0.13561778593E+03 -0.27572232614E+02  0.25214864449E+03  0.12500000000E+03 0.  0.
         21    1    1    2  502  501  0.16971012653E+03 -0.13561778593E+03 -0.46305616588E+02  0.22212141057E+03  0.00000000000E+00 0.  1.
<mgrwt>
<rscale>  3 0.46848068E+03</rscale>
<asrwt>0</asrwt>
<pdfrwt beam="1">  1        2 0.30799400E-01 0.46848068E+03</pdfrwt>
<pdfrwt beam="2">  1       -2 0.42165223E-01 0.46848068E+03</pdfrwt>
<totfact> 0.92273044E+02</totfact>
</mgrwt>
</event>
<event>
 4    0  0.1264838E-002  0.4552942E+03  0.7546771E-02  0.1026155E+00
         -1   -1    0    0    0  501 -0.00000000000E+00  0.00000000000E+00  0.34825417370E+03  0.34825417370E+03  0.00000000000E+00 0. -1.
          1   -1    0    0  502    0  0.00000000000E+00 -0.00000000000E+00 -0.14880854708E+03  0.14880854708E+03  0.00000000000E+00 0.  1.
         25    1    1    2    0    0 -0.65268026572E+02  0.19057641071E+03  0.17387910473E+03  0.29400378683E+03  0.12500000000E+03 0.  0.
         21    1    1    2  502  501  0.65268026572E+02 -0.19057641071E+03  0.25566521894E+02  0.20305893394E+03  0.00000000000E+00 0. -1.
<mgrwt>
<rscale>  3 0.45529418E+03</rscale>
<asrwt>0</asrwt>
<pdfrwt beam="1">  1        1 0.22893623E-01 0.45529418E+03</pdfrwt>
<pdfrwt beam="2">  1       -1 0.53577565E-01 0.45529418E+03</pdfrwt>
<totfact> 0.77561677E+02</totfact>
</mgrwt>
</event>
<event>
 4    0  0.1264838E-002  0.5203262E+03  0.7546771E-02  0.1008606E+00
         -2   -1    0    0    0  501 -0.00000000000E+00  0.00000000000E+00  0.11233307309E+03  0.11233307309E+03  0.00000000000E+00 0.  1.
          2   -1    0    0  502    0  0.00000000000E+00 -0.00000000000E+00 -0.60253701540E+03  0.60253701540E+03  0.00000000000E+00 0. -1.
         25    1    1    2    0    0 -0.10372759187E+03  0.20014464933E+03 -0.39160125064E+03  0.46882175021E+03  0.12500000000E+03 0.  0.
         21    1    1    2  502  501  0.10372759187E+03 -0.20014464933E+03 -0.98602691665E+02  0.24604833828E+03  0.00000000000E+00 0.  1.
<mgrwt>
<rscale>  3 0.52032618E+03</rscale>
<asrwt>0</asrwt>
<pdfrwt beam="1">  1        2 0.92698002E-01 0.52032618E+03</pdfrwt>
<pdfrwt beam="2">  1       -2 0.17282011E-01 0.52032618E+03</pdfrwt>
<totfact> 0.13589193E+03</totfact>
</mgrwt>
</event>
<event>
 4    0  0.1264838E-002  0.5616574E+03  0.7546771E-02  0.9988311E-01
         -2   -1    0    0    0  501 -0.00000000000E+00  0.00000000000E+00  0.13493873821E+03  0.13493873821E+03  0.00000000000E+00 0.  1.
          2   -1    0    0  502    0  0.00000000000E+00 -0.00000000000E+00 -0.58444863028E+03  0.58444863028E+03  0.00000000000E+00 0. -1.
         25    1    1    2    0    0  0.25771127792E+03  0.30182824111E+02 -0.15569839970E+03  0.32740356948E+03  0.12500000000E+03 0.  0.
         21    1    1    2  502  501 -0.25771127792E+03 -0.30182824111E+02 -0.29381149238E+03  0.39198379901E+03  0.00000000000E+00 0. -1.
<mgrwt>
<rscale>  3 0.56165741E+03</rscale>
<asrwt>0</asrwt>
<pdfrwt beam="1">  1        2 0.89915171E-01 0.56165741E+03</pdfrwt>
<pdfrwt beam="2">  1       -2 0.20759807E-01 0.56165741E+03</pdfrwt>
<totfact> 0.10263621E+03</totfact>
</mgrwt>
</event>
<event>
 4    0  0.1264838E-002  0.4820421E+03  0.7546771E-02  0.1018575E+00
          2   -1    0    0  502    0  0.00000000000E+00  0.00000000000E+00  0.17648591799E+04  0.17648591799E+04  0.00000000000E+00 0. -1.
         -2   -1    0    0    0  501 -0.00000000000E+00 -0.00000000000E+00 -0.32915453387E+02  0.32915453387E+02  0.00000000000E+00 0.  1.
         25    1    1    2    0    0 -0.36087317403E+02 -0.21852172541E+03  0.10680314500E+04  0.10978935363E+04  0.12500000000E+03 0.  0.
         21    1    1    2  502  501  0.36087317403E+02  0.21852172541E+03  0.66391227655E+03  0.69988109698E+03  0.00000000000E+00 0.  1.
<mgrwt>
<rscale>  3 0.48204207E+03</rscale>
<asrwt>0</asrwt>
<pdfrwt beam="1">  1        2 0.27151672E+00 0.48204207E+03</pdfrwt>
<pdfrwt beam="2">  1       -2 0.50639173E-02 0.48204207E+03</pdfrwt>
<totfact> 0.18782858E+03</totfact>
</mgrwt>
</event>
<event>
 4    0  0.1264838E-002  0.5580029E+03  0.7546771E-02  0.9996584E-01
         -2   -1    0    0    0  501 -0.00000000000E+00  0.00000000000E+00  0.31614798121E+02  0.31614798121E+02  0.00000000000E+00 0.  1.
          2   -1    0    0  502    0  0.00000000000E+00 -0.00000000000E+00 -0.24621954427E+04  0.24621954427E+04  0.00000000000E+00 0. -1.
         25    1    1    2    0    0 -0.16748734051E+03 -0.20315231127E+03 -0.14105344354E+04  0.14403316508E+04  0.12500000000E+03 0.  0.
         21    1    1    2  502  501  0.16748734051E+03  0.20315231127E+03 -0.10200462092E+04  0.10534785900E+04  0.00000000000E+00 0.  1.
<mgrwt>
<rscale>  3 0.55800291E+03</rscale>
<asrwt>0</asrwt>
<pdfrwt beam="1">  1        2 0.37879904E+00 0.55800291E+03</pdfrwt>
<pdfrwt beam="2">  1       -2 0.48638184E-02 0.55800291E+03</pdfrwt>
<totfact> 0.83060969E+02</totfact>
</mgrwt>
</event>
<event>
 4    0  0.1264838E-002  0.5055970E+03  0.7546771E-02  0.1012328E+00
         -2   -1    0    0    0  501 -0.00000000000E+00  0.00000000000E+00  0.66092251343E+02  0.66092251343E+02  0.00000000000E+00 0. -1.
          2   -1    0    0  502    0  0.00000000000E+00 -0.00000000000E+00 -0.96693748492E+03  0.96693748492E+03  0.00000000000E+00 0.  1.
         25    1    1    2    0    0  0.22682432524E+03  0.66099215254E+02 -0.43158870010E+03  0.50765360911E+03  0.12500000000E+03 0.  0.
         21    1    1    2  502  501 -0.22682432524E+03 -0.66099215254E+02 -0.46925653347E+03  0.52537612716E+03  0.00000000000E+00 0. -1.
<mgrwt>
<rscale>  3 0.50559698E+03</rscale>
<asrwt>0</asrwt>
<pdfrwt beam="1">  1        2 0.14875960E+00 0.50559698E+03</pdfrwt>
<pdfrwt beam="2">  1       -2 0.10168039E-01 0.50559698E+03</pdfrwt>
<totfact> 0.17780433E+03</totfact>
</mgrwt>
</event>
<event>
 4    0  0.1264838E-002  0.5429273E+03  0.7546771E-02  0.1003144E+00
          1   -1    0    0  502    0  0.00000000000E+00  0.00000000000E+00  0.29142484899E+03  0.29142484899E+03  0.00000000000E+00 0. -1.
         -1   -1    0    0    0  501 -0.00000000000E+00 -0.00000000000E+00 -0.25286970097E+03  0.25286970097E+03  0.00000000000E+00 0.  1.
         25    1    1    2    0    0 -0.20530679033E+03 -0.90012947813E+02  0.14644900043E+03  0.29550891468E+03  0.12500000000E+03 0.  0.
         21    1    1    2  502  501  0.20530679033E+03  0.90012947813E+02 -0.10789385241E+03  0.24878563527E+03  0.00000000000E+00 0.  1.
<mgrwt>
<rscale>  3 0.54292730E+03</rscale>
<asrwt>0</asrwt>
<pdfrwt beam="1">  1        1 0.44834592E-01 0.54292730E+03</pdfrwt>
<pdfrwt beam="2">  1       -1 0.38903031E-01 0.54292730E+03</pdfrwt>
<totfact> 0.58911789E+02</totfact>
</mgrwt>
</event>
<event>
 4    0  0.1264838E-002  0.5327475E+03  0.7546771E-02  0.1005568E+00
          2   -1    0    0  502    0  0.00000000000E+00  0.00000000000E+00  0.26292464247E+04  0.26292464247E+04  0.00000000000E+00 0.  1.
         -2   -1    0    0    0  501 -0.00000000000E+00 -0.00000000000E+00 -0.26986806880E+02  0.26986806880E+02  0.00000000000E+00 0. -1.
         25    1    1    2    0    0  0.31473509109E+02  0.19999056887E+03  0.21184955003E+04  0.21318149531E+04  0.12500000000E+03 0.  0.
         21    1    1    2  502  501 -0.31473509109E+02 -0.19999056887E+03  0.48376411746E+03  0.52441827844E+03  0.00000000000E+00 0. -1.
<mgrwt>
<rscale>  3 0.53274747E+03</rscale>
<asrwt>0</asrwt>
<pdfrwt beam="1">  1        2 0.40449925E+00 0.53274747E+03</pdfrwt>
<pdfrwt beam="2">  1       -2 0.41518185E-02 0.53274747E+03</pdfrwt>
<totfact> 0.85504186E+02</totfact>
</mgrwt>
</event>
<event>
 4    0  0.1264838E-002  0.7158050E+03  0.7546771E-02  0.9690579E-01
          2   -1    0    0  502    0  0.00000000000E+00  0.00000000000E+00  0.48933069236E+03  0.48933069236E+03  0.00000000000E+00 0.  1.
         -2   -1    0    0    0  501 -0.00000000000E+00 -0.00000000000E+00 -0.26177432707E+03  0.26177432707E+03  0.00000000000E+00 0. -1.
         25    1    1    2    0    0 -0.12422961940E+02  0.26610375054E+03 -0.11605737692E+03  0.31632238424E+03  0.12500000000E+03 0.  0.
         21    1    1    2  502  501  0.12422961940E+02 -0.26610375054E+03  0.34361374221E+03  0.43478263520E+03  0.00000000000E+00 0.  1.
<mgrwt>
<rscale>  3 0.71580504E+03</rscale>
<asrwt>0</asrwt>
<pdfrwt beam="1">  1        2 0.75281645E-01 0.71580504E+03</pdfrwt>
<pdfrwt beam="2">  1       -2 0.40272974E-01 0.71580504E+03</pdfrwt>
<totfact> 0.37138703E+02</totfact>
</mgrwt>
</event>
<event>
 4    0  0.1264838E-002  0.5478827E+03  0.7546771E-02  0.1001985E+00
         -2   -1    0    0    0  501 -0.00000000000E+00  0.00000000000E+00  0.17034376229E+03  0.17034376229E+03  0.00000000000E+00 0.  1.
          2   -1    0    0  502    0  0.00000000000E+00 -0.00000000000E+00 -0.44054364425E+03  0.44054364425E+03  0.00000000000E+00 0. -1.
         25    1    1    2    0    0  0.22914189870E+03 -0.10180433061E+03 -0.66801385980E+02  0.28802353487E+03  0.12500000000E+03 0.  0.
         21    1    1    2  502  501 -0.22914189870E+03  0.10180433061E+03 -0.20339849598E+03  0.32286387168E+03  0.00000000000E+00 0. -1.
<mgrwt>
<rscale>  3 0.54788269E+03</rscale>
<asrwt>0</asrwt>
<pdfrwt beam="1">  1        2 0.67775945E-01 0.54788269E+03</pdfrwt>
<pdfrwt beam="2">  1       -2 0.26206733E-01 0.54788269E+03</pdfrwt>
<totfact> 0.94040750E+02</totfact>
</mgrwt>
</event>
<event>
 4    0  0.1264838E-002  0.5101491E+03  0.7546771E-02  0.1011163E+00
         -1   -1    0    0    0  501 -0.00000000000E+00  0.00000000000E+00  0.20829546669E+03  0.20829546669E+03  0.00000000000E+00 0.  1.
          1   -1    0    0  502    0  0.00000000000E+00 -0.00000000000E+00 -0.31235928770E+03  0.31235928770E+03  0.00000000000E+00 0. -1.
         25    1    1    2    0    0 -0.23033672061E+03  0.61591533718E+02 -0.80904803058E+02  0.28110337786E+03  0.12500000000E+03 0.  0.
         21    1    1    2  502  501  0.23033672061E+03 -0.61591533718E+02 -0.23159017952E+02  0.23955137654E+03  0.00000000000E+00 0.  1.
<mgrwt>
<rscale>  3 0.51014909E+03</rscale>
<asrwt>0</asrwt>
<pdfrwt beam="1">  1        1 0.48055275E-01 0.51014909E+03</pdfrwt>
<pdfrwt beam="2">  1       -1 0.32045456E-01 0.51014909E+03</pdfrwt>
<totfact> 0.76004951E+02</totfact>
</mgrwt>
</event>
<event>
 4    0  0.1264838E-002  0.6042670E+03  0.7546771E-02  0.9896593E-01
          2   -1    0    0  502    0  0.00000000000E+00  0.00000000000E+00  0.31748154868E+04  0.31748154868E+04  0.00000000000E+00 0. -1.
         -2   -1    0    0    0  501 -0.00000000000E+00 -0.00000000000E+00 -0.28752740419E+02  0.28752740419E+02  0.00000000000E+00 0.  1.
         25    1    1    2    0    0  0.15373251719E+03 -0.21345454673E+03  0.22774779035E+04  0.22960242009E+04  0.12500000000E+03 0.  0.
         21    1    1    2  502  501 -0.15373251719E+03  0.21345454673E+03  0.86858484291E+03  0.90754402632E+03  0.00000000000E+00 0.  1.
<mgrwt>
<rscale>  3 0.60426698E+03</rscale>
<asrwt>0</asrwt>
<pdfrwt beam="1">  1        2 0.48843288E+00 0.60426698E+03</pdfrwt>
<pdfrwt beam="2">  1       -2 0.44235010E-02 0.60426698E+03</pdfrwt>
<totfact> 0.36328232E+02</totfact>
</mgrwt>
</event>
<event>
 4    0  0.1264838E-002  0.5019573E+03  0.7546771E-02  0.1013269E+00
          1   -1    0    0  502    0  0.00000000000E+00  0.00000000000E+00  0.16612633943E+03  0.16612633943E+03  0.00000000000E+00 0. -1.
         -1   -1    0    0    0  501 -0.00000000000E+00 -0.00000000000E+00 -0.37917092717E+03  0.37917092717E+03  0.00000000000E+00 0.  1.
         25    1    1    2    0    0  0.25092067741E+02 -0.23316501322E+03 -0.13551001321E+03  0.29830102067E+03  0.12500000000E+03 0.  0.
         21    1    1    2  502  501 -0.25092067741E+02  0.23316501322E+03 -0.77534574538E+02  0.24699624593E+03  0.00000000000E+00 0.  1.
<mgrwt>
<rscale>  3 0.50195728E+03</rscale>
<asrwt>0</asrwt>
<pdfrwt beam="1">  1        1 0.25557899E-01 0.50195728E+03</pdfrwt>
<pdfrwt beam="2">  1       -1 0.58333987E-01 0.50195728E+03</pdfrwt>
<totfact> 0.57066237E+02</totfact>
</mgrwt>
</event>
<event>
 4    0  0.1264838E-002  0.4388534E+03  0.7546771E-02  0.1031099E+00
         -2   -1    0    0    0  501 -0.00000000000E+00  0.00000000000E+00  0.18253639166E+03  0.18253639166E+03  0.00000000000E+00 0.  1.
          2   -1    0    0  502    0  0.00000000000E+00 -0.00000000000E+00 -0.26377244791E+03  0.26377244791E+03  0.00000000000E+00 0. -1.
         25    1    1    2    0    0 -0.90138828876E+02  0.18035281339E+03 -0.44505416461E+02  0.24136668756E+03  0.12500000000E+03 0.  0.
         21    1    1    2  502  501  0.90138828876E+02 -0.18035281339E+03 -0.36730639792E+02  0.20494215200E+03  0.00000000000E+00 0. -1.
<mgrwt>
<rscale>  3 0.43885337E+03</rscale>
<asrwt>0</asrwt>
<pdfrwt beam="1">  1        2 0.40580377E-01 0.43885337E+03</pdfrwt>
<pdfrwt beam="2">  1       -2 0.28082522E-01 0.43885337E+03</pdfrwt>
<totfact> 0.14614502E+03</totfact>
</mgrwt>
</event>
<event>
 4    0  0.1264838E-002  0.4912707E+03  0.7546771E-02  0.1016083E+00
         -2   -1    0    0    0  501 -0.00000000000E+00  0.00000000000E+00  0.27218151362E+02  0.27218151362E+02  0.00000000000E+00 0. -1.
          2   -1    0    0  502    0  0.00000000000E+00 -0.00000000000E+00 -0.22167826515E+04  0.22167826515E+04  0.00000000000E+00 0.  1.
         25    1    1    2    0    0 -0.12841007083E+03 -0.16477573122E+03 -0.16022780678E+04  0.16206665896E+04  0.12500000000E+03 0.  0.
         21    1    1    2  502  501  0.12841007083E+03  0.16477573122E+03 -0.58728643226E+03  0.62333421324E+03  0.00000000000E+00 0. -1.
<mgrwt>
<rscale>  3 0.49127070E+03</rscale>
<asrwt>0</asrwt>
<pdfrwt beam="1">  1        2 0.34104346E+00 0.49127070E+03</pdfrwt>
<pdfrwt beam="2">  1       -2 0.41874082E-02 0.49127070E+03</pdfrwt>
<totfact> 0.14357097E+03</totfact>
</mgrwt>
</event>
<event>
 4    0  0.1264838E-002  0.5538578E+03  0.7546771E-02  0.1000605E+00
         -2   -1    0    0    0  501 -0.00000000000E+00  0.00000000000E+00  0.26839032349E+02  0.26839032349E+02  0.00000000000E+00 0.  1.
          2   -1    0    0  502    0  0.00000000000E+00 -0.00000000000E+00 -0.28573915888E+04  0.28573915888E+04  0.00000000000E+00 0. -1.
         25    1    1    2    0    0  0.20419779414E+03  0.95713600506E+01 -0.23475963503E+04  0.23597927820E+04  0.12500000000E+03 0.  0.
         21    1    1    2  502  501 -0.20419779414E+03 -0.95713600506E+01 -0.48295620615E+03  0.52443783915E+03  0.00000000000E+00 0.  1.
<mgrwt>
<rscale>  3 0.55385783E+03</rscale>
<asrwt>0</asrwt>
<pdfrwt beam="1">  1        2 0.43959826E+00 0.55385783E+03</pdfrwt>
<pdfrwt beam="2">  1       -2 0.41290860E-02 0.55385783E+03</pdfrwt>
<totfact> 0.63432271E+02</totfact>
</mgrwt>
</event>
<event>
 4    0  0.1264838E-002  0.5198437E+03  0.7546771E-02  0.1008725E+00
         -2   -1    0    0    0  501 -0.00000000000E+00  0.00000000000E+00  0.56534105242E+02  0.56534105242E+02  0.00000000000E+00 0. -1.
          2   -1    0    0  502    0  0.00000000000E+00 -0.00000000000E+00 -0.11950198011E+04  0.11950198011E+04  0.00000000000E+00 0.  1.
         25    1    1    2    0    0 -0.19272878123E+03  0.10923232157E+03 -0.85347398677E+03  0.89057224822E+03  0.12500000000E+03 0.  0.
         21    1    1    2  502  501  0.19272878123E+03 -0.10923232157E+03 -0.28501170911E+03  0.36098165815E+03  0.00000000000E+00 0. -1.
<mgrwt>
<rscale>  3 0.51984373E+03</rscale>
<asrwt>0</asrwt>
<pdfrwt beam="1">  1        2 0.18384918E+00 0.51984373E+03</pdfrwt>
<pdfrwt beam="2">  1       -2 0.86975557E-02 0.51984373E+03</pdfrwt>
<totfact> 0.16595618E+03</totfact>
</mgrwt>
</event>
<event>
 4    0  0.1264838E-002  0.1133478E+04  0.7546771E-02  0.9173162E-01
         -2   -1    0    0    0  501 -0.00000000000E+00  0.00000000000E+00  0.29066255116E+03  0.29066255116E+03  0.00000000000E+00 0. -1.
          2   -1    0    0  502    0  0.00000000000E+00 -0.00000000000E+00 -0.11050380682E+04  0.11050380682E+04  0.00000000000E+00 0.  1.
         25    1    1    2    0    0 -0.12861800020E+03 -0.47427672378E+03 -0.74242270489E+03  0.89905365437E+03  0.12500000000E+03 0.  0.
         21    1    1    2  502  501  0.12861800020E+03  0.47427672378E+03 -0.71952812189E+02  0.49664696503E+03  0.00000000000E+00 0.  1.
<mgrwt>
<rscale>  3 0.11334782E+04</rscale>
<asrwt>0</asrwt>
<pdfrwt beam="1">  1        2 0.17000586E+00 0.11334782E+04</pdfrwt>
<pdfrwt beam="2">  1       -2 0.44717315E-01 0.11334782E+04</pdfrwt>
<totfact> 0.10159931E+02</totfact>
</mgrwt>
</event>
<event>
 4    0  0.1264838E-002  0.6876771E+03  0.7546771E-02  0.9738541E-01
         -2   -1    0    0    0  501 -0.00000000000E+00  0.00000000000E+00  0.16931616327E+03  0.16931616327E+03  0.00000000000E+00 0.  1.
          2   -1    0    0  502    0  0.00000000000E+00 -0.00000000000E+00 -0.69824968778E+03  0.69824968778E+03  0.00000000000E+00 0. -1.
         25    1    1    2    0    0 -0.31359634426E+03 -0.60108329367E+02 -0.15630633700E+03  0.37684525920E+03  0.12500000000E+03 0.  0.
         21    1    1    2  502  501  0.31359634426E+03  0.60108329367E+02 -0.37262718751E+03  0.49072059185E+03  0.00000000000E+00 0. -1.
<mgrwt>
<rscale>  3 0.68767713E+03</rscale>
<asrwt>0</asrwt>
<pdfrwt beam="1">  1        2 0.10742303E+00 0.68767713E+03</pdfrwt>
<pdfrwt beam="2">  1       -2 0.26048641E-01 0.68767713E+03</pdfrwt>
<totfact> 0.54999879E+02</totfact>
</mgrwt>
</event>
<event>
 4    0  0.1264838E-002  0.5493613E+03  0.7546771E-02  0.1001642E+00
         -1   -1    0    0    0  501 -0.00000000000E+00  0.00000000000E+00  0.15039826859E+03  0.15039826859E+03  0.00000000000E+00 0. -1.
          1   -1    0    0  502    0  0.00000000000E+00 -0.00000000000E+00 -0.50166442786E+03  0.50166442786E+03  0.00000000000E+00 0.  1.
         25    1    1    2    0    0 -0.11783143695E+03  0.17927267906E+03 -0.36004209208E+03  0.43735368875E+03  0.12500000000E+03 0.  0.
         21    1    1    2  502  501  0.11783143695E+03 -0.17927267906E+03  0.87759328106E+01  0.21470900770E+03  0.00000000000E+00 0.  1.
<mgrwt>
<rscale>  3 0.54936131E+03</rscale>
<asrwt>0</asrwt>
<pdfrwt beam="1">  1        1 0.77179142E-01 0.54936131E+03</pdfrwt>
<pdfrwt beam="2">  1       -1 0.23138195E-01 0.54936131E+03</pdfrwt>
<totfact> 0.71069869E+02</totfact>
</mgrwt>
</event>
<event>
 4    0  0.1264838E-002  0.4563304E+03  0.7546771E-02  0.1025851E+00
         -1   -1    0    0    0  501 -0.00000000000E+00  0.00000000000E+00  0.11058235862E+03  0.11058235862E+03  0.00000000000E+00 0. -1.
          1   -1    0    0  502    0  0.00000000000E+00 -0.00000000000E+00 -0.47077451655E+03  0.47077451655E+03  0.00000000000E+00 0.  1.
         25    1    1    2    0    0  0.10494346050E+03 -0.18266589620E+03 -0.17749473341E+03  0.30250510727E+03  0.12500000000E+03 0.  0.
         21    1    1    2  502  501 -0.10494346050E+03  0.18266589620E+03 -0.18269742452E+03  0.27885176790E+03  0.00000000000E+00 0.  1.
<mgrwt>
<rscale>  3 0.45633039E+03</rscale>
<asrwt>0</asrwt>
<pdfrwt beam="1">  1        1 0.72426850E-01 0.45633039E+03</pdfrwt>
<pdfrwt beam="2">  1       -1 0.17012670E-01 0.45633039E+03</pdfrwt>
<totfact> 0.12885386E+03</totfact>
</mgrwt>
</event>
<event>
 4    0  0.1264838E-002  0.4604161E+03  0.7546771E-02  0.1024661E+00
          4   -1    0    0  502    0  0.00000000000E+00  0.00000000000E+00  0.37325723586E+03  0.37325723586E+03  0.00000000000E+00 0.  1.
         -4   -1    0    0    0  501 -0.00000000000E+00 -0.00000000000E+00 -0.14198186042E+03  0.14198186042E+03  0.00000000000E+00 0. -1.
         25    1    1    2    0    0 -0.34339033968E+02 -0.20070661900E+03  0.53306440322E+02  0.24480378417E+03  0.12500000000E+03 0.  0.
         21    1    1    2  502  501  0.34339033968E+02  0.20070661900E+03  0.17796893512E+03  0.27043531210E+03  0.00000000000E+00 0.  1.
<mgrwt>
<rscale>  3 0.46041615E+03</rscale>
<asrwt>0</asrwt>
<pdfrwt beam="1">  1        4 0.57424190E-01 0.46041615E+03</pdfrwt>
<pdfrwt beam="2">  1       -4 0.21843363E-01 0.46041615E+03</pdfrwt>
<totfact> 0.10924979E+02</totfact>
</mgrwt>
</event>
<event>
 4    0  0.1264838E-002  0.5759059E+03  0.7546771E-02  0.9956694E-01
          1   -1    0    0  502    0  0.00000000000E+00  0.00000000000E+00  0.11346645956E+04  0.11346645956E+04  0.00000000000E+00 0. -1.
         -1   -1    0    0    0  501 -0.00000000000E+00 -0.00000000000E+00 -0.73076129257E+02  0.73076129257E+02  0.00000000000E+00 0.  1.
         25    1    1    2    0    0  0.15188778812E+03  0.15431996309E+03  0.90923631559E+03  0.94298474472E+03  0.12500000000E+03 0.  0.
         21    1    1    2  502  501 -0.15188778812E+03 -0.15431996309E+03  0.15235215079E+03  0.26475598017E+03  0.00000000000E+00 0.  1.
<mgrwt>
<rscale>  3 0.57590588E+03</rscale>
<asrwt>0</asrwt>
<pdfrwt beam="1">  1        1 0.17456377E+00 0.57590588E+03</pdfrwt>
<pdfrwt beam="2">  1       -1 0.11242482E-01 0.57590588E+03</pdfrwt>
<totfact> 0.63660704E+02</totfact>
</mgrwt>
</event>
<event>
 4    0  0.1264838E-002  0.4957757E+03  0.7546771E-02  0.1014887E+00
         -1   -1    0    0    0  501 -0.00000000000E+00  0.00000000000E+00  0.11085257402E+03  0.11085257402E+03  0.00000000000E+00 0.  1.
          1   -1    0    0  502    0  0.00000000000E+00 -0.00000000000E+00 -0.55432522272E+03  0.55432522272E+03  0.00000000000E+00 0. -1.
         25    1    1    2    0    0  0.19153259628E+03 -0.71979822696E+02 -0.38291934517E+03  0.45179426204E+03  0.12500000000E+03 0.  0.
         21    1    1    2  502  501 -0.19153259628E+03  0.71979822696E+02 -0.60553303528E+02  0.21338353470E+03  0.00000000000E+00 0.  1.
<mgrwt>
<rscale>  3 0.49577567E+03</rscale>
<asrwt>0</asrwt>
<pdfrwt beam="1">  1        1 0.85280804E-01 0.49577567E+03</pdfrwt>
<pdfrwt beam="2">  1       -1 0.17054242E-01 0.49577567E+03</pdfrwt>
<totfact> 0.10269540E+03</totfact>
</mgrwt>
</event>
<event>
 4    0  0.1264838E-002  0.4630559E+03  0.7546771E-02  0.1023899E+00
         -2   -1    0    0    0  501 -0.00000000000E+00  0.00000000000E+00  0.11052656635E+03  0.11052656635E+03  0.00000000000E+00 0.  1.
          2   -1    0    0  502    0  0.00000000000E+00 -0.00000000000E+00 -0.48499817242E+03  0.48499817242E+03  0.00000000000E+00 0. -1.
         25    1    1    2    0    0  0.11644237463E+03  0.17169966507E+03 -0.12999696497E+03  0.27488872748E+03  0.12500000000E+03 0.  0.
         21    1    1    2  502  501 -0.11644237463E+03 -0.17169966507E+03 -0.24447464109E+03  0.32063601128E+03  0.00000000000E+00 0. -1.
<mgrwt>
<rscale>  3 0.46305586E+03</rscale>
<asrwt>0</asrwt>
<pdfrwt beam="1">  1        2 0.74615103E-01 0.46305586E+03</pdfrwt>
<pdfrwt beam="2">  1       -2 0.17004087E-01 0.46305586E+03</pdfrwt>
<totfact> 0.17975634E+03</totfact>
</mgrwt>
</event>
<event>
 4    0  0.1264838E-002  0.5150085E+03  0.7546771E-02  0.1009934E+00
         -2   -1    0    0    0  501 -0.00000000000E+00  0.00000000000E+00  0.31035281407E+02  0.31035281407E+02  0.00000000000E+00 0. -1.
          2   -1    0    0  502    0  0.00000000000E+00 -0.00000000000E+00 -0.21365499895E+04  0.21365499895E+04  0.00000000000E+00 0.  1.
         25    1    1    2    0    0 -0.51276935502E+02 -0.21883804406E+03 -0.14960559242E+04  0.15180012326E+04  0.12500000000E+03 0.  0.
         21    1    1    2  502  501  0.51276935502E+02  0.21883804406E+03 -0.60945878386E+03  0.64958403834E+03  0.00000000000E+00 0. -1.
<mgrwt>
<rscale>  3 0.51500847E+03</rscale>
<asrwt>0</asrwt>
<pdfrwt beam="1">  1        2 0.32870004E+00 0.51500847E+03</pdfrwt>
<pdfrwt beam="2">  1       -2 0.47746581E-02 0.51500847E+03</pdfrwt>
<totfact> 0.12951399E+03</totfact>
</mgrwt>
</event>
<event>
 4    0  0.1264838E-002  0.6366705E+03  0.7546771E-02  0.9832118E-01
          1   -1    0    0  502    0  0.00000000000E+00  0.00000000000E+00  0.82758631412E+03  0.82758631412E+03  0.00000000000E+00 0. -1.
         -1   -1    0    0    0  501 -0.00000000000E+00 -0.00000000000E+00 -0.12244926260E+03  0.12244926260E+03  0.00000000000E+00 0.  1.
         25    1    1    2    0    0 -0.11445791528E+02 -0.26205056613E+03  0.60149971727E+03  0.66800330480E+03  0.12500000000E+03 0.  0.
         21    1    1    2  502  501  0.11445791528E+02  0.26205056613E+03  0.10363733425E+03  0.28203227192E+03  0.00000000000E+00 0.  1.
<mgrwt>
<rscale>  3 0.63667051E+03</rscale>
<asrwt>0</asrwt>
<pdfrwt beam="1">  1        1 0.12732097E+00 0.63667051E+03</pdfrwt>
<pdfrwt beam="2">  1       -1 0.18838349E-01 0.63667051E+03</pdfrwt>
<totfact> 0.47847435E+02</totfact>
</mgrwt>
</event>
<event>
 4    0  0.1264838E-002  0.6365085E+03  0.7546771E-02  0.9832430E-01
         -2   -1    0    0    0  501 -0.00000000000E+00  0.00000000000E+00  0.84631103620E+02  0.84631103620E+02  0.00000000000E+00 0.  1.
          2   -1    0    0  502    0  0.00000000000E+00 -0.00000000000E+00 -0.11967911140E+04  0.11967911140E+04  0.00000000000E+00 0. -1.
         25    1    1    2    0    0  0.13981722595E+03 -0.26848736751E+03 -0.48772768815E+03  0.58748414529E+03  0.12500000000E+03 0.  0.
         21    1    1    2  502  501 -0.13981722595E+03  0.26848736751E+03 -0.62443232225E+03  0.69393807235E+03  0.00000000000E+00 0. -1.
<mgrwt>
<rscale>  3 0.63650845E+03</rscale>
<asrwt>0</asrwt>
<pdfrwt beam="1">  1        2 0.18412170E+00 0.63650845E+03</pdfrwt>
<pdfrwt beam="2">  1       -2 0.13020171E-01 0.63650845E+03</pdfrwt>
<totfact> 0.85490265E+02</totfact>
</mgrwt>
</event>
<event>
 4    0  0.1264838E-002  0.4733813E+03  0.7546771E-02  0.1020970E+00
         -1   -1    0    0    0  501 -0.00000000000E+00  0.00000000000E+00  0.16991352855E+03  0.16991352855E+03  0.00000000000E+00 0.  1.
          1   -1    0    0  502    0  0.00000000000E+00 -0.00000000000E+00 -0.32971164554E+03  0.32971164554E+03  0.00000000000E+00 0. -1.
         25    1    1    2    0    0 -0.20655964228E+03 -0.71275236457E+02 -0.11408973014E+03  0.27638471679E+03  0.12500000000E+03 0.  0.
         21    1    1    2  502  501  0.20655964228E+03  0.71275236457E+02 -0.45708386837E+02  0.22324045730E+03  0.00000000000E+00 0. -1.
<mgrwt>
<rscale>  3 0.47338132E+03</rscale>
<asrwt>0</asrwt>
<pdfrwt beam="1">  1        1 0.50724867E-01 0.47338132E+03</pdfrwt>
<pdfrwt beam="2">  1       -1 0.26140543E-01 0.47338132E+03</pdfrwt>
<totfact> 0.10068153E+03</totfact>
</mgrwt>
</event>
<event>
 4    0  0.1264838E-002  0.1454489E+04  0.7546771E-02  0.8915294E-01
          1   -1    0    0  502    0  0.00000000000E+00  0.00000000000E+00  0.46531907622E+03  0.46531907622E+03  0.00000000000E+00 0.  1.
         -1   -1    0    0    0  501 -0.00000000000E+00 -0.00000000000E+00 -0.11366058502E+04  0.11366058502E+04  0.00000000000E+00 0. -1.
         25    1    1    2    0    0 -0.55211388375E+03  0.31534312801E+03 -0.71457337318E+03  0.96463005067E+03  0.12500000000E+03 0.  0.
         21    1    1    2  502  501  0.55211388375E+03 -0.31534312801E+03  0.43286599180E+02  0.63729487576E+03  0.00000000000E+00 0.  1.
<mgrwt>
<rscale>  3 0.14544888E+04</rscale>
<asrwt>0</asrwt>
<pdfrwt beam="1">  1        1 0.71587551E-01 0.14544888E+04</pdfrwt>
<pdfrwt beam="2">  1       -1 0.17486244E+00 0.14544888E+04</pdfrwt>
<totfact> 0.10767263E+01</totfact>
</mgrwt>
</event>
<event>
 4    0  0.1264838E-002  0.5824162E+03  0.7546771E-02  0.9942574E-01
         -2   -1    0    0    0  501 -0.00000000000E+00  0.00000000000E+00  0.69880172084E+02  0.69880172084E+02  0.00000000000E+00 0. -1.
          2   -1    0    0  502    0  0.00000000000E+00 -0.00000000000E+00 -0.12135367803E+04  0.12135367803E+04  0.00000000000E+00 0.  1.
         25    1    1    2    0    0  0.42951251770E+02 -0.23930104420E+03 -0.30203282586E+03  0.40738020040E+03  0.12500000000E+03 0.  0.
         21    1    1    2  502  501 -0.42951251770E+02  0.23930104420E+03 -0.84162378236E+03  0.87603675198E+03  0.00000000000E+00 0.  1.
<mgrwt>
<rscale>  3 0.58241621E+03</rscale>
<asrwt>0</asrwt>
<pdfrwt beam="1">  1        2 0.18669794E+00 0.58241621E+03</pdfrwt>
<pdfrwt beam="2">  1       -2 0.10750797E-01 0.58241621E+03</pdfrwt>
<totfact> 0.11476542E+03</totfact>
</mgrwt>
</event>
<event>
 4    0  0.1264838E-002  0.6070904E+03  0.7546771E-02  0.9890804E-01
         -4   -1    0    0    0  501 -0.00000000000E+00  0.00000000000E+00  0.20533451790E+03  0.20533451790E+03  0.00000000000E+00 0.  1.
          4   -1    0    0  502    0  0.00000000000E+00 -0.00000000000E+00 -0.44872964711E+03  0.44872964711E+03  0.00000000000E+00 0. -1.
         25    1    1    2    0    0  0.24275769251E+03 -0.15203245258E+03 -0.73555396691E+02  0.32106161448E+03  0.12500000000E+03 0.  0.
         21    1    1    2  502  501 -0.24275769251E+03  0.15203245258E+03 -0.16983973251E+03  0.33300255052E+03  0.00000000000E+00 0. -1.
<mgrwt>
<rscale>  3 0.60709039E+03</rscale>
<asrwt>0</asrwt>
<pdfrwt beam="1">  1        4 0.69035330E-01 0.60709039E+03</pdfrwt>
<pdfrwt beam="2">  1       -4 0.31589926E-01 0.60709039E+03</pdfrwt>
<totfact> 0.37062117E+01</totfact>
</mgrwt>
</event>
<event>
 4    0  0.1264838E-002  0.5448504E+03  0.7546771E-02  0.1002693E+00
         -2   -1    0    0    0  501 -0.00000000000E+00  0.00000000000E+00  0.71808785620E+03  0.71808785620E+03  0.00000000000E+00 0.  1.
          2   -1    0    0  502    0  0.00000000000E+00 -0.00000000000E+00 -0.10335153723E+03  0.10335153723E+03  0.00000000000E+00 0. -1.
         25    1    1    2    0    0 -0.25525993554E+03  0.18483463396E+01  0.38090660467E+03  0.47526402405E+03  0.12500000000E+03 0.  0.
         21    1    1    2  502  501  0.25525993554E+03 -0.18483463396E+01  0.23382971430E+03  0.34617536938E+03  0.00000000000E+00 0. -1.
<mgrwt>
<rscale>  3 0.54485038E+03</rscale>
<asrwt>0</asrwt>
<pdfrwt beam="1">  1        2 0.15900237E-01 0.54485038E+03</pdfrwt>
<pdfrwt beam="2">  1       -2 0.11047505E+00 0.54485038E+03</pdfrwt>
<totfact> 0.24611358E+02</totfact>
</mgrwt>
</event>
<event>
 4    0  0.1264838E-002  0.4469782E+03  0.7546771E-02  0.1028627E+00
          2   -1    0    0  502    0  0.00000000000E+00  0.00000000000E+00  0.10988793732E+04  0.10988793732E+04  0.00000000000E+00 0.  1.
         -2   -1    0    0    0  501 -0.00000000000E+00 -0.00000000000E+00 -0.45453013303E+02  0.45453013303E+02  0.00000000000E+00 0. -1.
         25    1    1    2    0    0  0.17054379345E+03  0.11554590198E+03  0.56257552214E+03  0.61200674756E+03  0.12500000000E+03 0.  0.
         21    1    1    2  502  501 -0.17054379345E+03 -0.11554590198E+03  0.49085083777E+03  0.53232563896E+03  0.00000000000E+00 0.  1.
<mgrwt>
<rscale>  3 0.44697820E+03</rscale>
<asrwt>0</asrwt>
<pdfrwt beam="1">  1        2 0.16905835E+00 0.44697820E+03</pdfrwt>
<pdfrwt beam="2">  1       -2 0.69927721E-02 0.44697820E+03</pdfrwt>
<totfact> 0.26755559E+03</totfact>
</mgrwt>
</event>
<event>
 4    0  0.1264838E-002  0.4530832E+03  0.7546771E-02  0.1026807E+00
         -1   -1    0    0    0  501 -0.00000000000E+00  0.00000000000E+00  0.27552453584E+02  0.27552453584E+02  0.00000000000E+00 0.  1.
          1   -1    0    0  502    0  0.00000000000E+00 -0.00000000000E+00 -0.18626686318E+04  0.18626686318E+04  0.00000000000E+00 0. -1.
         25    1    1    2    0    0 -0.12612300772E+03  0.16448051143E+03 -0.86612009063E+03  0.89930521132E+03  0.12500000000E+03 0.  0.
         21    1    1    2  502  501  0.12612300772E+03 -0.16448051143E+03 -0.96899608760E+03  0.99091587408E+03  0.00000000000E+00 0. -1.
<mgrwt>
<rscale>  3 0.45308318E+03</rscale>
<asrwt>0</asrwt>
<pdfrwt beam="1">  1        1 0.28656446E+00 0.45308318E+03</pdfrwt>
<pdfrwt beam="2">  1       -1 0.42388382E-02 0.45308318E+03</pdfrwt>
<totfact> 0.92097835E+02</totfact>
</mgrwt>
</event>
<event>
 4    0  0.1264838E-002  0.4532985E+03  0.7546771E-02  0.1026743E+00
         -1   -1    0    0    0  501 -0.00000000000E+00  0.00000000000E+00  0.86211718179E+02  0.86211718179E+02  0.00000000000E+00 0. -1.
          1   -1    0    0  502    0  0.00000000000E+00 -0.00000000000E+00 -0.59585740376E+03  0.59585740376E+03  0.00000000000E+00 0.  1.
         25    1    1    2    0    0  0.15867678227E+03 -0.13636135358E+03 -0.28779950987E+03  0.37712902018E+03  0.12500000000E+03 0.  0.
         21    1    1    2  502  501 -0.15867678227E+03  0.13636135358E+03 -0.22184617571E+03  0.30494010176E+03  0.00000000000E+00 0.  1.
<mgrwt>
<rscale>  3 0.45329854E+03</rscale>
<asrwt>0</asrwt>
<pdfrwt beam="1">  1        1 0.91670371E-01 0.45329854E+03</pdfrwt>
<pdfrwt beam="2">  1       -1 0.13263341E-01 0.45329854E+03</pdfrwt>
<totfact> 0.13920667E+03</totfact>
</mgrwt>
</event>
<event>
 4    0  0.1325800E-002  0.5391159E+03  0.7546771E-02  0.1004045E+00
         -2   -1    0    0    0  501 -0.00000000000E+00  0.00000000000E+00  0.94804755712E+02  0.94804755712E+02  0.00000000000E+00 0.  1.
          2   -1    0    0  502    0  0.00000000000E+00 -0.00000000000E+00 -0.76643303215E+03  0.76643303215E+03  0.00000000000E+00 0. -1.
         25    1    1    2    0    0  0.21295912027E+03  0.39950105719E+02 -0.13887803859E+03  0.28611135499E+03  0.12500000000E+03 0.  0.
         21    1    1    2  502  501 -0.21295912027E+03 -0.39950105719E+02 -0.53275023785E+03  0.57512643287E+03  0.00000000000E+00 0. -1.
<mgrwt>
<rscale>  3 0.53911593E+03</rscale>
<asrwt>0</asrwt>
<pdfrwt beam="1">  1        2 0.11791277E+00 0.53911593E+03</pdfrwt>
<pdfrwt beam="2">  1       -2 0.14585347E-01 0.53911593E+03</pdfrwt>
<totfact> 0.13439322E+03</totfact>
</mgrwt>
</event>
<event>
 4    0  0.1264838E-002  0.5309261E+03  0.7546771E-02  0.1006008E+00
          1   -1    0    0  502    0  0.00000000000E+00  0.00000000000E+00  0.27390990866E+03  0.27390990866E+03  0.00000000000E+00 0.  1.
         -1   -1    0    0    0  501 -0.00000000000E+00 -0.00000000000E+00 -0.25727666190E+03  0.25727666190E+03  0.00000000000E+00 0. -1.
         25    1    1    2    0    0  0.20172119288E+03 -0.23568858363E+02 -0.13835820222E+03  0.27570803917E+03  0.12500000000E+03 0.  0.
         21    1    1    2  502  501 -0.20172119288E+03  0.23568858363E+02  0.15499144898E+03  0.25547853138E+03  0.00000000000E+00 0.  1.
<mgrwt>
<rscale>  3 0.53092609E+03</rscale>
<asrwt>0</asrwt>
<pdfrwt beam="1">  1        1 0.42139986E-01 0.53092609E+03</pdfrwt>
<pdfrwt beam="2">  1       -1 0.39581025E-01 0.53092609E+03</pdfrwt>
<totfact> 0.61853631E+02</totfact>
</mgrwt>
</event>
<event>
 4    0  0.1264838E-002  0.8548557E+03  0.7546771E-02  0.9483843E-01
         -1   -1    0    0    0  501 -0.00000000000E+00  0.00000000000E+00  0.24124077869E+03  0.24124077869E+03  0.00000000000E+00 0.  1.
          1   -1    0    0  502    0  0.00000000000E+00 -0.00000000000E+00 -0.75731220820E+03  0.75731220820E+03  0.00000000000E+00 0. -1.
         25    1    1    2    0    0 -0.31327041832E+03  0.26786352303E+03 -0.18032751624E+03  0.46693921990E+03  0.12500000000E+03 0.  0.
         21    1    1    2  502  501  0.31327041832E+03 -0.26786352303E+03 -0.33574391326E+03  0.53161376699E+03  0.00000000000E+00 0. -1.
<mgrwt>
<rscale>  3 0.85485575E+03</rscale>
<asrwt>0</asrwt>
<pdfrwt beam="1">  1        1 0.11650957E+00 0.85485575E+03</pdfrwt>
<pdfrwt beam="2">  1       -1 0.37113965E-01 0.85485575E+03</pdfrwt>
<totfact> 0.16982345E+02</totfact>
</mgrwt>
</event>
<event>
 4    0  0.1264838E-002  0.4630632E+03  0.7546771E-02  0.1023897E+00
         -1   -1    0    0    0  501 -0.00000000000E+00  0.00000000000E+00  0.59249589949E+02  0.59249589949E+02  0.00000000000E+00 0.  1.
          1   -1    0    0  502    0  0.00000000000E+00 -0.00000000000E+00 -0.90476385701E+03  0.90476385701E+03  0.00000000000E+00 0. -1.
         25    1    1    2    0    0 -0.10549353477E+03  0.17425221229E+03 -0.31257725913E+03  0.39347460184E+03  0.12500000000E+03 0.  0.
         21    1    1    2  502  501  0.10549353477E+03 -0.17425221229E+03 -0.53293700793E+03  0.57053884512E+03  0.00000000000E+00 0. -1.
<mgrwt>
<rscale>  3 0.46306322E+03</rscale>
<asrwt>0</asrwt>
<pdfrwt beam="1">  1        1 0.13919444E+00 0.46306322E+03</pdfrwt>
<pdfrwt beam="2">  1       -1 0.91153217E-02 0.46306322E+03</pdfrwt>
<totfact> 0.13307715E+03</totfact>
</mgrwt>
</event>
<event>
 4    0  0.1264838E-002  0.5235013E+03  0.7546771E-02  0.1007820E+00
         -2   -1    0    0    0  501 -0.00000000000E+00  0.00000000000E+00  0.15150145845E+03  0.15150145845E+03  0.00000000000E+00 0. -1.
          2   -1    0    0  502    0  0.00000000000E+00 -0.00000000000E+00 -0.45222934511E+03  0.45222934511E+03  0.00000000000E+00 0.  1.
         25    1    1    2    0    0  0.20693644091E+03  0.12233920144E+03 -0.22349905107E+03  0.35123552869E+03  0.12500000000E+03 0.  0.
         21    1    1    2  502  501 -0.20693644091E+03 -0.12233920144E+03 -0.77228835600E+02  0.25249527487E+03  0.00000000000E+00 0. -1.
<mgrwt>
<rscale>  3 0.52350131E+03</rscale>
<asrwt>0</asrwt>
<pdfrwt beam="1">  1        2 0.69573745E-01 0.52350131E+03</pdfrwt>
<pdfrwt beam="2">  1       -2 0.23307917E-01 0.52350131E+03</pdfrwt>
<totfact> 0.11262887E+03</totfact>
</mgrwt>
</event>
<event>
 4    0  0.1264838E-002  0.4488764E+03  0.7546771E-02  0.1028058E+00
          3   -1    0    0  502    0  0.00000000000E+00  0.00000000000E+00  0.14655855941E+03  0.14655855941E+03  0.00000000000E+00 0. -1.
         -3   -1    0    0    0  501 -0.00000000000E+00 -0.00000000000E+00 -0.34370220541E+03  0.34370220541E+03  0.00000000000E+00 0.  1.
         25    1    1    2    0    0 -0.20321100768E+03  0.37704777435E+02 -0.11943791828E+03  0.26945645326E+03  0.12500000000E+03 0.  0.
         21    1    1    2  502  501  0.20321100768E+03 -0.37704777435E+02 -0.77705727711E+02  0.22080431155E+03  0.00000000000E+00 0. -1.
<mgrwt>
<rscale>  3 0.44887638E+03</rscale>
<asrwt>0</asrwt>
<pdfrwt beam="1">  1        3 0.22547471E-01 0.44887638E+03</pdfrwt>
<pdfrwt beam="2">  1       -3 0.52877262E-01 0.44887638E+03</pdfrwt>
<totfact> 0.16876391E+02</totfact>
</mgrwt>
</event>
<event>
 4    0  0.1264838E-002  0.5602891E+03  0.7546771E-02  0.9991401E-01
          2   -1    0    0  502    0  0.00000000000E+00  0.00000000000E+00  0.27881143729E+04  0.27881143729E+04  0.00000000000E+00 0. -1.
         -2   -1    0    0    0  501 -0.00000000000E+00 -0.00000000000E+00 -0.28148402941E+02  0.28148402941E+02  0.00000000000E+00 0.  1.
         25    1    1    2    0    0  0.10037271941E+03  0.19881274456E+03  0.21815950134E+04  0.21964933400E+04  0.12500000000E+03 0.  0.
         21    1    1    2  502  501 -0.10037271941E+03 -0.19881274456E+03  0.57837095657E+03  0.61976943584E+03  0.00000000000E+00 0.  1.
<mgrwt>
<rscale>  3 0.56028909E+03</rscale>
<asrwt>0</asrwt>
<pdfrwt beam="1">  1        2 0.42894045E+00 0.56028909E+03</pdfrwt>
<pdfrwt beam="2">  1       -2 0.43305257E-02 0.56028909E+03</pdfrwt>
<totfact> 0.64706474E+02</totfact>
</mgrwt>
</event>
<event>
 4    0  0.1264838E-002  0.5394247E+03  0.7546771E-02  0.1003972E+00
         -2   -1    0    0    0  501 -0.00000000000E+00  0.00000000000E+00  0.41006244201E+02  0.41006244201E+02  0.00000000000E+00 0. -1.
          2   -1    0    0  502    0  0.00000000000E+00 -0.00000000000E+00 -0.17739923628E+04  0.17739923628E+04  0.00000000000E+00 0.  1.
         25    1    1    2    0    0 -0.16419572269E+03  0.13186008746E+03 -0.13982231508E+04  0.14195070614E+04  0.12500000000E+03 0.  0.
         21    1    1    2  502  501  0.16419572269E+03 -0.13186008746E+03 -0.33476296787E+03  0.39549154564E+03  0.00000000000E+00 0. -1.
<mgrwt>
<rscale>  3 0.53942475E+03</rscale>
<asrwt>0</asrwt>
<pdfrwt beam="1">  1        2 0.27292191E+00 0.53942475E+03</pdfrwt>
<pdfrwt beam="2">  1       -2 0.63086528E-02 0.53942475E+03</pdfrwt>
<totfact> 0.13157541E+03</totfact>
</mgrwt>
</event>
<event>
 4    0  0.1264838E-002  0.1243877E+04  0.7546771E-02  0.9075295E-01
          2   -1    0    0  502    0  0.00000000000E+00  0.00000000000E+00  0.17544728394E+04  0.17544728394E+04  0.00000000000E+00 0.  1.
         -2   -1    0    0    0  501 -0.00000000000E+00 -0.00000000000E+00 -0.22046937416E+03  0.22046937416E+03  0.00000000000E+00 0. -1.
         25    1    1    2    0    0 -0.17147943516E+03 -0.40566120113E+03  0.91712506116E+02  0.46690726120E+03  0.12500000000E+03 0.  0.
         21    1    1    2  502  501  0.17147943516E+03  0.40566120113E+03  0.14422909591E+04  0.15080349524E+04  0.00000000000E+00 0.  1.
<mgrwt>
<rscale>  3 0.12438771E+04</rscale>
<asrwt>0</asrwt>
<pdfrwt beam="1">  1        2 0.26991889E+00 0.12438771E+04</pdfrwt>
<pdfrwt beam="2">  1       -2 0.33918366E-01 0.12438771E+04</pdfrwt>
<totfact> 0.73199572E+01</totfact>
</mgrwt>
</event>
<event>
 4    0  0.1264838E-002  0.5315951E+03  0.7546771E-02  0.1005846E+00
          2   -1    0    0  502    0  0.00000000000E+00  0.00000000000E+00  0.37457511576E+03  0.37457511576E+03  0.00000000000E+00 0.  1.
         -2   -1    0    0    0  501 -0.00000000000E+00 -0.00000000000E+00 -0.18860927828E+03  0.18860927828E+03  0.00000000000E+00 0. -1.
         25    1    1    2    0    0  0.14198295604E+03  0.19680111943E+03  0.29777020272E+02  0.27459335635E+03  0.12500000000E+03 0.  0.
         21    1    1    2  502  501 -0.14198295604E+03 -0.19680111943E+03  0.15618881721E+03  0.28859103769E+03  0.00000000000E+00 0.  1.
<mgrwt>
<rscale>  3 0.53159512E+03</rscale>
<asrwt>0</asrwt>
<pdfrwt beam="1">  1        2 0.57626941E-01 0.53159512E+03</pdfrwt>
<pdfrwt beam="2">  1       -2 0.29016812E-01 0.53159512E+03</pdfrwt>
<totfact> 0.93660511E+02</totfact>
</mgrwt>
</event>
<event>
 4    0  0.1264838E-002  0.4954676E+03  0.7546771E-02  0.1014969E+00
         -1   -1    0    0    0  501 -0.00000000000E+00  0.00000000000E+00  0.20192905047E+03  0.20192905047E+03  0.00000000000E+00 0.  1.
          1   -1    0    0  502    0  0.00000000000E+00 -0.00000000000E+00 -0.30392874858E+03  0.30392874858E+03  0.00000000000E+00 0. -1.
         25    1    1    2    0    0 -0.21049321222E+03 -0.94626846437E+02 -0.78114342758E+02  0.27384025088E+03  0.12500000000E+03 0.  0.
         21    1    1    2  502  501  0.21049321222E+03  0.94626846437E+02 -0.23885355349E+02  0.23201754817E+03  0.00000000000E+00 0.  1.
<mgrwt>
<rscale>  3 0.49546763E+03</rscale>
<asrwt>0</asrwt>
<pdfrwt beam="1">  1        1 0.46758269E-01 0.49546763E+03</pdfrwt>
<pdfrwt beam="2">  1       -1 0.31066008E-01 0.49546763E+03</pdfrwt>
<totfact> 0.83112791E+02</totfact>
</mgrwt>
</event>
<event>
 4    0  0.1264838E-002  0.6738319E+03  0.7546771E-02  0.9763060E-01
          1   -1    0    0  502    0  0.00000000000E+00  0.00000000000E+00  0.12503685070E+03  0.12503685070E+03  0.00000000000E+00 0.  1.
         -1   -1    0    0    0  501 -0.00000000000E+00 -0.00000000000E+00 -0.90783115518E+03  0.90783115518E+03  0.00000000000E+00 0. -1.
         25    1    1    2    0    0  0.34816636279E+02 -0.31792186822E+03 -0.49616604977E+03  0.60340058120E+03  0.12500000000E+03 0.  0.
         21    1    1    2  502  501 -0.34816636279E+02  0.31792186822E+03 -0.28662825471E+03  0.42946742467E+03  0.00000000000E+00 0. -1.
<mgrwt>
<rscale>  3 0.67383187E+03</rscale>
<asrwt>0</asrwt>
<pdfrwt beam="1">  1        1 0.19236439E-01 0.67383187E+03</pdfrwt>
<pdfrwt beam="2">  1       -1 0.13966633E+00 0.67383187E+03</pdfrwt>
<totfact> 0.11882253E+02</totfact>
</mgrwt>
</event>
<event>
 4    0  0.1264838E-002  0.5073733E+03  0.7546771E-02  0.1011872E+00
          2   -1    0    0  502    0  0.00000000000E+00  0.00000000000E+00  0.77818325500E+02  0.77818325500E+02  0.00000000000E+00 0. -1.
         -2   -1    0    0    0  501 -0.00000000000E+00 -0.00000000000E+00 -0.82701492834E+03  0.82701492834E+03  0.00000000000E+00 0.  1.
         25    1    1    2    0    0  0.12615855010E+03  0.17376190190E+03 -0.21310079293E+03  0.32733182898E+03  0.12500000000E+03 0.  0.
         21    1    1    2  502  501 -0.12615855010E+03 -0.17376190190E+03 -0.53609580991E+03  0.57750142486E+03  0.00000000000E+00 0.  1.
<mgrwt>
<rscale>  3 0.50737330E+03</rscale>
<asrwt>0</asrwt>
<pdfrwt beam="1">  1        2 0.11972051E-01 0.50737330E+03</pdfrwt>
<pdfrwt beam="2">  1       -2 0.12723306E+00 0.50737330E+03</pdfrwt>
<totfact> 0.24638708E+02</totfact>
</mgrwt>
</event>
<event>
 4    0  0.1264838E-002  0.4945291E+03  0.7546771E-02  0.1015217E+00
          2   -1    0    0  502    0  0.00000000000E+00  0.00000000000E+00  0.82733426594E+03  0.82733426594E+03  0.00000000000E+00 0. -1.
         -2   -1    0    0    0  501 -0.00000000000E+00 -0.00000000000E+00 -0.73899705224E+02  0.73899705224E+02  0.00000000000E+00 0.  1.
         25    1    1    2    0    0 -0.12113247718E+03  0.16331472848E+03  0.60234177345E+03  0.64790847317E+03  0.12500000000E+03 0.  0.
         21    1    1    2  502  501  0.12113247718E+03 -0.16331472848E+03  0.15109278726E+03  0.25332549798E+03  0.00000000000E+00 0.  1.
<mgrwt>
<rscale>  3 0.49452910E+03</rscale>
<asrwt>0</asrwt>
<pdfrwt beam="1">  1        2 0.12728219E+00 0.49452910E+03</pdfrwt>
<pdfrwt beam="2">  1       -2 0.11369186E-01 0.49452910E+03</pdfrwt>
<totfact> 0.18367021E+03</totfact>
</mgrwt>
</event>
<event>
 4    0  0.1264838E-002  0.4407475E+03  0.7546771E-02  0.1030518E+00
          1   -1    0    0  502    0  0.00000000000E+00  0.00000000000E+00  0.36853661328E+03  0.36853661328E+03  0.00000000000E+00 0.  1.
         -1   -1    0    0    0  501 -0.00000000000E+00 -0.00000000000E+00 -0.13177685806E+03  0.13177685806E+03  0.00000000000E+00 0. -1.
         25    1    1    2    0    0 -0.11797896816E+03 -0.16312331022E+03  0.10157109275E+03  0.25781764514E+03  0.12500000000E+03 0.  0.
         21    1    1    2  502  501  0.11797896816E+03  0.16312331022E+03  0.13518866247E+03  0.24249582620E+03  0.00000000000E+00 0. -1.
<mgrwt>
<rscale>  3 0.44074753E+03</rscale>
<asrwt>0</asrwt>
<pdfrwt beam="1">  1        1 0.56697940E-01 0.44074753E+03</pdfrwt>
<pdfrwt beam="2">  1       -1 0.20273363E-01 0.44074753E+03</pdfrwt>
<totfact> 0.13339491E+03</totfact>
</mgrwt>
</event>
<event>
 4    0  0.1264838E-002  0.4985949E+03  0.7546771E-02  0.1014146E+00
         -2   -1    0    0    0  501 -0.00000000000E+00  0.00000000000E+00  0.19264419741E+03  0.19264419741E+03  0.00000000000E+00 0. -1.
          2   -1    0    0  502    0  0.00000000000E+00 -0.00000000000E+00 -0.32261143204E+03  0.32261143204E+03  0.00000000000E+00 0.  1.
         25    1    1    2    0    0  0.19460798472E+03 -0.57949363072E+02  0.50343305724E+02  0.24370031766E+03  0.12500000000E+03 0.  0.
         21    1    1    2  502  501 -0.19460798472E+03  0.57949363072E+02 -0.18031054035E+03  0.27155531178E+03  0.00000000000E+00 0.  1.
<mgrwt>
<rscale>  3 0.49859491E+03</rscale>
<asrwt>0</asrwt>
<pdfrwt beam="1">  1        2 0.49632528E-01 0.49859491E+03</pdfrwt>
<pdfrwt beam="2">  1       -2 0.29637569E-01 0.49859491E+03</pdfrwt>
<totfact> 0.10625541E+03</totfact>
</mgrwt>
</event>
<event>
 4    0  0.1264838E-002  0.5842939E+03  0.7546771E-02  0.9938538E-01
          2   -1    0    0  502    0  0.00000000000E+00  0.00000000000E+00  0.24738746086E+04  0.24738746086E+04  0.00000000000E+00 0.  1.
         -2   -1    0    0    0  501 -0.00000000000E+00 -0.00000000000E+00 -0.34500472776E+02  0.34500472776E+02  0.00000000000E+00 0. -1.
         25    1    1    2    0    0  0.27837868283E+03  0.13582477906E+02  0.13016041277E+04  0.13369657737E+04  0.12500000000E+03 0.  0.
         21    1    1    2  502  501 -0.27837868283E+03 -0.13582477906E+02  0.11377700082E+04  0.11714093077E+04  0.00000000000E+00 0.  1.
<mgrwt>
<rscale>  3 0.58429391E+03</rscale>
<asrwt>0</asrwt>
<pdfrwt beam="1">  1        2 0.38059596E+00 0.58429391E+03</pdfrwt>
<pdfrwt beam="2">  1       -2 0.53077670E-02 0.58429391E+03</pdfrwt>
<totfact> 0.71285882E+02</totfact>
</mgrwt>
</event>
<event>
 4    0  0.1264838E-002  0.5072305E+03  0.7546771E-02  0.1011909E+00
         -2   -1    0    0    0  501 -0.00000000000E+00  0.00000000000E+00  0.12372556513E+03  0.12372556513E+03  0.00000000000E+00 0.  1.
          2   -1    0    0  502    0  0.00000000000E+00 -0.00000000000E+00 -0.51986583753E+03  0.51986583753E+03  0.00000000000E+00 0. -1.
         25    1    1    2    0    0  0.14964216991E+03  0.15115309404E+03 -0.34619828036E+03  0.42510973428E+03  0.12500000000E+03 0.  0.
         21    1    1    2  502  501 -0.14964216991E+03 -0.15115309404E+03 -0.49941992043E+02  0.21848166839E+03  0.00000000000E+00 0.  1.
<mgrwt>
<rscale>  3 0.50723050E+03</rscale>
<asrwt>0</asrwt>
<pdfrwt beam="1">  1        2 0.79979358E-01 0.50723050E+03</pdfrwt>
<pdfrwt beam="2">  1       -2 0.19034703E-01 0.50723050E+03</pdfrwt>
<totfact> 0.13690716E+03</totfact>
</mgrwt>
</event>
<event>
 4    0  0.1264838E-002  0.5205291E+03  0.7546771E-02  0.1008555E+00
         -2   -1    0    0    0  501 -0.00000000000E+00  0.00000000000E+00  0.12073874852E+03  0.12073874852E+03  0.00000000000E+00 0.  1.
          2   -1    0    0  502    0  0.00000000000E+00 -0.00000000000E+00 -0.56102640516E+03  0.56102640516E+03  0.00000000000E+00 0. -1.
         25    1    1    2    0    0  0.13382490710E+03 -0.20355666399E+03 -0.27002230779E+03  0.38455359564E+03  0.12500000000E+03 0.  0.
         21    1    1    2  502  501 -0.13382490710E+03  0.20355666399E+03 -0.17026534885E+03  0.29721155804E+03  0.00000000000E+00 0.  1.
<mgrwt>
<rscale>  3 0.52052906E+03</rscale>
<asrwt>0</asrwt>
<pdfrwt beam="1">  1        2 0.86311753E-01 0.52052906E+03</pdfrwt>
<pdfrwt beam="2">  1       -2 0.18575192E-01 0.52052906E+03</pdfrwt>
<totfact> 0.13067423E+03</totfact>
</mgrwt>
</event>
<event>
 4    0  0.1264838E-002  0.5055813E+03  0.7546771E-02  0.1012332E+00
         -3   -1    0    0    0  501 -0.00000000000E+00  0.00000000000E+00  0.33535540474E+02  0.33535540474E+02  0.00000000000E+00 0.  1.
          3   -1    0    0  502    0  0.00000000000E+00 -0.00000000000E+00 -0.19055341825E+04  0.19055341825E+04  0.00000000000E+00 0. -1.
         25    1    1    2    0    0  0.23388436172E+03 -0.52132212761E+01 -0.83978606753E+03  0.88067855177E+03  0.12500000000E+03 0.  0.
         21    1    1    2  502  501 -0.23388436172E+03  0.52132212761E+01 -0.10322125745E+04  0.10583911712E+04  0.00000000000E+00 0. -1.
<mgrwt>
<rscale>  3 0.50558132E+03</rscale>
<asrwt>0</asrwt>
<pdfrwt beam="1">  1        3 0.29315914E+00 0.50558132E+03</pdfrwt>
<pdfrwt beam="2">  1       -3 0.51593133E-02 0.50558132E+03</pdfrwt>
<totfact> 0.26516323E+01</totfact>
</mgrwt>
</event>
<event>
 4    0  0.1264838E-002  0.4543853E+03  0.7546771E-02  0.1026422E+00
          3   -1    0    0  502    0  0.00000000000E+00  0.00000000000E+00  0.12684985490E+03  0.12684985490E+03  0.00000000000E+00 0.  1.
         -3   -1    0    0    0  501 -0.00000000000E+00 -0.00000000000E+00 -0.40691011765E+03  0.40691011765E+03  0.00000000000E+00 0. -1.
         25    1    1    2    0    0  0.67252231211E+02  0.19733919133E+03 -0.12104980248E+03  0.27155786440E+03  0.12500000000E+03 0.  0.
         21    1    1    2  502  501 -0.67252231211E+02 -0.19733919133E+03 -0.15901046028E+03  0.26220210815E+03  0.00000000000E+00 0. -1.
<mgrwt>
<rscale>  3 0.45438525E+03</rscale>
<asrwt>0</asrwt>
<pdfrwt beam="1">  1        3 0.19515362E-01 0.45438525E+03</pdfrwt>
<pdfrwt beam="2">  1       -3 0.62601557E-01 0.45438525E+03</pdfrwt>
<totfact> 0.15414283E+02</totfact>
</mgrwt>
</event>
<event>
 4    0  0.1264838E-002  0.5558047E+03  0.7546771E-02  0.1000159E+00
          2   -1    0    0  502    0  0.00000000000E+00  0.00000000000E+00  0.85326891835E+03  0.85326891835E+03  0.00000000000E+00 0. -1.
         -2   -1    0    0    0  501 -0.00000000000E+00 -0.00000000000E+00 -0.90510396209E+02  0.90510396209E+02  0.00000000000E+00 0.  1.
         25    1    1    2    0    0  0.18894887469E+03 -0.11759840066E+03  0.64131070135E+03  0.69024305628E+03  0.12500000000E+03 0.  0.
         21    1    1    2  502  501 -0.18894887469E+03  0.11759840066E+03  0.12144782079E+03  0.25353625827E+03  0.00000000000E+00 0.  1.
<mgrwt>
<rscale>  3 0.55580467E+03</rscale>
<asrwt>0</asrwt>
<pdfrwt beam="1">  1        2 0.13127214E+00 0.55580467E+03</pdfrwt>
<pdfrwt beam="2">  1       -2 0.13924677E-01 0.55580467E+03</pdfrwt>
<totfact> 0.12605704E+03</totfact>
</mgrwt>
</event>
<event>
 4    0  0.1264838E-002  0.4596115E+03  0.7546771E-02  0.1024894E+00
         -1   -1    0    0    0  501 -0.00000000000E+00  0.00000000000E+00  0.52807000811E+03  0.52807000811E+03  0.00000000000E+00 0.  1.
          1   -1    0    0  502    0  0.00000000000E+00 -0.00000000000E+00 -0.10000697207E+03  0.10000697207E+03  0.00000000000E+00 0. -1.
         25    1    1    2    0    0  0.11293062787E+03  0.17892617187E+03  0.19872445712E+03  0.31604479358E+03  0.12500000000E+03 0.  0.
         21    1    1    2  502  501 -0.11293062787E+03 -0.17892617187E+03  0.22933857892E+03  0.31203218660E+03  0.00000000000E+00 0. -1.
<mgrwt>
<rscale>  3 0.45961150E+03</rscale>
<asrwt>0</asrwt>
<pdfrwt beam="1">  1        1 0.15385688E-01 0.45961150E+03</pdfrwt>
<pdfrwt beam="2">  1       -1 0.81241538E-01 0.45961150E+03</pdfrwt>
<totfact> 0.56932372E+02</totfact>
</mgrwt>
</event>
<event>
 4    0  0.1264838E-002  0.5569720E+03  0.7546771E-02  0.9998929E-01
          1   -1    0    0  502    0  0.00000000000E+00  0.00000000000E+00  0.33600876343E+03  0.33600876343E+03  0.00000000000E+00 0. -1.
         -1   -1    0    0    0  501 -0.00000000000E+00 -0.00000000000E+00 -0.23081084166E+03  0.23081084166E+03  0.00000000000E+00 0.  1.
         25    1    1    2    0    0  0.77469735143E+02  0.24380867520E+03 -0.12977981478E+02  0.28502220610E+03  0.12500000000E+03 0.  0.
         21    1    1    2  502  501 -0.77469735143E+02 -0.24380867520E+03  0.11817590325E+03  0.28179739899E+03  0.00000000000E+00 0.  1.
<mgrwt>
<rscale>  3 0.55697205E+03</rscale>
<asrwt>0</asrwt>
<pdfrwt beam="1">  1        1 0.51693656E-01 0.55697205E+03</pdfrwt>
<pdfrwt beam="2">  1       -1 0.35509360E-01 0.55697205E+03</pdfrwt>
<totfact> 0.57692031E+02</totfact>
</mgrwt>
</event>
<event>
 4    0  0.1264838E-002  0.7324087E+03  0.7546771E-02  0.9663360E-01
          2   -1    0    0  502    0  0.00000000000E+00  0.00000000000E+00  0.82468065761E+03  0.82468065761E+03  0.00000000000E+00 0. -1.
         -2   -1    0    0    0  501 -0.00000000000E+00 -0.00000000000E+00 -0.16261521650E+03  0.16261521650E+03  0.00000000000E+00 0.  1.
         25    1    1    2    0    0 -0.13915276124E+03  0.31260572411E+03  0.21053028485E+03  0.42075388358E+03  0.12500000000E+03 0.  0.
         21    1    1    2  502  501  0.13915276124E+03 -0.31260572411E+03  0.45153515626E+03  0.56654199054E+03  0.00000000000E+00 0.  1.
<mgrwt>
<rscale>  3 0.73240869E+03</rscale>
<asrwt>0</asrwt>
<pdfrwt beam="1">  1        2 0.12687394E+00 0.73240869E+03</pdfrwt>
<pdfrwt beam="2">  1       -2 0.25017726E-01 0.73240869E+03</pdfrwt>
<totfact> 0.47609384E+02</totfact>
</mgrwt>
</event>
<event>
 4    0  0.1264838E-002  0.4713814E+03  0.7546771E-02  0.1021531E+00
          2   -1    0    0  502    0  0.00000000000E+00  0.00000000000E+00  0.10757099240E+04  0.10757099240E+04  0.00000000000E+00 0. -1.
         -2   -1    0    0    0  501 -0.00000000000E+00 -0.00000000000E+00 -0.51640415904E+02  0.51640415904E+02  0.00000000000E+00 0.  1.
         25    1    1    2    0    0 -0.14340637357E+03  0.14649354176E+03  0.36299687725E+03  0.43522118359E+03  0.12500000000E+03 0.  0.
         21    1    1    2  502  501  0.14340637357E+03 -0.14649354176E+03  0.66107263087E+03  0.69212915633E+03  0.00000000000E+00 0. -1.
<mgrwt>
<rscale>  3 0.47138141E+03</rscale>
<asrwt>0</asrwt>
<pdfrwt beam="1">  1        2 0.16549382E+00 0.47138141E+03</pdfrwt>
<pdfrwt beam="2">  1       -2 0.79446802E-02 0.47138141E+03</pdfrwt>
<totfact> 0.22590707E+03</totfact>
</mgrwt>
</event>
<event>
 4    0  0.1264838E-002  0.5427475E+03  0.7546771E-02  0.1003187E+00
          2   -1    0    0  502    0  0.00000000000E+00  0.00000000000E+00  0.27195357248E+04  0.27195357248E+04  0.00000000000E+00 0. -1.
         -2   -1    0    0    0  501 -0.00000000000E+00 -0.00000000000E+00 -0.27079516532E+02  0.27079516532E+02  0.00000000000E+00 0.  1.
         25    1    1    2    0    0  0.15884281943E+03  0.19035324168E+03  0.17598521477E+04  0.17816200436E+04  0.12500000000E+03 0.  0.
         21    1    1    2  502  501 -0.15884281943E+03 -0.19035324168E+03  0.93260406055E+03  0.96499519774E+03  0.00000000000E+00 0.  1.
<mgrwt>
<rscale>  3 0.54274750E+03</rscale>
<asrwt>0</asrwt>
<pdfrwt beam="1">  1        2 0.41838990E+00 0.54274750E+03</pdfrwt>
<pdfrwt beam="2">  1       -2 0.41660816E-02 0.54274750E+03</pdfrwt>
<totfact> 0.75412584E+02</totfact>
</mgrwt>
</event>
<event>
 4    0  0.1264838E-002  0.4962175E+03  0.7546771E-02  0.1014771E+00
         -1   -1    0    0    0  501 -0.00000000000E+00  0.00000000000E+00  0.52596164812E+03  0.52596164812E+03  0.00000000000E+00 0.  1.
          1   -1    0    0  502    0  0.00000000000E+00 -0.00000000000E+00 -0.11703888245E+03  0.11703888245E+03  0.00000000000E+00 0. -1.
         25    1    1    2    0    0 -0.37321270206E+02 -0.22695695510E+03  0.26023661820E+03  0.36912116457E+03  0.12500000000E+03 0.  0.
         21    1    1    2  502  501  0.37321270206E+02  0.22695695510E+03  0.14868614747E+03  0.27387936601E+03  0.00000000000E+00 0.  1.
<mgrwt>
<rscale>  3 0.49621755E+03</rscale>
<asrwt>0</asrwt>
<pdfrwt beam="1">  1        1 0.18005982E-01 0.49621755E+03</pdfrwt>
<pdfrwt beam="2">  1       -1 0.80917175E-01 0.49621755E+03</pdfrwt>
<totfact> 0.46566873E+02</totfact>
</mgrwt>
</event>
<event>
 4    0  0.1264838E-002  0.6450803E+03  0.7546771E-02  0.9816055E-01
         -2   -1    0    0    0  501 -0.00000000000E+00  0.00000000000E+00  0.11540123013E+03  0.11540123013E+03  0.00000000000E+00 0. -1.
          2   -1    0    0  502    0  0.00000000000E+00 -0.00000000000E+00 -0.90148209829E+03  0.90148209829E+03  0.00000000000E+00 0.  1.
         25    1    1    2    0    0 -0.12689387437E+03 -0.27875214997E+03 -0.48758044599E+03  0.58920667662E+03  0.12500000000E+03 0.  0.
         21    1    1    2  502  501  0.12689387437E+03  0.27875214997E+03 -0.29850042217E+03  0.42767665180E+03  0.00000000000E+00 0. -1.
<mgrwt>
<rscale>  3 0.64508028E+03</rscale>
<asrwt>0</asrwt>
<pdfrwt beam="1">  1        2 0.13868955E+00 0.64508028E+03</pdfrwt>
<pdfrwt beam="2">  1       -2 0.17754035E-01 0.64508028E+03</pdfrwt>
<totfact> 0.77330643E+02</totfact>
</mgrwt>
</event>
<event>
 4    0  0.1264838E-002  0.5467331E+03  0.7546771E-02  0.1002253E+00
          2   -1    0    0  502    0  0.00000000000E+00  0.00000000000E+00  0.15171839504E+04  0.15171839504E+04  0.00000000000E+00 0.  1.
         -2   -1    0    0    0  501 -0.00000000000E+00 -0.00000000000E+00 -0.49255245986E+02  0.49255245986E+02  0.00000000000E+00 0. -1.
         25    1    1    2    0    0 -0.23502870434E+03  0.99575396395E+02  0.89940598832E+03  0.94324433910E+03  0.12500000000E+03 0.  0.
         21    1    1    2  502  501  0.23502870434E+03 -0.99575396395E+02  0.56852271614E+03  0.62319485733E+03  0.00000000000E+00 0. -1.
<mgrwt>
<rscale>  3 0.54673309E+03</rscale>
<asrwt>0</asrwt>
<pdfrwt beam="1">  1        2 0.23341288E+00 0.54673309E+03</pdfrwt>
<pdfrwt beam="2">  1       -2 0.75777313E-02 0.54673309E+03</pdfrwt>
<totfact> 0.13586812E+03</totfact>
</mgrwt>
</event>
<event>
 4    0  0.1264838E-002  0.6045257E+03  0.7546771E-02  0.9896061E-01
         -1   -1    0    0    0  501 -0.00000000000E+00  0.00000000000E+00  0.14459789840E+03  0.14459789840E+03  0.00000000000E+00 0.  1.
          1   -1    0    0  502    0  0.00000000000E+00 -0.00000000000E+00 -0.63184065240E+03  0.63184065240E+03  0.00000000000E+00 0. -1.
         25    1    1    2    0    0  0.26779341891E+03  0.10894342793E+03 -0.23909462356E+03  0.39544054510E+03  0.12500000000E+03 0.  0.
         21    1    1    2  502  501 -0.26779341891E+03 -0.10894342793E+03 -0.24814813045E+03  0.38099800570E+03  0.00000000000E+00 0. -1.
<mgrwt>
<rscale>  3 0.60452570E+03</rscale>
<asrwt>0</asrwt>
<pdfrwt beam="1">  1        1 0.97206252E-01 0.60452570E+03</pdfrwt>
<pdfrwt beam="2">  1       -1 0.22245831E-01 0.60452570E+03</pdfrwt>
<totfact> 0.54824906E+02</totfact>
</mgrwt>
</event>
<event>
 4    0  0.1264838E-002  0.9244690E+03  0.7546771E-02  0.9395500E-01
         -2   -1    0    0    0  501 -0.00000000000E+00  0.00000000000E+00  0.80886007350E+02  0.80886007350E+02  0.00000000000E+00 0.  1.
          2   -1    0    0  502    0  0.00000000000E+00 -0.00000000000E+00 -0.26415044469E+04  0.26415044469E+04  0.00000000000E+00 0. -1.
         25    1    1    2    0    0 -0.28409804786E+03 -0.29194632276E+03 -0.18924976840E+04  0.19398754703E+04  0.12500000000E+03 0.  0.
         21    1    1    2  502  501  0.28409804786E+03  0.29194632276E+03 -0.66812075554E+03  0.78251498398E+03  0.00000000000E+00 0.  1.
<mgrwt>
<rscale>  3 0.92446903E+03</rscale>
<asrwt>0</asrwt>
<pdfrwt beam="1">  1        2 0.40638521E+00 0.92446903E+03</pdfrwt>
<pdfrwt beam="2">  1       -2 0.12444004E-01 0.92446903E+03</pdfrwt>
<totfact> 0.14118100E+02</totfact>
</mgrwt>
</event>
<event>
 4    0  0.1264838E-002  0.9008166E+03  0.7546771E-02  0.9424561E-01
          2   -1    0    0  502    0  0.00000000000E+00  0.00000000000E+00  0.38290986694E+03  0.38290986694E+03  0.00000000000E+00 0.  1.
         -2   -1    0    0    0  501 -0.00000000000E+00 -0.00000000000E+00 -0.52980523009E+03  0.52980523009E+03  0.00000000000E+00 0. -1.
         25    1    1    2    0    0  0.11424926948E+03 -0.41633180200E+03 -0.16961345471E+03  0.48039440978E+03  0.12500000000E+03 0.  0.
         21    1    1    2  502  501 -0.11424926948E+03  0.41633180200E+03  0.22718091556E+02  0.43232068724E+03  0.00000000000E+00 0.  1.
<mgrwt>
<rscale>  3 0.90081663E+03</rscale>
<asrwt>0</asrwt>
<pdfrwt beam="1">  1        2 0.58909210E-01 0.90081663E+03</pdfrwt>
<pdfrwt beam="2">  1       -2 0.81508497E-01 0.90081663E+03</pdfrwt>
<totfact> 0.11113291E+02</totfact>
</mgrwt>
</event>
<event>
 4    0  0.1264838E-002  0.7240664E+03  0.7546771E-02  0.9676938E-01
          2   -1    0    0  502    0  0.00000000000E+00  0.00000000000E+00  0.33256272664E+04  0.33256272664E+04  0.00000000000E+00 0.  1.
         -2   -1    0    0    0  501 -0.00000000000E+00 -0.00000000000E+00 -0.39411520400E+02  0.39411520400E+02  0.00000000000E+00 0. -1.
         25    1    1    2    0    0 -0.31920944870E+03 -0.13621505114E+03  0.14408276552E+04  0.14872990770E+04  0.12500000000E+03 0.  0.
         21    1    1    2  502  501  0.31920944870E+03  0.13621505114E+03  0.18453880908E+04  0.18777397098E+04  0.00000000000E+00 0.  1.
<mgrwt>
<rscale>  3 0.72406637E+03</rscale>
<asrwt>0</asrwt>
<pdfrwt beam="1">  1        2 0.51163474E+00 0.72406637E+03</pdfrwt>
<pdfrwt beam="2">  1       -2 0.60633134E-02 0.72406637E+03</pdfrwt>
<totfact> 0.17528880E+02</totfact>
</mgrwt>
</event>
<event>
 4    0  0.1264838E-002  0.7561510E+03  0.7546771E-02  0.9625749E-01
          2   -1    0    0  502    0  0.00000000000E+00  0.00000000000E+00  0.17079217167E+04  0.17079217167E+04  0.00000000000E+00 0.  1.
         -2   -1    0    0    0  501 -0.00000000000E+00 -0.00000000000E+00 -0.83693002896E+02  0.83693002896E+02  0.00000000000E+00 0. -1.
         25    1    1    2    0    0  0.98035833174E+02  0.30886491772E+03  0.12462457424E+04  0.12937395459E+04  0.12500000000E+03 0.  0.
         21    1    1    2  502  501 -0.98035833174E+02 -0.30886491772E+03  0.37798297139E+03  0.49787517375E+03  0.00000000000E+00 0. -1.
<mgrwt>
<rscale>  3 0.75615104E+03</rscale>
<asrwt>0</asrwt>
<pdfrwt beam="1">  1        2 0.26275716E+00 0.75615104E+03</pdfrwt>
<pdfrwt beam="2">  1       -2 0.12875848E-01 0.75615104E+03</pdfrwt>
<totfact> 0.44668770E+02</totfact>
</mgrwt>
</event>
<event>
 4    0  0.1264838E-002  0.4619919E+03  0.7546771E-02  0.1024205E+00
          2   -1    0    0  502    0  0.00000000000E+00  0.00000000000E+00  0.16163153791E+04  0.16163153791E+04  0.00000000000E+00 0. -1.
         -2   -1    0    0    0  501 -0.00000000000E+00 -0.00000000000E+00 -0.33012816316E+02  0.33012816316E+02  0.00000000000E+00 0.  1.
         25    1    1    2    0    0 -0.17453238277E+03 -0.10466003288E+03  0.10868804112E+04  0.11128114411E+04  0.12500000000E+03 0.  0.
         21    1    1    2  502  501  0.17453238277E+03  0.10466003288E+03  0.49642215164E+03  0.53651675440E+03  0.00000000000E+00 0.  1.
<mgrwt>
<rscale>  3 0.46199187E+03</rscale>
<asrwt>0</asrwt>
<pdfrwt beam="1">  1        2 0.24866384E+00 0.46199187E+03</pdfrwt>
<pdfrwt beam="2">  1       -2 0.50788961E-02 0.46199187E+03</pdfrwt>
<totfact> 0.22497502E+03</totfact>
</mgrwt>
</event>
<event>
 4    0  0.1264838E-002  0.8850486E+03  0.7546771E-02  0.9444467E-01
          1   -1    0    0  502    0  0.00000000000E+00  0.00000000000E+00  0.15064270014E+03  0.15064270014E+03  0.00000000000E+00 0. -1.
         -1   -1    0    0    0  501 -0.00000000000E+00 -0.00000000000E+00 -0.12999484732E+04  0.12999484732E+04  0.00000000000E+00 0.  1.
         25    1    1    2    0    0  0.39393556334E+03 -0.14153428516E+03 -0.77209652533E+03  0.88711624175E+03  0.12500000000E+03 0.  0.
         21    1    1    2  502  501 -0.39393556334E+03  0.14153428516E+03 -0.37720924768E+03  0.56347493154E+03  0.00000000000E+00 0. -1.
<mgrwt>
<rscale>  3 0.88504858E+03</rscale>
<asrwt>0</asrwt>
<pdfrwt beam="1">  1        1 0.23175801E-01 0.88504858E+03</pdfrwt>
<pdfrwt beam="2">  1       -1 0.19999207E+00 0.88504858E+03</pdfrwt>
<totfact> 0.32905911E+01</totfact>
</mgrwt>
</event>
<event>
 4    0  0.1264838E-002  0.5781130E+03  0.7546771E-02  0.9951885E-01
         -2   -1    0    0    0  501 -0.00000000000E+00  0.00000000000E+00  0.12775715982E+03  0.12775715982E+03  0.00000000000E+00 0. -1.
          2   -1    0    0  502    0  0.00000000000E+00 -0.00000000000E+00 -0.65400368968E+03  0.65400368968E+03  0.00000000000E+00 0.  1.
         25    1    1    2    0    0 -0.22330097419E+03  0.13229852478E+03 -0.15033079275E+03  0.32494702950E+03  0.12500000000E+03 0.  0.
         21    1    1    2  502  501  0.22330097419E+03 -0.13229852478E+03 -0.37591573711E+03  0.45681381999E+03  0.00000000000E+00 0. -1.
<mgrwt>
<rscale>  3 0.57811298E+03</rscale>
<asrwt>0</asrwt>
<pdfrwt beam="1">  1        2 0.10061595E+00 0.57811298E+03</pdfrwt>
<pdfrwt beam="2">  1       -2 0.19654948E-01 0.57811298E+03</pdfrwt>
<totfact> 0.98563900E+02</totfact>
</mgrwt>
</event>
<event>
 4    0  0.1264838E-002  0.6020148E+03  0.7546771E-02  0.9901235E-01
          1   -1    0    0  502    0  0.00000000000E+00  0.00000000000E+00  0.11987248953E+04  0.11987248953E+04  0.00000000000E+00 0.  1.
         -1   -1    0    0    0  501 -0.00000000000E+00 -0.00000000000E+00 -0.75584859527E+02  0.75584859527E+02  0.00000000000E+00 0. -1.
         25    1    1    2    0    0  0.10008306613E+03  0.25169829242E+03  0.37846211644E+03  0.48189959962E+03  0.12500000000E+03 0.  0.
         21    1    1    2  502  501 -0.10008306613E+03 -0.25169829242E+03  0.74467791937E+03  0.79241015524E+03  0.00000000000E+00 0.  1.
<mgrwt>
<rscale>  3 0.60201479E+03</rscale>
<asrwt>0</asrwt>
<pdfrwt beam="1">  1        1 0.18441920E+00 0.60201479E+03</pdfrwt>
<pdfrwt beam="2">  1       -1 0.11628441E-01 0.60201479E+03</pdfrwt>
<totfact> 0.54140480E+02</totfact>
</mgrwt>
</event>
<event>
 4    0  0.1264838E-002  0.4479140E+03  0.7546771E-02  0.1028346E+00
         -2   -1    0    0    0  501 -0.00000000000E+00  0.00000000000E+00  0.27572649991E+03  0.27572649991E+03  0.00000000000E+00 0. -1.
          2   -1    0    0  502    0  0.00000000000E+00 -0.00000000000E+00 -0.18190753865E+03  0.18190753865E+03  0.00000000000E+00 0.  1.
         25    1    1    2    0    0 -0.25072179267E+02  0.20359154961E+03  0.74962404160E+02  0.25163961390E+03  0.12500000000E+03 0.  0.
         21    1    1    2  502  501  0.25072179267E+02 -0.20359154961E+03  0.18856557101E+02  0.20599442467E+03  0.00000000000E+00 0.  1.
<mgrwt>
<rscale>  3 0.44791396E+03</rscale>
<asrwt>0</asrwt>
<pdfrwt beam="1">  1        2 0.27985775E-01 0.44791396E+03</pdfrwt>
<pdfrwt beam="2">  1       -2 0.42419462E-01 0.44791396E+03</pdfrwt>
<totfact> 0.10149541E+03</totfact>
</mgrwt>
</event>
<event>
 4    0  0.1604588E-002  0.7855808E+03  0.7546771E-02  0.9581126E-01
          4   -1    0    0  502    0  0.00000000000E+00  0.00000000000E+00  0.42837476504E+03  0.42837476504E+03  0.00000000000E+00 0.  1.
         -4   -1    0    0    0  501 -0.00000000000E+00 -0.00000000000E+00 -0.36016192543E+03  0.36016192543E+03  0.00000000000E+00 0. -1.
         25    1    1    2    0    0  0.19172744738E+03 -0.11885232692E+03 -0.27552453962E+03  0.37739112553E+03  0.12500000000E+03 0.  0.
         21    1    1    2  502  501 -0.19172744738E+03  0.11885232692E+03  0.34373737923E+03  0.41114556494E+03  0.00000000000E+00 0.  1.
<mgrwt>
<rscale>  3 0.78558075E+03</rscale>
<asrwt>0</asrwt>
<pdfrwt beam="1">  1        4 0.65903810E-01 0.78558075E+03</pdfrwt>
<pdfrwt beam="2">  1       -4 0.55409527E-01 0.78558075E+03</pdfrwt>
<totfact> 0.13213725E+01</totfact>
</mgrwt>
</event>
<event>
 4    0  0.1264838E-002  0.5128909E+03  0.7546771E-02  0.1010468E+00
          2   -1    0    0  502    0  0.00000000000E+00  0.00000000000E+00  0.85933545880E+03  0.85933545880E+03  0.00000000000E+00 0. -1.
         -2   -1    0    0    0  501 -0.00000000000E+00 -0.00000000000E+00 -0.76529201766E+02  0.76529201766E+02  0.00000000000E+00 0.  1.
         25    1    1    2    0    0  0.21905690567E+03  0.93090489849E+02  0.48607149095E+03  0.55546580591E+03  0.12500000000E+03 0.  0.
         21    1    1    2  502  501 -0.21905690567E+03 -0.93090489849E+02  0.29673476608E+03  0.38039885466E+03  0.00000000000E+00 0.  1.
<mgrwt>
<rscale>  3 0.51289085E+03</rscale>
<asrwt>0</asrwt>
<pdfrwt beam="1">  1        2 0.13220545E+00 0.51289085E+03</pdfrwt>
<pdfrwt beam="2">  1       -2 0.11773724E-01 0.51289085E+03</pdfrwt>
<totfact> 0.16487204E+03</totfact>
</mgrwt>
</event>
<event>
 4    0  0.1264838E-002  0.6764204E+03  0.7546771E-02  0.9758428E-01
          2   -1    0    0  502    0  0.00000000000E+00  0.00000000000E+00  0.12333619423E+04  0.12333619423E+04  0.00000000000E+00 0.  1.
         -2   -1    0    0    0  501 -0.00000000000E+00 -0.00000000000E+00 -0.92743375907E+02  0.92743375907E+02  0.00000000000E+00 0. -1.
         25    1    1    2    0    0 -0.27587291604E+03  0.11609645161E+03  0.84632134710E+03  0.90634931149E+03  0.12500000000E+03 0.  0.
         21    1    1    2  502  501  0.27587291604E+03 -0.11609645161E+03  0.29429721926E+03  0.41975600668E+03  0.00000000000E+00 0. -1.
<mgrwt>
<rscale>  3 0.67642043E+03</rscale>
<asrwt>0</asrwt>
<pdfrwt beam="1">  1        2 0.18974798E+00 0.67642043E+03</pdfrwt>
<pdfrwt beam="2">  1       -2 0.14268213E-01 0.67642043E+03</pdfrwt>
<totfact> 0.69716656E+02</totfact>
</mgrwt>
</event>
<event>
 4    0  0.1264838E-002  0.6869870E+03  0.7546771E-02  0.9739749E-01
          2   -1    0    0  502    0  0.00000000000E+00  0.00000000000E+00  0.25974044713E+04  0.25974044713E+04  0.00000000000E+00 0.  1.
         -2   -1    0    0    0  501 -0.00000000000E+00 -0.00000000000E+00 -0.45425261306E+02  0.45425261306E+02  0.00000000000E+00 0. -1.
         25    1    1    2    0    0  0.29459387609E+02  0.27765186886E+03  0.20101164029E+04  0.20332612644E+04  0.12500000000E+03 0.  0.
         21    1    1    2  502  501 -0.29459387609E+02 -0.27765186886E+03  0.54186280701E+03  0.60956846820E+03  0.00000000000E+00 0. -1.
<mgrwt>
<rscale>  3 0.68698698E+03</rscale>
<asrwt>0</asrwt>
<pdfrwt beam="1">  1        2 0.39960057E+00 0.68698698E+03</pdfrwt>
<pdfrwt beam="2">  1       -2 0.69885038E-02 0.68698698E+03</pdfrwt>
<totfact> 0.39030979E+02</totfact>
</mgrwt>
</event>
<event>
 4    0  0.1264838E-002  0.5355018E+03  0.7546771E-02  0.1004907E+00
          2   -1    0    0  502    0  0.00000000000E+00  0.00000000000E+00  0.14486708015E+04  0.14486708015E+04  0.00000000000E+00 0. -1.
         -2   -1    0    0    0  501 -0.00000000000E+00 -0.00000000000E+00 -0.49487113762E+02  0.49487113762E+02  0.00000000000E+00 0.  1.
         25    1    1    2    0    0 -0.38377207600E+02 -0.22036561648E+03  0.40601209746E+03  0.48010898583E+03  0.12500000000E+03 0.  0.
         21    1    1    2  502  501  0.38377207600E+02  0.22036561648E+03  0.99317159024E+03  0.10180489294E+04  0.00000000000E+00 0. -1.
<mgrwt>
<rscale>  3 0.53550177E+03</rscale>
<asrwt>0</asrwt>
<pdfrwt beam="1">  1        2 0.22287240E+00 0.53550177E+03</pdfrwt>
<pdfrwt beam="2">  1       -2 0.76134032E-02 0.53550177E+03</pdfrwt>
<totfact> 0.14718784E+03</totfact>
</mgrwt>
</event>
<event>
 4    0  0.1264838E-002  0.4891865E+03  0.7546771E-02  0.1016641E+00
          2   -1    0    0  502    0  0.00000000000E+00  0.00000000000E+00  0.22269076131E+04  0.22269076131E+04  0.00000000000E+00 0.  1.
         -2   -1    0    0    0  501 -0.00000000000E+00 -0.00000000000E+00 -0.26864992459E+02  0.26864992459E+02  0.00000000000E+00 0. -1.
         25    1    1    2    0    0 -0.19206509218E+03  0.57392053254E+02  0.16783336368E+04  0.16948780616E+04  0.12500000000E+03 0.  0.
         21    1    1    2  502  501  0.19206509218E+03 -0.57392053254E+02  0.52170898393E+03  0.55889454401E+03  0.00000000000E+00 0. -1.
<mgrwt>
<rscale>  3 0.48918649E+03</rscale>
<asrwt>0</asrwt>
<pdfrwt beam="1">  1        2 0.34260103E+00 0.48918649E+03</pdfrwt>
<pdfrwt beam="2">  1       -2 0.41330775E-02 0.48918649E+03</pdfrwt>
<totfact> 0.14464573E+03</totfact>
</mgrwt>
</event>
<event>
 4    0  0.1264838E-002  0.5301957E+03  0.7546771E-02  0.1006185E+00
         -2   -1    0    0    0  501 -0.00000000000E+00  0.00000000000E+00  0.62588879832E+02  0.62588879832E+02  0.00000000000E+00 0.  1.
          2   -1    0    0  502    0  0.00000000000E+00 -0.00000000000E+00 -0.11228329769E+04  0.11228329769E+04  0.00000000000E+00 0. -1.
         25    1    1    2    0    0  0.81551263901E+02 -0.23135066110E+03 -0.44762419399E+03  0.52551513402E+03  0.12500000000E+03 0.  0.
         21    1    1    2  502  501 -0.81551263901E+02  0.23135066110E+03 -0.61261990305E+03  0.65990672269E+03  0.00000000000E+00 0. -1.
<mgrwt>
<rscale>  3 0.53019566E+03</rscale>
<asrwt>0</asrwt>
<pdfrwt beam="1">  1        2 0.17274352E+00 0.53019566E+03</pdfrwt>
<pdfrwt beam="2">  1       -2 0.96290592E-02 0.53019566E+03</pdfrwt>
<totfact> 0.15547479E+03</totfact>
</mgrwt>
</event>
<event>
 4    0  0.1264838E-002  0.5938901E+03  0.7546771E-02  0.9918164E-01
          2   -1    0    0  502    0  0.00000000000E+00  0.00000000000E+00  0.40481085350E+03  0.40481085350E+03  0.00000000000E+00 0.  1.
         -2   -1    0    0    0  501 -0.00000000000E+00 -0.00000000000E+00 -0.21782117937E+03  0.21782117937E+03  0.00000000000E+00 0. -1.
         25    1    1    2    0    0 -0.12742064188E+03 -0.25341164398E+03  0.88059799921E+02  0.32223129836E+03  0.12500000000E+03 0.  0.
         21    1    1    2  502  501  0.12742064188E+03  0.25341164398E+03  0.98929874211E+02  0.30040073451E+03  0.00000000000E+00 0. -1.
<mgrwt>
<rscale>  3 0.59389015E+03</rscale>
<asrwt>0</asrwt>
<pdfrwt beam="1">  1        2 0.62278593E-01 0.59389015E+03</pdfrwt>
<pdfrwt beam="2">  1       -2 0.33510951E-01 0.59389015E+03</pdfrwt>
<totfact> 0.65696674E+02</totfact>
</mgrwt>
</event>
<event>
 4    0  0.1264838E-002  0.4603080E+03  0.7546771E-02  0.1024692E+00
          4   -1    0    0  502    0  0.00000000000E+00  0.00000000000E+00  0.13358866794E+04  0.13358866794E+04  0.00000000000E+00 0. -1.
         -4   -1    0    0    0  501 -0.00000000000E+00 -0.00000000000E+00 -0.39652211351E+02  0.39652211351E+02  0.00000000000E+00 0.  1.
         25    1    1    2    0    0 -0.21036491011E+03  0.33162130102E+02  0.66704720631E+03  0.71128763361E+03  0.12500000000E+03 0.  0.
         21    1    1    2  502  501  0.21036491011E+03 -0.33162130102E+02  0.62918726178E+03  0.66425125718E+03  0.00000000000E+00 0.  1.
<mgrwt>
<rscale>  3 0.46030799E+03</rscale>
<asrwt>0</asrwt>
<pdfrwt beam="1">  1        4 0.20552099E+00 0.46030799E+03</pdfrwt>
<pdfrwt beam="2">  1       -4 0.61003413E-02 0.46030799E+03</pdfrwt>
<totfact> 0.43971713E+01</totfact>
</mgrwt>
</event>
<event>
 4    0  0.1264838E-002  0.4805553E+03  0.7546771E-02  0.1018983E+00
          1   -1    0    0  502    0  0.00000000000E+00  0.00000000000E+00  0.14271186611E+04  0.14271186611E+04  0.00000000000E+00 0. -1.
         -1   -1    0    0    0  501 -0.00000000000E+00 -0.00000000000E+00 -0.40454479770E+02  0.40454479770E+02  0.00000000000E+00 0.  1.
         25    1    1    2    0    0  0.22287324278E+03  0.11567223828E+02  0.79968522644E+03  0.83959975251E+03  0.12500000000E+03 0.  0.
         21    1    1    2  502  501 -0.22287324278E+03 -0.11567223828E+02  0.58697895488E+03  0.62797338836E+03  0.00000000000E+00 0. -1.
<mgrwt>
<rscale>  3 0.48055527E+03</rscale>
<asrwt>0</asrwt>
<pdfrwt beam="1">  1        1 0.21955668E+00 0.48055527E+03</pdfrwt>
<pdfrwt beam="2">  1       -1 0.62237672E-02 0.48055527E+03</pdfrwt>
<totfact> 0.10009439E+03</totfact>
</mgrwt>
</event>
<event>
 4    0  0.1264838E-002  0.6459907E+03  0.7546771E-02  0.9814332E-01
          2   -1    0    0  502    0  0.00000000000E+00  0.00000000000E+00  0.11691510906E+04  0.11691510906E+04  0.00000000000E+00 0. -1.
         -2   -1    0    0    0  501 -0.00000000000E+00 -0.00000000000E+00 -0.89232257411E+02  0.89232257411E+02  0.00000000000E+00 0.  1.
         25    1    1    2    0    0  0.20419886306E+03 -0.21245543820E+03  0.36708741024E+03  0.48704481893E+03  0.12500000000E+03 0.  0.
         21    1    1    2  502  501 -0.20419886306E+03  0.21245543820E+03  0.71283142296E+03  0.77133852909E+03  0.00000000000E+00 0. -1.
<mgrwt>
<rscale>  3 0.64599068E+03</rscale>
<asrwt>0</asrwt>
<pdfrwt beam="1">  1        2 0.17986939E+00 0.64599068E+03</pdfrwt>
<pdfrwt beam="2">  1       -2 0.13728041E-01 0.64599068E+03</pdfrwt>
<totfact> 0.81242628E+02</totfact>
</mgrwt>
</event>
<event>
 4    0  0.1264838E-002  0.7036901E+03  0.7546771E-02  0.9710942E-01
         -2   -1    0    0    0  501 -0.00000000000E+00  0.00000000000E+00  0.39339158779E+03  0.39339158779E+03  0.00000000000E+00 0.  1.
          2   -1    0    0  502    0  0.00000000000E+00 -0.00000000000E+00 -0.31468626511E+03  0.31468626511E+03  0.00000000000E+00 0. -1.
         25    1    1    2    0    0 -0.17067923622E+03 -0.27206212753E+03 -0.73941907021E+02  0.35247923134E+03  0.12500000000E+03 0.  0.
         21    1    1    2  502  501  0.17067923622E+03  0.27206212753E+03  0.15264722970E+03  0.35559862155E+03  0.00000000000E+00 0.  1.
<mgrwt>
<rscale>  3 0.70369007E+03</rscale>
<asrwt>0</asrwt>
<pdfrwt beam="1">  1        2 0.48413272E-01 0.70369007E+03</pdfrwt>
<pdfrwt beam="2">  1       -2 0.60521782E-01 0.70369007E+03</pdfrwt>
<totfact> 0.26724273E+02</totfact>
</mgrwt>
</event>
<event>
 4    0  0.1264838E-002  0.6637454E+03  0.7546771E-02  0.9781323E-01
         -1   -1    0    0    0  501 -0.00000000000E+00  0.00000000000E+00  0.91636614635E+02  0.91636614635E+02  0.00000000000E+00 0.  1.
          1   -1    0    0  502    0  0.00000000000E+00 -0.00000000000E+00 -0.12019157088E+04  0.12019157088E+04  0.00000000000E+00 0. -1.
         25    1    1    2    0    0 -0.31852365427E+03  0.13917771989E+02 -0.51920856776E+03  0.62197552970E+03  0.12500000000E+03 0.  0.
         21    1    1    2  502  501  0.31852365427E+03 -0.13917771989E+02 -0.59107052645E+03  0.67157679378E+03  0.00000000000E+00 0.  1.
<mgrwt>
<rscale>  3 0.66374539E+03</rscale>
<asrwt>0</asrwt>
<pdfrwt beam="1">  1        1 0.18491011E+00 0.66374539E+03</pdfrwt>
<pdfrwt beam="2">  1       -1 0.14097941E-01 0.66374539E+03</pdfrwt>
<totfact> 0.39414000E+02</totfact>
</mgrwt>
</event>
<event>
 4    0  0.1264838E-002  0.8515770E+03  0.7546771E-02  0.9488223E-01
          2   -1    0    0  502    0  0.00000000000E+00  0.00000000000E+00  0.52927207996E+03  0.52927207996E+03  0.00000000000E+00 0.  1.
         -2   -1    0    0    0  501 -0.00000000000E+00 -0.00000000000E+00 -0.34253808035E+03  0.34253808035E+03  0.00000000000E+00 0. -1.
         25    1    1    2    0    0  0.31285929776E+03 -0.30829886022E+02 -0.18449569280E+03  0.38535059715E+03  0.12500000000E+03 0.  0.
         21    1    1    2  502  501 -0.31285929776E+03  0.30829886022E+02  0.37122969240E+03  0.48645956316E+03  0.00000000000E+00 0.  1.
<mgrwt>
<rscale>  3 0.85157699E+03</rscale>
<asrwt>0</asrwt>
<pdfrwt beam="1">  1        2 0.81426474E-01 0.85157699E+03</pdfrwt>
<pdfrwt beam="2">  1       -2 0.52698166E-01 0.85157699E+03</pdfrwt>
<totfact> 0.19678382E+02</totfact>
</mgrwt>
</event>
<event>
 4    0  0.1264838E-002  0.5757046E+03  0.7546771E-02  0.9957134E-01
         -2   -1    0    0    0  501 -0.00000000000E+00  0.00000000000E+00  0.54147675757E+02  0.54147675757E+02  0.00000000000E+00 0.  1.
          2   -1    0    0  502    0  0.00000000000E+00 -0.00000000000E+00 -0.15302399315E+04  0.15302399315E+04  0.00000000000E+00 0. -1.
         25    1    1    2    0    0 -0.16510867451E+03 -0.21291060262E+03 -0.91421237719E+03  0.96124974367E+03  0.12500000000E+03 0.  0.
         21    1    1    2  502  501  0.16510867451E+03  0.21291060262E+03 -0.56187987853E+03  0.62313786356E+03  0.00000000000E+00 0.  1.
<mgrwt>
<rscale>  3 0.57570456E+03</rscale>
<asrwt>0</asrwt>
<pdfrwt beam="1">  1        2 0.23542151E+00 0.57570456E+03</pdfrwt>
<pdfrwt beam="2">  1       -2 0.83304123E-02 0.57570456E+03</pdfrwt>
<totfact> 0.11480228E+03</totfact>
</mgrwt>
</event>
<event>
 4    0  0.1264838E-002  0.6506282E+03  0.7546771E-02  0.9805601E-01
          1   -1    0    0  502    0  0.00000000000E+00  0.00000000000E+00  0.34705461374E+03  0.34705461374E+03  0.00000000000E+00 0.  1.
         -1   -1    0    0    0  501 -0.00000000000E+00 -0.00000000000E+00 -0.30493547087E+03  0.30493547087E+03  0.00000000000E+00 0. -1.
         25    1    1    2    0    0  0.19973489537E+03  0.15911641687E+03 -0.16006132470E+03  0.32627701453E+03  0.12500000000E+03 0.  0.
         21    1    1    2  502  501 -0.19973489537E+03 -0.15911641687E+03  0.20218046758E+03  0.32571307007E+03  0.00000000000E+00 0.  1.
<mgrwt>
<rscale>  3 0.65062820E+03</rscale>
<asrwt>0</asrwt>
<pdfrwt beam="1">  1        1 0.53393018E-01 0.65062820E+03</pdfrwt>
<pdfrwt beam="2">  1       -1 0.46913149E-01 0.65062820E+03</pdfrwt>
<totfact> 0.33242992E+02</totfact>
</mgrwt>
</event>
<event>
 4    0  0.1264838E-002  0.4781266E+03  0.7546771E-02  0.1019651E+00
         -2   -1    0    0    0  501 -0.00000000000E+00  0.00000000000E+00  0.23373731501E+02  0.23373731501E+02  0.00000000000E+00 0. -1.
          2   -1    0    0  502    0  0.00000000000E+00 -0.00000000000E+00 -0.24451065586E+04  0.24451065586E+04  0.00000000000E+00 0.  1.
         25    1    1    2    0    0  0.85687672543E+02 -0.20012563582E+03 -0.15365061491E+04  0.15568778994E+04  0.12500000000E+03 0.  0.
         21    1    1    2  502  501 -0.85687672543E+02  0.20012563582E+03 -0.88522667796E+03  0.91160239069E+03  0.00000000000E+00 0. -1.
<mgrwt>
<rscale>  3 0.47812661E+03</rscale>
<asrwt>0</asrwt>
<pdfrwt beam="1">  1        2 0.37617020E+00 0.47812661E+03</pdfrwt>
<pdfrwt beam="2">  1       -2 0.35959591E-02 0.47812661E+03</pdfrwt>
<totfact> 0.13584277E+03</totfact>
</mgrwt>
</event>
<event>
 4    0  0.1264838E-002  0.4552142E+03  0.7546771E-02  0.1026178E+00
         -2   -1    0    0    0  501 -0.00000000000E+00  0.00000000000E+00  0.16114789733E+03  0.16114789733E+03  0.00000000000E+00 0. -1.
          2   -1    0    0  502    0  0.00000000000E+00 -0.00000000000E+00 -0.32147489289E+03  0.32147489289E+03  0.00000000000E+00 0.  1.
         25    1    1    2    0    0  0.43015997696E+01  0.20970293914E+03 -0.10436272935E+03  0.26553795533E+03  0.12500000000E+03 0.  0.
         21    1    1    2  502  501 -0.43015997696E+01 -0.20970293914E+03 -0.55964266216E+02  0.21708483489E+03  0.00000000000E+00 0.  1.
<mgrwt>
<rscale>  3 0.45521425E+03</rscale>
<asrwt>0</asrwt>
<pdfrwt beam="1">  1        2 0.49457675E-01 0.45521425E+03</pdfrwt>
<pdfrwt beam="2">  1       -2 0.24791984E-01 0.45521425E+03</pdfrwt>
<totfact> 0.14731208E+03</totfact>
</mgrwt>
</event>
<event>
 4    0  0.1264838E-002  0.6691230E+03  0.7546771E-02  0.9771544E-01
          4   -1    0    0  502    0  0.00000000000E+00  0.00000000000E+00  0.69137831064E+03  0.69137831064E+03  0.00000000000E+00 0. -1.
         -4   -1    0    0    0  501 -0.00000000000E+00 -0.00000000000E+00 -0.16189599933E+03  0.16189599933E+03  0.00000000000E+00 0.  1.
         25    1    1    2    0    0 -0.39158042311E+02  0.22952139698E+03  0.55924566907E+03  0.61854194872E+03  0.12500000000E+03 0.  0.
         21    1    1    2  502  501  0.39158042311E+02 -0.22952139698E+03 -0.29763357761E+02  0.23473236125E+03  0.00000000000E+00 0.  1.
<mgrwt>
<rscale>  3 0.66912296E+03</rscale>
<asrwt>0</asrwt>
<pdfrwt beam="1">  1        4 0.10636589E+00 0.66912296E+03</pdfrwt>
<pdfrwt beam="2">  1       -4 0.24907077E-01 0.66912296E+03</pdfrwt>
<totfact> 0.21667526E+01</totfact>
</mgrwt>
</event>
<event>
 4    0  0.1264838E-002  0.4621022E+03  0.7546771E-02  0.1024173E+00
         -2   -1    0    0    0  501 -0.00000000000E+00  0.00000000000E+00  0.15222762001E+02  0.15222762001E+02  0.00000000000E+00 0. -1.
          2   -1    0    0  502    0  0.00000000000E+00 -0.00000000000E+00 -0.35068945612E+04  0.35068945612E+04  0.00000000000E+00 0.  1.
         25    1    1    2    0    0  0.68576069673E+02 -0.20277263868E+03 -0.18262715558E+04  0.18430171502E+04  0.12500000000E+03 0.  0.
         21    1    1    2  502  501 -0.68576069673E+02  0.20277263868E+03 -0.16654002434E+04  0.16791001730E+04  0.00000000000E+00 0. -1.
<mgrwt>
<rscale>  3 0.46210225E+03</rscale>
<asrwt>0</asrwt>
<pdfrwt beam="1">  1        2 0.53952235E+00 0.46210225E+03</pdfrwt>
<pdfrwt beam="2">  1       -2 0.23419629E-02 0.46210225E+03</pdfrwt>
<totfact> 0.59201035E+02</totfact>
</mgrwt>
</event>
<event>
 4    0  0.1264838E-002  0.5486002E+03  0.7546771E-02  0.1001818E+00
          2   -1    0    0  502    0  0.00000000000E+00  0.00000000000E+00  0.20650994255E+04  0.20650994255E+04  0.00000000000E+00 0.  1.
         -2   -1    0    0    0  501 -0.00000000000E+00 -0.00000000000E+00 -0.36434342033E+02  0.36434342033E+02  0.00000000000E+00 0. -1.
         25    1    1    2    0    0 -0.22454075770E+03 -0.66113687473E+02  0.15010880577E+04  0.15243621382E+04  0.12500000000E+03 0.  0.
         21    1    1    2  502  501  0.22454075770E+03  0.66113687473E+02  0.52757702575E+03  0.57717162927E+03  0.00000000000E+00 0. -1.
<mgrwt>
<rscale>  3 0.54860018E+03</rscale>
<asrwt>0</asrwt>
<pdfrwt beam="1">  1        2 0.31770751E+00 0.54860018E+03</pdfrwt>
<pdfrwt beam="2">  1       -2 0.56052850E-02 0.54860018E+03</pdfrwt>
<totfact> 0.11017569E+03</totfact>
</mgrwt>
</event>
<event>
 4    0  0.1264838E-002  0.5121570E+03  0.7546771E-02  0.1010654E+00
          2   -1    0    0  502    0  0.00000000000E+00  0.00000000000E+00  0.29946844073E+04  0.29946844073E+04  0.00000000000E+00 0.  1.
         -2   -1    0    0    0  501 -0.00000000000E+00 -0.00000000000E+00 -0.21897529426E+02  0.21897529426E+02  0.00000000000E+00 0. -1.
         25    1    1    2    0    0  0.18381541114E+03  0.13890845852E+03  0.19877664935E+04  0.20049748871E+04  0.12500000000E+03 0.  0.
         21    1    1    2  502  501 -0.18381541114E+03 -0.13890845852E+03  0.98502038437E+03  0.10116070496E+04  0.00000000000E+00 0.  1.
<mgrwt>
<rscale>  3 0.51215697E+03</rscale>
<asrwt>0</asrwt>
<pdfrwt beam="1">  1        2 0.46072035E+00 0.51215697E+03</pdfrwt>
<pdfrwt beam="2">  1       -2 0.33688531E-02 0.51215697E+03</pdfrwt>
<totfact> 0.71989338E+02</totfact>
</mgrwt>
</event>
<event>
 4    0  0.1264838E-002  0.4755496E+03  0.7546771E-02  0.1020365E+00
         -2   -1    0    0    0  501 -0.00000000000E+00  0.00000000000E+00  0.18423509313E+02  0.18423509313E+02  0.00000000000E+00 0.  1.
          2   -1    0    0  502    0  0.00000000000E+00 -0.00000000000E+00 -0.30687346395E+04  0.30687346395E+04  0.00000000000E+00 0. -1.
         25    1    1    2    0    0  0.13284552798E+02 -0.22086064860E+03 -0.15903316356E+04  0.16105078754E+04  0.12500000000E+03 0.  0.
         21    1    1    2  502  501 -0.13284552798E+02  0.22086064860E+03 -0.14599794945E+04  0.14766502734E+04  0.00000000000E+00 0. -1.
<mgrwt>
<rscale>  3 0.47554962E+03</rscale>
<asrwt>0</asrwt>
<pdfrwt beam="1">  1        2 0.47211278E+00 0.47554962E+03</pdfrwt>
<pdfrwt beam="2">  1       -2 0.28343875E-02 0.47554962E+03</pdfrwt>
<totfact> 0.84675864E+02</totfact>
</mgrwt>
</event>
<event>
 4    0  0.1264838E-002  0.7117126E+03  0.7546771E-02  0.9697409E-01
         -2   -1    0    0    0  501 -0.00000000000E+00  0.00000000000E+00  0.12244965834E+03  0.12244965834E+03  0.00000000000E+00 0. -1.
          2   -1    0    0  502    0  0.00000000000E+00 -0.00000000000E+00 -0.10341695218E+04  0.10341695218E+04  0.00000000000E+00 0.  1.
         25    1    1    2    0    0 -0.29540359141E+03 -0.14502714109E+03 -0.63759731438E+03  0.72832100668E+03  0.12500000000E+03 0.  0.
         21    1    1    2  502  501  0.29540359141E+03  0.14502714109E+03 -0.27412254904E+03  0.42829817343E+03  0.00000000000E+00 0.  1.
<mgrwt>
<rscale>  3 0.71171260E+03</rscale>
<asrwt>0</asrwt>
<pdfrwt beam="1">  1        2 0.15910300E+00 0.71171260E+03</pdfrwt>
<pdfrwt beam="2">  1       -2 0.18838410E-01 0.71171260E+03</pdfrwt>
<totfact> 0.57159644E+02</totfact>
</mgrwt>
</event>
<event>
 4    0  0.1264838E-002  0.1784856E+04  0.7546771E-02  0.8714394E-01
          1   -1    0    0  502    0  0.00000000000E+00  0.00000000000E+00  0.17795043497E+04  0.17795043497E+04  0.00000000000E+00 0.  1.
         -1   -1    0    0    0  501 -0.00000000000E+00 -0.00000000000E+00 -0.44755611149E+03  0.44755611149E+03  0.00000000000E+00 0. -1.
         25    1    1    2    0    0  0.60467650367E+03 -0.28176300508E+03 -0.62171402503E+02  0.68155289480E+03  0.12500000000E+03 0.  0.
         21    1    1    2  502  501 -0.60467650367E+03  0.28176300508E+03  0.13941196407E+04  0.15455075664E+04  0.00000000000E+00 0.  1.
<mgrwt>
<rscale>  3 0.17848563E+04</rscale>
<asrwt>0</asrwt>
<pdfrwt beam="1">  1        1 0.27376990E+00 0.17848563E+04</pdfrwt>
<pdfrwt beam="2">  1       -1 0.68854787E-01 0.17848563E+04</pdfrwt>
<totfact> 0.84831677E+00</totfact>
</mgrwt>
</event>
<event>
 4    0  0.1264838E-002  0.6777285E+03  0.7546771E-02  0.9756096E-01
          2   -1    0    0  502    0  0.00000000000E+00  0.00000000000E+00  0.13528591630E+04  0.13528591630E+04  0.00000000000E+00 0. -1.
         -2   -1    0    0    0  501 -0.00000000000E+00 -0.00000000000E+00 -0.84878745341E+02  0.84878745341E+02  0.00000000000E+00 0.  1.
         25    1    1    2    0    0 -0.11823943855E+03  0.28647091448E+03  0.87909378026E+03  0.94046638651E+03  0.12500000000E+03 0.  0.
         21    1    1    2  502  501  0.11823943855E+03 -0.28647091448E+03  0.38888663741E+03  0.49727152183E+03  0.00000000000E+00 0.  1.
<mgrwt>
<rscale>  3 0.67772852E+03</rscale>
<asrwt>0</asrwt>
<pdfrwt beam="1">  1        2 0.20813216E+00 0.67772852E+03</pdfrwt>
<pdfrwt beam="2">  1       -2 0.13058269E-01 0.67772852E+03</pdfrwt>
<totfact> 0.69002372E+02</totfact>
</mgrwt>
</event>
<event>
 4    0  0.1264838E-002  0.4440648E+03  0.7546771E-02  0.1029507E+00
         -2   -1    0    0    0  501 -0.00000000000E+00  0.00000000000E+00  0.98638528903E+02  0.98638528903E+02  0.00000000000E+00 0. -1.
          2   -1    0    0  502    0  0.00000000000E+00 -0.00000000000E+00 -0.49978845034E+03  0.49978845034E+03  0.00000000000E+00 0.  1.
         25    1    1    2    0    0 -0.54601145848E+02  0.19697766580E+03 -0.22149766304E+03  0.32629388699E+03  0.12500000000E+03 0.  0.
         21    1    1    2  502  501  0.54601145848E+02 -0.19697766580E+03 -0.17965225840E+03  0.27213309226E+03  0.00000000000E+00 0.  1.
<mgrwt>
<rscale>  3 0.44406485E+03</rscale>
<asrwt>0</asrwt>
<pdfrwt beam="1">  1        2 0.76890529E-01 0.44406485E+03</pdfrwt>
<pdfrwt beam="2">  1       -2 0.15175159E-01 0.44406485E+03</pdfrwt>
<totfact> 0.21039757E+03</totfact>
</mgrwt>
</event>
<event>
 4    0  0.1264838E-002  0.5941932E+03  0.7546771E-02  0.9917527E-01
         -1   -1    0    0    0  501 -0.00000000000E+00  0.00000000000E+00  0.14839246310E+03  0.14839246310E+03  0.00000000000E+00 0. -1.
          1   -1    0    0  502    0  0.00000000000E+00 -0.00000000000E+00 -0.59481718820E+03  0.59481718820E+03  0.00000000000E+00 0.  1.
         25    1    1    2    0    0 -0.21850388291E+03  0.13602830693E+03 -0.38307632892E+03  0.47814236469E+03  0.12500000000E+03 0.  0.
         21    1    1    2  502  501  0.21850388291E+03 -0.13602830693E+03 -0.63348396178E+02  0.26506728661E+03  0.00000000000E+00 0. -1.
<mgrwt>
<rscale>  3 0.59419319E+03</rscale>
<asrwt>0</asrwt>
<pdfrwt beam="1">  1        1 0.91510336E-01 0.59419319E+03</pdfrwt>
<pdfrwt beam="2">  1       -1 0.22829610E-01 0.59419319E+03</pdfrwt>
<totfact> 0.57272978E+02</totfact>
</mgrwt>
</event>
<event>
 4    0  0.1264838E-002  0.6322179E+03  0.7546771E-02  0.9840730E-01
          1   -1    0    0  502    0  0.00000000000E+00  0.00000000000E+00  0.99196861075E+02  0.99196861075E+02  0.00000000000E+00 0.  1.
         -1   -1    0    0    0  501 -0.00000000000E+00 -0.00000000000E+00 -0.10073390812E+04  0.10073390812E+04  0.00000000000E+00 0. -1.
         25    1    1    2    0    0 -0.29992908087E+03 -0.30380697448E+02 -0.40669375166E+03  0.52144534514E+03  0.12500000000E+03 0.  0.
         21    1    1    2  502  501  0.29992908087E+03  0.30380697448E+02 -0.50144846849E+03  0.58509059716E+03  0.00000000000E+00 0. -1.
<mgrwt>
<rscale>  3 0.63221792E+03</rscale>
<asrwt>0</asrwt>
<pdfrwt beam="1">  1        1 0.15261056E-01 0.63221792E+03</pdfrwt>
<pdfrwt beam="2">  1       -1 0.15497524E+00 0.63221792E+03</pdfrwt>
<totfact> 0.12310146E+02</totfact>
</mgrwt>
</event>
<event>
 4    0  0.1264838E-002  0.4638360E+03  0.7546771E-02  0.1023675E+00
         -1   -1    0    0    0  501 -0.00000000000E+00  0.00000000000E+00  0.72188264620E+02  0.72188264620E+02  0.00000000000E+00 0. -1.
          1   -1    0    0  502    0  0.00000000000E+00 -0.00000000000E+00 -0.74507910209E+03  0.74507910209E+03  0.00000000000E+00 0.  1.
         25    1    1    2    0    0  0.16176126590E+03  0.13449802208E+03 -0.43969246302E+03  0.50320064301E+03  0.12500000000E+03 0.  0.
         21    1    1    2  502  501 -0.16176126590E+03 -0.13449802208E+03 -0.23319837445E+03  0.31406672370E+03  0.00000000000E+00 0.  1.
<mgrwt>
<rscale>  3 0.46383604E+03</rscale>
<asrwt>0</asrwt>
<pdfrwt beam="1">  1        1 0.11462755E+00 0.46383604E+03</pdfrwt>
<pdfrwt beam="2">  1       -1 0.11105887E-01 0.46383604E+03</pdfrwt>
<totfact> 0.13295472E+03</totfact>
</mgrwt>
</event>
<event>
 4    0  0.1264838E-002  0.5931232E+03  0.7546771E-02  0.9919777E-01
         -2   -1    0    0    0  501 -0.00000000000E+00  0.00000000000E+00  0.17360092530E+03  0.17360092530E+03  0.00000000000E+00 0.  1.
          2   -1    0    0  502    0  0.00000000000E+00 -0.00000000000E+00 -0.50661470991E+03  0.50661470991E+03  0.00000000000E+00 0. -1.
         25    1    1    2    0    0 -0.28299519776E+03  0.11070643338E+02 -0.18542431463E+03  0.36085456566E+03  0.12500000000E+03 0.  0.
         21    1    1    2  502  501  0.28299519776E+03 -0.11070643338E+02 -0.14758946998E+03  0.31936106956E+03  0.00000000000E+00 0.  1.
<mgrwt>
<rscale>  3 0.59312320E+03</rscale>
<asrwt>0</asrwt>
<pdfrwt beam="1">  1        2 0.77940725E-01 0.59312320E+03</pdfrwt>
<pdfrwt beam="2">  1       -2 0.26707835E-01 0.59312320E+03</pdfrwt>
<totfact> 0.77442841E+02</totfact>
</mgrwt>
</event>
<event>
 4    0  0.1264838E-002  0.5036401E+03  0.7546771E-02  0.1012833E+00
          2   -1    0    0  502    0  0.00000000000E+00  0.00000000000E+00  0.89042684617E+02  0.89042684617E+02  0.00000000000E+00 0. -1.
         -2   -1    0    0    0  501 -0.00000000000E+00 -0.00000000000E+00 -0.71216784597E+03  0.71216784597E+03  0.00000000000E+00 0.  1.
         25    1    1    2    0    0 -0.23313736875E+03 -0.30210160719E+02 -0.36892745683E+03  0.45497049895E+03  0.12500000000E+03 0.  0.
         21    1    1    2  502  501  0.23313736875E+03  0.30210160719E+02 -0.25419770453E+03  0.34624003163E+03  0.00000000000E+00 0.  1.
<mgrwt>
<rscale>  3 0.50364010E+03</rscale>
<asrwt>0</asrwt>
<pdfrwt beam="1">  1        2 0.13698875E-01 0.50364010E+03</pdfrwt>
<pdfrwt beam="2">  1       -2 0.10956428E+00 0.50364010E+03</pdfrwt>
<totfact> 0.30099429E+02</totfact>
</mgrwt>
</event>
<event>
 4    0  0.1264838E-002  0.4904509E+03  0.7546771E-02  0.1016302E+00
          1   -1    0    0  502    0  0.00000000000E+00  0.00000000000E+00  0.95104647695E+02  0.95104647695E+02  0.00000000000E+00 0.  1.
         -1   -1    0    0    0  501 -0.00000000000E+00 -0.00000000000E+00 -0.63230906117E+03  0.63230906117E+03  0.00000000000E+00 0. -1.
         25    1    1    2    0    0 -0.12373761430E+03 -0.15956891995E+03 -0.12491416106E+03  0.26833148350E+03  0.12500000000E+03 0.  0.
         21    1    1    2  502  501  0.12373761430E+03  0.15956891995E+03 -0.41229025241E+03  0.45908222536E+03  0.00000000000E+00 0. -1.
<mgrwt>
<rscale>  3 0.49045094E+03</rscale>
<asrwt>0</asrwt>
<pdfrwt beam="1">  1        1 0.14631484E-01 0.49045094E+03</pdfrwt>
<pdfrwt beam="2">  1       -1 0.97278317E-01 0.49045094E+03</pdfrwt>
<totfact> 0.41143063E+02</totfact>
</mgrwt>
</event>
<event>
 4    0  0.1264838E-002  0.4533010E+03  0.7546771E-02  0.1026742E+00
          2   -1    0    0  502    0  0.00000000000E+00  0.00000000000E+00  0.81117313788E+03  0.81117313788E+03  0.00000000000E+00 0. -1.
         -2   -1    0    0    0  501 -0.00000000000E+00 -0.00000000000E+00 -0.63328601426E+02  0.63328601426E+02  0.00000000000E+00 0.  1.
         25    1    1    2    0    0  0.11094012623E+03 -0.17758698140E+03  0.39621029293E+03  0.46524449894E+03  0.12500000000E+03 0.  0.
         21    1    1    2  502  501 -0.11094012623E+03  0.17758698140E+03  0.35163424352E+03  0.40925724036E+03  0.00000000000E+00 0. -1.
<mgrwt>
<rscale>  3 0.45330105E+03</rscale>
<asrwt>0</asrwt>
<pdfrwt beam="1">  1        2 0.12479586E+00 0.45330105E+03</pdfrwt>
<pdfrwt beam="2">  1       -2 0.97428623E-02 0.45330105E+03</pdfrwt>
<totfact> 0.24202265E+03</totfact>
</mgrwt>
</event>
<event>
 4    0  0.1314208E-002  0.5162277E+03  0.7546771E-02  0.1009628E+00
         -2   -1    0    0    0  501 -0.00000000000E+00  0.00000000000E+00  0.31584855692E+02  0.31584855692E+02  0.00000000000E+00 0. -1.
          2   -1    0    0  502    0  0.00000000000E+00 -0.00000000000E+00 -0.21093258596E+04  0.21093258596E+04  0.00000000000E+00 0.  1.
         25    1    1    2    0    0  0.16063269957E+03  0.13536009677E+03 -0.59331010967E+03  0.64169081824E+03  0.12500000000E+03 0.  0.
         21    1    1    2  502  501 -0.16063269957E+03 -0.13536009677E+03 -0.14844308943E+04  0.14992198971E+04  0.00000000000E+00 0.  1.
<mgrwt>
<rscale>  3 0.51622767E+03</rscale>
<asrwt>0</asrwt>
<pdfrwt beam="1">  1        2 0.32451172E+00 0.51622767E+03</pdfrwt>
<pdfrwt beam="2">  1       -2 0.48592079E-02 0.51622767E+03</pdfrwt>
<totfact> 0.13039587E+03</totfact>
</mgrwt>
</event>
<event>
 4    0  0.1264838E-002  0.5140190E+03  0.7546771E-02  0.1010183E+00
          1   -1    0    0  502    0  0.00000000000E+00  0.00000000000E+00  0.27810130449E+03  0.27810130449E+03  0.00000000000E+00 0. -1.
         -1   -1    0    0    0  501 -0.00000000000E+00 -0.00000000000E+00 -0.23751731244E+03  0.23751731244E+03  0.00000000000E+00 0.  1.
         25    1    1    2    0    0 -0.12828900778E+03  0.16551500104E+03  0.14277773404E+03  0.28260178065E+03  0.12500000000E+03 0.  0.
         21    1    1    2  502  501  0.12828900778E+03 -0.16551500104E+03 -0.10219374199E+03  0.23301683628E+03  0.00000000000E+00 0. -1.
<mgrwt>
<rscale>  3 0.51401897E+03</rscale>
<asrwt>0</asrwt>
<pdfrwt beam="1">  1        1 0.42784816E-01 0.51401897E+03</pdfrwt>
<pdfrwt beam="2">  1       -1 0.36541125E-01 0.51401897E+03</pdfrwt>
<totfact> 0.70011940E+02</totfact>
</mgrwt>
</event>
<event>
 4    0  0.1264838E-002  0.4664252E+03  0.7546771E-02  0.1022934E+00
          1   -1    0    0  502    0  0.00000000000E+00  0.00000000000E+00  0.20726413468E+04  0.20726413468E+04  0.00000000000E+00 0. -1.
         -1   -1    0    0    0  501 -0.00000000000E+00 -0.00000000000E+00 -0.26240965200E+02  0.26240965200E+02  0.00000000000E+00 0.  1.
         25    1    1    2    0    0 -0.13614394301E+03  0.16805805445E+03  0.10570785056E+04  0.10861945728E+04  0.12500000000E+03 0.  0.
         21    1    1    2  502  501  0.13614394301E+03 -0.16805805445E+03  0.98932187600E+03  0.10126877392E+04  0.00000000000E+00 0. -1.
<mgrwt>
<rscale>  3 0.46642517E+03</rscale>
<asrwt>0</asrwt>
<pdfrwt beam="1">  1        1 0.31886777E+00 0.46642517E+03</pdfrwt>
<pdfrwt beam="2">  1       -1 0.40370732E-02 0.46642517E+03</pdfrwt>
<totfact> 0.71994196E+02</totfact>
</mgrwt>
</event>
<event>
 4    0  0.1264838E-002  0.5667413E+03  0.7546771E-02  0.9976916E-01
          2   -1    0    0  502    0  0.00000000000E+00  0.00000000000E+00  0.14207724564E+04  0.14207724564E+04  0.00000000000E+00 0.  1.
         -2   -1    0    0    0  501 -0.00000000000E+00 -0.00000000000E+00 -0.56517798016E+02  0.56517798016E+02  0.00000000000E+00 0. -1.
         25    1    1    2    0    0 -0.14585983321E+03 -0.17200911976E+03  0.33031907244E+03  0.41904405239E+03  0.12500000000E+03 0.  0.
         21    1    1    2  502  501  0.14585983321E+03  0.17200911976E+03  0.10339355859E+04  0.10582462020E+04  0.00000000000E+00 0.  1.
<mgrwt>
<rscale>  3 0.56674132E+03</rscale>
<asrwt>0</asrwt>
<pdfrwt beam="1">  1        2 0.21858035E+00 0.56674132E+03</pdfrwt>
<pdfrwt beam="2">  1       -2 0.86950469E-02 0.56674132E+03</pdfrwt>
<totfact> 0.12329335E+03</totfact>
</mgrwt>
</event>
<event>
 4    0  0.1264838E-002  0.6107381E+03  0.7546771E-02  0.9883375E-01
          2   -1    0    0  502    0  0.00000000000E+00  0.00000000000E+00  0.46427315198E+03  0.46427315198E+03  0.00000000000E+00 0. -1.
         -2   -1    0    0    0  501 -0.00000000000E+00 -0.00000000000E+00 -0.20085213636E+03  0.20085213636E+03  0.00000000000E+00 0.  1.
         25    1    1    2    0    0  0.70798173590E+02  0.27874815309E+03  0.78697307398E+02  0.32331282131E+03  0.12500000000E+03 0.  0.
         21    1    1    2  502  501 -0.70798173590E+02 -0.27874815309E+03  0.18472370822E+03  0.34181246702E+03  0.00000000000E+00 0. -1.
<mgrwt>
<rscale>  3 0.61073809E+03</rscale>
<asrwt>0</asrwt>
<pdfrwt beam="1">  1        2 0.71426638E-01 0.61073809E+03</pdfrwt>
<pdfrwt beam="2">  1       -2 0.30900329E-01 0.61073809E+03</pdfrwt>
<totfact> 0.65474903E+02</totfact>
</mgrwt>
</event>
<event>
 4    0  0.1264838E-002  0.6637063E+03  0.7546771E-02  0.9781395E-01
         -1   -1    0    0    0  501 -0.00000000000E+00  0.00000000000E+00  0.71871548167E+03  0.71871548167E+03  0.00000000000E+00 0. -1.
          1   -1    0    0  502    0  0.00000000000E+00 -0.00000000000E+00 -0.15322686518E+03  0.15322686518E+03  0.00000000000E+00 0.  1.
         25    1    1    2    0    0  0.19997526878E+03  0.78672487302E+02  0.60441992056E+03  0.65355023430E+03  0.12500000000E+03 0.  0.
         21    1    1    2  502  501 -0.19997526878E+03 -0.78672487302E+02 -0.38931304071E+02  0.21839211254E+03  0.00000000000E+00 0.  1.
<mgrwt>
<rscale>  3 0.66370632E+03</rscale>
<asrwt>0</asrwt>
<pdfrwt beam="1">  1        1 0.23573364E-01 0.66370632E+03</pdfrwt>
<pdfrwt beam="2">  1       -1 0.11057161E+00 0.66370632E+03</pdfrwt>
<totfact> 0.16184299E+02</totfact>
</mgrwt>
</event>
<event>
 4    0  0.1264838E-002  0.5760614E+03  0.7546771E-02  0.9956355E-01
         -1   -1    0    0    0  501 -0.00000000000E+00  0.00000000000E+00  0.19241651219E+03  0.19241651219E+03  0.00000000000E+00 0. -1.
          1   -1    0    0  502    0  0.00000000000E+00 -0.00000000000E+00 -0.43115680204E+03  0.43115680204E+03  0.00000000000E+00 0.  1.
         25    1    1    2    0    0 -0.25673407044E+03  0.50383556769E+02 -0.21479211939E+03  0.36084836188E+03  0.12500000000E+03 0.  0.
         21    1    1    2  502  501  0.25673407044E+03 -0.50383556769E+02 -0.23948170461E+02  0.26272495235E+03  0.00000000000E+00 0. -1.
<mgrwt>
<rscale>  3 0.57606141E+03</rscale>
<asrwt>0</asrwt>
<pdfrwt beam="1">  1        1 0.66331816E-01 0.57606141E+03</pdfrwt>
<pdfrwt beam="2">  1       -1 0.29602540E-01 0.57606141E+03</pdfrwt>
<totfact> 0.57212878E+02</totfact>
</mgrwt>
</event>
<event>
 4    0  0.1430501E-002  0.5829630E+03  0.7546771E-02  0.9941397E-01
         -1   -1    0    0    0  501 -0.00000000000E+00  0.00000000000E+00  0.22366122962E+03  0.22366122962E+03  0.00000000000E+00 0.  1.
          1   -1    0    0  502    0  0.00000000000E+00 -0.00000000000E+00 -0.37986672899E+03  0.37986672899E+03  0.00000000000E+00 0. -1.
         25    1    1    2    0    0 -0.12067802451E+03 -0.17617752587E+03  0.10271015294E+03  0.26791058534E+03  0.12500000000E+03 0.  0.
         21    1    1    2  502  501  0.12067802451E+03  0.17617752587E+03 -0.25891565231E+03  0.33561737326E+03  0.00000000000E+00 0. -1.
<mgrwt>
<rscale>  3 0.58296298E+03</rscale>
<asrwt>0</asrwt>
<pdfrwt beam="1">  1        1 0.58441034E-01 0.58296298E+03</pdfrwt>
<pdfrwt beam="2">  1       -1 0.34409420E-01 0.58296298E+03</pdfrwt>
<totfact> 0.51958065E+02</totfact>
</mgrwt>
</event>
<event>
 4    0  0.1264838E-002  0.4960776E+03  0.7546771E-02  0.1014808E+00
         -2   -1    0    0    0  501 -0.00000000000E+00  0.00000000000E+00  0.52722088118E+02  0.52722088118E+02  0.00000000000E+00 0. -1.
          2   -1    0    0  502    0  0.00000000000E+00 -0.00000000000E+00 -0.11669349648E+04  0.11669349648E+04  0.00000000000E+00 0.  1.
         25    1    1    2    0    0 -0.14893934117E+03  0.16054567771E+03 -0.40202130342E+03  0.47455660398E+03  0.12500000000E+03 0.  0.
         21    1    1    2  502  501  0.14893934117E+03 -0.16054567771E+03 -0.71219157331E+03  0.74510044899E+03  0.00000000000E+00 0.  1.
<mgrwt>
<rscale>  3 0.49607761E+03</rscale>
<asrwt>0</asrwt>
<pdfrwt beam="1">  1        2 0.17952845E+00 0.49607761E+03</pdfrwt>
<pdfrwt beam="2">  1       -2 0.81110906E-02 0.49607761E+03</pdfrwt>
<totfact> 0.19275600E+03</totfact>
</mgrwt>
</event>
<event>
 4    0  0.1264838E-002  0.7373978E+03  0.7546771E-02  0.9655331E-01
          1   -1    0    0  502    0  0.00000000000E+00  0.00000000000E+00  0.18084900414E+03  0.18084900414E+03  0.00000000000E+00 0.  1.
         -1   -1    0    0    0  501 -0.00000000000E+00 -0.00000000000E+00 -0.75167069063E+03  0.75167069063E+03  0.00000000000E+00 0. -1.
         25    1    1    2    0    0  0.98113927536E+02  0.34351810786E+03 -0.32478450384E+03  0.49873941807E+03  0.12500000000E+03 0.  0.
         21    1    1    2  502  501 -0.98113927536E+02 -0.34351810786E+03 -0.24603718265E+03  0.43378027669E+03  0.00000000000E+00 0.  1.
<mgrwt>
<rscale>  3 0.73739785E+03</rscale>
<asrwt>0</asrwt>
<pdfrwt beam="1">  1        1 0.27822923E-01 0.73739785E+03</pdfrwt>
<pdfrwt beam="2">  1       -1 0.11564165E+00 0.73739785E+03</pdfrwt>
<totfact> 0.11670888E+02</totfact>
</mgrwt>
</event>
<event>
 4    0  0.1264838E-002  0.8548561E+03  0.7546771E-02  0.9483842E-01
          2   -1    0    0  502    0  0.00000000000E+00  0.00000000000E+00  0.42001840882E+03  0.42001840882E+03  0.00000000000E+00 0. -1.
         -2   -1    0    0    0  501 -0.00000000000E+00 -0.00000000000E+00 -0.43496839626E+03  0.43496839626E+03  0.00000000000E+00 0.  1.
         25    1    1    2    0    0  0.37206039353E+03 -0.27500537694E+02 -0.19682118592E+03  0.43994180891E+03  0.12500000000E+03 0.  0.
         21    1    1    2  502  501 -0.37206039353E+03  0.27500537694E+02  0.18187119848E+03  0.41504499617E+03  0.00000000000E+00 0. -1.
<mgrwt>
<rscale>  3 0.85485609E+03</rscale>
<asrwt>0</asrwt>
<pdfrwt beam="1">  1        2 0.64618217E-01 0.85485609E+03</pdfrwt>
<pdfrwt beam="2">  1       -2 0.66918215E-01 0.85485609E+03</pdfrwt>
<totfact> 0.15516776E+02</totfact>
</mgrwt>
</event>
<event>
 4    0  0.1264838E-002  0.4792385E+03  0.7546771E-02  0.1019345E+00
          1   -1    0    0  502    0  0.00000000000E+00  0.00000000000E+00  0.34485950078E+03  0.34485950078E+03  0.00000000000E+00 0.  1.
         -1   -1    0    0    0  501 -0.00000000000E+00 -0.00000000000E+00 -0.16649503886E+03  0.16649503886E+03  0.00000000000E+00 0. -1.
         25    1    1    2    0    0  0.14558364473E+03  0.16778255135E+03  0.70799612785E+02  0.26454331842E+03  0.12500000000E+03 0.  0.
         21    1    1    2  502  501 -0.14558364473E+03 -0.16778255135E+03  0.10756484914E+03  0.24681122122E+03  0.00000000000E+00 0. -1.
<mgrwt>
<rscale>  3 0.47923855E+03</rscale>
<asrwt>0</asrwt>
<pdfrwt beam="1">  1        1 0.53055308E-01 0.47923855E+03</pdfrwt>
<pdfrwt beam="2">  1       -1 0.25614621E-01 0.47923855E+03</pdfrwt>
<totfact> 0.98343146E+02</totfact>
</mgrwt>
</event>
<event>
 4    0  0.1264838E-002  0.6065719E+03  0.7546771E-02  0.9891865E-01
          1   -1    0    0  502    0  0.00000000000E+00  0.00000000000E+00  0.67939223252E+03  0.67939223252E+03  0.00000000000E+00 0. -1.
         -1   -1    0    0    0  501 -0.00000000000E+00 -0.00000000000E+00 -0.13538918782E+03  0.13538918782E+03  0.00000000000E+00 0.  1.
         25    1    1    2    0    0  0.34368040161E+02 -0.28613969411E+03  0.33158542220E+03  0.45676140264E+03  0.12500000000E+03 0.  0.
         21    1    1    2  502  501 -0.34368040161E+02  0.28613969411E+03  0.21241762249E+03  0.35802001770E+03  0.00000000000E+00 0.  1.
<mgrwt>
<rscale>  3 0.60657188E+03</rscale>
<asrwt>0</asrwt>
<pdfrwt beam="1">  1        1 0.10452188E+00 0.60657188E+03</pdfrwt>
<pdfrwt beam="2">  1       -1 0.20829106E-01 0.60657188E+03</pdfrwt>
<totfact> 0.55007594E+02</totfact>
</mgrwt>
</event>
<event>
 4    0  0.1264838E-002  0.5966448E+03  0.7546771E-02  0.9912392E-01
         -3   -1    0    0    0  501 -0.00000000000E+00  0.00000000000E+00  0.40112432312E+03  0.40112432312E+03  0.00000000000E+00 0. -1.
          3   -1    0    0  502    0  0.00000000000E+00 -0.00000000000E+00 -0.22186700796E+03  0.22186700796E+03  0.00000000000E+00 0.  1.
         25    1    1    2    0    0 -0.83004516145E+02  0.22755333160E+03 -0.63703376524E+02  0.27991675299E+03  0.12500000000E+03 0.  0.
         21    1    1    2  502  501  0.83004516145E+02 -0.22755333160E+03  0.24296069169E+03  0.34307457809E+03  0.00000000000E+00 0. -1.
<mgrwt>
<rscale>  3 0.59664480E+03</rscale>
<asrwt>0</asrwt>
<pdfrwt beam="1">  1        3 0.34133386E-01 0.59664480E+03</pdfrwt>
<pdfrwt beam="2">  1       -3 0.61711434E-01 0.59664480E+03</pdfrwt>
<totfact> 0.56913828E+01</totfact>
</mgrwt>
</event>
<event>
 4    0  0.1264838E-002  0.4978798E+03  0.7546771E-02  0.1014334E+00
         -2   -1    0    0    0  501 -0.00000000000E+00  0.00000000000E+00  0.21881609242E+02  0.21881609242E+02  0.00000000000E+00 0.  1.
          2   -1    0    0  502    0  0.00000000000E+00 -0.00000000000E+00 -0.28321073930E+04  0.28321073930E+04  0.00000000000E+00 0. -1.
         25    1    1    2    0    0 -0.19779148884E+03  0.12264118618E+03 -0.14044242045E+04  0.14290537708E+04  0.12500000000E+03 0.  0.
         21    1    1    2  502  501  0.19779148884E+03 -0.12264118618E+03 -0.14058015793E+04  0.14249352315E+04  0.00000000000E+00 0. -1.
<mgrwt>
<rscale>  3 0.49787977E+03</rscale>
<asrwt>0</asrwt>
<pdfrwt beam="1">  1        2 0.43570886E+00 0.49787977E+03</pdfrwt>
<pdfrwt beam="2">  1       -2 0.33664012E-02 0.49787977E+03</pdfrwt>
<totfact> 0.90201123E+02</totfact>
</mgrwt>
</event>
<event>
 4    0  0.1264838E-002  0.4935445E+03  0.7546771E-02  0.1015478E+00
          2   -1    0    0  502    0  0.00000000000E+00  0.00000000000E+00  0.94952095739E+03  0.94952095739E+03  0.00000000000E+00 0.  1.
         -2   -1    0    0    0  501 -0.00000000000E+00 -0.00000000000E+00 -0.64133971399E+02  0.64133971399E+02  0.00000000000E+00 0. -1.
         25    1    1    2    0    0  0.12369408191E+03  0.19495741233E+03  0.46061777552E+03  0.53019086530E+03  0.12500000000E+03 0.  0.
         21    1    1    2  502  501 -0.12369408191E+03 -0.19495741233E+03  0.42476921048E+03  0.48346406350E+03  0.00000000000E+00 0. -1.
<mgrwt>
<rscale>  3 0.49354453E+03</rscale>
<asrwt>0</asrwt>
<pdfrwt beam="1">  1        2 0.14608014E+00 0.49354453E+03</pdfrwt>
<pdfrwt beam="2">  1       -2 0.98667655E-02 0.49354453E+03</pdfrwt>
<totfact> 0.19154558E+03</totfact>
</mgrwt>
</event>
<event>
 4    0  0.1264838E-002  0.5525734E+03  0.7546771E-02  0.1000900E+00
          2   -1    0    0  502    0  0.00000000000E+00  0.00000000000E+00  0.14343786641E+03  0.14343786641E+03  0.00000000000E+00 0.  1.
         -2   -1    0    0    0  501 -0.00000000000E+00 -0.00000000000E+00 -0.53217707488E+03  0.53217707488E+03  0.00000000000E+00 0. -1.
         25    1    1    2    0    0 -0.19225012447E+03  0.13378773471E+03 -0.60360127623E+02  0.27226386710E+03  0.12500000000E+03 0.  0.
         21    1    1    2  502  501  0.19225012447E+03 -0.13378773471E+03 -0.32837908084E+03  0.40335107419E+03  0.00000000000E+00 0. -1.
<mgrwt>
<rscale>  3 0.55257341E+03</rscale>
<asrwt>0</asrwt>
<pdfrwt beam="1">  1        2 0.22067364E-01 0.55257341E+03</pdfrwt>
<pdfrwt beam="2">  1       -2 0.81873396E-01 0.55257341E+03</pdfrwt>
<totfact> 0.33581746E+02</totfact>
</mgrwt>
</event>
<event>
 4    0  0.1264838E-002  0.8561123E+03  0.7546771E-02  0.9482170E-01
          1   -1    0    0  502    0  0.00000000000E+00  0.00000000000E+00  0.17333829595E+04  0.17333829595E+04  0.00000000000E+00 0.  1.
         -1   -1    0    0    0  501 -0.00000000000E+00 -0.00000000000E+00 -0.10570778524E+03  0.10570778524E+03  0.00000000000E+00 0. -1.
         25    1    1    2    0    0 -0.25913951181E+03 -0.79539342660E+01  0.15380893899E+04  0.15647876926E+04  0.12500000000E+03 0.  0.
         21    1    1    2  502  501  0.25913951181E+03  0.79539342660E+01  0.89585784385E+02  0.27430305215E+03  0.00000000000E+00 0. -1.
<mgrwt>
<rscale>  3 0.85611231E+03</rscale>
<asrwt>0</asrwt>
<pdfrwt beam="1">  1        1 0.26667428E+00 0.85611231E+03</pdfrwt>
<pdfrwt beam="2">  1       -1 0.16262738E-01 0.85611231E+03</pdfrwt>
<totfact> 0.13231502E+02</totfact>
</mgrwt>
</event>
<event>
 4    0  0.1264838E-002  0.4563417E+03  0.7546771E-02  0.1025848E+00
          2   -1    0    0  502    0  0.00000000000E+00  0.00000000000E+00  0.32142596301E+03  0.32142596301E+03  0.00000000000E+00 0.  1.
         -2   -1    0    0    0  501 -0.00000000000E+00 -0.00000000000E+00 -0.16197178814E+03  0.16197178814E+03  0.00000000000E+00 0. -1.
         25    1    1    2    0    0  0.18581925620E+03  0.94744621430E+02  0.11982390375E+03  0.27108689967E+03  0.12500000000E+03 0.  0.
         21    1    1    2  502  501 -0.18581925620E+03 -0.94744621430E+02  0.39630271115E+02  0.21231085147E+03  0.00000000000E+00 0. -1.
<mgrwt>
<rscale>  3 0.45634171E+03</rscale>
<asrwt>0</asrwt>
<pdfrwt beam="1">  1        2 0.49450148E-01 0.45634171E+03</pdfrwt>
<pdfrwt beam="2">  1       -2 0.24918737E-01 0.45634171E+03</pdfrwt>
<totfact> 0.14600417E+03</totfact>
</mgrwt>
</event>
<event>
 4    0  0.1264838E-002  0.5064464E+03  0.7546771E-02  0.1012110E+00
          1   -1    0    0  502    0  0.00000000000E+00  0.00000000000E+00  0.27752410872E+03  0.27752410872E+03  0.00000000000E+00 0.  1.
         -1   -1    0    0    0  501 -0.00000000000E+00 -0.00000000000E+00 -0.23105016819E+03  0.23105016819E+03  0.00000000000E+00 0. -1.
         25    1    1    2    0    0  0.22314243467E+03 -0.54260531189E+02  0.86642823020E+02  0.27544278930E+03  0.12500000000E+03 0.  0.
         21    1    1    2  502  501 -0.22314243467E+03  0.54260531189E+02 -0.40168882491E+02  0.23313148761E+03  0.00000000000E+00 0.  1.
<mgrwt>
<rscale>  3 0.50644641E+03</rscale>
<asrwt>0</asrwt>
<pdfrwt beam="1">  1        1 0.42696017E-01 0.50644641E+03</pdfrwt>
<pdfrwt beam="2">  1       -1 0.35546180E-01 0.50644641E+03</pdfrwt>
<totfact> 0.73731707E+02</totfact>
</mgrwt>
</event>
<event>
 4    0  0.1264838E-002  0.7967693E+03  0.7546771E-02  0.9564705E-01
          1   -1    0    0  502    0  0.00000000000E+00  0.00000000000E+00  0.25842099881E+03  0.25842099881E+03  0.00000000000E+00 0. -1.
         -1   -1    0    0    0  501 -0.00000000000E+00 -0.00000000000E+00 -0.61415415323E+03  0.61415415323E+03  0.00000000000E+00 0.  1.
         25    1    1    2    0    0  0.34219898691E+02  0.33624852142E+03  0.27725775670E+02  0.36142466471E+03  0.12500000000E+03 0.  0.
         21    1    1    2  502  501 -0.34219898691E+02 -0.33624852142E+03 -0.38345893009E+03  0.51115048732E+03  0.00000000000E+00 0.  1.
<mgrwt>
<rscale>  3 0.79676930E+03</rscale>
<asrwt>0</asrwt>
<pdfrwt beam="1">  1        1 0.39757077E-01 0.79676930E+03</pdfrwt>
<pdfrwt beam="2">  1       -1 0.94485255E-01 0.79676930E+03</pdfrwt>
<totfact> 0.11692008E+02</totfact>
</mgrwt>
</event>
<event>
 4    0  0.1264838E-002  0.4912775E+03  0.7546771E-02  0.1016081E+00
          2   -1    0    0  502    0  0.00000000000E+00  0.00000000000E+00  0.30318966065E+03  0.30318966065E+03  0.00000000000E+00 0.  1.
         -2   -1    0    0    0  501 -0.00000000000E+00 -0.00000000000E+00 -0.19901208181E+03  0.19901208181E+03  0.00000000000E+00 0. -1.
         25    1    1    2    0    0  0.21802173101E+03  0.10422012933E+02 -0.17803493447E+02  0.25215879506E+03  0.12500000000E+03 0.  0.
         21    1    1    2  502  501 -0.21802173101E+03 -0.10422012933E+02  0.12198107229E+03  0.25004294740E+03  0.00000000000E+00 0.  1.
<mgrwt>
<rscale>  3 0.49127754E+03</rscale>
<asrwt>0</asrwt>
<pdfrwt beam="1">  1        2 0.46644563E-01 0.49127754E+03</pdfrwt>
<pdfrwt beam="2">  1       -2 0.30617243E-01 0.49127754E+03</pdfrwt>
<totfact> 0.10714156E+03</totfact>
</mgrwt>
</event>
<event>
 4    0  0.1264838E-002  0.6248866E+03  0.7546771E-02  0.9855078E-01
         -1   -1    0    0    0  501 -0.00000000000E+00  0.00000000000E+00  0.34422200236E+03  0.34422200236E+03  0.00000000000E+00 0.  1.
          1   -1    0    0  502    0  0.00000000000E+00 -0.00000000000E+00 -0.28359838262E+03  0.28359838262E+03  0.00000000000E+00 0. -1.
         25    1    1    2    0    0  0.20031506880E+03  0.22315185118E+03  0.38015269282E+02  0.32709789998E+03  0.12500000000E+03 0.  0.
         21    1    1    2  502  501 -0.20031506880E+03 -0.22315185118E+03  0.22608350460E+02  0.30072248500E+03  0.00000000000E+00 0. -1.
<mgrwt>
<rscale>  3 0.62488656E+03</rscale>
<asrwt>0</asrwt>
<pdfrwt beam="1">  1        1 0.43630521E-01 0.62488656E+03</pdfrwt>
<pdfrwt beam="2">  1       -1 0.52957231E-01 0.62488656E+03</pdfrwt>
<totfact> 0.34386496E+02</totfact>
</mgrwt>
</event>
<event>
 4    0  0.1264838E-002  0.4527948E+03  0.7546771E-02  0.1026892E+00
         -4   -1    0    0    0  501 -0.00000000000E+00  0.00000000000E+00  0.12437506707E+03  0.12437506707E+03  0.00000000000E+00 0.  1.
          4   -1    0    0  502    0  0.00000000000E+00 -0.00000000000E+00 -0.41210663341E+03  0.41210663341E+03  0.00000000000E+00 0. -1.
         25    1    1    2    0    0 -0.15234782323E+03  0.14061375264E+03 -0.18746964200E+03  0.30618940763E+03  0.12500000000E+03 0.  0.
         21    1    1    2  502  501  0.15234782323E+03 -0.14061375264E+03 -0.10026192435E+03  0.23029229285E+03  0.00000000000E+00 0. -1.
<mgrwt>
<rscale>  3 0.45279483E+03</rscale>
<asrwt>0</asrwt>
<pdfrwt beam="1">  1        4 0.63401020E-01 0.45279483E+03</pdfrwt>
<pdfrwt beam="2">  1       -4 0.19134626E-01 0.45279483E+03</pdfrwt>
<totfact> 0.11253228E+02</totfact>
</mgrwt>
</event>
<event>
 4    0  0.1264838E-002  0.4619450E+03  0.7546771E-02  0.1024219E+00
          2   -1    0    0  502    0  0.00000000000E+00  0.00000000000E+00  0.33202384106E+04  0.33202384106E+04  0.00000000000E+00 0. -1.
         -2   -1    0    0    0  501 -0.00000000000E+00 -0.00000000000E+00 -0.16067606555E+02  0.16067606555E+02  0.00000000000E+00 0.  1.
         25    1    1    2    0    0 -0.13040865544E+03 -0.16922238781E+03  0.16763794427E+04  0.16945547114E+04  0.12500000000E+03 0.  0.
         21    1    1    2  502  501  0.13040865544E+03  0.16922238781E+03  0.16277913613E+04  0.16417513057E+04  0.00000000000E+00 0. -1.
<mgrwt>
<rscale>  3 0.46194495E+03</rscale>
<asrwt>0</asrwt>
<pdfrwt beam="1">  1        2 0.51080536E+00 0.46194495E+03</pdfrwt>
<pdfrwt beam="2">  1       -2 0.24719421E-02 0.46194495E+03</pdfrwt>
<totfact> 0.72469671E+02</totfact>
</mgrwt>
</event>
<event>
 4    0  0.1264838E-002  0.4705054E+03  0.7546771E-02  0.1021778E+00
         -2   -1    0    0    0  501 -0.00000000000E+00  0.00000000000E+00  0.34390934592E+02  0.34390934592E+02  0.00000000000E+00 0. -1.
          2   -1    0    0  502    0  0.00000000000E+00 -0.00000000000E+00 -0.16092563574E+04  0.16092563574E+04  0.00000000000E+00 0.  1.
         25    1    1    2    0    0 -0.19846787068E+03  0.89354111462E+02 -0.91573551874E+03  0.94951050190E+03  0.12500000000E+03 0.  0.
         21    1    1    2  502  501  0.19846787068E+03 -0.89354111462E+02 -0.65912990407E+03  0.69413679010E+03  0.00000000000E+00 0.  1.
<mgrwt>
<rscale>  3 0.47050539E+03</rscale>
<asrwt>0</asrwt>
<pdfrwt beam="1">  1        2 0.24757789E+00 0.47050539E+03</pdfrwt>
<pdfrwt beam="2">  1       -2 0.52909132E-02 0.47050539E+03</pdfrwt>
<totfact> 0.21300444E+03</totfact>
</mgrwt>
</event>
<event>
 4    0  0.1264838E-002  0.4522109E+03  0.7546771E-02  0.1027065E+00
          2   -1    0    0  502    0  0.00000000000E+00  0.00000000000E+00  0.52591397696E+02  0.52591397696E+02  0.00000000000E+00 0.  1.
         -2   -1    0    0    0  501 -0.00000000000E+00 -0.00000000000E+00 -0.97209180165E+03  0.97209180165E+03  0.00000000000E+00 0. -1.
         25    1    1    2    0    0 -0.20169321379E+02  0.20735417331E+03 -0.52748624880E+03  0.58074891079E+03  0.12500000000E+03 0.  0.
         21    1    1    2  502  501  0.20169321379E+02 -0.20735417331E+03 -0.39201415515E+03  0.44393428855E+03  0.00000000000E+00 0. -1.
<mgrwt>
<rscale>  3 0.45221086E+03</rscale>
<asrwt>0</asrwt>
<pdfrwt beam="1">  1        2 0.80909846E-02 0.45221086E+03</pdfrwt>
<pdfrwt beam="2">  1       -2 0.14955258E+00 0.45221086E+03</pdfrwt>
<totfact> 0.26807689E+02</totfact>
</mgrwt>
</event>
<event>
 4    0  0.1264838E-002  0.5206473E+03  0.7546771E-02  0.1008526E+00
          1   -1    0    0  502    0  0.00000000000E+00  0.00000000000E+00  0.12000243052E+03  0.12000243052E+03  0.00000000000E+00 0. -1.
         -1   -1    0    0    0  501 -0.00000000000E+00 -0.00000000000E+00 -0.56472515543E+03  0.56472515543E+03  0.00000000000E+00 0.  1.
         25    1    1    2    0    0 -0.23059774962E+03  0.37405443573E+02 -0.33365276161E+03  0.42605592904E+03  0.12500000000E+03 0.  0.
         21    1    1    2  502  501  0.23059774962E+03 -0.37405443573E+02 -0.11106996330E+03  0.25867165690E+03  0.00000000000E+00 0. -1.
<mgrwt>
<rscale>  3 0.52064726E+03</rscale>
<asrwt>0</asrwt>
<pdfrwt beam="1">  1        1 0.18461912E-01 0.52064726E+03</pdfrwt>
<pdfrwt beam="2">  1       -1 0.86880793E-01 0.52064726E+03</pdfrwt>
<totfact> 0.38679044E+02</totfact>
</mgrwt>
</event>
<event>
 4    0  0.1264838E-002  0.4864570E+03  0.7546771E-02  0.1017376E+00
         -2   -1    0    0    0  501 -0.00000000000E+00  0.00000000000E+00  0.30148538000E+03  0.30148538000E+03  0.00000000000E+00 0.  1.
          2   -1    0    0  502    0  0.00000000000E+00 -0.00000000000E+00 -0.19622876241E+03  0.19622876241E+03  0.00000000000E+00 0. -1.
         25    1    1    2    0    0 -0.19898037289E+03 -0.62412721366E+02 -0.36075946088E+02  0.24579465102E+03  0.12500000000E+03 0.  0.
         21    1    1    2  502  501  0.19898037289E+03  0.62412721366E+02  0.14133256367E+03  0.25191949139E+03  0.00000000000E+00 0.  1.
<mgrwt>
<rscale>  3 0.48645700E+03</rscale>
<asrwt>0</asrwt>
<pdfrwt beam="1">  1        2 0.30189040E-01 0.48645700E+03</pdfrwt>
<pdfrwt beam="2">  1       -2 0.46382366E-01 0.48645700E+03</pdfrwt>
<totfact> 0.78202643E+02</totfact>
</mgrwt>
</event>
<event>
 4    0  0.1264838E-002  0.6222243E+03  0.7546771E-02  0.9860341E-01
         -2   -1    0    0    0  501 -0.00000000000E+00  0.00000000000E+00  0.41363340222E+03  0.41363340222E+03  0.00000000000E+00 0. -1.
          2   -1    0    0  502    0  0.00000000000E+00 -0.00000000000E+00 -0.23400131133E+03  0.23400131133E+03  0.00000000000E+00 0.  1.
         25    1    1    2    0    0  0.12998352228E+03  0.22808527699E+03  0.24143501794E+03  0.37793448842E+03  0.12500000000E+03 0.  0.
         21    1    1    2  502  501 -0.12998352228E+03 -0.22808527699E+03 -0.61802927051E+02  0.26970022513E+03  0.00000000000E+00 0.  1.
<mgrwt>
<rscale>  3 0.62222426E+03</rscale>
<asrwt>0</asrwt>
<pdfrwt beam="1">  1        2 0.36000202E-01 0.62222426E+03</pdfrwt>
<pdfrwt beam="2">  1       -2 0.63635908E-01 0.62222426E+03</pdfrwt>
<totfact> 0.33447791E+02</totfact>
</mgrwt>
</event>
<event>
 4    0  0.1264838E-002  0.5389157E+03  0.7546771E-02  0.1004093E+00
         -2   -1    0    0    0  501 -0.00000000000E+00  0.00000000000E+00  0.19211306118E+02  0.19211306118E+02  0.00000000000E+00 0. -1.
          2   -1    0    0  502    0  0.00000000000E+00 -0.00000000000E+00 -0.37794163581E+04  0.37794163581E+04  0.00000000000E+00 0.  1.
         25    1    1    2    0    0 -0.24818199795E+03  0.14357692727E+02 -0.15822246368E+04  0.16065056019E+04  0.12500000000E+03 0.  0.
         21    1    1    2  502  501  0.24818199795E+03 -0.14357692727E+02 -0.21779804151E+04  0.21921220623E+04  0.00000000000E+00 0.  1.
<mgrwt>
<rscale>  3 0.53891567E+03</rscale>
<asrwt>0</asrwt>
<pdfrwt beam="1">  1        2 0.58144856E+00 0.53891567E+03</pdfrwt>
<pdfrwt beam="2">  1       -2 0.29555861E-02 0.53891567E+03</pdfrwt>
<totfact> 0.26526901E+02</totfact>
</mgrwt>
</event>
<event>
 4    0  0.1264838E-002  0.5876928E+03  0.7546771E-02  0.9931274E-01
         -1   -1    0    0    0  501 -0.00000000000E+00  0.00000000000E+00  0.63846918133E+03  0.63846918133E+03  0.00000000000E+00 0.  1.
          1   -1    0    0  502    0  0.00000000000E+00 -0.00000000000E+00 -0.13523865958E+03  0.13523865958E+03  0.00000000000E+00 0. -1.
         25    1    1    2    0    0  0.30868573161E+02 -0.27750678401E+03  0.22701491805E+03  0.38095099028E+03  0.12500000000E+03 0.  0.
         21    1    1    2  502  501 -0.30868573161E+02  0.27750678401E+03  0.27621560370E+03  0.39275685062E+03  0.00000000000E+00 0. -1.
<mgrwt>
<rscale>  3 0.58769283E+03</rscale>
<asrwt>0</asrwt>
<pdfrwt beam="1">  1        1 0.20805948E-01 0.58769283E+03</pdfrwt>
<pdfrwt beam="2">  1       -1 0.98226026E-01 0.58769283E+03</pdfrwt>
<totfact> 0.25143692E+02</totfact>
</mgrwt>
</event>
<event>
 4    0  0.1264838E-002  0.5545209E+03  0.7546771E-02  0.1000453E+00
          2   -1    0    0  502    0  0.00000000000E+00  0.00000000000E+00  0.18298940633E+03  0.18298940633E+03  0.00000000000E+00 0. -1.
         -2   -1    0    0    0  501 -0.00000000000E+00 -0.00000000000E+00 -0.42009733529E+03  0.42009733529E+03  0.00000000000E+00 0.  1.
         25    1    1    2    0    0  0.16242178416E+03 -0.20702614120E+03 -0.12928068341E+03  0.31871484780E+03  0.12500000000E+03 0.  0.
         21    1    1    2  502  501 -0.16242178416E+03  0.20702614120E+03 -0.10782724556E+03  0.28437189382E+03  0.00000000000E+00 0. -1.
<mgrwt>
<rscale>  3 0.55452092E+03</rscale>
<asrwt>0</asrwt>
<pdfrwt beam="1">  1        2 0.28152217E-01 0.55452092E+03</pdfrwt>
<pdfrwt beam="2">  1       -2 0.64630358E-01 0.55452092E+03</pdfrwt>
<totfact> 0.42677234E+02</totfact>
</mgrwt>
</event>
<event>
 4    0  0.1264838E-002  0.5354291E+03  0.7546771E-02  0.1004924E+00
          1   -1    0    0  502    0  0.00000000000E+00  0.00000000000E+00  0.17584288811E+04  0.17584288811E+04  0.00000000000E+00 0.  1.
         -1   -1    0    0    0  501 -0.00000000000E+00 -0.00000000000E+00 -0.40758585386E+02  0.40758585386E+02  0.00000000000E+00 0. -1.
         25    1    1    2    0    0  0.57513922815E+02 -0.23493325553E+03  0.65485875415E+03  0.70920129284E+03  0.12500000000E+03 0.  0.
         21    1    1    2  502  501 -0.57513922815E+02  0.23493325553E+03  0.10628115416E+04  0.10899861737E+04  0.00000000000E+00 0. -1.
<mgrwt>
<rscale>  3 0.53542908E+03</rscale>
<asrwt>0</asrwt>
<pdfrwt beam="1">  1        1 0.27052746E+00 0.53542908E+03</pdfrwt>
<pdfrwt beam="2">  1       -1 0.62705530E-02 0.53542908E+03</pdfrwt>
<totfact> 0.59081783E+02</totfact>
</mgrwt>
</event>
<event>
 4    0  0.1264838E-002  0.8574403E+03  0.7546771E-02  0.9480405E-01
          2   -1    0    0  502    0  0.00000000000E+00  0.00000000000E+00  0.80539226446E+03  0.80539226446E+03  0.00000000000E+00 0. -1.
         -2   -1    0    0    0  501 -0.00000000000E+00 -0.00000000000E+00 -0.22821298321E+03  0.22821298321E+03  0.00000000000E+00 0.  1.
         25    1    1    2    0    0  0.13865687270E+03  0.30213271306E+03  0.60337949618E+03  0.70014407165E+03  0.12500000000E+03 0.  0.
         21    1    1    2  502  501 -0.13865687270E+03 -0.30213271306E+03 -0.26200214931E+02  0.33346117602E+03  0.00000000000E+00 0. -1.
<mgrwt>
<rscale>  3 0.85744031E+03</rscale>
<asrwt>0</asrwt>
<pdfrwt beam="1">  1        2 0.12390650E+00 0.85744031E+03</pdfrwt>
<pdfrwt beam="2">  1       -2 0.35109690E-01 0.85744031E+03</pdfrwt>
<totfact> 0.26082179E+02</totfact>
</mgrwt>
</event>
<event>
 4    0  0.1264838E-002  0.6750158E+03  0.7546771E-02  0.9760939E-01
         -4   -1    0    0    0  501 -0.00000000000E+00  0.00000000000E+00  0.16728610862E+03  0.16728610862E+03  0.00000000000E+00 0. -1.
          4   -1    0    0  502    0  0.00000000000E+00 -0.00000000000E+00 -0.68093871038E+03  0.68093871038E+03  0.00000000000E+00 0.  1.
         25    1    1    2    0    0 -0.30730562199E+02  0.22147001199E+03 -0.56363494362E+03  0.61911443477E+03  0.12500000000E+03 0.  0.
         21    1    1    2  502  501  0.30730562199E+02 -0.22147001199E+03  0.49982341867E+02  0.22911038423E+03  0.00000000000E+00 0. -1.
<mgrwt>
<rscale>  3 0.67501581E+03</rscale>
<asrwt>0</asrwt>
<pdfrwt beam="1">  1        4 0.10475980E+00 0.67501581E+03</pdfrwt>
<pdfrwt beam="2">  1       -4 0.25736324E-01 0.67501581E+03</pdfrwt>
<totfact> 0.21133288E+01</totfact>
</mgrwt>
</event>
<event>
 4    0  0.1264838E-002  0.4630080E+03  0.7546771E-02  0.1023912E+00
         -1   -1    0    0    0  501 -0.00000000000E+00  0.00000000000E+00  0.14353050749E+03  0.14353050749E+03  0.00000000000E+00 0.  1.
          1   -1    0    0  502    0  0.00000000000E+00 -0.00000000000E+00 -0.37339864027E+03  0.37339864027E+03  0.00000000000E+00 0. -1.
         25    1    1    2    0    0  0.40101050625E+01 -0.20850748044E+03 -0.66658635509E+02  0.25211073763E+03  0.12500000000E+03 0.  0.
         21    1    1    2  502  501 -0.40101050625E+01  0.20850748044E+03 -0.16320949728E+03  0.26481841013E+03  0.00000000000E+00 0. -1.
<mgrwt>
<rscale>  3 0.46300798E+03</rscale>
<asrwt>0</asrwt>
<pdfrwt beam="1">  1        1 0.57445945E-01 0.46300798E+03</pdfrwt>
<pdfrwt beam="2">  1       -1 0.22081616E-01 0.46300798E+03</pdfrwt>
<totfact> 0.11383488E+03</totfact>
</mgrwt>
</event>
<event>
 4    0  0.1264838E-002  0.5197189E+03  0.7546771E-02  0.1008756E+00
          2   -1    0    0  502    0  0.00000000000E+00  0.00000000000E+00  0.21826640499E+03  0.21826640499E+03  0.00000000000E+00 0.  1.
         -2   -1    0    0    0  501 -0.00000000000E+00 -0.00000000000E+00 -0.30937852658E+03  0.30937852658E+03  0.00000000000E+00 0. -1.
         25    1    1    2    0    0  0.15506849154E+02 -0.23425173718E+03  0.22337993285E+02  0.26690508554E+03  0.12500000000E+03 0.  0.
         21    1    1    2  502  501 -0.15506849154E+02  0.23425173718E+03 -0.11345011487E+03  0.26073984603E+03  0.00000000000E+00 0. -1.
<mgrwt>
<rscale>  3 0.51971892E+03</rscale>
<asrwt>0</asrwt>
<pdfrwt beam="1">  1        2 0.33579447E-01 0.51971892E+03</pdfrwt>
<pdfrwt beam="2">  1       -2 0.47596696E-01 0.51971892E+03</pdfrwt>
<totfact> 0.65951300E+02</totfact>
</mgrwt>
</event>
<event>
 4    0  0.1264838E-002  0.4990061E+03  0.7546771E-02  0.1014039E+00
         -2   -1    0    0    0  501 -0.00000000000E+00  0.00000000000E+00  0.30204207780E+02  0.30204207780E+02  0.00000000000E+00 0.  1.
          2   -1    0    0  502    0  0.00000000000E+00 -0.00000000000E+00 -0.20610294849E+04  0.20610294849E+04  0.00000000000E+00 0. -1.
         25    1    1    2    0    0 -0.17992884822E+03  0.14710460236E+03 -0.97063486453E+03  0.10058683784E+04  0.12500000000E+03 0.  0.
         21    1    1    2  502  501  0.17992884822E+03 -0.14710460236E+03 -0.10601904126E+04  0.10853653143E+04  0.00000000000E+00 0. -1.
<mgrwt>
<rscale>  3 0.49900606E+03</rscale>
<asrwt>0</asrwt>
<pdfrwt beam="1">  1        2 0.31708150E+00 0.49900606E+03</pdfrwt>
<pdfrwt beam="2">  1       -2 0.46468005E-02 0.49900606E+03</pdfrwt>
<totfact> 0.14851387E+03</totfact>
</mgrwt>
</event>
<event>
 4    0  0.1264838E-002  0.6997295E+03  0.7546771E-02  0.9717695E-01
          2   -1    0    0  502    0  0.00000000000E+00  0.00000000000E+00  0.13341558638E+03  0.13341558638E+03  0.00000000000E+00 0. -1.
         -2   -1    0    0    0  501 -0.00000000000E+00 -0.00000000000E+00 -0.91747402210E+03  0.91747402210E+03  0.00000000000E+00 0.  1.
         25    1    1    2    0    0  0.59568763813E+02  0.26014565607E+03 -0.71775158627E+03  0.77589724809E+03  0.12500000000E+03 0.  0.
         21    1    1    2  502  501 -0.59568763813E+02 -0.26014565607E+03 -0.66306849444E+02  0.27499236040E+03  0.00000000000E+00 0. -1.
<mgrwt>
<rscale>  3 0.69972948E+03</rscale>
<asrwt>0</asrwt>
<pdfrwt beam="1">  1        2 0.20525474E-01 0.69972948E+03</pdfrwt>
<pdfrwt beam="2">  1       -2 0.14114985E+00 0.69972948E+03</pdfrwt>
<totfact> 0.98101597E+01</totfact>
</mgrwt>
</event>
<event>
 4    0  0.1264838E-002  0.5849727E+03  0.7546771E-02  0.9937083E-01
          1   -1    0    0  502    0  0.00000000000E+00  0.00000000000E+00  0.41125011091E+03  0.41125011091E+03  0.00000000000E+00 0. -1.
         -1   -1    0    0    0  501 -0.00000000000E+00 -0.00000000000E+00 -0.20802003497E+03  0.20802003497E+03  0.00000000000E+00 0.  1.
         25    1    1    2    0    0  0.86500397233E+02 -0.20099995735E+03  0.28970934196E+03  0.38397891139E+03  0.12500000000E+03 0.  0.
         21    1    1    2  502  501 -0.86500397233E+02  0.20099995735E+03 -0.86479266017E+02  0.23529123449E+03  0.00000000000E+00 0.  1.
<mgrwt>
<rscale>  3 0.58497269E+03</rscale>
<asrwt>0</asrwt>
<pdfrwt beam="1">  1        1 0.63269248E-01 0.58497269E+03</pdfrwt>
<pdfrwt beam="2">  1       -1 0.32003082E-01 0.58497269E+03</pdfrwt>
<totfact> 0.53169284E+02</totfact>
</mgrwt>
</event>
<event>
 4    0  0.1264838E-002  0.8378459E+03  0.7546771E-02  0.9506797E-01
         -2   -1    0    0    0  501 -0.00000000000E+00  0.00000000000E+00  0.75042779801E+02  0.75042779801E+02  0.00000000000E+00 0. -1.
          2   -1    0    0  502    0  0.00000000000E+00 -0.00000000000E+00 -0.23386186370E+04  0.23386186370E+04  0.00000000000E+00 0.  1.
         25    1    1    2    0    0  0.16272270432E+03  0.25909373428E+03 -0.37245816498E+03  0.49795414077E+03  0.12500000000E+03 0.  0.
         21    1    1    2  502  501 -0.16272270432E+03 -0.25909373428E+03 -0.18911176922E+04  0.19157072760E+04  0.00000000000E+00 0.  1.
<mgrwt>
<rscale>  3 0.83784591E+03</rscale>
<asrwt>0</asrwt>
<pdfrwt beam="1">  1        2 0.35978745E+00 0.83784591E+03</pdfrwt>
<pdfrwt beam="2">  1       -2 0.11545044E-01 0.83784591E+03</pdfrwt>
<totfact> 0.23962730E+02</totfact>
</mgrwt>
</event>
<event>
 4    0  0.1264838E-002  0.5278665E+03  0.7546771E-02  0.1006751E+00
          2   -1    0    0  502    0  0.00000000000E+00  0.00000000000E+00  0.36048775215E+03  0.36048775215E+03  0.00000000000E+00 0. -1.
         -2   -1    0    0    0  501 -0.00000000000E+00 -0.00000000000E+00 -0.19324029685E+03  0.19324029685E+03  0.00000000000E+00 0.  1.
         25    1    1    2    0    0  0.18659617949E+03  0.13122046334E+03 -0.16745421803E+02  0.26065754037E+03  0.12500000000E+03 0.  0.
         21    1    1    2  502  501 -0.18659617949E+03 -0.13122046334E+03  0.18399287711E+03  0.29307050863E+03  0.00000000000E+00 0. -1.
<mgrwt>
<rscale>  3 0.52786650E+03</rscale>
<asrwt>0</asrwt>
<pdfrwt beam="1">  1        2 0.55459654E-01 0.52786650E+03</pdfrwt>
<pdfrwt beam="2">  1       -2 0.29729276E-01 0.52786650E+03</pdfrwt>
<totfact> 0.93467307E+02</totfact>
</mgrwt>
</event>
<event>
 4    0  0.1264838E-002  0.4482239E+03  0.7546771E-02  0.1028253E+00
         -2   -1    0    0    0  501 -0.00000000000E+00  0.00000000000E+00  0.59628797980E+02  0.59628797980E+02  0.00000000000E+00 0. -1.
          2   -1    0    0  502    0  0.00000000000E+00 -0.00000000000E+00 -0.84231397198E+03  0.84231397198E+03  0.00000000000E+00 0.  1.
         25    1    1    2    0    0 -0.20216465629E+03  0.42969184221E+02 -0.42330069427E+03  0.48736575260E+03  0.12500000000E+03 0.  0.
         21    1    1    2  502  501  0.20216465629E+03 -0.42969184221E+02 -0.35938447973E+03  0.41457701735E+03  0.00000000000E+00 0.  1.
<mgrwt>
<rscale>  3 0.44822392E+03</rscale>
<asrwt>0</asrwt>
<pdfrwt beam="1">  1        2 0.12958676E+00 0.44822392E+03</pdfrwt>
<pdfrwt beam="2">  1       -2 0.91736617E-02 0.44822392E+03</pdfrwt>
<totfact> 0.25363210E+03</totfact>
</mgrwt>
</event>
<event>
 4    0  0.1264838E-002  0.5005617E+03  0.7546771E-02  0.1013632E+00
         -3   -1    0    0    0  501 -0.00000000000E+00  0.00000000000E+00  0.11154809454E+04  0.11154809454E+04  0.00000000000E+00 0.  1.
          3   -1    0    0  502    0  0.00000000000E+00 -0.00000000000E+00 -0.56155592545E+02  0.56155592545E+02  0.00000000000E+00 0. -1.
         25    1    1    2    0    0  0.15411788891E+03  0.16806851474E+03  0.69242900166E+03  0.73965010084E+03  0.12500000000E+03 0.  0.
         21    1    1    2  502  501 -0.15411788891E+03 -0.16806851474E+03  0.36689635121E+03  0.43198643712E+03  0.00000000000E+00 0. -1.
<mgrwt>
<rscale>  3 0.50056166E+03</rscale>
<asrwt>0</asrwt>
<pdfrwt beam="1">  1        3 0.86393227E-02 0.50056166E+03</pdfrwt>
<pdfrwt beam="2">  1       -3 0.17161244E+00 0.50056166E+03</pdfrwt>
<totfact> 0.58536995E+01</totfact>
</mgrwt>
</event>
<event>
 4    0  0.1264838E-002  0.4576953E+03  0.7546771E-02  0.1025452E+00
          1   -1    0    0  502    0  0.00000000000E+00  0.00000000000E+00  0.40818578822E+03  0.40818578822E+03  0.00000000000E+00 0.  1.
         -1   -1    0    0    0  501 -0.00000000000E+00 -0.00000000000E+00 -0.12830245246E+03  0.12830245246E+03  0.00000000000E+00 0. -1.
         25    1    1    2    0    0 -0.65509943404E+02  0.20100423874E+03  0.16501221657E+03  0.29588560001E+03  0.12500000000E+03 0.  0.
         21    1    1    2  502  501  0.65509943404E+02 -0.20100423874E+03  0.11487111919E+03  0.24060264067E+03  0.00000000000E+00 0. -1.
<mgrwt>
<rscale>  3 0.45769526E+03</rscale>
<asrwt>0</asrwt>
<pdfrwt beam="1">  1        1 0.62797813E-01 0.45769526E+03</pdfrwt>
<pdfrwt beam="2">  1       -1 0.19738839E-01 0.45769526E+03</pdfrwt>
<totfact> 0.12204125E+03</totfact>
</mgrwt>
</event>
<event>
 4    0  0.1264838E-002  0.8532919E+03  0.7546771E-02  0.9485929E-01
          2   -1    0    0  502    0  0.00000000000E+00  0.00000000000E+00  0.10941412743E+04  0.10941412743E+04  0.00000000000E+00 0.  1.
         -2   -1    0    0    0  501 -0.00000000000E+00 -0.00000000000E+00 -0.16636493821E+03  0.16636493821E+03  0.00000000000E+00 0. -1.
         25    1    1    2    0    0  0.16115897430E+03 -0.12723445294E+03  0.10108254663E+04  0.10390158537E+04  0.12500000000E+03 0.  0.
         21    1    1    2  502  501 -0.16115897430E+03  0.12723445294E+03 -0.83049130182E+02  0.22149035879E+03  0.00000000000E+00 0. -1.
<mgrwt>
<rscale>  3 0.85329185E+03</rscale>
<asrwt>0</asrwt>
<pdfrwt beam="1">  1        2 0.16832942E+00 0.85329185E+03</pdfrwt>
<pdfrwt beam="2">  1       -2 0.25594607E-01 0.85329185E+03</pdfrwt>
<totfact> 0.30273043E+02</totfact>
</mgrwt>
</event>
<event>
 4    0  0.1264838E-002  0.7749891E+03  0.7546771E-02  0.9596942E-01
         -2   -1    0    0    0  501 -0.00000000000E+00  0.00000000000E+00  0.88992007106E+02  0.88992007106E+02  0.00000000000E+00 0. -1.
          2   -1    0    0  502    0  0.00000000000E+00 -0.00000000000E+00 -0.16872527675E+04  0.16872527675E+04  0.00000000000E+00 0.  1.
         25    1    1    2    0    0 -0.34584201369E+03  0.14103540784E+03 -0.94426702848E+03  0.10231143171E+04  0.12500000000E+03 0.  0.
         21    1    1    2  502  501  0.34584201369E+03 -0.14103540784E+03 -0.65399373191E+03  0.75313045754E+03  0.00000000000E+00 0.  1.
<mgrwt>
<rscale>  3 0.77498906E+03</rscale>
<asrwt>0</asrwt>
<pdfrwt beam="1">  1        2 0.25957733E+00 0.77498906E+03</pdfrwt>
<pdfrwt beam="2">  1       -2 0.13691079E-01 0.77498906E+03</pdfrwt>
<totfact> 0.41329293E+02</totfact>
</mgrwt>
</event>
<event>
 4    0  0.1264838E-002  0.1070877E+04  0.7546771E-02  0.9234051E-01
         -1   -1    0    0    0  501 -0.00000000000E+00  0.00000000000E+00  0.40765789307E+03  0.40765789307E+03  0.00000000000E+00 0.  1.
          1   -1    0    0  502    0  0.00000000000E+00 -0.00000000000E+00 -0.70327203755E+03  0.70327203755E+03  0.00000000000E+00 0. -1.
         25    1    1    2    0    0 -0.16528698659E+03  0.11928774158E+03 -0.65526654866E+03  0.69753035992E+03  0.12500000000E+03 0.  0.
         21    1    1    2  502  501  0.16528698659E+03 -0.11928774158E+03  0.35965240418E+03  0.41339957070E+03  0.00000000000E+00 0.  1.
<mgrwt>
<rscale>  3 0.10708770E+04</rscale>
<asrwt>0</asrwt>
<pdfrwt beam="1">  1        1 0.10819570E+00 0.10708770E+04</pdfrwt>
<pdfrwt beam="2">  1       -1 0.62716599E-01 0.10708770E+04</pdfrwt>
<totfact> 0.69653887E+01</totfact>
</mgrwt>
</event>
<event>
 4    0  0.1264838E-002  0.4970106E+03  0.7546771E-02  0.1014562E+00
          1   -1    0    0  502    0  0.00000000000E+00  0.00000000000E+00  0.36999197171E+03  0.36999197171E+03  0.00000000000E+00 0. -1.
         -1   -1    0    0    0  501 -0.00000000000E+00 -0.00000000000E+00 -0.16690871267E+03  0.16690871267E+03  0.00000000000E+00 0.  1.
         25    1    1    2    0    0  0.80442420094E+02  0.20957368382E+03  0.17453310311E+03  0.31061055356E+03  0.12500000000E+03 0.  0.
         21    1    1    2  502  501 -0.80442420094E+02 -0.20957368382E+03  0.28550155921E+02  0.22629013082E+03  0.00000000000E+00 0.  1.
<mgrwt>
<rscale>  3 0.49701060E+03</rscale>
<asrwt>0</asrwt>
<pdfrwt beam="1">  1        1 0.56921842E-01 0.49701060E+03</pdfrwt>
<pdfrwt beam="2">  1       -1 0.25678263E-01 0.49701060E+03</pdfrwt>
<totfact> 0.89384256E+02</totfact>
</mgrwt>
</event>
<event>
 4    0  0.1415557E-002  0.8265857E+03  0.7546771E-02  0.9522313E-01
          2   -1    0    0  502    0  0.00000000000E+00  0.00000000000E+00  0.47410686605E+03  0.47410686605E+03  0.00000000000E+00 0.  1.
         -2   -1    0    0    0  501 -0.00000000000E+00 -0.00000000000E+00 -0.36027946903E+03  0.36027946903E+03  0.00000000000E+00 0. -1.
         25    1    1    2    0    0 -0.88248283059E+02 -0.18655860892E+03 -0.29218587601E+03  0.37893199939E+03  0.12500000000E+03 0.  0.
         21    1    1    2  502  501  0.88248283059E+02  0.18655860892E+03  0.40601327303E+03  0.45545433569E+03  0.00000000000E+00 0.  1.
<mgrwt>
<rscale>  3 0.82658568E+03</rscale>
<asrwt>0</asrwt>
<pdfrwt beam="1">  1        2 0.72939518E-01 0.82658568E+03</pdfrwt>
<pdfrwt beam="2">  1       -2 0.55427610E-01 0.82658568E+03</pdfrwt>
<totfact> 0.20168838E+02</totfact>
</mgrwt>
</event>
<event>
 4    0  0.1264838E-002  0.6006395E+03  0.7546771E-02  0.9904080E-01
          1   -1    0    0  502    0  0.00000000000E+00  0.00000000000E+00  0.11325618223E+03  0.11325618223E+03  0.00000000000E+00 0.  1.
         -1   -1    0    0    0  501 -0.00000000000E+00 -0.00000000000E+00 -0.79635351340E+03  0.79635351340E+03  0.00000000000E+00 0. -1.
         25    1    1    2    0    0 -0.16141675658E+03  0.12248315823E+03 -0.66481550938E+03  0.70616014817E+03  0.12500000000E+03 0.  0.
         21    1    1    2  502  501  0.16141675658E+03 -0.12248315823E+03 -0.18281821794E+02  0.20344954747E+03  0.00000000000E+00 0.  1.
<mgrwt>
<rscale>  3 0.60063952E+03</rscale>
<asrwt>0</asrwt>
<pdfrwt beam="1">  1        1 0.17424028E-01 0.60063952E+03</pdfrwt>
<pdfrwt beam="2">  1       -1 0.12251593E+00 0.60063952E+03</pdfrwt>
<totfact> 0.18919639E+02</totfact>
</mgrwt>
</event>
<event>
 4    0  0.1264838E-002  0.5602907E+03  0.7546771E-02  0.9991397E-01
         -2   -1    0    0    0  501 -0.00000000000E+00  0.00000000000E+00  0.47155708548E+03  0.47155708548E+03  0.00000000000E+00 0. -1.
          2   -1    0    0  502    0  0.00000000000E+00 -0.00000000000E+00 -0.16643036795E+03  0.16643036795E+03  0.00000000000E+00 0.  1.
         25    1    1    2    0    0 -0.33996256474E+02 -0.22518384368E+03  0.32024304671E+01  0.25980524334E+03  0.12500000000E+03 0.  0.
         21    1    1    2  502  501  0.33996256474E+02  0.22518384368E+03  0.30192428706E+03  0.37818221008E+03  0.00000000000E+00 0. -1.
<mgrwt>
<rscale>  3 0.56029071E+03</rscale>
<asrwt>0</asrwt>
<pdfrwt beam="1">  1        2 0.25604672E-01 0.56029071E+03</pdfrwt>
<pdfrwt beam="2">  1       -2 0.72547243E-01 0.56029071E+03</pdfrwt>
<totfact> 0.37018178E+02</totfact>
</mgrwt>
</event>
<event>
 4    0  0.1264838E-002  0.5375374E+03  0.7546771E-02  0.1004420E+00
         -1   -1    0    0    0  501 -0.00000000000E+00  0.00000000000E+00  0.90097955207E+02  0.90097955207E+02  0.00000000000E+00 0. -1.
          1   -1    0    0  502    0  0.00000000000E+00 -0.00000000000E+00 -0.80175648522E+03  0.80175648522E+03  0.00000000000E+00 0.  1.
         25    1    1    2    0    0 -0.87412150661E+02  0.21953969719E+03 -0.21945745529E+03  0.34586867075E+03  0.12500000000E+03 0.  0.
         21    1    1    2  502  501  0.87412150661E+02 -0.21953969719E+03 -0.49220107472E+03  0.54598576967E+03  0.00000000000E+00 0. -1.
<mgrwt>
<rscale>  3 0.53753742E+03</rscale>
<asrwt>0</asrwt>
<pdfrwt beam="1">  1        1 0.12334716E+00 0.53753742E+03</pdfrwt>
<pdfrwt beam="2">  1       -1 0.13861223E-01 0.53753742E+03</pdfrwt>
<totfact> 0.83251494E+02</totfact>
</mgrwt>
</event>
<event>
 4    0  0.1264838E-002  0.4730175E+03  0.7546771E-02  0.1021072E+00
          2   -1    0    0  502    0  0.00000000000E+00  0.00000000000E+00  0.22084275749E+04  0.22084275749E+04  0.00000000000E+00 0.  1.
         -2   -1    0    0    0  501 -0.00000000000E+00 -0.00000000000E+00 -0.25328608717E+02  0.25328608717E+02  0.00000000000E+00 0. -1.
         25    1    1    2    0    0  0.21330780669E+03 -0.21905728575E+02  0.13999225791E+04  0.14217553618E+04  0.12500000000E+03 0.  0.
         21    1    1    2  502  501 -0.21330780669E+03  0.21905728575E+02  0.78317638710E+03  0.81200082183E+03  0.00000000000E+00 0. -1.
<mgrwt>
<rscale>  3 0.47301754E+03</rscale>
<asrwt>0</asrwt>
<pdfrwt beam="1">  1        2 0.33975794E+00 0.47301754E+03</pdfrwt>
<pdfrwt beam="2">  1       -2 0.38967108E-02 0.47301754E+03</pdfrwt>
<totfact> 0.16215495E+03</totfact>
</mgrwt>
</event>
<event>
 4    0  0.1264838E-002  0.6273331E+03  0.7546771E-02  0.9850267E-01
          2   -1    0    0  502    0  0.00000000000E+00  0.00000000000E+00  0.20297477112E+04  0.20297477112E+04  0.00000000000E+00 0.  1.
         -2   -1    0    0    0  501 -0.00000000000E+00 -0.00000000000E+00 -0.48472384198E+02  0.48472384198E+02  0.00000000000E+00 0. -1.
         25    1    1    2    0    0  0.28937640239E+03 -0.38193831196E+02  0.78357633625E+03  0.84546693947E+03  0.12500000000E+03 0.  0.
         21    1    1    2  502  501 -0.28937640239E+03  0.38193831196E+02  0.11976989908E+04  0.12327531560E+04  0.00000000000E+00 0.  1.
<mgrwt>
<rscale>  3 0.62733312E+03</rscale>
<asrwt>0</asrwt>
<pdfrwt beam="1">  1        2 0.31226881E+00 0.62733312E+03</pdfrwt>
<pdfrwt beam="2">  1       -2 0.74572914E-02 0.62733312E+03</pdfrwt>
<totfact> 0.73104728E+02</totfact>
</mgrwt>
</event>
<event>
 4    0  0.1264838E-002  0.5259657E+03  0.7546771E-02  0.1007215E+00
         -2   -1    0    0    0  501 -0.00000000000E+00  0.00000000000E+00  0.43610507340E+02  0.43610507340E+02  0.00000000000E+00 0.  1.
          2   -1    0    0  502    0  0.00000000000E+00 -0.00000000000E+00 -0.15858559541E+04  0.15858559541E+04  0.00000000000E+00 0. -1.
         25    1    1    2    0    0  0.21199622548E+03 -0.37816862354E+02 -0.11965743550E+04  0.12222060799E+04  0.12500000000E+03 0.  0.
         21    1    1    2  502  501 -0.21199622548E+03  0.37816862354E+02 -0.34567109178E+03  0.40726038156E+03  0.00000000000E+00 0.  1.
<mgrwt>
<rscale>  3 0.52596571E+03</rscale>
<asrwt>0</asrwt>
<pdfrwt beam="1">  1        2 0.24397782E+00 0.52596571E+03</pdfrwt>
<pdfrwt beam="2">  1       -2 0.67093095E-02 0.52596571E+03</pdfrwt>
<totfact> 0.15113652E+03</totfact>
</mgrwt>
</event>
<event>
 4    0  0.1264838E-002  0.6046992E+03  0.7546771E-02  0.9895704E-01
          2   -1    0    0  502    0  0.00000000000E+00  0.00000000000E+00  0.16393140880E+04  0.16393140880E+04  0.00000000000E+00 0. -1.
         -2   -1    0    0    0  501 -0.00000000000E+00 -0.00000000000E+00 -0.55764350152E+02  0.55764350152E+02  0.00000000000E+00 0.  1.
         25    1    1    2    0    0  0.24048151378E+03  0.53361044452E+02  0.39964569636E+03  0.48581935136E+03  0.12500000000E+03 0.  0.
         21    1    1    2  502  501 -0.24048151378E+03 -0.53361044452E+02  0.11839040415E+04  0.12092590868E+04  0.00000000000E+00 0. -1.
<mgrwt>
<rscale>  3 0.60469921E+03</rscale>
<asrwt>0</asrwt>
<pdfrwt beam="1">  1        2 0.25220213E+00 0.60469921E+03</pdfrwt>
<pdfrwt beam="2">  1       -2 0.85791320E-02 0.60469921E+03</pdfrwt>
<totfact> 0.95322546E+02</totfact>
</mgrwt>
</event>
<event>
 4    0  0.1264838E-002  0.5478913E+03  0.7546771E-02  0.1001983E+00
         -2   -1    0    0    0  501 -0.00000000000E+00  0.00000000000E+00  0.49898278904E+02  0.49898278904E+02  0.00000000000E+00 0. -1.
          2   -1    0    0  502    0  0.00000000000E+00 -0.00000000000E+00 -0.15039840972E+04  0.15039840972E+04  0.00000000000E+00 0.  1.
         25    1    1    2    0    0 -0.21674912450E+03 -0.16279209957E+02 -0.36188016797E+03  0.44025839188E+03  0.12500000000E+03 0.  0.
         21    1    1    2  502  501  0.21674912450E+03  0.16279209957E+02 -0.10922056504E+04  0.11136239843E+04  0.00000000000E+00 0.  1.
<mgrwt>
<rscale>  3 0.54789130E+03</rscale>
<asrwt>0</asrwt>
<pdfrwt beam="1">  1        2 0.23138220E+00 0.54789130E+03</pdfrwt>
<pdfrwt beam="2">  1       -2 0.76766574E-02 0.54789130E+03</pdfrwt>
<totfact> 0.13533849E+03</totfact>
</mgrwt>
</event>
<event>
 4    0  0.1264838E-002  0.6960026E+03  0.7546771E-02  0.9724093E-01
          3   -1    0    0  502    0  0.00000000000E+00  0.00000000000E+00  0.86162597868E+03  0.86162597868E+03  0.00000000000E+00 0. -1.
         -3   -1    0    0    0  501 -0.00000000000E+00 -0.00000000000E+00 -0.14055391346E+03  0.14055391346E+03  0.00000000000E+00 0.  1.
         25    1    1    2    0    0 -0.39979043226E+02  0.29900272224E+03  0.58775480745E+03  0.67237018485E+03  0.12500000000E+03 0.  0.
         21    1    1    2  502  501  0.39979043226E+02 -0.29900272224E+03  0.13331725777E+03  0.32980970729E+03  0.00000000000E+00 0.  1.
<mgrwt>
<rscale>  3 0.69600260E+03</rscale>
<asrwt>0</asrwt>
<pdfrwt beam="1">  1        3 0.13255784E+00 0.69600260E+03</pdfrwt>
<pdfrwt beam="2">  1       -3 0.21623680E-01 0.69600260E+03</pdfrwt>
<totfact> 0.23320521E+01</totfact>
</mgrwt>
</event>
<event>
 4    0  0.1264838E-002  0.4752430E+03  0.7546771E-02  0.1020451E+00
          2   -1    0    0  502    0  0.00000000000E+00  0.00000000000E+00  0.13925565498E+04  0.13925565498E+04  0.00000000000E+00 0.  1.
         -2   -1    0    0    0  501 -0.00000000000E+00 -0.00000000000E+00 -0.40546998083E+02  0.40546998083E+02  0.00000000000E+00 0. -1.
         25    1    1    2    0    0  0.13669443765E+03 -0.17096990188E+03  0.62714358482E+03  0.67590691121E+03  0.12500000000E+03 0.  0.
         21    1    1    2  502  501 -0.13669443765E+03  0.17096990188E+03  0.72486596693E+03  0.75719663671E+03  0.00000000000E+00 0.  1.
<mgrwt>
<rscale>  3 0.47524304E+03</rscale>
<asrwt>0</asrwt>
<pdfrwt beam="1">  1        2 0.21423943E+00 0.47524304E+03</pdfrwt>
<pdfrwt beam="2">  1       -2 0.62380008E-02 0.47524304E+03</pdfrwt>
<totfact> 0.21674618E+03</totfact>
</mgrwt>
</event>
<event>
 4    0  0.1264838E-002  0.5629356E+03  0.7546771E-02  0.9985434E-01
         -2   -1    0    0    0  501 -0.00000000000E+00  0.00000000000E+00  0.48953695735E+03  0.48953695735E+03  0.00000000000E+00 0. -1.
          2   -1    0    0  502    0  0.00000000000E+00 -0.00000000000E+00 -0.16183479972E+03  0.16183479972E+03  0.00000000000E+00 0.  1.
         25    1    1    2    0    0  0.25523272141E+03 -0.80234685897E+02  0.16639626238E+03  0.33896026763E+03  0.12500000000E+03 0.  0.
         21    1    1    2  502  501 -0.25523272141E+03  0.80234685897E+02  0.16130589524E+03  0.31241148944E+03  0.00000000000E+00 0.  1.
<mgrwt>
<rscale>  3 0.56293558E+03</rscale>
<asrwt>0</asrwt>
<pdfrwt beam="1">  1        2 0.24897662E-01 0.56293558E+03</pdfrwt>
<pdfrwt beam="2">  1       -2 0.75313377E-01 0.56293558E+03</pdfrwt>
<totfact> 0.35200783E+02</totfact>
</mgrwt>
</event>
<event>
 4    0  0.1264838E-002  0.4881185E+03  0.7546771E-02  0.1016928E+00
          2   -1    0    0  502    0  0.00000000000E+00  0.00000000000E+00  0.23776637733E+04  0.23776637733E+04  0.00000000000E+00 0. -1.
         -2   -1    0    0    0  501 -0.00000000000E+00 -0.00000000000E+00 -0.25051863378E+02  0.25051863378E+02  0.00000000000E+00 0.  1.
         25    1    1    2    0    0  0.20536585352E+03 -0.97940228658E+02  0.11770067063E+04  0.12052954861E+04  0.12500000000E+03 0.  0.
         21    1    1    2  502  501 -0.20536585352E+03  0.97940228658E+02  0.11756052037E+04  0.11974201506E+04  0.00000000000E+00 0. -1.
<mgrwt>
<rscale>  3 0.48811846E+03</rscale>
<asrwt>0</asrwt>
<pdfrwt beam="1">  1        2 0.36579425E+00 0.48811846E+03</pdfrwt>
<pdfrwt beam="2">  1       -2 0.38541347E-02 0.48811846E+03</pdfrwt>
<totfact> 0.13308341E+03</totfact>
</mgrwt>
</event>
<event>
 4    0  0.1264838E-002  0.4504930E+03  0.7546771E-02  0.1027575E+00
         -1   -1    0    0    0  501 -0.00000000000E+00  0.00000000000E+00  0.41559409834E+02  0.41559409834E+02  0.00000000000E+00 0. -1.
          1   -1    0    0  502    0  0.00000000000E+00 -0.00000000000E+00 -0.12208059701E+04  0.12208059701E+04  0.00000000000E+00 0.  1.
         25    1    1    2    0    0 -0.59359511610E+02  0.19179105502E+03 -0.48367888751E+03  0.53840284790E+03  0.12500000000E+03 0.  0.
         21    1    1    2  502  501  0.59359511610E+02 -0.19179105502E+03 -0.69556767276E+03  0.72396253204E+03  0.00000000000E+00 0.  1.
<mgrwt>
<rscale>  3 0.45049296E+03</rscale>
<asrwt>0</asrwt>
<pdfrwt beam="1">  1        1 0.18781631E+00 0.45049296E+03</pdfrwt>
<pdfrwt beam="2">  1       -1 0.63937553E-02 0.45049296E+03</pdfrwt>
<totfact> 0.13372080E+03</totfact>
</mgrwt>
</event>
<event>
 4    0  0.1264838E-002  0.8295343E+03  0.7546771E-02  0.9518225E-01
         -2   -1    0    0    0  501 -0.00000000000E+00  0.00000000000E+00  0.15650512961E+03  0.15650512961E+03  0.00000000000E+00 0.  1.
          2   -1    0    0  502    0  0.00000000000E+00 -0.00000000000E+00 -0.10992085550E+04  0.10992085550E+04  0.00000000000E+00 0. -1.
         25    1    1    2    0    0  0.11941804496E+03  0.37869293411E+03 -0.60539522909E+03  0.73470905208E+03  0.12500000000E+03 0.  0.
         21    1    1    2  502  501 -0.11941804496E+03 -0.37869293411E+03 -0.33730819625E+03  0.52100463248E+03  0.00000000000E+00 0. -1.
<mgrwt>
<rscale>  3 0.82953427E+03</rscale>
<asrwt>0</asrwt>
<pdfrwt beam="1">  1        2 0.16910901E+00 0.82953427E+03</pdfrwt>
<pdfrwt beam="2">  1       -2 0.24077712E-01 0.82953427E+03</pdfrwt>
<totfact> 0.33600031E+02</totfact>
</mgrwt>
</event>
<event>
 4    0  0.1264838E-002  0.5964176E+03  0.7546771E-02  0.9912866E-01
         -2   -1    0    0    0  501 -0.00000000000E+00  0.00000000000E+00  0.59336390367E+02  0.59336390367E+02  0.00000000000E+00 0. -1.
          2   -1    0    0  502    0  0.00000000000E+00 -0.00000000000E+00 -0.14987173972E+04  0.14987173972E+04  0.00000000000E+00 0.  1.
         25    1    1    2    0    0  0.17989973635E+03 -0.22102468857E+03 -0.72917735090E+03  0.79280542200E+03  0.12500000000E+03 0.  0.
         21    1    1    2  502  501 -0.17989973635E+03  0.22102468857E+03 -0.71020365597E+03  0.76524836560E+03  0.00000000000E+00 0. -1.
<mgrwt>
<rscale>  3 0.59641757E+03</rscale>
<asrwt>0</asrwt>
<pdfrwt beam="1">  1        2 0.23057191E+00 0.59641757E+03</pdfrwt>
<pdfrwt beam="2">  1       -2 0.91286752E-02 0.59641757E+03</pdfrwt>
<totfact> 0.10308361E+03</totfact>
</mgrwt>
</event>
<event>
 4    0  0.1264838E-002  0.4409082E+03  0.7546771E-02  0.1030469E+00
          1   -1    0    0  502    0  0.00000000000E+00  0.00000000000E+00  0.26812144747E+03  0.26812144747E+03  0.00000000000E+00 0.  1.
         -1   -1    0    0    0  501 -0.00000000000E+00 -0.00000000000E+00 -0.18126118571E+03  0.18126118571E+03  0.00000000000E+00 0. -1.
         25    1    1    2    0    0  0.16340060356E+03 -0.11979210846E+03  0.54240225944E+02  0.24416574003E+03  0.12500000000E+03 0.  0.
         21    1    1    2  502  501 -0.16340060356E+03  0.11979210846E+03  0.32620035814E+02  0.20521689314E+03  0.00000000000E+00 0. -1.
<mgrwt>
<rscale>  3 0.44090821E+03</rscale>
<asrwt>0</asrwt>
<pdfrwt beam="1">  1        1 0.41249454E-01 0.44090821E+03</pdfrwt>
<pdfrwt beam="2">  1       -1 0.27886336E-01 0.44090821E+03</pdfrwt>
<totfact> 0.11752437E+03</totfact>
</mgrwt>
</event>
<event>
 4    0  0.1264838E-002  0.4893341E+03  0.7546771E-02  0.1016601E+00
          1   -1    0    0  502    0  0.00000000000E+00  0.00000000000E+00  0.62168794056E+03  0.62168794056E+03  0.00000000000E+00 0. -1.
         -1   -1    0    0    0  501 -0.00000000000E+00 -0.00000000000E+00 -0.96289426960E+02  0.96289426960E+02  0.00000000000E+00 0.  1.
         25    1    1    2    0    0 -0.22526635581E+03  0.32839471285E+02  0.24766168030E+03  0.35886581033E+03  0.12500000000E+03 0.  0.
         21    1    1    2  502  501  0.22526635581E+03 -0.32839471285E+02  0.27773683331E+03  0.35911155720E+03  0.00000000000E+00 0.  1.
<mgrwt>
<rscale>  3 0.48933414E+03</rscale>
<asrwt>0</asrwt>
<pdfrwt beam="1">  1        1 0.95644296E-01 0.48933414E+03</pdfrwt>
<pdfrwt beam="2">  1       -1 0.14813758E-01 0.48933414E+03</pdfrwt>
<totfact> 0.10973322E+03</totfact>
</mgrwt>
</event>
<event>
 4    0  0.1264838E-002  0.5966947E+03  0.7546771E-02  0.9912287E-01
         -1   -1    0    0    0  501 -0.00000000000E+00  0.00000000000E+00  0.16484210123E+03  0.16484210123E+03  0.00000000000E+00 0.  1.
          1   -1    0    0  502    0  0.00000000000E+00 -0.00000000000E+00 -0.53997817555E+03  0.53997817555E+03  0.00000000000E+00 0. -1.
         25    1    1    2    0    0 -0.23501192942E+03  0.57994676520E+02 -0.37406427244E+03  0.46275595014E+03  0.12500000000E+03 0.  0.
         21    1    1    2  502  501  0.23501192942E+03 -0.57994676520E+02 -0.10718018780E+01  0.24206432664E+03  0.00000000000E+00 0. -1.
<mgrwt>
<rscale>  3 0.59669469E+03</rscale>
<asrwt>0</asrwt>
<pdfrwt beam="1">  1        1 0.83073566E-01 0.59669469E+03</pdfrwt>
<pdfrwt beam="2">  1       -1 0.25360323E-01 0.59669469E+03</pdfrwt>
<totfact> 0.54935604E+02</totfact>
</mgrwt>
</event>
<event>
 4    0  0.1264838E-002  0.4662685E+03  0.7546771E-02  0.1022979E+00
          2   -1    0    0  502    0  0.00000000000E+00  0.00000000000E+00  0.22485522429E+04  0.22485522429E+04  0.00000000000E+00 0.  1.
         -2   -1    0    0    0  501 -0.00000000000E+00 -0.00000000000E+00 -0.24171806662E+02  0.24171806662E+02  0.00000000000E+00 0. -1.
         25    1    1    2    0    0 -0.13995421689E+03 -0.14949532578E+03  0.15327578481E+04  0.15514211730E+04  0.12500000000E+03 0.  0.
         21    1    1    2  502  501  0.13995421689E+03  0.14949532578E+03  0.69162258818E+03  0.72130287656E+03  0.00000000000E+00 0. -1.
<mgrwt>
<rscale>  3 0.46626846E+03</rscale>
<asrwt>0</asrwt>
<pdfrwt beam="1">  1        2 0.34593095E+00 0.46626846E+03</pdfrwt>
<pdfrwt beam="2">  1       -2 0.37187413E-02 0.46626846E+03</pdfrwt>
<totfact> 0.16567553E+03</totfact>
</mgrwt>
</event>
<event>
 4    0  0.1264838E-002  0.7129272E+03  0.7546771E-02  0.9695377E-01
          2   -1    0    0  502    0  0.00000000000E+00  0.00000000000E+00  0.14980370351E+04  0.14980370351E+04  0.00000000000E+00 0. -1.
         -2   -1    0    0    0  501 -0.00000000000E+00 -0.00000000000E+00 -0.84821867058E+02  0.84821867058E+02  0.00000000000E+00 0.  1.
         25    1    1    2    0    0  0.27920494630E+03  0.59784534496E+02  0.29641606782E+03  0.43013611551E+03  0.12500000000E+03 0.  0.
         21    1    1    2  502  501 -0.27920494630E+03 -0.59784534496E+02  0.11167991003E+04  0.11527227867E+04  0.00000000000E+00 0. -1.
<mgrwt>
<rscale>  3 0.71292720E+03</rscale>
<asrwt>0</asrwt>
<pdfrwt beam="1">  1        2 0.23046722E+00 0.71292720E+03</pdfrwt>
<pdfrwt beam="2">  1       -2 0.13049519E-01 0.71292720E+03</pdfrwt>
<totfact> 0.57152491E+02</totfact>
</mgrwt>
</event>
<event>
 4    0  0.1264838E-002  0.5723458E+03  0.7546771E-02  0.9964501E-01
          2   -1    0    0  502    0  0.00000000000E+00  0.00000000000E+00  0.42388127207E+04  0.42388127207E+04  0.00000000000E+00 0.  1.
         -2   -1    0    0    0  501 -0.00000000000E+00 -0.00000000000E+00 -0.19320252360E+02  0.19320252360E+02  0.00000000000E+00 0. -1.
         25    1    1    2    0    0  0.27381746942E+02  0.26770186920E+03  0.18899736630E+04  0.19131229698E+04  0.12500000000E+03 0.  0.
         21    1    1    2  502  501 -0.27381746942E+02 -0.26770186920E+03  0.23295188054E+04  0.23450100033E+04  0.00000000000E+00 0. -1.
<mgrwt>
<rscale>  3 0.57234581E+03</rscale>
<asrwt>0</asrwt>
<pdfrwt beam="1">  1        2 0.65212429E+00 0.57234581E+03</pdfrwt>
<pdfrwt beam="2">  1       -2 0.29723499E-02 0.57234581E+03</pdfrwt>
<totfact> 0.11375223E+02</totfact>
</mgrwt>
</event>
<event>
 4    0  0.1264838E-002  0.5873443E+03  0.7546771E-02  0.9932016E-01
          2   -1    0    0  502    0  0.00000000000E+00  0.00000000000E+00  0.26461957001E+03  0.26461957001E+03  0.00000000000E+00 0. -1.
         -2   -1    0    0    0  501 -0.00000000000E+00 -0.00000000000E+00 -0.32591438257E+03  0.32591438257E+03  0.00000000000E+00 0.  1.
         25    1    1    2    0    0  0.95799669512E+02 -0.19837879008E+03  0.14233070383E+03  0.29054216610E+03  0.12500000000E+03 0.  0.
         21    1    1    2  502  501 -0.95799669512E+02  0.19837879008E+03 -0.20362551639E+03  0.29999178648E+03  0.00000000000E+00 0.  1.
<mgrwt>
<rscale>  3 0.58734427E+03</rscale>
<asrwt>0</asrwt>
<pdfrwt beam="1">  1        2 0.40710703E-01 0.58734427E+03</pdfrwt>
<pdfrwt beam="2">  1       -2 0.50140674E-01 0.58734427E+03</pdfrwt>
<totfact> 0.47928545E+02</totfact>
</mgrwt>
</event>
<event>
 4    0  0.1264838E-002  0.5762247E+03  0.7546771E-02  0.9955998E-01
         -2   -1    0    0    0  501 -0.00000000000E+00  0.00000000000E+00  0.76318758211E+02  0.76318758211E+02  0.00000000000E+00 0.  1.
          2   -1    0    0  502    0  0.00000000000E+00 -0.00000000000E+00 -0.10876584174E+04  0.10876584174E+04  0.00000000000E+00 0. -1.
         25    1    1    2    0    0 -0.48408668692E+02  0.22716141268E+03 -0.82520422194E+03  0.86633291206E+03  0.12500000000E+03 0.  0.
         21    1    1    2  502  501  0.48408668692E+02 -0.22716141268E+03 -0.18613543720E+03  0.29764426350E+03  0.00000000000E+00 0.  1.
<mgrwt>
<rscale>  3 0.57622475E+03</rscale>
<asrwt>0</asrwt>
<pdfrwt beam="1">  1        2 0.16733207E+00 0.57622475E+03</pdfrwt>
<pdfrwt beam="2">  1       -2 0.11741347E-01 0.57622475E+03</pdfrwt>
<totfact> 0.11810451E+03</totfact>
</mgrwt>
</event>
<event>
 4    0  0.1264838E-002  0.7425471E+03  0.7546771E-02  0.9647116E-01
          1   -1    0    0  502    0  0.00000000000E+00  0.00000000000E+00  0.12973151267E+03  0.12973151267E+03  0.00000000000E+00 0. -1.
         -1   -1    0    0    0  501 -0.00000000000E+00 -0.00000000000E+00 -0.10625332501E+04  0.10625332501E+04  0.00000000000E+00 0.  1.
         25    1    1    2    0    0 -0.27367292039E+03  0.17542251901E+02 -0.85596071820E+03  0.90746809810E+03  0.12500000000E+03 0.  0.
         21    1    1    2  502  501  0.27367292039E+03 -0.17542251901E+02 -0.76841019193E+02  0.28479666464E+03  0.00000000000E+00 0. -1.
<mgrwt>
<rscale>  3 0.74254709E+03</rscale>
<asrwt>0</asrwt>
<pdfrwt beam="1">  1        1 0.19958695E-01 0.74254709E+03</pdfrwt>
<pdfrwt beam="2">  1       -1 0.16346665E+00 0.74254709E+03</pdfrwt>
<totfact> 0.73741638E+01</totfact>
</mgrwt>
</event>
<event>
 4    0  0.1264838E-002  0.6921316E+03  0.7546771E-02  0.9730784E-01
          2   -1    0    0  502    0  0.00000000000E+00  0.00000000000E+00  0.28040524234E+04  0.28040524234E+04  0.00000000000E+00 0.  1.
         -2   -1    0    0    0  501 -0.00000000000E+00 -0.00000000000E+00 -0.42710168378E+02  0.42710168378E+02  0.00000000000E+00 0. -1.
         25    1    1    2    0    0  0.19971934868E+03 -0.22820565651E+03  0.20089848215E+04  0.20355860712E+04  0.12500000000E+03 0.  0.
         21    1    1    2  502  501 -0.19971934868E+03  0.22820565651E+03  0.75235743350E+03  0.81117652064E+03  0.00000000000E+00 0. -1.
<mgrwt>
<rscale>  3 0.69213164E+03</rscale>
<asrwt>0</asrwt>
<pdfrwt beam="1">  1        2 0.43139254E+00 0.69213164E+03</pdfrwt>
<pdfrwt beam="2">  1       -2 0.65707973E-02 0.69213164E+03</pdfrwt>
<totfact> 0.32620115E+02</totfact>
</mgrwt>
</event>
<event>
 4    0  0.1264838E-002  0.5045374E+03  0.7546771E-02  0.1012601E+00
         -1   -1    0    0    0  501 -0.00000000000E+00  0.00000000000E+00  0.34280784024E+03  0.34280784024E+03  0.00000000000E+00 0. -1.
          1   -1    0    0  502    0  0.00000000000E+00 -0.00000000000E+00 -0.18564192838E+03  0.18564192838E+03  0.00000000000E+00 0.  1.
         25    1    1    2    0    0 -0.14073284504E+03 -0.16210369630E+03  0.18805911949E+03  0.31156792911E+03  0.12500000000E+03 0.  0.
         21    1    1    2  502  501  0.14073284504E+03  0.16210369630E+03 -0.30893207627E+02  0.21688183950E+03  0.00000000000E+00 0.  1.
<mgrwt>
<rscale>  3 0.50453745E+03</rscale>
<asrwt>0</asrwt>
<pdfrwt beam="1">  1        1 0.28560297E-01 0.50453745E+03</pdfrwt>
<pdfrwt beam="2">  1       -1 0.52739668E-01 0.50453745E+03</pdfrwt>
<totfact> 0.59985384E+02</totfact>
</mgrwt>
</event>
<event>
 4    0  0.1264838E-002  0.4483727E+03  0.7546771E-02  0.1028208E+00
         -2   -1    0    0    0  501 -0.00000000000E+00  0.00000000000E+00  0.23273757575E+02  0.23273757575E+02  0.00000000000E+00 0. -1.
          2   -1    0    0  502    0  0.00000000000E+00 -0.00000000000E+00 -0.21594934766E+04  0.21594934766E+04  0.00000000000E+00 0.  1.
         25    1    1    2    0    0 -0.17889409880E+03 -0.10067165584E+03 -0.12716310622E+04  0.12941439021E+04  0.12500000000E+03 0.  0.
         21    1    1    2  502  501  0.17889409880E+03  0.10067165584E+03 -0.86458865679E+03  0.88862333208E+03  0.00000000000E+00 0.  1.
<mgrwt>
<rscale>  3 0.44837274E+03</rscale>
<asrwt>0</asrwt>
<pdfrwt beam="1">  1        2 0.33222979E+00 0.44837274E+03</pdfrwt>
<pdfrwt beam="2">  1       -2 0.35805778E-02 0.44837274E+03</pdfrwt>
<totfact> 0.19636297E+03</totfact>
</mgrwt>
</event>
<event>
 4    0  0.1264838E-002  0.5944666E+03  0.7546771E-02  0.9916953E-01
          2   -1    0    0  502    0  0.00000000000E+00  0.00000000000E+00  0.14407915887E+03  0.14407915887E+03  0.00000000000E+00 0.  1.
         -2   -1    0    0    0  501 -0.00000000000E+00 -0.00000000000E+00 -0.61318812502E+03  0.61318812502E+03  0.00000000000E+00 0. -1.
         25    1    1    2    0    0  0.23339108128E+03 -0.10878347147E+03 -0.92048175965E+02  0.30067109470E+03  0.12500000000E+03 0.  0.
         21    1    1    2  502  501 -0.23339108128E+03  0.10878347147E+03 -0.37706079019E+03  0.45659618919E+03  0.00000000000E+00 0. -1.
<mgrwt>
<rscale>  3 0.59446658E+03</rscale>
<asrwt>0</asrwt>
<pdfrwt beam="1">  1        2 0.22166024E-01 0.59446658E+03</pdfrwt>
<pdfrwt beam="2">  1       -2 0.94336638E-01 0.59446658E+03</pdfrwt>
<totfact> 0.24148621E+02</totfact>
</mgrwt>
</event>
<event>
 4    0  0.1264838E-002  0.7783585E+03  0.7546771E-02  0.9591882E-01
         -2   -1    0    0    0  501 -0.00000000000E+00  0.00000000000E+00  0.12165566355E+03  0.12165566355E+03  0.00000000000E+00 0. -1.
          2   -1    0    0  502    0  0.00000000000E+00 -0.00000000000E+00 -0.12449934236E+04  0.12449934236E+04  0.00000000000E+00 0.  1.
         25    1    1    2    0    0  0.22902543821E+03  0.25673564953E+03 -0.29641889680E+03  0.47101486969E+03  0.12500000000E+03 0.  0.
         21    1    1    2  502  501 -0.22902543821E+03 -0.25673564953E+03 -0.82691886322E+03  0.89563421743E+03  0.00000000000E+00 0.  1.
<mgrwt>
<rscale>  3 0.77835853E+03</rscale>
<asrwt>0</asrwt>
<pdfrwt beam="1">  1        2 0.19153744E+00 0.77835853E+03</pdfrwt>
<pdfrwt beam="2">  1       -2 0.18716257E-01 0.77835853E+03</pdfrwt>
<totfact> 0.42987288E+02</totfact>
</mgrwt>
</event>
<event>
 4    0  0.1264838E-002  0.5176316E+03  0.7546771E-02  0.1009277E+00
         -2   -1    0    0    0  501 -0.00000000000E+00  0.00000000000E+00  0.72654494791E+02  0.72654494791E+02  0.00000000000E+00 0.  1.
          2   -1    0    0  502    0  0.00000000000E+00 -0.00000000000E+00 -0.92197478499E+03  0.92197478499E+03  0.00000000000E+00 0. -1.
         25    1    1    2    0    0 -0.16740410202E+03  0.17114917024E+03 -0.53715763693E+03  0.60123165149E+03  0.12500000000E+03 0.  0.
         21    1    1    2  502  501  0.16740410202E+03 -0.17114917024E+03 -0.31216265327E+03  0.39339762829E+03  0.00000000000E+00 0.  1.
<mgrwt>
<rscale>  3 0.51763158E+03</rscale>
<asrwt>0</asrwt>
<pdfrwt beam="1">  1        2 0.14184228E+00 0.51763158E+03</pdfrwt>
<pdfrwt beam="2">  1       -2 0.11177614E-01 0.51763158E+03</pdfrwt>
<totfact> 0.16300237E+03</totfact>
</mgrwt>
</event>
<event>
 4    0  0.1264838E-002  0.4568352E+03  0.7546771E-02  0.1025703E+00
         -1   -1    0    0    0  501 -0.00000000000E+00  0.00000000000E+00  0.25220506568E+03  0.25220506568E+03  0.00000000000E+00 0. -1.
          1   -1    0    0  502    0  0.00000000000E+00 -0.00000000000E+00 -0.20687375207E+03  0.20687375207E+03  0.00000000000E+00 0.  1.
         25    1    1    2    0    0  0.19962357498E+03  0.47292669163E+02  0.75290847542E+02  0.25175360964E+03  0.12500000000E+03 0.  0.
         21    1    1    2  502  501 -0.19962357498E+03 -0.47292669163E+02 -0.29959533936E+02  0.20732520811E+03  0.00000000000E+00 0.  1.
<mgrwt>
<rscale>  3 0.45683524E+03</rscale>
<asrwt>0</asrwt>
<pdfrwt beam="1">  1        1 0.31826731E-01 0.45683524E+03</pdfrwt>
<pdfrwt beam="2">  1       -1 0.38800779E-01 0.45683524E+03</pdfrwt>
<totfact> 0.91923571E+02</totfact>
</mgrwt>
</event>
<event>
 4    0  0.1264838E-002  0.4699678E+03  0.7546771E-02  0.1021929E+00
         -3   -1    0    0    0  501 -0.00000000000E+00  0.00000000000E+00  0.36766081661E+02  0.36766081661E+02  0.00000000000E+00 0.  1.
          3   -1    0    0  502    0  0.00000000000E+00 -0.00000000000E+00 -0.15018577667E+04  0.15018577667E+04  0.00000000000E+00 0. -1.
         25    1    1    2    0    0  0.20076604447E+03  0.74846491214E+02 -0.92219355273E+03  0.95497379574E+03  0.12500000000E+03 0.  0.
         21    1    1    2  502  501 -0.20076604447E+03 -0.74846491214E+02 -0.54289813232E+03  0.58365005263E+03  0.00000000000E+00 0.  1.
<mgrwt>
<rscale>  3 0.46996777E+03</rscale>
<asrwt>0</asrwt>
<pdfrwt beam="1">  1        3 0.23105507E+00 0.46996777E+03</pdfrwt>
<pdfrwt beam="2">  1       -3 0.56563196E-02 0.46996777E+03</pdfrwt>
<totfact> 0.50498597E+01</totfact>
</mgrwt>
</event>
<event>
 4    0  0.1264838E-002  0.4962870E+03  0.7546771E-02  0.1014753E+00
         -1   -1    0    0    0  501 -0.00000000000E+00  0.00000000000E+00  0.57958614023E+03  0.57958614023E+03  0.00000000000E+00 0. -1.
          1   -1    0    0  502    0  0.00000000000E+00 -0.00000000000E+00 -0.10623994738E+03  0.10623994738E+03  0.00000000000E+00 0.  1.
         25    1    1    2    0    0  0.13616981690E+03  0.17656743442E+03  0.16115105614E+03  0.30218031177E+03  0.12500000000E+03 0.  0.
         21    1    1    2  502  501 -0.13616981690E+03 -0.17656743442E+03  0.31219513672E+03  0.38364577584E+03  0.00000000000E+00 0. -1.
<mgrwt>
<rscale>  3 0.49628702E+03</rscale>
<asrwt>0</asrwt>
<pdfrwt beam="1">  1        1 0.16344608E-01 0.49628702E+03</pdfrwt>
<pdfrwt beam="2">  1       -1 0.89167097E-01 0.49628702E+03</pdfrwt>
<totfact> 0.42999904E+02</totfact>
</mgrwt>
</event>
<event>
 4    0  0.1264838E-002  0.6151496E+03  0.7546771E-02  0.9874465E-01
          1   -1    0    0  502    0  0.00000000000E+00  0.00000000000E+00  0.68333309123E+03  0.68333309123E+03  0.00000000000E+00 0.  1.
         -1   -1    0    0    0  501 -0.00000000000E+00 -0.00000000000E+00 -0.13844237518E+03  0.13844237518E+03  0.00000000000E+00 0. -1.
         25    1    1    2    0    0 -0.27248462577E+02 -0.26511076151E+03  0.45227658486E+03  0.53963441679E+03  0.12500000000E+03 0.  0.
         21    1    1    2  502  501  0.27248462577E+02  0.26511076151E+03  0.92614131191E+02  0.28214104961E+03  0.00000000000E+00 0. -1.
<mgrwt>
<rscale>  3 0.61514960E+03</rscale>
<asrwt>0</asrwt>
<pdfrwt beam="1">  1        1 0.10512817E+00 0.61514960E+03</pdfrwt>
<pdfrwt beam="2">  1       -1 0.21298827E-01 0.61514960E+03</pdfrwt>
<totfact> 0.52527920E+02</totfact>
</mgrwt>
</event>
<event>
 4    0  0.1264838E-002  0.5153289E+03  0.7546771E-02  0.1009854E+00
         -1   -1    0    0    0  501 -0.00000000000E+00  0.00000000000E+00  0.49971044450E+03  0.49971044450E+03  0.00000000000E+00 0. -1.
          1   -1    0    0  502    0  0.00000000000E+00 -0.00000000000E+00 -0.13285886289E+03  0.13285886289E+03  0.00000000000E+00 0.  1.
         25    1    1    2    0    0  0.19060033311E+03 -0.85979310767E+02  0.43442680291E+02  0.24745342053E+03  0.12500000000E+03 0.  0.
         21    1    1    2  502  501 -0.19060033311E+03  0.85979310767E+02  0.32340890132E+03  0.38511588686E+03  0.00000000000E+00 0. -1.
<mgrwt>
<rscale>  3 0.51532887E+03</rscale>
<asrwt>0</asrwt>
<pdfrwt beam="1">  1        1 0.20439825E-01 0.51532887E+03</pdfrwt>
<pdfrwt beam="2">  1       -1 0.76878529E-01 0.51532887E+03</pdfrwt>
<totfact> 0.43848774E+02</totfact>
</mgrwt>
</event>
<event>
 4    0  0.1264838E-002  0.1388054E+04  0.7546771E-02  0.8962512E-01
          2   -1    0    0  502    0  0.00000000000E+00  0.00000000000E+00  0.87595176808E+03  0.87595176808E+03  0.00000000000E+00 0.  1.
         -2   -1    0    0    0  501 -0.00000000000E+00 -0.00000000000E+00 -0.54988558595E+03  0.54988558595E+03  0.00000000000E+00 0. -1.
         25    1    1    2    0    0  0.26047347224E+02  0.68757952078E+03  0.14260415169E+03  0.71372614199E+03  0.12500000000E+03 0.  0.
         21    1    1    2  502  501 -0.26047347224E+02 -0.68757952078E+03  0.18346203045E+03  0.71211121203E+03  0.00000000000E+00 0.  1.
<mgrwt>
<rscale>  3 0.13880537E+04</rscale>
<asrwt>0</asrwt>
<pdfrwt beam="1">  1        2 0.13476181E+00 0.13880537E+04</pdfrwt>
<pdfrwt beam="2">  1       -2 0.84597783E-01 0.13880537E+04</pdfrwt>
<totfact> 0.36142222E+01</totfact>
</mgrwt>
</event>
<event>
 4    0  0.1264838E-002  0.6053539E+03  0.7546771E-02  0.9894360E-01
          1   -1    0    0  502    0  0.00000000000E+00  0.00000000000E+00  0.41926392859E+03  0.41926392859E+03  0.00000000000E+00 0. -1.
         -1   -1    0    0    0  501 -0.00000000000E+00 -0.00000000000E+00 -0.21850991274E+03  0.21850991274E+03  0.00000000000E+00 0.  1.
         25    1    1    2    0    0 -0.16359438253E+02  0.28410557929E+03  0.47107631275E+02  0.31436879669E+03  0.12500000000E+03 0.  0.
         21    1    1    2  502  501  0.16359438253E+02 -0.28410557929E+03  0.15364638457E+03  0.32340504464E+03  0.00000000000E+00 0.  1.
<mgrwt>
<rscale>  3 0.60535386E+03</rscale>
<asrwt>0</asrwt>
<pdfrwt beam="1">  1        1 0.64502143E-01 0.60535386E+03</pdfrwt>
<pdfrwt beam="2">  1       -1 0.33616910E-01 0.60535386E+03</pdfrwt>
<totfact> 0.47509162E+02</totfact>
</mgrwt>
</event>
<event>
 4    0  0.1264838E-002  0.8032565E+03  0.7546771E-02  0.9555315E-01
          1   -1    0    0  502    0  0.00000000000E+00  0.00000000000E+00  0.17707570734E+04  0.17707570734E+04  0.00000000000E+00 0. -1.
         -1   -1    0    0    0  501 -0.00000000000E+00 -0.00000000000E+00 -0.91093940397E+02  0.91093940397E+02  0.00000000000E+00 0.  1.
         25    1    1    2    0    0  0.33159955739E+03 -0.11658733227E+03  0.45845709776E+03  0.59106580259E+03  0.12500000000E+03 0.  0.
         21    1    1    2  502  501 -0.33159955739E+03  0.11658733227E+03  0.12212060352E+04  0.12707852112E+04  0.00000000000E+00 0. -1.
<mgrwt>
<rscale>  3 0.80325647E+03</rscale>
<asrwt>0</asrwt>
<pdfrwt beam="1">  1        1 0.27242414E+00 0.80325647E+03</pdfrwt>
<pdfrwt beam="2">  1       -1 0.14014454E-01 0.80325647E+03</pdfrwt>
<totfact> 0.15982124E+02</totfact>
</mgrwt>
</event>
<event>
 4    0  0.1264838E-002  0.4725119E+03  0.7546771E-02  0.1021214E+00
         -3   -1    0    0    0  501 -0.00000000000E+00  0.00000000000E+00  0.41892514603E+03  0.41892514603E+03  0.00000000000E+00 0. -1.
          3   -1    0    0  502    0  0.00000000000E+00 -0.00000000000E+00 -0.13323830657E+03  0.13323830657E+03  0.00000000000E+00 0.  1.
         25    1    1    2    0    0  0.94653172546E+02 -0.19447153462E+03  0.19808878431E+03  0.31881431480E+03  0.12500000000E+03 0.  0.
         21    1    1    2  502  501 -0.94653172546E+02  0.19447153462E+03  0.87598055149E+02  0.23334913781E+03  0.00000000000E+00 0. -1.
<mgrwt>
<rscale>  3 0.47251191E+03</rscale>
<asrwt>0</asrwt>
<pdfrwt beam="1">  1        3 0.20498201E-01 0.47251191E+03</pdfrwt>
<pdfrwt beam="2">  1       -3 0.64450022E-01 0.47251191E+03</pdfrwt>
<totfact> 0.13292995E+02</totfact>
</mgrwt>
</event>
<event>
 4    0  0.1264838E-002  0.6055353E+03  0.7546771E-02  0.9893988E-01
          2   -1    0    0  502    0  0.00000000000E+00  0.00000000000E+00  0.64647887823E+03  0.64647887823E+03  0.00000000000E+00 0. -1.
         -2   -1    0    0    0  501 -0.00000000000E+00 -0.00000000000E+00 -0.14179620684E+03  0.14179620684E+03  0.00000000000E+00 0.  1.
         25    1    1    2    0    0  0.12983080881E+03 -0.24584135582E+03  0.36987379069E+03  0.47929701876E+03  0.12500000000E+03 0.  0.
         21    1    1    2  502  501 -0.12983080881E+03  0.24584135582E+03  0.13480888070E+03  0.30897806631E+03  0.00000000000E+00 0. -1.
<mgrwt>
<rscale>  3 0.60553531E+03</rscale>
<asrwt>0</asrwt>
<pdfrwt beam="1">  1        2 0.99458288E-01 0.60553531E+03</pdfrwt>
<pdfrwt beam="2">  1       -2 0.21814801E-01 0.60553531E+03</pdfrwt>
<totfact> 0.83256324E+02</totfact>
</mgrwt>
</event>
<event>
 4    0  0.1264838E-002  0.4742390E+03  0.7546771E-02  0.1020731E+00
          2   -1    0    0  502    0  0.00000000000E+00  0.00000000000E+00  0.93351097224E+03  0.93351097224E+03  0.00000000000E+00 0.  1.
         -2   -1    0    0    0  501 -0.00000000000E+00 -0.00000000000E+00 -0.60230307345E+02  0.60230307345E+02  0.00000000000E+00 0. -1.
         25    1    1    2    0    0  0.17814117153E+03  0.11246816261E+03  0.32954950828E+03  0.41062299376E+03  0.12500000000E+03 0.  0.
         21    1    1    2  502  501 -0.17814117153E+03 -0.11246816261E+03  0.54373115662E+03  0.58311828583E+03  0.00000000000E+00 0.  1.
<mgrwt>
<rscale>  3 0.47423898E+03</rscale>
<asrwt>0</asrwt>
<pdfrwt beam="1">  1        2 0.14361706E+00 0.47423898E+03</pdfrwt>
<pdfrwt beam="2">  1       -2 0.92662018E-02 0.47423898E+03</pdfrwt>
<totfact> 0.21702892E+03</totfact>
</mgrwt>
</event>
<event>
 4    0  0.1264838E-002  0.4931100E+03  0.7546771E-02  0.1015593E+00
          2   -1    0    0  502    0  0.00000000000E+00  0.00000000000E+00  0.11670558632E+04  0.11670558632E+04  0.00000000000E+00 0. -1.
         -2   -1    0    0    0  501 -0.00000000000E+00 -0.00000000000E+00 -0.52087797466E+02  0.52087797466E+02  0.00000000000E+00 0.  1.
         25    1    1    2    0    0 -0.22709060440E+02  0.21745989165E+03  0.77538040125E+03  0.81525718185E+03  0.12500000000E+03 0.  0.
         21    1    1    2  502  501  0.22709060440E+02 -0.21745989165E+03  0.33958766446E+03  0.40388647880E+03  0.00000000000E+00 0.  1.
<mgrwt>
<rscale>  3 0.49311001E+03</rscale>
<asrwt>0</asrwt>
<pdfrwt beam="1">  1        2 0.17954704E+00 0.49311001E+03</pdfrwt>
<pdfrwt beam="2">  1       -2 0.80135081E-02 0.49311001E+03</pdfrwt>
<totfact> 0.19647528E+03</totfact>
</mgrwt>
</event>
<event>
 4    0  0.1264838E-002  0.5619008E+03  0.7546771E-02  0.9987763E-01
          2   -1    0    0  502    0  0.00000000000E+00  0.00000000000E+00  0.20960892929E+03  0.20960892929E+03  0.00000000000E+00 0.  1.
         -2   -1    0    0    0  501 -0.00000000000E+00 -0.00000000000E+00 -0.37657335973E+03  0.37657335973E+03  0.00000000000E+00 0. -1.
         25    1    1    2    0    0 -0.29092500074E+02 -0.25846378935E+03 -0.15076071267E+03  0.32558208865E+03  0.12500000000E+03 0.  0.
         21    1    1    2  502  501  0.29092500074E+02  0.25846378935E+03 -0.16203717761E+02  0.26060020037E+03  0.00000000000E+00 0.  1.
<mgrwt>
<rscale>  3 0.56190084E+03</rscale>
<asrwt>0</asrwt>
<pdfrwt beam="1">  1        2 0.32247528E-01 0.56190084E+03</pdfrwt>
<pdfrwt beam="2">  1       -2 0.57934363E-01 0.56190084E+03</pdfrwt>
<totfact> 0.46146514E+02</totfact>
</mgrwt>
</event>
<event>
 4    0  0.1264838E-002  0.5388000E+03  0.7546771E-02  0.1004120E+00
          2   -1    0    0  502    0  0.00000000000E+00  0.00000000000E+00  0.83650461352E+03  0.83650461352E+03  0.00000000000E+00 0.  1.
         -2   -1    0    0    0  501 -0.00000000000E+00 -0.00000000000E+00 -0.86761458463E+02  0.86761458463E+02  0.00000000000E+00 0. -1.
         25    1    1    2    0    0  0.19234676117E+03 -0.12723250625E+03  0.20899690700E+03  0.33539542977E+03  0.12500000000E+03 0.  0.
         21    1    1    2  502  501 -0.19234676117E+03  0.12723250625E+03  0.54074624806E+03  0.58787064221E+03  0.00000000000E+00 0.  1.
<mgrwt>
<rscale>  3 0.53880000E+03</rscale>
<asrwt>0</asrwt>
<pdfrwt beam="1">  1        2 0.12869301E+00 0.53880000E+03</pdfrwt>
<pdfrwt beam="2">  1       -2 0.13347917E-01 0.53880000E+03</pdfrwt>
<totfact> 0.13893469E+03</totfact>
</mgrwt>
</event>
<event>
 4    0  0.1264838E-002  0.1073683E+04  0.7546771E-02  0.9231229E-01
          2   -1    0    0  502    0  0.00000000000E+00  0.00000000000E+00  0.15102298227E+04  0.15102298227E+04  0.00000000000E+00 0. -1.
         -2   -1    0    0    0  501 -0.00000000000E+00 -0.00000000000E+00 -0.19083101765E+03  0.19083101765E+03  0.00000000000E+00 0.  1.
         25    1    1    2    0    0 -0.32520507474E+03  0.27962614463E+03  0.17650508645E+03  0.48034171892E+03  0.12500000000E+03 0.  0.
         21    1    1    2  502  501  0.32520507474E+03 -0.27962614463E+03  0.11428937186E+04  0.12207191215E+04  0.00000000000E+00 0. -1.
<mgrwt>
<rscale>  3 0.10736828E+04</rscale>
<asrwt>0</asrwt>
<pdfrwt beam="1">  1        2 0.23234304E+00 0.10736828E+04</pdfrwt>
<pdfrwt beam="2">  1       -2 0.29358619E-01 0.10736828E+04</pdfrwt>
<totfact> 0.13287536E+02</totfact>
</mgrwt>
</event>
<event>
 4    0  0.1264838E-002  0.5444570E+03  0.7546771E-02  0.1002785E+00
          1   -1    0    0  502    0  0.00000000000E+00  0.00000000000E+00  0.54946225006E+03  0.54946225006E+03  0.00000000000E+00 0.  1.
         -1   -1    0    0    0  501 -0.00000000000E+00 -0.00000000000E+00 -0.13487434790E+03  0.13487434790E+03  0.00000000000E+00 0. -1.
         25    1    1    2    0    0 -0.10068328169E+02 -0.25035186364E+03  0.29492661256E+03  0.40667448120E+03  0.12500000000E+03 0.  0.
         21    1    1    2  502  501  0.10068328169E+02  0.25035186364E+03  0.11966128959E+03  0.27766211677E+03  0.00000000000E+00 0. -1.
<mgrwt>
<rscale>  3 0.54445702E+03</rscale>
<asrwt>0</asrwt>
<pdfrwt beam="1">  1        1 0.84532653E-01 0.54445702E+03</pdfrwt>
<pdfrwt beam="2">  1       -1 0.20749900E-01 0.54445702E+03</pdfrwt>
<totfact> 0.75224645E+02</totfact>
</mgrwt>
</event>
<event>
 4    0  0.1264838E-002  0.6141907E+03  0.7546771E-02  0.9876394E-01
         -1   -1    0    0    0  501 -0.00000000000E+00  0.00000000000E+00  0.60914738740E+03  0.60914738740E+03  0.00000000000E+00 0.  1.
          1   -1    0    0  502    0  0.00000000000E+00 -0.00000000000E+00 -0.15481895830E+03  0.15481895830E+03  0.00000000000E+00 0. -1.
         25    1    1    2    0    0  0.79458363098E+01 -0.21799107681E+03  0.48244752372E+03  0.54402560512E+03  0.12500000000E+03 0.  0.
         21    1    1    2  502  501 -0.79458363098E+01  0.21799107681E+03 -0.28119094625E+02  0.21994074057E+03  0.00000000000E+00 0. -1.
<mgrwt>
<rscale>  3 0.61419073E+03</rscale>
<asrwt>0</asrwt>
<pdfrwt beam="1">  1        1 0.23818302E-01 0.61419073E+03</pdfrwt>
<pdfrwt beam="2">  1       -1 0.93714981E-01 0.61419073E+03</pdfrwt>
<totfact> 0.23365762E+02</totfact>
</mgrwt>
</event>
<event>
 4    0  0.1264838E-002  0.5096160E+03  0.7546771E-02  0.1011299E+00
          2   -1    0    0  502    0  0.00000000000E+00  0.00000000000E+00  0.43229025258E+03  0.43229025258E+03  0.00000000000E+00 0.  1.
         -2   -1    0    0    0  501 -0.00000000000E+00 -0.00000000000E+00 -0.15019334058E+03  0.15019334058E+03  0.00000000000E+00 0. -1.
         25    1    1    2    0    0  0.18146606924E+03  0.15549515378E+03  0.13179222673E+03  0.30017139797E+03  0.12500000000E+03 0.  0.
         21    1    1    2  502  501 -0.18146606924E+03 -0.15549515378E+03  0.15030468527E+03  0.28231219518E+03  0.00000000000E+00 0. -1.
<mgrwt>
<rscale>  3 0.50961600E+03</rscale>
<asrwt>0</asrwt>
<pdfrwt beam="1">  1        2 0.66506192E-01 0.50961600E+03</pdfrwt>
<pdfrwt beam="2">  1       -2 0.23106668E-01 0.50961600E+03</pdfrwt>
<totfact> 0.12033354E+03</totfact>
</mgrwt>
</event>
<event>
 4    0  0.1264838E-002  0.6155445E+03  0.7546771E-02  0.9873671E-01
          1   -1    0    0  502    0  0.00000000000E+00  0.00000000000E+00  0.44438597376E+03  0.44438597376E+03  0.00000000000E+00 0. -1.
         -1   -1    0    0    0  501 -0.00000000000E+00 -0.00000000000E+00 -0.21315652106E+03  0.21315652106E+03  0.00000000000E+00 0.  1.
         25    1    1    2    0    0 -0.19713490326E+03 -0.78868166542E+02  0.33927820525E+03  0.41930544753E+03  0.12500000000E+03 0.  0.
         21    1    1    2  502  501  0.19713490326E+03  0.78868166542E+02 -0.10804875255E+03  0.23823704729E+03  0.00000000000E+00 0.  1.
<mgrwt>
<rscale>  3 0.61554453E+03</rscale>
<asrwt>0</asrwt>
<pdfrwt beam="1">  1        1 0.68367073E-01 0.61554453E+03</pdfrwt>
<pdfrwt beam="2">  1       -1 0.32793311E-01 0.61554453E+03</pdfrwt>
<totfact> 0.45912887E+02</totfact>
</mgrwt>
</event>
<event>
 4    0  0.1264838E-002  0.7055199E+03  0.7546771E-02  0.9707839E-01
          2   -1    0    0  502    0  0.00000000000E+00  0.00000000000E+00  0.77413314398E+03  0.77413314398E+03  0.00000000000E+00 0.  1.
         -2   -1    0    0    0  501 -0.00000000000E+00 -0.00000000000E+00 -0.16074698378E+03  0.16074698378E+03  0.00000000000E+00 0. -1.
         25    1    1    2    0    0  0.29575393865E+03  0.14468945350E+03  0.19527716175E+03  0.40269541850E+03  0.12500000000E+03 0.  0.
         21    1    1    2  502  501 -0.29575393865E+03 -0.14468945350E+03  0.41810899846E+03  0.53218470926E+03  0.00000000000E+00 0.  1.
<mgrwt>
<rscale>  3 0.70551986E+03</rscale>
<asrwt>0</asrwt>
<pdfrwt beam="1">  1        2 0.11909740E+00 0.70551986E+03</pdfrwt>
<pdfrwt beam="2">  1       -2 0.24730306E-01 0.70551986E+03</pdfrwt>
<totfact> 0.52901457E+02</totfact>
</mgrwt>
</event>
<event>
 4    0  0.1264838E-002  0.4677690E+03  0.7546771E-02  0.1022552E+00
          2   -1    0    0  502    0  0.00000000000E+00  0.00000000000E+00  0.76892625447E+02  0.76892625447E+02  0.00000000000E+00 0.  1.
         -2   -1    0    0    0  501 -0.00000000000E+00 -0.00000000000E+00 -0.71140696654E+03  0.71140696654E+03  0.00000000000E+00 0. -1.
         25    1    1    2    0    0 -0.14705257341E+03  0.14246568146E+03 -0.21783519094E+03  0.32403410338E+03  0.12500000000E+03 0.  0.
         21    1    1    2  502  501  0.14705257341E+03 -0.14246568146E+03 -0.41667915016E+03  0.46426548861E+03  0.00000000000E+00 0. -1.
<mgrwt>
<rscale>  3 0.46776896E+03</rscale>
<asrwt>0</asrwt>
<pdfrwt beam="1">  1        2 0.11829635E-01 0.46776896E+03</pdfrwt>
<pdfrwt beam="2">  1       -2 0.10944722E+00 0.46776896E+03</pdfrwt>
<totfact> 0.36163437E+02</totfact>
</mgrwt>
</event>
<event>
 4    0  0.1264838E-002  0.6249829E+03  0.7546771E-02  0.9854888E-01
         -2   -1    0    0    0  501 -0.00000000000E+00  0.00000000000E+00  0.48494316454E+02  0.48494316454E+02  0.00000000000E+00 0.  1.
          2   -1    0    0  502    0  0.00000000000E+00 -0.00000000000E+00 -0.20136568147E+04  0.20136568147E+04  0.00000000000E+00 0. -1.
         25    1    1    2    0    0  0.28880112788E+03 -0.58640912391E+02 -0.83670612695E+03  0.89584987076E+03  0.12500000000E+03 0.  0.
         21    1    1    2  502  501 -0.28880112788E+03  0.58640912391E+02 -0.11284563713E+04  0.11663012604E+04  0.00000000000E+00 0. -1.
<mgrwt>
<rscale>  3 0.62498291E+03</rscale>
<asrwt>0</asrwt>
<pdfrwt beam="1">  1        2 0.30979335E+00 0.62498291E+03</pdfrwt>
<pdfrwt beam="2">  1       -2 0.74606642E-02 0.62498291E+03</pdfrwt>
<totfact> 0.74548703E+02</totfact>
</mgrwt>
</event>
<event>
 4    0  0.1264838E-002  0.5778765E+03  0.7546771E-02  0.9952399E-01
         -2   -1    0    0    0  501 -0.00000000000E+00  0.00000000000E+00  0.75641444112E+02  0.75641444112E+02  0.00000000000E+00 0. -1.
          2   -1    0    0  502    0  0.00000000000E+00 -0.00000000000E+00 -0.11036979241E+04  0.11036979241E+04  0.00000000000E+00 0.  1.
         25    1    1    2    0    0 -0.66680588340E+02 -0.22174170922E+03 -0.23373169621E+03  0.35195339505E+03  0.12500000000E+03 0.  0.
         21    1    1    2  502  501  0.66680588340E+02  0.22174170922E+03 -0.79432478374E+03  0.82738597313E+03  0.00000000000E+00 0.  1.
<mgrwt>
<rscale>  3 0.57787647E+03</rscale>
<asrwt>0</asrwt>
<pdfrwt beam="1">  1        2 0.16979969E+00 0.57787647E+03</pdfrwt>
<pdfrwt beam="2">  1       -2 0.11637145E-01 0.57787647E+03</pdfrwt>
<totfact> 0.11718311E+03</totfact>
</mgrwt>
</event>
<event>
 4    0  0.1264838E-002  0.5217564E+03  0.7546771E-02  0.1008251E+00
         -1   -1    0    0    0  501 -0.00000000000E+00  0.00000000000E+00  0.33650062125E+02  0.33650062125E+02  0.00000000000E+00 0. -1.
          1   -1    0    0  502    0  0.00000000000E+00 -0.00000000000E+00 -0.20225055410E+04  0.20225055410E+04  0.00000000000E+00 0.  1.
         25    1    1    2    0    0 -0.68096635879E+02 -0.22797107785E+03 -0.80662724172E+03  0.85022377715E+03  0.12500000000E+03 0.  0.
         21    1    1    2  502  501  0.68096635879E+02  0.22797107785E+03 -0.11822282371E+04  0.12059318259E+04  0.00000000000E+00 0.  1.
<mgrwt>
<rscale>  3 0.52175641E+03</rscale>
<asrwt>0</asrwt>
<pdfrwt beam="1">  1        1 0.31115480E+00 0.52175641E+03</pdfrwt>
<pdfrwt beam="2">  1       -1 0.51769310E-02 0.52175641E+03</pdfrwt>
<totfact> 0.53024462E+02</totfact>
</mgrwt>
</event>
<event>
 4    0  0.1264838E-002  0.4680113E+03  0.7546771E-02  0.1022483E+00
         -4   -1    0    0    0  501 -0.00000000000E+00  0.00000000000E+00  0.22019084571E+03  0.22019084571E+03  0.00000000000E+00 0. -1.
          4   -1    0    0  502    0  0.00000000000E+00 -0.00000000000E+00 -0.24868715342E+03  0.24868715342E+03  0.00000000000E+00 0.  1.
         25    1    1    2    0    0 -0.17993114810E+03 -0.89929169130E+02 -0.97650155567E+02  0.25616991704E+03  0.12500000000E+03 0.  0.
         21    1    1    2  502  501  0.17993114810E+03  0.89929169130E+02  0.69153847857E+02  0.21270808210E+03  0.00000000000E+00 0.  1.
<mgrwt>
<rscale>  3 0.46801126E+03</rscale>
<asrwt>0</asrwt>
<pdfrwt beam="1">  1        4 0.38259562E-01 0.46801126E+03</pdfrwt>
<pdfrwt beam="2">  1       -4 0.33875515E-01 0.46801126E+03</pdfrwt>
<totfact> 0.10944201E+02</totfact>
</mgrwt>
</event>
<event>
 4    0  0.1264838E-002  0.5630439E+03  0.7546771E-02  0.9985191E-01
         -2   -1    0    0    0  501 -0.00000000000E+00  0.00000000000E+00  0.41890462003E+02  0.41890462003E+02  0.00000000000E+00 0.  1.
          2   -1    0    0  502    0  0.00000000000E+00 -0.00000000000E+00 -0.18919485746E+04  0.18919485746E+04  0.00000000000E+00 0. -1.
         25    1    1    2    0    0  0.21075713691E+03 -0.14221927665E+03 -0.12577710516E+04  0.12892858145E+04  0.12500000000E+03 0.  0.
         21    1    1    2  502  501 -0.21075713691E+03  0.14221927665E+03 -0.59228706102E+03  0.64455322205E+03  0.00000000000E+00 0. -1.
<mgrwt>
<rscale>  3 0.56304387E+03</rscale>
<asrwt>0</asrwt>
<pdfrwt beam="1">  1        2 0.29106898E+00 0.56304387E+03</pdfrwt>
<pdfrwt beam="2">  1       -2 0.64446871E-02 0.56304387E+03</pdfrwt>
<totfact> 0.10975980E+03</totfact>
</mgrwt>
</event>
<event>
 4    0  0.1264838E-002  0.6239770E+03  0.7546771E-02  0.9856873E-01
          2   -1    0    0  502    0  0.00000000000E+00  0.00000000000E+00  0.29019096617E+03  0.29019096617E+03  0.00000000000E+00 0.  1.
         -2   -1    0    0    0  501 -0.00000000000E+00 -0.00000000000E+00 -0.33542333757E+03  0.33542333757E+03  0.00000000000E+00 0. -1.
         25    1    1    2    0    0 -0.10700574807E+03 -0.26613592050E+03  0.62739899317E+02  0.31912357053E+03  0.12500000000E+03 0.  0.
         21    1    1    2  502  501  0.10700574807E+03  0.26613592050E+03 -0.10797227073E+03  0.30649073321E+03  0.00000000000E+00 0.  1.
<mgrwt>
<rscale>  3 0.62397699E+03</rscale>
<asrwt>0</asrwt>
<pdfrwt beam="1">  1        2 0.44644764E-01 0.62397699E+03</pdfrwt>
<pdfrwt beam="2">  1       -2 0.51603591E-01 0.62397699E+03</pdfrwt>
<totfact> 0.40793188E+02</totfact>
</mgrwt>
</event>
<event>
 4    0  0.1264838E-002  0.4884481E+03  0.7546771E-02  0.1016839E+00
         -2   -1    0    0    0  501 -0.00000000000E+00  0.00000000000E+00  0.59317204675E+02  0.59317204675E+02  0.00000000000E+00 0.  1.
          2   -1    0    0  502    0  0.00000000000E+00 -0.00000000000E+00 -0.10055328339E+04  0.10055328339E+04  0.00000000000E+00 0. -1.
         25    1    1    2    0    0  0.83471501788E+02 -0.19601752906E+03 -0.32566784711E+03  0.40874797853E+03  0.12500000000E+03 0.  0.
         21    1    1    2  502  501 -0.83471501788E+02  0.19601752906E+03 -0.62054778211E+03  0.65610206004E+03  0.00000000000E+00 0.  1.
<mgrwt>
<rscale>  3 0.48844814E+03</rscale>
<asrwt>0</asrwt>
<pdfrwt beam="1">  1        2 0.15469735E+00 0.48844814E+03</pdfrwt>
<pdfrwt beam="2">  1       -2 0.91257246E-02 0.48844814E+03</pdfrwt>
<totfact> 0.20008827E+03</totfact>
</mgrwt>
</event>
<event>
 4    0  0.1264838E-002  0.6832215E+03  0.7546771E-02  0.9746364E-01
          2   -1    0    0  502    0  0.00000000000E+00  0.00000000000E+00  0.69711191878E+02  0.69711191878E+02  0.00000000000E+00 0.  1.
         -2   -1    0    0    0  501 -0.00000000000E+00 -0.00000000000E+00 -0.16740195556E+04  0.16740195556E+04  0.00000000000E+00 0. -1.
         25    1    1    2    0    0 -0.29301800360E+03 -0.14856695312E+03 -0.91305243095E+03  0.97837693742E+03  0.12500000000E+03 0.  0.
         21    1    1    2  502  501  0.29301800360E+03  0.14856695312E+03 -0.69125593280E+03  0.76535381009E+03  0.00000000000E+00 0.  1.
<mgrwt>
<rscale>  3 0.68322148E+03</rscale>
<asrwt>0</asrwt>
<pdfrwt beam="1">  1        2 0.10724799E-01 0.68322148E+03</pdfrwt>
<pdfrwt beam="2">  1       -2 0.25754147E+00 0.68322148E+03</pdfrwt>
<totfact> 0.36365172E+01</totfact>
</mgrwt>
</event>
<event>
 4    0  0.1264838E-002  0.4455055E+03  0.7546771E-02  0.1029071E+00
          1   -1    0    0  502    0  0.00000000000E+00  0.00000000000E+00  0.31185233294E+03  0.31185233294E+03  0.00000000000E+00 0. -1.
         -1   -1    0    0    0  501 -0.00000000000E+00 -0.00000000000E+00 -0.15910986699E+03  0.15910986699E+03  0.00000000000E+00 0.  1.
         25    1    1    2    0    0  0.16676617126E+03 -0.11958951362E+03  0.81227472742E+02  0.25364445583E+03  0.12500000000E+03 0.  0.
         21    1    1    2  502  501 -0.16676617126E+03  0.11958951362E+03  0.71514993206E+02  0.21731774410E+03  0.00000000000E+00 0. -1.
<mgrwt>
<rscale>  3 0.44550548E+03</rscale>
<asrwt>0</asrwt>
<pdfrwt beam="1">  1        1 0.47977282E-01 0.44550548E+03</pdfrwt>
<pdfrwt beam="2">  1       -1 0.24478441E-01 0.44550548E+03</pdfrwt>
<totfact> 0.12084008E+03</totfact>
</mgrwt>
</event>
<event>
 4    0  0.1264838E-002  0.5438134E+03  0.7546771E-02  0.1002936E+00
         -1   -1    0    0    0  501 -0.00000000000E+00  0.00000000000E+00  0.50549694414E+03  0.50549694414E+03  0.00000000000E+00 0. -1.
          1   -1    0    0  502    0  0.00000000000E+00 -0.00000000000E+00 -0.14625853662E+03  0.14625853662E+03  0.00000000000E+00 0.  1.
         25    1    1    2    0    0  0.16502503261E+03 -0.13847353006E+03  0.19960899426E+02  0.24986319741E+03  0.12500000000E+03 0.  0.
         21    1    1    2  502  501 -0.16502503261E+03  0.13847353006E+03  0.33927750810E+03  0.40189228335E+03  0.00000000000E+00 0. -1.
<mgrwt>
<rscale>  3 0.54381336E+03</rscale>
<asrwt>0</asrwt>
<pdfrwt beam="1">  1        1 0.22501314E-01 0.54381336E+03</pdfrwt>
<pdfrwt beam="2">  1       -1 0.77768760E-01 0.54381336E+03</pdfrwt>
<totfact> 0.37712603E+02</totfact>
</mgrwt>
</event>
<event>
 4    0  0.1264838E-002  0.5827097E+03  0.7546771E-02  0.9941942E-01
         -2   -1    0    0    0  501 -0.00000000000E+00  0.00000000000E+00  0.77046527352E+02  0.77046527352E+02  0.00000000000E+00 0.  1.
          2   -1    0    0  502    0  0.00000000000E+00 -0.00000000000E+00 -0.11017711835E+04  0.11017711835E+04  0.00000000000E+00 0. -1.
         25    1    1    2    0    0  0.11797349986E+03  0.21552391411E+03 -0.79882432530E+03  0.84505242850E+03  0.12500000000E+03 0.  0.
         21    1    1    2  502  501 -0.11797349986E+03 -0.21552391411E+03 -0.22590033084E+03  0.33376528234E+03  0.00000000000E+00 0.  1.
<mgrwt>
<rscale>  3 0.58270968E+03</rscale>
<asrwt>0</asrwt>
<pdfrwt beam="1">  1        2 0.16950326E+00 0.58270968E+03</pdfrwt>
<pdfrwt beam="2">  1       -2 0.11853312E-01 0.58270968E+03</pdfrwt>
<totfact> 0.11398357E+03</totfact>
</mgrwt>
</event>
<event>
 4    0  0.1264838E-002  0.6540032E+03  0.7546771E-02  0.9799296E-01
         -2   -1    0    0    0  501 -0.00000000000E+00  0.00000000000E+00  0.19148527026E+03  0.19148527026E+03  0.00000000000E+00 0.  1.
          2   -1    0    0  502    0  0.00000000000E+00 -0.00000000000E+00 -0.55842438763E+03  0.55842438763E+03  0.00000000000E+00 0. -1.
         25    1    1    2    0    0 -0.21012928478E+03  0.18505085324E+03 -0.35579011175E+03  0.46969110937E+03  0.12500000000E+03 0.  0.
         21    1    1    2  502  501  0.21012928478E+03 -0.18505085324E+03 -0.11149005624E+02  0.28021854851E+03  0.00000000000E+00 0. -1.
<mgrwt>
<rscale>  3 0.65400320E+03</rscale>
<asrwt>0</asrwt>
<pdfrwt beam="1">  1        2 0.85911442E-01 0.65400320E+03</pdfrwt>
<pdfrwt beam="2">  1       -2 0.29459273E-01 0.65400320E+03</pdfrwt>
<totfact> 0.57692046E+02</totfact>
</mgrwt>
</event>
<event>
 4    0  0.1264838E-002  0.4933756E+03  0.7546771E-02  0.1015523E+00
         -2   -1    0    0    0  501 -0.00000000000E+00  0.00000000000E+00  0.49275035919E+03  0.49275035919E+03  0.00000000000E+00 0.  1.
          2   -1    0    0  502    0  0.00000000000E+00 -0.00000000000E+00 -0.12350039260E+03  0.12350039260E+03  0.00000000000E+00 0. -1.
         25    1    1    2    0    0 -0.18386615144E+03  0.95422774381E+02  0.69214797212E+02  0.25165046328E+03  0.12500000000E+03 0.  0.
         21    1    1    2  502  501  0.18386615144E+03 -0.95422774381E+02  0.30003516937E+03  0.36460028851E+03  0.00000000000E+00 0. -1.
<mgrwt>
<rscale>  3 0.49337557E+03</rscale>
<asrwt>0</asrwt>
<pdfrwt beam="1">  1        2 0.19000061E-01 0.49337557E+03</pdfrwt>
<pdfrwt beam="2">  1       -2 0.75807747E-01 0.49337557E+03</pdfrwt>
<totfact> 0.47493912E+02</totfact>
</mgrwt>
</event>
<event>
 4    0  0.1264838E-002  0.5994244E+03  0.7546771E-02  0.9906601E-01
         -2   -1    0    0    0  501 -0.00000000000E+00  0.00000000000E+00  0.90736192722E+02  0.90736192722E+02  0.00000000000E+00 0. -1.
          2   -1    0    0  502    0  0.00000000000E+00 -0.00000000000E+00 -0.98998426669E+03  0.98998426669E+03  0.00000000000E+00 0.  1.
         25    1    1    2    0    0  0.28473992479E+03  0.24180297100E+02 -0.42793467309E+03  0.52954187367E+03  0.12500000000E+03 0.  0.
         21    1    1    2  502  501 -0.28473992479E+03 -0.24180297100E+02 -0.47131340087E+03  0.55117858574E+03  0.00000000000E+00 0.  1.
<mgrwt>
<rscale>  3 0.59942440E+03</rscale>
<asrwt>0</asrwt>
<pdfrwt beam="1">  1        2 0.15230527E+00 0.59942440E+03</pdfrwt>
<pdfrwt beam="2">  1       -2 0.13959414E-01 0.59942440E+03</pdfrwt>
<totfact> 0.10191348E+03</totfact>
</mgrwt>
</event>
<event>
 4    0  0.1264838E-002  0.4556794E+03  0.7546771E-02  0.1026042E+00
          2   -1    0    0  502    0  0.00000000000E+00  0.00000000000E+00  0.51404910424E+03  0.51404910424E+03  0.00000000000E+00 0.  1.
         -2   -1    0    0    0  501 -0.00000000000E+00 -0.00000000000E+00 -0.10098439907E+03  0.10098439907E+03  0.00000000000E+00 0. -1.
         25    1    1    2    0    0 -0.18112558372E+03 -0.88173426443E+02  0.30539939247E+03  0.38661973453E+03  0.12500000000E+03 0.  0.
         21    1    1    2  502  501  0.18112558372E+03  0.88173426443E+02  0.10766531270E+03  0.22841376877E+03  0.00000000000E+00 0. -1.
<mgrwt>
<rscale>  3 0.45567945E+03</rscale>
<asrwt>0</asrwt>
<pdfrwt beam="1">  1        2 0.79084476E-01 0.45567945E+03</pdfrwt>
<pdfrwt beam="2">  1       -2 0.15536062E-01 0.45567945E+03</pdfrwt>
<totfact> 0.19589306E+03</totfact>
</mgrwt>
</event>
<event>
 4    0  0.1264838E-002  0.4728514E+03  0.7546771E-02  0.1021119E+00
         -2   -1    0    0    0  501 -0.00000000000E+00  0.00000000000E+00  0.49265903511E+02  0.49265903511E+02  0.00000000000E+00 0.  1.
          2   -1    0    0  502    0  0.00000000000E+00 -0.00000000000E+00 -0.11346003394E+04  0.11346003394E+04  0.00000000000E+00 0. -1.
         25    1    1    2    0    0  0.29431362527E+02  0.20776025697E+03 -0.74528310654E+03  0.78428466667E+03  0.12500000000E+03 0.  0.
         21    1    1    2  502  501 -0.29431362527E+02 -0.20776025697E+03 -0.34005132932E+03  0.39958157621E+03  0.00000000000E+00 0.  1.
<mgrwt>
<rscale>  3 0.47285140E+03</rscale>
<asrwt>0</asrwt>
<pdfrwt beam="1">  1        2 0.17455388E+00 0.47285140E+03</pdfrwt>
<pdfrwt beam="2">  1       -2 0.75793707E-02 0.47285140E+03</pdfrwt>
<totfact> 0.22434821E+03</totfact>
</mgrwt>
</event>
<event>
 4    0  0.1264838E-002  0.4485582E+03  0.7546771E-02  0.1028153E+00
          4   -1    0    0  502    0  0.00000000000E+00  0.00000000000E+00  0.26637469058E+03  0.26637469058E+03  0.00000000000E+00 0.  1.
         -4   -1    0    0    0  501 -0.00000000000E+00 -0.00000000000E+00 -0.18883589916E+03  0.18883589916E+03  0.00000000000E+00 0. -1.
         25    1    1    2    0    0  0.51260086417E+02 -0.19937544841E+03  0.62423569392E+02  0.24879684062E+03  0.12500000000E+03 0.  0.
         21    1    1    2  502  501 -0.51260086417E+02  0.19937544841E+03  0.15115222027E+02  0.20641374912E+03  0.00000000000E+00 0.  1.
<mgrwt>
<rscale>  3 0.44855815E+03</rscale>
<asrwt>0</asrwt>
<pdfrwt beam="1">  1        4 0.40980722E-01 0.44855815E+03</pdfrwt>
<pdfrwt beam="2">  1       -4 0.29051677E-01 0.44855815E+03</pdfrwt>
<totfact> 0.12798984E+02</totfact>
</mgrwt>
</event>
<event>
 4    0  0.1264838E-002  0.5930189E+03  0.7546771E-02  0.9919996E-01
          2   -1    0    0  502    0  0.00000000000E+00  0.00000000000E+00  0.52040088757E+03  0.52040088757E+03  0.00000000000E+00 0.  1.
         -2   -1    0    0    0  501 -0.00000000000E+00 -0.00000000000E+00 -0.16894253532E+03  0.16894253532E+03  0.00000000000E+00 0. -1.
         25    1    1    2    0    0 -0.23283081751E+03 -0.67818296932E+01  0.37105516114E+03  0.45559095185E+03  0.12500000000E+03 0.  0.
         21    1    1    2  502  501  0.23283081751E+03  0.67818296932E+01 -0.19596808882E+02  0.23375247104E+03  0.00000000000E+00 0. -1.
<mgrwt>
<rscale>  3 0.59301887E+03</rscale>
<asrwt>0</asrwt>
<pdfrwt beam="1">  1        2 0.80061674E-01 0.59301887E+03</pdfrwt>
<pdfrwt beam="2">  1       -2 0.25991160E-01 0.59301887E+03</pdfrwt>
<totfact> 0.78860845E+02</totfact>
</mgrwt>
</event>
<event>
 4    0  0.1264838E-002  0.5713854E+03  0.7546771E-02  0.9966618E-01
         -1   -1    0    0    0  501 -0.00000000000E+00  0.00000000000E+00  0.35803436227E+03  0.35803436227E+03  0.00000000000E+00 0. -1.
          1   -1    0    0  502    0  0.00000000000E+00 -0.00000000000E+00 -0.22796779781E+03  0.22796779781E+03  0.00000000000E+00 0.  1.
         25    1    1    2    0    0 -0.28405255883E+02  0.27026743477E+03  0.55864015054E+02  0.30429777034E+03  0.12500000000E+03 0.  0.
         21    1    1    2  502  501  0.28405255883E+02 -0.27026743477E+03  0.74202549398E+02  0.28170438974E+03  0.00000000000E+00 0.  1.
<mgrwt>
<rscale>  3 0.57138535E+03</rscale>
<asrwt>0</asrwt>
<pdfrwt beam="1">  1        1 0.35071969E-01 0.57138535E+03</pdfrwt>
<pdfrwt beam="2">  1       -1 0.55082210E-01 0.57138535E+03</pdfrwt>
<totfact> 0.42312227E+02</totfact>
</mgrwt>
</event>
<event>
 4    0  0.1264838E-002  0.9653573E+03  0.7546771E-02  0.9347378E-01
         -2   -1    0    0    0  501 -0.00000000000E+00  0.00000000000E+00  0.15121116007E+03  0.15121116007E+03  0.00000000000E+00 0.  1.
          2   -1    0    0  502    0  0.00000000000E+00 -0.00000000000E+00 -0.15407504642E+04  0.15407504642E+04  0.00000000000E+00 0. -1.
         25    1    1    2    0    0  0.42495741830E+01  0.40218347449E+03 -0.26488927947E+03  0.49755495819E+03  0.12500000000E+03 0.  0.
         21    1    1    2  502  501 -0.42495741830E+01 -0.40218347449E+03 -0.11246500247E+04  0.11944066661E+04  0.00000000000E+00 0. -1.
<mgrwt>
<rscale>  3 0.96535727E+03</rscale>
<asrwt>0</asrwt>
<pdfrwt beam="1">  1        2 0.23703854E+00 0.96535727E+03</pdfrwt>
<pdfrwt beam="2">  1       -2 0.23263255E-01 0.96535727E+03</pdfrwt>
<totfact> 0.19662790E+02</totfact>
</mgrwt>
</event>
<event>
 4    0  0.1264838E-002  0.5083713E+03  0.7546771E-02  0.1011617E+00
          4   -1    0    0  502    0  0.00000000000E+00  0.00000000000E+00  0.24354594787E+03  0.24354594787E+03  0.00000000000E+00 0.  1.
         -4   -1    0    0    0  501 -0.00000000000E+00 -0.00000000000E+00 -0.26529011571E+03  0.26529011571E+03  0.00000000000E+00 0. -1.
         25    1    1    2    0    0 -0.17918310075E+03 -0.13071158526E+03 -0.10016484728E+03  0.27358746087E+03  0.12500000000E+03 0.  0.
         21    1    1    2  502  501  0.17918310075E+03  0.13071158526E+03  0.78420679446E+02  0.23524860271E+03  0.00000000000E+00 0.  1.
<mgrwt>
<rscale>  3 0.50837125E+03</rscale>
<asrwt>0</asrwt>
<pdfrwt beam="1">  1        4 0.37468608E-01 0.50837125E+03</pdfrwt>
<pdfrwt beam="2">  1       -4 0.40813864E-01 0.50837125E+03</pdfrwt>
<totfact> 0.79291004E+01</totfact>
</mgrwt>
</event>
<event>
 4    0  0.1264838E-002  0.9887563E+03  0.7546771E-02  0.9320963E-01
         -2   -1    0    0    0  501 -0.00000000000E+00  0.00000000000E+00  0.10805585230E+03  0.10805585230E+03  0.00000000000E+00 0. -1.
          2   -1    0    0  502    0  0.00000000000E+00 -0.00000000000E+00 -0.22618836222E+04  0.22618836222E+04  0.00000000000E+00 0.  1.
         25    1    1    2    0    0  0.20521867794E+03  0.26456672796E+02 -0.21494240374E+04  0.21629755787E+04  0.12500000000E+03 0.  0.
         21    1    1    2  502  501 -0.20521867794E+03 -0.26456672796E+02 -0.44037324613E+01  0.20696389581E+03  0.00000000000E+00 0. -1.
<mgrwt>
<rscale>  3 0.98875631E+03</rscale>
<asrwt>0</asrwt>
<pdfrwt beam="1">  1        2 0.34798208E+00 0.98875631E+03</pdfrwt>
<pdfrwt beam="2">  1       -2 0.16623978E-01 0.98875631E+03</pdfrwt>
<totfact> 0.14141615E+02</totfact>
</mgrwt>
</event>
<event>
 4    0  0.1264838E-002  0.6350882E+03  0.7546771E-02  0.9835170E-01
          2   -1    0    0  502    0  0.00000000000E+00  0.00000000000E+00  0.92853862343E+03  0.92853862343E+03  0.00000000000E+00 0.  1.
         -2   -1    0    0    0  501 -0.00000000000E+00 -0.00000000000E+00 -0.10859456373E+03  0.10859456373E+03  0.00000000000E+00 0. -1.
         25    1    1    2    0    0  0.22847519344E+03  0.16999180412E+03  0.60530390955E+03  0.68052623050E+03  0.12500000000E+03 0.  0.
         21    1    1    2  502  501 -0.22847519344E+03 -0.16999180412E+03  0.21464015015E+03  0.35660695666E+03  0.00000000000E+00 0. -1.
<mgrwt>
<rscale>  3 0.63508817E+03</rscale>
<asrwt>0</asrwt>
<pdfrwt beam="1">  1        2 0.14285209E+00 0.63508817E+03</pdfrwt>
<pdfrwt beam="2">  1       -2 0.16706857E-01 0.63508817E+03</pdfrwt>
<totfact> 0.82366761E+02</totfact>
</mgrwt>
</event>
<event>
 4    0  0.1264838E-002  0.6411347E+03  0.7546771E-02  0.9823558E-01
          1   -1    0    0  502    0  0.00000000000E+00  0.00000000000E+00  0.69739225778E+03  0.69739225778E+03  0.00000000000E+00 0.  1.
         -1   -1    0    0    0  501 -0.00000000000E+00 -0.00000000000E+00 -0.14735381792E+03  0.14735381792E+03  0.00000000000E+00 0. -1.
         25    1    1    2    0    0  0.20128098930E+03  0.22781727078E+03  0.21720469441E+03  0.39397668052E+03  0.12500000000E+03 0.  0.
         21    1    1    2  502  501 -0.20128098930E+03 -0.22781727078E+03  0.33283374545E+03  0.45076939518E+03  0.00000000000E+00 0. -1.
<mgrwt>
<rscale>  3 0.64113466E+03</rscale>
<asrwt>0</asrwt>
<pdfrwt beam="1">  1        1 0.10729111E+00 0.64113466E+03</pdfrwt>
<pdfrwt beam="2">  1       -1 0.22669819E-01 0.64113466E+03</pdfrwt>
<totfact> 0.45846491E+02</totfact>
</mgrwt>
</event>
<event>
 4    0  0.1264838E-002  0.5021030E+03  0.7546771E-02  0.1013231E+00
         -1   -1    0    0    0  501 -0.00000000000E+00  0.00000000000E+00  0.34679253214E+02  0.34679253214E+02  0.00000000000E+00 0.  1.
          1   -1    0    0  502    0  0.00000000000E+00 -0.00000000000E+00 -0.18174226924E+04  0.18174226924E+04  0.00000000000E+00 0. -1.
         25    1    1    2    0    0  0.20913395357E+03 -0.70681218394E+01 -0.13450889577E+04  0.13669953449E+04  0.12500000000E+03 0.  0.
         21    1    1    2  502  501 -0.20913395357E+03  0.70681218394E+01 -0.43765448148E+03  0.48510660070E+03  0.00000000000E+00 0.  1.
<mgrwt>
<rscale>  3 0.50210302E+03</rscale>
<asrwt>0</asrwt>
<pdfrwt beam="1">  1        1 0.27960355E+00 0.50210302E+03</pdfrwt>
<pdfrwt beam="2">  1       -1 0.53352686E-02 0.50210302E+03</pdfrwt>
<totfact> 0.69321453E+02</totfact>
</mgrwt>
</event>
<event>
 4    0  0.1264838E-002  0.5035402E+03  0.7546771E-02  0.1012859E+00
          2   -1    0    0  502    0  0.00000000000E+00  0.00000000000E+00  0.24147605113E+02  0.24147605113E+02  0.00000000000E+00 0.  1.
         -2   -1    0    0    0  501 -0.00000000000E+00 -0.00000000000E+00 -0.26250295875E+04  0.26250295875E+04  0.00000000000E+00 0. -1.
         25    1    1    2    0    0 -0.22407367886E+03  0.25728456806E+02 -0.10105991287E+04  0.10429796575E+04  0.12500000000E+03 0.  0.
         21    1    1    2  502  501  0.22407367886E+03 -0.25728456806E+02 -0.15902828537E+04  0.16061975351E+04  0.00000000000E+00 0. -1.
<mgrwt>
<rscale>  3 0.50354018E+03</rscale>
<asrwt>0</asrwt>
<pdfrwt beam="1">  1        2 0.37150191E-02 0.50354018E+03</pdfrwt>
<pdfrwt beam="2">  1       -2 0.40385038E+00 0.50354018E+03</pdfrwt>
<totfact> 0.19130589E+01</totfact>
</mgrwt>
</event>
<event>
 4    0  0.1264838E-002  0.6879711E+03  0.7546771E-02  0.9738027E-01
          1   -1    0    0  502    0  0.00000000000E+00  0.00000000000E+00  0.99223796209E+02  0.99223796209E+02  0.00000000000E+00 0.  1.
         -1   -1    0    0    0  501 -0.00000000000E+00 -0.00000000000E+00 -0.11925170657E+04  0.11925170657E+04  0.00000000000E+00 0. -1.
         25    1    1    2    0    0  0.11101824902E+03 -0.28968003475E+03 -0.33935667357E+03  0.47647405601E+03  0.12500000000E+03 0.  0.
         21    1    1    2  502  501 -0.11101824902E+03  0.28968003475E+03 -0.75393659596E+03  0.81526680595E+03  0.00000000000E+00 0. -1.
<mgrwt>
<rscale>  3 0.68797113E+03</rscale>
<asrwt>0</asrwt>
<pdfrwt beam="1">  1        1 0.15265200E-01 0.68797113E+03</pdfrwt>
<pdfrwt beam="2">  1       -1 0.18346415E+00 0.68797113E+03</pdfrwt>
<totfact> 0.75849091E+01</totfact>
</mgrwt>
</event>
<event>
 4    0  0.1264838E-002  0.5181169E+03  0.7546771E-02  0.1009155E+00
         -2   -1    0    0    0  501 -0.00000000000E+00  0.00000000000E+00  0.80214259878E+02  0.80214259878E+02  0.00000000000E+00 0.  1.
          2   -1    0    0  502    0  0.00000000000E+00 -0.00000000000E+00 -0.83665038083E+03  0.83665038083E+03  0.00000000000E+00 0. -1.
         25    1    1    2    0    0 -0.32664851157E+01  0.23145490585E+03 -0.26379897002E+03  0.37255461338E+03  0.12500000000E+03 0.  0.
         21    1    1    2  502  501  0.32664851157E+01 -0.23145490585E+03 -0.49263715093E+03  0.54431002732E+03  0.00000000000E+00 0. -1.
<mgrwt>
<rscale>  3 0.51811694E+03</rscale>
<asrwt>0</asrwt>
<pdfrwt beam="1">  1        2 0.12871544E+00 0.51811694E+03</pdfrwt>
<pdfrwt beam="2">  1       -2 0.12340656E-01 0.51811694E+03</pdfrwt>
<totfact> 0.15817779E+03</totfact>
</mgrwt>
</event>
<event>
 4    0  0.1264838E-002  0.5042140E+03  0.7546771E-02  0.1012685E+00
         -1   -1    0    0    0  501 -0.00000000000E+00  0.00000000000E+00  0.13168585799E+03  0.13168585799E+03  0.00000000000E+00 0.  1.
          1   -1    0    0  502    0  0.00000000000E+00 -0.00000000000E+00 -0.48264809538E+03  0.48264809538E+03  0.00000000000E+00 0. -1.
         25    1    1    2    0    0  0.13035533049E+03 -0.18699508335E+03 -0.26357289403E+03  0.37020986460E+03  0.12500000000E+03 0.  0.
         21    1    1    2  502  501 -0.13035533049E+03  0.18699508335E+03 -0.87389343366E+02  0.24412408877E+03  0.00000000000E+00 0.  1.
<mgrwt>
<rscale>  3 0.50421396E+03</rscale>
<asrwt>0</asrwt>
<pdfrwt beam="1">  1        1 0.74253552E-01 0.50421396E+03</pdfrwt>
<pdfrwt beam="2">  1       -1 0.20259363E-01 0.50421396E+03</pdfrwt>
<totfact> 0.93546921E+02</totfact>
</mgrwt>
</event>
<event>
 4    0  0.1264838E-002  0.7244530E+03  0.7546771E-02  0.9676305E-01
          2   -1    0    0  502    0  0.00000000000E+00  0.00000000000E+00  0.17282450145E+04  0.17282450145E+04  0.00000000000E+00 0.  1.
         -2   -1    0    0    0  501 -0.00000000000E+00 -0.00000000000E+00 -0.75919818946E+02  0.75919818946E+02  0.00000000000E+00 0. -1.
         25    1    1    2    0    0 -0.10986363701E+03 -0.25957684531E+03  0.13735116326E+04  0.14076964737E+04  0.12500000000E+03 0.  0.
         21    1    1    2  502  501  0.10986363701E+03  0.25957684531E+03  0.27881356301E+03  0.39646835974E+03  0.00000000000E+00 0. -1.
<mgrwt>
<rscale>  3 0.72445303E+03</rscale>
<asrwt>0</asrwt>
<pdfrwt beam="1">  1        2 0.26588382E+00 0.72445303E+03</pdfrwt>
<pdfrwt beam="2">  1       -2 0.11679973E-01 0.72445303E+03</pdfrwt>
<totfact> 0.51273805E+02</totfact>
</mgrwt>
</event>
<event>
 4    0  0.1264838E-002  0.4522221E+03  0.7546771E-02  0.1027061E+00
          4   -1    0    0  502    0  0.00000000000E+00  0.00000000000E+00  0.80259955829E+02  0.80259955829E+02  0.00000000000E+00 0. -1.
         -4   -1    0    0    0  501 -0.00000000000E+00 -0.00000000000E+00 -0.63700775248E+03  0.63700775248E+03  0.00000000000E+00 0.  1.
         25    1    1    2    0    0  0.11213328044E+03  0.16983636295E+03 -0.22535142715E+03  0.32836949992E+03  0.12500000000E+03 0.  0.
         21    1    1    2  502  501 -0.11213328044E+03 -0.16983636295E+03 -0.33139636950E+03  0.38889820838E+03  0.00000000000E+00 0.  1.
<mgrwt>
<rscale>  3 0.45222213E+03</rscale>
<asrwt>0</asrwt>
<pdfrwt beam="1">  1        4 0.12347686E-01 0.45222213E+03</pdfrwt>
<pdfrwt beam="2">  1       -4 0.98001192E-01 0.45222213E+03</pdfrwt>
<totfact> 0.92097473E+01</totfact>
</mgrwt>
</event>
<event>
 4    0  0.1264838E-002  0.4656974E+03  0.7546771E-02  0.1023142E+00
          1   -1    0    0  502    0  0.00000000000E+00  0.00000000000E+00  0.38259397090E+02  0.38259397090E+02  0.00000000000E+00 0. -1.
         -1   -1    0    0    0  501 -0.00000000000E+00 -0.00000000000E+00 -0.14171295437E+04  0.14171295437E+04  0.00000000000E+00 0.  1.
         25    1    1    2    0    0  0.85245685423E+02  0.19814421073E+03 -0.69963767974E+03  0.74272864361E+03  0.12500000000E+03 0.  0.
         21    1    1    2  502  501 -0.85245685423E+02 -0.19814421073E+03 -0.67923246691E+03  0.71266029722E+03  0.00000000000E+00 0.  1.
<mgrwt>
<rscale>  3 0.46569742E+03</rscale>
<asrwt>0</asrwt>
<pdfrwt beam="1">  1        1 0.58860604E-02 0.46569742E+03</pdfrwt>
<pdfrwt beam="2">  1       -1 0.21801995E+00 0.46569742E+03</pdfrwt>
<totfact> 0.16632460E+02</totfact>
</mgrwt>
</event>
<event>
 4    0  0.1264838E-002  0.5183713E+03  0.7546771E-02  0.1009092E+00
         -2   -1    0    0    0  501 -0.00000000000E+00  0.00000000000E+00  0.78973996879E+02  0.78973996879E+02  0.00000000000E+00 0. -1.
          2   -1    0    0  502    0  0.00000000000E+00 -0.00000000000E+00 -0.85062443886E+03  0.85062443886E+03  0.00000000000E+00 0.  1.
         25    1    1    2    0    0 -0.15771469817E+03 -0.15480580320E+03 -0.22229969912E+03  0.33746247044E+03  0.12500000000E+03 0.  0.
         21    1    1    2  502  501  0.15771469817E+03  0.15480580320E+03 -0.54935074286E+03  0.59213596530E+03  0.00000000000E+00 0.  1.
<mgrwt>
<rscale>  3 0.51837134E+03</rscale>
<asrwt>0</asrwt>
<pdfrwt beam="1">  1        2 0.13086529E+00 0.51837134E+03</pdfrwt>
<pdfrwt beam="2">  1       -2 0.12149846E-01 0.51837134E+03</pdfrwt>
<totfact> 0.15873013E+03</totfact>
</mgrwt>
</event>
<event>
 4    0  0.1264838E-002  0.4864068E+03  0.7546771E-02  0.1017389E+00
          2   -1    0    0  502    0  0.00000000000E+00  0.00000000000E+00  0.64879581345E+03  0.64879581345E+03  0.00000000000E+00 0.  1.
         -2   -1    0    0    0  501 -0.00000000000E+00 -0.00000000000E+00 -0.91165652778E+02  0.91165652778E+02  0.00000000000E+00 0. -1.
         25    1    1    2    0    0  0.15360879184E+03  0.14253138451E+03  0.43056882405E+03  0.49489935213E+03  0.12500000000E+03 0.  0.
         21    1    1    2  502  501 -0.15360879184E+03 -0.14253138451E+03  0.12706133662E+03  0.24506211409E+03  0.00000000000E+00 0. -1.
<mgrwt>
<rscale>  3 0.48640680E+03</rscale>
<asrwt>0</asrwt>
<pdfrwt beam="1">  1        2 0.99814738E-01 0.48640680E+03</pdfrwt>
<pdfrwt beam="2">  1       -2 0.14025485E-01 0.48640680E+03</pdfrwt>
<totfact> 0.17672951E+03</totfact>
</mgrwt>
</event>
<event>
 4    0  0.1264838E-002  0.6666233E+03  0.7546771E-02  0.9776077E-01
          1   -1    0    0  502    0  0.00000000000E+00  0.00000000000E+00  0.13627800956E+04  0.13627800956E+04  0.00000000000E+00 0.  1.
         -1   -1    0    0    0  501 -0.00000000000E+00 -0.00000000000E+00 -0.81522079234E+02  0.81522079234E+02  0.00000000000E+00 0. -1.
         25    1    1    2    0    0  0.23376248881E+03 -0.18465212710E+03  0.40064540512E+03  0.51466790250E+03  0.12500000000E+03 0.  0.
         21    1    1    2  502  501 -0.23376248881E+03  0.18465212710E+03  0.88061261122E+03  0.92963427232E+03  0.00000000000E+00 0. -1.
<mgrwt>
<rscale>  3 0.66662333E+03</rscale>
<asrwt>0</asrwt>
<pdfrwt beam="1">  1        1 0.20965846E+00 0.66662333E+03</pdfrwt>
<pdfrwt beam="2">  1       -1 0.12541859E-01 0.66662333E+03</pdfrwt>
<totfact> 0.36597736E+02</totfact>
</mgrwt>
</event>
<event>
 4    0  0.1264838E-002  0.5989665E+03  0.7546771E-02  0.9907552E-01
          1   -1    0    0  502    0  0.00000000000E+00  0.00000000000E+00  0.36838068178E+04  0.36838068178E+04  0.00000000000E+00 0.  1.
         -1   -1    0    0    0  501 -0.00000000000E+00 -0.00000000000E+00 -0.24347158266E+02  0.24347158266E+02  0.00000000000E+00 0. -1.
         25    1    1    2    0    0 -0.25095036949E+03  0.96569292834E+02  0.25206028036E+04  0.25379844778E+04  0.12500000000E+03 0.  0.
         21    1    1    2  502  501  0.25095036949E+03 -0.96569292834E+02  0.11388568560E+04  0.11701694983E+04  0.00000000000E+00 0. -1.
<mgrwt>
<rscale>  3 0.59896654E+03</rscale>
<asrwt>0</asrwt>
<pdfrwt beam="1">  1        1 0.56673907E+00 0.59896654E+03</pdfrwt>
<pdfrwt beam="2">  1       -1 0.37457196E-02 0.59896654E+03</pdfrwt>
<totfact> 0.56851485E+01</totfact>
</mgrwt>
</event>
<event>
 4    0  0.1264838E-002  0.6588363E+03  0.7546771E-02  0.9790338E-01
          2   -1    0    0  502    0  0.00000000000E+00  0.00000000000E+00  0.73530682589E+03  0.73530682589E+03  0.00000000000E+00 0. -1.
         -2   -1    0    0    0  501 -0.00000000000E+00 -0.00000000000E+00 -0.14757962746E+03  0.14757962746E+03  0.00000000000E+00 0.  1.
         25    1    1    2    0    0  0.26381927979E+03 -0.19739859773E+02  0.53982966711E+03  0.61402878104E+03  0.12500000000E+03 0.  0.
         21    1    1    2  502  501 -0.26381927979E+03  0.19739859773E+02  0.47897531317E+02  0.26885767231E+03  0.00000000000E+00 0.  1.
<mgrwt>
<rscale>  3 0.65883627E+03</rscale>
<asrwt>0</asrwt>
<pdfrwt beam="1">  1        2 0.11312412E+00 0.65883627E+03</pdfrwt>
<pdfrwt beam="2">  1       -2 0.22704559E-01 0.65883627E+03</pdfrwt>
<totfact> 0.65958805E+02</totfact>
</mgrwt>
</event>
<event>
 4    0  0.1264838E-002  0.5631362E+03  0.7546771E-02  0.9984983E-01
          1   -1    0    0  502    0  0.00000000000E+00  0.00000000000E+00  0.96309731578E+03  0.96309731578E+03  0.00000000000E+00 0.  1.
         -1   -1    0    0    0  501 -0.00000000000E+00 -0.00000000000E+00 -0.82318374207E+02  0.82318374207E+02  0.00000000000E+00 0. -1.
         25    1    1    2    0    0 -0.36061259259E+02 -0.23820793605E+03  0.67871789632E+03  0.73097634571E+03  0.12500000000E+03 0.  0.
         21    1    1    2  502  501  0.36061259259E+02  0.23820793605E+03  0.20206104525E+03  0.31443934427E+03  0.00000000000E+00 0. -1.
<mgrwt>
<rscale>  3 0.56313624E+03</rscale>
<asrwt>0</asrwt>
<pdfrwt beam="1">  1        1 0.14816881E+00 0.56313624E+03</pdfrwt>
<pdfrwt beam="2">  1       -1 0.12664366E-01 0.56313624E+03</pdfrwt>
<totfact> 0.70996925E+02</totfact>
</mgrwt>
</event>
<event>
 4    0  0.1264838E-002  0.5463562E+03  0.7546771E-02  0.1002341E+00
          3   -1    0    0  502    0  0.00000000000E+00  0.00000000000E+00  0.86620111922E+03  0.86620111922E+03  0.00000000000E+00 0. -1.
         -3   -1    0    0    0  501 -0.00000000000E+00 -0.00000000000E+00 -0.86153511145E+02  0.86153511145E+02  0.00000000000E+00 0.  1.
         25    1    1    2    0    0  0.22420483220E+03  0.11656042239E+03  0.50848932791E+03  0.58141253465E+03  0.12500000000E+03 0.  0.
         21    1    1    2  502  501 -0.22420483220E+03 -0.11656042239E+03  0.27155828017E+03  0.37094209572E+03  0.00000000000E+00 0.  1.
<mgrwt>
<rscale>  3 0.54635618E+03</rscale>
<asrwt>0</asrwt>
<pdfrwt beam="1">  1        3 0.13326170E+00 0.54635618E+03</pdfrwt>
<pdfrwt beam="2">  1       -3 0.13254387E-01 0.54635618E+03</pdfrwt>
<totfact> 0.54659095E+01</totfact>
</mgrwt>
</event>
<event>
 4    0  0.1264838E-002  0.4554452E+03  0.7546771E-02  0.1026111E+00
          2   -1    0    0  502    0  0.00000000000E+00  0.00000000000E+00  0.98809307632E+03  0.98809307632E+03  0.00000000000E+00 0. -1.
         -2   -1    0    0    0  501 -0.00000000000E+00 -0.00000000000E+00 -0.52482495320E+02  0.52482495320E+02  0.00000000000E+00 0.  1.
         25    1    1    2    0    0 -0.12652761369E+03  0.16609358053E+03  0.56532184974E+03  0.61547551399E+03  0.12500000000E+03 0.  0.
         21    1    1    2  502  501  0.12652761369E+03 -0.16609358053E+03  0.37028873125E+03  0.42510005765E+03  0.00000000000E+00 0.  1.
<mgrwt>
<rscale>  3 0.45544523E+03</rscale>
<asrwt>0</asrwt>
<pdfrwt beam="1">  1        2 0.15201431E+00 0.45544523E+03</pdfrwt>
<pdfrwt beam="2">  1       -2 0.80742308E-02 0.45544523E+03</pdfrwt>
<totfact> 0.24943581E+03</totfact>
</mgrwt>
</event>
<event>
 4    0  0.1264838E-002  0.6745862E+03  0.7546771E-02  0.9761708E-01
          2   -1    0    0  502    0  0.00000000000E+00  0.00000000000E+00  0.35842566066E+04  0.35842566066E+04  0.00000000000E+00 0. -1.
         -2   -1    0    0    0  501 -0.00000000000E+00 -0.00000000000E+00 -0.31740654550E+02  0.31740654550E+02  0.00000000000E+00 0.  1.
         25    1    1    2    0    0 -0.31937307016E+03 -0.34388642991E+02  0.21262341039E+04  0.21539912259E+04  0.12500000000E+03 0.  0.
         21    1    1    2  502  501  0.31937307016E+03  0.34388642991E+02  0.14262818481E+04  0.14620060352E+04  0.00000000000E+00 0.  1.
<mgrwt>
<rscale>  3 0.67458625E+03</rscale>
<asrwt>0</asrwt>
<pdfrwt beam="1">  1        2 0.55142377E+00 0.67458625E+03</pdfrwt>
<pdfrwt beam="2">  1       -2 0.48831805E-02 0.67458625E+03</pdfrwt>
<totfact> 0.16569061E+02</totfact>
</mgrwt>
</event>
<event>
 4    0  0.1264838E-002  0.6910057E+03  0.7546771E-02  0.9732738E-01
         -2   -1    0    0    0  501 -0.00000000000E+00  0.00000000000E+00  0.13281910601E+03  0.13281910601E+03  0.00000000000E+00 0. -1.
          2   -1    0    0  502    0  0.00000000000E+00 -0.00000000000E+00 -0.89875801707E+03  0.89875801707E+03  0.00000000000E+00 0.  1.
         25    1    1    2    0    0 -0.30393646152E+03  0.85195267766E+02 -0.55939008869E+03  0.65435302216E+03  0.12500000000E+03 0.  0.
         21    1    1    2  502  501  0.30393646152E+03 -0.85195267766E+02 -0.20654882237E+03  0.37722410092E+03  0.00000000000E+00 0. -1.
<mgrwt>
<rscale>  3 0.69100575E+03</rscale>
<asrwt>0</asrwt>
<pdfrwt beam="1">  1        2 0.13827047E+00 0.69100575E+03</pdfrwt>
<pdfrwt beam="2">  1       -2 0.20433708E-01 0.69100575E+03</pdfrwt>
<totfact> 0.60755143E+02</totfact>
</mgrwt>
</event>
<event>
 4    0  0.1264838E-002  0.5880999E+03  0.7546771E-02  0.9930407E-01
         -2   -1    0    0    0  501 -0.00000000000E+00  0.00000000000E+00  0.98401410733E+03  0.98401410733E+03  0.00000000000E+00 0.  1.
          2   -1    0    0  502    0  0.00000000000E+00 -0.00000000000E+00 -0.87870069258E+02  0.87870069258E+02  0.00000000000E+00 0. -1.
         25    1    1    2    0    0  0.14746621050E+02 -0.27971690504E+03  0.50339004230E+03  0.58947904499E+03  0.12500000000E+03 0.  0.
         21    1    1    2  502  501 -0.14746621050E+02  0.27971690504E+03  0.39275399577E+03  0.48240513160E+03  0.00000000000E+00 0. -1.
<mgrwt>
<rscale>  3 0.58809995E+03</rscale>
<asrwt>0</asrwt>
<pdfrwt beam="1">  1        2 0.13518473E-01 0.58809995E+03</pdfrwt>
<pdfrwt beam="2">  1       -2 0.15138678E+00 0.58809995E+03</pdfrwt>
<totfact> 0.13545528E+02</totfact>
</mgrwt>
</event>
<event>
 4    0  0.1264838E-002  0.6722458E+03  0.7546771E-02  0.9765909E-01
         -1   -1    0    0    0  501 -0.00000000000E+00  0.00000000000E+00  0.13445001483E+04  0.13445001483E+04  0.00000000000E+00 0. -1.
          1   -1    0    0  502    0  0.00000000000E+00 -0.00000000000E+00 -0.84030196613E+02  0.84030196613E+02  0.00000000000E+00 0.  1.
         25    1    1    2    0    0  0.20349041420E+03  0.18565422236E+03  0.10165460027E+04  0.10605972914E+04  0.12500000000E+03 0.  0.
         21    1    1    2  502  501 -0.20349041420E+03 -0.18565422236E+03  0.24392394892E+03  0.36793305344E+03  0.00000000000E+00 0.  1.
<mgrwt>
<rscale>  3 0.67224582E+03</rscale>
<asrwt>0</asrwt>
<pdfrwt beam="1">  1        1 0.12927724E-01 0.67224582E+03</pdfrwt>
<pdfrwt beam="2">  1       -1 0.20684616E+00 0.67224582E+03</pdfrwt>
<totfact> 0.65597450E+01</totfact>
</mgrwt>
</event>
<event>
 4    0  0.1264838E-002  0.5470105E+03  0.7546771E-02  0.1002188E+00
          2   -1    0    0  502    0  0.00000000000E+00  0.00000000000E+00  0.43849820877E+03  0.43849820877E+03  0.00000000000E+00 0. -1.
         -2   -1    0    0    0  501 -0.00000000000E+00 -0.00000000000E+00 -0.17059393219E+03  0.17059393219E+03  0.00000000000E+00 0.  1.
         25    1    1    2    0    0  0.25789682634E+03 -0.15043786778E+02  0.11707754941E+03  0.30995038496E+03  0.12500000000E+03 0.  0.
         21    1    1    2  502  501 -0.25789682634E+03  0.15043786778E+02  0.15082672717E+03  0.29914175600E+03  0.00000000000E+00 0. -1.
<mgrwt>
<rscale>  3 0.54701054E+03</rscale>
<asrwt>0</asrwt>
<pdfrwt beam="1">  1        2 0.67461262E-01 0.54701054E+03</pdfrwt>
<pdfrwt beam="2">  1       -2 0.26245220E-01 0.54701054E+03</pdfrwt>
<totfact> 0.94285782E+02</totfact>
</mgrwt>
</event>
<event>
 4    0  0.1264838E-002  0.5114364E+03  0.7546771E-02  0.1010836E+00
         -1   -1    0    0    0  501 -0.00000000000E+00  0.00000000000E+00  0.24672630866E+03  0.24672630866E+03  0.00000000000E+00 0. -1.
          1   -1    0    0  502    0  0.00000000000E+00 -0.00000000000E+00 -0.26503780784E+03  0.26503780784E+03  0.00000000000E+00 0.  1.
         25    1    1    2    0    0 -0.24024826381E+03 -0.11682744094E+01 -0.10221304407E+00  0.27082393465E+03  0.12500000000E+03 0.  0.
         21    1    1    2  502  501  0.24024826381E+03  0.11682744094E+01 -0.18209286137E+02  0.24094018185E+03  0.00000000000E+00 0. -1.
<mgrwt>
<rscale>  3 0.51143641E+03</rscale>
<asrwt>0</asrwt>
<pdfrwt beam="1">  1        1 0.40775047E-01 0.51143641E+03</pdfrwt>
<pdfrwt beam="2">  1       -1 0.37957894E-01 0.51143641E+03</pdfrwt>
<totfact> 0.69582522E+02</totfact>
</mgrwt>
</event>
<event>
 4    0  0.1264838E-002  0.7961986E+03  0.7546771E-02  0.9565536E-01
         -2   -1    0    0    0  501 -0.00000000000E+00  0.00000000000E+00  0.50323215717E+03  0.50323215717E+03  0.00000000000E+00 0. -1.
          2   -1    0    0  502    0  0.00000000000E+00 -0.00000000000E+00 -0.31493033603E+03  0.31493033603E+03  0.00000000000E+00 0.  1.
         25    1    1    2    0    0  0.28731845885E+03 -0.17381113978E+02 -0.17131833479E+03  0.35753177726E+03  0.12500000000E+03 0.  0.
         21    1    1    2  502  501 -0.28731845885E+03  0.17381113978E+02  0.35962015592E+03  0.46063071594E+03  0.00000000000E+00 0. -1.
<mgrwt>
<rscale>  3 0.79619865E+03</rscale>
<asrwt>0</asrwt>
<pdfrwt beam="1">  1        2 0.48450821E-01 0.79619865E+03</pdfrwt>
<pdfrwt beam="2">  1       -2 0.77420331E-01 0.79619865E+03</pdfrwt>
<totfact> 0.15592130E+02</totfact>
</mgrwt>
</event>
<event>
 4    0  0.1264838E-002  0.5361166E+03  0.7546771E-02  0.1004759E+00
          1   -1    0    0  502    0  0.00000000000E+00  0.00000000000E+00  0.14726722713E+03  0.14726722713E+03  0.00000000000E+00 0.  1.
         -1   -1    0    0    0  501 -0.00000000000E+00 -0.00000000000E+00 -0.48792432230E+03  0.48792432230E+03  0.00000000000E+00 0. -1.
         25    1    1    2    0    0 -0.16548419415E+03 -0.16656261535E+03 -0.66397756138E+02  0.27415649795E+03  0.12500000000E+03 0.  0.
         21    1    1    2  502  501  0.16548419415E+03  0.16656261535E+03 -0.27425933903E+03  0.36103505147E+03  0.00000000000E+00 0. -1.
<mgrwt>
<rscale>  3 0.53611664E+03</rscale>
<asrwt>0</asrwt>
<pdfrwt beam="1">  1        1 0.22656496E-01 0.53611664E+03</pdfrwt>
<pdfrwt beam="2">  1       -1 0.75065282E-01 0.53611664E+03</pdfrwt>
<totfact> 0.40240798E+02</totfact>
</mgrwt>
</event>
