<LesHouchesEvents version="3.0">
  <!--
  <scalesfunctionalform>
    muR  H_T/2 := sum_i mT(i)/2, i=final state
    muF1 H_T/2 := sum_i mT(i)/2, i=final state
    muF2 H_T/2 := sum_i mT(i)/2, i=final state
    QES  H_T/2 := sum_i mT(i)/2, i=final state
  </scalesfunctionalform>
HERWIG6   
  -->
  <header>
       10
  </header>
  <init>
   2212   2212 0.65000000D+04 0.65000000D+04 -1 -1   244800   244800 -4   1
 0.96651741D-05 0.78444969D-06 0.15198112D-05     66
  </init>
  <event>
  5     66 0.15198112E-05 0.26468451E+02 0.75467711E-02 0.93196379E-01
       -2 -1    0    0    0  501 0.00000000E+00 0.00000000E+00 0.91404051E+03 0.91404057E+03 0.32000000E+00 0.0000E+00 0.9000E+01
       -3 -1    0    0    0  502 0.00000000E+00 0.00000000E+00 -.12211487E+04 0.12211488E+04 0.50000000E+00 0.0000E+00 0.9000E+01
       25  1    1    2    0    0 0.34839533E+03 0.41089959E+03 -.69027361E+03 0.88448880E+03 0.12500000E+03 0.0000E+00 0.9000E+01
       -1  1    1    2    0  501 -.34500546E+03 -.43720010E+03 0.72143187E+03 0.91139275E+03 0.32000000E+00 0.0000E+00 0.9000E+01
       -4  1    1    2    0  502 -.33898694E+01 0.26300510E+02 -.33826648E+03 0.33930786E+03 0.15500000E+01 0.0000E+00 0.9000E+01
#aMCatNLO 1  0  0  1  1 0.11042846D+01 0.00000000D+00  -5  6  0 0.00000000D+00 0.00000000D+00 0.00000000D+00 0.00000000D+00 0.00000000D+00
  <mgrwgt>
 0.1568649627D-02    6    4    0
 0.105649400563611D+04 0.000000000000000D+00 0.000000000000000D+00 0.105649400563611D+04
 0.105649400563611D+04 0.000000000000000D+00 0.000000000000000D+00 -.105649400563611D+04
 0.794018401686707D+03 0.348421826377321D+03 0.410984333881707D+03 -.569679146910622D+03
 0.102590570185380D+04 -.345032955288040D+03 -.437234942117706D+03 0.861545340799118D+03
 0.293063907731704D+03 -.338887108928088D+01 0.262506082359990D+02 -.291866193888496D+03
 0.000000000000000D+00 -.000000000000000D+00 0.000000000000000D+00 0.000000000000000D+00
 0.180439779610584D+04 0.000000000000000D+00 0.000000000000000D+00 0.180439779610584D+04
 0.138143856159759D+04 0.000000000000000D+00 0.000000000000000D+00 -.138143856159759D+04
 0.727019507699096D+03 0.412706150727049D+03 0.134430901589945D+03 -.569679146910622D+03
 0.123449850375364D+04 -.249500453291799D+03 -.848219137560868D+03 0.861545340799118D+03
 0.304037324571388D+03 0.218466927649386D+02 -.823136781635037D+02 -.291866193888496D+03
 0.920281021679306D+03 -.185052390200188D+03 0.796101914134427D+03 0.422959234508252D+03
 0.105649400563611D+04 0.000000000000000D+00 0.000000000000000D+00 0.105649400563611D+04
 0.105649400563611D+04 0.000000000000000D+00 0.000000000000000D+00 -.105649400563611D+04
 0.794018401686707D+03 0.348421826377321D+03 0.410984333881707D+03 -.569679146910622D+03
 0.000000000000000D+00 -.000000000000000D+00 0.000000000000000D+00 0.000000000000000D+00
 0.102590570185380D+04 -.345032955288040D+03 -.437234942117706D+03 0.861545340799118D+03
 0.293063907731704D+03 -.338887108928088D+01 0.262506082359990D+02 -.291866193888496D+03
 0.180439779610584D+04 0.000000000000000D+00 0.000000000000000D+00 0.180439779610584D+04
 0.138143856159759D+04 0.000000000000000D+00 0.000000000000000D+00 -.138143856159759D+04
 0.727019507699096D+03 0.412706150727049D+03 0.134430901589945D+03 -.569679146910622D+03
 0.920281021679306D+03 -.185052390200188D+03 0.796101914134427D+03 0.422959234508252D+03
 0.123449850375364D+04 -.249500453291799D+03 -.848219137560868D+03 0.861545340799118D+03
 0.304037324571388D+03 0.218466927649386D+02 -.823136781635037D+02 -.291866193888496D+03
0.480373340100D-01 0.000000000000D+00 0.000000000000D+00 0.622446351014D-04 0.000000000000D+00  6 -2 -3 25 -1 -4 21 0 0.14062163D+00 0.18786905D+00 0.32293905D+06 0.32293905D+06 0.32293905D+06 0.10821923D+01  1  2  2  1  6  1       -2 0.111310068888D-02 0.100000000000D+01
0.204411955139D-01 0.000000000000D+00 -.184476011119D-03 0.622446351014D-04 0.000000000000D+00  6 -2 -3 25 -1 -4 21 2 0.14062163D+00 0.18786905D+00 0.32293905D+06 0.32293905D+06 0.32293905D+06 0.10821923D+01  1  2  3  1  6  1       -2 0.554716070083D-03 0.100000000000D+01
-.254352027735D-01 0.000000000000D+00 0.000000000000D+00 0.622446351014D-04 0.000000000000D+00  6 -2 -3 25 -1 -4 21 2 0.14062163D+00 0.18786905D+00 0.32293905D+06 0.32293905D+06 0.32293905D+06 0.10821923D+01  1  2 15  1  6  1       -2 -.690239262899D-03 0.100000000000D+01
-.358180569407D-02 0.000000000000D+00 -.259047440749D-01 0.622446351014D-04 0.000000000000D+00  6 -2 -3 25 -1 -4 21 2 0.27769004D+00 0.18786905D+00 0.32293905D+06 0.32293905D+06 0.32293905D+06 0.10821923D+01  1  2  5  1  6  1       -2 -.108787070360D-04 0.100000000000D+01
0.211448636326D-01 0.000000000000D+00 0.208814090279D-01 0.622446351014D-04 0.000000000000D+00  6 -2 -3 25 -1 -4 21 2 0.14062163D+00 0.18786905D+00 0.32293905D+06 0.32293905D+06 0.32293905D+06 0.10821923D+01  1  2  6  1  6  1       -2 0.573811627051D-03 0.100000000000D+01
0.127388818468D-02 0.000000000000D+00 -.190847923426D-02 0.622446351014D-04 0.000000000000D+00  6 21 -3 25 2 -1 -4 2 0.27769004D+00 0.18786905D+00 0.32293905D+06 0.32293905D+06 0.32293905D+06 0.10821923D+01  3  4  5  5  4  1       -2 0.281392112301D-04 0.100000000000D+01
  </mgrwgt>
  </event>
  <event>
  5     66 -.15198112E-05 0.29139214E+03 0.75467711E-02 0.92399379E-01
       -2 -1    0    0    0  501 0.00000000E+00 0.00000000E+00 0.18340164E+04 0.18340165E+04 0.32000000E+00 0.0000E+00 0.9000E+01
       -3 -1    0    0    0  502 0.00000000E+00 0.00000000E+00 -.69677385E+03 0.69677403E+03 0.50000000E+00 0.0000E+00 0.9000E+01
       25  1    1    2    0    0 -.31071794E+03 0.51619639E+03 0.81849870E+03 0.10239968E+04 0.12500000E+03 0.0000E+00 0.9000E+01
       -1  1    1    2    0  501 0.12858387E+03 -.28878259E+03 0.84669436E+03 0.90378130E+03 0.32000000E+00 0.0000E+00 0.9000E+01
       -4  1    1    2    0  502 0.18213407E+03 -.22741381E+03 -.52795046E+03 0.60301240E+03 0.15500000E+01 0.0000E+00 0.9000E+01
#aMCatNLO 1  0  0  5  2 0.53475672D+00 0.00000000D+00  -5  6  0 0.00000000D+00 0.00000000D+00 0.00000000D+00 0.00000000D+00 0.00000000D+00
  <mgrwgt>
 -.3881463818D-05    8    2    0
 0.113044016472189D+04 0.000000000000000D+00 0.000000000000000D+00 0.113044016472189D+04
 0.113044016472189D+04 -.000000000000000D+00 -.000000000000000D+00 -.113044016472189D+04
 0.734587586388365D+03 -.310714236830670D+03 0.516169507393876D+03 0.401272506837164D+03
 0.585673645082129D+03 0.128559987058694D+03 -.288728942528144D+03 0.493073570593513D+03
 0.940619097973283D+03 0.182154249771976D+03 -.227440564865733D+03 -.894346077430676D+03
 0.000000000000000D+00 0.000000000000000D+00 0.000000000000000D+00 -.000000000000000D+00
 0.113044016472189D+04 0.000000000000000D+00 0.000000000000000D+00 0.113044016472189D+04
 0.113044016472189D+04 -.000000000000000D+00 -.000000000000000D+00 -.113044016472189D+04
 0.734584876553253D+03 -.310713556369789D+03 0.516168657760078D+03 0.401269165891121D+03
 0.585671855593971D+03 0.128560529578250D+03 -.288729619926307D+03 0.493070906915685D+03
 0.927205809245244D+03 0.180062363095176D+03 -.224034543768399D+03 -.881530873703919D+03
 0.134177880513089D+02 0.209066369636307D+01 -.340449406537211D+01 -.128091991028871D+02
0.406456909420D-05 0.000000000000D+00 0.000000000000D+00 0.201707312134D-05 0.000000000000D+00  6 -2 -3 25 -1 -4 21 0 0.28215639D+00 0.10719599D+00 0.37378150D+06 0.37378150D+06 0.37378150D+06 0.10775565D+01  1  2  2  4  6  5       -4 0.613669078786D-07 0.100000000000D+01
0.324735310869D-06 0.000000000000D+00 -.156090155473D-07 0.201707312134D-05 0.000000000000D+00  6 -2 -3 25 -1 -4 21 2 0.28215639D+00 0.10719599D+00 0.37378150D+06 0.37378150D+06 0.37378150D+06 0.10775565D+01  1  2  3  4  6  5       -4 0.569284520984D-08 0.100000000000D+01
-.274728974838D-05 0.000000000000D+00 0.000000000000D+00 0.201707312134D-05 0.000000000000D+00  6 -2 -3 25 -1 -4 21 2 0.28215639D+00 0.10719599D+00 0.37378150D+06 0.37378150D+06 0.37378150D+06 0.10775565D+01  1  2 15  4  6  5       -4 -.481619791893D-07 0.100000000000D+01
0.318676717104D-12 0.000000000000D+00 0.000000000000D+00 0.201707312134D-05 0.000000000000D+00  6 -2 -3 25 -1 -4 21 2 0.28215639D+00 0.10719599D+00 0.37379936D+06 0.37379936D+06 0.37379936D+06 0.10775550D+01  1  2 12  4  6  5       -4 0.558659855407D-14 0.100000000000D+01
-.108849107585D+00 0.000000000000D+00 0.000000000000D+00 0.201707312134D-05 0.000000000000D+00  6 -2 -3 25 -1 -4 21 2 0.28215639D+00 0.10719599D+00 0.37378150D+06 0.37378150D+06 0.37378150D+06 0.10775565D+01  1  2  4  4  6  5       -4 -.190820369689D-02 0.100000000000D+01
-.990212737011D-01 0.000000000000D+00 0.000000000000D+00 0.201707312134D-05 0.000000000000D+00  6 -2 -3 25 -1 -4 21 2 0.28215639D+00 0.10719599D+00 0.37378150D+06 0.37378150D+06 0.37378150D+06 0.10775565D+01  1  2  5  4  6  5       -4 -.173591465047D-02 0.100000000000D+01
0.100443870752D+00 0.000000000000D+00 -.000000000000D+00 0.201707312134D-05 0.000000000000D+00  6 -2 -3 25 -1 -4 21 2 0.28215639D+00 0.10719599D+00 0.37378150D+06 0.37378150D+06 0.37378150D+06 0.10775565D+01  1  2  6  4  6  5       -4 0.176085380717D-02 0.100000000000D+01
0.107204697255D+00 0.000000000000D+00 0.000000000000D+00 0.201707312134D-05 0.460212193916D-04  6 -2 -3 25 -1 -4 21 2 0.28215639D+00 0.10719599D+00 0.37379936D+06 0.37379936D+06 0.37379936D+06 0.10775550D+01  1  2 11  4  6  5       -4 0.187936417858D-02 0.100000000000D+01
  </mgrwgt>
  </event>
  <event>
  5     66 -.15198112E-05 0.76730038E+02 0.75467711E-02 0.94554089E-01
       -2 -1    0    0    0  501 0.00000000E+00 0.00000000E+00 0.14826186E+04 0.14826187E+04 0.32000000E+00 0.0000E+00 0.9000E+01
       -3 -1    0    0    0  502 0.00000000E+00 0.00000000E+00 -.60914683E+03 0.60914704E+03 0.50000000E+00 0.0000E+00 0.9000E+01
       25  1    1    2    0    0 0.13742908E+03 -.47187162E+03 0.79608240E+02 0.51333425E+03 0.12500000E+03 0.0000E+00 0.9000E+01
       -1  1    1    2    0  501 -.87757740E+02 0.41337218E+03 0.11442221E+04 0.12197632E+04 0.32000000E+00 0.0000E+00 0.9000E+01
       -4  1    1    2    0  502 -.49671343E+02 0.58499439E+02 -.35035852E+03 0.35866826E+03 0.15500000E+01 0.0000E+00 0.9000E+01
#aMCatNLO 1  0  0  4  1 0.18472737D+02 0.00000000D+00  -5  6  0 0.00000000D+00 0.00000000D+00 0.00000000D+00 0.00000000D+00 0.00000000D+00
  <mgrwgt>
 -.3628050339D-03    7    2    0
 0.950332937369387D+03 0.000000000000000D+00 0.000000000000000D+00 0.950332937369387D+03
 0.950332937369387D+03 -.000000000000000D+00 -.000000000000000D+00 -.950332937369387D+03
 0.528408293824034D+03 0.137425482142958D+03 -.471884923704369D+03 -.148422304995992D+03
 0.816607485647629D+03 -.877625471211566D+02 0.413394825494463D+03 0.698749053089128D+03
 0.555650095267111D+03 -.496629350218015D+02 0.584900982099069D+02 -.550326748093135D+03
 0.000000000000000D+00 0.000000000000000D+00 0.000000000000000D+00 0.000000000000000D+00
 0.950332937369387D+03 0.000000000000000D+00 0.000000000000000D+00 0.950332937369387D+03
 0.950332937369387D+03 -.000000000000000D+00 -.000000000000000D+00 -.950332937369387D+03
 0.528234722263183D+03 0.137399583385500D+03 -.471762930750986D+03 -.148216103913146D+03
 0.485570963396526D+03 -.504942810205757D+02 0.261559952331283D+03 0.405975220197615D+03
 0.555451303718401D+03 -.496901685767534D+02 0.586183785648676D+02 -.550109919601265D+03
 0.331408885360665D+03 -.372151337881713D+02 0.151584599854835D+03 0.292350803316797D+03
0.847155592981D-04 0.000000000000D+00 0.000000000000D+00 0.502949112803D-04 0.000000000000D+00  6 -2 -3 25 -1 -4 21 0 0.22809519D+00 0.93714916D-01 0.25324713D+06 0.25324713D+06 0.25324713D+06 0.10900377D+01  1  2  2  3  6  4       -1 0.416601940430D-05 0.100000000000D+01
0.218266620103D-04 0.000000000000D+00 -.325330053824D-06 0.502949112803D-04 0.000000000000D+00  6 -2 -3 25 -1 -4 21 2 0.22809519D+00 0.93714916D-01 0.25324713D+06 0.25324713D+06 0.25324713D+06 0.10900377D+01  1  2  3  3  6  4       -1 0.127534737468D-05 0.100000000000D+01
-.625394252921D-04 0.000000000000D+00 0.000000000000D+00 0.502949112803D-04 0.000000000000D+00  6 -2 -3 25 -1 -4 21 2 0.22809519D+00 0.93714916D-01 0.25324713D+06 0.25324713D+06 0.25324713D+06 0.10900377D+01  1  2 15  3  6  4       -1 -.365422307005D-05 0.100000000000D+01
0.100537354299D-01 0.000000000000D+00 0.000000000000D+00 0.502949112803D-04 0.000000000000D+00  6 -2 -3 25 -1 -4 21 2 0.22809519D+00 0.93714916D-01 0.25317782D+06 0.25317782D+06 0.25317782D+06 0.10900467D+01  1  2 12  3  6  4       -1 0.587466154041D-03 0.100000000000D+01
-.211302208902D-01 0.000000000000D+00 0.000000000000D+00 0.502949112803D-04 0.000000000000D+00  6 -2 -3 25 -1 -4 21 2 0.22809519D+00 0.93714916D-01 0.25324713D+06 0.25324713D+06 0.25324713D+06 0.10900377D+01  1  2  4  3  6  4       -1 -.123465382503D-02 0.100000000000D+01
-.101145823089D-01 0.000000000000D+00 0.000000000000D+00 0.502949112803D-04 0.000000000000D+00  6 -2 -3 25 -1 -4 21 2 0.22809519D+00 0.93714916D-01 0.25324713D+06 0.25324713D+06 0.25324713D+06 0.10900377D+01  1  2  5  3  6  4       -1 -.591002233300D-03 0.100000000000D+01
0.149510029127D-01 0.000000000000D+00 -.000000000000D+00 0.502949112803D-04 0.000000000000D+00  6 -2 -3 25 -1 -4 21 2 0.22809519D+00 0.93714916D-01 0.25324713D+06 0.25324713D+06 0.25324713D+06 0.10900377D+01  1  2  6  3  6  4       -1 0.873597726695D-03 0.100000000000D+01
  </mgrwgt>
  </event>
  <event>
  5     66 0.15198112E-05 0.33456752E+02 0.75467711E-02 0.89917400E-01
       -2 -1    0    0    0  501 0.00000000E+00 0.00000000E+00 0.16167661E+04 0.16167661E+04 0.32000000E+00 0.0000E+00 0.9000E+01
       -3 -1    0    0    0  502 0.00000000E+00 0.00000000E+00 -.42593970E+03 0.42593999E+03 0.50000000E+00 0.0000E+00 0.9000E+01
       25  1    1    2    0    0 -.78436603E+01 0.64340912E+03 0.29788871E+03 0.71999965E+03 0.12500000E+03 0.0000E+00 0.9000E+01
       -1  1    1    2    0  501 0.22197141E+02 -.25051111E+02 0.66142653E+03 0.66227292E+03 0.32000000E+00 0.0000E+00 0.9000E+01
       -4  1    1    2    0  502 -.14353480E+02 -.61835800E+03 0.23151115E+03 0.66043354E+03 0.15500000E+01 0.0000E+00 0.9000E+01
#aMCatNLO 1  0  0  1  4 0.23848232D+03 0.00000000D+00  -5  6  0 0.00000000D+00 0.00000000D+00 0.00000000D+00 0.00000000D+00 0.00000000D+00
  <mgrwgt>
 0.5846092928D-04    7    4    0
 0.829846486923711D+03 0.000000000000000D+00 0.000000000000000D+00 0.829846486923711D+03
 0.829846486923711D+03 0.000000000000000D+00 0.000000000000000D+00 -.829846486923711D+03
 0.672486621921398D+03 -.783822083752498D+01 0.643496157286853D+03 -.149881668373450D+03
 0.340396199431439D+03 0.221880545052828D+02 -.250408570422218D+02 0.338748015939916D+03
 0.646810152494584D+03 -.143498336677578D+02 -.618455300244632D+03 -.188866347566466D+03
 0.000000000000000D+00 0.000000000000000D+00 -.000000000000000D+00 0.000000000000000D+00
 0.972484002434668D+03 0.000000000000000D+00 0.000000000000000D+00 0.972484002434668D+03
 0.944387014205115D+03 0.000000000000000D+00 0.000000000000000D+00 -.944387014205115D+03
 0.764307656784802D+03 -.496468140827207D+02 0.737300395739011D+03 -.149881668373450D+03
 0.339307929587090D+03 0.240966738447317D+01 0.193351048754325D+02 0.338748015939916D+03
 0.573123684378045D+03 -.498481080747149D+02 -.538809267248940D+03 -.188866347566466D+03
 0.240131745889846D+03 0.970852547729624D+02 -.217826233365503D+03 0.280969882295536D+02
 0.829846486923711D+03 0.000000000000000D+00 0.000000000000000D+00 0.829846486923711D+03
 0.829846486923711D+03 0.000000000000000D+00 0.000000000000000D+00 -.829846486923711D+03
 0.672486621921398D+03 -.783822083752498D+01 0.643496157286853D+03 -.149881668373450D+03
 0.000000000000000D+00 0.000000000000000D+00 -.000000000000000D+00 0.000000000000000D+00
 0.340396199431439D+03 0.221880545052828D+02 -.250408570422218D+02 0.338748015939916D+03
 0.646810152494584D+03 -.143498336677578D+02 -.618455300244632D+03 -.188866347566466D+03
 0.972484002434668D+03 0.000000000000000D+00 0.000000000000000D+00 0.972484002434668D+03
 0.944387014205115D+03 0.000000000000000D+00 0.000000000000000D+00 -.944387014205115D+03
 0.764307656784802D+03 -.496468140827207D+02 0.737300395739011D+03 -.149881668373450D+03
 0.240131745889846D+03 0.970852547729624D+02 -.217826233365503D+03 0.280969882295536D+02
 0.339307929587090D+03 0.240966738447317D+01 0.193351048754325D+02 0.338748015939916D+03
 0.573123684378045D+03 -.498481080747149D+02 -.538809267248940D+03 -.188866347566466D+03
0.274988594349D-03 0.000000000000D+00 0.000000000000D+00 0.373994597267D-05 0.000000000000D+00  6 -2 -3 25 -1 -4 21 0 0.24873327D+00 0.65529209D-01 0.42748701D+06 0.42748701D+06 0.42748701D+06 0.10733531D+01  1  2  2  1  6  1       -2 0.226227252113D-04 0.100000000000D+01
0.136874712637D-03 0.000000000000D+00 -.105602860846D-05 0.373994597267D-05 0.000000000000D+00  6 -2 -3 25 -1 -4 21 2 0.24873327D+00 0.65529209D-01 0.42748701D+06 0.42748701D+06 0.42748701D+06 0.10733531D+01  1  2  3  1  6  1       -2 0.129729479888D-04 0.100000000000D+01
-.166859677646D-03 0.000000000000D+00 0.000000000000D+00 0.373994597267D-05 0.000000000000D+00  6 -2 -3 25 -1 -4 21 2 0.24873327D+00 0.65529209D-01 0.42748701D+06 0.42748701D+06 0.42748701D+06 0.10733531D+01  1  2 15  1  6  1       -2 -.158149148066D-04 0.100000000000D+01
-.403410087326D-04 0.000000000000D+00 0.000000000000D+00 0.373994597267D-05 0.000000000000D+00  6 -2 -3 25 -1 -4 21 2 0.24873327D+00 0.65529209D-01 0.42748701D+06 0.42748701D+06 0.42748701D+06 0.10733531D+01  1  2  4  1  6  1       -2 -.382350982165D-05 0.100000000000D+01
-.751450447845D-03 0.000000000000D+00 -.260736983203D-03 0.373994597267D-05 0.000000000000D+00  6 -2 -3 25 -1 -4 21 2 0.31206144D+00 0.65529209D-01 0.42748701D+06 0.42748701D+06 0.42748701D+06 0.10733531D+01  1  2  5  1  6  1       -2 -.277746997288D-04 0.100000000000D+01
0.796578048208D-03 0.000000000000D+00 0.254170763067D-03 0.373994597267D-05 0.000000000000D+00  6 -2 -3 25 -1 -4 21 2 0.24873327D+00 0.65529209D-01 0.42748701D+06 0.42748701D+06 0.42748701D+06 0.10733531D+01  1  2  6  1  6  1       -2 0.754994504778D-04 0.100000000000D+01
-.199380382515D-04 0.000000000000D+00 -.820832771747D-05 0.373994597267D-05 0.000000000000D+00  6 21 -3 25 2 -1 -4 2 0.31206144D+00 0.65529209D-01 0.42748701D+06 0.42748701D+06 0.42748701D+06 0.10733531D+01  3  4  5  5  4  1       -2 -.522107004025D-05 0.100000000000D+01
  </mgrwgt>
  </event>
  <event>
  6     66 -.15198112E-05 0.78615749E+02 0.75467711E-02 0.91584085E-01
       -2 -1    0    0    0  501 0.00000000E+00 0.00000000E+00 0.14150620E+04 0.14150620E+04 0.32000000E+00 0.0000E+00 0.9000E+01
       -3 -1    0    0    0  502 0.00000000E+00 0.00000000E+00 -.79638195E+03 0.79638211E+03 0.50000000E+00 0.0000E+00 0.9000E+01
       25  1    1    2    0    0 -.14594111E+02 0.57484344E+03 -.12028380E+03 0.60062565E+03 0.12500000E+03 0.0000E+00 0.9000E+01
       -1  1    1    2    0  501 -.41670368E+02 -.64043254E+03 0.10807971E+04 0.12569856E+04 0.32000000E+00 0.0000E+00 0.9000E+01
       -4  1    1    2    0  503 0.38653971E+02 0.58625945E+02 -.29633018E+03 0.30454081E+03 0.15500000E+01 0.0000E+00 0.9000E+01
       21  1    1    2  503  502 0.17610508E+02 0.69631470E+01 -.45503100E+02 0.49292088E+02 0.75000000E+00 0.0000E+00 0.9000E+01
#aMCatNLO 2  0  0  5  2 0.10193117D+02 0.00000000D+00  -5  6  0 0.00000000D+00 0.00000000D+00 0.00000000D+00 0.00000000D+00 0.00000000D+00
  <mgrwgt>
 -.2928621435D-03    5    2    0
 0.106156960869065D+04 0.000000000000000D+00 0.000000000000000D+00 0.106156960869065D+04
 0.106156960869065D+04 -.000000000000000D+00 -.000000000000000D+00 -.106156960869065D+04
 0.660846233981219D+03 -.145743396184764D+02 0.574931241286617D+03 -.300556818895322D+03
 0.994803001925949D+03 -.417277275638463D+02 -.640564529771241D+03 0.759979534324567D+03
 0.467489981474138D+03 0.563020671823228D+02 0.656332884846237D+02 -.459422715429245D+03
 0.000000000000000D+00 0.000000000000000D+00 0.000000000000000D+00 0.000000000000000D+00
 0.106156960869065D+04 0.000000000000000D+00 0.000000000000000D+00 0.106156960869065D+04
 0.106156960869065D+04 -.000000000000000D+00 -.000000000000000D+00 -.106156960869065D+04
 0.661011443090621D+03 -.145392228875078D+02 0.574972178087869D+03 -.300843370077295D+03
 0.994431710720385D+03 -.416748811633228D+02 -.640502924874218D+03 0.759548309716943D+03
 0.402959794606991D+03 0.385630003282911D+02 0.585522635650928D+02 -.396813713859278D+03
 0.647362689633099D+02 0.176511037225396D+02 0.697848322125659D+01 -.618912257803704D+02
-.172409300744D-01 0.000000000000D+00 0.000000000000D+00 0.684769764018D-05 0.000000000000D+00  6 -2 -3 25 -1 -4 21 2 0.21770186D+00 0.12252032D+00 0.43529038D+06 0.43529038D+06 0.43529038D+06 0.10727905D+01  1  2 13  4  6  5       -4 -.535173406590D-03 0.100000000000D+01
-.319304597814D-02 0.000000000000D+00 0.000000000000D+00 0.684769764018D-05 0.000000000000D+00  6 -2 -3 25 -1 -4 21 2 0.21770186D+00 0.12252032D+00 0.43358210D+06 0.43358210D+06 0.43358210D+06 0.10729127D+01  1  2  8  4  6  5       -4 -.991633372608D-04 0.100000000000D+01
-.823038555975D-02 0.000000000000D+00 0.000000000000D+00 0.684769764018D-05 0.000000000000D+00  6 -2 -3 25 -1 -4 21 2 0.21770186D+00 0.12252032D+00 0.43358210D+06 0.43358210D+06 0.43358210D+06 0.10729127D+01  1  2  9  4  6  5       -4 -.255603115218D-03 0.100000000000D+01
0.944814172703D-02 0.000000000000D+00 0.000000000000D+00 0.684769764018D-05 0.000000000000D+00  6 -2 -3 25 -1 -4 21 2 0.21770186D+00 0.12252032D+00 0.43358210D+06 0.43358210D+06 0.43358210D+06 0.10729127D+01  1  2 10  4  6  5       -4 0.293421789407D-03 0.100000000000D+01
0.978245653730D-02 0.000000000000D+00 0.000000000000D+00 0.684769764018D-05 0.105761401791D-06  6 -2 -3 25 -1 -4 21 2 0.21770186D+00 0.12252032D+00 0.43529038D+06 0.43529038D+06 0.43529038D+06 0.10727905D+01  1  2  1  4  6  5       -4 0.303655926176D-03 0.100000000000D+01
  </mgrwgt>
  </event>
  <event>
  5     66 0.15198112E-05 0.32905636E+02 0.75467711E-02 0.95468748E-01
       -2 -1    0    0    0  501 0.00000000E+00 0.00000000E+00 0.20953119E+04 0.20953119E+04 0.32000000E+00 0.0000E+00 0.9000E+01
       -3 -1    0    0    0  502 0.00000000E+00 0.00000000E+00 -.32836136E+03 0.32836174E+03 0.50000000E+00 0.0000E+00 0.9000E+01
       25  1    1    2    0    0 -.17478687E+03 0.41782611E+03 0.13441469E+04 0.14238979E+04 0.12500000E+03 0.0000E+00 0.9000E+01
       -1  1    1    2    0  501 0.16273641E+03 -.38721147E+03 0.64798134E+03 0.77220191E+03 0.32000000E+00 0.0000E+00 0.9000E+01
       -4  1    1    2    0  502 0.12050456E+02 -.30614632E+02 -.22517774E+03 0.22757391E+03 0.15500000E+01 0.0000E+00 0.9000E+01
#aMCatNLO 1  0  0  2  5 0.60555672D+01 0.00000000D+00  -5  6  0 0.00000000D+00 0.00000000D+00 0.00000000D+00 0.00000000D+00 0.00000000D+00
  <mgrwgt>
 0.4243682851D-03   11    4    0
 0.829469687021039D+03 0.000000000000000D+00 0.000000000000000D+00 0.829469687021039D+03
 0.829469687021039D+03 0.000000000000000D+00 0.000000000000000D+00 -.829469687021039D+03
 0.648634769181043D+03 -.174756077205845D+03 0.417753064905934D+03 0.447263629229862D+03
 0.437911684594411D+03 0.162703866807163D+03 -.387134032867682D+03 0.124182671198184D+03
 0.572392920266624D+03 0.120522103986825D+02 -.306190320382520D+02 -.571446300428046D+03
 0.000000000000000D+00 0.000000000000000D+00 0.000000000000000D+00 -.000000000000000D+00
 0.829514295056050D+03 0.000000000000000D+00 0.000000000000000D+00 0.829514295056050D+03
 0.106404575070832D+04 0.000000000000000D+00 0.000000000000000D+00 -.106404575070832D+04
 0.648409562738660D+03 -.176791947520200D+03 0.416545092770384D+03 0.447263629229862D+03
 0.438124931952616D+03 0.161328819788318D+03 -.387949909238650D+03 0.124182671198184D+03
 0.572415931524495D+03 0.102552923600196D+02 -.316852231926041D+02 -.571446300428046D+03
 0.234609619548601D+03 0.520783537186221D+01 0.309003966087031D+01 -.234531455652271D+03
 0.829469687021039D+03 0.000000000000000D+00 0.000000000000000D+00 0.829469687021039D+03
 0.829469687021039D+03 0.000000000000000D+00 0.000000000000000D+00 -.829469687021039D+03
 0.648634769181043D+03 -.174756077205845D+03 0.417753064905934D+03 0.447263629229862D+03
 0.000000000000000D+00 0.000000000000000D+00 0.000000000000000D+00 -.000000000000000D+00
 0.437911684594411D+03 0.162703866807163D+03 -.387134032867682D+03 0.124182671198184D+03
 0.572392920266624D+03 0.120522103986825D+02 -.306190320382520D+02 -.571446300428046D+03
 0.829514295056050D+03 0.000000000000000D+00 0.000000000000000D+00 0.829514295056050D+03
 0.106404575070832D+04 0.000000000000000D+00 0.000000000000000D+00 -.106404575070832D+04
 0.648409562738660D+03 -.176791947520200D+03 0.416545092770384D+03 0.447263629229862D+03
 0.234609619548601D+03 0.520783537186221D+01 0.309003966087031D+01 -.234531455652271D+03
 0.438124931952616D+03 0.161328819788318D+03 -.387949909238650D+03 0.124182671198184D+03
 0.572415931524495D+03 0.102552923600196D+02 -.316852231926041D+02 -.571446300428046D+03
0.169716060527D-04 0.000000000000D+00 0.000000000000D+00 0.118604914059D-04 0.000000000000D+00  6 -2 -3 25 -1 -4 21 0 0.32235571D+00 0.50517164D-01 0.21280179D+06 0.21280179D+06 0.21280179D+06 0.10957619D+01  1  2  2  2  6  2       -3 0.859410101596D-06 0.100000000000D+01
0.895542645277D-05 0.000000000000D+00 -.651754359687D-07 0.118604914059D-04 0.000000000000D+00  6 -2 -3 25 -1 -4 21 2 0.32235571D+00 0.50517164D-01 0.21280179D+06 0.21280179D+06 0.21280179D+06 0.10957619D+01  1  2  3  2  6  2       -3 0.544497850833D-06 0.100000000000D+01
-.888497897737D-05 0.000000000000D+00 0.000000000000D+00 0.118604914059D-04 0.000000000000D+00  6 -2 -3 25 -1 -4 21 2 0.32235571D+00 0.50517164D-01 0.21280179D+06 0.21280179D+06 0.21280179D+06 0.10957619D+01  1  2 15  2  6  2       -3 -.540214582006D-06 0.100000000000D+01
0.279126296513D-01 0.000000000000D+00 0.000000000000D+00 0.118604914059D-04 0.000000000000D+00  6 -2 -3 25 -1 -4 21 2 0.32235571D+00 0.67376392D-01 0.21574803D+06 0.21574803D+06 0.21574803D+06 0.10953062D+01  1  2 12  2  6  2       -3 0.905344799704D-03 0.100000000000D+01
-.255277336112D-01 0.000000000000D+00 0.000000000000D+00 0.118604914059D-04 0.000000000000D+00  6 -2 -3 25 -1 -4 21 2 0.32235571D+00 0.50517164D-01 0.21280179D+06 0.21280179D+06 0.21280179D+06 0.10957619D+01  1  2  4  2  6  2       -3 -.155210878691D-02 0.100000000000D+01
-.424602284661D-01 0.000000000000D+00 -.181382655853D-04 0.118604914059D-04 0.000000000000D+00  6 -2 -3 25 -1 -4 21 2 0.32235571D+00 0.64804971D-01 0.21280179D+06 0.21280179D+06 0.21280179D+06 0.10957619D+01  1  2  5  2  6  2       -3 -.150571744044D-02 0.100000000000D+01
0.411813264608D-01 0.000000000000D+00 0.175898423414D-04 0.118604914059D-04 0.000000000000D+00  6 -2 -3 25 -1 -4 21 2 0.32235571D+00 0.50517164D-01 0.21280179D+06 0.21280179D+06 0.21280179D+06 0.10957619D+01  1  2  6  2  6  2       -3 0.250386108027D-02 0.100000000000D+01
0.514870668905D-02 0.000000000000D+00 0.000000000000D+00 0.118604914059D-04 0.144926542829D-05  6 -2 -3 25 -1 -4 21 2 0.32237305D+00 0.64803542D-01 0.21574803D+06 0.21574803D+06 0.21574803D+06 0.10953062D+01  1  2 11  2  6  2       -3 0.182223643282D-03 0.100000000000D+01
0.104751337702D-02 0.000000000000D+00 0.000000000000D+00 0.118604914059D-04 0.000000000000D+00  6 -2 21 25 3 -1 -4 2 0.32235571D+00 0.67376392D-01 0.21574803D+06 0.21574803D+06 0.21574803D+06 0.10953062D+01  3  4 12  6  4  2       -3 0.508223553415D-03 0.100000000000D+01
-.143273925484D-02 0.000000000000D+00 -.612170166055D-06 0.118604914059D-04 0.000000000000D+00  6 -2 21 25 3 -1 -4 2 0.32235571D+00 0.64804971D-01 0.21280179D+06 0.21280179D+06 0.21280179D+06 0.10957619D+01  3  4  5  6  4  2       -3 -.762011408309D-03 0.100000000000D+01
0.270836896930D-03 0.000000000000D+00 0.000000000000D+00 0.118604914059D-04 0.687278041143D-07  6 -2 21 25 3 -1 -4 2 0.32237305D+00 0.64803542D-01 0.21574803D+06 0.21574803D+06 0.21574803D+06 0.10953062D+01  3  4 11  6  4  2       -3 0.143689150760D-03 0.100000000000D+01
  </mgrwgt>
  </event>
  <event>
  5     66 0.15198112E-05 0.43301520E+02 0.75467711E-02 0.94808085E-01
       -2 -1    0    0    0  501 0.00000000E+00 0.00000000E+00 0.21467526E+04 0.21467527E+04 0.32000000E+00 0.0000E+00 0.9000E+01
       -3 -1    0    0    0  502 0.00000000E+00 0.00000000E+00 -.59802559E+03 0.59802580E+03 0.50000000E+00 0.0000E+00 0.9000E+01
       25  1    1    2    0    0 0.31721365E+03 0.33256060E+03 0.21804286E+03 0.52382129E+03 0.12500000E+03 0.0000E+00 0.9000E+01
       -1  1    1    2    0  501 0.33347418E+02 -.27622393E+02 0.16542148E+04 0.16547815E+04 0.32000000E+00 0.0000E+00 0.9000E+01
       -4  1    1    2    0  502 -.35056107E+03 -.30493820E+03 -.32353067E+03 0.56617565E+03 0.15500000E+01 0.0000E+00 0.9000E+01
#aMCatNLO 1  0  0  5  2 0.85166300D+01 0.00000000D+00  -5  6  0 0.00000000D+00 0.00000000D+00 0.00000000D+00 0.00000000D+00 0.00000000D+00
  <mgrwgt>
 0.1211953723D-02    8    2    0
 0.113305487222472D+04 0.000000000000000D+00 0.000000000000000D+00 0.113305487222472D+04
 0.113305487222472D+04 -.000000000000000D+00 -.000000000000000D+00 -.113305487222472D+04
 0.485455883712799D+03 0.317218518150253D+03 0.332564815956586D+03 -.938907341631437D+02
 0.873774082835859D+03 0.333471932649891D+02 -.276222070258941D+02 0.872700479096931D+03
 0.906879777900776D+03 -.350565711415242D+03 -.304942608930692D+03 -.778809744933787D+03
 0.000000000000000D+00 -.000000000000000D+00 0.000000000000000D+00 0.000000000000000D+00
 0.113305487222472D+04 0.000000000000000D+00 0.000000000000000D+00 0.113305487222472D+04
 0.113305487222472D+04 -.000000000000000D+00 -.000000000000000D+00 -.113305487222472D+04
 0.485431290363392D+03 0.317188507636505D+03 0.332538711052257D+03 -.939574049178597D+02
 0.873653661290244D+03 0.332931795693308D+02 -.276691913051196D+02 0.872580483355280D+03
 0.792317861724105D+03 -.300173764857659D+03 -.262326038257133D+03 -.684725021122022D+03
 0.114706931071693D+03 -.503079223481768D+02 -.425434814900037D+02 -.938980573153975D+02
0.586093652545D-03 0.000000000000D+00 0.000000000000D+00 0.272904242514D-03 0.000000000000D+00  6 -2 -3 25 -1 -4 21 0 0.33026966D+00 0.92003955D-01 0.24217568D+06 0.24217568D+06 0.24217568D+06 0.10914995D+01  1  2  2  4  6  5       -4 0.664852970502D-05 0.100000000000D+01
0.296988813126D-03 0.000000000000D+00 -.225075394778D-05 0.272904242514D-03 0.000000000000D+00  6 -2 -3 25 -1 -4 21 2 0.33026966D+00 0.92003955D-01 0.24217568D+06 0.24217568D+06 0.24217568D+06 0.10914995D+01  1  2  3  4  6  5       -4 0.401370803985D-05 0.100000000000D+01
-.389277180975D-03 0.000000000000D+00 0.000000000000D+00 0.272904242514D-03 0.000000000000D+00  6 -2 -3 25 -1 -4 21 2 0.33026966D+00 0.92003955D-01 0.24217568D+06 0.24217568D+06 0.24217568D+06 0.10914995D+01  1  2 15  4  6  5       -4 -.526095557125D-05 0.100000000000D+01
0.322680203510D+00 0.000000000000D+00 0.000000000000D+00 0.272904242514D-03 0.000000000000D+00  6 -2 -3 25 -1 -4 21 2 0.33026966D+00 0.92003955D-01 0.24210006D+06 0.24210006D+06 0.24210006D+06 0.10915097D+01  1  2 12  4  6  5       -4 0.436110664431D-02 0.100000000000D+01
-.277478021179D+00 0.000000000000D+00 0.000000000000D+00 0.272904242514D-03 0.000000000000D+00  6 -2 -3 25 -1 -4 21 2 0.33026966D+00 0.92003955D-01 0.24217568D+06 0.24217568D+06 0.24217568D+06 0.10914995D+01  1  2  4  4  6  5       -4 -.375002597830D-02 0.100000000000D+01
-.325608407085D+00 0.000000000000D+00 0.000000000000D+00 0.272904242514D-03 0.000000000000D+00  6 -2 -3 25 -1 -4 21 2 0.33026966D+00 0.92003955D-01 0.24217568D+06 0.24217568D+06 0.24217568D+06 0.10914995D+01  1  2  5  4  6  5       -4 -.440049262330D-02 0.100000000000D+01
0.369374064667D+00 0.000000000000D+00 -.000000000000D+00 0.272904242514D-03 0.000000000000D+00  6 -2 -3 25 -1 -4 21 2 0.33026966D+00 0.92003955D-01 0.24217568D+06 0.24217568D+06 0.24217568D+06 0.10914995D+01  1  2  6  4  6  5       -4 0.499197137247D-02 0.100000000000D+01
0.295445717501D-03 0.000000000000D+00 0.000000000000D+00 0.272904242514D-03 0.142718516156D-04  6 -2 -3 25 -1 -4 21 2 0.33026966D+00 0.92003955D-01 0.24210006D+06 0.24210006D+06 0.24210006D+06 0.10915097D+01  1  2 11  4  6  5       -4 0.399302550207D-05 0.100000000000D+01
  </mgrwgt>
  </event>
  <event>
  6     66 -.15198112E-05 0.79061557E+02 0.75467711E-02 0.91911619E-01
       -2 -1    0    0    0  501 0.00000000E+00 0.00000000E+00 0.23687465E+04 0.23687465E+04 0.32000000E+00 0.0000E+00 0.9000E+01
       -3 -1    0    0    0  502 0.00000000E+00 0.00000000E+00 -.46761640E+03 0.46761667E+03 0.50000000E+00 0.0000E+00 0.9000E+01
       25  1    1    2    0    0 -.17064729E+03 -.51190896E+03 0.12336068E+04 0.13522507E+04 0.12500000E+03 0.0000E+00 0.9000E+01
       -1  1    1    2    0  501 0.17592586E+02 -.84850147E+02 0.80080049E+03 0.80547538E+03 0.32000000E+00 0.0000E+00 0.9000E+01
       -4  1    1    2    0  503 0.19027191E+03 0.47994213E+03 -.18096914E+03 0.54708325E+03 0.15500000E+01 0.0000E+00 0.9000E+01
       21  1    1    2  503  502 -.37217209E+02 0.11681698E+03 0.47691933E+02 0.13155383E+03 0.75000000E+00 0.0000E+00 0.9000E+01
#aMCatNLO 2  0  0  5  2 0.81275634D+02 0.00000000D+00  -5  6  0 0.00000000D+00 0.00000000D+00 0.00000000D+00 0.00000000D+00 0.00000000D+00
  <mgrwgt>
 -.1218417997D-03    2    2    0
 0.105245670510029D+04 0.000000000000000D+00 0.000000000000000D+00 0.105245670510029D+04
 0.105245670510029D+04 -.000000000000000D+00 -.000000000000000D+00 -.105245670510029D+04
 0.718276795073675D+03 -.172274031460097D+03 -.518304977978895D+03 0.449419806225864D+03
 0.366812606218925D+03 0.167601734860006D+02 -.880289268058479D+02 0.355698598129442D+03
 0.101982400890798D+04 0.155513857974097D+03 0.606333904784743D+03 -.805118404355305D+03
 0.000000000000000D+00 0.000000000000000D+00 0.000000000000000D+00 0.000000000000000D+00
 0.105245670510029D+04 0.000000000000000D+00 0.000000000000000D+00 0.105245670510029D+04
 0.105245670510029D+04 -.000000000000000D+00 -.000000000000000D+00 -.105245670510029D+04
 0.708113585795272D+03 -.170657921010876D+03 -.512003915346889D+03 0.441052961733101D+03
 0.361940206575586D+03 0.175858556074259D+02 -.848096698771300D+02 0.351423918812969D+03
 0.900511953279946D+03 0.190322886666791D+03 0.479858595167677D+03 -.737858187902382D+03
 0.134347664549772D+03 -.372508212633406D+02 0.116954990056342D+03 -.546186926436884D+02
-.151842735789D-01 0.000000000000D+00 0.000000000000D+00 0.422522759105D-05 0.000000000000D+00  6 -2 -3 25 -1 -4 21 2 0.36442256D+00 0.71941007D-01 0.40932139D+06 0.40932139D+06 0.40932139D+06 0.10747072D+01  1  2 13  4  6  5       -4 -.204113368690D-03 0.100000000000D+01
0.612029491105D-02 0.000000000000D+00 0.000000000000D+00 0.422522759105D-05 0.105486562606D-08  6 -2 -3 25 -1 -4 21 2 0.36442256D+00 0.71941007D-01 0.40932139D+06 0.40932139D+06 0.40932139D+06 0.10747072D+01  1  2  1  4  6  5       -4 0.822715690134D-04 0.100000000000D+01
  </mgrwgt>
  </event>
  <event>
  5     66 0.15198112E-05 0.11557808E+03 0.75467711E-02 0.94161552E-01
       -2 -1    0    0    0  501 0.00000000E+00 0.00000000E+00 0.15757752E+04 0.15757753E+04 0.32000000E+00 0.0000E+00 0.9000E+01
       -3 -1    0    0    0  502 0.00000000E+00 0.00000000E+00 -.40215348E+03 0.40215379E+03 0.50000000E+00 0.0000E+00 0.9000E+01
       25  1    1    2    0    0 -.12010436E+03 0.47864640E+03 0.72094024E+03 0.88255723E+03 0.12500000E+03 0.0000E+00 0.9000E+01
       -1  1    1    2    0  501 -.56746019E+02 -.10074227E+03 0.63108526E+03 0.64159008E+03 0.32000000E+00 0.0000E+00 0.9000E+01
       -4  1    1    2    0  502 0.17685038E+03 -.37790413E+03 -.17840374E+03 0.45378176E+03 0.15500000E+01 0.0000E+00 0.9000E+01
#aMCatNLO 1  0  0  2  2 0.28487433D+03 0.00000000D+00  -5  6  0 0.00000000D+00 0.00000000D+00 0.00000000D+00 0.00000000D+00 0.00000000D+00
  <mgrwgt>
 0.1228994109D-04    4    2    0
 0.796055171916889D+03 0.000000000000000D+00 0.000000000000000D+00 0.796055171916889D+03
 0.796055171916889D+03 0.000000000000000D+00 0.000000000000000D+00 -.796055171916889D+03
 0.565077109703830D+03 -.120149119305787D+03 0.478670434108393D+03 0.245205922750166D+03
 0.331729602154864D+03 -.567230477369150D+02 -.100701486268498D+03 0.310944103440756D+03
 0.695303631975084D+03 0.176872167042702D+03 -.377968947839895D+03 -.556150026190923D+03
 0.000000000000000D+00 -.000000000000000D+00 0.000000000000000D+00 0.000000000000000D+00
 0.892251272344615D+03 0.000000000000000D+00 0.000000000000000D+00 0.892251272344615D+03
 0.878094781341914D+03 0.000000000000000D+00 0.000000000000000D+00 -.878094781341914D+03
 0.516153753924548D+03 -.111304545046795D+03 0.422226303527585D+03 0.245205922750166D+03
 0.343200050190601D+03 -.512020571413144D+02 -.135935235795408D+03 0.310944103440756D+03
 0.741672187019186D+03 0.188626769844939D+03 -.452984241517873D+03 -.556150026190923D+03
 0.169320062552194D+03 -.261201676568300D+02 0.166693173785696D+03 0.141564910027012D+02
0.336189181262D-03 0.000000000000D+00 0.000000000000D+00 0.293946060598D-05 0.000000000000D+00  6 -2 -3 25 -1 -4 21 0 0.24242699D+00 0.61869792D-01 0.27143443D+06 0.27143443D+06 0.27143443D+06 0.10877817D+01  1  2  2  2  6  2       -3 0.353917156276D-04 0.100000000000D+01
0.399356007604D-04 0.000000000000D+00 -.129105497669D-05 0.293946060598D-05 0.000000000000D+00  6 -2 -3 25 -1 -4 21 2 0.24242699D+00 0.61869792D-01 0.27143443D+06 0.27143443D+06 0.27143443D+06 0.10877817D+01  1  2  3  2  6  2       -3 0.497463907516D-05 0.100000000000D+01
-.214299285499D-03 0.000000000000D+00 0.000000000000D+00 0.293946060598D-05 0.000000000000D+00  6 -2 -3 25 -1 -4 21 2 0.24242699D+00 0.61869792D-01 0.27143443D+06 0.27143443D+06 0.27143443D+06 0.10877817D+01  1  2 15  2  6  2       -3 -.266945176515D-04 0.100000000000D+01
-.110936380695D-04 0.000000000000D+00 0.000000000000D+00 0.293946060598D-05 0.000000000000D+00  6 -2 -3 25 -1 -4 21 2 0.24242699D+00 0.61869792D-01 0.27143443D+06 0.27143443D+06 0.27143443D+06 0.10877817D+01  1  2  4  2  6  2       -3 -.138189596188D-05 0.100000000000D+01
  </mgrwgt>
  </event>
  <event>
  6     66 -.15198112E-05 0.22068476E+02 0.75467711E-02 0.95150435E-01
       -2 -1    0    0    0  501 0.00000000E+00 0.00000000E+00 0.84416589E+03 0.84416595E+03 0.32000000E+00 0.0000E+00 0.9000E+01
       -3 -1    0    0    0  502 0.00000000E+00 0.00000000E+00 -.79011802E+03 0.79011818E+03 0.50000000E+00 0.0000E+00 0.9000E+01
       25  1    1    2    0    0 0.31300466E+03 -.34313154E+03 0.15803593E+03 0.50627219E+03 0.12500000E+03 0.0000E+00 0.9000E+01
       -1  1    1    2    0  503 -.27406764E+02 0.32067008E+02 0.31940144E+03 0.32217512E+03 0.32000000E+00 0.0000E+00 0.9000E+01
       -4  1    1    2    0  502 -.24610798E+03 0.30445630E+03 -.54883463E+03 0.67415476E+03 0.15500000E+01 0.0000E+00 0.9000E+01
       21  1    1    2  503  501 -.39489916E+02 0.66082341E+01 0.12544513E+03 0.13168206E+03 0.75000000E+00 0.0000E+00 0.9000E+01
#aMCatNLO 2  0  0  4  1 0.20903655D+02 0.00000000D+00  -5  6  0 0.00000000D+00 0.00000000D+00 0.00000000D+00 0.00000000D+00 0.00000000D+00
  <mgrwgt>
 -.1685914873D-03    2    2    0
 0.816695081065899D+03 0.000000000000000D+00 0.000000000000000D+00 0.816695081065899D+03
 0.816695081065899D+03 -.000000000000000D+00 -.000000000000000D+00 -.816695081065899D+03
 0.501512156921978D+03 0.313213097658380D+03 -.343346471864462D+03 0.141068066031981D+03
 0.438307032640021D+03 -.671030832268703D+02 0.387945710259714D+02 0.431399133450751D+03
 0.693570972569799D+03 -.246110014431510D+03 0.304551900838490D+03 -.572467199482731D+03
 0.000000000000000D+00 -.000000000000000D+00 0.000000000000000D+00 0.000000000000000D+00
 0.816695081065899D+03 0.000000000000000D+00 0.000000000000000D+00 0.816695081065899D+03
 0.816695081065899D+03 -.000000000000000D+00 -.000000000000000D+00 -.816695081065899D+03
 0.501602618619296D+03 0.313098993264318D+03 -.343280504239623D+03 0.141801631977898D+03
 0.311272000422988D+03 -.273253741656798D+02 0.320223829394427D+02 0.308412303848135D+03
 0.692830507407960D+03 -.246267717721957D+03 0.304643074465813D+03 -.571453340512772D+03
 0.127685035681554D+03 -.395059013766806D+02 0.661504683436786D+01 0.121239404686739D+03
-.161084482721D-02 0.000000000000D+00 0.000000000000D+00 0.266422766078D-04 0.000000000000D+00  6 -2 -3 25 -1 -4 21 2 0.12987169D+00 0.12155663D+00 0.22801950D+06 0.22801950D+06 0.22801950D+06 0.10934787D+01  1  2 13  3  6  4       -1 -.248819688305D-03 0.100000000000D+01
0.519392912193D-03 0.000000000000D+00 0.000000000000D+00 0.266422766078D-04 0.482642598078D-07  6 -2 -3 25 -1 -4 21 2 0.12987169D+00 0.12155663D+00 0.22801950D+06 0.22801950D+06 0.22801950D+06 0.10934787D+01  1  2  1  3  6  4       -1 0.802282009646D-04 0.100000000000D+01
  </mgrwgt>
  </event>
</LesHouchesEvents>
