<event>
 5    0  0.2159162E+000  0.2539327E+03  0.7546771E-02  0.1110844E+00
         21   -1    0    0  502  501  0.00000000000E+00  0.00000000000E+00  0.12401083889E+03  0.12401083889E+03  0.00000000000E+00 0.  1.
         21   -1    0    0  503  502 -0.00000000000E+00 -0.00000000000E+00 -0.82710943192E+03  0.82710943192E+03  0.00000000000E+00 0. -1.
         25    1    1    2    0    0 -0.18973266625E+03 -0.88733826070E+02 -0.83280118164E+02  0.25774552297E+03  0.12500000000E+03 0.  0.
         21    1    1    2  503  504 -0.50825080384E+02  0.15618861290E+01 -0.15024741044E+03  0.15861876506E+03  0.00000000000E+00 0. -1.
         21    1    1    2  504  501  0.24055774663E+03  0.87171939941E+02 -0.46957106442E+03  0.53475598278E+03  0.00000000000E+00 0. -1.
<mgrwt>
<rscale>  4 0.25393274E+03</rscale>
<asrwt>0</asrwt>
<pdfrwt beam="1">  1       21 0.19078592E-01 0.25393274E+03</pdfrwt>
<pdfrwt beam="2">  1       21 0.12724760E+00 0.25393274E+03</pdfrwt>
<totfact> 0.11053554E+04</totfact>
</mgrwt>
</event>
<event>
 5    0  0.2159162E+000  0.3508919E+03  0.7546771E-02  0.1064499E+00
         21   -1    0    0  502  501  0.00000000000E+00  0.00000000000E+00  0.94499136784E+02  0.94499136784E+02  0.00000000000E+00 0. -1.
         21   -1    0    0  503  502 -0.00000000000E+00 -0.00000000000E+00 -0.13961222497E+04  0.13961222497E+04  0.00000000000E+00 0. -1.
         25    1    1    2    0    0  0.18186127681E+03 -0.24484896352E+03 -0.89367778905E+03  0.95252796787E+03  0.12500000000E+03 0.  0.
         21    1    1    2  503  504 -0.14778881834E+03  0.58328717722E+02 -0.21754268332E+03  0.26938558462E+03  0.00000000000E+00 0. -1.
         21    1    1    2  504  501 -0.34072458473E+02  0.18652024580E+03 -0.19040264055E+03  0.26870783399E+03  0.00000000000E+00 0. -1.
<mgrwt>
<rscale>  4 0.34544866E+03</rscale>
<asrwt>0</asrwt>
<pdfrwt beam="1">  1       21 0.14538329E-01 0.35089192E+03</pdfrwt>
<pdfrwt beam="2">  1       21 0.21478803E+00 0.35089192E+03</pdfrwt>
<totfact> 0.40132903E+03</totfact>
</mgrwt>
</event>
<event>
 5    0  0.2159162E+000  0.2832421E+03  0.7546771E-02  0.1093931E+00
         21   -1    0    0  502  501  0.00000000000E+00  0.00000000000E+00  0.26498394545E+04  0.26498394545E+04  0.00000000000E+00 0.  1.
         21   -1    0    0  503  502 -0.00000000000E+00 -0.00000000000E+00 -0.28737494939E+02  0.28737494939E+02  0.00000000000E+00 0.  1.
         25    1    1    2    0    0  0.19582658202E+03  0.16202781704E+03  0.12512725237E+04  0.12829298470E+04  0.12500000000E+03 0.  0.
         21    1    1    2  503  504 -0.11011965494E+03 -0.11942584345E+03  0.67584563976E+03  0.69509438156E+03  0.00000000000E+00 0.  1.
         21    1    1    2  504  501 -0.85706927084E+02 -0.42601973592E+02  0.69398379612E+03  0.70055272092E+03  0.00000000000E+00 0.  1.
<mgrwt>
<rscale>  4 0.28324206E+03</rscale>
<asrwt>0</asrwt>
<pdfrwt beam="1">  1       21 0.40766742E+00 0.28324206E+03</pdfrwt>
<pdfrwt beam="2">  1       21 0.44211552E-02 0.28324206E+03</pdfrwt>
<totfact> 0.23201067E+03</totfact>
</mgrwt>
</event>
<event>
 5    0  0.2159162E+000  0.4578506E+03  0.7546771E-02  0.1027645E+00
         21   -1    0    0  502  501  0.00000000000E+00  0.00000000000E+00  0.28959196120E+03  0.28959196120E+03  0.00000000000E+00 0.  1.
         21   -1    0    0  503  502 -0.00000000000E+00 -0.00000000000E+00 -0.23590649545E+04  0.23590649545E+04  0.00000000000E+00 0.  1.
         25    1    1    2    0    0 -0.38273371928E+03 -0.14584043110E+03  0.93029697918E+02  0.43821690509E+03  0.12500000000E+03 0.  0.
         21    1    1    2  503  504  0.22787066436E+03  0.18940380380E+03 -0.14576447444E+04  0.14874565679E+04  0.00000000000E+00 0.  1.
         21    1    1    2  504  501  0.15486305491E+03 -0.43563372702E+02 -0.70485794675E+03  0.72298344263E+03  0.00000000000E+00 0. -1.
<mgrwt>
<rscale>  4 0.45025825E+03</rscale>
<asrwt>0</asrwt>
<pdfrwt beam="1">  1       21 0.44552607E-01 0.45785058E+03</pdfrwt>
<pdfrwt beam="2">  1       21 0.36293309E+00 0.45785058E+03</pdfrwt>
<totfact> 0.52841595E+01</totfact>
</mgrwt>
</event>
<event>
 5    0  0.2406680E+000  0.2528231E+03  0.7546771E-02  0.1111534E+00
         21   -1    0    0  502  501  0.00000000000E+00  0.00000000000E+00  0.14778699994E+03  0.14778699994E+03  0.00000000000E+00 0. -1.
         21   -1    0    0  503  502 -0.00000000000E+00 -0.00000000000E+00 -0.46761255251E+03  0.46761255251E+03  0.00000000000E+00 0. -1.
         25    1    1    2    0    0  0.15996278398E+03  0.16126341121E+03 -0.10927389550E+03  0.28135345082E+03  0.12500000000E+03 0.  0.
         21    1    1    2  503  504 -0.12982780450E+03 -0.16925345900E+03 -0.13532733744E+03  0.25261726082E+03  0.00000000000E+00 0. -1.
         21    1    1    2  504  501 -0.30134979474E+02  0.79900477929E+01 -0.75224319627E+02  0.81428840806E+02  0.00000000000E+00 0. -1.
<mgrwt>
<rscale>  4 0.25282307E+03</rscale>
<asrwt>0</asrwt>
<pdfrwt beam="1">  1       21 0.22736462E-01 0.25282307E+03</pdfrwt>
<pdfrwt beam="2">  1       21 0.71940392E-01 0.25282307E+03</pdfrwt>
<totfact> 0.30701544E+04</totfact>
</mgrwt>
</event>
<event>
 5    0  0.4197708E+000  0.3171167E+03  0.7546771E-02  0.1076984E+00
         21   -1    0    0  502  501  0.00000000000E+00  0.00000000000E+00  0.13106857410E+03  0.13106857410E+03  0.00000000000E+00 0. -1.
         21   -1    0    0  503  502 -0.00000000000E+00 -0.00000000000E+00 -0.73344297315E+03  0.73344297315E+03  0.00000000000E+00 0. -1.
         25    1    1    2    0    0 -0.28807299893E+03 -0.44180716320E+02 -0.38091671284E+03  0.49564153430E+03  0.12500000000E+03 0.  0.
         21    1    1    2  503  504  0.26823009661E+03  0.28725699892E+02 -0.20490469236E+03  0.33876021536E+03  0.00000000000E+00 0. -1.
         21    1    1    2  504  501  0.19842902318E+02  0.15455016428E+02 -0.16552993846E+02  0.30109797582E+02  0.00000000000E+00 0. -1.
<mgrwt>
<rscale>  4 0.31711668E+03</rscale>
<asrwt>0</asrwt>
<pdfrwt beam="1">  1       21 0.20164396E-01 0.31711668E+03</pdfrwt>
<pdfrwt beam="2">  1       21 0.11283738E+00 0.31711668E+03</pdfrwt>
<totfact> 0.13048042E+04</totfact>
</mgrwt>
</event>
<event>
 5    0  0.2159162E+000  0.2450006E+03  0.7546771E-02  0.1116506E+00
         21   -1    0    0  502  501  0.00000000000E+00  0.00000000000E+00  0.94958326138E+02  0.94958326138E+02  0.00000000000E+00 0.  1.
         21   -1    0    0  503  502 -0.00000000000E+00 -0.00000000000E+00 -0.58048177901E+03  0.58048177901E+03  0.00000000000E+00 0.  1.
         25    1    1    2    0    0 -0.20835784042E+03 -0.31421015915E+02 -0.31774543948E+03  0.40123239427E+03  0.12500000000E+03 0.  0.
         21    1    1    2  503  504  0.30023779892E+02  0.23418088166E+02 -0.24171655441E+02  0.45101032572E+02  0.00000000000E+00 0.  1.
         21    1    1    2  504  501  0.17833406053E+03  0.80029277493E+01 -0.14360635795E+03  0.22910667830E+03  0.00000000000E+00 0.  1.
<mgrwt>
<rscale>  4 0.24500055E+03</rscale>
<asrwt>0</asrwt>
<pdfrwt beam="1">  1       21 0.14608973E-01 0.24500055E+03</pdfrwt>
<pdfrwt beam="2">  1       21 0.89304890E-01 0.24500055E+03</pdfrwt>
<totfact> 0.42927394E+04</totfact>
</mgrwt>
</event>
<event>
 5    0  0.2159162E+000  0.2703132E+03  0.7546771E-02  0.1101100E+00
         21   -1    0    0  502  501  0.00000000000E+00  0.00000000000E+00  0.11023869109E+04  0.11023869109E+04  0.00000000000E+00 0. -1.
         21   -1    0    0  503  502 -0.00000000000E+00 -0.00000000000E+00 -0.64507264905E+02  0.64507264905E+02  0.00000000000E+00 0. -1.
         25    1    1    2    0    0  0.20585738088E+03 -0.12274754150E+03  0.67858220333E+03  0.73044029659E+03  0.12500000000E+03 0.  0.
         21    1    1    2  503  504 -0.66019173949E+02  0.43654038128E+02  0.17434065974E+03  0.19146506734E+03  0.00000000000E+00 0. -1.
         21    1    1    2  504  501 -0.13983820693E+03  0.79093503370E+02  0.18495678293E+03  0.24498881188E+03  0.00000000000E+00 0. -1.
<mgrwt>
<rscale>  4 0.27031319E+03</rscale>
<asrwt>0</asrwt>
<pdfrwt beam="1">  1       21 0.16959797E+00 0.27031319E+03</pdfrwt>
<pdfrwt beam="2">  1       21 0.99241954E-02 0.27031319E+03</pdfrwt>
<totfact> 0.16822328E+04</totfact>
</mgrwt>
</event>
<event>
 5    0  0.2727759E+000  0.3318372E+03  0.7546771E-02  0.1070327E+00
         21   -1    0    0  502  501  0.00000000000E+00  0.00000000000E+00  0.40910426854E+03  0.40910426854E+03  0.00000000000E+00 0.  1.
         21   -1    0    0  503  502 -0.00000000000E+00 -0.00000000000E+00 -0.28224249006E+03  0.28224249006E+03  0.00000000000E+00 0.  1.
         25    1    1    2    0    0  0.14276770415E+03 -0.27222846709E+03 -0.44270850017E+02  0.33477733467E+03  0.12500000000E+03 0.  0.
         21    1    1    2  503  504 -0.21598242549E+02  0.30703445456E+02  0.15971088201E+01  0.37573080798E+02  0.00000000000E+00 0.  1.
         21    1    1    2  504  501 -0.12116946160E+03  0.24152502164E+03  0.16953551967E+03  0.31899634313E+03  0.00000000000E+00 0.  1.
<mgrwt>
<rscale>  4 0.33183724E+03</rscale>
<asrwt>0</asrwt>
<pdfrwt beam="1">  1       21 0.62939119E-01 0.33183724E+03</pdfrwt>
<pdfrwt beam="2">  1       21 0.43421921E-01 0.33183724E+03</pdfrwt>
<totfact> 0.11082292E+04</totfact>
</mgrwt>
</event>
<event>
 5    0  0.5565196E+000  0.2472452E+03  0.7546771E-02  0.1115058E+00
         21   -1    0    0  502  501  0.00000000000E+00  0.00000000000E+00  0.79653744578E+03  0.79653744578E+03  0.00000000000E+00 0. -1.
         21   -1    0    0  503  502 -0.00000000000E+00 -0.00000000000E+00 -0.82916642377E+02  0.82916642377E+02  0.00000000000E+00 0. -1.
         25    1    1    2    0    0  0.22025528431E+03 -0.30852134262E+02  0.47051677428E+03  0.53523385481E+03  0.12500000000E+03 0.  0.
         21    1    1    2  503  504 -0.26591499927E+02 -0.30578140649E+02  0.40284911019E+02  0.57140218846E+02  0.00000000000E+00 0.  1.
         21    1    1    2  504  501 -0.19366378439E+03  0.61430274912E+02  0.20281911811E+03  0.28708001451E+03  0.00000000000E+00 0. -1.
<mgrwt>
<rscale>  4 0.24724522E+03</rscale>
<asrwt>0</asrwt>
<pdfrwt beam="1">  1       21 0.12254422E+00 0.24724522E+03</pdfrwt>
<pdfrwt beam="2">  1       21 0.12756407E-01 0.24724522E+03</pdfrwt>
<totfact> 0.25568757E+04</totfact>
</mgrwt>
</event>
<event>
 5    0  0.2159162E+000  0.2586883E+03  0.7546771E-02  0.1107934E+00
         21   -1    0    0  502  501  0.00000000000E+00  0.00000000000E+00  0.45023212506E+03  0.45023212506E+03  0.00000000000E+00 0.  1.
         21   -1    0    0  503  502 -0.00000000000E+00 -0.00000000000E+00 -0.39091074501E+03  0.39091074501E+03  0.00000000000E+00 0.  1.
         25    1    1    2    0    0  0.22637081687E+03  0.71349826882E+01  0.37130961617E+03  0.45253782800E+03  0.12500000000E+03 0.  0.
         21    1    1    2  503  504 -0.20932069720E+03  0.40633783444E+01 -0.29662717203E+03  0.36306933843E+03  0.00000000000E+00 0.  1.
         21    1    1    2  504  501 -0.17050119677E+02 -0.11198361033E+02 -0.15361064092E+02  0.25535703649E+02  0.00000000000E+00 0. -1.
<mgrwt>
<rscale>  4 0.25868834E+03</rscale>
<asrwt>0</asrwt>
<pdfrwt beam="1">  1       21 0.69266481E-01 0.25868834E+03</pdfrwt>
<pdfrwt beam="2">  1       21 0.60140115E-01 0.25868834E+03</pdfrwt>
<totfact> 0.46696247E+03</totfact>
</mgrwt>
</event>
<event>
 5    0  0.2159162E+000  0.2559910E+03  0.7546771E-02  0.1109576E+00
         21   -1    0    0  502  501  0.00000000000E+00  0.00000000000E+00  0.71329305952E+02  0.71329305952E+02  0.00000000000E+00 0.  1.
         21   -1    0    0  503  502 -0.00000000000E+00 -0.00000000000E+00 -0.10948509388E+04  0.10948509388E+04  0.00000000000E+00 0.  1.
         25    1    1    2    0    0 -0.86581717378E+02  0.20593682339E+03 -0.81335739488E+03  0.85269081197E+03  0.12500000000E+03 0.  0.
         21    1    1    2  503  504  0.28017103016E+02 -0.14605986037E+03 -0.13943849702E+03  0.20386646444E+03  0.00000000000E+00 0.  1.
         21    1    1    2  504  501  0.58564614362E+02 -0.59876963016E+02 -0.70725740951E+02  0.10962296834E+03  0.00000000000E+00 0.  1.
<mgrwt>
<rscale>  4 0.25599095E+03</rscale>
<asrwt>0</asrwt>
<pdfrwt beam="1">  1       21 0.10973739E-01 0.25599095E+03</pdfrwt>
<pdfrwt beam="2">  1       21 0.16843861E+00 0.25599095E+03</pdfrwt>
<totfact> 0.14445553E+04</totfact>
</mgrwt>
</event>
<event>
 5    0  0.2159162E+000  0.3184607E+03  0.7546771E-02  0.1076360E+00
         21   -1    0    0  502  501  0.00000000000E+00  0.00000000000E+00  0.77995569268E+03  0.77995569268E+03  0.00000000000E+00 0. -1.
         21   -1    0    0  503  502 -0.00000000000E+00 -0.00000000000E+00 -0.50801740239E+03  0.50801740239E+03  0.00000000000E+00 0.  1.
         25    1    1    2    0    0  0.90369079857E+02  0.27861375258E+03  0.69777116036E+03  0.76700833499E+03  0.12500000000E+03 0.  0.
         21    1    1    2  503  504 -0.66741215547E+02 -0.17795483898E+03 -0.32529668724E+03  0.37674958434E+03  0.00000000000E+00 0.  1.
         21    1    1    2  504  501 -0.23627864310E+02 -0.10065891360E+03 -0.10053618282E+03  0.14421517575E+03  0.00000000000E+00 0.  1.
<mgrwt>
<rscale>  4 0.31846066E+03</rscale>
<asrwt>0</asrwt>
<pdfrwt beam="1">  1       21 0.11999318E+00 0.31846066E+03</pdfrwt>
<pdfrwt beam="2">  1       21 0.78156523E-01 0.31846066E+03</pdfrwt>
<totfact> 0.69009586E+02</totfact>
</mgrwt>
</event>
<event>
 5    0  0.3567144E+000  0.2906134E+03  0.7546771E-02  0.1090029E+00
         21   -1    0    0  502  501  0.00000000000E+00  0.00000000000E+00  0.64682318833E+03  0.64682318833E+03  0.00000000000E+00 0.  1.
         21   -1    0    0  503  502 -0.00000000000E+00 -0.00000000000E+00 -0.12246677162E+03  0.12246677162E+03  0.00000000000E+00 0.  1.
         25    1    1    2    0    0  0.14249490455E+03 -0.22028697758E+03  0.30246506278E+03  0.41945353082E+03  0.12500000000E+03 0.  0.
         21    1    1    2  503  504 -0.85866950170E+02  0.18278529776E+03  0.15575160098E+03  0.25503364370E+03  0.00000000000E+00 0.  1.
         21    1    1    2  504  501 -0.56627954381E+02  0.37501679824E+02  0.66139752946E+02  0.94802785438E+02  0.00000000000E+00 0. -1.
<mgrwt>
<rscale>  4 0.29061340E+03</rscale>
<asrwt>0</asrwt>
<pdfrwt beam="1">  1       21 0.99511257E-01 0.29061340E+03</pdfrwt>
<pdfrwt beam="2">  1       21 0.18841042E-01 0.29061340E+03</pdfrwt>
<totfact> 0.20367861E+04</totfact>
</mgrwt>
</event>
