<event>
 5    0  0.2349231E+000  0.4762630E+03  0.7546771E-02  0.1020167E+00
         21   -1    0    0  503  501  0.00000000000E+00  0.00000000000E+00  0.22769856631E+03  0.22769856631E+03  0.00000000000E+00 0.  1.
         21   -1    0    0  504  502 -0.00000000000E+00 -0.00000000000E+00 -0.20996977979E+04  0.20996977979E+04  0.00000000000E+00 0. -1.
         25    1    1    2    0    0 -0.15161371934E+02 -0.33977704352E+03 -0.16029540067E+04  0.16434003938E+04  0.12500000000E+03 0.  0.
         21    1    1    2  503  502 -0.87414458101E+02  0.30193006960E+03  0.74866859773E+02  0.32312242433E+03  0.00000000000E+00 0.  1.
         21    1    1    2  504  501  0.10257583003E+03  0.37846973928E+02 -0.34391208458E+03  0.36087354608E+03  0.00000000000E+00 0.  1.
<mgrwt>
<rscale>  4 0.47626300E+03</rscale>
<asrwt>0</asrwt>
<pdfrwt beam="1">  1       21 0.35030550E-01 0.47626300E+03</pdfrwt>
<pdfrwt beam="2">  1       21 0.32303042E+00 0.47626300E+03</pdfrwt>
<totfact> 0.15028340E+02</totfact>
</mgrwt>
</event>
<event>
 5    0  0.2349231E+000  0.5753003E+03  0.7546771E-02  0.9958018E-01
         21   -1    0    0  504  501  0.00000000000E+00  0.00000000000E+00  0.13692936598E+04  0.13692936598E+04  0.00000000000E+00 0. -1.
         21   -1    0    0  503  502 -0.00000000000E+00 -0.00000000000E+00 -0.59014095838E+03  0.59014095838E+03  0.00000000000E+00 0. -1.
         25    1    1    2    0    0 -0.31167944402E+03 -0.35431617980E+02 -0.44108859028E+03  0.55550303316E+03  0.12500000000E+03 0.  0.
         21    1    1    2  503  501  0.17124553442E+03 -0.85596838964E+01 -0.33799076762E+01  0.17149263839E+03  0.00000000000E+00 0. -1.
         21    1    1    2  504  502  0.14043390960E+03  0.43991301876E+02  0.12236211994E+04  0.12324389467E+04  0.00000000000E+00 0. -1.
<mgrwt>
<rscale>  4 0.57530032E+03</rscale>
<asrwt>0</asrwt>
<pdfrwt beam="1">  1       21 0.21066056E+00 0.57530032E+03</pdfrwt>
<pdfrwt beam="2">  1       21 0.90790917E-01 0.57530032E+03</pdfrwt>
<totfact> 0.88000598E+01</totfact>
</mgrwt>
</event>
<event>
 5    0  0.2349231E+000  0.4683485E+03  0.7546771E-02  0.1022387E+00
         21   -1    0    0  503  501  0.00000000000E+00  0.00000000000E+00  0.18496036381E+03  0.18496036381E+03  0.00000000000E+00 0. -1.
         21   -1    0    0  504  502 -0.00000000000E+00 -0.00000000000E+00 -0.33038164563E+03  0.33038164563E+03  0.00000000000E+00 0. -1.
         25    1    1    2    0    0 -0.16670142557E+03 -0.11869507297E+03 -0.10623611319E+03  0.26227656659E+03  0.12500000000E+03 0.  0.
         21    1    1    2  503  502 -0.76390304106E+01 -0.23351641287E+02  0.11438616397E+01  0.24595982514E+02  0.00000000000E+00 0. -1.
         21    1    1    2  504  501  0.17434045598E+03  0.14204671426E+03 -0.40329030271E+02  0.22846946034E+03  0.00000000000E+00 0. -1.
<mgrwt>
<rscale>  4 0.46834850E+03</rscale>
<asrwt>0</asrwt>
<pdfrwt beam="1">  1       21 0.28455441E-01 0.46834850E+03</pdfrwt>
<pdfrwt beam="2">  1       21 0.50827945E-01 0.46834850E+03</pdfrwt>
<totfact> 0.39703375E+04</totfact>
</mgrwt>
</event>
