<event>
 5    0  0.1239749E+000  0.2671460E+03  0.7546771E-02  0.1102924E+00
          2   -1    0    0  503    0 -0.00000000000E+00  0.00000000000E+00  0.28182387634E+04  0.28182387634E+04  0.00000000000E+00 0. -1.
         21   -1    0    0  501  502  0.00000000000E+00 -0.00000000000E+00 -0.79557783630E+02  0.79557783630E+02  0.00000000000E+00 0. -1.
         25    1    1    2    0    0  0.22731649829E+03  0.12738523915E+02  0.24208514903E+03  0.35505672753E+03  0.12500000000E+03 0.  0.
         21    1    1    2  503  502 -0.25510308000E+03 -0.27407350134E+02  0.69462159954E+03  0.74049166829E+03  0.00000000000E+00 0. -1.
          2    1    1    2  501    0  0.27786581710E+02  0.14668826219E+02  0.18019742312E+04  0.18022481512E+04  0.00000000000E+00 0. -1.
<mgrwt>
<rscale>  4 0.26714603E+03</rscale>
<asrwt>0</asrwt>
<pdfrwt beam="1">  1       21 0.12239661E-01 0.26714603E+03</pdfrwt>
<pdfrwt beam="2">  1        2 0.43357512E+00 0.26714603E+03</pdfrwt>
<totfact> 0.18930629E+03</totfact>
</mgrwt>
</event>
<event>
 5    0  0.1239749E+000  0.3288792E+03  0.7546771E-02  0.1071634E+00
         21   -1    0    0  501  502  0.00000000000E+00  0.00000000000E+00  0.75011517429E+03  0.75011517429E+03  0.00000000000E+00 0. -1.
          1   -1    0    0  503    0 -0.00000000000E+00 -0.00000000000E+00 -0.15507933772E+04  0.15507933772E+04  0.00000000000E+00 0. -1.
         25    1    1    2    0    0 -0.12840239272E+02  0.30392704379E+03  0.69748219970E+03  0.77113094776E+03  0.12500000000E+03 0.  0.
         21    1    1    2  503  502  0.72946307369E+01 -0.27929315355E+03 -0.12785276923E+04  0.13086981842E+04  0.00000000000E+00 0. -1.
          1    1    1    2  501    0  0.55456085355E+01 -0.24633890242E+02 -0.21963271034E+03  0.22107941961E+03  0.00000000000E+00 0. -1.
<mgrwt>
<rscale>  4 0.32887919E+03</rscale>
<asrwt>0</asrwt>
<pdfrwt beam="1">  1       21 0.11540234E+00 0.32887919E+03</pdfrwt>
<pdfrwt beam="2">  1        1 0.23858359E+00 0.32887919E+03</pdfrwt>
<totfact> 0.39241761E+01</totfact>
</mgrwt>
</event>
<event>
 5    0  0.1239749E+000  0.2516102E+03  0.7546771E-02  0.1112291E+00
         21   -1    0    0  501  502  0.00000000000E+00  0.00000000000E+00  0.46873896035E+03  0.46873896035E+03  0.00000000000E+00 0. -1.
          1   -1    0    0  503    0 -0.00000000000E+00 -0.00000000000E+00 -0.84267862720E+03  0.84267862720E+03  0.00000000000E+00 0. -1.
         25    1    1    2    0    0 -0.23841026618E+03  0.17555851865E+00  0.10870332835E+03  0.29031172803E+03  0.12500000000E+03 0.  0.
         21    1    1    2  503  502  0.20925935738E+03  0.81592270776E+01  0.22813593841E+03  0.30968057419E+03  0.00000000000E+00 0. -1.
          1    1    1    2  501    0  0.29150908794E+02 -0.83347855963E+01 -0.71077893362E+03  0.71142528533E+03  0.00000000000E+00 0. -1.
<mgrwt>
<rscale>  4 0.25161024E+03</rscale>
<asrwt>0</asrwt>
<pdfrwt beam="1">  1       21 0.72113687E-01 0.25161024E+03</pdfrwt>
<pdfrwt beam="2">  1        1 0.12964286E+00 0.25161024E+03</pdfrwt>
<totfact> 0.39781944E+02</totfact>
</mgrwt>
</event>
<event>
 5    0  0.1239749E+000  0.3123392E+03  0.7546771E-02  0.1079230E+00
         21   -1    0    0  503  502  0.00000000000E+00  0.00000000000E+00  0.39524887906E+03  0.39524887906E+03  0.00000000000E+00 0. -1.
         -1   -1    0    0    0  501 -0.00000000000E+00 -0.00000000000E+00 -0.28529157557E+04  0.28529157557E+04  0.00000000000E+00 0.  1.
         25    1    1    2    0    0  0.25790921690E+03 -0.15746853062E+03  0.31228579631E+03  0.45217355172E+03  0.12500000000E+03 0.  0.
         21    1    1    2  503  501 -0.13619844008E+03  0.75541462735E+02 -0.56235653910E+03  0.58352498211E+03  0.00000000000E+00 0. -1.
         -1    1    1    2    0  502 -0.12171077682E+03  0.81927067882E+02 -0.22075961339E+04  0.22124661010E+04  0.00000000000E+00 0.  1.
<mgrwt>
<rscale>  4 0.31233922E+03</rscale>
<asrwt>0</asrwt>
<pdfrwt beam="1">  1       21 0.60807521E-01 0.31233922E+03</pdfrwt>
<pdfrwt beam="2">  1       -1 0.43891011E+00 0.31233922E+03</pdfrwt>
<totfact> 0.10541989E+00</totfact>
</mgrwt>
</event>
<event>
 5    0  0.1239749E+000  0.3901632E+03  0.7546771E-02  0.1047240E+00
          2   -1    0    0  503    0 -0.00000000000E+00  0.00000000000E+00  0.52932018363E+03  0.52932018363E+03  0.00000000000E+00 0. -1.
         21   -1    0    0  501  502  0.00000000000E+00 -0.00000000000E+00 -0.13199993723E+04  0.13199993723E+04  0.00000000000E+00 0. -1.
         25    1    1    2    0    0  0.90237885511E+01  0.41089409823E+03 -0.40509072905E+03  0.59045650769E+03  0.12500000000E+03 0.  0.
         21    1    1    2  503  502 -0.11768568068E-01 -0.35268792476E+03 -0.78212946919E+03  0.85797160733E+03  0.00000000000E+00 0. -1.
          2    1    1    2  501    0 -0.90120199831E+01 -0.58206173461E+02  0.39654100956E+03  0.40089144091E+03  0.00000000000E+00 0. -1.
<mgrwt>
<rscale>  4 0.39016321E+03</rscale>
<asrwt>0</asrwt>
<pdfrwt beam="1">  1       21 0.20307683E+00 0.39016321E+03</pdfrwt>
<pdfrwt beam="2">  1        2 0.81433874E-01 0.39016321E+03</pdfrwt>
<totfact> 0.82033466E+01</totfact>
</mgrwt>
</event>
<event>
 5    0  0.1239749E+000  0.5329653E+03  0.7546771E-02  0.1005516E+00
         21   -1    0    0  501  502  0.00000000000E+00  0.00000000000E+00  0.22990837046E+03  0.22990837046E+03  0.00000000000E+00 0. -1.
          2   -1    0    0  503    0 -0.00000000000E+00 -0.00000000000E+00 -0.14670187587E+04  0.14670187587E+04  0.00000000000E+00 0. -1.
         25    1    1    2    0    0  0.30685677601E+03 -0.43116029523E+03 -0.38688501570E+03  0.66735694837E+03  0.12500000000E+03 0.  0.
         21    1    1    2  503  502 -0.31512307623E+03  0.39257651989E+03 -0.63289759850E+03  0.80868921554E+03  0.00000000000E+00 0. -1.
          2    1    1    2  501    0  0.82663002167E+01  0.38583775336E+02 -0.21732777403E+03  0.22088096524E+03  0.00000000000E+00 0. -1.
<mgrwt>
<rscale>  4 0.53296531E+03</rscale>
<asrwt>0</asrwt>
<pdfrwt beam="1">  1       21 0.35370519E-01 0.53296531E+03</pdfrwt>
<pdfrwt beam="2">  1        2 0.22569519E+00 0.53296531E+03</pdfrwt>
<totfact> 0.12477761E+03</totfact>
</mgrwt>
</event>
<event>
 5    0  0.1239749E+000  0.2596589E+03  0.7546771E-02  0.1107348E+00
         21   -1    0    0  501  502  0.00000000000E+00  0.00000000000E+00  0.67997050638E+02  0.67997050638E+02  0.00000000000E+00 0.  1.
          2   -1    0    0  503    0 -0.00000000000E+00 -0.00000000000E+00 -0.18865128372E+04  0.18865128372E+04  0.00000000000E+00 0.  1.
         25    1    1    2    0    0 -0.20047531697E+03  0.10448139750E+03 -0.31377355193E+03  0.40643026096E+03  0.12500000000E+03 0.  0.
         21    1    1    2  503  502  0.22225223481E+03 -0.78761317567E+02 -0.14943122935E+04  0.15128015836E+04  0.00000000000E+00 0.  1.
          2    1    1    2  501    0 -0.21776917840E+02 -0.25720079936E+02 -0.10429941165E+02  0.35278043246E+02  0.00000000000E+00 0.  1.
<mgrwt>
<rscale>  4 0.25965892E+03</rscale>
<asrwt>0</asrwt>
<pdfrwt beam="1">  1       21 0.10461086E-01 0.25965892E+03</pdfrwt>
<pdfrwt beam="2">  1        2 0.29023270E+00 0.25965892E+03</pdfrwt>
<totfact> 0.80540532E+03</totfact>
</mgrwt>
</event>
<event>
 5    0  0.1239749E+000  0.1860630E+03  0.7546771E-02  0.1162061E+00
          1   -1    0    0  503    0 -0.00000000000E+00  0.00000000000E+00  0.32380924823E+04  0.32380924823E+04  0.00000000000E+00 0. -1.
         21   -1    0    0  501  502  0.00000000000E+00 -0.00000000000E+00 -0.21276656509E+03  0.21276656509E+03  0.00000000000E+00 0.  1.
         25    1    1    2    0    0  0.19981914230E+03 -0.95557675418E+02 -0.81339094120E+02  0.26702061192E+03  0.12500000000E+03 0.  0.
         21    1    1    2  503  502 -0.11738993956E+03 -0.14242933108E+02  0.57332305485E+02  0.13141633196E+03  0.00000000000E+00 0.  1.
          1    1    1    2  501    0 -0.82429202739E+02  0.10980060853E+03  0.30493327058E+04  0.30524221035E+04  0.00000000000E+00 0. -1.
<mgrwt>
<rscale>  4 0.18606303E+03</rscale>
<asrwt>0</asrwt>
<pdfrwt beam="1">  1       21 0.32733320E-01 0.18606303E+03</pdfrwt>
<pdfrwt beam="2">  1        1 0.49816804E+00 0.18606303E+03</pdfrwt>
<totfact> 0.51682250E+01</totfact>
</mgrwt>
</event>
<event>
 5    0  0.1239749E+000  0.2533144E+03  0.7546771E-02  0.1111228E+00
          1   -1    0    0  503    0 -0.00000000000E+00  0.00000000000E+00  0.19703793251E+04  0.19703793251E+04  0.00000000000E+00 0. -1.
         21   -1    0    0  501  502  0.00000000000E+00 -0.00000000000E+00 -0.23542235065E+03  0.23542235065E+03  0.00000000000E+00 0.  1.
         25    1    1    2    0    0 -0.19628469357E+03  0.10708216359E+03 -0.13935147819E+03  0.29161293723E+03  0.12500000000E+03 0.  0.
         21    1    1    2  503  502  0.15711664208E+03 -0.12517877802E+03  0.49506073378E+03  0.53426631544E+03  0.00000000000E+00 0.  1.
          1    1    1    2  501    0  0.39168051492E+02  0.18096614430E+02  0.13792477189E+04  0.13799224231E+04  0.00000000000E+00 0. -1.
<mgrwt>
<rscale>  4 0.25331444E+03</rscale>
<asrwt>0</asrwt>
<pdfrwt beam="1">  1       21 0.36218824E-01 0.25331444E+03</pdfrwt>
<pdfrwt beam="2">  1        1 0.30313527E+00 0.25331444E+03</pdfrwt>
<totfact> 0.28405831E+02</totfact>
</mgrwt>
</event>
<event>
 5    0  0.1239749E+000  0.4330008E+03  0.7546771E-02  0.1032916E+00
         21   -1    0    0  501  502  0.00000000000E+00  0.00000000000E+00  0.11369469070E+04  0.11369469070E+04  0.00000000000E+00 0. -1.
          3   -1    0    0  503    0 -0.00000000000E+00 -0.00000000000E+00 -0.11577243039E+04  0.11577243039E+04  0.00000000000E+00 0.  1.
         25    1    1    2    0    0  0.21082166797E+03 -0.36194855046E+03  0.98707434383E+03  0.10795338295E+04  0.12500000000E+03 0.  0.
         21    1    1    2  503  502 -0.24530976592E+03 -0.61232041737E+02 -0.41439382451E+03  0.48543638717E+03  0.00000000000E+00 0. -1.
          3    1    1    2  501    0  0.34488097947E+02  0.42318059220E+03 -0.59345791629E+03  0.72970099419E+03  0.00000000000E+00 0.  1.
<mgrwt>
<rscale>  4 0.43300080E+03</rscale>
<asrwt>0</asrwt>
<pdfrwt beam="1">  1       21 0.17491491E+00 0.43300080E+03</pdfrwt>
<pdfrwt beam="2">  1        3 0.17811143E+00 0.43300080E+03</pdfrwt>
<totfact> 0.18518886E+00</totfact>
</mgrwt>
</event>
<event>
 5    0  0.1239749E+000  0.2921882E+03  0.7546771E-02  0.1089212E+00
         21   -1    0    0  501  502  0.00000000000E+00  0.00000000000E+00  0.24023625827E+03  0.24023625827E+03  0.00000000000E+00 0. -1.
          2   -1    0    0  503    0 -0.00000000000E+00 -0.00000000000E+00 -0.11171861512E+04  0.11171861512E+04  0.00000000000E+00 0.  1.
         25    1    1    2    0    0 -0.56981236075E+02  0.28074318859E+03 -0.39689513018E+03  0.50518743410E+03  0.12500000000E+03 0.  0.
         21    1    1    2  503  502  0.46712234199E+02 -0.25537397138E+03  0.95061356656E+02  0.27646800830E+03  0.00000000000E+00 0. -1.
          2    1    1    2  501    0  0.10269001876E+02 -0.25369217212E+02 -0.57511611941E+03  0.57576696708E+03  0.00000000000E+00 0.  1.
<mgrwt>
<rscale>  4 0.29218819E+03</rscale>
<asrwt>0</asrwt>
<pdfrwt beam="1">  1       21 0.36959424E-01 0.29218819E+03</pdfrwt>
<pdfrwt beam="2">  1        2 0.17187479E+00 0.29218819E+03</pdfrwt>
<totfact> 0.19247021E+03</totfact>
</mgrwt>
</event>
<event>
 5    0  0.1239749E+000  0.3115839E+03  0.7546771E-02  0.1079589E+00
          3   -1    0    0  503    0 -0.00000000000E+00  0.00000000000E+00  0.57281657546E+03  0.57281657546E+03  0.00000000000E+00 0.  1.
         21   -1    0    0  501  502  0.00000000000E+00 -0.00000000000E+00 -0.13716672278E+04  0.13716672278E+04  0.00000000000E+00 0.  1.
         25    1    1    2    0    0  0.14026563355E+03  0.26369068366E+03 -0.12488753421E+04  0.12901634953E+04  0.12500000000E+03 0.  0.
         21    1    1    2  503  502 -0.13118228155E+03 -0.16782287129E+03  0.20342102764E+02  0.21397922391E+03  0.00000000000E+00 0.  1.
          3    1    1    2  501    0 -0.90833520063E+01 -0.95867812377E+02  0.42968258697E+03  0.44034108403E+03  0.00000000000E+00 0.  1.
<mgrwt>
<rscale>  4 0.31158392E+03</rscale>
<asrwt>0</asrwt>
<pdfrwt beam="1">  1       21 0.21102573E+00 0.31158392E+03</pdfrwt>
<pdfrwt beam="2">  1        3 0.88125627E-01 0.31158392E+03</pdfrwt>
<totfact> 0.62711919E+00</totfact>
</mgrwt>
</event>
<event>
 5    0  0.1239749E+000  0.2423325E+03  0.7546771E-02  0.1118249E+00
         21   -1    0    0  501  502  0.00000000000E+00  0.00000000000E+00  0.17669087802E+03  0.17669087802E+03  0.00000000000E+00 0.  1.
          3   -1    0    0  503    0 -0.00000000000E+00 -0.00000000000E+00 -0.34104814320E+03  0.34104814320E+03  0.00000000000E+00 0. -1.
         25    1    1    2    0    0 -0.43885557949E+02  0.20544640746E+03 -0.98284773180E+01  0.24465438378E+03  0.12500000000E+03 0.  0.
         21    1    1    2  503  502  0.61219391283E+02 -0.19491035347E+03 -0.14586697858E+03  0.25102795701E+03  0.00000000000E+00 0. -1.
          3    1    1    2  501    0 -0.17333833333E+02 -0.10536053989E+02 -0.86618092843E+01  0.22056680434E+02  0.00000000000E+00 0. -1.
<mgrwt>
<rscale>  4 0.24233245E+03</rscale>
<asrwt>0</asrwt>
<pdfrwt beam="1">  1       21 0.27183212E-01 0.24233245E+03</pdfrwt>
<pdfrwt beam="2">  1        3 0.52468945E-01 0.24233245E+03</pdfrwt>
<totfact> 0.23077817E+03</totfact>
</mgrwt>
</event>
<event>
 5    0  0.1239749E+000  0.2981192E+03  0.7546771E-02  0.1086185E+00
          3   -1    0    0  503    0 -0.00000000000E+00  0.00000000000E+00  0.86301976357E+03  0.86301976357E+03  0.00000000000E+00 0. -1.
         21   -1    0    0  501  502  0.00000000000E+00 -0.00000000000E+00 -0.64781278761E+03  0.64781278761E+03  0.00000000000E+00 0.  1.
         25    1    1    2    0    0  0.15199659774E+03  0.24385670708E+03 -0.43480379268E+03  0.53595559279E+03  0.12500000000E+03 0.  0.
         21    1    1    2  503  502 -0.13963526364E+03 -0.19669467638E+03 -0.71599646831E+02  0.25162136633E+03  0.00000000000E+00 0.  1.
          3    1    1    2  501    0 -0.12361334102E+02 -0.47162030703E+02  0.72161041547E+03  0.72325559205E+03  0.00000000000E+00 0. -1.
<mgrwt>
<rscale>  4 0.29811922E+03</rscale>
<asrwt>0</asrwt>
<pdfrwt beam="1">  1       21 0.99663506E-01 0.29811922E+03</pdfrwt>
<pdfrwt beam="2">  1        3 0.13277227E+00 0.29811922E+03</pdfrwt>
<totfact> 0.18073869E+01</totfact>
</mgrwt>
</event>
<event>
 5    0  0.1239749E+000  0.2928532E+03  0.7546771E-02  0.1088869E+00
         21   -1    0    0  501  502  0.00000000000E+00  0.00000000000E+00  0.14622000741E+03  0.14622000741E+03  0.00000000000E+00 0. -1.
          1   -1    0    0  503    0 -0.00000000000E+00 -0.00000000000E+00 -0.69715981454E+03  0.69715981454E+03  0.00000000000E+00 0. -1.
         25    1    1    2    0    0  0.50713414365E+01  0.26638142493E+03 -0.12039629730E+03  0.31797020372E+03  0.12500000000E+03 0.  0.
         21    1    1    2  503  502 -0.40361595733E+02 -0.26036145450E+03 -0.35786498126E+03  0.44439227065E+03  0.00000000000E+00 0. -1.
          1    1    1    2  501    0  0.35290254296E+02 -0.60199704271E+01 -0.72678528571E+02  0.81017347572E+02  0.00000000000E+00 0. -1.
<mgrwt>
<rscale>  4 0.29285324E+03</rscale>
<asrwt>0</asrwt>
<pdfrwt beam="1">  1       21 0.22495386E-01 0.29285324E+03</pdfrwt>
<pdfrwt beam="2">  1        1 0.10725536E+00 0.29285324E+03</pdfrwt>
<totfact> 0.56868158E+03</totfact>
</mgrwt>
</event>
<event>
 5    0  0.1239749E+000  0.4289669E+03  0.7546771E-02  0.1035087E+00
         21   -1    0    0  501  502  0.00000000000E+00  0.00000000000E+00  0.17491503950E+03  0.17491503950E+03  0.00000000000E+00 0. -1.
          1   -1    0    0  503    0 -0.00000000000E+00 -0.00000000000E+00 -0.30427184737E+04  0.30427184737E+04  0.00000000000E+00 0. -1.
         25    1    1    2    0    0  0.35837552521E+03 -0.17453808513E+03 -0.11734609173E+03  0.43392587556E+03  0.12500000000E+03 0.  0.
         21    1    1    2  503  502 -0.27936452629E+03  0.18870490828E+03 -0.19193175543E+04  0.19487005812E+04  0.00000000000E+00 0. -1.
          1    1    1    2  501    0 -0.79010998928E+02 -0.14166823153E+02 -0.83113978821E+03  0.83500705649E+03  0.00000000000E+00 0. -1.
<mgrwt>
<rscale>  4 0.42613675E+03</rscale>
<asrwt>0</asrwt>
<pdfrwt beam="1">  1       21 0.26910008E-01 0.42896692E+03</pdfrwt>
<pdfrwt beam="2">  1        1 0.46811050E+00 0.42896692E+03</pdfrwt>
<totfact> 0.88874610E+01</totfact>
</mgrwt>
</event>
<event>
 5    0  0.1239749E+000  0.2649160E+03  0.7546771E-02  0.1104225E+00
         21   -1    0    0  503  502  0.00000000000E+00  0.00000000000E+00  0.15392143375E+04  0.15392143375E+04  0.00000000000E+00 0. -1.
         -1   -1    0    0    0  501 -0.00000000000E+00 -0.00000000000E+00 -0.41328290878E+03  0.41328290878E+03  0.00000000000E+00 0. -1.
         25    1    1    2    0    0  0.20028761948E+03 -0.18589960149E+03  0.51868841832E+03  0.59944680135E+03  0.12500000000E+03 0.  0.
         21    1    1    2  503  501  0.12118125486E+02  0.92800659131E+02  0.94154375976E+03  0.94618363062E+03  0.00000000000E+00 0. -1.
         -1    1    1    2    0  502 -0.21240574497E+03  0.93098942356E+02 -0.33430074936E+03  0.40686681431E+03  0.00000000000E+00 0. -1.
<mgrwt>
<rscale>  4 0.26491598E+03</rscale>
<asrwt>0</asrwt>
<pdfrwt beam="1">  1       21 0.23680220E+00 0.26491598E+03</pdfrwt>
<pdfrwt beam="2">  1       -1 0.63581987E-01 0.26491598E+03</pdfrwt>
<totfact> 0.17902876E+01</totfact>
</mgrwt>
</event>
<event>
 5    0  0.1239749E+000  0.2791889E+03  0.7546771E-02  0.1096133E+00
          1   -1    0    0  503    0 -0.00000000000E+00  0.00000000000E+00  0.16232576714E+04  0.16232576714E+04  0.00000000000E+00 0.  1.
         21   -1    0    0  501  502  0.00000000000E+00 -0.00000000000E+00 -0.13361146228E+03  0.13361146228E+03  0.00000000000E+00 0. -1.
         25    1    1    2    0    0  0.20709487875E+03 -0.61674468618E+02  0.69520645241E+03  0.73866707003E+03  0.12500000000E+03 0.  0.
         21    1    1    2  503  502 -0.23382050255E+03  0.10659087932E+03  0.37771994129E+02  0.25973133525E+03  0.00000000000E+00 0. -1.
          1    1    1    2  501    0  0.26725623799E+02 -0.44916410705E+02  0.75666776256E+03  0.75847072838E+03  0.00000000000E+00 0.  1.
<mgrwt>
<rscale>  4 0.27918887E+03</rscale>
<asrwt>0</asrwt>
<pdfrwt beam="1">  1       21 0.20555611E-01 0.27918887E+03</pdfrwt>
<pdfrwt beam="2">  1        1 0.24973194E+00 0.27918887E+03</pdfrwt>
<totfact> 0.14189249E+03</totfact>
</mgrwt>
</event>
<event>
 5    0  0.1239749E+000  0.3198751E+03  0.7546771E-02  0.1075707E+00
          1   -1    0    0  503    0 -0.00000000000E+00  0.00000000000E+00  0.34052405448E+04  0.34052405448E+04  0.00000000000E+00 0. -1.
         21   -1    0    0  501  502  0.00000000000E+00 -0.00000000000E+00 -0.56773773827E+02  0.56773773827E+02  0.00000000000E+00 0.  1.
         25    1    1    2    0    0  0.30784326355E+03  0.46534309340E+02  0.10292445443E+04  0.10825443403E+04  0.12500000000E+03 0.  0.
         21    1    1    2  503  502 -0.28140181184E+03 -0.36287629932E+02  0.64076876650E+03  0.70077698587E+03  0.00000000000E+00 0.  1.
          1    1    1    2  501    0 -0.26441451704E+02 -0.10246679408E+02  0.16784534602E+04  0.16786929924E+04  0.00000000000E+00 0. -1.
<mgrwt>
<rscale>  4 0.31987514E+03</rscale>
<asrwt>0</asrwt>
<pdfrwt beam="1">  1       21 0.87344294E-02 0.31987514E+03</pdfrwt>
<pdfrwt beam="2">  1        1 0.52388300E+00 0.31987514E+03</pdfrwt>
<totfact> 0.41030129E+02</totfact>
</mgrwt>
</event>
<event>
 5    0  0.1239749E+000  0.2390509E+03  0.7546771E-02  0.1120427E+00
         21   -1    0    0  501  502  0.00000000000E+00  0.00000000000E+00  0.35492133884E+02  0.35492133884E+02  0.00000000000E+00 0.  1.
          1   -1    0    0  503    0 -0.00000000000E+00 -0.00000000000E+00 -0.26778848432E+04  0.26778848432E+04  0.00000000000E+00 0.  1.
         25    1    1    2    0    0 -0.17956087359E+03 -0.11334547434E+03 -0.19880585499E+04  0.20032701020E+04  0.12500000000E+03 0.  0.
         21    1    1    2  503  502  0.15794162892E+03  0.12651830786E+03 -0.34674726666E+03  0.40147989651E+03  0.00000000000E+00 0.  1.
          1    1    1    2  501    0  0.21619244674E+02 -0.13172833520E+02 -0.30758689276E+03  0.30862697854E+03  0.00000000000E+00 0.  1.
<mgrwt>
<rscale>  4 0.23905086E+03</rscale>
<asrwt>0</asrwt>
<pdfrwt beam="1">  1       21 0.54603292E-02 0.23905086E+03</pdfrwt>
<pdfrwt beam="2">  1        1 0.41198221E+00 0.23905086E+03</pdfrwt>
<totfact> 0.31515898E+03</totfact>
</mgrwt>
</event>
<event>
 5    0  0.1239749E+000  0.2662482E+03  0.7546771E-02  0.1103446E+00
          1   -1    0    0  503    0 -0.00000000000E+00  0.00000000000E+00  0.60414755531E+03  0.60414755531E+03  0.00000000000E+00 0. -1.
         21   -1    0    0  501  502  0.00000000000E+00 -0.00000000000E+00 -0.75239056055E+03  0.75239056055E+03  0.00000000000E+00 0. -1.
         25    1    1    2    0    0 -0.14106809940E+03  0.16708188598E+03 -0.30003897350E+03  0.39174602858E+03  0.12500000000E+03 0.  0.
         21    1    1    2  503  502  0.13424168865E+03 -0.21065625707E+03 -0.36709932523E+03  0.44402567966E+03  0.00000000000E+00 0. -1.
          1    1    1    2  501    0  0.68264107504E+01  0.43574371092E+02  0.51889529349E+03  0.52076640762E+03  0.00000000000E+00 0. -1.
<mgrwt>
<rscale>  4 0.26624822E+03</rscale>
<asrwt>0</asrwt>
<pdfrwt beam="1">  1       21 0.11575239E+00 0.26624822E+03</pdfrwt>
<pdfrwt beam="2">  1        1 0.92945778E-01 0.26624822E+03</pdfrwt>
<totfact> 0.21263380E+02</totfact>
</mgrwt>
</event>
<event>
 5    0  0.1239749E+000  0.4428105E+03  0.7546771E-02  0.1029888E+00
         21   -1    0    0  501  502  0.00000000000E+00  0.00000000000E+00  0.19857984685E+04  0.19857984685E+04  0.00000000000E+00 0. -1.
          2   -1    0    0  503    0 -0.00000000000E+00 -0.00000000000E+00 -0.25243426051E+04  0.25243426051E+04  0.00000000000E+00 0. -1.
         25    1    1    2    0    0  0.17428640096E+03 -0.22318146371E+03  0.17993384878E+04  0.18257682518E+04  0.12500000000E+03 0.  0.
         21    1    1    2  503  502  0.23335993650E+03  0.96745721613E+02  0.50954870537E+02  0.25770718547E+03  0.00000000000E+00 0.  1.
          2    1    1    2  501    0 -0.40764633745E+03  0.12643574209E+03 -0.23888374950E+04  0.24266656364E+04  0.00000000000E+00 0. -1.
<mgrwt>
<rscale>  4 0.44281052E+03</rscale>
<asrwt>0</asrwt>
<pdfrwt beam="1">  1       21 0.30550746E+00 0.44281052E+03</pdfrwt>
<pdfrwt beam="2">  1        2 0.38836040E+00 0.44281052E+03</pdfrwt>
<totfact> 0.11918441E+00</totfact>
</mgrwt>
</event>
<event>
 5    0  0.1239749E+000  0.3000914E+03  0.7546771E-02  0.1085195E+00
          3   -1    0    0  503    0 -0.00000000000E+00  0.00000000000E+00  0.40222863297E+03  0.40222863297E+03  0.00000000000E+00 0.  1.
         21   -1    0    0  501  502  0.00000000000E+00 -0.00000000000E+00 -0.13699574686E+04  0.13699574686E+04  0.00000000000E+00 0. -1.
         25    1    1    2    0    0 -0.25281535309E+03 -0.94080985671E+02 -0.11866718270E+04  0.12233486255E+04  0.12500000000E+03 0.  0.
         21    1    1    2  503  502  0.25986746698E+03  0.14884413973E+03 -0.23300696971E+02  0.30038075971E+03  0.00000000000E+00 0. -1.
          3    1    1    2  501    0 -0.70521138884E+01 -0.54763154056E+02  0.24224368833E+03  0.24845671633E+03  0.00000000000E+00 0.  1.
<mgrwt>
<rscale>  4 0.30009140E+03</rscale>
<asrwt>0</asrwt>
<pdfrwt beam="1">  1       21 0.21076269E+00 0.30009140E+03</pdfrwt>
<pdfrwt beam="2">  1        3 0.61881328E-01 0.30009140E+03</pdfrwt>
<totfact> 0.13655212E+01</totfact>
</mgrwt>
</event>
<event>
 5    0  0.1239749E+000  0.2430286E+03  0.7546771E-02  0.1117792E+00
         21   -1    0    0  501  502  0.00000000000E+00  0.00000000000E+00  0.11392213539E+03  0.11392213539E+03  0.00000000000E+00 0.  1.
          2   -1    0    0  503    0 -0.00000000000E+00 -0.00000000000E+00 -0.20867519011E+04  0.20867519011E+04  0.00000000000E+00 0. -1.
         25    1    1    2    0    0 -0.19331946013E+03  0.68839008635E+02 -0.40073666796E+02  0.24360238411E+03  0.12500000000E+03 0.  0.
         21    1    1    2  503  502  0.22203768766E+03 -0.75841202133E+02 -0.11466345873E+04  0.11703945913E+04  0.00000000000E+00 0. -1.
          2    1    1    2  501    0 -0.28718227536E+02  0.70021934974E+01 -0.78612151168E+03  0.78667706108E+03  0.00000000000E+00 0. -1.
<mgrwt>
<rscale>  4 0.24302863E+03</rscale>
<asrwt>0</asrwt>
<pdfrwt beam="1">  1       21 0.17526483E-01 0.24302863E+03</pdfrwt>
<pdfrwt beam="2">  1        2 0.32103874E+00 0.24302863E+03</pdfrwt>
<totfact> 0.24915453E+03</totfact>
</mgrwt>
</event>
<event>
 5    0  0.1239749E+000  0.2630518E+03  0.7546771E-02  0.1105323E+00
         21   -1    0    0  501  502  0.00000000000E+00  0.00000000000E+00  0.14296101730E+03  0.14296101730E+03  0.00000000000E+00 0.  1.
          2   -1    0    0  503    0 -0.00000000000E+00 -0.00000000000E+00 -0.17171176380E+04  0.17171176380E+04  0.00000000000E+00 0.  1.
         25    1    1    2    0    0  0.19445921135E+03 -0.12348176369E+03 -0.39604085827E+01  0.26211221963E+03  0.12500000000E+03 0.  0.
         21    1    1    2  503  502 -0.22927810506E+03  0.89175560407E+02 -0.12395364730E+04  0.12637133369E+04  0.00000000000E+00 0.  1.
          2    1    1    2  501    0  0.34818893702E+02  0.34306203284E+02 -0.33065973913E+03  0.33425309875E+03  0.00000000000E+00 0.  1.
<mgrwt>
<rscale>  4 0.26305178E+03</rscale>
<asrwt>0</asrwt>
<pdfrwt beam="1">  1       21 0.21994003E-01 0.26305178E+03</pdfrwt>
<pdfrwt beam="2">  1        2 0.26417194E+00 0.26305178E+03</pdfrwt>
<totfact> 0.25203804E+03</totfact>
</mgrwt>
</event>
<event>
 5    0  0.1239749E+000  0.2696209E+03  0.7546771E-02  0.1101497E+00
         21   -1    0    0  501  502  0.00000000000E+00  0.00000000000E+00  0.37849293466E+03  0.37849293466E+03  0.00000000000E+00 0.  1.
          4   -1    0    0  503    0 -0.00000000000E+00 -0.00000000000E+00 -0.38096289810E+03  0.38096289810E+03  0.00000000000E+00 0.  1.
         25    1    1    2    0    0 -0.22506854542E+03 -0.22639072412E+03  0.57666949259E+02  0.34764793562E+03  0.12500000000E+03 0.  0.
         21    1    1    2  503  502  0.22733006930E+02  0.19350951641E+03 -0.68812158970E+02  0.20663454641E+03  0.00000000000E+00 0.  1.
          4    1    1    2  501    0  0.20233553849E+03  0.32881207701E+02  0.86752462713E+01  0.20517335074E+03  0.00000000000E+00 0.  1.
<mgrwt>
<rscale>  4 0.26962088E+03</rscale>
<asrwt>0</asrwt>
<pdfrwt beam="1">  1       21 0.58229682E-01 0.26962088E+03</pdfrwt>
<pdfrwt beam="2">  1        4 0.58609676E-01 0.26962088E+03</pdfrwt>
<totfact> 0.32087011E+02</totfact>
</mgrwt>
</event>
<event>
 5    0  0.1239749E+000  0.4702539E+03  0.7546771E-02  0.1021849E+00
         21   -1    0    0  501  502  0.00000000000E+00  0.00000000000E+00  0.57233559775E+03  0.57233559775E+03  0.00000000000E+00 0.  1.
          2   -1    0    0  503    0 -0.00000000000E+00 -0.00000000000E+00 -0.12171992371E+04  0.12171992371E+04  0.00000000000E+00 0.  1.
         25    1    1    2    0    0  0.15512115471E+03 -0.38169333137E+03 -0.15658661097E+03  0.45814488821E+03  0.12500000000E+03 0.  0.
         21    1    1    2  503  502 -0.19643415058E+03  0.42832270729E+03  0.28823543279E+03  0.55238245972E+03  0.00000000000E+00 0.  1.
          2    1    1    2  501    0  0.41312995862E+02 -0.46629375914E+02 -0.77651246121E+03  0.77900748696E+03  0.00000000000E+00 0.  1.
<mgrwt>
<rscale>  4 0.47025394E+03</rscale>
<asrwt>0</asrwt>
<pdfrwt beam="1">  1       21 0.88051632E-01 0.47025394E+03</pdfrwt>
<pdfrwt beam="2">  1        2 0.18726142E+00 0.47025394E+03</pdfrwt>
<totfact> 0.24057173E+02</totfact>
</mgrwt>
</event>
<event>
 5    0  0.1239749E+000  0.2947831E+03  0.7546771E-02  0.1087878E+00
         21   -1    0    0  501  502  0.00000000000E+00  0.00000000000E+00  0.68395358371E+03  0.68395358371E+03  0.00000000000E+00 0.  1.
          1   -1    0    0  503    0 -0.00000000000E+00 -0.00000000000E+00 -0.61836543012E+03  0.61836543012E+03  0.00000000000E+00 0.  1.
         25    1    1    2    0    0 -0.80465818926E+02 -0.25867726058E+03  0.30776085970E+03  0.42863786571E+03  0.12500000000E+03 0.  0.
         21    1    1    2  503  502  0.43038272016E+02  0.26105194579E+03  0.25950802046E+03  0.37060062593E+03  0.00000000000E+00 0.  1.
          1    1    1    2  501    0  0.37427546910E+02 -0.23746852129E+01 -0.50168072657E+03  0.50308052219E+03  0.00000000000E+00 0.  1.
<mgrwt>
<rscale>  4 0.29478313E+03</rscale>
<asrwt>0</asrwt>
<pdfrwt beam="1">  1       21 0.10522363E+00 0.29478313E+03</pdfrwt>
<pdfrwt beam="2">  1        1 0.95133144E-01 0.29478313E+03</pdfrwt>
<totfact> 0.25617009E+02</totfact>
</mgrwt>
</event>
<event>
 5    0  0.1239749E+000  0.2977973E+03  0.7546771E-02  0.1086347E+00
         21   -1    0    0  503  502  0.00000000000E+00  0.00000000000E+00  0.32848103650E+03  0.32848103650E+03  0.00000000000E+00 0.  1.
         -1   -1    0    0    0  501 -0.00000000000E+00 -0.00000000000E+00 -0.28695703743E+03  0.28695703743E+03  0.00000000000E+00 0.  1.
         25    1    1    2    0    0  0.21564973099E+03  0.17531525181E+03  0.71349861633E+02  0.31297930722E+03  0.12500000000E+03 0.  0.
         21    1    1    2  503  501 -0.22229177395E+03 -0.13982005027E+03 -0.13856261315E+02  0.26297390593E+03  0.00000000000E+00 0.  1.
         -1    1    1    2    0  502  0.66420429585E+01 -0.35495201544E+02 -0.15969601251E+02  0.39484860787E+02  0.00000000000E+00 0.  1.
<mgrwt>
<rscale>  4 0.29779731E+03</rscale>
<asrwt>0</asrwt>
<pdfrwt beam="1">  1       21 0.50535544E-01 0.29779731E+03</pdfrwt>
<pdfrwt beam="2">  1       -1 0.44147237E-01 0.29779731E+03</pdfrwt>
<totfact> 0.17223646E+03</totfact>
</mgrwt>
</event>
<event>
 5    0  0.1239749E+000  0.3049383E+03  0.7546771E-02  0.1082798E+00
         21   -1    0    0  501  502  0.00000000000E+00  0.00000000000E+00  0.73771291517E+03  0.73771291517E+03  0.00000000000E+00 0.  1.
          2   -1    0    0  503    0 -0.00000000000E+00 -0.00000000000E+00 -0.20943254839E+04  0.20943254839E+04  0.00000000000E+00 0.  1.
         25    1    1    2    0    0 -0.22871894146E+03 -0.16158517450E+03  0.51907445602E+03  0.60289751508E+03  0.12500000000E+03 0.  0.
         21    1    1    2  503  502  0.23988927199E+03  0.13334643990E+03  0.69976880832E+02  0.28324000371E+03  0.00000000000E+00 0.  1.
          2    1    1    2  501    0 -0.11170330525E+02  0.28238734600E+02 -0.19456639056E+04  0.19459008803E+04  0.00000000000E+00 0.  1.
<mgrwt>
<rscale>  4 0.30493830E+03</rscale>
<asrwt>0</asrwt>
<pdfrwt beam="1">  1       21 0.11349430E+00 0.30493830E+03</pdfrwt>
<pdfrwt beam="2">  1        2 0.32220392E+00 0.30493830E+03</pdfrwt>
<totfact> 0.47156221E+01</totfact>
</mgrwt>
</event>
<event>
 5    0  0.1239749E+000  0.2649234E+03  0.7546771E-02  0.1104221E+00
          1   -1    0    0  503    0 -0.00000000000E+00  0.00000000000E+00  0.52852714151E+03  0.52852714151E+03  0.00000000000E+00 0.  1.
         21   -1    0    0  501  502  0.00000000000E+00 -0.00000000000E+00 -0.30077590326E+03  0.30077590326E+03  0.00000000000E+00 0.  1.
         25    1    1    2    0    0 -0.20456416030E+03  0.96529654578E+02 -0.17106480755E+03  0.30992360070E+03  0.12500000000E+03 0.  0.
         21    1    1    2  503  502  0.23934769500E+03 -0.11684050500E+03  0.25030091195E+03  0.36549906872E+03  0.00000000000E+00 0.  1.
          1    1    1    2  501    0 -0.34783534708E+02  0.20310850427E+02  0.14851513385E+03  0.15388037534E+03  0.00000000000E+00 0.  1.
<mgrwt>
<rscale>  4 0.26492344E+03</rscale>
<asrwt>0</asrwt>
<pdfrwt beam="1">  1       21 0.46273216E-01 0.26492344E+03</pdfrwt>
<pdfrwt beam="2">  1        1 0.81311868E-01 0.26492344E+03</pdfrwt>
<totfact> 0.20177550E+03</totfact>
</mgrwt>
</event>
<event>
 5    0  0.1239749E+000  0.2958528E+03  0.7546771E-02  0.1087332E+00
         21   -1    0    0  501  502  0.00000000000E+00  0.00000000000E+00  0.10914010245E+03  0.10914010245E+03  0.00000000000E+00 0. -1.
          2   -1    0    0  503    0 -0.00000000000E+00 -0.00000000000E+00 -0.14531882076E+04  0.14531882076E+04  0.00000000000E+00 0. -1.
         25    1    1    2    0    0  0.16308254620E+03 -0.24857391871E+03 -0.26804250533E+03  0.41935270907E+03  0.12500000000E+03 0.  0.
         21    1    1    2  503  502 -0.20254793257E+03  0.12375195904E+03 -0.51759648304E+03  0.56942631798E+03  0.00000000000E+00 0. -1.
          2    1    1    2  501    0  0.39465386366E+02  0.12482195967E+03 -0.55840911681E+03  0.57354928303E+03  0.00000000000E+00 0. -1.
<mgrwt>
<rscale>  4 0.29585277E+03</rscale>
<asrwt>0</asrwt>
<pdfrwt beam="1">  1       21 0.16790786E-01 0.29585277E+03</pdfrwt>
<pdfrwt beam="2">  1        2 0.22356741E+00 0.29585277E+03</pdfrwt>
<totfact> 0.57158923E+03</totfact>
</mgrwt>
</event>
<event>
 5    0  0.1239749E+000  0.2373245E+03  0.7546771E-02  0.1121588E+00
         21   -1    0    0  501  502  0.00000000000E+00  0.00000000000E+00  0.66386881997E+02  0.66386881997E+02  0.00000000000E+00 0. -1.
          2   -1    0    0  503    0 -0.00000000000E+00 -0.00000000000E+00 -0.30990017997E+04  0.30990017997E+04  0.00000000000E+00 0.  1.
         25    1    1    2    0    0 -0.78941199361E+02 -0.19250303197E+03 -0.26849032610E+03  0.36194085910E+03  0.12500000000E+03 0.  0.
         21    1    1    2  503  502 -0.15970401835E+03  0.12789666368E+03 -0.89783259652E+03  0.92085085732E+03  0.00000000000E+00 0.  1.
          2    1    1    2  501    0  0.23864521771E+03  0.64606368292E+02 -0.18662919951E+04  0.18825969653E+04  0.00000000000E+00 0.  1.
<mgrwt>
<rscale>  4 0.23732446E+03</rscale>
<asrwt>0</asrwt>
<pdfrwt beam="1">  1       21 0.10213365E-01 0.23732446E+03</pdfrwt>
<pdfrwt beam="2">  1        2 0.47676960E+00 0.23732446E+03</pdfrwt>
<totfact> 0.18209722E+03</totfact>
</mgrwt>
</event>
<event>
 5    0  0.1239749E+000  0.3043675E+03  0.7546771E-02  0.1083077E+00
         21   -1    0    0  501  502  0.00000000000E+00  0.00000000000E+00  0.79477967706E+03  0.79477967706E+03  0.00000000000E+00 0. -1.
          2   -1    0    0  503    0 -0.00000000000E+00 -0.00000000000E+00 -0.30474971701E+04  0.30474971701E+04  0.00000000000E+00 0. -1.
         25    1    1    2    0    0  0.25302037312E+03 -0.84043069568E+02  0.58843996927E+03  0.65800390894E+03  0.12500000000E+03 0.  0.
         21    1    1    2  503  502 -0.30856207137E+03  0.10588532102E+03  0.15881586905E+02  0.32661059061E+03  0.00000000000E+00 0. -1.
          2    1    1    2  501    0  0.55541698256E+02 -0.21842251450E+02 -0.28570390492E+04  0.28576623476E+04  0.00000000000E+00 0. -1.
<mgrwt>
<rscale>  4 0.30436751E+03</rscale>
<asrwt>0</asrwt>
<pdfrwt beam="1">  1       21 0.12227380E+00 0.30436751E+03</pdfrwt>
<pdfrwt beam="2">  1        2 0.46884571E+00 0.30436751E+03</pdfrwt>
<totfact> 0.11490728E+01</totfact>
</mgrwt>
</event>
<event>
 5    0  0.1239749E+000  0.3843909E+03  0.7546771E-02  0.1049323E+00
          2   -1    0    0  503    0 -0.00000000000E+00  0.00000000000E+00  0.98334782135E+03  0.98334782135E+03  0.00000000000E+00 0. -1.
         21   -1    0    0  501  502  0.00000000000E+00 -0.00000000000E+00 -0.21435920270E+03  0.21435920270E+03  0.00000000000E+00 0. -1.
         25    1    1    2    0    0 -0.16986617760E+03 -0.31160087226E+03  0.14559152365E+03  0.40344951809E+03  0.12500000000E+03 0.  0.
         21    1    1    2  503  502  0.17438766511E+03  0.33380355355E+03  0.33222301362E+03  0.50220314702E+03  0.00000000000E+00 0. -1.
          2    1    1    2  501    0 -0.45214875107E+01 -0.22202681286E+02  0.29117408138E+03  0.29205435894E+03  0.00000000000E+00 0. -1.
<mgrwt>
<rscale>  4 0.38439085E+03</rscale>
<asrwt>0</asrwt>
<pdfrwt beam="1">  1       21 0.32978339E-01 0.38439085E+03</pdfrwt>
<pdfrwt beam="2">  1        2 0.15128428E+00 0.38439085E+03</pdfrwt>
<totfact> 0.28413354E+03</totfact>
</mgrwt>
</event>
<event>
 5    0  0.1239749E+000  0.2444033E+03  0.7546771E-02  0.1116894E+00
         21   -1    0    0  503  502  0.00000000000E+00  0.00000000000E+00  0.28777299248E+04  0.28777299248E+04  0.00000000000E+00 0.  1.
         -1   -1    0    0    0  501 -0.00000000000E+00 -0.00000000000E+00 -0.19348883959E+03  0.19348883959E+03  0.00000000000E+00 0. -1.
         25    1    1    2    0    0  0.25133072227E+03  0.53622476790E+02  0.13311147609E+03  0.31525571690E+03  0.12500000000E+03 0.  0.
         21    1    1    2  503  501 -0.20765678200E+03 -0.12488576304E+02  0.26403031173E+04  0.26484859552E+04  0.00000000000E+00 0.  1.
         -1    1    1    2    0  502 -0.43673940271E+02 -0.41133900485E+02 -0.89173508123E+02  0.10747709234E+03  0.00000000000E+00 0. -1.
<mgrwt>
<rscale>  4 0.24440328E+03</rscale>
<asrwt>0</asrwt>
<pdfrwt beam="1">  1       21 0.44272765E+00 0.24440328E+03</pdfrwt>
<pdfrwt beam="2">  1       -1 0.29767516E-01 0.24440328E+03</pdfrwt>
<totfact> 0.40700333E+00</totfact>
</mgrwt>
</event>
<event>
 5    0  0.1239749E+000  0.1963689E+03  0.7546771E-02  0.1152839E+00
          1   -1    0    0  503    0 -0.00000000000E+00  0.00000000000E+00  0.12766931239E+04  0.12766931239E+04  0.00000000000E+00 0.  1.
         21   -1    0    0  501  502  0.00000000000E+00 -0.00000000000E+00 -0.71068795489E+03  0.71068795489E+03  0.00000000000E+00 0. -1.
         25    1    1    2    0    0 -0.40406205673E+02 -0.21756806583E+03  0.78015487173E+03  0.82050907894E+03  0.12500000000E+03 0.  0.
         21    1    1    2  503  502  0.12050510221E+03  0.91501697061E+02 -0.67015762834E+03  0.68702640928E+03  0.00000000000E+00 0. -1.
          1    1    1    2  501    0 -0.80098896539E+02  0.12606636877E+03  0.45600792560E+03  0.47984559056E+03  0.00000000000E+00 0.  1.
<mgrwt>
<rscale>  4 0.19636889E+03</rscale>
<asrwt>0</asrwt>
<pdfrwt beam="1">  1       21 0.10933661E+00 0.19636889E+03</pdfrwt>
<pdfrwt beam="2">  1        1 0.19641433E+00 0.19636889E+03</pdfrwt>
<totfact> 0.75644305E+01</totfact>
</mgrwt>
</event>
<event>
 5    0  0.1239749E+000  0.1900195E+03  0.7546771E-02  0.1158444E+00
          4   -1    0    0  503    0 -0.00000000000E+00  0.00000000000E+00  0.29173215834E+03  0.29173215834E+03  0.00000000000E+00 0.  1.
         21   -1    0    0  501  502  0.00000000000E+00 -0.00000000000E+00 -0.79774287122E+03  0.79774287122E+03  0.00000000000E+00 0. -1.
         25    1    1    2    0    0 -0.20567412466E+03 -0.12825275093E+03 -0.57391099478E+03  0.63541281354E+03  0.12500000000E+03 0.  0.
         21    1    1    2  503  502  0.10849771331E+03  0.27424876066E+02 -0.15478697886E+03  0.19100493828E+03  0.00000000000E+00 0. -1.
          4    1    1    2  501    0  0.97176411352E+02  0.10082787487E+03  0.22268726076E+03  0.26305727775E+03  0.00000000000E+00 0.  1.
<mgrwt>
<rscale>  4 0.19001954E+03</rscale>
<asrwt>0</asrwt>
<pdfrwt beam="1">  1       21 0.12272967E+00 0.19001954E+03</pdfrwt>
<pdfrwt beam="2">  1        4 0.44881871E-01 0.19001954E+03</pdfrwt>
<totfact> 0.10153198E+02</totfact>
</mgrwt>
</event>
<event>
 5    0  0.1239749E+000  0.2444394E+03  0.7546771E-02  0.1116870E+00
         -1   -1    0    0    0  501 -0.00000000000E+00  0.00000000000E+00  0.26691276525E+03  0.26691276525E+03  0.00000000000E+00 0. -1.
         21   -1    0    0  503  502  0.00000000000E+00 -0.00000000000E+00 -0.47845909882E+03  0.47845909882E+03  0.00000000000E+00 0.  1.
         25    1    1    2    0    0  0.11459173359E+03 -0.18291880705E+03 -0.37990247201E+03  0.45446830871E+03  0.12500000000E+03 0.  0.
         21    1    1    2  503  501 -0.12799465664E+03  0.13276323212E+03  0.14154915243E+03  0.23247552663E+03  0.00000000000E+00 0. -1.
         -1    1    1    2    0  502  0.13402923042E+02  0.50155574931E+02  0.26806986006E+02  0.58428028731E+02  0.00000000000E+00 0. -1.
<mgrwt>
<rscale>  4 0.24443942E+03</rscale>
<asrwt>0</asrwt>
<pdfrwt beam="1">  1       21 0.73609091E-01 0.24443942E+03</pdfrwt>
<pdfrwt beam="2">  1       -1 0.41063503E-01 0.24443942E+03</pdfrwt>
<totfact> 0.88048261E+02</totfact>
</mgrwt>
</event>
<event>
 5    0  0.1239749E+000  0.3514410E+03  0.7546771E-02  0.1062025E+00
          2   -1    0    0  503    0 -0.00000000000E+00  0.00000000000E+00  0.37006882155E+03  0.37006882155E+03  0.00000000000E+00 0. -1.
         21   -1    0    0  501  502  0.00000000000E+00 -0.00000000000E+00 -0.58644234654E+03  0.58644234654E+03  0.00000000000E+00 0. -1.
         25    1    1    2    0    0  0.24662934852E+03  0.29802314978E+03 -0.27358093673E+03  0.49001567556E+03  0.12500000000E+03 0.  0.
         21    1    1    2  503  502 -0.10688606887E+03 -0.25334225512E+03 -0.56703602710E+02  0.28075296705E+03  0.00000000000E+00 0. -1.
          2    1    1    2  501    0 -0.13974327965E+03 -0.44680894658E+02  0.11391101446E+03  0.18574252548E+03  0.00000000000E+00 0. -1.
<mgrwt>
<rscale>  4 0.35144101E+03</rscale>
<asrwt>0</asrwt>
<pdfrwt beam="1">  1       21 0.90221899E-01 0.35144101E+03</pdfrwt>
<pdfrwt beam="2">  1        2 0.56933665E-01 0.35144101E+03</pdfrwt>
<totfact> 0.10631692E+03</totfact>
</mgrwt>
</event>
<event>
 5    0  0.1239749E+000  0.2393110E+03  0.7546771E-02  0.1120253E+00
          2   -1    0    0  503    0 -0.00000000000E+00  0.00000000000E+00  0.18507178627E+04  0.18507178627E+04  0.00000000000E+00 0.  1.
         21   -1    0    0  501  502  0.00000000000E+00 -0.00000000000E+00 -0.28615026725E+03  0.28615026725E+03  0.00000000000E+00 0.  1.
         25    1    1    2    0    0 -0.20157278429E+03  0.13630434960E+03  0.35490273381E+03  0.44809754915E+03  0.12500000000E+03 0.  0.
         21    1    1    2  503  502  0.16156092361E+03 -0.11788510034E+03 -0.19740485732E+03  0.28101157736E+03  0.00000000000E+00 0.  1.
          2    1    1    2  501    0  0.40011860681E+02 -0.18419249265E+02  0.14070697189E+04  0.14077590034E+04  0.00000000000E+00 0.  1.
<mgrwt>
<rscale>  4 0.23931103E+03</rscale>
<asrwt>0</asrwt>
<pdfrwt beam="1">  1       21 0.44023119E-01 0.23931103E+03</pdfrwt>
<pdfrwt beam="2">  1        2 0.28472582E+00 0.23931103E+03</pdfrwt>
<totfact> 0.55251154E+02</totfact>
</mgrwt>
</event>
<event>
 5    0  0.1239749E+000  0.5451451E+03  0.7546771E-02  0.1002624E+00
          1   -1    0    0  503    0 -0.00000000000E+00  0.00000000000E+00  0.20500245038E+04  0.20500245038E+04  0.00000000000E+00 0. -1.
         21   -1    0    0  501  502  0.00000000000E+00 -0.00000000000E+00 -0.43458228016E+03  0.43458228016E+03  0.00000000000E+00 0. -1.
         25    1    1    2    0    0  0.28486707640E+03 -0.50377967339E+03  0.20847206336E+03  0.62771714310E+03  0.12500000000E+03 0.  0.
         21    1    1    2  503  502 -0.15578671833E+03  0.47749113601E+03  0.62677149787E+02  0.50615779326E+03  0.00000000000E+00 0. -1.
          1    1    1    2  501    0 -0.12908035807E+03  0.26288537382E+02  0.13442930105E+04  0.13507318476E+04  0.00000000000E+00 0. -1.
<mgrwt>
<rscale>  4 0.54514507E+03</rscale>
<asrwt>0</asrwt>
<pdfrwt beam="1">  1       21 0.66858814E-01 0.54514507E+03</pdfrwt>
<pdfrwt beam="2">  1        1 0.31538838E+00 0.54514507E+03</pdfrwt>
<totfact> 0.60409161E+01</totfact>
</mgrwt>
</event>
<event>
 5    0  0.1239749E+000  0.4515963E+03  0.7546771E-02  0.1027247E+00
         21   -1    0    0  501  502  0.00000000000E+00  0.00000000000E+00  0.11990922008E+04  0.11990922008E+04  0.00000000000E+00 0.  1.
          2   -1    0    0  503    0 -0.00000000000E+00 -0.00000000000E+00 -0.38604805722E+03  0.38604805722E+03  0.00000000000E+00 0. -1.
         25    1    1    2    0    0 -0.25599244488E+03 -0.29566034510E+03  0.24486448142E+03  0.47804893657E+03  0.12500000000E+03 0.  0.
         21    1    1    2  503  502  0.23451573615E+03  0.39554763528E+03  0.76084545536E+03  0.88901145618E+03  0.00000000000E+00 0.  1.
          2    1    1    2  501    0  0.21476708726E+02 -0.99887290182E+02 -0.19266579320E+03  0.21807986525E+03  0.00000000000E+00 0. -1.
<mgrwt>
<rscale>  4 0.45159627E+03</rscale>
<asrwt>0</asrwt>
<pdfrwt beam="1">  1       21 0.18447572E+00 0.45159627E+03</pdfrwt>
<pdfrwt beam="2">  1        2 0.59392009E-01 0.45159627E+03</pdfrwt>
<totfact> 0.15242586E+02</totfact>
</mgrwt>
</event>
<event>
 5    0  0.1239749E+000  0.2629641E+03  0.7546771E-02  0.1105375E+00
         21   -1    0    0  501  502  0.00000000000E+00  0.00000000000E+00  0.36865656137E+03  0.36865656137E+03  0.00000000000E+00 0.  1.
          1   -1    0    0  503    0 -0.00000000000E+00 -0.00000000000E+00 -0.13241165945E+04  0.13241165945E+04  0.00000000000E+00 0. -1.
         25    1    1    2    0    0 -0.20275644673E+03 -0.11535118340E+03  0.26080124990E+03  0.37156205962E+03  0.12500000000E+03 0.  0.
         21    1    1    2  503  502  0.20935499679E+03  0.82072441400E+02 -0.19000195639E+03  0.29439114075E+03  0.00000000000E+00 0.  1.
          1    1    1    2  501    0 -0.65985500584E+01  0.33278742002E+02 -0.10262593266E+04  0.10268199555E+04  0.00000000000E+00 0. -1.
<mgrwt>
<rscale>  4 0.26296407E+03</rscale>
<asrwt>0</asrwt>
<pdfrwt beam="1">  1       21 0.56716395E-01 0.26296407E+03</pdfrwt>
<pdfrwt beam="2">  1        1 0.20371024E+00 0.26296407E+03</pdfrwt>
<totfact> 0.29680135E+02</totfact>
</mgrwt>
</event>
<event>
 5    0  0.1239749E+000  0.2798629E+03  0.7546771E-02  0.1095764E+00
         21   -1    0    0  501  502  0.00000000000E+00  0.00000000000E+00  0.13161306554E+03  0.13161306554E+03  0.00000000000E+00 0.  1.
          2   -1    0    0  503    0 -0.00000000000E+00 -0.00000000000E+00 -0.11642326483E+04  0.11642326483E+04  0.00000000000E+00 0. -1.
         25    1    1    2    0    0  0.52682543554E+02 -0.27602332357E+03 -0.18399208991E+03  0.35838863640E+03  0.12500000000E+03 0.  0.
         21    1    1    2  503  502 -0.15325359028E+03  0.16939711088E+03 -0.35178823395E+03  0.41944845411E+03  0.00000000000E+00 0.  1.
          2    1    1    2  501    0  0.10057104672E+03  0.10662621269E+03 -0.49683925887E+03  0.51800862332E+03  0.00000000000E+00 0. -1.
<mgrwt>
<rscale>  4 0.27986293E+03</rscale>
<asrwt>0</asrwt>
<pdfrwt beam="1">  1       21 0.20248165E-01 0.27986293E+03</pdfrwt>
<pdfrwt beam="2">  1        2 0.17911271E+00 0.27986293E+03</pdfrwt>
<totfact> 0.58594869E+03</totfact>
</mgrwt>
</event>
<event>
 5    0  0.1239749E+000  0.2437331E+03  0.7546771E-02  0.1117331E+00
         21   -1    0    0  501  502  0.00000000000E+00  0.00000000000E+00  0.88646511424E+03  0.88646511424E+03  0.00000000000E+00 0.  1.
          2   -1    0    0  503    0 -0.00000000000E+00 -0.00000000000E+00 -0.18208818140E+04  0.18208818140E+04  0.00000000000E+00 0.  1.
         25    1    1    2    0    0 -0.18914229745E+03  0.12404981002E+03  0.71108364039E+03  0.75658978825E+03  0.12500000000E+03 0.  0.
         21    1    1    2  503  502  0.15089983110E+03 -0.84490875722E+02  0.10306570904E+03  0.20132562551E+03  0.00000000000E+00 0. -1.
          2    1    1    2  501    0  0.38242466350E+02 -0.39558934298E+02 -0.17485660492E+04  0.17494315145E+04  0.00000000000E+00 0.  1.
<mgrwt>
<rscale>  4 0.24373307E+03</rscale>
<asrwt>0</asrwt>
<pdfrwt beam="1">  1       21 0.13637925E+00 0.24373307E+03</pdfrwt>
<pdfrwt beam="2">  1        2 0.28013566E+00 0.24373307E+03</pdfrwt>
<totfact> 0.43366193E+01</totfact>
</mgrwt>
</event>
<event>
 5    0  0.1239749E+000  0.3001367E+03  0.7546771E-02  0.1085172E+00
          2   -1    0    0  503    0 -0.00000000000E+00  0.00000000000E+00  0.24083253950E+04  0.24083253950E+04  0.00000000000E+00 0. -1.
         21   -1    0    0  501  502  0.00000000000E+00 -0.00000000000E+00 -0.87850245775E+03  0.87850245775E+03  0.00000000000E+00 0. -1.
         25    1    1    2    0    0  0.22755806212E+03  0.87226965777E+02 -0.26821135237E+03  0.38334520310E+03  0.12500000000E+03 0.  0.
         21    1    1    2  503  502 -0.27042134437E+03 -0.11153181016E+03 -0.51374083296E+03  0.59118245206E+03  0.00000000000E+00 0. -1.
          2    1    1    2  501    0  0.42863282246E+02  0.24304844385E+02  0.23117751226E+04  0.23123001976E+04  0.00000000000E+00 0. -1.
<mgrwt>
<rscale>  4 0.30013672E+03</rscale>
<asrwt>0</asrwt>
<pdfrwt beam="1">  1       21 0.13515423E+00 0.30013672E+03</pdfrwt>
<pdfrwt beam="2">  1        2 0.37051160E+00 0.30013672E+03</pdfrwt>
<totfact> 0.20635767E+01</totfact>
</mgrwt>
</event>
<event>
 5    0  0.1239749E+000  0.2441804E+03  0.7546771E-02  0.1117039E+00
          2   -1    0    0  503    0 -0.00000000000E+00  0.00000000000E+00  0.12910050712E+04  0.12910050712E+04  0.00000000000E+00 0. -1.
         21   -1    0    0  501  502  0.00000000000E+00 -0.00000000000E+00 -0.29700623820E+03  0.29700623820E+03  0.00000000000E+00 0. -1.
         25    1    1    2    0    0  0.15826812000E+03  0.13478565122E+03 -0.21549390423E+03  0.32446662747E+03  0.12500000000E+03 0.  0.
         21    1    1    2  503  502 -0.20365997946E+03 -0.11090382268E+03  0.48870181325E+03  0.54093114848E+03  0.00000000000E+00 0. -1.
          2    1    1    2  501    0  0.45391859463E+02 -0.23881828543E+02  0.72079092396E+03  0.72261353344E+03  0.00000000000E+00 0. -1.
<mgrwt>
<rscale>  4 0.24418037E+03</rscale>
<asrwt>0</asrwt>
<pdfrwt beam="1">  1       21 0.45693268E-01 0.24418037E+03</pdfrwt>
<pdfrwt beam="2">  1        2 0.19861616E+00 0.24418037E+03</pdfrwt>
<totfact> 0.10136915E+03</totfact>
</mgrwt>
</event>
<event>
 5    0  0.1239749E+000  0.2565953E+03  0.7546771E-02  0.1109206E+00
         21   -1    0    0  501  502  0.00000000000E+00  0.00000000000E+00  0.55538183434E+02  0.55538183434E+02  0.00000000000E+00 0. -1.
          1   -1    0    0  503    0 -0.00000000000E+00 -0.00000000000E+00 -0.17201309931E+04  0.17201309931E+04  0.00000000000E+00 0. -1.
         25    1    1    2    0    0  0.99594136150E+02  0.18352000679E+03 -0.43082766608E+03  0.49480911744E+03  0.12500000000E+03 0.  0.
         21    1    1    2  503  502 -0.12211710427E+03 -0.21338818397E+03 -0.63511052915E+03  0.68103780251E+03  0.00000000000E+00 0. -1.
          1    1    1    2  501    0  0.22522968119E+02  0.29868177179E+02 -0.59865461449E+03  0.59982225663E+03  0.00000000000E+00 0. -1.
<mgrwt>
<rscale>  4 0.25659527E+03</rscale>
<asrwt>0</asrwt>
<pdfrwt beam="1">  1       21 0.85443374E-02 0.25659527E+03</pdfrwt>
<pdfrwt beam="2">  1        1 0.26463549E+00 0.25659527E+03</pdfrwt>
<totfact> 0.61060171E+03</totfact>
</mgrwt>
</event>
<event>
 5    0  0.1239749E+000  0.2840579E+03  0.7546771E-02  0.1093493E+00
         21   -1    0    0  503  502  0.00000000000E+00  0.00000000000E+00  0.91466880830E+03  0.91466880830E+03  0.00000000000E+00 0.  1.
         -2   -1    0    0    0  501 -0.00000000000E+00 -0.00000000000E+00 -0.18927362391E+03  0.18927362391E+03  0.00000000000E+00 0.  1.
         25    1    1    2    0    0  0.25568242033E+03 -0.65459573505E+00  0.71793556358E+03  0.77228906636E+03  0.12500000000E+03 0.  0.
         21    1    1    2  503  501 -0.25223211416E+03  0.36549568308E+02  0.65658742061E+02  0.26318810909E+03  0.00000000000E+00 0.  1.
         -2    1    1    2    0  502 -0.34503061749E+01 -0.35894972573E+02 -0.58199121251E+02  0.68465256759E+02  0.00000000000E+00 0.  1.
<mgrwt>
<rscale>  4 0.28405790E+03</rscale>
<asrwt>0</asrwt>
<pdfrwt beam="1">  1       21 0.14071828E+00 0.28405790E+03</pdfrwt>
<pdfrwt beam="2">  1       -2 0.29119020E-01 0.28405790E+03</pdfrwt>
<totfact> 0.29209273E+02</totfact>
</mgrwt>
</event>
<event>
 5    0  0.1239749E+000  0.2594356E+03  0.7546771E-02  0.1107483E+00
         21   -1    0    0  501  502  0.00000000000E+00  0.00000000000E+00  0.50157981348E+02  0.50157981348E+02  0.00000000000E+00 0. -1.
          2   -1    0    0  503    0 -0.00000000000E+00 -0.00000000000E+00 -0.18950186713E+04  0.18950186713E+04  0.00000000000E+00 0. -1.
         25    1    1    2    0    0 -0.15021652038E+03 -0.14686838439E+03 -0.73824574729E+03  0.77766773671E+03  0.12500000000E+03 0.  0.
         21    1    1    2  503  502  0.21437840159E+03  0.11408615488E+03 -0.49183421044E+03  0.54852041016E+03  0.00000000000E+00 0. -1.
          2    1    1    2  501    0 -0.64161881205E+02  0.32782229512E+02 -0.61478073221E+03  0.61898850577E+03  0.00000000000E+00 0. -1.
<mgrwt>
<rscale>  4 0.25943563E+03</rscale>
<asrwt>0</asrwt>
<pdfrwt beam="1">  1       21 0.77166146E-02 0.25943563E+03</pdfrwt>
<pdfrwt beam="2">  1        2 0.29154126E+00 0.25943563E+03</pdfrwt>
<totfact> 0.13643990E+04</totfact>
</mgrwt>
</event>
<event>
 5    0  0.1239749E+000  0.2745538E+03  0.7546771E-02  0.1098701E+00
          2   -1    0    0  503    0 -0.00000000000E+00  0.00000000000E+00  0.87761488405E+03  0.87761488405E+03  0.00000000000E+00 0.  1.
         21   -1    0    0  501  502  0.00000000000E+00 -0.00000000000E+00 -0.14989479122E+03  0.14989479122E+03  0.00000000000E+00 0.  1.
         25    1    1    2    0    0 -0.22482254297E+03  0.21068416554E+02  0.44641873356E+03  0.51565854951E+03  0.12500000000E+03 0.  0.
         21    1    1    2  503  502  0.24142423536E+03 -0.67441033472E+02  0.26193500105E+02  0.25203185089E+03  0.00000000000E+00 0.  1.
          2    1    1    2  501    0 -0.16601692395E+02  0.46372616918E+02  0.25510785916E+03  0.25981927487E+03  0.00000000000E+00 0.  1.
<mgrwt>
<rscale>  4 0.27455376E+03</rscale>
<asrwt>0</asrwt>
<pdfrwt beam="1">  1       21 0.23060738E-01 0.27455376E+03</pdfrwt>
<pdfrwt beam="2">  1        2 0.13501767E+00 0.27455376E+03</pdfrwt>
<totfact> 0.68666336E+03</totfact>
</mgrwt>
</event>
<event>
 5    0  0.1239749E+000  0.2942504E+03  0.7546771E-02  0.1088151E+00
          2   -1    0    0  503    0 -0.00000000000E+00  0.00000000000E+00  0.16863921235E+04  0.16863921235E+04  0.00000000000E+00 0. -1.
         21   -1    0    0  501  502  0.00000000000E+00 -0.00000000000E+00 -0.39928141604E+03  0.39928141604E+03  0.00000000000E+00 0. -1.
         25    1    1    2    0    0 -0.18319084272E+03 -0.20543375922E+03 -0.29273341738E+03  0.42080846942E+03  0.12500000000E+03 0.  0.
         21    1    1    2  503  502  0.14370078684E+03  0.17292280678E+03  0.25877934277E+03  0.34281038707E+03  0.00000000000E+00 0. -1.
          2    1    1    2  501    0  0.39490055880E+02  0.32510952440E+02  0.13210647821E+04  0.13220546830E+04  0.00000000000E+00 0. -1.
<mgrwt>
<rscale>  4 0.29425044E+03</rscale>
<asrwt>0</asrwt>
<pdfrwt beam="1">  1       21 0.61427911E-01 0.29425044E+03</pdfrwt>
<pdfrwt beam="2">  1        2 0.25944494E+00 0.29425044E+03</pdfrwt>
<totfact> 0.32276015E+02</totfact>
</mgrwt>
</event>
<event>
 5    0  0.1239749E+000  0.3738253E+03  0.7546771E-02  0.1053240E+00
          2   -1    0    0  503    0 -0.00000000000E+00  0.00000000000E+00  0.16107568077E+04  0.16107568077E+04  0.00000000000E+00 0. -1.
         21   -1    0    0  501  502  0.00000000000E+00 -0.00000000000E+00 -0.22785595593E+04  0.22785595593E+04  0.00000000000E+00 0. -1.
         25    1    1    2    0    0 -0.22825863406E+03 -0.29680875121E+03 -0.15369056481E+04  0.15867896552E+04  0.12500000000E+03 0.  0.
         21    1    1    2  503  502  0.20187845664E+03  0.24900611357E+03 -0.68036313615E+03  0.75209903130E+03  0.00000000000E+00 0. -1.
          2    1    1    2  501    0  0.26380177423E+02  0.47802637648E+02  0.15494660327E+04  0.15504276804E+04  0.00000000000E+00 0. -1.
<mgrwt>
<rscale>  4 0.37382530E+03</rscale>
<asrwt>0</asrwt>
<pdfrwt beam="1">  1       21 0.35054762E+00 0.37382530E+03</pdfrwt>
<pdfrwt beam="2">  1        2 0.24780874E+00 0.37382530E+03</pdfrwt>
<totfact> 0.21036374E+00</totfact>
</mgrwt>
</event>
<event>
 5    0  0.1239749E+000  0.2758721E+03  0.7546771E-02  0.1097965E+00
         21   -1    0    0  501  502  0.00000000000E+00  0.00000000000E+00  0.90487812599E+02  0.90487812599E+02  0.00000000000E+00 0. -1.
          2   -1    0    0  503    0 -0.00000000000E+00 -0.00000000000E+00 -0.11300372604E+04  0.11300372604E+04  0.00000000000E+00 0.  1.
         25    1    1    2    0    0  0.24406025595E+03 -0.58749267371E+02 -0.21921474263E+03  0.35594520412E+03  0.12500000000E+03 0.  0.
         21    1    1    2  503  502 -0.23390424946E+03  0.23956187328E+02 -0.67446309058E+03  0.71427274719E+03  0.00000000000E+00 0.  1.
          2    1    1    2  501    0 -0.10156006490E+02  0.34793080043E+02 -0.14587161456E+03  0.15030712166E+03  0.00000000000E+00 0.  1.
<mgrwt>
<rscale>  4 0.27587214E+03</rscale>
<asrwt>0</asrwt>
<pdfrwt beam="1">  1       21 0.13921202E-01 0.27587214E+03</pdfrwt>
<pdfrwt beam="2">  1        2 0.17385189E+00 0.27587214E+03</pdfrwt>
<totfact> 0.12298294E+04</totfact>
</mgrwt>
</event>
<event>
 5    0  0.1239749E+000  0.6260738E+03  0.7546771E-02  0.9859547E-01
         21   -1    0    0  501  502  0.00000000000E+00  0.00000000000E+00  0.90857236366E+03  0.90857236366E+03  0.00000000000E+00 0. -1.
          2   -1    0    0  503    0 -0.00000000000E+00 -0.00000000000E+00 -0.76611417362E+03  0.76611417362E+03  0.00000000000E+00 0.  1.
         25    1    1    2    0    0  0.59949715353E+03  0.19770387792E+01  0.63193503191E+03  0.87998160794E+03  0.12500000000E+03 0.  0.
         21    1    1    2  503  502 -0.49776265480E+03 -0.58194882141E+01 -0.30444324156E+03  0.58351282273E+03  0.00000000000E+00 0.  1.
          2    1    1    2  501    0 -0.10173449873E+03  0.38424494348E+01 -0.18503360030E+03  0.21119210660E+03  0.00000000000E+00 0.  1.
<mgrwt>
<rscale>  4 0.62262529E+03</rscale>
<asrwt>0</asrwt>
<pdfrwt beam="1">  1       21 0.13978036E+00 0.62607375E+03</pdfrwt>
<pdfrwt beam="2">  1        2 0.11786372E+00 0.62607375E+03</pdfrwt>
<totfact> 0.14070294E+02</totfact>
</mgrwt>
</event>
<event>
 5    0  0.1239749E+000  0.2593764E+03  0.7546771E-02  0.1107518E+00
          4   -1    0    0  503    0 -0.00000000000E+00  0.00000000000E+00  0.73159864396E+03  0.73159864396E+03  0.00000000000E+00 0. -1.
         21   -1    0    0  501  502  0.00000000000E+00 -0.00000000000E+00 -0.21609725872E+03  0.21609725872E+03  0.00000000000E+00 0. -1.
         25    1    1    2    0    0 -0.44408982741E+02  0.22571962268E+03  0.22832574323E+02  0.26280759551E+03  0.12500000000E+03 0.  0.
         21    1    1    2  503  502 -0.12012830760E+02 -0.22769781479E+03  0.43427249827E+02  0.23211318143E+03  0.00000000000E+00 0. -1.
          4    1    1    2  501    0  0.56421813500E+02  0.19781921147E+01  0.44924156109E+03  0.45277512575E+03  0.00000000000E+00 0. -1.
<mgrwt>
<rscale>  4 0.25937637E+03</rscale>
<asrwt>0</asrwt>
<pdfrwt beam="1">  1       21 0.33245732E-01 0.25937637E+03</pdfrwt>
<pdfrwt beam="2">  1        4 0.11255364E+00 0.25937637E+03</pdfrwt>
<totfact> 0.23477972E+02</totfact>
</mgrwt>
</event>
<event>
 5    0  0.1239749E+000  0.2572938E+03  0.7546771E-02  0.1108780E+00
          2   -1    0    0  503    0 -0.00000000000E+00  0.00000000000E+00  0.40702313681E+03  0.40702313681E+03  0.00000000000E+00 0.  1.
         21   -1    0    0  501  502  0.00000000000E+00 -0.00000000000E+00 -0.22449695142E+03  0.22449695142E+03  0.00000000000E+00 0.  1.
         25    1    1    2    0    0  0.17099321106E+03 -0.13875144528E+03  0.13377239647E+02  0.25356378356E+03  0.12500000000E+03 0.  0.
         21    1    1    2  503  502 -0.12768286870E+03  0.19873635704E+03  0.56000530959E+02  0.24276555365E+03  0.00000000000E+00 0.  1.
          2    1    1    2  501    0 -0.43310342351E+02 -0.59984911762E+02  0.11314841478E+03  0.13519075102E+03  0.00000000000E+00 0.  1.
<mgrwt>
<rscale>  4 0.25729382E+03</rscale>
<asrwt>0</asrwt>
<pdfrwt beam="1">  1       21 0.34537993E-01 0.25729382E+03</pdfrwt>
<pdfrwt beam="2">  1        2 0.62618944E-01 0.25729382E+03</pdfrwt>
<totfact> 0.77697052E+03</totfact>
</mgrwt>
</event>
<event>
 5    0  0.1239749E+000  0.2241725E+03  0.7546771E-02  0.1130810E+00
          1   -1    0    0  503    0 -0.00000000000E+00  0.00000000000E+00  0.62067825196E+03  0.62067825196E+03  0.00000000000E+00 0. -1.
         21   -1    0    0  501  502  0.00000000000E+00 -0.00000000000E+00 -0.18154803438E+03  0.18154803438E+03  0.00000000000E+00 0.  1.
         25    1    1    2    0    0  0.14456655392E+03  0.14597381780E+03 -0.64014695417E+02  0.24885884598E+03  0.12500000000E+03 0.  0.
         21    1    1    2  503  502 -0.92098453335E+02 -0.10406725186E+03  0.20438699672E+03  0.24715614992E+03  0.00000000000E+00 0. -1.
          1    1    1    2  501    0 -0.52468100583E+02 -0.41906565943E+02  0.29875791628E+03  0.30621129043E+03  0.00000000000E+00 0. -1.
<mgrwt>
<rscale>  4 0.22417248E+03</rscale>
<asrwt>0</asrwt>
<pdfrwt beam="1">  1       21 0.27930467E-01 0.22417248E+03</pdfrwt>
<pdfrwt beam="2">  1        1 0.95488961E-01 0.22417248E+03</pdfrwt>
<totfact> 0.45118176E+03</totfact>
</mgrwt>
</event>
<event>
 5    0  0.1239749E+000  0.3369505E+03  0.7546771E-02  0.1068102E+00
          1   -1    0    0  503    0 -0.00000000000E+00  0.00000000000E+00  0.18695142685E+04  0.18695142685E+04  0.00000000000E+00 0.  1.
         21   -1    0    0  501  502  0.00000000000E+00 -0.00000000000E+00 -0.41413902364E+03  0.41413902364E+03  0.00000000000E+00 0.  1.
         25    1    1    2    0    0  0.18054972862E+03 -0.25539398032E+03 -0.30505883938E+03  0.45443391727E+03  0.12500000000E+03 0.  0.
         21    1    1    2  503  502 -0.22133598042E+03  0.22798870624E+03  0.71261885007E+03  0.78025258210E+03  0.00000000000E+00 0.  1.
          1    1    1    2  501    0  0.40786251806E+02  0.27405274085E+02  0.10478152342E+04  0.10489667928E+04  0.00000000000E+00 0.  1.
<mgrwt>
<rscale>  4 0.33695049E+03</rscale>
<asrwt>0</asrwt>
<pdfrwt beam="1">  1       21 0.63713697E-01 0.33695049E+03</pdfrwt>
<pdfrwt beam="2">  1        1 0.28761758E+00 0.33695049E+03</pdfrwt>
<totfact> 0.96356815E+01</totfact>
</mgrwt>
</event>
<event>
 5    0  0.1239749E+000  0.1971797E+03  0.7546771E-02  0.1152141E+00
          2   -1    0    0  503    0 -0.00000000000E+00  0.00000000000E+00  0.42709895558E+03  0.42709895558E+03  0.00000000000E+00 0. -1.
         21   -1    0    0  501  502  0.00000000000E+00 -0.00000000000E+00 -0.69279390948E+03  0.69279390948E+03  0.00000000000E+00 0.  1.
         25    1    1    2    0    0  0.12332149799E+03 -0.21116868185E+03 -0.24527401437E+03  0.36821834037E+03  0.12500000000E+03 0.  0.
         21    1    1    2  503  502 -0.12322505870E+02  0.13658985615E+03 -0.36079071999E+03  0.38597743015E+03  0.00000000000E+00 0.  1.
          2    1    1    2  501    0 -0.11099899212E+03  0.74578825703E+02  0.34036978047E+03  0.36569709454E+03  0.00000000000E+00 0. -1.
<mgrwt>
<rscale>  4 0.19717973E+03</rscale>
<asrwt>0</asrwt>
<pdfrwt beam="1">  1       21 0.10658368E+00 0.19717973E+03</pdfrwt>
<pdfrwt beam="2">  1        2 0.65707531E-01 0.19717973E+03</pdfrwt>
<totfact> 0.65158517E+02</totfact>
</mgrwt>
</event>
<event>
 5    0  0.1239749E+000  0.3769002E+03  0.7546771E-02  0.1052085E+00
          1   -1    0    0  503    0 -0.00000000000E+00  0.00000000000E+00  0.52338585758E+03  0.52338585758E+03  0.00000000000E+00 0.  1.
         21   -1    0    0  501  502  0.00000000000E+00 -0.00000000000E+00 -0.67590561705E+03  0.67590561705E+03  0.00000000000E+00 0.  1.
         25    1    1    2    0    0 -0.15526295124E+03 -0.29242838695E+03 -0.14587996792E+03  0.38278833650E+03  0.12500000000E+03 0.  0.
         21    1    1    2  503  502  0.20598791869E+03  0.31201317214E+03 -0.32387018548E+03  0.49464647910E+03  0.00000000000E+00 0.  1.
          1    1    1    2  501    0 -0.50724967455E+02 -0.19584785196E+02  0.31723039393E+03  0.32185665904E+03  0.00000000000E+00 0.  1.
<mgrwt>
<rscale>  4 0.37690021E+03</rscale>
<asrwt>0</asrwt>
<pdfrwt beam="1">  1       21 0.10398548E+00 0.37690021E+03</pdfrwt>
<pdfrwt beam="2">  1        1 0.80520901E-01 0.37690021E+03</pdfrwt>
<totfact> 0.32130345E+02</totfact>
</mgrwt>
</event>
<event>
 5    0  0.1239749E+000  0.2651187E+03  0.7546771E-02  0.1104106E+00
         21   -1    0    0  501  502  0.00000000000E+00  0.00000000000E+00  0.28695125204E+03  0.28695125204E+03  0.00000000000E+00 0.  1.
          2   -1    0    0  503    0 -0.00000000000E+00 -0.00000000000E+00 -0.74807626500E+03  0.74807626500E+03  0.00000000000E+00 0.  1.
         25    1    1    2    0    0 -0.10614141114E+03 -0.22728107938E+03 -0.18046281634E+03  0.33333844105E+03  0.12500000000E+03 0.  0.
         21    1    1    2  503  502  0.12135935404E+03  0.19533377153E+03  0.14676052672E+03  0.27280400898E+03  0.00000000000E+00 0.  1.
          2    1    1    2  501    0 -0.15217942897E+02  0.31947307851E+02 -0.42742272335E+03  0.42888506700E+03  0.00000000000E+00 0.  1.
<mgrwt>
<rscale>  4 0.26511874E+03</rscale>
<asrwt>0</asrwt>
<pdfrwt beam="1">  1       21 0.44146347E-01 0.26511874E+03</pdfrwt>
<pdfrwt beam="2">  1        2 0.11508865E+00 0.26511874E+03</pdfrwt>
<totfact> 0.23356446E+03</totfact>
</mgrwt>
</event>
<event>
 5    0  0.1239749E+000  0.2208453E+03  0.7546771E-02  0.1133254E+00
         21   -1    0    0  501  502  0.00000000000E+00  0.00000000000E+00  0.51483656058E+03  0.51483656058E+03  0.00000000000E+00 0.  1.
          1   -1    0    0  503    0 -0.00000000000E+00 -0.00000000000E+00 -0.92160355538E+03  0.92160355538E+03  0.00000000000E+00 0.  1.
         25    1    1    2    0    0  0.30035029925E+03 -0.68154189926E+02  0.32687553407E+03  0.46618441699E+03  0.12500000000E+03 0.  0.
         21    1    1    2  503  502 -0.12334960783E+03  0.97448249185E+02  0.51077364699E+02  0.16528818532E+03  0.00000000000E+00 0.  1.
          1    1    1    2  501    0 -0.17700069142E+03 -0.29294059259E+02 -0.78471989357E+03  0.80496751366E+03  0.00000000000E+00 0.  1.
<mgrwt>
<rscale>  4 0.22084530E+03</rscale>
<asrwt>0</asrwt>
<pdfrwt beam="1">  1       21 0.79205625E-01 0.22084530E+03</pdfrwt>
<pdfrwt beam="2">  1        1 0.14178516E+00 0.22084530E+03</pdfrwt>
<totfact> 0.28407886E+02</totfact>
</mgrwt>
</event>
<event>
 5    0  0.1239749E+000  0.2492601E+03  0.7546771E-02  0.1113773E+00
         21   -1    0    0  501  502  0.00000000000E+00  0.00000000000E+00  0.18737867403E+03  0.18737867403E+03  0.00000000000E+00 0. -1.
          2   -1    0    0  503    0 -0.00000000000E+00 -0.00000000000E+00 -0.20368174515E+04  0.20368174515E+04  0.00000000000E+00 0. -1.
         25    1    1    2    0    0  0.23089092055E+03  0.88491314694E+02  0.59592381449E+02  0.28340356719E+03  0.12500000000E+03 0.  0.
         21    1    1    2  503  502 -0.10164023527E+03 -0.81729179207E+02 -0.30718316770E+03  0.33372427942E+03  0.00000000000E+00 0. -1.
          2    1    1    2  501    0 -0.12925068528E+03 -0.67621354873E+01 -0.16018479912E+04  0.16070682789E+04  0.00000000000E+00 0. -1.
<mgrwt>
<rscale>  4 0.24926012E+03</rscale>
<asrwt>0</asrwt>
<pdfrwt beam="1">  1       21 0.28827489E-01 0.24926012E+03</pdfrwt>
<pdfrwt beam="2">  1        2 0.31335653E+00 0.24926012E+03</pdfrwt>
<totfact> 0.10244995E+03</totfact>
</mgrwt>
</event>
<event>
 5    0  0.1239749E+000  0.2871609E+03  0.7546771E-02  0.1091841E+00
          1   -1    0    0  503    0 -0.00000000000E+00  0.00000000000E+00  0.23196653162E+04  0.23196653162E+04  0.00000000000E+00 0. -1.
         21   -1    0    0  501  502  0.00000000000E+00 -0.00000000000E+00 -0.29050167583E+03  0.29050167583E+03  0.00000000000E+00 0.  1.
         25    1    1    2    0    0 -0.18098055533E+03 -0.20067858949E+03 -0.16909470247E+03  0.34240893109E+03  0.12500000000E+03 0.  0.
         21    1    1    2  503  502  0.88271253811E+02  0.20092886580E+03  0.32472212804E+03  0.39192943727E+03  0.00000000000E+00 0.  1.
          1    1    1    2  501    0  0.92709301515E+02 -0.25027630258E+00  0.18735362148E+04  0.18758286237E+04  0.00000000000E+00 0. -1.
<mgrwt>
<rscale>  4 0.28716089E+03</rscale>
<asrwt>0</asrwt>
<pdfrwt beam="1">  1       21 0.44692567E-01 0.28716089E+03</pdfrwt>
<pdfrwt beam="2">  1        1 0.35687158E+00 0.28716089E+03</pdfrwt>
<totfact> 0.10718510E+02</totfact>
</mgrwt>
</event>
<event>
 5    0  0.1239749E+000  0.2780906E+03  0.7546771E-02  0.1099626E+00
         21   -1    0    0  501  502  0.00000000000E+00  0.00000000000E+00  0.82261707214E+03  0.82261707214E+03  0.00000000000E+00 0.  1.
          2   -1    0    0  503    0 -0.00000000000E+00 -0.00000000000E+00 -0.60951798187E+03  0.60951798187E+03  0.00000000000E+00 0. -1.
         25    1    1    2    0    0 -0.21372864839E+03 -0.72286331391E+02 -0.21987248816E+02  0.25887002136E+03  0.12500000000E+03 0.  0.
         21    1    1    2  503  502  0.11325302299E+03  0.33185571849E+03  0.61163104174E+03  0.70501560006E+03  0.00000000000E+00 0.  1.
          2    1    1    2  501    0  0.10047562540E+03 -0.25956938710E+03 -0.37654470265E+03  0.46824943259E+03  0.00000000000E+00 0. -1.
<mgrwt>
<rscale>  4 0.27290856E+03</rscale>
<asrwt>0</asrwt>
<pdfrwt beam="1">  1       21 0.12655647E+00 0.27809059E+03</pdfrwt>
<pdfrwt beam="2">  1        2 0.93771997E-01 0.27809059E+03</pdfrwt>
<totfact> 0.27289535E+02</totfact>
</mgrwt>
</event>
<event>
 5    0  0.1239749E+000  0.2377184E+03  0.7546771E-02  0.1121322E+00
          2   -1    0    0  503    0 -0.00000000000E+00  0.00000000000E+00  0.85160302624E+03  0.85160302624E+03  0.00000000000E+00 0.  1.
         21   -1    0    0  501  502  0.00000000000E+00 -0.00000000000E+00 -0.82732075073E+03  0.82732075073E+03  0.00000000000E+00 0.  1.
         25    1    1    2    0    0 -0.22696882777E+03  0.14283430412E+03  0.80597802655E+02  0.30665533259E+03  0.12500000000E+03 0.  0.
         21    1    1    2  503  502  0.14794170204E+03 -0.13122378949E+03 -0.69808143531E+03  0.72555090825E+03  0.00000000000E+00 0.  1.
          2    1    1    2  501    0  0.79027125722E+02 -0.11610514629E+02  0.64176590817E+03  0.64671753613E+03  0.00000000000E+00 0.  1.
<mgrwt>
<rscale>  4 0.23771838E+03</rscale>
<asrwt>0</asrwt>
<pdfrwt beam="1">  1       21 0.12728012E+00 0.23771838E+03</pdfrwt>
<pdfrwt beam="2">  1        2 0.13101585E+00 0.23771838E+03</pdfrwt>
<totfact> 0.18247545E+02</totfact>
</mgrwt>
</event>
<event>
 5    0  0.1239749E+000  0.3550035E+03  0.7546771E-02  0.1060580E+00
         21   -1    0    0  501  502  0.00000000000E+00  0.00000000000E+00  0.26637700345E+03  0.26637700345E+03  0.00000000000E+00 0.  1.
          1   -1    0    0  503    0 -0.00000000000E+00 -0.00000000000E+00 -0.29653528922E+04  0.29653528922E+04  0.00000000000E+00 0.  1.
         25    1    1    2    0    0  0.17428066292E+03 -0.30803359863E+03  0.68978826507E+02  0.38163009035E+03  0.12500000000E+03 0.  0.
         21    1    1    2  503  502  0.22243539583E+02  0.29179300229E+03 -0.54658293760E+03  0.61999261198E+03  0.00000000000E+00 0.  1.
          1    1    1    2  501    0 -0.19652420250E+03  0.16240596340E+02 -0.22213717777E+04  0.22301071933E+04  0.00000000000E+00 0.  1.
<mgrwt>
<rscale>  4 0.35500348E+03</rscale>
<asrwt>0</asrwt>
<pdfrwt beam="1">  1       21 0.40981079E-01 0.35500348E+03</pdfrwt>
<pdfrwt beam="2">  1        1 0.45620812E+00 0.35500348E+03</pdfrwt>
<totfact> 0.44953386E+01</totfact>
</mgrwt>
</event>
<event>
 5    0  0.1239749E+000  0.2449816E+03  0.7546771E-02  0.1116518E+00
         21   -1    0    0  501  502  0.00000000000E+00  0.00000000000E+00  0.20050325180E+03  0.20050325180E+03  0.00000000000E+00 0. -1.
          1   -1    0    0  503    0 -0.00000000000E+00 -0.00000000000E+00 -0.10603052944E+04  0.10603052944E+04  0.00000000000E+00 0.  1.
         25    1    1    2    0    0 -0.18395771633E+03  0.79573719013E+02 -0.42077685669E+03  0.48254593696E+03  0.12500000000E+03 0.  0.
         21    1    1    2  503  502  0.18529474502E+03 -0.10369897048E+03  0.10278944032E+03  0.23590949123E+03  0.00000000000E+00 0. -1.
          1    1    1    2  501    0 -0.13370286903E+01  0.24125251463E+02 -0.54181462620E+03  0.54235311797E+03  0.00000000000E+00 0.  1.
<mgrwt>
<rscale>  4 0.24498155E+03</rscale>
<asrwt>0</asrwt>
<pdfrwt beam="1">  1       21 0.30846654E-01 0.24498155E+03</pdfrwt>
<pdfrwt beam="2">  1        1 0.16312389E+00 0.24498155E+03</pdfrwt>
<totfact> 0.15981648E+03</totfact>
</mgrwt>
</event>
<event>
 5    0  0.1239749E+000  0.5701502E+03  0.7546771E-02  0.9969346E-01
         21   -1    0    0  501  502  0.00000000000E+00  0.00000000000E+00  0.52494659556E+03  0.52494659556E+03  0.00000000000E+00 0. -1.
          2   -1    0    0  503    0 -0.00000000000E+00 -0.00000000000E+00 -0.27405634820E+04  0.27405634820E+04  0.00000000000E+00 0.  1.
         25    1    1    2    0    0  0.20499971832E+03  0.27407857662E+03  0.26567363802E+03  0.45094504390E+03  0.12500000000E+03 0.  0.
         21    1    1    2  503  502  0.25563085977E+03  0.73814215256E+02  0.96346075651E+00  0.26607631067E+03  0.00000000000E+00 0. -1.
          2    1    1    2  501    0 -0.46063057809E+03 -0.34789279188E+03 -0.24822539852E+04  0.25484887230E+04  0.00000000000E+00 0.  1.
<mgrwt>
<rscale>  4 0.57015020E+03</rscale>
<asrwt>0</asrwt>
<pdfrwt beam="1">  1       21 0.80761014E-01 0.57015020E+03</pdfrwt>
<pdfrwt beam="2">  1        2 0.42162515E+00 0.57015020E+03</pdfrwt>
<totfact> 0.41085436E+01</totfact>
</mgrwt>
</event>
<event>
 5    0  0.1239749E+000  0.4625565E+03  0.7546771E-02  0.1024042E+00
         21   -1    0    0  503  502  0.00000000000E+00  0.00000000000E+00  0.66251167772E+03  0.66251167772E+03  0.00000000000E+00 0.  1.
         -1   -1    0    0    0  501 -0.00000000000E+00 -0.00000000000E+00 -0.18974385871E+04  0.18974385871E+04  0.00000000000E+00 0.  1.
         25    1    1    2    0    0 -0.25995130754E+03 -0.36707693637E+03  0.53609029051E+03  0.71087126759E+03  0.12500000000E+03 0.  0.
         21    1    1    2  503  501  0.17772213066E+03  0.35303239255E+03 -0.10274975798E+04  0.11008943193E+04  0.00000000000E+00 0.  1.
         -1    1    1    2    0  502  0.82229176880E+02  0.14044543827E+02 -0.74351962014E+03  0.74818467792E+03  0.00000000000E+00 0.  1.
<mgrwt>
<rscale>  4 0.46255650E+03</rscale>
<asrwt>0</asrwt>
<pdfrwt beam="1">  1       21 0.10192487E+00 0.46255650E+03</pdfrwt>
<pdfrwt beam="2">  1       -1 0.29191363E+00 0.46255650E+03</pdfrwt>
<totfact> 0.27115781E+00</totfact>
</mgrwt>
</event>
<event>
 5    0  0.1239749E+000  0.2998182E+03  0.7546771E-02  0.1085332E+00
         21   -1    0    0  503  502  0.00000000000E+00  0.00000000000E+00  0.51873005904E+03  0.51873005904E+03  0.00000000000E+00 0.  1.
         -3   -1    0    0    0  501 -0.00000000000E+00 -0.00000000000E+00 -0.27079880228E+03  0.27079880228E+03  0.00000000000E+00 0.  1.
         25    1    1    2    0    0  0.21310648727E+03 -0.21055621329E+03  0.29937165633E+03  0.44158428696E+03  0.12500000000E+03 0.  0.
         21    1    1    2  503  501 -0.10351381973E+03  0.20881764874E+03 -0.20026092746E+02  0.23392512839E+03  0.00000000000E+00 0.  1.
         -3    1    1    2    0  502 -0.10959266755E+03  0.17385645545E+01 -0.31414306829E+02  0.11401944597E+03  0.00000000000E+00 0.  1.
<mgrwt>
<rscale>  4 0.29981820E+03</rscale>
<asrwt>0</asrwt>
<pdfrwt beam="1">  1       21 0.79804624E-01 0.29981820E+03</pdfrwt>
<pdfrwt beam="2">  1       -3 0.41661354E-01 0.29981820E+03</pdfrwt>
<totfact> 0.38271404E+02</totfact>
</mgrwt>
</event>
<event>
 5    0  0.1239749E+000  0.3717091E+03  0.7546771E-02  0.1054041E+00
          1   -1    0    0  503    0 -0.00000000000E+00  0.00000000000E+00  0.11796440909E+04  0.11796440909E+04  0.00000000000E+00 0. -1.
         21   -1    0    0  501  502  0.00000000000E+00 -0.00000000000E+00 -0.72161271416E+03  0.72161271416E+03  0.00000000000E+00 0. -1.
         25    1    1    2    0    0 -0.21540872591E+03  0.34823998697E+03  0.26909128957E+03  0.50567492508E+03  0.12500000000E+03 0.  0.
         21    1    1    2  503  502  0.19872204801E+03 -0.27916428428E+03 -0.55282846511E+03  0.65041714446E+03  0.00000000000E+00 0. -1.
          1    1    1    2  501    0  0.16686677905E+02 -0.69075702691E+02  0.74176855229E+03  0.74516473554E+03  0.00000000000E+00 0. -1.
<mgrwt>
<rscale>  4 0.37170912E+03</rscale>
<asrwt>0</asrwt>
<pdfrwt beam="1">  1       21 0.11101734E+00 0.37170912E+03</pdfrwt>
<pdfrwt beam="2">  1        1 0.18148371E+00 0.37170912E+03</pdfrwt>
<totfact> 0.75766420E+01</totfact>
</mgrwt>
</event>
<event>
 5    0  0.1239749E+000  0.2558121E+03  0.7546771E-02  0.1109686E+00
          2   -1    0    0  503    0 -0.00000000000E+00  0.00000000000E+00  0.57369206797E+03  0.57369206797E+03  0.00000000000E+00 0. -1.
         21   -1    0    0  501  502  0.00000000000E+00 -0.00000000000E+00 -0.21541118659E+03  0.21541118659E+03  0.00000000000E+00 0. -1.
         25    1    1    2    0    0  0.20716576043E+03  0.11838507849E+03  0.22239635730E+03  0.34931049060E+03  0.12500000000E+03 0.  0.
         21    1    1    2  503  502 -0.21789669607E+03 -0.20356913521E+02  0.21990120703E+03  0.31024170406E+03  0.00000000000E+00 0. -1.
          2    1    1    2  501    0  0.10730935646E+02 -0.98028164974E+02 -0.84016682942E+02  0.12955105990E+03  0.00000000000E+00 0. -1.
<mgrwt>
<rscale>  4 0.25581209E+03</rscale>
<asrwt>0</asrwt>
<pdfrwt beam="1">  1       21 0.33140183E-01 0.25581209E+03</pdfrwt>
<pdfrwt beam="2">  1        2 0.88260317E-01 0.25581209E+03</pdfrwt>
<totfact> 0.57467984E+03</totfact>
</mgrwt>
</event>
<event>
 5    0  0.1239749E+000  0.2320026E+03  0.7546771E-02  0.1125238E+00
         21   -1    0    0  501  502  0.00000000000E+00  0.00000000000E+00  0.76776862352E+03  0.76776862352E+03  0.00000000000E+00 0.  1.
          2   -1    0    0  503    0 -0.00000000000E+00 -0.00000000000E+00 -0.11701931934E+03  0.11701931934E+03  0.00000000000E+00 0.  1.
         25    1    1    2    0    0  0.47900118247E+02 -0.19950024903E+03  0.59185118464E+03  0.63875472245E+03  0.12500000000E+03 0.  0.
         21    1    1    2  503  502 -0.36550367853E+01  0.17491296979E+03  0.78496174852E+02  0.19175389373E+03  0.00000000000E+00 0.  1.
          2    1    1    2  501    0 -0.44245081461E+02  0.24587279239E+02 -0.19598055311E+02  0.54279326690E+02  0.00000000000E+00 0.  1.
<mgrwt>
<rscale>  4 0.23200264E+03</rscale>
<asrwt>0</asrwt>
<pdfrwt beam="1">  1       21 0.11811825E+00 0.23200264E+03</pdfrwt>
<pdfrwt beam="2">  1        2 0.18002973E-01 0.23200264E+03</pdfrwt>
<totfact> 0.20712678E+03</totfact>
</mgrwt>
</event>
<event>
 5    0  0.1239749E+000  0.2421191E+03  0.7546771E-02  0.1118389E+00
         21   -1    0    0  501  502  0.00000000000E+00  0.00000000000E+00  0.16184522427E+04  0.16184522427E+04  0.00000000000E+00 0. -1.
          1   -1    0    0  503    0 -0.00000000000E+00 -0.00000000000E+00 -0.18016961746E+03  0.18016961746E+03  0.00000000000E+00 0. -1.
         25    1    1    2    0    0 -0.42031658825E+02  0.21334343702E+03  0.12165422607E+04  0.12421280749E+04  0.12500000000E+03 0.  0.
         21    1    1    2  503  502  0.39163692533E+02 -0.18507442060E+03  0.36464337767E+03  0.41079329213E+03  0.00000000000E+00 0. -1.
          1    1    1    2  501    0  0.28679662916E+01 -0.28269016417E+02 -0.14290301314E+03  0.14570049308E+03  0.00000000000E+00 0. -1.
<mgrwt>
<rscale>  4 0.24211912E+03</rscale>
<asrwt>0</asrwt>
<pdfrwt beam="1">  1       21 0.24899264E+00 0.24211912E+03</pdfrwt>
<pdfrwt beam="2">  1        1 0.27718404E-01 0.24211912E+03</pdfrwt>
<totfact> 0.11692070E+02</totfact>
</mgrwt>
</event>
<event>
 5    0  0.1239749E+000  0.2522566E+03  0.7546771E-02  0.1111887E+00
          3   -1    0    0  503    0 -0.00000000000E+00  0.00000000000E+00  0.23942102171E+03  0.23942102171E+03  0.00000000000E+00 0. -1.
         21   -1    0    0  501  502  0.00000000000E+00 -0.00000000000E+00 -0.46051196908E+03  0.46051196908E+03  0.00000000000E+00 0. -1.
         25    1    1    2    0    0 -0.13822902301E+03 -0.17000333806E+03 -0.35211334194E+03  0.43314801549E+03  0.12500000000E+03 0.  0.
         21    1    1    2  503  502  0.87036840570E+02  0.14133146786E+03  0.12503224948E+03  0.20780533880E+03  0.00000000000E+00 0. -1.
          3    1    1    2  501    0  0.51192182439E+02  0.28671870202E+02  0.59901450810E+01  0.58979636502E+02  0.00000000000E+00 0. -1.
<mgrwt>
<rscale>  4 0.25225661E+03</rscale>
<asrwt>0</asrwt>
<pdfrwt beam="1">  1       21 0.70847994E-01 0.25225661E+03</pdfrwt>
<pdfrwt beam="2">  1        3 0.36834004E-01 0.25225661E+03</pdfrwt>
<totfact> 0.64163846E+02</totfact>
</mgrwt>
</event>
<event>
 5    0  0.1239749E+000  0.2384256E+03  0.7546771E-02  0.1120846E+00
         -1   -1    0    0    0  501 -0.00000000000E+00  0.00000000000E+00  0.20097421117E+03  0.20097421117E+03  0.00000000000E+00 0. -1.
         21   -1    0    0  503  502  0.00000000000E+00 -0.00000000000E+00 -0.54571582807E+03  0.54571582807E+03  0.00000000000E+00 0. -1.
         25    1    1    2    0    0 -0.21900631451E+03  0.12359585578E+02 -0.22248195401E+03  0.33651113654E+03  0.12500000000E+03 0.  0.
         21    1    1    2  503  501  0.53108396696E+02 -0.15332861939E+03 -0.37476378764E+01  0.16230900194E+03  0.00000000000E+00 0. -1.
         -1    1    1    2    0  502  0.16589791782E+03  0.14096903381E+03 -0.11851202501E+03  0.24786990076E+03  0.00000000000E+00 0. -1.
<mgrwt>
<rscale>  4 0.23842560E+03</rscale>
<asrwt>0</asrwt>
<pdfrwt beam="1">  1       21 0.83956280E-01 0.23842560E+03</pdfrwt>
<pdfrwt beam="2">  1       -1 0.30919110E-01 0.23842560E+03</pdfrwt>
<totfact> 0.10746564E+03</totfact>
</mgrwt>
</event>
<event>
 5    0  0.1239749E+000  0.3054435E+03  0.7546771E-02  0.1082551E+00
         21   -1    0    0  501  502  0.00000000000E+00  0.00000000000E+00  0.49406883132E+03  0.49406883132E+03  0.00000000000E+00 0. -1.
          2   -1    0    0  503    0 -0.00000000000E+00 -0.00000000000E+00 -0.25805523476E+04  0.25805523476E+04  0.00000000000E+00 0.  1.
         25    1    1    2    0    0 -0.20570071873E+03  0.88358409816E+02  0.98511632421E+02  0.27468078927E+03  0.12500000000E+03 0.  0.
         21    1    1    2  503  502  0.32713473360E+03 -0.86768268652E+02  0.21233263134E+03  0.39953849966E+03  0.00000000000E+00 0. -1.
          2    1    1    2  501    0 -0.12143401488E+03 -0.15901411646E+01 -0.23973277801E+04  0.24004018900E+04  0.00000000000E+00 0.  1.
<mgrwt>
<rscale>  4 0.30544353E+03</rscale>
<asrwt>0</asrwt>
<pdfrwt beam="1">  1       21 0.76010590E-01 0.30544353E+03</pdfrwt>
<pdfrwt beam="2">  1        2 0.39700805E+00 0.30544353E+03</pdfrwt>
<totfact> 0.66328037E+01</totfact>
</mgrwt>
</event>
<event>
 5    0  0.1239749E+000  0.3071167E+03  0.7546771E-02  0.1081736E+00
          2   -1    0    0  503    0 -0.00000000000E+00  0.00000000000E+00  0.11216803743E+04  0.11216803743E+04  0.00000000000E+00 0.  1.
         21   -1    0    0  501  502  0.00000000000E+00 -0.00000000000E+00 -0.11088452712E+03  0.11088452712E+03  0.00000000000E+00 0.  1.
         25    1    1    2    0    0  0.10880577737E+03  0.25856713065E+03  0.19376330937E+03  0.36313203976E+03  0.12500000000E+03 0.  0.
         21    1    1    2  503  502 -0.67143610088E+02 -0.11551495168E+03  0.25373944374E+03  0.28676763023E+03  0.00000000000E+00 0.  1.
          2    1    1    2  501    0 -0.41662167280E+02 -0.14305217897E+03  0.56329309406E+03  0.58266523142E+03  0.00000000000E+00 0.  1.
<mgrwt>
<rscale>  4 0.30711669E+03</rscale>
<asrwt>0</asrwt>
<pdfrwt beam="1">  1       21 0.17059159E-01 0.30711669E+03</pdfrwt>
<pdfrwt beam="2">  1        2 0.17256620E+00 0.30711669E+03</pdfrwt>
<totfact> 0.84921207E+03</totfact>
</mgrwt>
</event>
<event>
 5    0  0.1239749E+000  0.2347076E+03  0.7546771E-02  0.1123370E+00
         21   -1    0    0  501  502  0.00000000000E+00  0.00000000000E+00  0.11505533390E+03  0.11505533390E+03  0.00000000000E+00 0. -1.
          2   -1    0    0  503    0 -0.00000000000E+00 -0.00000000000E+00 -0.11894784476E+04  0.11894784476E+04  0.00000000000E+00 0.  1.
         25    1    1    2    0    0 -0.12545515411E+03 -0.17993902760E+03 -0.10806717285E+03  0.27462804517E+03  0.12500000000E+03 0.  0.
         21    1    1    2  503  502  0.14482151087E+03  0.10152328885E+03 -0.23507540609E+03  0.29417799839E+03  0.00000000000E+00 0. -1.
          2    1    1    2  501    0 -0.19366356752E+02  0.78415738756E+02 -0.73128053480E+03  0.73572773798E+03  0.00000000000E+00 0.  1.
<mgrwt>
<rscale>  4 0.23470761E+03</rscale>
<asrwt>0</asrwt>
<pdfrwt beam="1">  1       21 0.17700821E-01 0.23470761E+03</pdfrwt>
<pdfrwt beam="2">  1        2 0.18299668E+00 0.23470761E+03</pdfrwt>
<totfact> 0.73877674E+03</totfact>
</mgrwt>
</event>
<event>
 5    0  0.1239749E+000  0.2896406E+03  0.7546771E-02  0.1090537E+00
          1   -1    0    0  503    0 -0.00000000000E+00  0.00000000000E+00  0.45906981358E+03  0.45906981358E+03  0.00000000000E+00 0. -1.
         21   -1    0    0  501  502  0.00000000000E+00 -0.00000000000E+00 -0.59752324618E+03  0.59752324618E+03  0.00000000000E+00 0.  1.
         25    1    1    2    0    0  0.26827340180E+03  0.33936306060E+02 -0.36061549268E+03  0.46775081458E+03  0.12500000000E+03 0.  0.
         21    1    1    2  503  502 -0.24272282037E+03 -0.47705680020E+02 -0.98948504478E+02  0.26642260785E+03  0.00000000000E+00 0.  1.
          1    1    1    2  501    0 -0.25550581431E+02  0.13769373960E+02  0.32111056456E+03  0.32241963734E+03  0.00000000000E+00 0. -1.
<mgrwt>
<rscale>  4 0.28964064E+03</rscale>
<asrwt>0</asrwt>
<pdfrwt beam="1">  1       21 0.91926653E-01 0.28964064E+03</pdfrwt>
<pdfrwt beam="2">  1        1 0.70626126E-01 0.28964064E+03</pdfrwt>
<totfact> 0.53164910E+02</totfact>
</mgrwt>
</event>
<event>
 5    0  0.1239749E+000  0.3249678E+03  0.7546771E-02  0.1073385E+00
          2   -1    0    0  503    0 -0.00000000000E+00  0.00000000000E+00  0.14333558209E+04  0.14333558209E+04  0.00000000000E+00 0.  1.
         21   -1    0    0  501  502  0.00000000000E+00 -0.00000000000E+00 -0.15836084181E+03  0.15836084181E+03  0.00000000000E+00 0.  1.
         25    1    1    2    0    0 -0.40522237236E+02  0.32338641316E+03  0.11603934121E+03  0.36784637097E+03  0.12500000000E+03 0.  0.
         21    1    1    2  503  502  0.14487167783E+02 -0.24577996778E+03  0.47483686455E+03  0.53487168417E+03  0.00000000000E+00 0.  1.
          2    1    1    2  501    0  0.26035069453E+02 -0.77606445380E+02  0.68411877338E+03  0.68899860761E+03  0.00000000000E+00 0.  1.
<mgrwt>
<rscale>  4 0.32496778E+03</rscale>
<asrwt>0</asrwt>
<pdfrwt beam="1">  1       21 0.24363207E-01 0.32496778E+03</pdfrwt>
<pdfrwt beam="2">  1        2 0.22051627E+00 0.32496778E+03</pdfrwt>
<totfact> 0.28733791E+03</totfact>
</mgrwt>
</event>
<event>
 5    0  0.1239749E+000  0.2188817E+03  0.7546771E-02  0.1134720E+00
         21   -1    0    0  501  502  0.00000000000E+00  0.00000000000E+00  0.13192954808E+04  0.13192954808E+04  0.00000000000E+00 0. -1.
          2   -1    0    0  503    0 -0.00000000000E+00 -0.00000000000E+00 -0.50335583653E+03  0.50335583653E+03  0.00000000000E+00 0.  1.
         25    1    1    2    0    0 -0.22600191355E+03 -0.18552094978E+03  0.31641375716E+03  0.44859508853E+03  0.12500000000E+03 0.  0.
         21    1    1    2  503  502  0.90980678258E+02  0.14125696547E+03  0.91741305616E+03  0.93267235926E+03  0.00000000000E+00 0. -1.
          2    1    1    2  501    0  0.13502123530E+03  0.44263984309E+02 -0.41788716902E+03  0.44138386958E+03  0.00000000000E+00 0.  1.
<mgrwt>
<rscale>  4 0.21888173E+03</rscale>
<asrwt>0</asrwt>
<pdfrwt beam="1">  1       21 0.20296853E+00 0.21888173E+03</pdfrwt>
<pdfrwt beam="2">  1        2 0.77439360E-01 0.21888173E+03</pdfrwt>
<totfact> 0.97040237E+01</totfact>
</mgrwt>
</event>
<event>
 5    0  0.1239749E+000  0.2555474E+03  0.7546771E-02  0.1109848E+00
          2   -1    0    0  503    0 -0.00000000000E+00  0.00000000000E+00  0.22352266027E+04  0.22352266027E+04  0.00000000000E+00 0.  1.
         21   -1    0    0  501  502  0.00000000000E+00 -0.00000000000E+00 -0.27030469077E+03  0.27030469077E+03  0.00000000000E+00 0.  1.
         25    1    1    2    0    0  0.19049910904E+03  0.11350234882E+03 -0.16471301436E+03  0.30319642285E+03  0.12500000000E+03 0.  0.
         21    1    1    2  503  502 -0.18019929795E+03 -0.14414736158E+03  0.33149827164E+03  0.40390760445E+03  0.00000000000E+00 0.  1.
          2    1    1    2  501    0 -0.10299811089E+02  0.30645012762E+02  0.17981366546E+04  0.17984272662E+04  0.00000000000E+00 0.  1.
<mgrwt>
<rscale>  4 0.25554740E+03</rscale>
<asrwt>0</asrwt>
<pdfrwt beam="1">  1       21 0.41585339E-01 0.25554740E+03</pdfrwt>
<pdfrwt beam="2">  1        2 0.34388100E+00 0.25554740E+03</pdfrwt>
<totfact> 0.38575420E+02</totfact>
</mgrwt>
</event>
<event>
 5    0  0.1239749E+000  0.2269642E+03  0.7546771E-02  0.1128795E+00
          1   -1    0    0  503    0 -0.00000000000E+00  0.00000000000E+00  0.23993854629E+03  0.23993854629E+03  0.00000000000E+00 0.  1.
         21   -1    0    0  501  502  0.00000000000E+00 -0.00000000000E+00 -0.11079010808E+04  0.11079010808E+04  0.00000000000E+00 0. -1.
         25    1    1    2    0    0 -0.72986123753E+02 -0.20103297522E+03 -0.90163761409E+03  0.93504899258E+03  0.12500000000E+03 0.  0.
         21    1    1    2  503  502 -0.44879026781E-02  0.15009017753E+03 -0.14780973237E+03  0.21065321834E+03  0.00000000000E+00 0. -1.
          1    1    1    2  501    0  0.72990611656E+02  0.50942797687E+02  0.18148481198E+03  0.20213741615E+03  0.00000000000E+00 0.  1.
<mgrwt>
<rscale>  4 0.22696424E+03</rscale>
<asrwt>0</asrwt>
<pdfrwt beam="1">  1       21 0.17044632E+00 0.22696424E+03</pdfrwt>
<pdfrwt beam="2">  1        1 0.36913623E-01 0.22696424E+03</pdfrwt>
<totfact> 0.26178385E+02</totfact>
</mgrwt>
</event>
<event>
 5    0  0.1239749E+000  0.1885881E+03  0.7546771E-02  0.1159741E+00
          2   -1    0    0  503    0 -0.00000000000E+00  0.00000000000E+00  0.73718214453E+03  0.73718214453E+03  0.00000000000E+00 0.  1.
         21   -1    0    0  501  502  0.00000000000E+00 -0.00000000000E+00 -0.12858051146E+04  0.12858051146E+04  0.00000000000E+00 0. -1.
         25    1    1    2    0    0  0.16187359152E+03 -0.19762489027E+03 -0.11064470228E+04  0.11424135290E+04  0.12500000000E+03 0.  0.
         21    1    1    2  503  502 -0.11263752950E+03  0.65958866222E+02 -0.12661456242E+03  0.18184892769E+03  0.00000000000E+00 0. -1.
          2    1    1    2  501    0 -0.49236062017E+02  0.13166602405E+03  0.68443861515E+03  0.69872480248E+03  0.00000000000E+00 0.  1.
<mgrwt>
<rscale>  4 0.18858810E+03</rscale>
<asrwt>0</asrwt>
<pdfrwt beam="1">  1       21 0.19781617E+00 0.18858810E+03</pdfrwt>
<pdfrwt beam="2">  1        2 0.11341264E+00 0.18858810E+03</pdfrwt>
<totfact> 0.69196020E+01</totfact>
</mgrwt>
</event>
<event>
 5    0  0.1239749E+000  0.3527089E+03  0.7546771E-02  0.1061509E+00
         21   -1    0    0  501  502  0.00000000000E+00  0.00000000000E+00  0.24401829011E+03  0.24401829011E+03  0.00000000000E+00 0.  1.
          1   -1    0    0  503    0 -0.00000000000E+00 -0.00000000000E+00 -0.99550558970E+03  0.99550558970E+03  0.00000000000E+00 0.  1.
         25    1    1    2    0    0  0.27636328607E+03  0.16140993608E+03 -0.50633465151E+03  0.61190653917E+03  0.12500000000E+03 0.  0.
         21    1    1    2  503  502 -0.27455734695E+03 -0.18757618049E+03  0.45649842130E+02  0.33563442663E+03  0.00000000000E+00 0.  1.
          1    1    1    2  501    0 -0.18059391262E+01  0.26166244410E+02 -0.29080249021E+03  0.29198291401E+03  0.00000000000E+00 0.  1.
<mgrwt>
<rscale>  4 0.35270886E+03</rscale>
<asrwt>0</asrwt>
<pdfrwt beam="1">  1       21 0.37541275E-01 0.35270886E+03</pdfrwt>
<pdfrwt beam="2">  1        1 0.15315471E+00 0.35270886E+03</pdfrwt>
<totfact> 0.11604426E+03</totfact>
</mgrwt>
</event>
<event>
 5    0  0.1239749E+000  0.2719632E+03  0.7546771E-02  0.1100161E+00
         21   -1    0    0  501  502  0.00000000000E+00  0.00000000000E+00  0.32299206023E+03  0.32299206023E+03  0.00000000000E+00 0.  1.
          2   -1    0    0  503    0 -0.00000000000E+00 -0.00000000000E+00 -0.22262284175E+04  0.22262284175E+04  0.00000000000E+00 0.  1.
         25    1    1    2    0    0  0.97254778597E+02 -0.21608116618E+03  0.20412423098E+03  0.33681042741E+03  0.12500000000E+03 0.  0.
         21    1    1    2  503  502 -0.78584426784E+02  0.25482362081E+03 -0.28783706925E+03  0.39237834839E+03  0.00000000000E+00 0.  1.
          2    1    1    2  501    0 -0.18670351813E+02 -0.38742454622E+02 -0.18195235190E+04  0.18200317019E+04  0.00000000000E+00 0.  1.
<mgrwt>
<rscale>  4 0.27196317E+03</rscale>
<asrwt>0</asrwt>
<pdfrwt beam="1">  1       21 0.49691088E-01 0.27196317E+03</pdfrwt>
<pdfrwt beam="2">  1        2 0.34249667E+00 0.27196317E+03</pdfrwt>
<totfact> 0.26683165E+02</totfact>
</mgrwt>
</event>
<event>
 5    0  0.1239749E+000  0.2538930E+03  0.7546771E-02  0.1110869E+00
         -1   -1    0    0    0  501 -0.00000000000E+00  0.00000000000E+00  0.31951788894E+03  0.31951788894E+03  0.00000000000E+00 0.  1.
         21   -1    0    0  503  502  0.00000000000E+00 -0.00000000000E+00 -0.50899209835E+03  0.50899209835E+03  0.00000000000E+00 0.  1.
         25    1    1    2    0    0  0.75872023460E+01 -0.23118303981E+03 -0.37877198711E+03  0.46108175171E+03  0.12500000000E+03 0.  0.
         21    1    1    2  503  501 -0.52173038545E+02  0.18915712752E+03  0.32251779059E+02  0.19885326775E+03  0.00000000000E+00 0.  1.
         -1    1    1    2    0  502  0.44585836199E+02  0.42025912292E+02  0.15704599863E+03  0.16857496783E+03  0.00000000000E+00 0.  1.
<mgrwt>
<rscale>  4 0.25389300E+03</rscale>
<asrwt>0</asrwt>
<pdfrwt beam="1">  1       21 0.78306476E-01 0.25389300E+03</pdfrwt>
<pdfrwt beam="2">  1       -1 0.49156599E-01 0.25389300E+03</pdfrwt>
<totfact> 0.55059214E+02</totfact>
</mgrwt>
</event>
<event>
 5    0  0.1239749E+000  0.2902275E+03  0.7546771E-02  0.1090230E+00
         21   -1    0    0  501  502  0.00000000000E+00  0.00000000000E+00  0.34967647308E+03  0.34967647308E+03  0.00000000000E+00 0. -1.
          1   -1    0    0  503    0 -0.00000000000E+00 -0.00000000000E+00 -0.38889712064E+03  0.38889712064E+03  0.00000000000E+00 0.  1.
         25    1    1    2    0    0  0.21327751885E+03  0.58643761751E+02  0.29878563110E+02  0.25582048271E+03  0.12500000000E+03 0.  0.
         21    1    1    2  503  502 -0.30144932579E+03 -0.52519921964E+02  0.73767994960E+02  0.31475666046E+03  0.00000000000E+00 0. -1.
          1    1    1    2  501    0  0.88171806939E+02 -0.61238397870E+01 -0.14286720563E+03  0.16799645055E+03  0.00000000000E+00 0.  1.
<mgrwt>
<rscale>  4 0.29022753E+03</rscale>
<asrwt>0</asrwt>
<pdfrwt beam="1">  1       21 0.53796381E-01 0.29022753E+03</pdfrwt>
<pdfrwt beam="2">  1        1 0.59830326E-01 0.29022753E+03</pdfrwt>
<totfact> 0.21829483E+03</totfact>
</mgrwt>
</event>
<event>
 5    0  0.1239749E+000  0.3229746E+03  0.7546771E-02  0.1074288E+00
         21   -1    0    0  501  502  0.00000000000E+00  0.00000000000E+00  0.14899172998E+04  0.14899172998E+04  0.00000000000E+00 0.  1.
          1   -1    0    0  503    0 -0.00000000000E+00 -0.00000000000E+00 -0.85364579903E+03  0.85364579903E+03  0.00000000000E+00 0. -1.
         25    1    1    2    0    0 -0.12276337245E+03  0.18752379384E+03  0.25605045042E+02  0.25790819530E+03  0.12500000000E+03 0.  0.
         21    1    1    2  503  502  0.16400859063E+03 -0.26196104575E+03  0.13278986081E+04  0.13633917708E+04  0.00000000000E+00 0.  1.
          1    1    1    2  501    0 -0.41245218177E+02  0.74437251906E+02 -0.71723215237E+03  0.72226313273E+03  0.00000000000E+00 0. -1.
<mgrwt>
<rscale>  4 0.32297463E+03</rscale>
<asrwt>0</asrwt>
<pdfrwt beam="1">  1       21 0.22921805E+00 0.32297463E+03</pdfrwt>
<pdfrwt beam="2">  1        1 0.13133012E+00 0.32297463E+03</pdfrwt>
<totfact> 0.18160108E+01</totfact>
</mgrwt>
</event>
<event>
 5    0  0.1239749E+000  0.2786276E+03  0.7546771E-02  0.1096441E+00
         21   -1    0    0  501  502  0.00000000000E+00  0.00000000000E+00  0.14153779671E+03  0.14153779671E+03  0.00000000000E+00 0. -1.
          2   -1    0    0  503    0 -0.00000000000E+00 -0.00000000000E+00 -0.72771004994E+03  0.72771004994E+03  0.00000000000E+00 0. -1.
         25    1    1    2    0    0  0.18379034397E+03 -0.15482280315E+03 -0.11054616261E+03  0.29256528328E+03  0.12500000000E+03 0.  0.
         21    1    1    2  503  502 -0.18750553390E+03  0.18743561605E+03 -0.31033769679E+03  0.40816653642E+03  0.00000000000E+00 0. -1.
          2    1    1    2  501    0  0.37151899256E+01 -0.32612812903E+02 -0.16528839383E+03  0.16851602695E+03  0.00000000000E+00 0. -1.
<mgrwt>
<rscale>  4 0.27862765E+03</rscale>
<asrwt>0</asrwt>
<pdfrwt beam="1">  1       21 0.21775046E-01 0.27862765E+03</pdfrwt>
<pdfrwt beam="2">  1        2 0.11195539E+00 0.27862765E+03</pdfrwt>
<totfact> 0.97265646E+03</totfact>
</mgrwt>
</event>
<event>
 5    0  0.1239749E+000  0.2450223E+03  0.7546771E-02  0.1116492E+00
          2   -1    0    0  503    0 -0.00000000000E+00  0.00000000000E+00  0.64752560426E+03  0.64752560426E+03  0.00000000000E+00 0.  1.
         21   -1    0    0  501  502  0.00000000000E+00 -0.00000000000E+00 -0.17414266286E+03  0.17414266286E+03  0.00000000000E+00 0.  1.
         25    1    1    2    0    0 -0.17173281360E+03  0.13574905407E+03 -0.40988819566E+02  0.25539195030E+03  0.12500000000E+03 0.  0.
         21    1    1    2  503  502  0.15640268451E+03 -0.97400813858E+02  0.33617766318E+03  0.38335902166E+03  0.00000000000E+00 0.  1.
          2    1    1    2  501    0  0.15330129085E+02 -0.38348240208E+02  0.17819409778E+03  0.18291729516E+03  0.00000000000E+00 0.  1.
<mgrwt>
<rscale>  4 0.24502233E+03</rscale>
<asrwt>0</asrwt>
<pdfrwt beam="1">  1       21 0.26791179E-01 0.24502233E+03</pdfrwt>
<pdfrwt beam="2">  1        2 0.99619323E-01 0.24502233E+03</pdfrwt>
<totfact> 0.75881499E+03</totfact>
</mgrwt>
</event>
<event>
 5    0  0.1239749E+000  0.2686966E+03  0.7546771E-02  0.1102028E+00
         21   -1    0    0  501  502  0.00000000000E+00  0.00000000000E+00  0.19653125787E+03  0.19653125787E+03  0.00000000000E+00 0. -1.
          2   -1    0    0  503    0 -0.00000000000E+00 -0.00000000000E+00 -0.80349433478E+03  0.80349433478E+03  0.00000000000E+00 0. -1.
         25    1    1    2    0    0  0.23587713326E+03 -0.56333432292E+02  0.39898501399E+02  0.27573242102E+03  0.12500000000E+03 0.  0.
         21    1    1    2  503  502 -0.74125363814E+01  0.91569335547E+02 -0.14349732170E+03  0.17038594497E+03  0.00000000000E+00 0. -1.
          2    1    1    2  501    0 -0.22846459688E+03 -0.35235903255E+02 -0.50336425662E+03  0.55390722666E+03  0.00000000000E+00 0. -1.
<mgrwt>
<rscale>  4 0.26869664E+03</rscale>
<asrwt>0</asrwt>
<pdfrwt beam="1">  1       21 0.30235578E-01 0.26869664E+03</pdfrwt>
<pdfrwt beam="2">  1        2 0.12361451E+00 0.26869664E+03</pdfrwt>
<totfact> 0.45663356E+03</totfact>
</mgrwt>
</event>
<event>
 5    0  0.1239749E+000  0.2342404E+03  0.7546771E-02  0.1123690E+00
         21   -1    0    0  503  502  0.00000000000E+00  0.00000000000E+00  0.17655000559E+04  0.17655000559E+04  0.00000000000E+00 0. -1.
         -2   -1    0    0    0  501 -0.00000000000E+00 -0.00000000000E+00 -0.82364356861E+02  0.82364356861E+02  0.00000000000E+00 0. -1.
         25    1    1    2    0    0  0.11255137673E+03 -0.17043945315E+03  0.14276155461E+04  0.14475595211E+04  0.12500000000E+03 0.  0.
         21    1    1    2  503  501 -0.83148964127E+02  0.16298803535E+03  0.29704836996E+03  0.34887903921E+03  0.00000000000E+00 0. -1.
         -2    1    1    2    0  502 -0.29402412600E+02  0.74514178047E+01 -0.41528217023E+02  0.51425852478E+02  0.00000000000E+00 0. -1.
<mgrwt>
<rscale>  4 0.23424040E+03</rscale>
<asrwt>0</asrwt>
<pdfrwt beam="1">  1       21 0.27161537E+00 0.23424040E+03</pdfrwt>
<pdfrwt beam="2">  1       -2 0.12671441E-01 0.23424040E+03</pdfrwt>
<totfact> 0.17115156E+02</totfact>
</mgrwt>
</event>
<event>
 5    0  0.1239749E+000  0.1999698E+03  0.7546771E-02  0.1149764E+00
          2   -1    0    0  503    0 -0.00000000000E+00  0.00000000000E+00  0.22859060223E+04  0.22859060223E+04  0.00000000000E+00 0.  1.
         21   -1    0    0  501  502  0.00000000000E+00 -0.00000000000E+00 -0.60043675887E+02  0.60043675887E+02  0.00000000000E+00 0.  1.
         25    1    1    2    0    0  0.20829337995E+03  0.58557891156E+02  0.59353247545E+03  0.64398832144E+03  0.12500000000E+03 0.  0.
         21    1    1    2  503  502 -0.14208563026E+03 -0.82990379227E+01  0.11670207575E+03  0.18405590140E+03  0.00000000000E+00 0.  1.
          2    1    1    2  501    0 -0.66207749693E+02 -0.50258853234E+02  0.15156277952E+04  0.15179054754E+04  0.00000000000E+00 0.  1.
<mgrwt>
<rscale>  4 0.19996981E+03</rscale>
<asrwt>0</asrwt>
<pdfrwt beam="1">  1       21 0.92374903E-02 0.19996981E+03</pdfrwt>
<pdfrwt beam="2">  1        2 0.35167778E+00 0.19996981E+03</pdfrwt>
<totfact> 0.63465891E+03</totfact>
</mgrwt>
</event>
<event>
 5    0  0.1239749E+000  0.2484003E+03  0.7546771E-02  0.1114320E+00
          2   -1    0    0  503    0 -0.00000000000E+00  0.00000000000E+00  0.35116156030E+04  0.35116156030E+04  0.00000000000E+00 0.  1.
         21   -1    0    0  501  502  0.00000000000E+00 -0.00000000000E+00 -0.62334414404E+02  0.62334414404E+02  0.00000000000E+00 0.  1.
         25    1    1    2    0    0 -0.87444725021E+02  0.19193760806E+03  0.22190197713E+03  0.33068430985E+03  0.12500000000E+03 0.  0.
         21    1    1    2  503  502  0.99655416799E+02 -0.21784719249E+03  0.18324721208E+04  0.18480645754E+04  0.00000000000E+00 0.  1.
          2    1    1    2  501    0 -0.12210691778E+02  0.25909584430E+02  0.13949070907E+04  0.13952011322E+04  0.00000000000E+00 0.  1.
<mgrwt>
<rscale>  4 0.24840032E+03</rscale>
<asrwt>0</asrwt>
<pdfrwt beam="1">  1       21 0.95899127E-02 0.24840032E+03</pdfrwt>
<pdfrwt beam="2">  1        2 0.54024840E+00 0.24840032E+03</pdfrwt>
<totfact> 0.11111023E+03</totfact>
</mgrwt>
</event>
<event>
 5    0  0.1239749E+000  0.5517167E+03  0.7546771E-02  0.1001268E+00
         21   -1    0    0  501  502  0.00000000000E+00  0.00000000000E+00  0.24803805108E+03  0.24803805108E+03  0.00000000000E+00 0. -1.
          2   -1    0    0  503    0 -0.00000000000E+00 -0.00000000000E+00 -0.19943766292E+04  0.19943766292E+04  0.00000000000E+00 0. -1.
         25    1    1    2    0    0 -0.41872800623E+03 -0.33193981846E+03 -0.17337668875E+03  0.57550122717E+03  0.12500000000E+03 0.  0.
         21    1    1    2  503  502  0.28056825989E+03  0.21084831426E+03 -0.82167841472E+03  0.89349369181E+03  0.00000000000E+00 0. -1.
          2    1    1    2  501    0  0.13815974634E+03  0.12109150419E+03 -0.75128347466E+03  0.77341976131E+03  0.00000000000E+00 0. -1.
<mgrwt>
<rscale>  4 0.55097712E+03</rscale>
<asrwt>0</asrwt>
<pdfrwt beam="1">  1       21 0.38159702E-01 0.55171673E+03</pdfrwt>
<pdfrwt beam="2">  1        2 0.30682716E+00 0.55171673E+03</pdfrwt>
<totfact> 0.55047816E+02</totfact>
</mgrwt>
</event>
<event>
 5    0  0.1239749E+000  0.3164012E+03  0.7546771E-02  0.1077318E+00
         21   -1    0    0  501  502  0.00000000000E+00  0.00000000000E+00  0.10317559323E+03  0.10317559323E+03  0.00000000000E+00 0.  1.
          2   -1    0    0  503    0 -0.00000000000E+00 -0.00000000000E+00 -0.21892335882E+04  0.21892335882E+04  0.00000000000E+00 0.  1.
         25    1    1    2    0    0 -0.22766581172E+03  0.16411714380E+03 -0.38378645669E+03  0.49161285892E+03  0.12500000000E+03 0.  0.
         21    1    1    2  503  502  0.23936649570E+03 -0.18294956116E+03 -0.41235495152E+03  0.51068920807E+03  0.00000000000E+00 0.  1.
          2    1    1    2  501    0 -0.11700683980E+02  0.18832417360E+02 -0.12899165868E+04  0.12901071145E+04  0.00000000000E+00 0.  1.
<mgrwt>
<rscale>  4 0.31640124E+03</rscale>
<asrwt>0</asrwt>
<pdfrwt beam="1">  1       21 0.15873169E-01 0.31640124E+03</pdfrwt>
<pdfrwt beam="2">  1        2 0.33680516E+00 0.31640124E+03</pdfrwt>
<totfact> 0.25599242E+03</totfact>
</mgrwt>
</event>
<event>
 5    0  0.1239749E+000  0.2615500E+03  0.7546771E-02  0.1106216E+00
         21   -1    0    0  501  502  0.00000000000E+00  0.00000000000E+00  0.39496325993E+03  0.39496325993E+03  0.00000000000E+00 0. -1.
          2   -1    0    0  503    0 -0.00000000000E+00 -0.00000000000E+00 -0.16260390856E+04  0.16260390856E+04  0.00000000000E+00 0. -1.
         25    1    1    2    0    0  0.87929272240E+02  0.18345805849E+03  0.10539446901E+03  0.26100078590E+03  0.12500000000E+03 0.  0.
         21    1    1    2  503  502 -0.17104412662E+03 -0.19755618379E+03  0.12947766690E+03  0.29163162591E+03  0.00000000000E+00 0. -1.
          2    1    1    2  501    0  0.83114854384E+02  0.14098125292E+02 -0.14659479616E+04  0.14683699337E+04  0.00000000000E+00 0. -1.
<mgrwt>
<rscale>  4 0.26155003E+03</rscale>
<asrwt>0</asrwt>
<pdfrwt beam="1">  1       21 0.60763579E-01 0.26155003E+03</pdfrwt>
<pdfrwt beam="2">  1        2 0.25015986E+00 0.26155003E+03</pdfrwt>
<totfact> 0.36230009E+02</totfact>
</mgrwt>
</event>
<event>
 5    0  0.1239749E+000  0.2480387E+03  0.7546771E-02  0.1114551E+00
         -3   -1    0    0    0  501 -0.00000000000E+00  0.00000000000E+00  0.14341548897E+03  0.14341548897E+03  0.00000000000E+00 0. -1.
         21   -1    0    0  503  502  0.00000000000E+00 -0.00000000000E+00 -0.10693513632E+04  0.10693513632E+04  0.00000000000E+00 0. -1.
         25    1    1    2    0    0  0.16312912476E+03  0.14263076019E+03 -0.89465964529E+03  0.92897552498E+03  0.12500000000E+03 0.  0.
         21    1    1    2  503  501 -0.13490810912E+03 -0.15560363207E+03 -0.84147831011E+02  0.22247144914E+03  0.00000000000E+00 0. -1.
         -3    1    1    2    0  502 -0.28221015638E+02  0.12972871885E+02  0.52871602112E+02  0.61319878005E+02  0.00000000000E+00 0. -1.
<mgrwt>
<rscale>  4 0.24803868E+03</rscale>
<asrwt>0</asrwt>
<pdfrwt beam="1">  1       21 0.16451560E+00 0.24803868E+03</pdfrwt>
<pdfrwt beam="2">  1       -3 0.22063921E-01 0.24803868E+03</pdfrwt>
<totfact> 0.21205622E+02</totfact>
</mgrwt>
</event>
<event>
 5    0  0.1239749E+000  0.3345392E+03  0.7546771E-02  0.1069146E+00
          2   -1    0    0  503    0 -0.00000000000E+00  0.00000000000E+00  0.70618785323E+03  0.70618785323E+03  0.00000000000E+00 0. -1.
         21   -1    0    0  501  502  0.00000000000E+00 -0.00000000000E+00 -0.47509027856E+03  0.47509027856E+03  0.00000000000E+00 0.  1.
         25    1    1    2    0    0  0.19203961839E+03 -0.20707228689E+03 -0.10805491875E+03  0.32719873547E+03  0.12500000000E+03 0.  0.
         21    1    1    2  503  502 -0.25616830939E+03  0.22357790280E+03 -0.14193991664E+03  0.36845111113E+03  0.00000000000E+00 0.  1.
          2    1    1    2  501    0  0.64128691009E+02 -0.16505615908E+02  0.48109241006E+03  0.48562828519E+03  0.00000000000E+00 0. -1.
<mgrwt>
<rscale>  4 0.33453915E+03</rscale>
<asrwt>0</asrwt>
<pdfrwt beam="1">  1       21 0.73090812E-01 0.33453915E+03</pdfrwt>
<pdfrwt beam="2">  1        2 0.10864428E+00 0.33453915E+03</pdfrwt>
<totfact> 0.82712835E+02</totfact>
</mgrwt>
</event>
<event>
 5    0  0.1239749E+000  0.2572926E+03  0.7546771E-02  0.1108781E+00
         21   -1    0    0  501  502  0.00000000000E+00  0.00000000000E+00  0.13302923382E+03  0.13302923382E+03  0.00000000000E+00 0.  1.
          2   -1    0    0  503    0 -0.00000000000E+00 -0.00000000000E+00 -0.16141013722E+04  0.16141013722E+04  0.00000000000E+00 0.  1.
         25    1    1    2    0    0  0.13140562329E+03  0.18932919010E+03 -0.23103840244E+03  0.34945203312E+03  0.12500000000E+03 0.  0.
         21    1    1    2  503  502 -0.10909912670E+03 -0.19338391195E+03 -0.93494881922E+02  0.24091751658E+03  0.00000000000E+00 0.  1.
          2    1    1    2  501    0 -0.22306496588E+02  0.40547218546E+01 -0.11565388540E+04  0.11567610563E+04  0.00000000000E+00 0.  1.
<mgrwt>
<rscale>  4 0.25729258E+03</rscale>
<asrwt>0</asrwt>
<pdfrwt beam="1">  1       21 0.20466037E-01 0.25729258E+03</pdfrwt>
<pdfrwt beam="2">  1        2 0.24832327E+00 0.25729258E+03</pdfrwt>
<totfact> 0.32809380E+03</totfact>
</mgrwt>
</event>
<event>
 5    0  0.1239749E+000  0.3117953E+03  0.7546771E-02  0.1079489E+00
         21   -1    0    0  503  502  0.00000000000E+00  0.00000000000E+00  0.55291025055E+02  0.55291025055E+02  0.00000000000E+00 0.  1.
         -1   -1    0    0    0  501 -0.00000000000E+00 -0.00000000000E+00 -0.21725000390E+04  0.21725000390E+04  0.00000000000E+00 0.  1.
         25    1    1    2    0    0  0.22242031206E+03 -0.16109704992E+03 -0.64077301856E+03  0.70826415696E+03  0.12500000000E+03 0.  0.
         21    1    1    2  503  501 -0.22434949929E+03  0.20896388584E+03 -0.11766521839E+04  0.12159395401E+04  0.00000000000E+00 0.  1.
         -1    1    1    2    0  502  0.19291872281E+01 -0.47866835916E+02 -0.29978381150E+03  0.30358736697E+03  0.00000000000E+00 0.  1.
<mgrwt>
<rscale>  4 0.31179532E+03</rscale>
<asrwt>0</asrwt>
<pdfrwt beam="1">  1       21 0.85063129E-02 0.31179532E+03</pdfrwt>
<pdfrwt beam="2">  1       -1 0.33423072E+00 0.31179532E+03</pdfrwt>
<totfact> 0.23232300E+02</totfact>
</mgrwt>
</event>
<event>
 5    0  0.1239749E+000  0.3413413E+03  0.7546771E-02  0.1066226E+00
         -2   -1    0    0    0  501 -0.00000000000E+00  0.00000000000E+00  0.46566434847E+03  0.46566434847E+03  0.00000000000E+00 0.  1.
         21   -1    0    0  503  502  0.00000000000E+00 -0.00000000000E+00 -0.14946682872E+04  0.14946682872E+04  0.00000000000E+00 0.  1.
         25    1    1    2    0    0 -0.28614162753E+03 -0.14036384280E+03 -0.13968736967E+04  0.14382142274E+04  0.12500000000E+03 0.  0.
         21    1    1    2  503  501  0.24929119087E+03  0.16193711073E+03  0.37530720391E+03  0.47877471005E+03  0.00000000000E+00 0.  1.
         -2    1    1    2    0  502  0.36850436660E+02 -0.21573267931E+02 -0.74374458999E+01  0.43343698189E+02  0.00000000000E+00 0.  1.
<mgrwt>
<rscale>  4 0.34134130E+03</rscale>
<asrwt>0</asrwt>
<pdfrwt beam="1">  1       21 0.22994897E+00 0.34134130E+03</pdfrwt>
<pdfrwt beam="2">  1       -2 0.71640669E-01 0.34134130E+03</pdfrwt>
<totfact> 0.11489100E+01</totfact>
</mgrwt>
</event>
<event>
 5    0  0.1239749E+000  0.2762474E+03  0.7546771E-02  0.1097756E+00
          1   -1    0    0  503    0 -0.00000000000E+00  0.00000000000E+00  0.28409972365E+04  0.28409972365E+04  0.00000000000E+00 0. -1.
         21   -1    0    0  501  502  0.00000000000E+00 -0.00000000000E+00 -0.39840086902E+03  0.39840086902E+03  0.00000000000E+00 0. -1.
         25    1    1    2    0    0 -0.25871869809E+03 -0.17849873659E+02 -0.29200925910E+03  0.41005900811E+03  0.12500000000E+03 0.  0.
         21    1    1    2  503  502  0.19264666088E+03  0.64587815718E+02  0.17415135254E+03  0.26760608266E+03  0.00000000000E+00 0. -1.
          1    1    1    2  501    0  0.66072037219E+02 -0.46737942058E+02  0.25604542741E+04  0.25617330147E+04  0.00000000000E+00 0. -1.
<mgrwt>
<rscale>  4 0.27624745E+03</rscale>
<asrwt>0</asrwt>
<pdfrwt beam="1">  1       21 0.61292443E-01 0.27624745E+03</pdfrwt>
<pdfrwt beam="2">  1        1 0.43707648E+00 0.27624745E+03</pdfrwt>
<totfact> 0.24698379E+01</totfact>
</mgrwt>
</event>
<event>
 5    0  0.1239749E+000  0.3919746E+03  0.7546771E-02  0.1046595E+00
         21   -1    0    0  501  502  0.00000000000E+00  0.00000000000E+00  0.11113023399E+04  0.11113023399E+04  0.00000000000E+00 0. -1.
          1   -1    0    0  503    0 -0.00000000000E+00 -0.00000000000E+00 -0.56222211749E+03  0.56222211749E+03  0.00000000000E+00 0. -1.
         25    1    1    2    0    0 -0.37037286442E+03  0.25726001496E+02  0.96917488563E+03  0.10453529762E+04  0.12500000000E+03 0.  0.
         21    1    1    2  503  502 -0.78812527673E+01 -0.74362372283E+02 -0.24515562182E+02  0.78694913087E+02  0.00000000000E+00 0. -1.
          1    1    1    2  501    0  0.37825411718E+03  0.48636370787E+02 -0.39557910105E+03  0.54947656812E+03  0.00000000000E+00 0. -1.
<mgrwt>
<rscale>  4 0.39197459E+03</rscale>
<asrwt>0</asrwt>
<pdfrwt beam="1">  1       21 0.17096959E+00 0.39197459E+03</pdfrwt>
<pdfrwt beam="2">  1        1 0.86495711E-01 0.39197459E+03</pdfrwt>
<totfact> 0.78861578E+01</totfact>
</mgrwt>
</event>
<event>
 5    0  0.1239749E+000  0.4060354E+03  0.7546771E-02  0.1041710E+00
          2   -1    0    0  503    0 -0.00000000000E+00  0.00000000000E+00  0.18490496164E+04  0.18490496164E+04  0.00000000000E+00 0.  1.
         21   -1    0    0  501  502  0.00000000000E+00 -0.00000000000E+00 -0.24287914438E+03  0.24287914438E+03  0.00000000000E+00 0.  1.
         25    1    1    2    0    0  0.14246598164E+03 -0.41810423518E+03  0.14093927243E+03  0.48020473333E+03  0.12500000000E+03 0.  0.
         21    1    1    2  503  502  0.33191929312E+02  0.32874892996E+03  0.35834799499E+03  0.48743291706E+03  0.00000000000E+00 0.  1.
          2    1    1    2  501    0 -0.17565791095E+03  0.89355305220E+02  0.11068832046E+04  0.11242911104E+04  0.00000000000E+00 0.  1.
<mgrwt>
<rscale>  4 0.40603541E+03</rscale>
<asrwt>0</asrwt>
<pdfrwt beam="1">  1       21 0.37366023E-01 0.40603541E+03</pdfrwt>
<pdfrwt beam="2">  1        2 0.28446916E+00 0.40603541E+03</pdfrwt>
<totfact> 0.71782604E+02</totfact>
</mgrwt>
</event>
<event>
 5    0  0.1239749E+000  0.2187579E+03  0.7546771E-02  0.1134812E+00
         -1   -1    0    0    0  501 -0.00000000000E+00  0.00000000000E+00  0.67912012703E+03  0.67912012703E+03  0.00000000000E+00 0. -1.
         21   -1    0    0  503  502  0.00000000000E+00 -0.00000000000E+00 -0.53573679552E+03  0.53573679552E+03  0.00000000000E+00 0. -1.
         25    1    1    2    0    0  0.15685061500E+03 -0.14166848118E+03  0.35540404269E+02  0.24811326914E+03  0.12500000000E+03 0.  0.
         21    1    1    2  503  501 -0.12819632722E+03  0.11985908557E+03 -0.41086985966E+03  0.44678243059E+03  0.00000000000E+00 0. -1.
         -1    1    1    2    0  502 -0.28654287783E+02  0.21809395610E+02  0.51871278690E+03  0.51996122283E+03  0.00000000000E+00 0. -1.
<mgrwt>
<rscale>  4 0.21875792E+03</rscale>
<asrwt>0</asrwt>
<pdfrwt beam="1">  1       21 0.82421045E-01 0.21875792E+03</pdfrwt>
<pdfrwt beam="2">  1       -1 0.10448002E+00 0.21875792E+03</pdfrwt>
<totfact> 0.10836882E+02</totfact>
</mgrwt>
</event>
<event>
 5    0  0.1239749E+000  0.2748481E+03  0.7546771E-02  0.1098537E+00
          2   -1    0    0  503    0 -0.00000000000E+00  0.00000000000E+00  0.17467573984E+04  0.17467573984E+04  0.00000000000E+00 0. -1.
         21   -1    0    0  501  502  0.00000000000E+00 -0.00000000000E+00 -0.14305194236E+03  0.14305194236E+03  0.00000000000E+00 0.  1.
         25    1    1    2    0    0  0.16096043651E+03 -0.16476169704E+03  0.81766245533E+03  0.85863354803E+03  0.12500000000E+03 0.  0.
         21    1    1    2  503  502 -0.21569040161E+03  0.12273103420E+03  0.61542885585E+01  0.24824006802E+03  0.00000000000E+00 0.  1.
          2    1    1    2  501    0  0.54729965092E+02  0.42030662838E+02  0.77988871215E+03  0.78293572472E+03  0.00000000000E+00 0. -1.
<mgrwt>
<rscale>  4 0.27484807E+03</rscale>
<asrwt>0</asrwt>
<pdfrwt beam="1">  1       21 0.22007992E-01 0.27484807E+03</pdfrwt>
<pdfrwt beam="2">  1        2 0.26873189E+00 0.27484807E+03</pdfrwt>
<totfact> 0.24165900E+03</totfact>
</mgrwt>
</event>
<event>
 5    0  0.1239749E+000  0.2708596E+03  0.7546771E-02  0.1100789E+00
         21   -1    0    0  501  502  0.00000000000E+00  0.00000000000E+00  0.12688056896E+04  0.12688056896E+04  0.00000000000E+00 0.  1.
          1   -1    0    0  503    0 -0.00000000000E+00 -0.00000000000E+00 -0.18497767338E+04  0.18497767338E+04  0.00000000000E+00 0. -1.
         25    1    1    2    0    0 -0.20484358041E+02  0.25085568467E+03  0.11610945163E+04  0.11946186251E+04  0.12500000000E+03 0.  0.
         21    1    1    2  503  502  0.75495303449E+02 -0.16868165079E+03 -0.58123302833E+01  0.18489679105E+03  0.00000000000E+00 0.  1.
          1    1    1    2  501    0 -0.55010945409E+02 -0.82174033873E+02 -0.17362532303E+04  0.17390670072E+04  0.00000000000E+00 0. -1.
<mgrwt>
<rscale>  4 0.27085963E+03</rscale>
<asrwt>0</asrwt>
<pdfrwt beam="1">  1       21 0.19520088E+00 0.27085963E+03</pdfrwt>
<pdfrwt beam="2">  1        1 0.28458103E+00 0.27085963E+03</pdfrwt>
<totfact> 0.63353078E+00</totfact>
</mgrwt>
</event>
<event>
 5    0  0.1239749E+000  0.2548559E+03  0.7546771E-02  0.1110274E+00
         21   -1    0    0  501  502  0.00000000000E+00  0.00000000000E+00  0.37619767711E+03  0.37619767711E+03  0.00000000000E+00 0. -1.
          1   -1    0    0  503    0 -0.00000000000E+00 -0.00000000000E+00 -0.56052188097E+03  0.56052188097E+03  0.00000000000E+00 0.  1.
         25    1    1    2    0    0 -0.16986933130E+03  0.14252633413E+03  0.24827787839E+03  0.35557875434E+03  0.12500000000E+03 0.  0.
         21    1    1    2  503  502 -0.82413534739E+02 -0.10193800202E+03 -0.12355151947E+03  0.18013418589E+03  0.00000000000E+00 0.  1.
          1    1    1    2  501    0  0.25228286604E+03 -0.40588332107E+02 -0.30905056278E+03  0.40100661785E+03  0.00000000000E+00 0.  1.
<mgrwt>
<rscale>  4 0.25485585E+03</rscale>
<asrwt>0</asrwt>
<pdfrwt beam="1">  1       21 0.57876566E-01 0.25485585E+03</pdfrwt>
<pdfrwt beam="2">  1        1 0.86234135E-01 0.25485585E+03</pdfrwt>
<totfact> 0.11655966E+03</totfact>
</mgrwt>
</event>
<event>
 5    0  0.1239749E+000  0.1706754E+03  0.7546771E-02  0.1177145E+00
          4   -1    0    0  503    0 -0.00000000000E+00  0.00000000000E+00  0.63922451737E+03  0.63922451737E+03  0.00000000000E+00 0. -1.
         21   -1    0    0  501  502  0.00000000000E+00 -0.00000000000E+00 -0.55677466606E+03  0.55677466606E+03  0.00000000000E+00 0.  1.
         25    1    1    2    0    0  0.14281371430E+03  0.14395863625E+03 -0.40656534275E+03  0.47121144285E+03  0.12500000000E+03 0.  0.
         21    1    1    2  503  502 -0.10661235169E+03 -0.34435916552E+02 -0.84157459461E+02  0.14012317390E+03  0.00000000000E+00 0.  1.
          4    1    1    2  501    0 -0.36201362611E+02 -0.10952271969E+03  0.57317265353E+03  0.58466456668E+03  0.00000000000E+00 0. -1.
<mgrwt>
<rscale>  4 0.17067540E+03</rscale>
<asrwt>0</asrwt>
<pdfrwt beam="1">  1       21 0.85657641E-01 0.17067540E+03</pdfrwt>
<pdfrwt beam="2">  1        4 0.98342233E-01 0.17067540E+03</pdfrwt>
<totfact> 0.44350170E+01</totfact>
</mgrwt>
</event>
<event>
 5    0  0.1239749E+000  0.1752853E+03  0.7546771E-02  0.1172446E+00
          2   -1    0    0  503    0 -0.00000000000E+00  0.00000000000E+00  0.14796159159E+04  0.14796159159E+04  0.00000000000E+00 0.  1.
         21   -1    0    0  501  502  0.00000000000E+00 -0.00000000000E+00 -0.13038164752E+03  0.13038164752E+03  0.00000000000E+00 0.  1.
         25    1    1    2    0    0  0.94025880848E+02 -0.19624333832E+03  0.17559546452E+03  0.30628594689E+03  0.12500000000E+03 0.  0.
         21    1    1    2  503  502 -0.60169196721E+02  0.82447542078E+02 -0.20146067525E+02  0.10403746184E+03  0.00000000000E+00 0.  1.
          2    1    1    2  501    0 -0.33856684127E+02  0.11379579624E+03  0.11937848714E+04  0.11996741547E+04  0.00000000000E+00 0.  1.
<mgrwt>
<rscale>  4 0.17528526E+03</rscale>
<asrwt>0</asrwt>
<pdfrwt beam="1">  1       21 0.20058716E-01 0.17528526E+03</pdfrwt>
<pdfrwt beam="2">  1        2 0.22763321E+00 0.17528526E+03</pdfrwt>
<totfact> 0.41656440E+03</totfact>
</mgrwt>
</event>
<event>
 5    0  0.1239749E+000  0.2361456E+03  0.7546771E-02  0.1122387E+00
         21   -1    0    0  501  502  0.00000000000E+00  0.00000000000E+00  0.34381597627E+03  0.34381597627E+03  0.00000000000E+00 0.  1.
          2   -1    0    0  503    0 -0.00000000000E+00 -0.00000000000E+00 -0.17740915772E+04  0.17740915772E+04  0.00000000000E+00 0.  1.
         25    1    1    2    0    0  0.17583297954E+03  0.10337630957E+03  0.20835373240E+03  0.31723835814E+03  0.12500000000E+03 0.  0.
         21    1    1    2  503  502 -0.19053332915E+03 -0.51157264990E+02 -0.40220157496E+02  0.20133970385E+03  0.00000000000E+00 0.  1.
          2    1    1    2  501    0  0.14700349614E+02 -0.52219044577E+02 -0.15984091758E+04  0.15993294915E+04  0.00000000000E+00 0.  1.
<mgrwt>
<rscale>  4 0.23614556E+03</rscale>
<asrwt>0</asrwt>
<pdfrwt beam="1">  1       21 0.52894767E-01 0.23614556E+03</pdfrwt>
<pdfrwt beam="2">  1        2 0.27293716E+00 0.23614556E+03</pdfrwt>
<totfact> 0.41400722E+02</totfact>
</mgrwt>
</event>
<event>
 5    0  0.1239749E+000  0.2521552E+03  0.7546771E-02  0.1111950E+00
          2   -1    0    0  503    0 -0.00000000000E+00  0.00000000000E+00  0.14613907972E+04  0.14613907972E+04  0.00000000000E+00 0. -1.
         21   -1    0    0  501  502  0.00000000000E+00 -0.00000000000E+00 -0.15136022826E+03  0.15136022826E+03  0.00000000000E+00 0. -1.
         25    1    1    2    0    0  0.19299240849E+03 -0.10007685256E+03 -0.21516115222E+02  0.25169304593E+03  0.12500000000E+03 0.  0.
         21    1    1    2  503  502 -0.19798556091E+03  0.12189737768E+03  0.92073420185E+03  0.94963610055E+03  0.00000000000E+00 0. -1.
          2    1    1    2  501    0  0.49931524188E+01 -0.21820525120E+02  0.41081248231E+03  0.41142187898E+03  0.00000000000E+00 0. -1.
<mgrwt>
<rscale>  4 0.25215518E+03</rscale>
<asrwt>0</asrwt>
<pdfrwt beam="1">  1       21 0.23286190E-01 0.25215518E+03</pdfrwt>
<pdfrwt beam="2">  1        2 0.22482934E+00 0.25215518E+03</pdfrwt>
<totfact> 0.31043904E+03</totfact>
</mgrwt>
</event>
<event>
 5    0  0.1239749E+000  0.2648634E+03  0.7546771E-02  0.1104256E+00
         21   -1    0    0  503  502  0.00000000000E+00  0.00000000000E+00  0.81327503714E+02  0.81327503714E+02  0.00000000000E+00 0.  1.
         -2   -1    0    0    0  501 -0.00000000000E+00 -0.00000000000E+00 -0.16115939993E+04  0.16115939993E+04  0.00000000000E+00 0.  1.
         25    1    1    2    0    0  0.21024309420E+03 -0.11930418135E+03 -0.80547578249E+03  0.85020696453E+03  0.12500000000E+03 0.  0.
         21    1    1    2  503  501 -0.18508395284E+03  0.13933086423E+03 -0.17087701744E+03  0.28786822404E+03  0.00000000000E+00 0.  1.
         -2    1    1    2    0  502 -0.25159141365E+02 -0.20026682877E+02 -0.55391369563E+03  0.55484631442E+03  0.00000000000E+00 0.  1.
<mgrwt>
<rscale>  4 0.26486340E+03</rscale>
<asrwt>0</asrwt>
<pdfrwt beam="1">  1       21 0.12511923E-01 0.26486340E+03</pdfrwt>
<pdfrwt beam="2">  1       -2 0.24793754E+00 0.26486340E+03</pdfrwt>
<totfact> 0.32678340E+02</totfact>
</mgrwt>
</event>
<event>
 5    0  0.1239749E+000  0.2593417E+03  0.7546771E-02  0.1107539E+00
          2   -1    0    0  503    0 -0.00000000000E+00  0.00000000000E+00  0.69404834044E+03  0.69404834044E+03  0.00000000000E+00 0. -1.
         21   -1    0    0  501  502  0.00000000000E+00 -0.00000000000E+00 -0.43302571611E+03  0.43302571611E+03  0.00000000000E+00 0. -1.
         25    1    1    2    0    0  0.19895397611E+03  0.67284261439E+02 -0.13037356182E+03  0.27700563545E+03  0.12500000000E+03 0.  0.
         21    1    1    2  503  502 -0.23130829067E+03 -0.72186331519E+02 -0.16471588771E+03  0.29299439492E+03  0.00000000000E+00 0. -1.
          2    1    1    2  501    0  0.32354314554E+02  0.49020700804E+01  0.55611207385E+03  0.55707402618E+03  0.00000000000E+00 0. -1.
<mgrwt>
<rscale>  4 0.25934171E+03</rscale>
<asrwt>0</asrwt>
<pdfrwt beam="1">  1       21 0.66619341E-01 0.25934171E+03</pdfrwt>
<pdfrwt beam="2">  1        2 0.10677667E+00 0.25934171E+03</pdfrwt>
<totfact> 0.10686144E+03</totfact>
</mgrwt>
</event>
<event>
 5    0  0.1239749E+000  0.2402296E+03  0.7546771E-02  0.1119640E+00
          2   -1    0    0  503    0 -0.00000000000E+00  0.00000000000E+00  0.71006237079E+03  0.71006237079E+03  0.00000000000E+00 0. -1.
         21   -1    0    0  501  502  0.00000000000E+00 -0.00000000000E+00 -0.14072787104E+03  0.14072787104E+03  0.00000000000E+00 0.  1.
         25    1    1    2    0    0 -0.36632477793E+02 -0.22566727882E+03  0.94991793947E+02  0.27733752014E+03  0.12500000000E+03 0.  0.
         21    1    1    2  503  502  0.68145965626E+02  0.17149280929E+03  0.13570000492E+03  0.22905926657E+03  0.00000000000E+00 0. -1.
          2    1    1    2  501    0 -0.31513487833E+02  0.54174469531E+02  0.33864270089E+03  0.34439345512E+03  0.00000000000E+00 0. -1.
<mgrwt>
<rscale>  4 0.24022955E+03</rscale>
<asrwt>0</asrwt>
<pdfrwt beam="1">  1       21 0.21650442E-01 0.24022955E+03</pdfrwt>
<pdfrwt beam="2">  1        2 0.10924036E+00 0.24022955E+03</pdfrwt>
<totfact> 0.10219266E+04</totfact>
</mgrwt>
</event>
