<LesHouchesEvents version="3.0">
  <!--
  <scalesfunctionalform>
    muR  H_T/2 := sum_i mT(i)/2, i=final state
    muF1 H_T/2 := sum_i mT(i)/2, i=final state
    muF2 H_T/2 := sum_i mT(i)/2, i=final state
    QES  H_T/2 := sum_i mT(i)/2, i=final state
  </scalesfunctionalform>
HERWIG6   
  -->
  <header>
      355
  </header>
  <init>
   2212   2212 0.65000000D+04 0.65000000D+04 -1 -1   247000   247000 -3   1
 0.15875900D+00 0.57351538D-03 0.49155423D-03     66
  </init>
  <event>
  4     66 0.49155423E-03 0.69867965E+02 0.75467711E-02 0.12347325E+00
        1 -1    0    0  501    0 0.00000000E+00 0.00000000E+00 0.21591106E+03 0.21591129E+03 0.32000000E+00 0.0000E+00 0.9000E+01
       -1 -1    0    0    0  501 0.00000000E+00 0.00000000E+00 -.59763768E+02 0.59764624E+02 0.32000000E+00 0.0000E+00 0.9000E+01
       25  1    1    2    0    0 0.30177930E+02 -.75397162E+01 0.10732885E+03 0.16766645E+03 0.12500000E+03 0.0000E+00 0.9000E+01
       23  1    1    2    0    0 -.30177930E+02 0.75397162E+01 0.48818435E+02 0.10800947E+03 0.91188000E+02 0.0000E+00 0.9000E+01
#aMCatNLO 1  0  0  1  2 0.24014176D+02 0.00000000D+00  -5  5  0 0.00000000D+00 0.00000000D+00 0.00000000D+00 0.00000000D+00 0.00000000D+00
  <mgrwgt>
 0.1329399509D+00    6    2    0
 0.113594933721461D+03 0.000000000000000D+00 0.000000000000000D+00 0.113594933721461D+03
 0.113594933721461D+03 0.000000000000000D+00 0.000000000000000D+00 -.113594933721461D+03
 0.129682245929248D+03 0.301779296229874D+02 -.753971622202506D+01 0.149976715597854D+02
 0.975076215136737D+02 -.301779296229874D+02 0.753971622202506D+01 -.149976715597854D+02
 0.000000000000000D+00 -.000000000000000D+00 0.000000000000000D+00 -.000000000000000D+00
 0.124834889077060D+03 0.000000000000000D+00 0.000000000000000D+00 0.124834889077060D+03
 0.127819557529429D+03 0.000000000000000D+00 0.000000000000000D+00 -.127819557529429D+03
 0.133687356765996D+03 0.438125315238102D+02 -.101410693883152D+02 0.149976715597854D+02
 0.947681455287890D+02 -.202238441401882D+02 0.564057079947777D+01 -.149976715597854D+02
 0.241989443117038D+02 -.235886873836220D+02 0.450049858883740D+01 -.298466845236892D+01
0.119678181568D-03 0.000000000000D+00 0.000000000000D+00 0.227121638150D-02 0.000000000000D+00  5 1 -1 25 23 21 0 0.33217170D-01 0.91945099D-02 0.12674190D+05 0.12674190D+05 0.12674190D+05 0.12562514D+01  1  2  2  1  5  1        1 0.103088782380D+00 0.100000000000D+01
-.664813634248D-05 0.000000000000D+00 -.459595729208D-06 0.227121638150D-02 0.000000000000D+00  5 1 -1 25 23 21 2 0.33217170D-01 0.91945099D-02 0.12674190D+05 0.12674190D+05 0.12674190D+05 0.12562514D+01  1  2  3  1  5  1        1 -.903752413587D-02 0.100000000000D+01
0.828368387414D-05 0.000000000000D+00 0.000000000000D+00 0.227121638150D-02 0.000000000000D+00  5 1 -1 25 23 21 2 0.33217170D-01 0.91945099D-02 0.12674190D+05 0.12674190D+05 0.12674190D+05 0.12562514D+01  1  2 15  1  5  1        1 0.112608991588D-01 0.100000000000D+01
0.106781564876D-03 0.000000000000D+00 0.000000000000D+00 0.227121638150D-02 0.000000000000D+00  5 1 -1 25 23 21 2 0.38367966D-01 0.91945099D-02 0.15678984D+05 0.15678984D+05 0.15678984D+05 0.12456366D+01  1  2 12  1  5  1        1 0.120427754856D+00 0.100000000000D+01
-.790991570165D-04 0.000000000000D+00 0.000000000000D+00 0.227121638150D-02 0.000000000000D+00  5 1 -1 25 23 21 2 0.33217170D-01 0.91945099D-02 0.12674190D+05 0.12674190D+05 0.12674190D+05 0.12562514D+01  1  2  4  1  5  1        1 -.107527960294D+00 0.100000000000D+01
0.235840863540D-05 0.000000000000D+00 0.000000000000D+00 0.227121638150D-02 0.000000000000D+00  5 21 -1 25 23 -1 2 0.38367966D-01 0.91945099D-02 0.15678984D+05 0.15678984D+05 0.15678984D+05 0.12456366D+01  1  2 12  3  5  1        1 0.147279988961D-01 0.100000000000D+01
  </mgrwgt>
  </event>
  <event>
  4     66 0.49155423E-03 0.30593898E+03 0.75467711E-02 0.92439081E-01
        1 -1    0    0  501    0 0.00000000E+00 0.00000000E+00 0.16695644E+03 0.16695675E+03 0.32000000E+00 0.0000E+00 0.9000E+01
       -1 -1    0    0    0  501 0.00000000E+00 0.00000000E+00 -.63382693E+03 0.63382701E+03 0.32000000E+00 0.0000E+00 0.9000E+01
       25  1    1    2    0    0 0.27531649E+03 0.76583583E+02 -.37352110E+03 0.48662843E+03 0.12500000E+03 0.0000E+00 0.9000E+01
       23  1    1    2    0    0 -.27531649E+03 -.76583583E+02 -.93349392E+02 0.31415533E+03 0.91188000E+02 0.0000E+00 0.9000E+01
#aMCatNLO 1  0  0  2  1 0.98620860D+03 0.00000000D+00  -5  5  0 0.00000000D+00 0.00000000D+00 0.00000000D+00 0.00000000D+00 0.00000000D+00
  <mgrwgt>
 0.1854462251D+00    5    2    0
 0.325302387194011D+03 0.000000000000000D+00 0.000000000000000D+00 0.325302387194011D+03
 0.325302387194011D+03 0.000000000000000D+00 0.000000000000000D+00 -.325302387194011D+03
 0.330920043983324D+03 0.275316486240990D+03 0.765835829391035D+02 -.110538964795448D+03
 0.319684730404699D+03 -.275316486240990D+03 -.765835829391035D+02 0.110538964795448D+03
 0.000000000000000D+00 0.000000000000000D+00 0.000000000000000D+00 -.000000000000000D+00
 0.769654062198761D+03 0.000000000000000D+00 0.000000000000000D+00 0.769654062198761D+03
 0.194978088272399D+04 0.000000000000000D+00 0.000000000000000D+00 -.194978088272399D+04
 0.175104199020941D+03 0.395290430898058D+01 0.529338485681878D+02 -.110538964795448D+03
 0.100637537481440D+04 -.986437395929023D+03 -.138558813734589D+03 0.110538964795448D+03
 0.153795537108741D+04 0.982484491620042D+03 0.856249651664012D+02 -.118012682052523D+04
0.922205149628D-02 0.000000000000D+00 0.000000000000D+00 0.113274250495D-02 0.000000000000D+00  5 1 -1 25 23 21 0 0.25685636D-01 0.97511866D-01 0.93598659D+05 0.93598659D+05 0.93598659D+05 0.11662202D+01  1  2  2  2  5  2       -1 0.182170021253D+00 0.100000000000D+01
-.509990120002D-03 0.000000000000D+00 -.354151059676D-04 0.113274250495D-02 0.000000000000D+00  5 1 -1 25 23 21 2 0.25685636D-01 0.97511866D-01 0.93598659D+05 0.93598659D+05 0.93598659D+05 0.11662202D+01  1  2  3  2  5  2       -1 -.137016292734D-01 0.100000000000D+01
0.630429078286D-03 0.000000000000D+00 0.000000000000D+00 0.113274250495D-02 0.000000000000D+00  5 1 -1 25 23 21 2 0.25685636D-01 0.97511866D-01 0.93598659D+05 0.93598659D+05 0.93598659D+05 0.11662202D+01  1  2 15  2  5  2       -1 0.169373977555D-01 0.100000000000D+01
0.537020680477D-02 0.000000000000D+00 -.437646521291D-02 0.113274250495D-02 0.000000000000D+00  5 1 -1 25 23 21 2 0.25685636D-01 0.70560129D+00 0.93598659D+05 0.93598659D+05 0.93598659D+05 0.11662202D+01  1  2  5  2  5  2       -1 0.318096401843D-04 0.100000000000D+01
0.857404348628D-03 0.000000000000D+00 -.105727859770D-02 0.113274250495D-02 0.000000000000D+00  5 1 21 25 23 1 2 0.25685636D-01 0.70560129D+00 0.93598659D+05 0.93598659D+05 0.93598659D+05 0.11662202D+01  1  2  5  4  5  2       -1 0.862576067398D-05 0.100000000000D+01
  </mgrwgt>
  </event>
  <event>
  4     66 0.49155423E-03 0.18998530E+03 0.75467711E-02 0.10891747E+00
        1 -1    0    0  501    0 0.00000000E+00 0.00000000E+00 0.55557691E+02 0.55558612E+02 0.32000000E+00 0.0000E+00 0.9000E+01
       -1 -1    0    0    0  501 0.00000000E+00 0.00000000E+00 -.68011430E+03 0.68011437E+03 0.32000000E+00 0.0000E+00 0.9000E+01
       25  1    1    2    0    0 0.15248606E+03 0.31061416E+02 -.24964937E+03 0.31963513E+03 0.12500000E+03 0.0000E+00 0.9000E+01
       23  1    1    2    0    0 -.15248606E+03 -.31061416E+02 -.37490724E+03 0.41603786E+03 0.91188000E+02 0.0000E+00 0.9000E+01
#aMCatNLO 1  0  0  1  2 0.16893617D+03 0.00000000D+00  -5  5  0 0.00000000D+00 0.00000000D+00 0.00000000D+00 0.00000000D+00 0.00000000D+00
  <mgrwgt>
 0.1302027959D+00    3    2    0
 0.194386076279351D+03 0.000000000000000D+00 0.000000000000000D+00 0.194386076279351D+03
 0.194386076279351D+03 0.000000000000000D+00 0.000000000000000D+00 -.194386076279351D+03
 0.203787146556493D+03 0.152486055721898D+03 0.310614158178708D+02 0.410778816323956D+02
 0.184985006002210D+03 -.152486055721898D+03 -.310614158178708D+02 -.410778816323956D+02
 0.000000000000000D+00 0.000000000000000D+00 -.000000000000000D+00 -.000000000000000D+00
 0.279018582661499D+03 0.000000000000000D+00 0.000000000000000D+00 0.279018582661499D+03
 0.318319321171465D+03 0.000000000000000D+00 0.000000000000000D+00 -.318319321171465D+03
 0.174820289023217D+03 0.872458235530943D+02 0.750859998088749D+02 0.410778816323956D+02
 0.249070281677004D+03 -.227280856566021D+03 0.194106607273608D+02 -.410778816323956D+02
 0.173447333132743D+03 0.140035033012927D+03 -.944966605362356D+02 -.393007385099657D+02
0.177417203229D-02 0.000000000000D+00 0.000000000000D+00 0.141881438253D-02 0.000000000000D+00  5 1 -1 25 23 21 0 0.85474137D-02 0.10463305D+00 0.36094412D+05 0.36094412D+05 0.36094412D+05 0.12065580D+01  1  2  2  1  5  1        1 0.127719689620D+00 0.100000000000D+01
-.985022694413D-04 0.000000000000D+00 -.681328775421D-05 0.141881438253D-02 0.000000000000D+00  5 1 -1 25 23 21 2 0.85474137D-02 0.10463305D+00 0.36094412D+05 0.36094412D+05 0.36094412D+05 0.12065580D+01  1  2  3  1  5  1        1 -.103229716371D-01 0.100000000000D+01
0.122196183994D-03 0.000000000000D+00 0.000000000000D+00 0.141881438253D-02 0.000000000000D+00  5 1 -1 25 23 21 2 0.85474137D-02 0.10463305D+00 0.36094412D+05 0.36094412D+05 0.36094412D+05 0.12065580D+01  1  2 15  1  5  1        1 0.128060779583D-01 0.100000000000D+01
  </mgrwgt>
  </event>
  <event>
  5     66 0.49155423E-03 0.13164895E+03 0.75467711E-02 0.11611114E+00
        3 -1    0    0  501    0 0.00000000E+00 0.00000000E+00 0.49690792E+03 0.49690817E+03 0.50000000E+00 0.0000E+00 0.9000E+01
       21 -1    0    0  502  501 0.00000000E+00 0.00000000E+00 -.72206511E+02 0.72210406E+02 0.75000000E+00 0.0000E+00 0.9000E+01
       25  1    1    2    0    0 0.19389243E+02 -.12808366E+03 0.24375304E+03 0.30302131E+03 0.12500000E+03 0.0000E+00 0.9000E+01
       23  1    1    2    0    0 0.11100293E+02 0.38622144E+02 0.10586900E+03 0.14539045E+03 0.91188000E+02 0.0000E+00 0.9000E+01
        3  1    1    2  502    0 -.30489536E+02 0.89461518E+02 0.75079364E+02 0.12070682E+03 0.50000000E+00 0.0000E+00 0.9000E+01
#aMCatNLO 2  0  0  2  2 0.94514417D+02 0.00000000D+00  -5  5  0 0.00000000D+00 0.00000000D+00 0.00000000D+00 0.00000000D+00 0.00000000D+00
  <mgrwgt>
 0.5438655930D-02    1    2    0
 0.132197349429641D+03 0.000000000000000D+00 0.000000000000000D+00 0.132197349429641D+03
 0.132197349429641D+03 0.000000000000000D+00 0.000000000000000D+00 -.132197349429641D+03
 0.146020903168687D+03 0.113295521035926D+01 -.745165881918430D+02 0.119623851692516D+02
 0.118373795690596D+03 -.113295521035926D+01 0.745165881918430D+02 -.119623851692516D+02
 0.000000000000000D+00 -.000000000000000D+00 0.000000000000000D+00 -.000000000000000D+00
 0.174832221794322D+03 0.000000000000000D+00 0.000000000000000D+00 0.174832221794322D+03
 0.205230609212354D+03 0.000000000000000D+00 0.000000000000000D+00 -.205230609212354D+03
 0.180414705119430D+03 0.193892427861635D+02 -.128083661833087D+03 0.119623851692516D+02
 0.100365514528428D+03 0.111002927874111D+02 0.386221439546332D+02 -.119623851692516D+02
 0.992826113588174D+02 -.304895355735746D+02 0.894615178784542D+02 -.303983874180314D+02
0.680492553620D-05 0.000000000000D+00 0.000000000000D+00 0.191664566717D-02 0.136317201028D-06  5 3 21 25 23 3 2 0.76447432D-01 0.11108975D-01 0.35003076D+05 0.35003076D+05 0.35003076D+05 0.12079303D+01  1  2  1  4  5  2       -3 0.543865592984D-02 0.100000000000D+01
  </mgrwgt>
  </event>
  <event>
  4     66 0.49155423E-03 0.11895460E+03 0.75467711E-02 0.12358841E+00
        3 -1    0    0  501    0 0.00000000E+00 0.00000000E+00 0.49874331E+03 0.49874356E+03 0.50000000E+00 0.0000E+00 0.9000E+01
       -3 -1    0    0    0  501 0.00000000E+00 0.00000000E+00 -.28788852E+02 0.28793194E+02 0.50000000E+00 0.0000E+00 0.9000E+01
       25  1    1    2    0    0 -.20345610E+02 -.44745195E+02 0.23330213E+03 0.26920431E+03 0.12500000E+03 0.0000E+00 0.9000E+01
       23  1    1    2    0    0 0.20345610E+02 0.44745195E+02 0.23665232E+03 0.25833244E+03 0.91188000E+02 0.0000E+00 0.9000E+01
#aMCatNLO 1  0  0  2  2 0.10814277D+02 0.00000000D+00  -5  5  0 0.00000000D+00 0.00000000D+00 0.00000000D+00 0.00000000D+00 0.00000000D+00
  <mgrwgt>
 0.5326153930D-02    4    2    0
 0.119830958243745D+03 0.000000000000000D+00 0.000000000000000D+00 0.119830958243745D+03
 0.119830958243745D+03 0.000000000000000D+00 0.000000000000000D+00 -.119830958243745D+03
 0.135081083843866D+03 -.203456099654716D+02 -.447451949649744D+02 -.143465290266617D+02
 0.104580832643623D+03 0.203456099654716D+02 0.447451949649744D+02 0.143465290266617D+02
 0.000000000000000D+00 0.000000000000000D+00 0.000000000000000D+00 0.000000000000000D+00
 0.131113430151947D+03 0.000000000000000D+00 0.000000000000000D+00 0.131113430151947D+03
 0.122572578739790D+03 0.000000000000000D+00 0.000000000000000D+00 -.122572578739790D+03
 0.137392801394536D+03 -.217340364695827D+02 -.507305690749113D+02 -.143465290266617D+02
 0.102512977624945D+03 0.192903362288246D+02 0.401960106303908D+02 0.143465290266617D+02
 0.137802298722565D+02 0.244370024075812D+01 0.105345584445204D+02 0.854085141215626D+01
0.128542797973D-03 0.000000000000D+00 0.000000000000D+00 0.212542878247D-02 0.000000000000D+00  5 3 -3 25 23 21 0 0.76730093D-01 0.44294074D-02 0.14150196D+05 0.14150196D+05 0.14150196D+05 0.12507204D+01  1  2  2  2  5  2       -3 0.131103056523D-01 0.100000000000D+01
-.714079874337D-05 0.000000000000D+00 -.493638190313D-06 0.212542878247D-02 0.000000000000D+00  5 3 -3 25 23 21 2 0.76730093D-01 0.44294074D-02 0.14150196D+05 0.14150196D+05 0.14150196D+05 0.12507204D+01  1  2  3  2  5  2       -3 -.113928490455D-02 0.100000000000D+01
0.890531240738D-05 0.000000000000D+00 0.000000000000D+00 0.212542878247D-02 0.000000000000D+00  5 3 -3 25 23 21 2 0.76730093D-01 0.44294074D-02 0.14150196D+05 0.14150196D+05 0.14150196D+05 0.12507204D+01  1  2 15  2  5  2       -3 0.142080576147D-02 0.100000000000D+01
-.505539434340D-04 0.000000000000D+00 0.000000000000D+00 0.212542878247D-02 0.000000000000D+00  5 3 -3 25 23 21 2 0.76730093D-01 0.44294074D-02 0.14150196D+05 0.14150196D+05 0.14150196D+05 0.12507204D+01  1  2  4  2  5  2       -3 -.806567257948D-02 0.100000000000D+01
  </mgrwgt>
  </event>
  <event>
  4     66 0.49155423E-03 0.12560842E+03 0.75467711E-02 0.11467836E+00
        1 -1    0    0  501    0 0.00000000E+00 0.00000000E+00 0.74460841E+03 0.74460848E+03 0.32000000E+00 0.0000E+00 0.9000E+01
       -1 -1    0    0    0  501 0.00000000E+00 0.00000000E+00 -.50190284E+02 0.50191304E+02 0.32000000E+00 0.0000E+00 0.9000E+01
       25  1    1    2    0    0 0.15503232E+03 -.63756845E+01 0.28682998E+03 0.34924505E+03 0.12500000E+03 0.0000E+00 0.9000E+01
       23  1    1    2    0    0 -.15503232E+03 0.63756845E+01 0.40758815E+03 0.44555474E+03 0.91188000E+02 0.0000E+00 0.9000E+01
#aMCatNLO 1  0  0  1  2 0.26893048D+02 0.00000000D+00  -5  5  0 0.00000000D+00 0.00000000D+00 0.00000000D+00 0.00000000D+00 0.00000000D+00
  <mgrwgt>
 0.1585705339D+00    9    2    0
 0.193319788724276D+03 0.000000000000000D+00 0.000000000000000D+00 0.193319788724276D+03
 0.193319788724276D+03 0.000000000000000D+00 0.000000000000000D+00 -.193319788724276D+03
 0.202772712173341D+03 0.155032320217641D+03 -.637568446834671D+01 -.376311458452631D+02
 0.183866865275211D+03 -.155032320217641D+03 0.637568446834671D+01 0.376311458452631D+02
 0.000000000000000D+00 0.000000000000000D+00 -.000000000000000D+00 0.000000000000000D+00
 0.265797970579015D+03 0.000000000000000D+00 0.000000000000000D+00 0.265797970579015D+03
 0.196297715741086D+03 0.000000000000000D+00 0.000000000000000D+00 -.196297715741086D+03
 0.197476522843770D+03 0.148067128433356D+03 0.565680248359497D+01 -.376311458452631D+02
 0.190097210634644D+03 -.161540094077680D+03 0.176179741973649D+02 0.376311458452631D+02
 0.745219528416878D+02 0.134729656443237D+02 -.232747766809599D+02 0.695002548379289D+02
0.493350487140D-03 0.000000000000D+00 0.000000000000D+00 0.143139528086D-02 0.000000000000D+00  5 1 -1 25 23 21 0 0.11455522D+00 0.77216660D-02 0.35952909D+05 0.35952909D+05 0.35952909D+05 0.12067333D+01  1  2  2  1  5  1        1 0.114424444556D+00 0.100000000000D+01
-.273958660116D-04 0.000000000000D+00 -.189459577278D-05 0.143139528086D-02 0.000000000000D+00  5 1 -1 25 23 21 2 0.11455522D+00 0.77216660D-02 0.35952909D+05 0.35952909D+05 0.35952909D+05 0.12067333D+01  1  2  3  1  5  1        1 -.925275055484D-02 0.100000000000D+01
0.340685510954D-04 0.000000000000D+00 0.000000000000D+00 0.143139528086D-02 0.000000000000D+00  5 1 -1 25 23 21 2 0.11455522D+00 0.77216660D-02 0.35952909D+05 0.35952909D+05 0.35952909D+05 0.12067333D+01  1  2 15  1  5  1        1 0.115064004517D-01 0.100000000000D+01
0.279707087074D-02 0.000000000000D+00 0.000000000000D+00 0.143139528086D-02 0.000000000000D+00  5 1 -1 25 23 21 2 0.15814015D+00 0.77216660D-02 0.41429799D+05 0.41429799D+05 0.41429799D+05 0.12004544D+01  1  2 12  1  5  1        1 0.558883103942D+00 0.100000000000D+01
-.271729246766D-02 0.000000000000D+00 0.000000000000D+00 0.143139528086D-02 0.000000000000D+00  5 1 -1 25 23 21 2 0.11455522D+00 0.77216660D-02 0.35952909D+05 0.35952909D+05 0.35952909D+05 0.12067333D+01  1  2  4  1  5  1        1 -.917745377244D+00 0.100000000000D+01
-.312398794381D-02 0.000000000000D+00 -.248926243484D-03 0.143139528086D-02 0.000000000000D+00  5 1 -1 25 23 21 2 0.15847872D+00 0.77216660D-02 0.35952909D+05 0.35952909D+05 0.35952909D+05 0.12067333D+01  1  2  5  1  5  1        1 -.628370210389D+00 0.100000000000D+01
0.305501248397D-02 0.000000000000D+00 0.236366963985D-03 0.143139528086D-02 0.000000000000D+00  5 1 -1 25 23 21 2 0.11455522D+00 0.77216660D-02 0.35952909D+05 0.35952909D+05 0.35952909D+05 0.12067333D+01  1  2  6  1  5  1        1 0.103180780794D+01 0.100000000000D+01
0.113891644638D-03 0.000000000000D+00 0.000000000000D+00 0.143139528086D-02 0.000000000000D+00  5 21 -1 25 23 -1 2 0.15814015D+00 0.77216660D-02 0.41429799D+05 0.41429799D+05 0.41429799D+05 0.12004544D+01  1  2 12  3  5  1        1 0.343261606277D-01 0.100000000000D+01
-.121515385324D-03 0.000000000000D+00 -.101842097733D-04 0.143139528086D-02 0.000000000000D+00  5 21 -1 25 23 -1 2 0.15847872D+00 0.77216660D-02 0.35952909D+05 0.35952909D+05 0.35952909D+05 0.12067333D+01  1  2  5  3  5  1        1 -.370090454129D-01 0.100000000000D+01
  </mgrwgt>
  </event>
  <event>
  5     66 0.49155423E-03 0.10889099E+03 0.75467711E-02 0.11321700E+00
        1 -1    0    0  501    0 0.00000000E+00 0.00000000E+00 0.26562368E+04 0.26562369E+04 0.32000000E+00 0.0000E+00 0.9000E+01
       21 -1    0    0  502  501 0.00000000E+00 0.00000000E+00 -.20165343E+02 0.20179286E+02 0.75000000E+00 0.0000E+00 0.9000E+01
       25  1    1    2    0    0 -.67839951E+02 -.46446338E+02 0.12695041E+04 0.12782899E+04 0.12500000E+03 0.0000E+00 0.9000E+01
       23  1    1    2    0    0 -.62982761E+02 -.60297978E+02 0.55009614E+03 0.56437903E+03 0.91188000E+02 0.0000E+00 0.9000E+01
        1  1    1    2  502    0 0.13082271E+03 0.10674432E+03 0.81647126E+03 0.83374718E+03 0.32000000E+00 0.0000E+00 0.9000E+01
#aMCatNLO 2  0  0  2  2 0.16884588D+03 0.00000000D+00  -5  5  0 0.00000000D+00 0.00000000D+00 0.00000000D+00 0.00000000D+00 0.00000000D+00
  <mgrwgt>
 0.2411123512D-01    1    2    0
 0.118295162045359D+03 0.000000000000000D+00 0.000000000000000D+00 0.118295162045359D+03
 0.118295162045359D+03 0.000000000000000D+00 0.000000000000000D+00 -.118295162045359D+03
 0.133743276172793D+03 0.416451744298251D+01 0.123054458784349D+02 0.457547453017944D+02
 0.102847047917926D+03 -.416451744298251D+01 -.123054458784349D+02 -.457547453017944D+02
 0.000000000000000D+00 0.000000000000000D+00 0.000000000000000D+00 -.000000000000000D+00
 0.210816403696769D+03 0.000000000000000D+00 0.000000000000000D+00 0.210816403696769D+03
 0.254166853466615D+03 0.000000000000000D+00 0.000000000000000D+00 -.254166853466615D+03
 0.156454523616217D+03 -.678399507346052D+02 -.464463381406078D+02 0.457547453017944D+02
 0.134206640238759D+03 -.629827605780711D+02 -.602979775159075D+02 -.457547453017944D+02
 0.174322093308409D+03 0.130822711312676D+03 0.106744315656515D+03 -.433504497698465D+02
0.199142853474D-04 0.000000000000D+00 0.000000000000D+00 0.194077218636D-02 0.149867461849D-06  5 1 21 25 23 1 2 0.40865263D+00 0.31034325D-02 0.49423229D+05 0.49423229D+05 0.49423229D+05 0.11927811D+01  1  2  1  4  5  2       -1 0.241112351162D-01 0.100000000000D+01
  </mgrwgt>
  </event>
  <event>
  4     66 0.49155423E-03 0.47175496E+02 0.75467711E-02 0.12112231E+00
        1 -1    0    0  501    0 0.00000000E+00 0.00000000E+00 0.46759295E+03 0.46759306E+03 0.32000000E+00 0.0000E+00 0.9000E+01
       -1 -1    0    0    0  501 0.00000000E+00 0.00000000E+00 -.37023745E+02 0.37025127E+02 0.32000000E+00 0.0000E+00 0.9000E+01
       25  1    1    2    0    0 -.45207750E+01 -.54320137E+02 0.33510933E+03 0.36179328E+03 0.12500000E+03 0.0000E+00 0.9000E+01
       23  1    1    2    0    0 0.45207750E+01 0.54320137E+02 0.95459875E+02 0.14282491E+03 0.91188000E+02 0.0000E+00 0.9000E+01
#aMCatNLO 1  0  0  1  2 0.37461365D+02 0.00000000D+00  -5  5  0 0.00000000D+00 0.00000000D+00 0.00000000D+00 0.00000000D+00 0.00000000D+00
  <mgrwgt>
 0.1630366371D+00    9    2    0
 0.131576664116076D+03 0.000000000000000D+00 0.000000000000000D+00 0.131576664116076D+03
 0.131576664116076D+03 0.000000000000000D+00 0.000000000000000D+00 -.131576664116076D+03
 0.145465427570269D+03 -.452077502976947D+01 -.543201374397206D+02 0.506367048677275D+02
 0.117687900661883D+03 0.452077502976947D+01 0.543201374397206D+02 -.506367048677275D+02
 0.000000000000000D+00 0.000000000000000D+00 -.000000000000000D+00 0.000000000000000D+00
 0.166058407876135D+03 0.000000000000000D+00 0.000000000000000D+00 0.166058407876135D+03
 0.143484882644631D+03 0.000000000000000D+00 0.000000000000000D+00 -.143484882644631D+03
 0.139776829892630D+03 -.107651525220126D+02 -.351083720236301D+02 0.506367048677275D+02
 0.126029543341723D+03 -.814562501700931D+00 0.707351048560244D+02 -.506367048677275D+02
 0.437369172864133D+02 0.115797150237136D+02 -.356267328323943D+02 0.225735252315037D+02
0.161877320861D-03 0.000000000000D+00 0.000000000000D+00 0.171388338892D-02 0.000000000000D+00  5 1 -1 25 23 21 0 0.71937492D-01 0.56960755D-02 0.14714282D+05 0.14714282D+05 0.14714282D+05 0.12487758D+01  1  2  2  1  5  1        1 0.109898738502D+00 0.100000000000D+01
-.892090662243D-05 0.000000000000D+00 -.621651535382D-06 0.171388338892D-02 0.000000000000D+00  5 1 -1 25 23 21 2 0.71937492D-01 0.56960755D-02 0.14714282D+05 0.14714282D+05 0.14714282D+05 0.12487758D+01  1  2  3  1  5  1        1 -.944462353225D-02 0.100000000000D+01
0.111870167793D-04 0.000000000000D+00 0.000000000000D+00 0.171388338892D-02 0.000000000000D+00  5 1 -1 25 23 21 2 0.71937492D-01 0.56960755D-02 0.14714282D+05 0.14714282D+05 0.14714282D+05 0.12487758D+01  1  2 15  1  5  1        1 0.118437695182D-01 0.100000000000D+01
0.169821529245D-03 0.000000000000D+00 0.000000000000D+00 0.171388338892D-02 0.000000000000D+00  5 1 -1 25 23 21 2 0.93397093D-01 0.56960755D-02 0.20043944D+05 0.20043944D+05 0.20043944D+05 0.12337211D+01  1  2 12  1  5  1        1 0.125348652955D+00 0.100000000000D+01
-.181564210929D-03 0.000000000000D+00 0.000000000000D+00 0.171388338892D-02 0.000000000000D+00  5 1 -1 25 23 21 2 0.71937492D-01 0.56960755D-02 0.14714282D+05 0.14714282D+05 0.14714282D+05 0.12487758D+01  1  2  4  1  5  1        1 -.192223244984D+00 0.100000000000D+01
-.308625287451D-03 0.000000000000D+00 -.914867104152D-04 0.171388338892D-02 0.000000000000D+00  5 1 -1 25 23 21 2 0.96850699D-01 0.56960755D-02 0.14714282D+05 0.14714282D+05 0.14714282D+05 0.12487758D+01  1  2  5  1  5  1        1 -.220415188392D+00 0.100000000000D+01
0.325245095772D-03 0.000000000000D+00 0.875854650750D-04 0.171388338892D-02 0.000000000000D+00  5 1 -1 25 23 21 2 0.71937492D-01 0.56960755D-02 0.14714282D+05 0.14714282D+05 0.14714282D+05 0.12487758D+01  1  2  6  1  5  1        1 0.344339159156D+00 0.100000000000D+01
0.593325688350D-05 0.000000000000D+00 0.000000000000D+00 0.171388338892D-02 0.000000000000D+00  5 21 -1 25 23 -1 2 0.93397093D-01 0.56960755D-02 0.20043944D+05 0.20043944D+05 0.20043944D+05 0.12337211D+01  1  2 12  3  5  1        1 0.112014892203D-01 0.100000000000D+01
-.983095436880D-05 0.000000000000D+00 -.351403298100D-05 0.171388338892D-02 0.000000000000D+00  5 21 -1 25 23 -1 2 0.96850699D-01 0.56960755D-02 0.14714282D+05 0.14714282D+05 0.14714282D+05 0.12487758D+01  1  2  5  3  5  1        1 -.175121153578D-01 0.100000000000D+01
  </mgrwgt>
  </event>
  <event>
  4     66 0.49155423E-03 0.15305891E+03 0.75467711E-02 0.11758146E+00
        1 -1    0    0  501    0 0.00000000E+00 0.00000000E+00 0.28727608E+03 0.28727625E+03 0.32000000E+00 0.0000E+00 0.9000E+01
       -1 -1    0    0    0  501 0.00000000E+00 0.00000000E+00 -.81833291E+02 0.81833916E+02 0.32000000E+00 0.0000E+00 0.9000E+01
       25  1    1    2    0    0 -.73911110E+02 0.78336471E+02 0.12156400E+03 0.20494453E+03 0.12500000E+03 0.0000E+00 0.9000E+01
       23  1    1    2    0    0 0.73911110E+02 -.78336471E+02 0.83878784E+02 0.16416564E+03 0.91188000E+02 0.0000E+00 0.9000E+01
#aMCatNLO 1  0  0  1  2 0.35740545D+02 0.00000000D+00  -5  5  0 0.00000000D+00 0.00000000D+00 0.00000000D+00 0.00000000D+00 0.00000000D+00
  <mgrwgt>
 0.8477879649D-01    4    2    0
 0.153326106608017D+03 0.000000000000000D+00 0.000000000000000D+00 0.153326106608017D+03
 0.153326106608017D+03 0.000000000000000D+00 0.000000000000000D+00 -.153326106608017D+03
 0.165244736803668D+03 -.739111102977588D+02 0.783364712399940D+02 0.902042623891316D+01
 0.141407476412365D+03 0.739111102977588D+02 -.783364712399940D+02 -.902042623891316D+01
 0.000000000000000D+00 0.000000000000000D+00 -.000000000000000D+00 -.000000000000000D+00
 0.163996039168832D+03 0.000000000000000D+00 0.000000000000000D+00 0.163996039168832D+03
 0.187518582813816D+03 0.000000000000000D+00 0.000000000000000D+00 -.187518582813816D+03
 0.177512734599176D+03 -.793932255517632D+02 0.974736815342107D+02 0.902042623891316D+01
 0.131215246692423D+03 0.695507409006919D+02 -.631151009758094D+02 -.902042623891316D+01
 0.427866406910486D+02 0.984248465107131D+01 -.343585805584013D+02 -.235225436449837D+02
0.364883424572D-03 0.000000000000D+00 0.000000000000D+00 0.169369294220D-02 0.000000000000D+00  5 1 -1 25 23 21 0 0.44196381D-01 0.12589799D-01 0.23427030D+05 0.23427030D+05 0.23427030D+05 0.12263351D+01  1  2  2  1  5  1        1 0.139156224480D+00 0.100000000000D+01
-.202712263853D-04 0.000000000000D+00 -.140124842637D-05 0.169369294220D-02 0.000000000000D+00  5 1 -1 25 23 21 2 0.44196381D-01 0.12589799D-01 0.23427030D+05 0.23427030D+05 0.23427030D+05 0.12263351D+01  1  2  3  1  5  1        1 -.116264421981D-01 0.100000000000D+01
0.251209360718D-04 0.000000000000D+00 0.000000000000D+00 0.169369294220D-02 0.000000000000D+00  5 1 -1 25 23 21 2 0.44196381D-01 0.12589799D-01 0.23427030D+05 0.23427030D+05 0.23427030D+05 0.12263351D+01  1  2 15  1  5  1        1 0.144079645528D-01 0.100000000000D+01
-.996592080834D-04 0.000000000000D+00 0.000000000000D+00 0.169369294220D-02 0.000000000000D+00  5 1 -1 25 23 21 2 0.44196381D-01 0.12589799D-01 0.23427030D+05 0.23427030D+05 0.23427030D+05 0.12263351D+01  1  2  4  1  5  1        1 -.571589503402D-01 0.100000000000D+01
  </mgrwgt>
  </event>
  <event>
  4     66 0.49155423E-03 0.11901243E+03 0.75467711E-02 0.10944559E+00
        1 -1    0    0  501    0 0.00000000E+00 0.00000000E+00 0.12010196E+04 0.12010197E+04 0.32000000E+00 0.0000E+00 0.9000E+01
       -1 -1    0    0    0  501 0.00000000E+00 0.00000000E+00 -.11791683E+02 0.11796024E+02 0.32000000E+00 0.0000E+00 0.9000E+01
       25  1    1    2    0    0 -.38051843E+02 -.31331559E+02 0.66697397E+03 0.68037408E+03 0.12500000E+03 0.0000E+00 0.9000E+01
       23  1    1    2    0    0 0.38051843E+02 0.31331559E+02 0.52225395E+03 0.53244159E+03 0.91188000E+02 0.0000E+00 0.9000E+01
#aMCatNLO 1  0  0  2  2 0.23209082D+03 0.00000000D+00  -5  5  0 0.00000000D+00 0.00000000D+00 0.00000000D+00 0.00000000D+00 0.00000000D+00
  <mgrwgt>
 0.1598296323D+00    3    2    0
 0.119015549408778D+03 0.000000000000000D+00 0.000000000000000D+00 0.119015549408778D+03
 0.119015549408778D+03 0.000000000000000D+00 0.000000000000000D+00 -.119015549408778D+03
 0.134370157887065D+03 -.380518434912396D+02 -.313315589283793D+02 -.854372653152160D+00
 0.103660940930491D+03 0.380518434912396D+02 0.313315589283793D+02 0.854372653152160D+00
 0.000000000000000D+00 0.000000000000000D+00 0.000000000000000D+00 0.000000000000000D+00
 0.327384306464155D+03 0.000000000000000D+00 0.000000000000000D+00 0.327384306464155D+03
 0.249787639182399D+03 0.000000000000000D+00 0.000000000000000D+00 -.249787639182399D+03
 0.232062364670513D+03 -.108026484426170D+03 -.162964688832771D+03 -.854372653152160D+00
 0.100390571553362D+03 -.914215576412047D+00 -.419696291389383D+02 0.854372653152160D+00
 0.244719009422680D+03 0.108940700002582D+03 0.204934317971709D+03 0.775966672817561D+02
0.179631493345D-03 0.000000000000D+00 0.000000000000D+00 0.216625383649D-02 0.000000000000D+00  5 1 -1 25 23 21 0 0.18477258D+00 0.18144423D-02 0.14163959D+05 0.14163959D+05 0.14163959D+05 0.12506719D+01  1  2  2  2  5  2       -1 0.156477959554D+00 0.100000000000D+01
-.997952739971D-05 0.000000000000D+00 -.689832232502D-06 0.216625383649D-02 0.000000000000D+00  5 1 -1 25 23 21 2 0.18477258D+00 0.18144423D-02 0.14163959D+05 0.14163959D+05 0.14163959D+05 0.12506719D+01  1  2  3  2  5  2       -1 -.135977636052D-01 0.100000000000D+01
0.124393517296D-04 0.000000000000D+00 0.000000000000D+00 0.216625383649D-02 0.000000000000D+00  5 1 -1 25 23 21 2 0.18477258D+00 0.18144423D-02 0.14163959D+05 0.14163959D+05 0.14163959D+05 0.12506719D+01  1  2 15  2  5  2       -1 0.169494363255D-01 0.100000000000D+01
  </mgrwgt>
  </event>
  <event>
  4     66 0.49155423E-03 0.13658554E+03 0.75467711E-02 0.11607205E+00
        1 -1    0    0  501    0 0.00000000E+00 0.00000000E+00 0.68469747E+03 0.68469754E+03 0.32000000E+00 0.0000E+00 0.9000E+01
       -1 -1    0    0    0  501 0.00000000E+00 0.00000000E+00 -.36105602E+02 0.36107020E+02 0.32000000E+00 0.0000E+00 0.9000E+01
       25  1    1    2    0    0 0.72515453E+02 -.40074949E+02 0.52614959E+03 0.54710409E+03 0.12500000E+03 0.0000E+00 0.9000E+01
       23  1    1    2    0    0 -.72515453E+02 0.40074949E+02 0.12244228E+03 0.17370048E+03 0.91188000E+02 0.0000E+00 0.9000E+01
#aMCatNLO 1  0  0  1  1 0.89953595D+02 0.00000000D+00  -5  5  0 0.00000000D+00 0.00000000D+00 0.00000000D+00 0.00000000D+00 0.00000000D+00
  <mgrwgt>
 0.1137647466D+00    4    2    0
 0.157232159877286D+03 0.000000000000000D+00 0.000000000000000D+00 0.157232159877286D+03
 0.157232159877286D+03 0.000000000000000D+00 0.000000000000000D+00 -.157232159877286D+03
 0.168854700491281D+03 0.725154528789328D+02 -.400749489359785D+02 0.776042359639108D+02
 0.145609619263290D+03 -.725154528789328D+02 0.400749489359785D+02 -.776042359639108D+02
 0.000000000000000D+00 -.000000000000000D+00 0.000000000000000D+00 -.000000000000000D+00
 0.188889584595167D+03 0.000000000000000D+00 0.000000000000000D+00 0.188889584595167D+03
 0.243334684325379D+03 0.000000000000000D+00 0.000000000000000D+00 -.243334684325379D+03
 0.199313750807662D+03 0.118520156216611D+03 -.634943020425193D+02 0.776042359639108D+02
 0.127763392343164D+03 -.383559689386022D+02 0.226855744091221D+02 -.776042359639108D+02
 0.105147125769719D+03 -.801641872780091D+02 0.408087276333972D+02 -.544450997302115D+02
0.345886959763D-03 0.000000000000D+00 0.000000000000D+00 0.132777674096D-02 0.000000000000D+00  5 1 -1 25 23 21 0 0.10533819D+00 0.55548228D-02 0.18655609D+05 0.18655609D+05 0.18655609D+05 0.12371670D+01  1  2  2  1  5  1        1 0.147025621527D+00 0.100000000000D+01
-.187529453207D-04 0.000000000000D+00 -.132829699962D-05 0.132777674096D-02 0.000000000000D+00  5 1 -1 25 23 21 2 0.10533819D+00 0.55548228D-02 0.18655609D+05 0.18655609D+05 0.18655609D+05 0.12371670D+01  1  2  3  1  5  1        1 -.122007064689D-01 0.100000000000D+01
0.238801854339D-04 0.000000000000D+00 0.000000000000D+00 0.132777674096D-02 0.000000000000D+00  5 1 -1 25 23 21 2 0.10533819D+00 0.55548228D-02 0.18655609D+05 0.18655609D+05 0.18655609D+05 0.12371670D+01  1  2 15  1  5  1        1 0.155364998895D-01 0.100000000000D+01
-.562504575138D-04 0.000000000000D+00 0.000000000000D+00 0.132777674096D-02 0.000000000000D+00  5 1 -1 25 23 21 2 0.10533819D+00 0.55548228D-02 0.18655609D+05 0.18655609D+05 0.18655609D+05 0.12371670D+01  1  2  4  1  5  1        1 -.365966683704D-01 0.100000000000D+01
  </mgrwgt>
  </event>
  <event>
  4     66 0.49155423E-03 0.15863281E+03 0.75467711E-02 0.11746990E+00
        1 -1    0    0  501    0 0.00000000E+00 0.00000000E+00 0.68726276E+03 0.68726284E+03 0.32000000E+00 0.0000E+00 0.9000E+01
       -1 -1    0    0    0  501 0.00000000E+00 0.00000000E+00 -.36681618E+02 0.36683014E+02 0.32000000E+00 0.0000E+00 0.9000E+01
       25  1    1    2    0    0 -.88197119E+02 0.74486361E+02 0.33343611E+03 0.37434154E+03 0.12500000E+03 0.0000E+00 0.9000E+01
       23  1    1    2    0    0 0.88197119E+02 -.74486361E+02 0.31714503E+03 0.34960431E+03 0.91188000E+02 0.0000E+00 0.9000E+01
#aMCatNLO 1  0  0  1  2 0.27643876D+02 0.00000000D+00  -5  5  0 0.00000000D+00 0.00000000D+00 0.00000000D+00 0.00000000D+00 0.00000000D+00
  <mgrwgt>
 0.1237275561D+00    4    2    0
 0.158777966469063D+03 0.000000000000000D+00 0.000000000000000D+00 0.158777966469063D+03
 0.158777966469063D+03 0.000000000000000D+00 0.000000000000000D+00 -.158777966469063D+03
 0.170287354104129D+03 -.881971190524314D+02 0.744863613254103D+02 -.677001736604975D+01
 0.147268578833996D+03 0.881971190524314D+02 -.744863613254103D+02 0.677001736604975D+01
 0.000000000000000D+00 -.000000000000000D+00 -.000000000000000D+00 -.000000000000000D+00
 0.164648670340922D+03 0.000000000000000D+00 0.000000000000000D+00 0.164648670340922D+03
 0.195628499185701D+03 0.000000000000000D+00 0.000000000000000D+00 -.195628499185701D+03
 0.176099895741767D+03 -.857830390145830D+02 0.893398587560289D+02 -.677001736604975D+01
 0.142656993478899D+03 0.902177001705117D+02 -.620540078096960D+02 0.677001736604975D+01
 0.415202803059560D+02 -.443466115592871D+01 -.272858509463329D+02 -.309798288447784D+02
0.399567963183D-03 0.000000000000D+00 0.000000000000D+00 0.165429594781D-02 0.000000000000D+00  5 1 -1 25 23 21 0 0.10573285D+00 0.56434390D-02 0.25164367D+05 0.25164367D+05 0.25164367D+05 0.12229926D+01  1  2  2  1  5  1        1 0.166026279334D+00 0.100000000000D+01
-.221981975972D-04 0.000000000000D+00 -.153444618729D-05 0.165429594781D-02 0.000000000000D+00  5 1 -1 25 23 21 2 0.10573285D+00 0.56434390D-02 0.25164367D+05 0.25164367D+05 0.25164367D+05 0.12229926D+01  1  2  3  1  5  1        1 -.137959487125D-01 0.100000000000D+01
0.275249006694D-04 0.000000000000D+00 0.000000000000D+00 0.165429594781D-02 0.000000000000D+00  5 1 -1 25 23 21 2 0.10573285D+00 0.56434390D-02 0.25164367D+05 0.25164367D+05 0.25164367D+05 0.12229926D+01  1  2 15  1  5  1        1 0.171064392182D-01 0.100000000000D+01
-.733869311452D-04 0.000000000000D+00 0.000000000000D+00 0.165429594781D-02 0.000000000000D+00  5 1 -1 25 23 21 2 0.10573285D+00 0.56434390D-02 0.25164367D+05 0.25164367D+05 0.25164367D+05 0.12229926D+01  1  2  4  1  5  1        1 -.456092137127D-01 0.100000000000D+01
  </mgrwgt>
  </event>
  <event>
  4     66 0.49155423E-03 0.98842013E+02 0.75467711E-02 0.10883328E+00
        1 -1    0    0  501    0 0.00000000E+00 0.00000000E+00 0.21272727E+03 0.21272751E+03 0.32000000E+00 0.0000E+00 0.9000E+01
       -1 -1    0    0    0  501 0.00000000E+00 0.00000000E+00 -.35682729E+03 0.35682743E+03 0.32000000E+00 0.0000E+00 0.9000E+01
       25  1    1    2    0    0 -.95838086E+02 0.18850367E+03 0.69671424E+02 0.25533837E+03 0.12500000E+03 0.0000E+00 0.9000E+01
       23  1    1    2    0    0 0.95838086E+02 -.18850367E+03 -.21377144E+03 0.31421657E+03 0.91188000E+02 0.0000E+00 0.9000E+01
#aMCatNLO 1  0  0  2  1 0.10348198D+03 0.00000000D+00  -5  5  0 0.00000000D+00 0.00000000D+00 0.00000000D+00 0.00000000D+00 0.00000000D+00
  <mgrwgt>
 0.1431701068D+00    9    2    0
 0.275512255923441D+03 0.000000000000000D+00 0.000000000000000D+00 0.275512255923441D+03
 0.275512255923441D+03 0.000000000000000D+00 0.000000000000000D+00 -.275512255923441D+03
 0.282145126602369D+03 -.958380858045835D+02 0.188503672715348D+03 0.138788685229038D+03
 0.268879385244513D+03 0.958380858045835D+02 -.188503672715348D+03 -.138788685229038D+03
 0.000000000000000D+00 0.000000000000000D+00 -.000000000000000D+00 -.000000000000000D+00
 0.302725078699543D+03 0.000000000000000D+00 0.000000000000000D+00 0.302725078699543D+03
 0.399862237506497D+03 0.000000000000000D+00 0.000000000000000D+00 -.399862237506497D+03
 0.325146235267125D+03 -.134748432752194D+03 0.229511731795146D+03 0.138788685229038D+03
 0.235510998187384D+03 0.635208060791539D+02 -.154444122486637D+03 -.138788685229038D+03
 0.141930082751531D+03 0.712276266730404D+02 -.750676093085090D+02 -.971371588069547D+02
0.267713704656D-02 0.000000000000D+00 0.000000000000D+00 0.100135487070D-02 0.000000000000D+00  5 1 -1 25 23 21 0 0.32727301D-01 0.54896535D-01 0.56629728D+05 0.56629728D+05 0.56629728D+05 0.11869633D+01  1  2  2  2  5  2       -1 0.125736778533D+00 0.100000000000D+01
-.144849401330D-03 0.000000000000D+00 -.102809111652D-04 0.100135487070D-02 0.000000000000D+00  5 1 -1 25 23 21 2 0.32727301D-01 0.54896535D-01 0.56629728D+05 0.56629728D+05 0.56629728D+05 0.11869633D+01  1  2  3  2  5  2       -1 -.958479883789D-02 0.100000000000D+01
0.183472306833D-03 0.000000000000D+00 0.000000000000D+00 0.100135487070D-02 0.000000000000D+00  5 1 -1 25 23 21 2 0.32727301D-01 0.54896535D-01 0.56629728D+05 0.56629728D+05 0.56629728D+05 0.11869633D+01  1  2 15  2  5  2       -1 0.121405068793D-01 0.100000000000D+01
0.186077915216D-02 0.000000000000D+00 0.000000000000D+00 0.100135487070D-02 0.000000000000D+00  5 1 -1 25 23 21 2 0.32727301D-01 0.81419181D-01 0.86374335D+05 0.86374335D+05 0.86374335D+05 0.11694611D+01  1  2 12  2  5  2       -1 0.545084507629D-01 0.100000000000D+01
-.244117662901D-02 0.000000000000D+00 0.000000000000D+00 0.100135487070D-02 0.000000000000D+00  5 1 -1 25 23 21 2 0.32727301D-01 0.54896535D-01 0.56629728D+05 0.56629728D+05 0.56629728D+05 0.11869633D+01  1  2  4  2  5  2       -1 -.161534577996D+00 0.100000000000D+01
-.293741168403D-02 0.000000000000D+00 -.958217151646D-03 0.100135487070D-02 0.000000000000D+00  5 1 -1 25 23 21 2 0.32727301D-01 0.85323459D-01 0.56629728D+05 0.56629728D+05 0.56629728D+05 0.11869633D+01  1  2  5  2  5  2       -1 -.807573395080D-01 0.100000000000D+01
0.313622341837D-02 0.000000000000D+00 0.872036935444D-03 0.100135487070D-02 0.000000000000D+00  5 1 -1 25 23 21 2 0.32727301D-01 0.54896535D-01 0.56629728D+05 0.56629728D+05 0.56629728D+05 0.11869633D+01  1  2  6  2  5  2       -1 0.207526370835D+00 0.100000000000D+01
0.876231645851D-04 0.000000000000D+00 0.000000000000D+00 0.100135487070D-02 0.000000000000D+00  5 1 21 25 23 1 2 0.32727301D-01 0.81419181D-01 0.86374335D+05 0.86374335D+05 0.86374335D+05 0.11694611D+01  1  2 12  4  5  2       -1 0.225125591395D-01 0.100000000000D+01
-.113154915582D-03 0.000000000000D+00 -.490394329035D-04 0.100135487070D-02 0.000000000000D+00  5 1 21 25 23 1 2 0.32727301D-01 0.85323459D-01 0.56629728D+05 0.56629728D+05 0.56629728D+05 0.11869633D+01  1  2  5  4  5  2       -1 -.273778430133D-01 0.100000000000D+01
  </mgrwgt>
  </event>
  <event>
  4     66 0.49155423E-03 0.12073159E+03 0.75467711E-02 0.11754394E+00
        1 -1    0    0  501    0 0.00000000E+00 0.00000000E+00 0.46079955E+02 0.46081066E+02 0.32000000E+00 0.0000E+00 0.9000E+01
       -1 -1    0    0    0  501 0.00000000E+00 0.00000000E+00 -.32043468E+03 0.32043484E+03 0.32000000E+00 0.0000E+00 0.9000E+01
       25  1    1    2    0    0 0.36123022E+02 -.39118121E+02 -.13354313E+03 0.19050950E+03 0.12500000E+03 0.0000E+00 0.9000E+01
       23  1    1    2    0    0 -.36123022E+02 0.39118121E+02 -.14081159E+03 0.17600641E+03 0.91188000E+02 0.0000E+00 0.9000E+01
#aMCatNLO 1  0  0  1  1 0.87730630D+02 0.00000000D+00  -5  5  0 0.00000000D+00 0.00000000D+00 0.00000000D+00 0.00000000D+00 0.00000000D+00
  <mgrwgt>
 0.1404322682D+00    3    2    0
 0.121514807639776D+03 0.000000000000000D+00 0.000000000000000D+00 0.121514807639776D+03
 0.121514807639776D+03 0.000000000000000D+00 0.000000000000000D+00 -.121514807639776D+03
 0.136553609901779D+03 0.361230216915629D+02 -.391181207692446D+02 0.136670519337921D+02
 0.106476005377772D+03 -.361230216915629D+02 0.391181207692446D+02 -.136670519337921D+02
 0.000000000000000D+00 0.000000000000000D+00 -.000000000000000D+00 -.000000000000000D+00
 0.154924347486205D+03 0.000000000000000D+00 0.000000000000000D+00 0.154924347486205D+03
 0.203959705746901D+03 0.000000000000000D+00 0.000000000000000D+00 -.203959705746901D+03
 0.128450839086665D+03 -.803188821911541D+01 -.249663478535188D+02 0.136670519337921D+02
 0.129928837493357D+03 -.755126794096412D+02 0.517426169437822D+02 -.136670519337921D+02
 0.100504376653084D+03 0.835445676287566D+02 -.267762690902634D+02 -.490353582606962D+02
0.334187840440D-03 0.000000000000D+00 0.000000000000D+00 0.209286117868D-02 0.000000000000D+00  5 1 -1 25 23 21 0 0.70893216D-02 0.49297741D-01 0.14576116D+05 0.14576116D+05 0.14576116D+05 0.12492443D+01  1  2  2  1  5  1        1 0.137504543540D+00 0.100000000000D+01
-.185650472582D-04 0.000000000000D+00 -.128336930097D-05 0.209286117868D-02 0.000000000000D+00  5 1 -1 25 23 21 2 0.70893216D-02 0.49297741D-01 0.14576116D+05 0.14576116D+05 0.14576116D+05 0.12492443D+01  1  2  3  1  5  1        1 -.119211240108D-01 0.100000000000D+01
0.231244618792D-04 0.000000000000D+00 0.000000000000D+00 0.209286117868D-02 0.000000000000D+00  5 1 -1 25 23 21 2 0.70893216D-02 0.49297741D-01 0.14576116D+05 0.14576116D+05 0.14576116D+05 0.12492443D+01  1  2 15  1  5  1        1 0.148488486946D-01 0.100000000000D+01
  </mgrwgt>
  </event>
  <event>
  4     66 0.49155423E-03 0.11361541E+03 0.75467711E-02 0.11573475E+00
        1 -1    0    0  501    0 0.00000000E+00 0.00000000E+00 0.13964410E+03 0.13964446E+03 0.32000000E+00 0.0000E+00 0.9000E+01
       -1 -1    0    0    0  501 0.00000000E+00 0.00000000E+00 -.11529559E+03 0.11529603E+03 0.32000000E+00 0.0000E+00 0.9000E+01
       25  1    1    2    0    0 0.33402840E+02 0.90163005E+01 0.69855371E+02 0.14731536E+03 0.12500000E+03 0.0000E+00 0.9000E+01
       23  1    1    2    0    0 -.33402840E+02 -.90163005E+01 -.45506858E+02 0.10762513E+03 0.91188000E+02 0.0000E+00 0.9000E+01
#aMCatNLO 1  0  0  1  2 0.12371392D+03 0.00000000D+00  -5  5  0 0.00000000D+00 0.00000000D+00 0.00000000D+00 0.00000000D+00 0.00000000D+00
  <mgrwgt>
 0.1583180994D+00    3    2    0
 0.126887554149276D+03 0.000000000000000D+00 0.000000000000000D+00 0.126887554149276D+03
 0.126887554149276D+03 0.000000000000000D+00 0.000000000000000D+00 -.126887554149276D+03
 0.141289574711908D+03 0.334028401419572D+02 0.901630050107588D+01 0.560419531957714D+02
 0.112485533586643D+03 -.334028401419572D+02 -.901630050107588D+01 -.560419531957714D+02
 0.000000000000000D+00 0.000000000000000D+00 -.000000000000000D+00 -.000000000000000D+00
 0.166553636434428D+03 0.000000000000000D+00 0.000000000000000D+00 0.166553636434428D+03
 0.291853315471382D+03 0.000000000000000D+00 0.000000000000000D+00 -.291853315471382D+03
 0.156711452816637D+03 0.136274921853717D+02 0.748803738147834D+02 0.560419531957714D+02
 0.125612722792656D+03 -.492030402513542D+02 0.436080852068893D+02 -.560419531957714D+02
 0.176082776296517D+03 0.355755480659825D+02 -.118488459021673D+03 -.125299679036954D+03
0.288125077904D-03 0.000000000000D+00 0.000000000000D+00 0.171107118447D-02 0.000000000000D+00  5 1 -1 25 23 21 0 0.21483770D-01 0.17737845D-01 0.12908461D+05 0.12908461D+05 0.12908461D+05 0.12553266D+01  1  2  2  1  5  1        1 0.154929009831D+00 0.100000000000D+01
-.157693881493D-04 0.000000000000D+00 -.110647616423D-05 0.171107118447D-02 0.000000000000D+00  5 1 -1 25 23 21 2 0.21483770D-01 0.17737845D-01 0.12908461D+05 0.12908461D+05 0.12908461D+05 0.12553266D+01  1  2  3  1  5  1        1 -.133622618136D-01 0.100000000000D+01
0.197690006059D-04 0.000000000000D+00 0.000000000000D+00 0.171107118447D-02 0.000000000000D+00  5 1 -1 25 23 21 2 0.21483770D-01 0.17737845D-01 0.12908461D+05 0.12908461D+05 0.12908461D+05 0.12553266D+01  1  2 15  1  5  1        1 0.167513513769D-01 0.100000000000D+01
  </mgrwgt>
  </event>
  <event>
  4     66 0.49155423E-03 0.11314261E+03 0.75467711E-02 0.10839965E+00
        1 -1    0    0  501    0 0.00000000E+00 0.00000000E+00 0.10059730E+04 0.10059730E+04 0.32000000E+00 0.0000E+00 0.9000E+01
       -1 -1    0    0    0  501 0.00000000E+00 0.00000000E+00 -.13418653E+02 0.13422468E+02 0.32000000E+00 0.0000E+00 0.9000E+01
       25  1    1    2    0    0 0.32925997E+02 0.28069809E+01 0.67834612E+03 0.69055808E+03 0.12500000E+03 0.0000E+00 0.9000E+01
       23  1    1    2    0    0 -.32925997E+02 -.28069809E+01 0.31420818E+03 0.32883739E+03 0.91188000E+02 0.0000E+00 0.9000E+01
#aMCatNLO 1  0  0  1  2 0.26044558D+03 0.00000000D+00  -5  5  0 0.00000000D+00 0.00000000D+00 0.00000000D+00 0.00000000D+00 0.00000000D+00
  <mgrwgt>
 0.1352488792D+00    5    2    0
 0.116192825873772D+03 0.000000000000000D+00 0.000000000000000D+00 0.116192825873772D+03
 0.116192825873772D+03 0.000000000000000D+00 0.000000000000000D+00 -.116192825873772D+03
 0.131920450623903D+03 0.329259970707017D+02 0.280698093430886D+01 0.261916946329994D+02
 0.100465201123641D+03 -.329259970707017D+02 -.280698093430886D+01 -.261916946329994D+02
 0.000000000000000D+00 -.000000000000000D+00 -.000000000000000D+00 0.000000000000000D+00
 0.324481469031898D+03 0.000000000000000D+00 0.000000000000000D+00 0.324481469031898D+03
 0.287609841042269D+03 0.000000000000000D+00 0.000000000000000D+00 -.287609841042269D+03
 0.233944056741167D+03 0.187183539490362D+03 0.581475653886386D+02 0.261916946329994D+02
 0.115104638300803D+03 0.579635890465835D+02 0.298000652927002D+02 -.261916946329994D+02
 0.263042615032197D+03 -.245147128536946D+03 -.879476306813388D+02 0.368716279896296D+02
0.133222091508D-03 0.000000000000D+00 0.000000000000D+00 0.214948761858D-02 0.000000000000D+00  5 1 -1 25 23 21 0 0.15476537D+00 0.20647056D-02 0.12801251D+05 0.12801251D+05 0.12801251D+05 0.12557474D+01  1  2  2  1  5  1        1 0.131658548549D+00 0.100000000000D+01
-.739485914328D-05 0.000000000000D+00 -.511607909573D-06 0.214948761858D-02 0.000000000000D+00  5 1 -1 25 23 21 2 0.15476537D+00 0.20647056D-02 0.12801251D+05 0.12801251D+05 0.12801251D+05 0.12557474D+01  1  2  3  1  5  1        1 -.115241082807D-01 0.100000000000D+01
0.921896410854D-05 0.000000000000D+00 0.000000000000D+00 0.214948761858D-02 0.000000000000D+00  5 1 -1 25 23 21 2 0.15476537D+00 0.20647056D-02 0.12801251D+05 0.12801251D+05 0.12801251D+05 0.12557474D+01  1  2 15  1  5  1        1 0.143667835403D-01 0.100000000000D+01
0.447028974644D-04 0.000000000000D+00 -.472079004825D-04 0.214948761858D-02 0.000000000000D+00  5 1 -1 25 23 21 2 0.60387357D+00 0.20647056D-02 0.12801251D+05 0.12801251D+05 0.12801251D+05 0.12557474D+01  1  2  5  1  5  1        1 0.721093173347D-03 0.100000000000D+01
0.798098156625D-05 0.000000000000D+00 -.764481494686D-05 0.214948761858D-02 0.000000000000D+00  5 21 -1 25 23 -1 2 0.60387357D+00 0.20647056D-02 0.12801251D+05 0.12801251D+05 0.12801251D+05 0.12557474D+01  1  2  5  3  5  1        1 0.265621742494D-04 0.100000000000D+01
  </mgrwgt>
  </event>
  <event>
  5     66 0.49155423E-03 0.15807644E+03 0.75467711E-02 0.10262086E+00
       21 -1    0    0  501  502 0.00000000E+00 0.00000000E+00 0.17434396E+03 0.17434557E+03 0.75000000E+00 0.0000E+00 0.9000E+01
       -1 -1    0    0    0  501 0.00000000E+00 0.00000000E+00 -.12988185E+04 0.12988185E+04 0.32000000E+00 0.0000E+00 0.9000E+01
       25  1    1    2    0    0 -.78941140E+02 0.20191671E+03 -.40825185E+03 0.47884928E+03 0.12500000E+03 0.0000E+00 0.9000E+01
       23  1    1    2    0    0 -.23993378E+03 0.39916775E+02 -.42970453E+03 0.50211832E+03 0.91188000E+02 0.0000E+00 0.9000E+01
       -1  1    1    2    0  502 0.31887492E+03 -.24183349E+03 -.28651816E+03 0.49219651E+03 0.32000000E+00 0.0000E+00 0.9000E+01
#aMCatNLO 2  0  0  1  2 0.40020576D+03 0.00000000D+00  -5  5  0 0.00000000D+00 0.00000000D+00 0.00000000D+00 0.00000000D+00 0.00000000D+00
  <mgrwgt>
 0.7707078996D-02    1    2    0
 0.158083743688984D+03 0.000000000000000D+00 0.000000000000000D+00 0.158083743688984D+03
 0.158083743688984D+03 0.000000000000000D+00 0.000000000000000D+00 -.158083743688984D+03
 0.169643674655670D+03 0.831229503215395D+02 0.790079397944151D+02 0.151556258989678D+01
 0.146523812722298D+03 -.831229503215395D+02 -.790079397944151D+02 -.151556258989678D+01
 0.000000000000000D+00 0.000000000000000D+00 -.000000000000000D+00 0.000000000000000D+00
 0.621771954863123D+03 0.000000000000000D+00 0.000000000000000D+00 0.621771954863123D+03
 0.364188693364843D+03 0.000000000000000D+00 0.000000000000000D+00 -.364188693364843D+03
 0.250258583930913D+03 -.789411402062105D+02 0.201916711255125D+03 0.151556258989678D+01
 0.259767422245137D+03 -.239933775074025D+03 0.399167754790678D+02 -.151556258989678D+01
 0.475934642051916D+03 0.318874915280235D+03 -.241833486734192D+03 0.257583261498280D+03
0.312458925067D-03 0.000000000000D+00 0.000000000000D+00 0.166172137947D-02 0.679132126399D-07  5 21 -1 25 23 -1 2 0.26822271D-01 0.19981833D+00 0.20712636D+06 0.20712636D+06 0.20712636D+06 0.11355932D+01  1  2  1  3  5  1        1 0.770707899578D-02 0.100000000000D+01
  </mgrwgt>
  </event>
  <event>
  4     66 0.49155423E-03 0.13140612E+03 0.75467711E-02 0.11246238E+00
        1 -1    0    0  501    0 0.00000000E+00 0.00000000E+00 0.33136879E+02 0.33138424E+02 0.32000000E+00 0.0000E+00 0.9000E+01
       -1 -1    0    0    0  501 0.00000000E+00 0.00000000E+00 -.52466633E+03 0.52466643E+03 0.32000000E+00 0.0000E+00 0.9000E+01
       25  1    1    2    0    0 0.43393923E+02 0.60065047E+02 -.29451232E+03 0.32841033E+03 0.12500000E+03 0.0000E+00 0.9000E+01
       23  1    1    2    0    0 -.43393923E+02 -.60065047E+02 -.19701714E+03 0.22939452E+03 0.91188000E+02 0.0000E+00 0.9000E+01
#aMCatNLO 1  0  0  1  2 0.15882921D+03 0.00000000D+00  -5  5  0 0.00000000D+00 0.00000000D+00 0.00000000D+00 0.00000000D+00 0.00000000D+00
  <mgrwgt>
 0.1169249649D+00    5    2    0
 0.131856978732637D+03 0.000000000000000D+00 0.000000000000000D+00 0.131856978732637D+03
 0.131856978732637D+03 0.000000000000000D+00 0.000000000000000D+00 -.131856978732637D+03
 0.145716216078773D+03 0.433939226537129D+02 0.600650474573890D+02 -.108338902976202D+02
 0.117997741386502D+03 -.433939226537129D+02 -.600650474573890D+02 0.108338902976202D+02
 0.000000000000000D+00 -.000000000000000D+00 -.000000000000000D+00 0.000000000000000D+00
 0.306094773488361D+03 0.000000000000000D+00 0.000000000000000D+00 0.306094773488361D+03
 0.195370168671157D+03 0.000000000000000D+00 0.000000000000000D+00 -.195370168671157D+03
 0.214511907052258D+03 0.936604845910613D+02 0.146631165563066D+03 -.108338902976202D+02
 0.933383288341266D+02 -.139038940268339D+02 -.927905369405946D+01 0.108338902976202D+02
 0.193614706273134D+03 -.797565905642274D+02 -.137352111869006D+03 0.110724604817204D+03
0.437809374030D-03 0.000000000000D+00 0.000000000000D+00 0.192375237013D-02 0.000000000000D+00  5 1 -1 25 23 21 0 0.50981077D-02 0.80718023D-01 0.17267569D+05 0.17267569D+05 0.17267569D+05 0.12409122D+01  1  2  2  1  5  1        1 0.109646969834D+00 0.100000000000D+01
-.243223960662D-04 0.000000000000D+00 -.168130327413D-05 0.192375237013D-02 0.000000000000D+00  5 1 -1 25 23 21 2 0.50981077D-02 0.80718023D-01 0.17267569D+05 0.17267569D+05 0.17267569D+05 0.12409122D+01  1  2  3  1  5  1        1 -.937993934003D-02 0.100000000000D+01
0.302256910503D-04 0.000000000000D+00 0.000000000000D+00 0.192375237013D-02 0.000000000000D+00  5 1 -1 25 23 21 2 0.50981077D-02 0.80718023D-01 0.17267569D+05 0.17267569D+05 0.17267569D+05 0.12409122D+01  1  2 15  1  5  1        1 0.116565468217D-01 0.100000000000D+01
0.473742078405D-05 0.000000000000D+00 -.171361866008D-03 0.192375237013D-02 0.000000000000D+00  5 1 -1 25 23 21 2 0.17437208D-01 0.80718023D-01 0.17267569D+05 0.17267569D+05 0.17267569D+05 0.12409122D+01  1  2  5  1  5  1        1 0.357447064182D-03 0.100000000000D+01
0.668415188745D-05 0.000000000000D+00 -.245579128458D-04 0.192375237013D-02 0.000000000000D+00  5 21 -1 25 23 -1 2 0.17437208D-01 0.80718023D-01 0.17267569D+05 0.17267569D+05 0.17267569D+05 0.12409122D+01  1  2  5  3  5  1        1 0.464394056105D-02 0.100000000000D+01
  </mgrwgt>
  </event>
  <event>
  5     66 0.49155423E-03 0.14774315E+03 0.75467711E-02 0.11491874E+00
       21 -1    0    0  501  502 0.00000000E+00 0.00000000E+00 0.26976649E+03 0.26976753E+03 0.75000000E+00 0.0000E+00 0.9000E+01
       -1 -1    0    0    0  501 0.00000000E+00 0.00000000E+00 -.17420220E+03 0.17420249E+03 0.32000000E+00 0.0000E+00 0.9000E+01
       25  1    1    2    0    0 -.24059712E+02 -.14046846E+03 -.32156212E+02 0.19227397E+03 0.12500000E+03 0.0000E+00 0.9000E+01
       23  1    1    2    0    0 0.54973897E+02 0.52929773E+02 0.98388967E+02 0.15433512E+03 0.91188000E+02 0.0000E+00 0.9000E+01
       -1  1    1    2    0  502 -.30914185E+02 0.87538689E+02 0.29331539E+02 0.97360929E+02 0.32000000E+00 0.0000E+00 0.9000E+01
#aMCatNLO 2  0  0  1  2 0.92837002D+02 0.00000000D+00  -5  5  0 0.00000000D+00 0.00000000D+00 0.00000000D+00 0.00000000D+00 0.00000000D+00
  <mgrwgt>
 0.1662098799D-01    1    2    0
 0.163655414420848D+03 0.000000000000000D+00 0.000000000000000D+00 0.163655414420848D+03
 0.163655414420848D+03 0.000000000000000D+00 0.000000000000000D+00 -.163655414420848D+03
 0.174821785973339D+03 -.415173909899950D+02 -.910341221496677D+02 -.701908234795059D+02
 0.152489042868358D+03 0.415173909899950D+02 0.910341221496677D+02 0.701908234795059D+02
 0.000000000000000D+00 -.000000000000000D+00 0.000000000000000D+00 0.000000000000000D+00
 0.222314276150508D+03 0.000000000000000D+00 0.000000000000000D+00 0.222314276150508D+03
 0.211385854171135D+03 0.000000000000000D+00 0.000000000000000D+00 -.211385854171135D+03
 0.202143538701502D+03 -.240597120825677D+02 -.140468461914191D+03 -.701908234795059D+02
 0.138078576394739D+03 0.549738971086047D+02 0.529297728236109D+02 0.701908234795059D+02
 0.934780152254023D+02 -.309141850260370D+02 0.875386890905800D+02 0.109284219793732D+02
0.182571544144D-04 0.000000000000D+00 0.000000000000D+00 0.137029506155D-02 0.776085779842D-07  5 21 -1 25 23 -1 2 0.41502587D-01 0.26800407D-01 0.40262481D+05 0.40262481D+05 0.40262481D+05 0.12017119D+01  1  2  1  3  5  1        1 0.166209879942D-01 0.100000000000D+01
  </mgrwgt>
  </event>
  <event>
  4     66 0.49155423E-03 0.26016212E+03 0.75467711E-02 0.10460202E+00
        1 -1    0    0  501    0 0.00000000E+00 0.00000000E+00 0.22706749E+03 0.22706772E+03 0.32000000E+00 0.0000E+00 0.9000E+01
       -1 -1    0    0    0  501 0.00000000E+00 0.00000000E+00 -.33322363E+03 0.33322378E+03 0.32000000E+00 0.0000E+00 0.9000E+01
       25  1    1    2    0    0 0.23599290E+03 -.84199808E+01 -.14530922E+03 0.30414358E+03 0.12500000E+03 0.0000E+00 0.9000E+01
       23  1    1    2    0    0 -.23599290E+03 0.84199808E+01 0.39153084E+02 0.25614793E+03 0.91188000E+02 0.0000E+00 0.9000E+01
#aMCatNLO 1  0  0  2  2 0.22302343D+03 0.00000000D+00  -5  5  0 0.00000000D+00 0.00000000D+00 0.00000000D+00 0.00000000D+00 0.00000000D+00
  <mgrwgt>
 0.1854522990D+00    3    2    0
 0.275071555759266D+03 0.000000000000000D+00 0.000000000000000D+00 0.275071555759266D+03
 0.275071555759266D+03 0.000000000000000D+00 0.000000000000000D+00 -.275071555759266D+03
 0.281715053153810D+03 0.235992900434458D+03 -.841998083269942D+01 -.893018815074077D+02
 0.268428058364721D+03 -.235992900434458D+03 0.841998083269942D+01 0.893018815074077D+02
 0.000000000000000D+00 0.000000000000000D+00 -.000000000000000D+00 0.000000000000000D+00
 0.492801989978513D+03 0.000000000000000D+00 0.000000000000000D+00 0.492801989978513D+03
 0.360262566763159D+03 0.000000000000000D+00 0.000000000000000D+00 -.360262566763159D+03
 0.224972272398308D+03 0.156489982731776D+03 0.502352725871331D+02 -.893018815074077D+02
 0.368657995328664D+03 -.335956324704287D+03 0.821704814770712D+02 0.893018815074077D+02
 0.259434289014701D+03 0.179466341972510D+03 -.132405754064204D+03 0.132539423215354D+03
0.370520822323D-02 0.000000000000D+00 0.000000000000D+00 0.118563704151D-02 0.000000000000D+00  5 1 -1 25 23 21 0 0.34933490D-01 0.51265203D-01 0.67684331D+05 0.67684331D+05 0.67684331D+05 0.11794723D+01  1  2  2  2  5  2       -1 0.182105009849D+00 0.100000000000D+01
-.205067685487D-03 0.000000000000D+00 -.142289751810D-04 0.118563704151D-02 0.000000000000D+00  5 1 -1 25 23 21 2 0.34933490D-01 0.51265203D-01 0.67684331D+05 0.67684331D+05 0.67684331D+05 0.11794723D+01  1  2  3  2  5  2       -1 -.140210963674D-01 0.100000000000D+01
0.254023973917D-03 0.000000000000D+00 0.000000000000D+00 0.118563704151D-02 0.000000000000D+00  5 1 -1 25 23 21 2 0.34933490D-01 0.51265203D-01 0.67684331D+05 0.67684331D+05 0.67684331D+05 0.11794723D+01  1  2 15  2  5  2       -1 0.173683855136D-01 0.100000000000D+01
  </mgrwgt>
  </event>
  <event>
  4     66 0.49155423E-03 0.31955307E+03 0.75467711E-02 0.10429991E+00
        1 -1    0    0  501    0 0.00000000E+00 0.00000000E+00 0.21377026E+03 0.21377050E+03 0.32000000E+00 0.0000E+00 0.9000E+01
       -1 -1    0    0    0  501 0.00000000E+00 0.00000000E+00 -.48939262E+03 0.48939272E+03 0.32000000E+00 0.0000E+00 0.9000E+01
       25  1    1    2    0    0 -.22224707E+03 -.20194796E+03 -.85839160E+02 0.33640764E+03 0.12500000E+03 0.0000E+00 0.9000E+01
       23  1    1    2    0    0 0.22224707E+03 0.20194796E+03 -.18978320E+03 0.36675558E+03 0.91188000E+02 0.0000E+00 0.9000E+01
#aMCatNLO 1  0  0  1  1 0.14841386D+03 0.00000000D+00  -5  5  0 0.00000000D+00 0.00000000D+00 0.00000000D+00 0.00000000D+00 0.00000000D+00
  <mgrwgt>
 0.1710465272D+00    4    2    0
 0.323446607469182D+03 0.000000000000000D+00 0.000000000000000D+00 0.323446607469182D+03
 0.323446607469182D+03 0.000000000000000D+00 0.000000000000000D+00 -.323446607469182D+03
 0.329096495647941D+03 -.222247071980899D+03 -.201947962630494D+03 0.500276207016207D+02
 0.317796719290422D+03 0.222247071980899D+03 0.201947962630494D+03 -.500276207016207D+02
 0.000000000000000D+00 0.000000000000000D+00 -.000000000000000D+00 -.000000000000000D+00
 0.366092727175076D+03 0.000000000000000D+00 0.000000000000000D+00 0.366092727175076D+03
 0.492662394826956D+03 0.000000000000000D+00 0.000000000000000D+00 -.492662394826956D+03
 0.324601518503223D+03 -.260755316502163D+03 -.138726521968187D+03 0.500276207016207D+02
 0.339098342564862D+03 0.183550494786029D+03 0.265478601052844D+03 -.500276207016207D+02
 0.195055260933947D+03 0.772048217161337D+02 -.126752079084657D+03 -.126569667651879D+03
0.819416705491D-02 0.000000000000D+00 0.000000000000D+00 0.124557920295D-02 0.000000000000D+00  5 1 -1 25 23 21 0 0.32887759D-01 0.75291199D-01 0.10211416D+06 0.10211416D+06 0.10211416D+06 0.11627379D+01  1  2  2  1  5  1        1 0.204720518895D+00 0.100000000000D+01
-.455150322430D-03 0.000000000000D+00 -.314677590646D-04 0.124557920295D-02 0.000000000000D+00  5 1 -1 25 23 21 2 0.32887759D-01 0.75291199D-01 0.10211416D+06 0.10211416D+06 0.10211416D+06 0.11627379D+01  1  2  3  1  5  1        1 -.153735826206D-01 0.100000000000D+01
0.561180578304D-03 0.000000000000D+00 0.000000000000D+00 0.124557920295D-02 0.000000000000D+00  5 1 -1 25 23 21 2 0.32887759D-01 0.75291199D-01 0.10211416D+06 0.10211416D+06 0.10211416D+06 0.11627379D+01  1  2 15  1  5  1        1 0.189549596264D-01 0.100000000000D+01
-.110298253207D-02 0.000000000000D+00 0.000000000000D+00 0.124557920295D-02 0.000000000000D+00  5 1 -1 25 23 21 2 0.32887759D-01 0.75291199D-01 0.10211416D+06 0.10211416D+06 0.10211416D+06 0.11627379D+01  1  2  4  1  5  1        1 -.372553687215D-01 0.100000000000D+01
  </mgrwgt>
  </event>
  <event>
  4     66 0.49155423E-03 0.21445765E+03 0.75467711E-02 0.10502446E+00
        1 -1    0    0  501    0 0.00000000E+00 0.00000000E+00 0.50233474E+02 0.50234494E+02 0.32000000E+00 0.0000E+00 0.9000E+01
       -1 -1    0    0    0  501 0.00000000E+00 0.00000000E+00 -.14482362E+04 0.14482362E+04 0.32000000E+00 0.0000E+00 0.9000E+01
       25  1    1    2    0    0 -.44264677E+02 0.17926295E+03 -.11707259E+04 0.11917712E+04 0.12500000E+03 0.0000E+00 0.9000E+01
       23  1    1    2    0    0 0.44264677E+02 -.17926295E+03 -.22727683E+03 0.30669949E+03 0.91188000E+02 0.0000E+00 0.9000E+01
#aMCatNLO 1  0  0  1  2 0.26634621D+03 0.00000000D+00  -5  5  0 0.00000000D+00 0.00000000D+00 0.00000000D+00 0.00000000D+00 0.00000000D+00
  <mgrwgt>
 0.8541090610D-01    3    2    0
 0.269723424253516D+03 0.000000000000000D+00 0.000000000000000D+00 0.269723424253516D+03
 0.269723424253516D+03 0.000000000000000D+00 0.000000000000000D+00 -.269723424253516D+03
 0.276498650280168D+03 -.442646769359238D+02 0.179262951769725D+03 -.163499040074608D+03
 0.262948198226865D+03 0.442646769359238D+02 -.179262951769725D+03 0.163499040074608D+03
 0.000000000000000D+00 0.000000000000000D+00 0.000000000000000D+00 -.000000000000000D+00
 0.420015712511006D+03 0.000000000000000D+00 0.000000000000000D+00 0.420015712511006D+03
 0.449583868855757D+03 0.000000000000000D+00 0.000000000000000D+00 -.449583868855757D+03
 0.236687646998276D+03 -.935528464543783D+02 0.700854553851641D+02 -.163499040074608D+03
 0.364929511535342D+03 -.160388486253353D+02 -.312840400643649D+03 0.163499040074608D+03
 0.267982422833145D+03 0.109591695079714D+03 0.242754945258484D+03 -.295681563447511D+02
0.767426172007D-02 0.000000000000D+00 0.000000000000D+00 0.865981991825D-03 0.000000000000D+00  5 1 -1 25 23 21 0 0.77283080D-02 0.22280565D+00 0.45992082D+05 0.45992082D+05 0.45992082D+05 0.11958923D+01  1  2  2  1  5  1        1 0.834483038312D-01 0.100000000000D+01
-.399096011752D-03 0.000000000000D+00 -.294711856846D-04 0.865981991825D-03 0.000000000000D+00  5 1 -1 25 23 21 2 0.77283080D-02 0.22280565D+00 0.45992082D+05 0.45992082D+05 0.45992082D+05 0.11958923D+01  1  2  3  1  5  1        1 -.620643788639D-02 0.100000000000D+01
0.525298312078D-03 0.000000000000D+00 0.000000000000D+00 0.865981991825D-03 0.000000000000D+00  5 1 -1 25 23 21 2 0.77283080D-02 0.22280565D+00 0.45992082D+05 0.45992082D+05 0.45992082D+05 0.11958923D+01  1  2 15  1  5  1        1 0.816904015509D-02 0.100000000000D+01
  </mgrwgt>
  </event>
  <event>
  4     66 0.49155423E-03 0.14040622E+03 0.75467711E-02 0.11163609E+00
        3 -1    0    0  501    0 0.00000000E+00 0.00000000E+00 0.12911896E+04 0.12911897E+04 0.50000000E+00 0.0000E+00 0.9000E+01
       -3 -1    0    0    0  501 0.00000000E+00 0.00000000E+00 -.20838350E+02 0.20844347E+02 0.50000000E+00 0.0000E+00 0.9000E+01
       25  1    1    2    0    0 0.70551696E+02 -.54181535E+02 0.34013480E+03 0.37313518E+03 0.12500000E+03 0.0000E+00 0.9000E+01
       23  1    1    2    0    0 -.70551696E+02 0.54181535E+02 0.93021647E+03 0.93889889E+03 0.91188000E+02 0.0000E+00 0.9000E+01
#aMCatNLO 1  0  0  2  2 0.16902873D+03 0.00000000D+00  -5  5  0 0.00000000D+00 0.00000000D+00 0.00000000D+00 0.00000000D+00 0.00000000D+00
  <mgrwgt>
 0.9218763140D-02    3    2    0
 0.164043466064713D+03 0.000000000000000D+00 0.000000000000000D+00 0.164043466064713D+03
 0.164043466064713D+03 0.000000000000000D+00 0.000000000000000D+00 -.164043466064713D+03
 0.175183423100728D+03 0.705516957801665D+02 -.541815346503559D+02 -.845638885976982D+02
 0.152903509028697D+03 -.705516957801665D+02 0.541815346503559D+02 0.845638885976982D+02
 0.000000000000000D+00 -.000000000000000D+00 0.000000000000000D+00 0.000000000000000D+00
 0.342232193780493D+03 0.000000000000000D+00 0.000000000000000D+00 0.342232193780493D+03
 0.229827822335317D+03 0.000000000000000D+00 0.000000000000000D+00 -.229827822335317D+03
 0.242615215586188D+03 0.157213685299288D+03 -.106629961707697D+03 -.845638885976982D+02
 0.126453538090743D+03 -.126059888107873D+02 0.191123976257672D+02 0.845638885976982D+02
 0.202991262438880D+03 -.144607696488501D+03 0.875175640819297D+02 0.112404371445176D+03
0.506310916963D-03 0.000000000000D+00 0.000000000000D+00 0.125543503979D-02 0.000000000000D+00  5 3 -3 25 23 21 0 0.19864503D+00 0.32063687D-02 0.19713907D+05 0.19713907D+05 0.19713907D+05 0.12345155D+01  1  2  2  2  5  2       -3 0.901130734839D-02 0.100000000000D+01
-.273004444224D-04 0.000000000000D+00 -.194436723587D-05 0.125543503979D-02 0.000000000000D+00  5 3 -3 25 23 21 2 0.19864503D+00 0.32063687D-02 0.19713907D+05 0.19713907D+05 0.19713907D+05 0.12345155D+01  1  2  3  2  5  2       -3 -.740514099946D-03 0.100000000000D+01
0.349486921862D-04 0.000000000000D+00 0.000000000000D+00 0.125543503979D-02 0.000000000000D+00  5 3 -3 25 23 21 2 0.19864503D+00 0.32063687D-02 0.19713907D+05 0.19713907D+05 0.19713907D+05 0.12345155D+01  1  2 15  2  5  2       -3 0.947969891558D-03 0.100000000000D+01
  </mgrwgt>
  </event>
  <event>
  4     66 0.49155423E-03 0.10966038E+03 0.75467711E-02 0.11336476E+00
        1 -1    0    0  501    0 0.00000000E+00 0.00000000E+00 0.39361093E+03 0.39361106E+03 0.32000000E+00 0.0000E+00 0.9000E+01
       -1 -1    0    0    0  501 0.00000000E+00 0.00000000E+00 -.30593443E+02 0.30595117E+02 0.32000000E+00 0.0000E+00 0.9000E+01
       25  1    1    2    0    0 0.47712803E+01 0.17612917E+02 0.21690585E+03 0.25101021E+03 0.12500000E+03 0.0000E+00 0.9000E+01
       23  1    1    2    0    0 -.47712803E+01 -.17612917E+02 0.14611164E+03 0.17319597E+03 0.91188000E+02 0.0000E+00 0.9000E+01
#aMCatNLO 1  0  0  1  2 0.16573673D+03 0.00000000D+00  -5  5  0 0.00000000D+00 0.00000000D+00 0.00000000D+00 0.00000000D+00 0.00000000D+00
  <mgrwgt>
 0.1287489288D+00    3    2    0
 0.109737397197560D+03 0.000000000000000D+00 0.000000000000000D+00 0.109737397197560D+03
 0.109737397197560D+03 0.000000000000000D+00 0.000000000000000D+00 -.109737397197560D+03
 0.126390217573007D+03 0.477128030381482D+01 0.176129166940995D+02 0.406289895777478D+01
 0.930845768221135D+02 -.477128030381482D+01 -.176129166940995D+02 -.406289895777478D+01
 0.000000000000000D+00 -.000000000000000D+00 -.000000000000000D+00 -.000000000000000D+00
 0.198088338350209D+03 0.000000000000000D+00 0.000000000000000D+00 0.198088338350209D+03
 0.250874911142923D+03 0.000000000000000D+00 0.000000000000000D+00 -.250874911142923D+03
 0.171395360769510D+03 0.610473746186575D+02 0.100040394828983D+03 0.406289895777478D+01
 0.103627998917294D+03 0.324038425709854D+02 0.368374083547731D+02 -.406289895777478D+01
 0.173939889806328D+03 -.934512171896429D+02 -.136877803183756D+03 -.527865727927145D+02
0.113507636812D-03 0.000000000000D+00 0.000000000000D+00 0.241174396747D-02 0.000000000000D+00  5 1 -1 25 23 21 0 0.60555667D-01 0.47068223D-02 0.12025400D+05 0.12025400D+05 0.12025400D+05 0.12589165D+01  1  2  2  1  5  1        1 0.126033445397D+00 0.100000000000D+01
-.630597604389D-05 0.000000000000D+00 -.435899212604D-06 0.241174396747D-02 0.000000000000D+00  5 1 -1 25 23 21 2 0.60555667D-01 0.47068223D-02 0.12025400D+05 0.12025400D+05 0.12025400D+05 0.12589165D+01  1  2  3  1  5  1        1 -.110970334532D-01 0.100000000000D+01
0.784907074025D-05 0.000000000000D+00 0.000000000000D+00 0.241174396747D-02 0.000000000000D+00  5 1 -1 25 23 21 2 0.60555667D-01 0.47068223D-02 0.12025400D+05 0.12025400D+05 0.12025400D+05 0.12589165D+01  1  2 15  1  5  1        1 0.138125168847D-01 0.100000000000D+01
  </mgrwgt>
  </event>
  <event>
  4     66 0.49155423E-03 0.12079316E+03 0.75467711E-02 0.11974160E+00
        1 -1    0    0  501    0 0.00000000E+00 0.00000000E+00 0.13593712E+04 0.13593712E+04 0.32000000E+00 0.0000E+00 0.9000E+01
       -1 -1    0    0    0  501 0.00000000E+00 0.00000000E+00 -.15071510E+02 0.15074907E+02 0.32000000E+00 0.0000E+00 0.9000E+01
       25  1    1    2    0    0 -.51042074E+02 -.15634754E+02 0.10987709E+04 0.11071459E+04 0.12500000E+03 0.0000E+00 0.9000E+01
       23  1    1    2    0    0 0.51042074E+02 0.15634754E+02 0.24552882E+03 0.26730019E+03 0.91188000E+02 0.0000E+00 0.9000E+01
#aMCatNLO 1  0  0  1  1 0.57654551D+02 0.00000000D+00  -5  5  0 0.00000000D+00 0.00000000D+00 0.00000000D+00 0.00000000D+00 0.00000000D+00
  <mgrwgt>
 0.1755862841D+00    3    2    0
 0.143143762331207D+03 0.000000000000000D+00 0.000000000000000D+00 0.143143762331207D+03
 0.143143762331207D+03 0.000000000000000D+00 0.000000000000000D+00 -.143143762331207D+03
 0.155910208694212D+03 -.510420737893449D+02 -.156347537029864D+02 0.763757445463065D+02
 0.130377315968203D+03 0.510420737893449D+02 0.156347537029864D+02 -.763757445463065D+02
 0.000000000000000D+00 0.000000000000000D+00 -.000000000000000D+00 -.000000000000000D+00
 0.149519902154513D+03 0.000000000000000D+00 0.000000000000000D+00 0.149519902154513D+03
 0.383295595181120D+03 0.000000000000000D+00 0.000000000000000D+00 -.383295595181120D+03
 0.167940408305205D+03 -.819020264062909D+02 -.614690631614552D+01 0.763757445463065D+02
 0.124094853323312D+03 0.267932421538574D+02 0.230900215941098D+02 -.763757445463065D+02
 0.240780235707115D+03 0.551087842524336D+02 -.169431152779643D+02 -.233775693026607D+03
0.357368239742D-03 0.000000000000D+00 0.000000000000D+00 0.138009195741D-02 0.000000000000D+00  5 1 -1 25 23 21 0 0.20913429D+00 0.23189580D-02 0.14590989D+05 0.14590989D+05 0.14590989D+05 0.12491936D+01  1  2  2  1  5  1        1 0.171538068210D+00 0.100000000000D+01
-.191580532691D-04 0.000000000000D+00 -.137238813783D-05 0.138009195741D-02 0.000000000000D+00  5 1 -1 25 23 21 2 0.20913429D+00 0.23189580D-02 0.14590989D+05 0.14590989D+05 0.14590989D+05 0.12491936D+01  1  2  3  1  5  1        1 -.143501173450D-01 0.100000000000D+01
0.245626039255D-04 0.000000000000D+00 0.000000000000D+00 0.138009195741D-02 0.000000000000D+00  5 1 -1 25 23 21 2 0.20913429D+00 0.23189580D-02 0.14590989D+05 0.14590989D+05 0.14590989D+05 0.12491936D+01  1  2 15  1  5  1        1 0.183983332585D-01 0.100000000000D+01
  </mgrwgt>
  </event>
  <event>
  4     66 0.49155423E-03 0.10892589E+03 0.75467711E-02 0.11697758E+00
        1 -1    0    0  501    0 0.00000000E+00 0.00000000E+00 0.74402613E+02 0.74403301E+02 0.32000000E+00 0.0000E+00 0.9000E+01
       -1 -1    0    0    0  501 0.00000000E+00 0.00000000E+00 -.16062449E+03 0.16062481E+03 0.32000000E+00 0.0000E+00 0.9000E+01
       25  1    1    2    0    0 0.12134387E+02 -.53800719E+01 -.59562199E+02 0.13910012E+03 0.12500000E+03 0.0000E+00 0.9000E+01
       23  1    1    2    0    0 -.12134387E+02 0.53800719E+01 -.26659674E+02 0.95927984E+02 0.91188000E+02 0.0000E+00 0.9000E+01
#aMCatNLO 1  0  0  1  1 0.11131481D+03 0.00000000D+00  -5  5  0 0.00000000D+00 0.00000000D+00 0.00000000D+00 0.00000000D+00 0.00000000D+00
  <mgrwgt>
 0.2286588390D-01    5    2    0
 0.109320628589604D+03 0.000000000000000D+00 0.000000000000000D+00 0.109320628589604D+03
 0.109320628589604D+03 0.000000000000000D+00 0.000000000000000D+00 -.109320628589604D+03
 0.126036935361497D+03 0.121343868052279D+02 -.538007194196202D+01 -.917172601414356D+01
 0.926043218177105D+02 -.121343868052279D+02 0.538007194196202D+01 0.917172601414356D+01
 0.000000000000000D+00 -.000000000000000D+00 -.000000000000000D+00 0.000000000000000D+00
 0.526815558372682D+03 0.000000000000000D+00 0.000000000000000D+00 0.526815558372682D+03
 0.130338324147038D+03 0.000000000000000D+00 0.000000000000000D+00 -.130338324147038D+03
 0.144062031810574D+03 0.593865555727929D+02 0.389613329919812D+02 -.917172601414356D+01
 0.101284633536680D+03 0.217853046933921D+02 0.372102887384269D+02 0.917172601414356D+01
 0.411807217172465D+03 -.811718602661850D+02 -.761716217304081D+02 0.396477234225644D+03
0.126530715971D-03 0.000000000000D+00 0.000000000000D+00 0.241539825030D-02 0.000000000000D+00  5 1 -1 25 23 21 0 0.11446633D-01 0.24711537D-01 0.11864850D+05 0.11864850D+05 0.11864850D+05 0.12596010D+01  1  2  2  1  5  1        1 0.893601330016D-01 0.100000000000D+01
-.702937238446D-05 0.000000000000D+00 -.485911265630D-06 0.241539825030D-02 0.000000000000D+00  5 1 -1 25 23 21 2 0.11446633D-01 0.24711537D-01 0.11864850D+05 0.11864850D+05 0.11864850D+05 0.12596010D+01  1  2  3  1  5  1        1 -.787644772720D-02 0.100000000000D+01
0.875902927479D-05 0.000000000000D+00 0.000000000000D+00 0.241539825030D-02 0.000000000000D+00  5 1 -1 25 23 21 2 0.11446633D-01 0.24711537D-01 0.11864850D+05 0.11864850D+05 0.11864850D+05 0.12596010D+01  1  2 15  1  5  1        1 0.981453712374D-02 0.100000000000D+01
-.284515724769D-03 0.000000000000D+00 -.650516420697D-04 0.241539825030D-02 0.000000000000D+00  5 1 -1 25 23 21 2 0.62846650D-01 0.24711537D-01 0.11864850D+05 0.11864850D+05 0.11864850D+05 0.12596010D+01  1  2  5  1  5  1        1 -.376831063479D-01 0.100000000000D+01
-.623208451484D-04 0.000000000000D+00 -.135575429955D-04 0.241539825030D-02 0.000000000000D+00  5 21 -1 25 23 -1 2 0.62846650D-01 0.24711537D-01 0.11864850D+05 0.11864850D+05 0.11864850D+05 0.12596010D+01  1  2  5  3  5  1        1 -.307492321486D-01 0.100000000000D+01
  </mgrwgt>
  </event>
  <event>
  4     66 0.49155423E-03 0.11605199E+03 0.75467711E-02 0.12080003E+00
        1 -1    0    0  501    0 0.00000000E+00 0.00000000E+00 0.16770795E+04 0.16770795E+04 0.32000000E+00 0.0000E+00 0.9000E+01
       -1 -1    0    0    0  501 0.00000000E+00 0.00000000E+00 -.86303261E+01 0.86362566E+01 0.32000000E+00 0.0000E+00 0.9000E+01
       25  1    1    2    0    0 0.11256092E+02 0.40239265E+02 0.11602909E+04 0.11677525E+04 0.12500000E+03 0.0000E+00 0.9000E+01
       23  1    1    2    0    0 -.11256092E+02 -.40239265E+02 0.50815830E+03 0.51796333E+03 0.91188000E+02 0.0000E+00 0.9000E+01
#aMCatNLO 1  0  0  2  1 0.50481820D+02 0.00000000D+00  -5  5  0 0.00000000D+00 0.00000000D+00 0.00000000D+00 0.00000000D+00 0.00000000D+00
  <mgrwgt>
 0.1628430703D+00    4    2    0
 0.120327749418210D+03 0.000000000000000D+00 0.000000000000000D+00 0.120327749418210D+03
 0.120327749418210D+03 0.000000000000000D+00 0.000000000000000D+00 -.120327749418210D+03
 0.135514912585773D+03 0.112560917289127D+02 0.402392652682341D+02 0.315181449770258D+02
 0.105140586250647D+03 -.112560917289127D+02 -.402392652682341D+02 -.315181449770258D+02
 0.000000000000000D+00 -.000000000000000D+00 0.000000000000000D+00 0.000000000000000D+00
 0.178675854418899D+03 0.000000000000000D+00 0.000000000000000D+00 0.178675854418899D+03
 0.134378741794985D+03 0.000000000000000D+00 0.000000000000000D+00 -.134378741794985D+03
 0.135048542467938D+03 0.332060729583609D+02 0.227392189532927D+02 0.315181449770258D+02
 0.110844693098620D+03 0.626612991263309D+01 -.542091947666853D+02 -.315181449770258D+02
 0.671613606473259D+02 -.394722028709940D+02 0.314699758133926D+02 0.442971126239145D+02
0.281312591003D-03 0.000000000000D+00 0.000000000000D+00 0.202808404578D-02 0.000000000000D+00  5 1 -1 25 23 21 0 0.25801269D+00 0.13282010D-02 0.13468065D+05 0.13468065D+05 0.13468065D+05 0.12531917D+01  1  2  2  2  5  2       -1 0.187084952384D+00 0.100000000000D+01
-.156036025397D-04 0.000000000000D+00 -.108031442076D-05 0.202808404578D-02 0.000000000000D+00  5 1 -1 25 23 21 2 0.25801269D+00 0.13282010D-02 0.13468065D+05 0.13468065D+05 0.13468065D+05 0.12531917D+01  1  2  3  2  5  2       -1 -.162970729020D-01 0.100000000000D+01
0.194691480889D-04 0.000000000000D+00 0.000000000000D+00 0.202808404578D-02 0.000000000000D+00  5 1 -1 25 23 21 2 0.25801269D+00 0.13282010D-02 0.13468065D+05 0.13468065D+05 0.13468065D+05 0.12531917D+01  1  2 15  2  5  2       -1 0.203344147569D-01 0.100000000000D+01
-.270758910919D-04 0.000000000000D+00 0.000000000000D+00 0.202808404578D-02 0.000000000000D+00  5 1 -1 25 23 21 2 0.25801269D+00 0.13282010D-02 0.13468065D+05 0.13468065D+05 0.13468065D+05 0.12531917D+01  1  2  4  2  5  2       -1 -.282792239734D-01 0.100000000000D+01
  </mgrwgt>
  </event>
  <event>
  4     66 0.49155423E-03 0.11406962E+03 0.75467711E-02 0.12083606E+00
        1 -1    0    0  501    0 0.00000000E+00 0.00000000E+00 0.11729330E+04 0.11729331E+04 0.32000000E+00 0.0000E+00 0.9000E+01
       -1 -1    0    0    0  501 0.00000000E+00 0.00000000E+00 -.16338021E+02 0.16341155E+02 0.32000000E+00 0.0000E+00 0.9000E+01
       25  1    1    2    0    0 -.63499636E+01 -.35469472E+02 0.29876280E+03 0.32585674E+03 0.12500000E+03 0.0000E+00 0.9000E+01
       23  1    1    2    0    0 0.63499636E+01 0.35469472E+02 0.85783220E+03 0.86341748E+03 0.91188000E+02 0.0000E+00 0.9000E+01
#aMCatNLO 1  0  0  1  1 0.53980920D+02 0.00000000D+00  -5  5  0 0.00000000D+00 0.00000000D+00 0.00000000D+00 0.00000000D+00 0.00000000D+00
  <mgrwgt>
 0.1513099438D+00    4    2    0
 0.138438772058401D+03 0.000000000000000D+00 0.000000000000000D+00 0.138438772058401D+03
 0.138438772058401D+03 0.000000000000000D+00 0.000000000000000D+00 -.138438772058401D+03
 0.151639099804945D+03 -.634996359919354D+01 -.354694717893184D+02 -.779166934804715D+02
 0.125238444311857D+03 0.634996359919354D+01 0.354694717893184D+02 0.779166934804715D+02
 0.000000000000000D+00 -.000000000000000D+00 0.000000000000000D+00 -.000000000000000D+00
 0.151293783551428D+03 0.000000000000000D+00 0.000000000000000D+00 0.151293783551428D+03
 0.212127568711046D+03 0.000000000000000D+00 0.000000000000000D+00 -.212127568711046D+03
 0.161294354633749D+03 -.403663544404122D+01 -.656015494335281D+02 -.779166934804715D+02
 0.120796258676594D+03 0.816874966215576D+01 0.117790140627207D+02 0.779166934804715D+02
 0.813307389521322D+02 -.413211421811453D+01 0.538225353708074D+02 -.608337851596176D+02
0.312880452647D-03 0.000000000000D+00 0.000000000000D+00 0.137943837305D-02 0.000000000000D+00  5 1 -1 25 23 21 0 0.18045148D+00 0.25137861D-02 0.13011879D+05 0.13011879D+05 0.13011879D+05 0.12549243D+01  1  2  2  1  5  1        1 0.177837181327D+00 0.100000000000D+01
-.165899575666D-04 0.000000000000D+00 -.120154332148D-05 0.137943837305D-02 0.000000000000D+00  5 1 -1 25 23 21 2 0.18045148D+00 0.25137861D-02 0.13011879D+05 0.13011879D+05 0.13011879D+05 0.12549243D+01  1  2  3  1  5  1        1 -.148499321437D-01 0.100000000000D+01
0.214079977712D-04 0.000000000000D+00 0.000000000000D+00 0.137943837305D-02 0.000000000000D+00  5 1 -1 25 23 21 2 0.18045148D+00 0.25137861D-02 0.13011879D+05 0.13011879D+05 0.13011879D+05 0.12549243D+01  1  2 15  1  5  1        1 0.191626357668D-01 0.100000000000D+01
-.344535793759D-04 0.000000000000D+00 0.000000000000D+00 0.137943837305D-02 0.000000000000D+00  5 1 -1 25 23 21 2 0.18045148D+00 0.25137861D-02 0.13011879D+05 0.13011879D+05 0.13011879D+05 0.12549243D+01  1  2  4  1  5  1        1 -.308399411985D-01 0.100000000000D+01
  </mgrwgt>
  </event>
  <event>
  5     66 -.49155423E-03 0.14329320E+03 0.75467711E-02 0.12042997E+00
        1 -1    0    0  501    0 0.00000000E+00 0.00000000E+00 0.58201787E+03 0.58201796E+03 0.32000000E+00 0.0000E+00 0.9000E+01
       -1 -1    0    0    0  502 0.00000000E+00 0.00000000E+00 -.38033256E+02 0.38034602E+02 0.32000000E+00 0.0000E+00 0.9000E+01
       25  1    1    2    0    0 -.51611229E+02 0.81475054E+02 0.25188831E+03 0.29727870E+03 0.12500000E+03 0.0000E+00 0.9000E+01
       23  1    1    2    0    0 0.44817014E+02 -.79134556E+02 0.28449029E+03 0.31228323E+03 0.91188000E+02 0.0000E+00 0.9000E+01
       21  1    1    2  501  502 0.67942157E+01 -.23404981E+01 0.76060150E+01 0.10490627E+02 0.75000000E+00 0.0000E+00 0.9000E+01
#aMCatNLO 2  0  0  2  1 0.71860488D+01 0.00000000D+00  -5  5  0 0.00000000D+00 0.00000000D+00 0.00000000D+00 0.00000000D+00 0.00000000D+00
  <mgrwgt>
 -.3339885369D-01    3    2    0
 0.144751605011141D+03 0.000000000000000D+00 0.000000000000000D+00 0.144751605011141D+03
 0.144751605011141D+03 0.000000000000000D+00 0.000000000000000D+00 -.144751605011141D+03
 0.157376246816386D+03 -.478970447237597D+02 0.801955775220803D+02 -.204163051172920D+02
 0.132126963205896D+03 0.478970447237597D+02 -.801955775220803D+02 0.204163051172920D+02
 0.000000000000000D+00 0.000000000000000D+00 -.000000000000000D+00 -.000000000000000D+00
 0.147065292044029D+03 0.000000000000000D+00 0.000000000000000D+00 0.147065292044029D+03
 0.150485592006484D+03 0.000000000000000D+00 0.000000000000000D+00 -.150485592006484D+03
 0.159197138716509D+03 -.516112291893021D+02 0.814750543568411D+02 -.204163051172920D+02
 0.130395243625999D+03 0.448170135302543D+02 -.791345562941388D+02 0.204163051172920D+02
 0.795850170800602D+01 0.679421565904781D+01 -.234049806270234D+01 -.342029996245518D+01
-.407244351501D-03 0.000000000000D+00 0.000000000000D+00 0.174794648855D-02 0.000000000000D+00  5 1 -1 25 23 21 2 0.88122128D-01 0.58943853D-02 0.21587782D+05 0.21587782D+05 0.21587782D+05 0.12301901D+01  1  2 13  2  5  2       -1 -.307897782429D+00 0.100000000000D+01
-.302543994850D-03 0.000000000000D+00 0.000000000000D+00 0.174794648855D-02 0.000000000000D+00  5 1 -1 25 23 21 2 0.88122128D-01 0.56277537D-02 0.20532941D+05 0.20532941D+05 0.20532941D+05 0.12325707D+01  1  2  8  2  5  2       -1 -.245712983748D+00 0.100000000000D+01
0.695208330388D-03 0.000000000000D+00 0.000000000000D+00 0.174794648855D-02 0.273433887475D-03  5 1 -1 25 23 21 2 0.89530658D-01 0.58506837D-02 0.21587782D+05 0.21587782D+05 0.21587782D+05 0.12301901D+01  1  2  1  2  5  2       -1 0.520211912488D+00 0.100000000000D+01
  </mgrwgt>
  </event>
  <event>
  4     66 0.49155423E-03 0.62390982E+02 0.75467711E-02 0.12174704E+00
        1 -1    0    0  501    0 0.00000000E+00 0.00000000E+00 0.18681049E+03 0.18681076E+03 0.32000000E+00 0.0000E+00 0.9000E+01
       -1 -1    0    0    0  501 0.00000000E+00 0.00000000E+00 -.96167577E+02 0.96168109E+02 0.32000000E+00 0.0000E+00 0.9000E+01
       25  1    1    2    0    0 -.76298480E+01 0.60626870E+02 0.10215179E+03 0.17260887E+03 0.12500000E+03 0.0000E+00 0.9000E+01
       23  1    1    2    0    0 0.76298480E+01 -.60626870E+02 -.11508882E+02 0.11037000E+03 0.91188000E+02 0.0000E+00 0.9000E+01
#aMCatNLO 1  0  0  2  1 0.23747540D+02 0.00000000D+00  -5  5  0 0.00000000D+00 0.00000000D+00 0.00000000D+00 0.00000000D+00 0.00000000D+00
  <mgrwgt>
 0.1125841591D+00    9    2    0
 0.134034420530270D+03 0.000000000000000D+00 0.000000000000000D+00 0.134034420530270D+03
 0.134034420530270D+03 0.000000000000000D+00 0.000000000000000D+00 -.134034420530270D+03
 0.147668509123112D+03 -.762984803181538D+01 0.606268704102427D+02 0.494687435651421D+02
 0.120400331937428D+03 0.762984803181538D+01 -.606268704102427D+02 -.494687435651421D+02
 0.000000000000000D+00 0.000000000000000D+00 0.000000000000000D+00 -.000000000000000D+00
 0.142020911214024D+03 0.000000000000000D+00 0.000000000000000D+00 0.142020911214024D+03
 0.153454294504804D+03 0.000000000000000D+00 0.000000000000000D+00 -.153454294504804D+03
 0.142902944177694D+03 -.807897260478939D+01 0.477893823604189D+02 0.494687435651421D+02
 0.126215708437762D+03 0.724866356732710D+01 -.715224020780901D+02 -.494687435651421D+02
 0.263565531033734D+02 0.830309037462292D+00 0.237330197176711D+02 -.114333832907799D+02
0.172558547344D-03 0.000000000000D+00 0.000000000000D+00 0.169898174859D-02 0.000000000000D+00  5 1 -1 25 23 21 0 0.28740137D-01 0.14795074D-01 0.15488342D+05 0.15488342D+05 0.15488342D+05 0.12462395D+01  1  2  2  2  5  2       -1 0.862585317692D-01 0.100000000000D+01
-.952245573987D-05 0.000000000000D+00 -.662670257512D-06 0.169898174859D-02 0.000000000000D+00  5 1 -1 25 23 21 2 0.28740137D-01 0.14795074D-01 0.15488342D+05 0.15488342D+05 0.15488342D+05 0.12462395D+01  1  2  3  2  5  2       -1 -.739294635231D-02 0.100000000000D+01
0.119023368416D-04 0.000000000000D+00 0.000000000000D+00 0.169898174859D-02 0.000000000000D+00  5 1 -1 25 23 21 2 0.28740137D-01 0.14795074D-01 0.15488342D+05 0.15488342D+05 0.15488342D+05 0.12462395D+01  1  2 15  2  5  2       -1 0.924061399081D-02 0.100000000000D+01
0.229638158262D-03 0.000000000000D+00 0.000000000000D+00 0.169898174859D-02 0.000000000000D+00  5 1 -1 25 23 21 2 0.28740137D-01 0.17331609D-01 0.18759744D+05 0.18759744D+05 0.18759744D+05 0.12368987D+01  1  2 12  2  5  2       -1 0.137687303826D+00 0.100000000000D+01
-.225078299037D-03 0.000000000000D+00 0.000000000000D+00 0.169898174859D-02 0.000000000000D+00  5 1 -1 25 23 21 2 0.28740137D-01 0.14795074D-01 0.15488342D+05 0.15488342D+05 0.15488342D+05 0.12462395D+01  1  2  4  2  5  2       -1 -.174743977321D+00 0.100000000000D+01
-.507327154534D-03 0.000000000000D+00 -.122855847291D-03 0.169898174859D-02 0.000000000000D+00  5 1 -1 25 23 21 2 0.28740137D-01 0.17893499D-01 0.15488342D+05 0.15488342D+05 0.15488342D+05 0.12462395D+01  1  2  5  2  5  2       -1 -.292025062313D+00 0.100000000000D+01
0.523385385606D-03 0.000000000000D+00 0.120667927469D-03 0.169898174859D-02 0.000000000000D+00  5 1 -1 25 23 21 2 0.28740137D-01 0.14795074D-01 0.15488342D+05 0.15488342D+05 0.15488342D+05 0.12462395D+01  1  2  6  2  5  2       -1 0.406340568343D+00 0.100000000000D+01
0.546880342498D-05 0.000000000000D+00 0.000000000000D+00 0.169898174859D-02 0.000000000000D+00  5 1 21 25 23 1 2 0.28740137D-01 0.17331609D-01 0.18759744D+05 0.18759744D+05 0.18759744D+05 0.12368987D+01  1  2 12  4  5  2       -1 0.434764845486D-01 0.100000000000D+01
-.126669257567D-04 0.000000000000D+00 -.338144305870D-05 0.169898174859D-02 0.000000000000D+00  5 1 21 25 23 1 2 0.28740137D-01 0.17893499D-01 0.15488342D+05 0.15488342D+05 0.15488342D+05 0.12462395D+01  1  2  5  4  5  2       -1 -.962573573532D-01 0.100000000000D+01
  </mgrwgt>
  </event>
  <event>
  4     66 0.49155423E-03 0.11328441E+03 0.75467711E-02 0.10294864E+00
        1 -1    0    0  501    0 0.00000000E+00 0.00000000E+00 0.30114305E+02 0.30116006E+02 0.32000000E+00 0.0000E+00 0.9000E+01
       -1 -1    0    0    0  501 0.00000000E+00 0.00000000E+00 -.47953862E+03 0.47953873E+03 0.32000000E+00 0.0000E+00 0.9000E+01
       25  1    1    2    0    0 -.31782812E+02 0.10644585E+02 -.16888283E+03 0.21276716E+03 0.12500000E+03 0.0000E+00 0.9000E+01
       23  1    1    2    0    0 0.31782812E+02 -.10644585E+02 -.28054149E+03 0.29688757E+03 0.91188000E+02 0.0000E+00 0.9000E+01
#aMCatNLO 1  0  0  2  1 0.41520408D+03 0.00000000D+00  -5  5  0 0.00000000D+00 0.00000000D+00 0.00000000D+00 0.00000000D+00 0.00000000D+00
  <mgrwgt>
 0.1125956639D+00    5    2    0
 0.120172513416385D+03 0.000000000000000D+00 0.000000000000000D+00 0.120172513416385D+03
 0.120172513416385D+03 0.000000000000000D+00 0.000000000000000D+00 -.120172513416385D+03
 0.135379295001023D+03 -.317828123474776D+02 0.106445845523313D+02 0.397378808439432D+02
 0.104965731831747D+03 0.317828123474776D+02 -.106445845523313D+02 -.397378808439432D+02
 0.000000000000000D+00 -.000000000000000D+00 -.000000000000000D+00 -.000000000000000D+00
 0.394686528410769D+03 0.000000000000000D+00 0.000000000000000D+00 0.394686528410769D+03
 0.518269194259490D+03 0.000000000000000D+00 0.000000000000000D+00 -.518269194259490D+03
 0.217362200782009D+03 0.170650564425355D+03 0.303415888861903D+02 0.397378808439432D+02
 0.262387904523881D+03 0.242601890812207D+03 0.986835836438840D+01 -.397378808439432D+02
 0.433205617364369D+03 -.413252455237562D+03 -.402099472505787D+02 -.123582665848722D+03
0.324289131482D-03 0.000000000000D+00 0.000000000000D+00 0.196615809972D-02 0.000000000000D+00  5 1 -1 25 23 21 0 0.46331091D-02 0.73775312D-01 0.12833358D+05 0.12833358D+05 0.12833358D+05 0.12556210D+01  1  2  2  2  5  2       -1 0.110008886002D+00 0.100000000000D+01
-.179397427019D-04 0.000000000000D+00 -.124535565218D-05 0.196615809972D-02 0.000000000000D+00  5 1 -1 25 23 21 2 0.46331091D-02 0.73775312D-01 0.12833358D+05 0.12833358D+05 0.12833358D+05 0.12556210D+01  1  2  3  2  5  2       -1 -.959464080026D-02 0.100000000000D+01
0.222758140789D-04 0.000000000000D+00 0.000000000000D+00 0.196615809972D-02 0.000000000000D+00  5 1 -1 25 23 21 2 0.46331091D-02 0.73775312D-01 0.12833358D+05 0.12833358D+05 0.12833358D+05 0.12556210D+01  1  2 15  2  5  2       -1 0.119136845033D-01 0.100000000000D+01
0.342695596228D-03 0.000000000000D+00 -.163172866153D-03 0.196615809972D-02 0.000000000000D+00  5 1 -1 25 23 21 2 0.46331091D-02 0.55581994D+00 0.12833358D+05 0.12833358D+05 0.12833358D+05 0.12556210D+01  1  2  5  2  5  2       -1 0.890082727491D-04 0.100000000000D+01
0.666435433320D-04 0.000000000000D+00 -.401429368212D-04 0.196615809972D-02 0.000000000000D+00  5 1 21 25 23 1 2 0.46331091D-02 0.55581994D+00 0.12833358D+05 0.12833358D+05 0.12833358D+05 0.12556210D+01  1  2  5  4  5  2       -1 0.178725961985D-03 0.100000000000D+01
  </mgrwgt>
  </event>
  <event>
  4     66 0.49155423E-03 0.70312153E+02 0.75467711E-02 0.11783517E+00
        1 -1    0    0  501    0 0.00000000E+00 0.00000000E+00 0.64143226E+03 0.64143234E+03 0.32000000E+00 0.0000E+00 0.9000E+01
       -1 -1    0    0    0  501 0.00000000E+00 0.00000000E+00 -.25300808E+02 0.25302832E+02 0.32000000E+00 0.0000E+00 0.9000E+01
       25  1    1    2    0    0 -.21299534E+02 0.63332757E+02 0.34439085E+03 0.37241746E+03 0.12500000E+03 0.0000E+00 0.9000E+01
       23  1    1    2    0    0 0.21299534E+02 -.63332757E+02 0.27174061E+03 0.29431771E+03 0.91188000E+02 0.0000E+00 0.9000E+01
#aMCatNLO 1  0  0  1  2 0.73781124D+02 0.00000000D+00  -5  5  0 0.00000000D+00 0.00000000D+00 0.00000000D+00 0.00000000D+00 0.00000000D+00
  <mgrwgt>
 0.1205563830D+00    9    2    0
 0.127394881379718D+03 0.000000000000000D+00 0.000000000000000D+00 0.127394881379718D+03
 0.127394881379718D+03 0.000000000000000D+00 0.000000000000000D+00 -.127394881379718D+03
 0.141739548482575D+03 -.212995341141740D+02 0.633327573411470D+02 0.625538272713676D+00
 0.113050214276861D+03 0.212995341141740D+02 -.633327573411470D+02 -.625538272713676D+00
 0.000000000000000D+00 0.000000000000000D+00 -.000000000000000D+00 0.000000000000000D+00
 0.211617700851682D+03 0.000000000000000D+00 0.000000000000000D+00 0.211617700851682D+03
 0.149857840558279D+03 0.000000000000000D+00 0.000000000000000D+00 -.149857840558279D+03
 0.163018453211266D+03 -.569640493585819D+02 0.877765451013894D+02 0.625538272713676D+00
 0.102238926517896D+03 -.389482600485432D+01 -.460650169194906D+02 -.625538272713676D+00
 0.962181616807985D+02 0.608588753634363D+02 -.417115281818989D+02 0.617598602934031D+02
0.146551028629D-03 0.000000000000D+00 0.000000000000D+00 0.200387949732D-02 0.000000000000D+00  5 1 -1 25 23 21 0 0.98682048D-01 0.38925938D-02 0.16229059D+05 0.16229059D+05 0.16229059D+05 0.12439422D+01  1  2  2  1  5  1        1 0.114901289299D+00 0.100000000000D+01
-.814172381126D-05 0.000000000000D+00 -.562794537709D-06 0.200387949732D-02 0.000000000000D+00  5 1 -1 25 23 21 2 0.98682048D-01 0.38925938D-02 0.16229059D+05 0.16229059D+05 0.16229059D+05 0.12439422D+01  1  2  3  1  5  1        1 -.987763121261D-02 0.100000000000D+01
0.101513185842D-04 0.000000000000D+00 0.000000000000D+00 0.200387949732D-02 0.000000000000D+00  5 1 -1 25 23 21 2 0.98682048D-01 0.38925938D-02 0.16229059D+05 0.16229059D+05 0.16229059D+05 0.12439422D+01  1  2 15  1  5  1        1 0.123156942708D-01 0.100000000000D+01
0.483986405370D-04 0.000000000000D+00 0.000000000000D+00 0.200387949732D-02 0.000000000000D+00  5 1 -1 25 23 21 2 0.16785157D+00 0.38925938D-02 0.28736249D+05 0.28736249D+05 0.28736249D+05 0.12168650D+01  1  2 12  1  5  1        1 0.248798160387D-01 0.100000000000D+01
-.103657718407D-03 0.000000000000D+00 0.000000000000D+00 0.200387949732D-02 0.000000000000D+00  5 1 -1 25 23 21 2 0.98682048D-01 0.38925938D-02 0.16229059D+05 0.16229059D+05 0.16229059D+05 0.12439422D+01  1  2  4  1  5  1        1 -.125758713817D+00 0.100000000000D+01
-.116846190563D-03 0.000000000000D+00 -.519143193443D-04 0.200387949732D-02 0.000000000000D+00  5 1 -1 25 23 21 2 0.18049243D+00 0.38925938D-02 0.16229059D+05 0.16229059D+05 0.16229059D+05 0.12439422D+01  1  2  5  1  5  1        1 -.546092738551D-01 0.100000000000D+01
0.131664752760D-03 0.000000000000D+00 0.437031911656D-04 0.200387949732D-02 0.000000000000D+00  5 1 -1 25 23 21 2 0.98682048D-01 0.38925938D-02 0.16229059D+05 0.16229059D+05 0.16229059D+05 0.12439422D+01  1  2  6  1  5  1        1 0.159737163973D+00 0.100000000000D+01
0.286495071037D-05 0.000000000000D+00 0.000000000000D+00 0.200387949732D-02 0.000000000000D+00  5 21 -1 25 23 -1 2 0.16785157D+00 0.38925938D-02 0.28736249D+05 0.28736249D+05 0.28736249D+05 0.12168650D+01  1  2 12  3  5  1        1 0.213180097670D-02 0.100000000000D+01
-.488681691218D-05 0.000000000000D+00 -.342635960884D-05 0.200387949732D-02 0.000000000000D+00  5 21 -1 25 23 -1 2 0.18049243D+00 0.38925938D-02 0.16229059D+05 0.16229059D+05 0.16229059D+05 0.12439422D+01  1  2  5  3  5  1        1 -.316376264628D-02 0.100000000000D+01
  </mgrwgt>
  </event>
  <event>
  5     66 0.49155423E-03 0.11739141E+03 0.75467711E-02 0.11569223E+00
        1 -1    0    0  502    0 0.00000000E+00 0.00000000E+00 0.86726740E+03 0.86726746E+03 0.32000000E+00 0.0000E+00 0.9000E+01
       -1 -1    0    0    0  501 0.00000000E+00 0.00000000E+00 -.52958528E+02 0.52959495E+02 0.32000000E+00 0.0000E+00 0.9000E+01
       25  1    1    2    0    0 0.98573360E+02 -.39862236E+02 0.28493172E+03 0.32881118E+03 0.12500000E+03 0.0000E+00 0.9000E+01
       23  1    1    2    0    0 0.21326691E+02 0.32772641E+02 0.83606040E+02 0.12974627E+03 0.91188000E+02 0.0000E+00 0.9000E+01
       21  1    1    2  502  501 -.11990005E+03 0.70895944E+01 0.44577111E+03 0.46166951E+03 0.75000000E+00 0.0000E+00 0.9000E+01
#aMCatNLO 2  0  0  1  2 0.12010947D+03 0.00000000D+00  -5  5  0 0.00000000D+00 0.00000000D+00 0.00000000D+00 0.00000000D+00 0.00000000D+00
  <mgrwgt>
 0.3379043626D-01    1    2    0
 0.122503641464803D+03 0.000000000000000D+00 0.000000000000000D+00 0.122503641464803D+03
 0.122503641464803D+03 0.000000000000000D+00 0.000000000000000D+00 -.122503641464803D+03
 0.137421052426216D+03 0.279206193720452D+02 -.356845953757697D+02 0.347360665113034D+02
 0.107586230503391D+03 -.279206193720452D+02 0.356845953757697D+02 -.347360665113034D+02
 0.000000000000000D+00 -.000000000000000D+00 0.000000000000000D+00 0.000000000000000D+00
 0.286116106539540D+03 0.000000000000000D+00 0.000000000000000D+00 0.286116106539540D+03
 0.160526646277819D+03 0.000000000000000D+00 0.000000000000000D+00 -.160526646277819D+03
 0.167741764301248D+03 0.985733602217326D+02 -.398622356223826D+02 0.347360665113034D+02
 0.105122402044756D+03 0.213266908116764D+02 0.327726411814003D+02 -.347360665113034D+02
 0.173778586471355D+03 -.119900051033409D+03 0.708959444098223D+01 0.125589460261721D+03
0.137285733664D-03 0.000000000000D+00 0.000000000000D+00 0.196609789464D-02 0.157590511199D-05  5 1 -1 25 23 21 2 0.13342523D+00 0.81475077D-02 0.36755180D+05 0.36755180D+05 0.36755180D+05 0.12057493D+01  1  2  1  1  5  1        1 0.337904362599D-01 0.100000000000D+01
  </mgrwgt>
  </event>
  <event>
  4     66 0.49155423E-03 0.11431135E+03 0.75467711E-02 0.11524470E+00
        1 -1    0    0  501    0 0.00000000E+00 0.00000000E+00 0.51685631E+03 0.51685641E+03 0.32000000E+00 0.0000E+00 0.9000E+01
       -1 -1    0    0    0  501 0.00000000E+00 0.00000000E+00 -.79707362E+02 0.79708004E+02 0.32000000E+00 0.0000E+00 0.9000E+01
       25  1    1    2    0    0 0.97150570E+02 0.11931102E+03 0.33858668E+03 0.39235098E+03 0.12500000E+03 0.0000E+00 0.9000E+01
       23  1    1    2    0    0 -.97150570E+02 -.11931102E+03 0.98562266E+02 0.20421343E+03 0.91188000E+02 0.0000E+00 0.9000E+01
#aMCatNLO 1  0  0  1  2 0.16294709D+02 0.00000000D+00  -5  5  0 0.00000000D+00 0.00000000D+00 0.00000000D+00 0.00000000D+00 0.00000000D+00
  <mgrwgt>
 0.1828505233D+00    6    2    0
 0.202971608715815D+03 0.000000000000000D+00 0.000000000000000D+00 0.202971608715815D+03
 0.202971608715815D+03 0.000000000000000D+00 0.000000000000000D+00 -.202971608715815D+03
 0.211975021437240D+03 0.971505700616755D+02 0.119311021773734D+03 0.750670136166180D+02
 0.193968195994391D+03 -.971505700616755D+02 -.119311021773734D+03 -.750670136166180D+02
 0.000000000000000D+00 0.000000000000000D+00 -.000000000000000D+00 -.000000000000000D+00
 0.211003033413016D+03 0.000000000000000D+00 0.000000000000000D+00 0.211003033413016D+03
 0.211571719981429D+03 0.000000000000000D+00 0.000000000000000D+00 -.211571719981429D+03
 0.216884096584780D+03 0.970393368674162D+02 0.127914119308271D+03 0.750670136166180D+02
 0.189386027011796D+03 -.972500006508034D+02 -.111620771917300D+03 -.750670136166180D+02
 0.163046297978694D+02 0.210663783387200D+00 -.162933473909705D+02 -.568686568413413D+00
0.574760534147D-03 0.000000000000D+00 0.000000000000D+00 0.127171905194D-02 0.000000000000D+00  5 1 -1 25 23 21 0 0.79516412D-01 0.12262728D-01 0.35549539D+05 0.35549539D+05 0.35549539D+05 0.12072373D+01  1  2  2  1  5  1        1 0.108971971414D+00 0.100000000000D+01
-.317201205587D-04 0.000000000000D+00 -.220723178905D-05 0.127171905194D-02 0.000000000000D+00  5 1 -1 25 23 21 2 0.79516412D-01 0.12262728D-01 0.35549539D+05 0.35549539D+05 0.35549539D+05 0.12072373D+01  1  2  3  1  5  1        1 -.876492013560D-02 0.100000000000D+01
0.396205809956D-04 0.000000000000D+00 0.000000000000D+00 0.127171905194D-02 0.000000000000D+00  5 1 -1 25 23 21 2 0.79516412D-01 0.12262728D-01 0.35549539D+05 0.35549539D+05 0.35549539D+05 0.12072373D+01  1  2 15  1  5  1        1 0.109479794539D-01 0.100000000000D+01
0.129806393585D-02 0.000000000000D+00 0.000000000000D+00 0.127171905194D-02 0.000000000000D+00  5 1 -1 25 23 21 2 0.84279948D-01 0.12262728D-01 0.38739517D+05 0.38739517D+05 0.38739517D+05 0.12034150D+01  1  2 12  1  5  1        1 0.330008902586D+00 0.100000000000D+01
-.970762179825D-03 0.000000000000D+00 0.000000000000D+00 0.127171905194D-02 0.000000000000D+00  5 1 -1 25 23 21 2 0.79516412D-01 0.12262728D-01 0.35549539D+05 0.35549539D+05 0.35549539D+05 0.12072373D+01  1  2  4  1  5  1        1 -.268241508133D+00 0.100000000000D+01
0.141421589687D-04 0.000000000000D+00 0.000000000000D+00 0.127171905194D-02 0.000000000000D+00  5 21 -1 25 23 -1 2 0.84279948D-01 0.12262728D-01 0.38739517D+05 0.38739517D+05 0.38739517D+05 0.12034150D+01  1  2 12  3  5  1        1 0.992809807518D-02 0.100000000000D+01
  </mgrwgt>
  </event>
  <event>
  4     66 0.49155423E-03 0.11502354E+03 0.75467711E-02 0.10967299E+00
        1 -1    0    0  501    0 0.00000000E+00 0.00000000E+00 0.55182150E+03 0.55182159E+03 0.32000000E+00 0.0000E+00 0.9000E+01
       -1 -1    0    0    0  501 0.00000000E+00 0.00000000E+00 -.23988563E+02 0.23990698E+02 0.32000000E+00 0.0000E+00 0.9000E+01
       25  1    1    2    0    0 -.93211403E+01 -.37760022E+02 0.29350270E+03 0.32137445E+03 0.12500000E+03 0.0000E+00 0.9000E+01
       23  1    1    2    0    0 0.93211403E+01 0.37760022E+02 0.23433024E+03 0.25443784E+03 0.91188000E+02 0.0000E+00 0.9000E+01
#aMCatNLO 1  0  0  2  1 0.23053226D+03 0.00000000D+00  -5  5  0 0.00000000D+00 0.00000000D+00 0.00000000D+00 0.00000000D+00 0.00000000D+00
  <mgrwgt>
 0.1466873107D+00    3    2    0
 0.115056708617973D+03 0.000000000000000D+00 0.000000000000000D+00 0.115056708617973D+03
 0.115056708617973D+03 0.000000000000000D+00 0.000000000000000D+00 -.115056708617973D+03
 0.130939634402577D+03 -.932114028587571D+01 -.377600219903931D+02 -.273586193667137D+01
 0.991737828333702D+02 0.932114028587571D+01 0.377600219903931D+02 0.273586193667137D+01
 0.000000000000000D+00 0.000000000000000D+00 0.000000000000000D+00 0.000000000000000D+00
 0.412604281916898D+03 0.000000000000000D+00 0.000000000000000D+00 0.412604281916898D+03
 0.216063064715725D+03 0.000000000000000D+00 0.000000000000000D+00 -.216063064715725D+03
 0.223841793777631D+03 -.662295926841077D+02 -.173454042195471D+03 -.273586193667137D+01
 0.101884021034346D+03 -.229293879319857D+02 -.391389911297543D+02 0.273586193667137D+01
 0.302941531820647D+03 0.891589806160934D+02 0.212593033325225D+03 0.196541217201173D+03
0.139200683887D-03 0.000000000000D+00 0.000000000000D+00 0.226048291120D-02 0.000000000000D+00  5 1 -1 25 23 21 0 0.84895787D-01 0.36907195D-02 0.13230416D+05 0.13230416D+05 0.13230416D+05 0.12540859D+01  1  2  2  2  5  2       -1 0.143609240356D+00 0.100000000000D+01
-.773337054562D-05 0.000000000000D+00 -.534567278508D-06 0.226048291120D-02 0.000000000000D+00  5 1 -1 25 23 21 2 0.84895787D-01 0.36907195D-02 0.13230416D+05 0.13230416D+05 0.13230416D+05 0.12540859D+01  1  2  3  2  5  2       -1 -.125477087183D-01 0.100000000000D+01
0.963043870985D-05 0.000000000000D+00 0.000000000000D+00 0.226048291120D-02 0.000000000000D+00  5 1 -1 25 23 21 2 0.84895787D-01 0.36907195D-02 0.13230416D+05 0.13230416D+05 0.13230416D+05 0.12540859D+01  1  2 15  2  5  2       -1 0.156257790892D-01 0.100000000000D+01
  </mgrwgt>
  </event>
  <event>
  5     66 0.49155423E-03 0.15709278E+03 0.75467711E-02 0.11170491E+00
       21 -1    0    0  501  502 0.00000000E+00 0.00000000E+00 0.17368008E+03 0.17368170E+03 0.75000000E+00 0.0000E+00 0.9000E+01
       -1 -1    0    0    0  501 0.00000000E+00 0.00000000E+00 -.40020476E+03 0.40020488E+03 0.32000000E+00 0.0000E+00 0.9000E+01
       25  1    1    2    0    0 0.19249339E+03 0.32847569E+02 -.18076249E+03 0.29399446E+03 0.12500000E+03 0.0000E+00 0.9000E+01
       23  1    1    2    0    0 -.46903083E+02 -.41505863E+02 0.31258457E+02 0.11495642E+03 0.91188000E+02 0.0000E+00 0.9000E+01
       -1  1    1    2    0  502 -.14559031E+03 0.86582943E+01 -.77020645E+02 0.16493570E+03 0.32000000E+00 0.0000E+00 0.9000E+01
#aMCatNLO 2  0  0  1  2 0.14584753D+03 0.00000000D+00  -5  5  0 0.00000000D+00 0.00000000D+00 0.00000000D+00 0.00000000D+00 0.00000000D+00
  <mgrwgt>
 0.1763692245D-01    1    2    0
 0.175796662916191D+03 0.000000000000000D+00 0.000000000000000D+00 0.175796662916191D+03
 0.175796662916191D+03 0.000000000000000D+00 0.000000000000000D+00 -.175796662916191D+03
 0.186191838420012D+03 0.106787411737941D+03 0.379445260227926D+02 -.787341243263754D+02
 0.165401487412369D+03 -.106787411737941D+03 -.379445260227926D+02 0.787341243263754D+02
 0.000000000000000D+00 -.000000000000000D+00 0.000000000000000D+00 -.000000000000000D+00
 0.254813107459051D+03 0.000000000000000D+00 0.000000000000000D+00 0.254813107459051D+03
 0.272780330236845D+03 0.000000000000000D+00 0.000000000000000D+00 -.272780330236845D+03
 0.244860634007419D+03 0.192493389461593D+03 0.328475686567783D+02 -.787341243263754D+02
 0.135782729307888D+03 -.469030834482156D+02 -.415058630064193D+02 0.787341243263754D+02
 0.146950074380589D+03 -.145590306013377D+03 0.865829434964095D+01 -.179672227777944D+02
0.371602499775D-04 0.000000000000D+00 0.000000000000D+00 0.128481581284D-02 0.448193119295D-07  5 21 -1 25 23 -1 2 0.26720129D-01 0.61570056D-01 0.59616429D+05 0.59616429D+05 0.59616429D+05 0.11847891D+01  1  2  1  3  5  1        1 0.176369224486D-01 0.100000000000D+01
  </mgrwgt>
  </event>
  <event>
  4     66 0.49155423E-03 0.75156315E+02 0.75467711E-02 0.11997929E+00
        1 -1    0    0  501    0 0.00000000E+00 0.00000000E+00 0.76811306E+03 0.76811312E+03 0.32000000E+00 0.0000E+00 0.9000E+01
       -1 -1    0    0    0  501 0.00000000E+00 0.00000000E+00 -.30491024E+02 0.30492703E+02 0.32000000E+00 0.0000E+00 0.9000E+01
       25  1    1    2    0    0 -.39739991E+02 0.92741570E+02 0.29949468E+03 0.33985633E+03 0.12500000E+03 0.0000E+00 0.9000E+01
       23  1    1    2    0    0 0.39739991E+02 -.92741570E+02 0.43812736E+03 0.45874949E+03 0.91188000E+02 0.0000E+00 0.9000E+01
#aMCatNLO 1  0  0  1  2 0.44363536D+01 0.00000000D+00  -5  5  0 0.00000000D+00 0.00000000D+00 0.00000000D+00 0.00000000D+00 0.00000000D+00
  <mgrwgt>
 0.2765809863D+00   11    2    0
 0.153040028928154D+03 0.000000000000000D+00 0.000000000000000D+00 0.153040028928154D+03
 0.153040028928154D+03 0.000000000000000D+00 0.000000000000000D+00 -.153040028928154D+03
 0.164980938615631D+03 -.397399909204309D+02 0.927415699758023D+02 -.375958033105045D+02
 0.141099119240677D+03 0.397399909204309D+02 -.927415699758023D+02 0.375958033105045D+02
 0.000000000000000D+00 0.000000000000000D+00 0.000000000000000D+00 0.000000000000000D+00
 0.156077875941197D+03 0.000000000000000D+00 0.000000000000000D+00 0.156077875941197D+03
 0.154684388709192D+03 0.000000000000000D+00 0.000000000000000D+00 -.154684388709192D+03
 0.164836317874799D+03 -.418191116177550D+02 0.915627062043349D+02 -.375958033105045D+02
 0.141275888758999D+03 0.379599393555540D+02 -.937508612131402D+02 0.375958033105045D+02
 0.465005801659099D+01 0.385917226220100D+01 0.218815500880528D+01 0.139348723200500D+01
0.220665592996D-03 0.000000000000D+00 0.000000000000D+00 0.161573889592D-02 0.000000000000D+00  5 1 -1 25 23 21 0 0.11817137D+00 0.46910610D-02 0.21998585D+05 0.21998585D+05 0.21998585D+05 0.12292980D+01  1  2  2  1  5  1        1 0.102342826889D+00 0.100000000000D+01
-.122445663100D-04 0.000000000000D+00 -.847413979689D-06 0.161573889592D-02 0.000000000000D+00  5 1 -1 25 23 21 2 0.11817137D+00 0.46910610D-02 0.21998585D+05 0.21998585D+05 0.21998585D+05 0.12292980D+01  1  2  3  1  5  1        1 -.858184224573D-02 0.100000000000D+01
0.152200664390D-04 0.000000000000D+00 0.000000000000D+00 0.161573889592D-02 0.000000000000D+00  5 1 -1 25 23 21 2 0.11817137D+00 0.46910610D-02 0.21998585D+05 0.21998585D+05 0.21998585D+05 0.12292980D+01  1  2 15  1  5  1        1 0.106672793337D-01 0.100000000000D+01
0.569678830741D-04 0.000000000000D+00 0.000000000000D+00 0.161573889592D-02 0.000000000000D+00  5 1 -1 25 23 21 2 0.12114217D+00 0.46910610D-02 0.22666749D+05 0.22666749D+05 0.22666749D+05 0.12278861D+01  1  2 12  1  5  1        1 0.384077357705D-01 0.100000000000D+01
-.140259716121D-02 0.000000000000D+00 0.000000000000D+00 0.161573889592D-02 0.000000000000D+00  5 1 -1 25 23 21 2 0.11817137D+00 0.46910610D-02 0.21998585D+05 0.21998585D+05 0.21998585D+05 0.12292980D+01  1  2  4  1  5  1        1 -.983037476956D+00 0.100000000000D+01
-.848713517036D-02 0.000000000000D+00 -.108009318636D-02 0.161573889592D-02 0.000000000000D+00  5 1 -1 25 23 21 2 0.12145405D+00 0.46910610D-02 0.21998585D+05 0.21998585D+05 0.21998585D+05 0.12292980D+01  1  2  5  1  5  1        1 -.570965793801D+01 0.100000000000D+01
0.851393898980D-02 0.000000000000D+00 0.107968786406D-02 0.161573889592D-02 0.000000000000D+00  5 1 -1 25 23 21 2 0.11817137D+00 0.46910610D-02 0.21998585D+05 0.21998585D+05 0.21998585D+05 0.12292980D+01  1  2  6  1  5  1        1 0.596715959149D+01 0.100000000000D+01
0.135091683505D-02 0.000000000000D+00 0.000000000000D+00 0.161573889592D-02 0.660311107159D-03  5 1 -1 25 23 21 2 0.12051708D+00 0.47414648D-02 0.22666749D+05 0.22666749D+05 0.22666749D+05 0.12278861D+01  1  2 11  1  5  1        1 0.903481652825D+00 0.100000000000D+01
0.166227238213D-05 0.000000000000D+00 0.000000000000D+00 0.161573889592D-02 0.000000000000D+00  5 21 -1 25 23 -1 2 0.12114217D+00 0.46910610D-02 0.22666749D+05 0.22666749D+05 0.22666749D+05 0.12278861D+01  1  2 12  3  5  1        1 0.222880146098D-02 0.100000000000D+01
-.415712088815D-04 0.000000000000D+00 -.532783843390D-05 0.161573889592D-02 0.000000000000D+00  5 21 -1 25 23 -1 2 0.12145405D+00 0.46910610D-02 0.21998585D+05 0.21998585D+05 0.21998585D+05 0.12292980D+01  1  2  5  3  5  1        1 -.555351965977D-01 0.100000000000D+01
0.681198102750D-05 0.000000000000D+00 0.000000000000D+00 0.161573889592D-02 0.237675057181D-05  5 21 -1 25 23 -1 2 0.12051708D+00 0.47414648D-02 0.22666749D+05 0.22666749D+05 0.22666749D+05 0.12278861D+01  1  2 11  3  5  1        1 0.910555231941D-02 0.100000000000D+01
  </mgrwgt>
  </event>
  <event>
  4     66 0.49155423E-03 0.13231955E+03 0.75467711E-02 0.10729581E+00
        1 -1    0    0  501    0 0.00000000E+00 0.00000000E+00 0.15500006E+02 0.15503309E+02 0.32000000E+00 0.0000E+00 0.9000E+01
       -1 -1    0    0    0  501 0.00000000E+00 0.00000000E+00 -.13620226E+04 0.13620227E+04 0.32000000E+00 0.0000E+00 0.9000E+01
       25  1    1    2    0    0 0.63117731E+02 0.41775915E+02 -.10148567E+04 0.10253235E+04 0.12500000E+03 0.0000E+00 0.9000E+01
       23  1    1    2    0    0 -.63117731E+02 -.41775915E+02 -.33166587E+03 0.35220246E+03 0.91188000E+02 0.0000E+00 0.9000E+01
#aMCatNLO 1  0  0  1  1 0.27220202D+03 0.00000000D+00  -5  5  0 0.00000000D+00 0.00000000D+00 0.00000000D+00 0.00000000D+00 0.00000000D+00
  <mgrwgt>
 0.1171982240D+00    5    2    0
 0.145305402245896D+03 0.000000000000000D+00 0.000000000000000D+00 0.145305402245896D+03
 0.145305402245896D+03 0.000000000000000D+00 0.000000000000000D+00 -.145305402245896D+03
 0.157881928209518D+03 0.631177305194648D+02 0.417759149357884D+02 -.597714671101964D+02
 0.132728876282274D+03 -.631177305194648D+02 -.417759149357884D+02 0.597714671101964D+02
 0.000000000000000D+00 -.000000000000000D+00 0.000000000000000D+00 0.000000000000000D+00
 0.436094382342949D+03 0.000000000000000D+00 0.000000000000000D+00 0.436094382342949D+03
 0.277247774462600D+03 0.000000000000000D+00 0.000000000000000D+00 -.277247774462600D+03
 0.180492293728250D+03 0.704473659111943D+02 -.917442556836881D+02 -.597714671101964D+02
 0.217689295645501D+03 -.555272071629327D+02 -.180048546450155D+03 0.597714671101964D+02
 0.315160567431799D+03 -.149201587482616D+02 0.271792802133844D+03 0.158846607880349D+03
0.129199866871D-02 0.000000000000D+00 0.000000000000D+00 0.152709992793D-02 0.000000000000D+00  5 1 -1 25 23 21 0 0.23848733D-02 0.20954220D+00 0.17508463D+05 0.17508463D+05 0.17508463D+05 0.12402385D+01  1  2  2  1  5  1        1 0.867744675234D-01 0.100000000000D+01
-.710128311019D-04 0.000000000000D+00 -.496161507890D-05 0.152709992793D-02 0.000000000000D+00  5 1 -1 25 23 21 2 0.23848733D-02 0.20954220D+00 0.17508463D+05 0.17508463D+05 0.17508463D+05 0.12402385D+01  1  2  3  1  5  1        1 -.733630103570D-02 0.100000000000D+01
0.889037167400D-04 0.000000000000D+00 0.000000000000D+00 0.152709992793D-02 0.000000000000D+00  5 1 -1 25 23 21 2 0.23848733D-02 0.20954220D+00 0.17508463D+05 0.17508463D+05 0.17508463D+05 0.12402385D+01  1  2 15  1  5  1        1 0.918459972763D-02 0.100000000000D+01
0.121538727567D-02 0.000000000000D+00 -.749103093173D-03 0.152709992793D-02 0.000000000000D+00  5 1 -1 25 23 21 2 0.15213261D-01 0.20954220D+00 0.17508463D+05 0.17508463D+05 0.17508463D+05 0.12402385D+01  1  2  5  1  5  1        1 0.102667580751D-01 0.100000000000D+01
0.219028703802D-03 0.000000000000D+00 -.170072725529D-03 0.152709992793D-02 0.000000000000D+00  5 21 -1 25 23 -1 2 0.15213261D-01 0.20954220D+00 0.17508463D+05 0.17508463D+05 0.17508463D+05 0.12402385D+01  1  2  5  3  5  1        1 0.183086996650D-01 0.100000000000D+01
  </mgrwgt>
  </event>
  <event>
  4     66 0.49155423E-03 0.12292267E+03 0.75467711E-02 0.10629467E+00
        1 -1    0    0  501    0 0.00000000E+00 0.00000000E+00 0.18395661E+03 0.18395689E+03 0.32000000E+00 0.0000E+00 0.9000E+01
       -1 -1    0    0    0  501 0.00000000E+00 0.00000000E+00 -.89466659E+02 0.89467231E+02 0.32000000E+00 0.0000E+00 0.9000E+01
       25  1    1    2    0    0 0.52488612E+01 -.57734923E+02 0.91354625E+02 0.16532253E+03 0.12500000E+03 0.0000E+00 0.9000E+01
       23  1    1    2    0    0 -.52488612E+01 0.57734923E+02 0.31353266E+01 0.10810159E+03 0.91188000E+02 0.0000E+00 0.9000E+01
#aMCatNLO 1  0  0  2  1 0.30588662D+03 0.00000000D+00  -5  5  0 0.00000000D+00 0.00000000D+00 0.00000000D+00 0.00000000D+00 0.00000000D+00
  <mgrwgt>
 0.1495455838D+00    3    2    0
 0.128289125159170D+03 0.000000000000000D+00 0.000000000000000D+00 0.128289125159170D+03
 0.128289125159170D+03 0.000000000000000D+00 0.000000000000000D+00 -.128289125159170D+03
 0.142533802264363D+03 0.524886118658915D+01 -.577349229145085D+02 0.364693421963727D+02
 0.114044448053978D+03 -.524886118658915D+01 0.577349229145085D+02 -.364693421963727D+02
 0.000000000000000D+00 -.000000000000000D+00 -.000000000000000D+00 0.000000000000000D+00
 0.585606805555795D+03 0.000000000000000D+00 0.000000000000000D+00 0.585606805555795D+03
 0.260226883275487D+03 0.000000000000000D+00 0.000000000000000D+00 -.260226883275487D+03
 0.212488841695888D+03 0.166638878440977D+03 -.206876561494344D+02 0.364693421963727D+02
 0.186759227276413D+03 0.131493713343926D+03 0.891243404445279D+02 -.364693421963727D+02
 0.446585619858980D+03 -.298132591784903D+03 -.684366842950936D+02 0.325379922280308D+03
0.257010326589D-03 0.000000000000D+00 0.000000000000D+00 0.186502209395D-02 0.000000000000D+00  5 1 -1 25 23 21 0 0.28301082D-01 0.13764167D-01 0.15109983D+05 0.15109983D+05 0.15109983D+05 0.12474610D+01  1  2  2  2  5  2       -1 0.146430425984D+00 0.100000000000D+01
-.142466524041D-04 0.000000000000D+00 -.986987326476D-06 0.186502209395D-02 0.000000000000D+00  5 1 -1 25 23 21 2 0.28301082D-01 0.13764167D-01 0.15109983D+05 0.15109983D+05 0.15109983D+05 0.12474610D+01  1  2  3  2  5  2       -1 -.126312850678D-01 0.100000000000D+01
0.177601959637D-04 0.000000000000D+00 0.000000000000D+00 0.186502209395D-02 0.000000000000D+00  5 1 -1 25 23 21 2 0.28301082D-01 0.13764167D-01 0.15109983D+05 0.15109983D+05 0.15109983D+05 0.12474610D+01  1  2 15  2  5  2       -1 0.157464428635D-01 0.100000000000D+01
  </mgrwgt>
  </event>
  <event>
  4     66 0.49155423E-03 0.13041106E+03 0.75467711E-02 0.11830005E+00
        1 -1    0    0  501    0 0.00000000E+00 0.00000000E+00 0.30533774E+03 0.30533791E+03 0.32000000E+00 0.0000E+00 0.9000E+01
       -1 -1    0    0    0  501 0.00000000E+00 0.00000000E+00 -.65283280E+02 0.65284064E+02 0.32000000E+00 0.0000E+00 0.9000E+01
       25  1    1    2    0    0 -.20133787E+02 -.69483169E+02 0.60376553E+02 0.15653628E+03 0.12500000E+03 0.0000E+00 0.9000E+01
       23  1    1    2    0    0 0.20133787E+02 0.69483169E+02 0.17967791E+03 0.21408569E+03 0.91188000E+02 0.0000E+00 0.9000E+01
#aMCatNLO 1  0  0  2  1 0.62019215D+02 0.00000000D+00  -5  5  0 0.00000000D+00 0.00000000D+00 0.00000000D+00 0.00000000D+00 0.00000000D+00
  <mgrwgt>
 0.1688233766D+00    3    2    0
 0.141186492436822D+03 0.000000000000000D+00 0.000000000000000D+00 0.141186492436822D+03
 0.141186492436822D+03 0.000000000000000D+00 0.000000000000000D+00 -.141186492436822D+03
 0.154129920185888D+03 -.201337865307290D+02 -.694831693564368D+02 -.538307729150141D+02
 0.128243064687756D+03 0.201337865307290D+02 0.694831693564368D+02 0.538307729150141D+02
 0.000000000000000D+00 -.000000000000000D+00 -.000000000000000D+00 0.000000000000000D+00
 0.602275222057671D+03 0.000000000000000D+00 0.000000000000000D+00 0.602275222057671D+03
 0.146652617651252D+03 0.000000000000000D+00 0.000000000000000D+00 -.146652617651252D+03
 0.149161101114212D+03 0.113770817961588D+02 -.599736940898253D+02 -.538307729150141D+02
 0.139942488758838D+03 0.479973204579908D+02 0.778919375304193D+02 0.538307729150141D+02
 0.459824249835872D+03 -.593744022541495D+02 -.179182434405939D+02 0.455622604406419D+03
0.332936441971D-03 0.000000000000D+00 0.000000000000D+00 0.160228444625D-02 0.000000000000D+00  5 1 -1 25 23 21 0 0.46975110D-01 0.10043655D-01 0.17007044D+05 0.17007044D+05 0.17007044D+05 0.12416527D+01  1  2  2  2  5  2       -1 0.165263524361D+00 0.100000000000D+01
-.183547251872D-04 0.000000000000D+00 -.127856360135D-05 0.160228444625D-02 0.000000000000D+00  5 1 -1 25 23 21 2 0.46975110D-01 0.10043655D-01 0.17007044D+05 0.17007044D+05 0.17007044D+05 0.12416527D+01  1  2  3  2  5  2       -1 -.140463617448D-01 0.100000000000D+01
0.230064713155D-04 0.000000000000D+00 0.000000000000D+00 0.160228444625D-02 0.000000000000D+00  5 1 -1 25 23 21 2 0.46975110D-01 0.10043655D-01 0.17007044D+05 0.17007044D+05 0.17007044D+05 0.12416527D+01  1  2 15  2  5  2       -1 0.176062139461D-01 0.100000000000D+01
  </mgrwgt>
  </event>
  <event>
  4     66 0.49155423E-03 0.91033182E+02 0.75467711E-02 0.11501890E+00
        1 -1    0    0  501    0 0.00000000E+00 0.00000000E+00 0.18970630E+03 0.18970657E+03 0.32000000E+00 0.0000E+00 0.9000E+01
       -1 -1    0    0    0  501 0.00000000E+00 0.00000000E+00 -.17215590E+03 0.17215620E+03 0.32000000E+00 0.0000E+00 0.9000E+01
       25  1    1    2    0    0 -.37823941E+02 0.10221484E+03 -.85252471E+02 0.18647120E+03 0.12500000E+03 0.0000E+00 0.9000E+01
       23  1    1    2    0    0 0.37823941E+02 -.10221484E+03 0.10280287E+03 0.17539158E+03 0.91188000E+02 0.0000E+00 0.9000E+01
#aMCatNLO 1  0  0  2  1 0.80747077D+02 0.00000000D+00  -5  5  0 0.00000000D+00 0.00000000D+00 0.00000000D+00 0.00000000D+00 0.00000000D+00
  <mgrwgt>
 0.1036160531D+00    9    2    0
 0.180718462186429D+03 0.000000000000000D+00 0.000000000000000D+00 0.180718462186429D+03
 0.180718462186429D+03 0.000000000000000D+00 0.000000000000000D+00 -.180718462186429D+03
 0.190830528999585D+03 -.378239409325634D+02 0.102214836750703D+03 -.944074543593812D+02
 0.170606395373273D+03 0.378239409325634D+02 -.102214836750703D+03 0.944074543593812D+02
 0.000000000000000D+00 -.000000000000000D+00 0.000000000000000D+00 -.000000000000000D+00
 0.201865076542027D+03 0.000000000000000D+00 0.000000000000000D+00 0.201865076542027D+03
 0.282828163041648D+03 0.000000000000000D+00 0.000000000000000D+00 -.282828163041648D+03
 0.171583332288707D+03 -.309194518472982D+02 0.628256315379397D+02 -.944074543593812D+02
 0.198763452134213D+03 0.448609512485480D+02 -.142360058214256D+03 0.944074543593812D+02
 0.114346455160754D+03 -.139414994012498D+02 0.795344266763159D+02 -.809630864996209D+02
0.551996667966D-03 0.000000000000D+00 0.000000000000D+00 0.116692764027D-02 0.000000000000D+00  5 1 -1 25 23 21 0 0.29185629D-01 0.26485567D-01 0.23707787D+05 0.23707787D+05 0.23707787D+05 0.12257765D+01  1  2  2  2  5  2       -1 0.107313708110D+00 0.100000000000D+01
-.297100394489D-04 0.000000000000D+00 -.211981254905D-05 0.116692764027D-02 0.000000000000D+00  5 1 -1 25 23 21 2 0.29185629D-01 0.26485567D-01 0.23707787D+05 0.23707787D+05 0.23707787D+05 0.12257765D+01  1  2  3  2  5  2       -1 -.867849809028D-02 0.100000000000D+01
0.379961239018D-04 0.000000000000D+00 0.000000000000D+00 0.116692764027D-02 0.000000000000D+00  5 1 -1 25 23 21 2 0.29185629D-01 0.26485567D-01 0.23707787D+05 0.23707787D+05 0.23707787D+05 0.12257765D+01  1  2 15  2  5  2       -1 0.110989179024D-01 0.100000000000D+01
0.265812350888D-03 0.000000000000D+00 0.000000000000D+00 0.116692764027D-02 0.000000000000D+00  5 1 -1 25 23 21 2 0.29185629D-01 0.42284581D-01 0.39787304D+05 0.39787304D+05 0.39787304D+05 0.12022355D+01  1  2 12  2  5  2       -1 0.336305770166D-01 0.100000000000D+01
-.453830219444D-03 0.000000000000D+00 0.000000000000D+00 0.116692764027D-02 0.000000000000D+00  5 1 -1 25 23 21 2 0.29185629D-01 0.26485567D-01 0.23707787D+05 0.23707787D+05 0.23707787D+05 0.12257765D+01  1  2  4  2  5  2       -1 -.132566794451D+00 0.100000000000D+01
-.481377408394D-03 0.000000000000D+00 -.181769527785D-03 0.116692764027D-02 0.000000000000D+00  5 1 -1 25 23 21 2 0.29185629D-01 0.45495501D-01 0.23707787D+05 0.23707787D+05 0.23707787D+05 0.12257765D+01  1  2  5  2  5  2       -1 -.553712387329D-01 0.100000000000D+01
0.524734495956D-03 0.000000000000D+00 0.158066998290D-03 0.116692764027D-02 0.000000000000D+00  5 1 -1 25 23 21 2 0.29185629D-01 0.26485567D-01 0.23707787D+05 0.23707787D+05 0.23707787D+05 0.12257765D+01  1  2  6  2  5  2       -1 0.153278400350D+00 0.100000000000D+01
0.142288820070D-04 0.000000000000D+00 0.000000000000D+00 0.116692764027D-02 0.000000000000D+00  5 1 21 25 23 1 2 0.29185629D-01 0.42284581D-01 0.39787304D+05 0.39787304D+05 0.39787304D+05 0.12022355D+01  1  2 12  4  5  2       -1 0.187874609842D-01 0.100000000000D+01
-.200034476701D-04 0.000000000000D+00 -.109233068296D-04 0.116692764027D-02 0.000000000000D+00  5 1 21 25 23 1 2 0.29185629D-01 0.45495501D-01 0.23707787D+05 0.23707787D+05 0.23707787D+05 0.12257765D+01  1  2  5  4  5  2       -1 -.238764799894D-01 0.100000000000D+01
  </mgrwgt>
  </event>
  <event>
  4     66 0.49155423E-03 0.57330422E+02 0.75467711E-02 0.12391429E+00
        1 -1    0    0  501    0 0.00000000E+00 0.00000000E+00 0.53908080E+02 0.53909030E+02 0.32000000E+00 0.0000E+00 0.9000E+01
       -1 -1    0    0    0  501 0.00000000E+00 0.00000000E+00 -.23560555E+03 0.23560577E+03 0.32000000E+00 0.0000E+00 0.9000E+01
       25  1    1    2    0    0 0.28161675E+02 0.14024539E+02 -.10127242E+03 0.16392337E+03 0.12500000E+03 0.0000E+00 0.9000E+01
       23  1    1    2    0    0 -.28161675E+02 -.14024539E+02 -.80425050E+02 0.12559143E+03 0.91188000E+02 0.0000E+00 0.9000E+01
#aMCatNLO 1  0  0  1  2 0.18720939D+02 0.00000000D+00  -5  5  0 0.00000000D+00 0.00000000D+00 0.00000000D+00 0.00000000D+00 0.00000000D+00
  <mgrwgt>
 0.9781918055D-01    9    2    0
 0.112699654637585D+03 0.000000000000000D+00 0.000000000000000D+00 0.112699654637585D+03
 0.112699654637585D+03 0.000000000000000D+00 0.000000000000000D+00 -.112699654637585D+03
 0.128914763458252D+03 0.281616749864806D+02 0.140245388211951D+02 0.206121573484486D+01
 0.964845458169180D+02 -.281616749864806D+02 -.140245388211951D+02 -.206121573484486D+01
 0.000000000000000D+00 0.000000000000000D+00 -.000000000000000D+00 0.000000000000000D+00
 0.126270719756406D+03 0.000000000000000D+00 0.000000000000000D+00 0.126270719756406D+03
 0.119734023974258D+03 0.000000000000000D+00 0.000000000000000D+00 -.119734023974258D+03
 0.129089986752670D+03 0.224343779548576D+02 0.230580735378637D+02 0.206121573484486D+01
 0.970854366972925D+02 -.324586221758585D+02 -.724706222156845D+01 -.206121573484486D+01
 0.198293202807015D+02 0.100242442210008D+02 -.158110113162953D+02 0.653669578214828D+01
0.130079514790D-03 0.000000000000D+00 0.000000000000D+00 0.232457414770D-02 0.000000000000D+00  5 1 -1 25 23 21 0 0.82936406D-02 0.36247098D-01 0.12696874D+05 0.12696874D+05 0.12696874D+05 0.12561610D+01  1  2  2  1  5  1        1 0.742734038936D-01 0.100000000000D+01
-.722663945419D-05 0.000000000000D+00 -.499539587517D-06 0.232457414770D-02 0.000000000000D+00  5 1 -1 25 23 21 2 0.82936406D-02 0.36247098D-01 0.12696874D+05 0.12696874D+05 0.12696874D+05 0.12561610D+01  1  2  3  1  5  1        1 -.651105607562D-02 0.100000000000D+01
0.897062581198D-05 0.000000000000D+00 0.000000000000D+00 0.232457414770D-02 0.000000000000D+00  5 1 -1 25 23 21 2 0.82936406D-02 0.36247098D-01 0.12696874D+05 0.12696874D+05 0.12696874D+05 0.12561610D+01  1  2 15  1  5  1        1 0.808235253266D-02 0.100000000000D+01
0.205807795301D-03 0.000000000000D+00 0.000000000000D+00 0.232457414770D-02 0.000000000000D+00  5 1 -1 25 23 21 2 0.95267992D-02 0.36247098D-01 0.14988863D+05 0.14988863D+05 0.14988863D+05 0.12478593D+01  1  2 12  1  5  1        1 0.153107790468D+00 0.100000000000D+01
-.193814256542D-03 0.000000000000D+00 0.000000000000D+00 0.232457414770D-02 0.000000000000D+00  5 1 -1 25 23 21 2 0.82936406D-02 0.36247098D-01 0.12696874D+05 0.12696874D+05 0.12696874D+05 0.12561610D+01  1  2  4  1  5  1        1 -.174622727562D+00 0.100000000000D+01
-.524723733993D-03 0.000000000000D+00 -.123729354251D-03 0.232457414770D-02 0.000000000000D+00  5 1 -1 25 23 21 2 0.98580830D-02 0.36247098D-01 0.12696874D+05 0.12696874D+05 0.12696874D+05 0.12561610D+01  1  2  5  1  5  1        1 -.375984611045D+00 0.100000000000D+01
0.539848889468D-03 0.000000000000D+00 0.121904735815D-03 0.232457414770D-02 0.000000000000D+00  5 1 -1 25 23 21 2 0.82936406D-02 0.36247098D-01 0.12696874D+05 0.12696874D+05 0.12696874D+05 0.12561610D+01  1  2  6  1  5  1        1 0.486392937405D+00 0.100000000000D+01
0.440220919033D-05 0.000000000000D+00 0.000000000000D+00 0.232457414770D-02 0.000000000000D+00  5 21 -1 25 23 -1 2 0.95267992D-02 0.36247098D-01 0.14988863D+05 0.14988863D+05 0.14988863D+05 0.12478593D+01  1  2 12  3  5  1        1 0.403451442785D-01 0.100000000000D+01
-.122977577296D-04 0.000000000000D+00 -.316028417828D-05 0.232457414770D-02 0.000000000000D+00  5 21 -1 25 23 -1 2 0.98580830D-02 0.36247098D-01 0.12696874D+05 0.12696874D+05 0.12696874D+05 0.12561610D+01  1  2  5  3  5  1        1 -.107264053341D+00 0.100000000000D+01
  </mgrwgt>
  </event>
  <event>
  5     66 0.49155423E-03 0.11776778E+03 0.75467711E-02 0.12394017E+00
        1 -1    0    0  502    0 0.00000000E+00 0.00000000E+00 0.11934265E+04 0.11934265E+04 0.32000000E+00 0.0000E+00 0.9000E+01
       -1 -1    0    0    0  501 0.00000000E+00 0.00000000E+00 -.16572601E+02 0.16575690E+02 0.32000000E+00 0.0000E+00 0.9000E+01
       25  1    1    2    0    0 0.12778399E+02 -.49509246E+02 0.93013019E+03 0.93988383E+03 0.12500000E+03 0.0000E+00 0.9000E+01
       23  1    1    2    0    0 -.12035796E+02 0.40597464E+02 0.23240402E+03 0.25321907E+03 0.91188000E+02 0.0000E+00 0.9000E+01
       21  1    1    2  502  501 -.74260299E+00 0.89117824E+01 0.14319649E+02 0.16899295E+02 0.75000000E+00 0.0000E+00 0.9000E+01
#aMCatNLO 2  0  0  1  2 0.89426688D+01 0.00000000D+00  -5  5  0 0.00000000D+00 0.00000000D+00 0.00000000D+00 0.00000000D+00 0.00000000D+00
  <mgrwgt>
 0.7363174517D-01    2    2    0
 0.134097693640460D+03 0.000000000000000D+00 0.000000000000000D+00 0.134097693640460D+03
 0.134097693640460D+03 0.000000000000000D+00 0.000000000000000D+00 -.134097693640460D+03
 0.147725349078738D+03 0.123672667050536D+02 -.445753547554481D+02 0.637013910610044D+02
 0.120470038202181D+03 -.123672667050536D+02 0.445753547554481D+02 -.637013910610044D+02
 0.000000000000000D+00 -.000000000000000D+00 0.000000000000000D+00 -.000000000000000D+00
 0.135939743266923D+03 0.000000000000000D+00 0.000000000000000D+00 0.135939743266923D+03
 0.145483422947677D+03 0.000000000000000D+00 0.000000000000000D+00 -.145483422947677D+03
 0.149322872132930D+03 0.127783990875218D+02 -.495092459615412D+02 0.637013910610044D+02
 0.119021565268485D+03 -.120357961003336D+02 0.405974635178667D+02 -.637013910610044D+02
 0.130787288131840D+02 -.742602987188193D+00 0.891178244367448D+01 -.954367968075440D+01
-.906784892705D-06 0.000000000000D+00 0.000000000000D+00 0.156413845806D-02 0.000000000000D+00  5 1 -1 25 23 21 2 0.18110221D+00 0.23501315D-02 0.13869251D+05 0.13869251D+05 0.13869251D+05 0.12517217D+01  1  2  8  1  5  1        1 -.885222491469D-03 0.100000000000D+01
0.884651683893D-04 0.000000000000D+00 0.000000000000D+00 0.156413845806D-02 0.162926566298D-03  5 1 -1 25 23 21 2 0.18358994D+00 0.25496723D-02 0.14949471D+05 0.14949471D+05 0.14949471D+05 0.12479896D+01  1  2  1  1  5  1        1 0.745169676630D-01 0.100000000000D+01
  </mgrwgt>
  </event>
  <event>
  4     66 0.49155423E-03 0.54390029E+02 0.75467711E-02 0.12011095E+00
        1 -1    0    0  501    0 0.00000000E+00 0.00000000E+00 0.13898359E+03 0.13898396E+03 0.32000000E+00 0.0000E+00 0.9000E+01
       -1 -1    0    0    0  501 0.00000000E+00 0.00000000E+00 -.93180620E+02 0.93181170E+02 0.32000000E+00 0.0000E+00 0.9000E+01
       25  1    1    2    0    0 -.10092355E+00 0.31871873E+02 0.10914268E+02 0.12946022E+03 0.12500000E+03 0.0000E+00 0.9000E+01
       23  1    1    2    0    0 0.10092355E+00 -.31871873E+02 0.34888707E+02 0.10270492E+03 0.91188000E+02 0.0000E+00 0.9000E+01
#aMCatNLO 1  0  0  1  2 0.64349706D+02 0.00000000D+00  -5  5  0 0.00000000D+00 0.00000000D+00 0.00000000D+00 0.00000000D+00 0.00000000D+00
  <mgrwgt>
 0.1265770108D+00    9    2    0
 0.113801072252747D+03 0.000000000000000D+00 0.000000000000000D+00 0.113801072252747D+03
 0.113801072252747D+03 0.000000000000000D+00 0.000000000000000D+00 -.113801072252747D+03
 0.129859244006536D+03 -.100923554367792D+00 0.318718731052966D+02 -.149196773807334D+02
 0.977429004989576D+02 0.100923554367792D+00 -.318718731052966D+02 0.149196773807334D+02
 0.000000000000000D+00 -.000000000000000D+00 0.000000000000000D+00 0.000000000000000D+00
 0.160317025700489D+03 0.000000000000000D+00 0.000000000000000D+00 0.160317025700489D+03
 0.142877903374821D+03 0.000000000000000D+00 0.000000000000000D+00 -.142877903374821D+03
 0.129533868416871D+03 0.287113395606523D+02 0.103482015117152D+02 -.149196773807334D+02
 0.106990170178390D+03 0.228417860452465D+02 -.488600164543452D+02 0.149196773807334D+02
 0.666708904800483D+02 -.515531256058989D+02 0.385118149426300D+02 0.174391223256686D+02
0.138307427036D-03 0.000000000000D+00 0.000000000000D+00 0.226605236019D-02 0.000000000000D+00  5 1 -1 25 23 21 0 0.21382162D-01 0.14335551D-01 0.12723483D+05 0.12723483D+05 0.12723483D+05 0.12560552D+01  1  2  2  1  5  1        1 0.104400377271D+00 0.100000000000D+01
-.768301429107D-05 0.000000000000D+00 -.531136937002D-06 0.226605236019D-02 0.000000000000D+00  5 1 -1 25 23 21 2 0.21382162D-01 0.14335551D-01 0.12723483D+05 0.12723483D+05 0.12723483D+05 0.12560552D+01  1  2  3  1  5  1        1 -.914967523053D-02 0.100000000000D+01
0.958357675899D-05 0.000000000000D+00 0.000000000000D+00 0.226605236019D-02 0.000000000000D+00  5 1 -1 25 23 21 2 0.21382162D-01 0.14335551D-01 0.12723483D+05 0.12723483D+05 0.12723483D+05 0.12560552D+01  1  2 15  1  5  1        1 0.114130485210D-01 0.100000000000D+01
0.322942693418D-04 0.000000000000D+00 0.000000000000D+00 0.226605236019D-02 0.000000000000D+00  5 1 -1 25 23 21 2 0.31942129D-01 0.14335551D-01 0.22345209D+05 0.22345209D+05 0.22345209D+05 0.12285596D+01  1  2 12  1  5  1        1 0.226925947506D-01 0.100000000000D+01
-.650413869386D-04 0.000000000000D+00 0.000000000000D+00 0.226605236019D-02 0.000000000000D+00  5 1 -1 25 23 21 2 0.21382162D-01 0.14335551D-01 0.12723483D+05 0.12723483D+05 0.12723483D+05 0.12560552D+01  1  2  4  1  5  1        1 -.774575634622D-01 0.100000000000D+01
-.865852080207D-04 0.000000000000D+00 -.552115891681D-04 0.226605236019D-02 0.000000000000D+00  5 1 -1 25 23 21 2 0.37226079D-01 0.14335551D-01 0.12723483D+05 0.12723483D+05 0.12723483D+05 0.12560552D+01  1  2  5  1  5  1        1 -.518011477661D-01 0.100000000000D+01
0.107730071187D-03 0.000000000000D+00 0.476912876720D-04 0.226605236019D-02 0.000000000000D+00  5 1 -1 25 23 21 2 0.21382162D-01 0.14335551D-01 0.12723483D+05 0.12723483D+05 0.12723483D+05 0.12560552D+01  1  2  6  1  5  1        1 0.128295370356D+00 0.100000000000D+01
0.154106041816D-05 0.000000000000D+00 0.000000000000D+00 0.226605236019D-02 0.000000000000D+00  5 21 -1 25 23 -1 2 0.31942129D-01 0.14335551D-01 0.22345209D+05 0.22345209D+05 0.22345209D+05 0.12285596D+01  1  2 12  3  5  1        1 0.680260465407D-02 0.100000000000D+01
-.253216151333D-05 0.000000000000D+00 -.338632688378D-05 0.226605236019D-02 0.000000000000D+00  5 21 -1 25 23 -1 2 0.37226079D-01 0.14335551D-01 0.12723483D+05 0.12723483D+05 0.12723483D+05 0.12560552D+01  1  2  5  3  5  1        1 -.861859833399D-02 0.100000000000D+01
  </mgrwgt>
  </event>
  <event>
  4     66 0.49155423E-03 0.21611926E+03 0.75467711E-02 0.10183432E+00
        1 -1    0    0  501    0 0.00000000E+00 0.00000000E+00 0.19491799E+04 0.19491800E+04 0.32000000E+00 0.0000E+00 0.9000E+01
       -1 -1    0    0    0  501 0.00000000E+00 0.00000000E+00 -.24510548E+02 0.24512637E+02 0.32000000E+00 0.0000E+00 0.9000E+01
       25  1    1    2    0    0 0.18555780E+03 0.19421936E+02 0.11467164E+04 0.11685001E+04 0.12500000E+03 0.0000E+00 0.9000E+01
       23  1    1    2    0    0 -.18555780E+03 -.19421936E+02 0.77795299E+03 0.80519253E+03 0.91188000E+02 0.0000E+00 0.9000E+01
#aMCatNLO 1  0  0  2  2 0.38715202D+03 0.00000000D+00  -5  5  0 0.00000000D+00 0.00000000D+00 0.00000000D+00 0.00000000D+00 0.00000000D+00
  <mgrwgt>
 0.1517070169D+00    5    2    0
 0.218580777618622D+03 0.000000000000000D+00 0.000000000000000D+00 0.218580777618622D+03
 0.218580777618622D+03 0.000000000000000D+00 0.000000000000000D+00 -.218580777618622D+03
 0.226941243639053D+03 0.185557800684608D+03 0.194219362087559D+02 0.326866802143366D+02
 0.210220311598190D+03 -.185557800684608D+03 -.194219362087559D+02 -.326866802143366D+02
 0.000000000000000D+00 -.000000000000000D+00 0.000000000000000D+00 -.000000000000000D+00
 0.430797241041082D+03 0.000000000000000D+00 0.000000000000000D+00 0.430797241041082D+03
 0.561899692005084D+03 0.000000000000000D+00 0.000000000000000D+00 -.561899692005084D+03
 0.452687228261981D+03 0.428918038597722D+03 -.652811131458684D+02 0.326866802143366D+02
 0.131262180169417D+03 -.632803154473083D+02 -.619813779476000D+02 -.326866802143366D+02
 0.408747524614770D+03 -.365637723150413D+03 0.127262491093468D+03 -.131102450964002D+03
0.126113612492D-02 0.000000000000D+00 0.000000000000D+00 0.137928368627D-02 0.000000000000D+00  5 1 -1 25 23 21 0 0.29987400D+00 0.37710163D-02 0.46707536D+05 0.46707536D+05 0.46707536D+05 0.11952227D+01  1  2  2  2  5  2       -1 0.123893816381D+00 0.100000000000D+01
-.700521919407D-04 0.000000000000D+00 -.484309478445D-05 0.137928368627D-02 0.000000000000D+00  5 1 -1 25 23 21 2 0.29987400D+00 0.37710163D-02 0.46707536D+05 0.46707536D+05 0.46707536D+05 0.11952227D+01  1  2  3  2  5  2       -1 -.983121194003D-02 0.100000000000D+01
0.864695376467D-04 0.000000000000D+00 0.000000000000D+00 0.137928368627D-02 0.000000000000D+00  5 1 -1 25 23 21 2 0.29987400D+00 0.37710163D-02 0.46707536D+05 0.46707536D+05 0.46707536D+05 0.11952227D+01  1  2 15  2  5  2       -1 0.121352427013D-01 0.100000000000D+01
0.112949854732D-02 0.000000000000D+00 -.631270180282D-03 0.137928368627D-02 0.000000000000D+00  5 1 -1 25 23 21 2 0.29987400D+00 0.25768507D-01 0.46707536D+05 0.46707536D+05 0.46707536D+05 0.11952227D+01  1  2  5  2  5  2       -1 0.801624275589D-02 0.100000000000D+01
0.209095237759D-03 0.000000000000D+00 -.148413929443D-03 0.137928368627D-02 0.000000000000D+00  5 1 21 25 23 1 2 0.29987400D+00 0.25768507D-01 0.46707536D+05 0.46707536D+05 0.46707536D+05 0.11952227D+01  1  2  5  4  5  2       -1 0.174929269648D-01 0.100000000000D+01
  </mgrwgt>
  </event>
  <event>
  4     66 0.49155423E-03 0.13182594E+03 0.75467711E-02 0.10455870E+00
        1 -1    0    0  501    0 0.00000000E+00 0.00000000E+00 0.44472139E+03 0.44472151E+03 0.32000000E+00 0.0000E+00 0.9000E+01
       -1 -1    0    0    0  501 0.00000000E+00 0.00000000E+00 -.51204735E+02 0.51205735E+02 0.32000000E+00 0.0000E+00 0.9000E+01
       25  1    1    2    0    0 -.61406847E+02 -.42770551E+02 0.33271991E+03 0.36321848E+03 0.12500000E+03 0.0000E+00 0.9000E+01
       23  1    1    2    0    0 0.61406847E+02 0.42770551E+02 0.60796741E+02 0.13270876E+03 0.91188000E+02 0.0000E+00 0.9000E+01
#aMCatNLO 1  0  0  1  2 0.35181852D+03 0.00000000D+00  -5  5  0 0.00000000D+00 0.00000000D+00 0.00000000D+00 0.00000000D+00 0.00000000D+00
  <mgrwgt>
 0.1273623209D+00    5    2    0
 0.150904332616020D+03 0.000000000000000D+00 0.000000000000000D+00 0.150904332616020D+03
 0.150904332616020D+03 0.000000000000000D+00 0.000000000000000D+00 -.150904332616020D+03
 0.163014237827621D+03 -.614068468444924D+02 -.427705510645850D+02 0.731335822776994D+02
 0.138794427404418D+03 0.614068468444924D+02 0.427705510645850D+02 -.731335822776994D+02
 0.000000000000000D+00 -.000000000000000D+00 -.000000000000000D+00 0.000000000000000D+00
 0.433994800206625D+03 0.000000000000000D+00 0.000000000000000D+00 0.433994800206625D+03
 0.384783810446547D+03 0.000000000000000D+00 0.000000000000000D+00 -.384783810446547D+03
 0.171147245320611D+03 0.898199371494418D+02 -.158189005475989D+02 0.731335822776994D+02
 0.292387800834039D+03 0.256540951103047D+03 0.775473679949288D+02 -.731335822776994D+02
 0.355243564498522D+03 -.346360888252489D+03 -.617284674473300D+02 0.492109897600778D+02
0.262406419002D-03 0.000000000000D+00 0.000000000000D+00 0.138559098516D-02 0.000000000000D+00  5 1 -1 25 23 21 0 0.68418761D-01 0.78777374D-02 0.17378078D+05 0.17378078D+05 0.17378078D+05 0.12406018D+01  1  2  2  1  5  1        1 0.117594353016D+00 0.100000000000D+01
-.142543145155D-04 0.000000000000D+00 -.100770974216D-05 0.138559098516D-02 0.000000000000D+00  5 1 -1 25 23 21 2 0.68418761D-01 0.78777374D-02 0.17378078D+05 0.17378078D+05 0.17378078D+05 0.12406018D+01  1  2  3  1  5  1        1 -.983157714463D-02 0.100000000000D+01
0.181578292146D-04 0.000000000000D+00 0.000000000000D+00 0.138559098516D-02 0.000000000000D+00  5 1 -1 25 23 21 2 0.68418761D-01 0.78777374D-02 0.17378078D+05 0.17378078D+05 0.17378078D+05 0.12406018D+01  1  2 15  1  5  1        1 0.125239343153D-01 0.100000000000D+01
0.213967781277D-03 0.000000000000D+00 -.122942641426D-03 0.138559098516D-02 0.000000000000D+00  5 1 -1 25 23 21 2 0.35816847D+00 0.78777374D-02 0.17378078D+05 0.17378078D+05 0.17378078D+05 0.12406018D+01  1  2  5  1  5  1        1 0.627835921890D-02 0.100000000000D+01
0.386931762072D-04 0.000000000000D+00 -.248622154819D-04 0.138559098516D-02 0.000000000000D+00  5 21 -1 25 23 -1 2 0.35816847D+00 0.78777374D-02 0.17378078D+05 0.17378078D+05 0.17378078D+05 0.12406018D+01  1  2  5  3  5  1        1 0.797251540355D-03 0.100000000000D+01
  </mgrwgt>
  </event>
  <event>
  4     66 0.49155423E-03 0.11218375E+03 0.75467711E-02 0.11396048E+00
        1 -1    0    0  501    0 0.00000000E+00 0.00000000E+00 0.16562859E+03 0.16562890E+03 0.32000000E+00 0.0000E+00 0.9000E+01
       -1 -1    0    0    0  501 0.00000000E+00 0.00000000E+00 -.77105541E+02 0.77106205E+02 0.32000000E+00 0.0000E+00 0.9000E+01
       25  1    1    2    0    0 -.28875862E+02 -.68268741E+01 0.36108612E+02 0.13345131E+03 0.12500000E+03 0.0000E+00 0.9000E+01
       23  1    1    2    0    0 0.28875862E+02 0.68268741E+01 0.52414435E+02 0.10928379E+03 0.91188000E+02 0.0000E+00 0.9000E+01
#aMCatNLO 1  0  0  2  1 0.15332574D+03 0.00000000D+00  -5  5  0 0.00000000D+00 0.00000000D+00 0.00000000D+00 0.00000000D+00 0.00000000D+00
  <mgrwgt>
 0.1294171544D+00    3    2    0
 0.113008848614488D+03 0.000000000000000D+00 0.000000000000000D+00 0.113008848614488D+03
 0.113008848614488D+03 0.000000000000000D+00 0.000000000000000D+00 -.113008848614488D+03
 0.129179592643870D+03 -.288758615069820D+02 -.682687409243626D+01 -.134887200279247D+02
 0.968381045851070D+02 0.288758615069820D+02 0.682687409243626D+01 0.134887200279247D+02
 0.000000000000000D+00 0.000000000000000D+00 0.000000000000000D+00 0.000000000000000D+00
 0.272933373513413D+03 0.000000000000000D+00 0.000000000000000D+00 0.272933373513413D+03
 0.179654243255734D+03 0.000000000000000D+00 0.000000000000000D+00 -.179654243255734D+03
 0.174854842817355D+03 -.105765779168916D+03 -.598403747104087D+02 -.134887200279247D+02
 0.982619471830405D+02 -.204646906365107D+02 -.271920905662438D+02 0.134887200279247D+02
 0.179470826768753D+03 0.126230469805427D+03 0.870324652766526D+02 0.932791302576794D+02
0.156124469499D-03 0.000000000000D+00 0.000000000000D+00 0.229261930522D-02 0.000000000000D+00  5 1 -1 25 23 21 0 0.25481396D-01 0.11862466D-01 0.12585194D+05 0.12585194D+05 0.12585194D+05 0.12566078D+01  1  2  2  2  5  2       -1 0.126677011766D+00 0.100000000000D+01
-.867301533709D-05 0.000000000000D+00 -.599559071392D-06 0.229261930522D-02 0.000000000000D+00  5 1 -1 25 23 21 2 0.25481396D-01 0.11862466D-01 0.12585194D+05 0.12585194D+05 0.12585194D+05 0.12566078D+01  1  2  3  2  5  2       -1 -.111121077798D-01 0.100000000000D+01
0.108117003778D-04 0.000000000000D+00 0.000000000000D+00 0.229261930522D-02 0.000000000000D+00  5 1 -1 25 23 21 2 0.25481396D-01 0.11862466D-01 0.12585194D+05 0.12585194D+05 0.12585194D+05 0.12566078D+01  1  2 15  2  5  2       -1 0.138522503665D-01 0.100000000000D+01
  </mgrwgt>
  </event>
  <event>
  4     66 0.49155423E-03 0.98151351E+02 0.75467711E-02 0.12245245E+00
        1 -1    0    0  501    0 0.00000000E+00 0.00000000E+00 0.11068278E+03 0.11068324E+03 0.32000000E+00 0.0000E+00 0.9000E+01
       -1 -1    0    0    0  501 0.00000000E+00 0.00000000E+00 -.17950321E+03 0.17950350E+03 0.32000000E+00 0.0000E+00 0.9000E+01
       25  1    1    2    0    0 -.53417962E+02 -.44945579E+02 -.95735824E+02 0.17223220E+03 0.12500000E+03 0.0000E+00 0.9000E+01
       23  1    1    2    0    0 0.53417962E+02 0.44945579E+02 0.26915390E+02 0.11795454E+03 0.91188000E+02 0.0000E+00 0.9000E+01
#aMCatNLO 1  0  0  1  2 0.59226002D+01 0.00000000D+00  -5  5  0 0.00000000D+00 0.00000000D+00 0.00000000D+00 0.00000000D+00 0.00000000D+00
  <mgrwgt>
 0.1399035160D+00    8    2    0
 0.140953975682572D+03 0.000000000000000D+00 0.000000000000000D+00 0.140953975682572D+03
 0.140953975682572D+03 0.000000000000000D+00 0.000000000000000D+00 -.140953975682572D+03
 0.153918754825201D+03 -.534179621038599D+02 -.449455785182845D+02 -.565013219603542D+02
 0.127989196539944D+03 0.534179621038599D+02 0.449455785182845D+02 0.565013219603542D+02
 0.000000000000000D+00 -.000000000000000D+00 0.000000000000000D+00 -.000000000000000D+00
 0.143762147811554D+03 0.000000000000000D+00 0.000000000000000D+00 0.143762147811554D+03
 0.144142832761126D+03 0.000000000000000D+00 0.000000000000000D+00 -.144142832761126D+03
 0.154340896984930D+03 -.520634790607658D+02 -.478863993941339D+02 -.565013219603542D+02
 0.127629261428897D+03 0.545411414261863D+02 0.425069586955702D+02 0.565013219603542D+02
 0.593482215885314D+01 -.247766236542045D+01 0.537944069856361D+01 -.380684949572255D+00
0.229573728707D-03 0.000000000000D+00 0.000000000000D+00 0.158234396912D-02 0.000000000000D+00  5 1 -1 25 23 21 0 0.17028177D-01 0.27615937D-01 0.16643053D+05 0.16643053D+05 0.16643053D+05 0.12427089D+01  1  2  2  1  5  1        1 0.816744683188D-01 0.100000000000D+01
-.126324775063D-04 0.000000000000D+00 -.881623566387D-06 0.158234396912D-02 0.000000000000D+00  5 1 -1 25 23 21 2 0.17028177D-01 0.27615937D-01 0.16643053D+05 0.16643053D+05 0.16643053D+05 0.12427089D+01  1  2  3  1  5  1        1 -.694051191821D-02 0.100000000000D+01
0.158584688556D-04 0.000000000000D+00 0.000000000000D+00 0.158234396912D-02 0.000000000000D+00  5 1 -1 25 23 21 2 0.17028177D-01 0.27615937D-01 0.16643053D+05 0.16643053D+05 0.16643053D+05 0.12427089D+01  1  2 15  1  5  1        1 0.871292998879D-02 0.100000000000D+01
0.263265090939D-03 0.000000000000D+00 0.000000000000D+00 0.158234396912D-02 0.000000000000D+00  5 1 -1 25 23 21 2 0.17555999D-01 0.27615937D-01 0.17422808D+05 0.17422808D+05 0.17422808D+05 0.12404769D+01  1  2 12  1  5  1        1 0.138773769177D+00 0.100000000000D+01
-.373457548375D-03 0.000000000000D+00 0.000000000000D+00 0.158234396912D-02 0.000000000000D+00  5 1 -1 25 23 21 2 0.17028177D-01 0.27615937D-01 0.16643053D+05 0.16643053D+05 0.16643053D+05 0.12427089D+01  1  2  4  1  5  1        1 -.205184340456D+00 0.100000000000D+01
0.183929943178D-03 0.000000000000D+00 0.000000000000D+00 0.158234396912D-02 0.370401747927D-03  5 1 -1 25 23 21 2 0.17367423D-01 0.28240703D-01 0.17422808D+05 0.17422808D+05 0.17422808D+05 0.12404769D+01  1  2 11  1  5  1        1 0.947137283236D-01 0.100000000000D+01
0.436772282544D-05 0.000000000000D+00 0.000000000000D+00 0.158234396912D-02 0.000000000000D+00  5 21 -1 25 23 -1 2 0.17555999D-01 0.27615937D-01 0.17422808D+05 0.17422808D+05 0.17422808D+05 0.12404769D+01  1  2 12  3  5  1        1 0.211186294215D-01 0.100000000000D+01
0.148060365960D-05 0.000000000000D+00 0.000000000000D+00 0.158234396912D-02 0.135056744708D-05  5 21 -1 25 23 -1 2 0.17367423D-01 0.28240703D-01 0.17422808D+05 0.17422808D+05 0.17422808D+05 0.12404769D+01  1  2 11  3  5  1        1 0.703484311925D-02 0.100000000000D+01
  </mgrwgt>
  </event>
  <event>
  4     66 0.49155423E-03 0.12612861E+03 0.75467711E-02 0.11299130E+00
        1 -1    0    0  501    0 0.00000000E+00 0.00000000E+00 0.16091986E+03 0.16092017E+03 0.32000000E+00 0.0000E+00 0.9000E+01
       -1 -1    0    0    0  501 0.00000000E+00 0.00000000E+00 -.12203398E+03 0.12203440E+03 0.32000000E+00 0.0000E+00 0.9000E+01
       25  1    1    2    0    0 0.22582310E+02 -.60318009E+02 -.40070877E+02 0.14621525E+03 0.12500000E+03 0.0000E+00 0.9000E+01
       23  1    1    2    0    0 -.22582310E+02 0.60318009E+02 0.78956754E+02 0.13673933E+03 0.91188000E+02 0.0000E+00 0.9000E+01
#aMCatNLO 1  0  0  2  2 0.15660505D+03 0.00000000D+00  -5  5  0 0.00000000D+00 0.00000000D+00 0.00000000D+00 0.00000000D+00 0.00000000D+00
  <mgrwgt>
 0.1407551241D+00    3    2    0
 0.140134915667713D+03 0.000000000000000D+00 0.000000000000000D+00 0.140134915667713D+03
 0.140134915667713D+03 0.000000000000000D+00 0.000000000000000D+00 -.140134915667713D+03
 0.153175471301494D+03 0.225823104121185D+02 -.603180087860061D+02 -.607412716443834D+02
 0.127094360033932D+03 -.225823104121185D+02 0.603180087860061D+02 0.607412716443834D+02
 0.000000000000000D+00 0.000000000000000D+00 0.000000000000000D+00 0.000000000000000D+00
 0.341556980576553D+03 0.000000000000000D+00 0.000000000000000D+00 0.341556980576553D+03
 0.194396496118487D+03 0.000000000000000D+00 0.000000000000000D+00 -.194396496118487D+03
 0.208502014969058D+03 0.179104421455528D+02 -.154394961793873D+03 -.607412716443834D+02
 0.112552996628687D+03 -.256778884429858D+02 -.201734236809846D+01 0.607412716443834D+02
 0.214898465097295D+03 0.776744629743297D+01 0.156412304161971D+03 0.147160484458066D+03
0.332699172125D-03 0.000000000000D+00 0.000000000000D+00 0.155114157683D-02 0.000000000000D+00  5 1 -1 25 23 21 0 0.24756958D-01 0.18774515D-01 0.15908427D+05 0.15908427D+05 0.15908427D+05 0.12449219D+01  1  2  2  2  5  2       -1 0.137716119797D+00 0.100000000000D+01
-.182340881969D-04 0.000000000000D+00 -.127765242266D-05 0.155114157683D-02 0.000000000000D+00  5 1 -1 25 23 21 2 0.24756958D-01 0.18774515D-01 0.15908427D+05 0.15908427D+05 0.15908427D+05 0.12449219D+01  1  2  3  2  5  2       -1 -.116977222303D-01 0.100000000000D+01
0.229712046833D-04 0.000000000000D+00 0.000000000000D+00 0.155114157683D-02 0.000000000000D+00  5 1 -1 25 23 21 2 0.24756958D-01 0.18774515D-01 0.15908427D+05 0.15908427D+05 0.15908427D+05 0.12449219D+01  1  2 15  2  5  2       -1 0.147367265519D-01 0.100000000000D+01
  </mgrwgt>
  </event>
  <event>
  5     66 0.49155423E-03 0.12700408E+03 0.75467711E-02 0.11314548E+00
       21 -1    0    0  501  502 0.00000000E+00 0.00000000E+00 0.48631349E+03 0.48631407E+03 0.75000000E+00 0.0000E+00 0.9000E+01
       -1 -1    0    0    0  501 0.00000000E+00 0.00000000E+00 -.10573500E+03 0.10573548E+03 0.32000000E+00 0.0000E+00 0.9000E+01
       25  1    1    2    0    0 0.10868356E+03 -.35743265E+02 0.15586410E+03 0.23023535E+03 0.12500000E+03 0.0000E+00 0.9000E+01
       23  1    1    2    0    0 0.35995023E+02 0.79231549E+02 0.64456775E+02 0.14157403E+03 0.91188000E+02 0.0000E+00 0.9000E+01
       -1  1    1    2    0  502 -.14467859E+03 -.43488284E+02 0.16025762E+03 0.22024017E+03 0.32000000E+00 0.0000E+00 0.9000E+01
#aMCatNLO 2  0  0  1  2 0.15107324D+03 0.00000000D+00  -5  5  0 0.00000000D+00 0.00000000D+00 0.00000000D+00 0.00000000D+00 0.00000000D+00
  <mgrwgt>
 0.9507931073D-02    1    2    0
 0.129303717250043D+03 0.000000000000000D+00 0.000000000000000D+00 0.129303717250043D+03
 0.129303717250043D+03 0.000000000000000D+00 0.000000000000000D+00 -.129303717250043D+03
 0.143436622342525D+03 0.271298153961850D+02 -.602571386091616D+02 0.241270593367158D+02
 0.115170812157561D+03 -.271298153961850D+02 0.602571386091616D+02 -.241270593367158D+02
 0.000000000000000D+00 -.000000000000000D+00 -.000000000000000D+00 0.000000000000000D+00
 0.245978804989406D+03 0.000000000000000D+00 0.000000000000000D+00 0.245978804989406D+03
 0.209044817383703D+03 0.000000000000000D+00 0.000000000000000D+00 -.209044817383703D+03
 0.171163118580531D+03 0.108683564488645D+03 -.357432648203570D+02 0.241270593367158D+02
 0.128338016365283D+03 0.359950233111932D+02 0.792315493043333D+02 -.241270593367158D+02
 0.155522487427295D+03 -.144678587799838D+03 -.434882844839763D+02 0.369339876057033D+02
0.165590072428D-04 0.000000000000D+00 0.000000000000D+00 0.191957529486D-02 0.120449602538D-06  5 21 -1 25 23 -1 2 0.74817487D-01 0.16266992D-01 0.49857772D+05 0.49857772D+05 0.49857772D+05 0.11924043D+01  1  2  1  3  5  1        1 0.950793107279D-02 0.100000000000D+01
  </mgrwgt>
  </event>
  <event>
  4     66 0.49155423E-03 0.13194724E+03 0.75467711E-02 0.10785739E+00
        1 -1    0    0  501    0 0.00000000E+00 0.00000000E+00 0.86280067E+03 0.86280073E+03 0.32000000E+00 0.0000E+00 0.9000E+01
       -1 -1    0    0    0  501 0.00000000E+00 0.00000000E+00 -.23123538E+02 0.23125752E+02 0.32000000E+00 0.0000E+00 0.9000E+01
       25  1    1    2    0    0 0.75003211E+02 0.25065151E+01 0.61563947E+03 0.63266794E+03 0.12500000E+03 0.0000E+00 0.9000E+01
       23  1    1    2    0    0 -.75003211E+02 -.25065151E+01 0.22403766E+03 0.25325854E+03 0.91188000E+02 0.0000E+00 0.9000E+01
#aMCatNLO 1  0  0  2  2 0.25947661D+03 0.00000000D+00  -5  5  0 0.00000000D+00 0.00000000D+00 0.00000000D+00 0.00000000D+00 0.00000000D+00
  <mgrwgt>
 0.1780749626D+00    5    2    0
 0.141251589380948D+03 0.000000000000000D+00 0.000000000000000D+00 0.141251589380948D+03
 0.141251589380948D+03 0.000000000000000D+00 0.000000000000000D+00 -.141251589380948D+03
 0.154189052046034D+03 0.750032109254501D+02 0.250651506400365D+01 0.501746898740876D+02
 0.128314126715863D+03 -.750032109254501D+02 -.250651506400365D+01 -.501746898740876D+02
 0.000000000000000D+00 -.000000000000000D+00 -.000000000000000D+00 -.000000000000000D+00
 0.256623531585466D+03 0.000000000000000D+00 0.000000000000000D+00 0.256623531585466D+03
 0.451417455573083D+03 0.000000000000000D+00 0.000000000000000D+00 -.451417455573083D+03
 0.261031468897064D+03 0.192619537706398D+03 0.113545770261915D+03 0.501746898740876D+02
 0.122551842334961D+03 -.394233530426595D+01 0.645806565782744D+02 -.501746898740876D+02
 0.324457675926525D+03 -.188677202402132D+03 -.178126426840189D+03 -.194793923987617D+03
0.254278065628D-03 0.000000000000D+00 0.000000000000D+00 0.162963420638D-02 0.000000000000D+00  5 1 -1 25 23 21 0 0.13273874D+00 0.35576423D-02 0.17410074D+05 0.17410074D+05 0.17410074D+05 0.12405124D+01  1  2  2  2  5  2       -1 0.147649183321D+00 0.100000000000D+01
-.140468096566D-04 0.000000000000D+00 -.976494724963D-06 0.162963420638D-02 0.000000000000D+00  5 1 -1 25 23 21 2 0.13273874D+00 0.35576423D-02 0.17410074D+05 0.17410074D+05 0.17410074D+05 0.12405124D+01  1  2  3  2  5  2       -1 -.125516859596D-01 0.100000000000D+01
0.175451577466D-04 0.000000000000D+00 0.000000000000D+00 0.162963420638D-02 0.000000000000D+00  5 1 -1 25 23 21 2 0.13273874D+00 0.35576423D-02 0.17410074D+05 0.17410074D+05 0.17410074D+05 0.12405124D+01  1  2 15  2  5  2       -1 0.156776745418D-01 0.100000000000D+01
0.145474549533D-03 0.000000000000D+00 -.114213334589D-03 0.162963420638D-02 0.000000000000D+00  5 1 -1 25 23 21 2 0.13273874D+00 0.21094911D-01 0.17410074D+05 0.17410074D+05 0.17410074D+05 0.12405124D+01  1  2  5  2  5  2       -1 0.867099053668D-02 0.100000000000D+01
0.246984340247D-04 0.000000000000D+00 -.249135333804D-04 0.162963420638D-02 0.000000000000D+00  5 1 21 25 23 1 2 0.13273874D+00 0.21094911D-01 0.17410074D+05 0.17410074D+05 0.17410074D+05 0.12405124D+01  1  2  5  4  5  2       -1 0.186288001664D-01 0.100000000000D+01
  </mgrwgt>
  </event>
  <event>
  4     66 0.49155423E-03 0.11145067E+03 0.75467711E-02 0.11214920E+00
        3 -1    0    0  501    0 0.00000000E+00 0.00000000E+00 0.77480904E+02 0.77482517E+02 0.50000000E+00 0.0000E+00 0.9000E+01
       -3 -1    0    0    0  501 0.00000000E+00 0.00000000E+00 -.17133737E+03 0.17133810E+03 0.50000000E+00 0.0000E+00 0.9000E+01
       25  1    1    2    0    0 0.39702578E+01 0.26537123E+02 -.22147428E+02 0.12975165E+03 0.12500000E+03 0.0000E+00 0.9000E+01
       23  1    1    2    0    0 -.39702578E+01 -.26537123E+02 -.71709042E+02 0.11906897E+03 0.91188000E+02 0.0000E+00 0.9000E+01
#aMCatNLO 1  0  0  2  2 0.18520034D+03 0.00000000D+00  -5  5  0 0.00000000D+00 0.00000000D+00 0.00000000D+00 0.00000000D+00 0.00000000D+00
  <mgrwgt>
 0.4407529347D-01    3    2    0
 0.115220076438277D+03 0.000000000000000D+00 0.000000000000000D+00 0.115220076438277D+03
 0.115220076438277D+03 0.000000000000000D+00 0.000000000000000D+00 -.115220076438277D+03
 0.131080482198196D+03 0.397025780842959D+01 0.265371229696112D+02 0.289328700743969D+02
 0.993596706783572D+02 -.397025780842959D+01 -.265371229696112D+02 -.289328700743969D+02
 0.000000000000000D+00 0.000000000000000D+00 -.000000000000000D+00 0.000000000000000D+00
 0.424664353347711D+03 0.000000000000000D+00 0.000000000000000D+00 0.424664353347711D+03
 0.178792218601119D+03 0.000000000000000D+00 0.000000000000000D+00 -.178792218601119D+03
 0.173431973374254D+03 -.949686945058234D+02 0.678047600217386D+02 0.289328700743969D+02
 0.122206029613152D+03 -.759590315168998D+02 0.348954009624500D+01 -.289328700743969D+02
 0.307818568961423D+03 0.170927726022723D+03 -.712943001179836D+02 0.245872134746592D+03
0.259692776239D-03 0.000000000000D+00 0.000000000000D+00 0.215331747057D-02 0.000000000000D+00  5 3 -3 25 23 21 0 0.11920319D-01 0.26359776D-01 0.12421252D+05 0.12421252D+05 0.12421252D+05 0.12572718D+01  1  2  2  2  5  2       -3 0.431460346377D-01 0.100000000000D+01
-.144079692014D-04 0.000000000000D+00 -.997288639437D-06 0.215331747057D-02 0.000000000000D+00  5 3 -3 25 23 21 2 0.11920319D-01 0.26359776D-01 0.12421252D+05 0.12421252D+05 0.12421252D+05 0.12572718D+01  1  2  3  2  5  2       -3 -.378392150262D-02 0.100000000000D+01
0.179462912030D-04 0.000000000000D+00 0.000000000000D+00 0.215331747057D-02 0.000000000000D+00  5 3 -3 25 23 21 2 0.11920319D-01 0.26359776D-01 0.12421252D+05 0.12421252D+05 0.12421252D+05 0.12572718D+01  1  2 15  2  5  2       -3 0.471318033970D-02 0.100000000000D+01
  </mgrwgt>
  </event>
  <event>
  4     66 0.49155423E-03 0.81580876E+02 0.75467711E-02 0.11499522E+00
        1 -1    0    0  501    0 0.00000000E+00 0.00000000E+00 0.29254383E+03 0.29254401E+03 0.32000000E+00 0.0000E+00 0.9000E+01
       -1 -1    0    0    0  501 0.00000000E+00 0.00000000E+00 -.10771574E+03 0.10771621E+03 0.32000000E+00 0.0000E+00 0.9000E+01
       25  1    1    2    0    0 -.94133889E+02 -.94504788E+02 0.14633276E+03 0.23415939E+03 0.12500000E+03 0.0000E+00 0.9000E+01
       23  1    1    2    0    0 0.94133889E+02 0.94504788E+02 0.38495337E+02 0.16610083E+03 0.91188000E+02 0.0000E+00 0.9000E+01
#aMCatNLO 1  0  0  1  2 0.51434869D+02 0.00000000D+00  -5  5  0 0.00000000D+00 0.00000000D+00 0.00000000D+00 0.00000000D+00 0.00000000D+00
  <mgrwgt>
 0.1890754059D+00    9    2    0
 0.177515365816497D+03 0.000000000000000D+00 0.000000000000000D+00 0.177515365816497D+03
 0.177515365816497D+03 0.000000000000000D+00 0.000000000000000D+00 -.177515365816497D+03
 0.187809895282127D+03 -.941338885634010D+02 -.945047879199280D+02 0.430721818582023D+02
 0.167220836350867D+03 0.941338885634010D+02 0.945047879199280D+02 -.430721818582023D+02
 0.000000000000000D+00 0.000000000000000D+00 -.000000000000000D+00 0.000000000000000D+00
 0.215977982208965D+03 0.000000000000000D+00 0.000000000000000D+00 0.215977982208965D+03
 0.197434623133648D+03 0.000000000000000D+00 0.000000000000000D+00 -.197434623133648D+03
 0.201825010255634D+03 -.122042153819283D+03 -.914266624448858D+02 0.430721818582023D+02
 0.156912172235952D+03 0.709173084950853D+02 0.970654467748017D+02 -.430721818582023D+02
 0.546754228510269D+02 0.511248453241979D+02 -.563878432991590D+01 0.185433590753166D+02
0.502064490387D-03 0.000000000000D+00 0.000000000000D+00 0.146755398688D-02 0.000000000000D+00  5 1 -1 25 23 21 0 0.45006794D-01 0.16571702D-01 0.29649837D+05 0.29649837D+05 0.29649837D+05 0.12154339D+01  1  2  2  1  5  1        1 0.122188722214D+00 0.100000000000D+01
-.278610247981D-04 0.000000000000D+00 -.192805983970D-05 0.146755398688D-02 0.000000000000D+00  5 1 -1 25 23 21 2 0.45006794D-01 0.16571702D-01 0.29649837D+05 0.29649837D+05 0.29649837D+05 0.12154339D+01  1  2  3  1  5  1        1 -.100168554144D-01 0.100000000000D+01
0.345787378783D-04 0.000000000000D+00 0.000000000000D+00 0.146755398688D-02 0.000000000000D+00  5 1 -1 25 23 21 2 0.45006794D-01 0.16571702D-01 0.29649837D+05 0.29649837D+05 0.29649837D+05 0.12154339D+01  1  2 15  1  5  1        1 0.124320702576D-01 0.100000000000D+01
0.444833037092D-03 0.000000000000D+00 0.000000000000D+00 0.146755398688D-02 0.000000000000D+00  5 1 -1 25 23 21 2 0.56848983D-01 0.16571702D-01 0.39899065D+05 0.39899065D+05 0.39899065D+05 0.12021117D+01  1  2 12  1  5  1        1 0.117178514185D+00 0.100000000000D+01
-.451910552946D-03 0.000000000000D+00 0.000000000000D+00 0.146755398688D-02 0.000000000000D+00  5 1 -1 25 23 21 2 0.45006794D-01 0.16571702D-01 0.29649837D+05 0.29649837D+05 0.29649837D+05 0.12154339D+01  1  2  4  1  5  1        1 -.162475095655D+00 0.100000000000D+01
-.932648455521D-03 0.000000000000D+00 -.299388738456D-03 0.146755398688D-02 0.000000000000D+00  5 1 -1 25 23 21 2 0.60024755D-01 0.16571702D-01 0.29649837D+05 0.29649837D+05 0.29649837D+05 0.12154339D+01  1  2  5  1  5  1        1 -.233619335676D+00 0.100000000000D+01
0.989545551373D-03 0.000000000000D+00 0.287392132628D-03 0.146755398688D-02 0.000000000000D+00  5 1 -1 25 23 21 2 0.45006794D-01 0.16571702D-01 0.29649837D+05 0.29649837D+05 0.29649837D+05 0.12154339D+01  1  2  6  1  5  1        1 0.355770643253D+00 0.100000000000D+01
0.143150619491D-04 0.000000000000D+00 0.000000000000D+00 0.146755398688D-02 0.000000000000D+00  5 21 -1 25 23 -1 2 0.56848983D-01 0.16571702D-01 0.39899065D+05 0.39899065D+05 0.39899065D+05 0.12021117D+01  1  2 12  3  5  1        1 0.148480298254D-01 0.100000000000D+01
-.287012076670D-04 0.000000000000D+00 -.112344761480D-04 0.146755398688D-02 0.000000000000D+00  5 21 -1 25 23 -1 2 0.60024755D-01 0.16571702D-01 0.29649837D+05 0.29649837D+05 0.29649837D+05 0.12154339D+01  1  2  5  3  5  1        1 -.272312871383D-01 0.100000000000D+01
  </mgrwgt>
  </event>
  <event>
  4     66 0.49155423E-03 0.17580107E+03 0.75467711E-02 0.10052781E+00
        3 -1    0    0  501    0 0.00000000E+00 0.00000000E+00 0.16191117E+03 0.16191194E+03 0.50000000E+00 0.0000E+00 0.9000E+01
       -3 -1    0    0    0  501 0.00000000E+00 0.00000000E+00 -.24544859E+03 0.24544910E+03 0.50000000E+00 0.0000E+00 0.9000E+01
       25  1    1    2    0    0 -.56474043E+02 -.12591516E+03 -.13959504E+03 0.23271381E+03 0.12500000E+03 0.0000E+00 0.9000E+01
       23  1    1    2    0    0 0.56474043E+02 0.12591516E+03 0.56057625E+02 0.17464722E+03 0.91188000E+02 0.0000E+00 0.9000E+01
#aMCatNLO 1  0  0  1  2 0.48123903D+03 0.00000000D+00  -5  5  0 0.00000000D+00 0.00000000D+00 0.00000000D+00 0.00000000D+00 0.00000000D+00
  <mgrwgt>
 0.2897656267D-01    3    2    0
 0.199351772294205D+03 0.000000000000000D+00 0.000000000000000D+00 0.199351772294205D+03
 0.199351772294205D+03 0.000000000000000D+00 0.000000000000000D+00 -.199351772294205D+03
 0.208518669297273D+03 -.564740428156229D+02 -.125915157658527D+03 -.938674118392165D+02
 0.190184875291138D+03 0.564740428156229D+02 0.125915157658527D+03 0.938674118392165D+02
 0.000000000000000D+00 0.000000000000000D+00 0.000000000000000D+00 -.000000000000000D+00
 0.454055763026405D+03 0.000000000000000D+00 0.000000000000000D+00 0.454055763026405D+03
 0.721402122042596D+03 0.000000000000000D+00 0.000000000000000D+00 -.721402122042596D+03
 0.456200193424708D+03 -.335416938978644D+03 -.266792058580357D+03 -.938674118392165D+02
 0.168744221437417D+03 -.941471105373185D+02 0.498456768095392D+02 0.938674118392165D+02
 0.550513470206875D+03 0.429564049515962D+03 0.216946381770818D+03 -.267346359016191D+03
0.112277143089D-02 0.000000000000D+00 0.000000000000D+00 0.117145413188D-02 0.000000000000D+00  5 3 -3 25 23 21 0 0.24909510D-01 0.37761419D-01 0.30906016D+05 0.30906016D+05 0.30906016D+05 0.12135445D+01  1  2  2  1  5  1        3 0.283741505962D-01 0.100000000000D+01
-.611775345801D-04 0.000000000000D+00 -.431173792714D-05 0.117145413188D-02 0.000000000000D+00  5 3 -3 25 23 21 2 0.24909510D-01 0.37761419D-01 0.30906016D+05 0.30906016D+05 0.30906016D+05 0.12135445D+01  1  2  3  1  5  1        3 -.227685269320D-02 0.100000000000D+01
0.773639507970D-04 0.000000000000D+00 0.000000000000D+00 0.117145413188D-02 0.000000000000D+00  5 3 -3 25 23 21 2 0.24909510D-01 0.37761419D-01 0.30906016D+05 0.30906016D+05 0.30906016D+05 0.12135445D+01  1  2 15  1  5  1        3 0.287926476504D-02 0.100000000000D+01
  </mgrwgt>
  </event>
  <event>
  4     66 0.49155423E-03 0.48451814E+02 0.75467711E-02 0.12199648E+00
        1 -1    0    0  501    0 0.00000000E+00 0.00000000E+00 0.43241476E+03 0.43241488E+03 0.32000000E+00 0.0000E+00 0.9000E+01
       -1 -1    0    0    0  501 0.00000000E+00 0.00000000E+00 -.41972599E+02 0.41973818E+02 0.32000000E+00 0.0000E+00 0.9000E+01
       25  1    1    2    0    0 -.37494808E+02 -.65232436E+02 0.26154628E+03 0.29948721E+03 0.12500000E+03 0.0000E+00 0.9000E+01
       23  1    1    2    0    0 0.37494808E+02 0.65232436E+02 0.12889589E+03 0.17490149E+03 0.91188000E+02 0.0000E+00 0.9000E+01
#aMCatNLO 1  0  0  1  2 0.61568349D+01 0.00000000D+00  -5  5  0 0.00000000D+00 0.00000000D+00 0.00000000D+00 0.00000000D+00 0.00000000D+00
  <mgrwgt>
 0.2120327513D+00   11    2    0
 0.134721522384162D+03 0.000000000000000D+00 0.000000000000000D+00 0.134721522384162D+03
 0.134721522384162D+03 0.000000000000000D+00 0.000000000000000D+00 -.134721522384162D+03
 0.148286074889655D+03 -.374948083518401D+02 -.652324358711488D+02 0.265071436249872D+02
 0.121156969878668D+03 0.374948083518401D+02 0.652324358711488D+02 -.265071436249872D+02
 0.000000000000000D+00 -.000000000000000D+00 -.000000000000000D+00 0.000000000000000D+00
 0.142105721015779D+03 0.000000000000000D+00 0.000000000000000D+00 0.142105721015779D+03
 0.136046199562240D+03 0.000000000000000D+00 0.000000000000000D+00 -.136046199562240D+03
 0.146623834470169D+03 -.354086460663847D+02 -.625871229193779D+02 0.265071436249872D+02
 0.122889543656884D+03 0.392211682206554D+02 0.674215091528555D+02 -.265071436249872D+02
 0.863854245096589D+01 -.381252215427071D+01 -.483438623347759D+01 0.605952145353882D+01
0.168339483696D-03 0.000000000000D+00 0.000000000000D+00 0.183596162244D-02 0.000000000000D+00  5 1 -1 25 23 21 0 0.66525451D-01 0.64574258D-02 0.17439768D+05 0.17439768D+05 0.17439768D+05 0.12404296D+01  1  2  2  1  5  1        1 0.105352202605D+00 0.100000000000D+01
-.934766532320D-05 0.000000000000D+00 -.646467942195D-06 0.183596162244D-02 0.000000000000D+00  5 1 -1 25 23 21 2 0.66525451D-01 0.64574258D-02 0.17439768D+05 0.17439768D+05 0.17439768D+05 0.12404296D+01  1  2  3  1  5  1        1 -.900129499634D-02 0.100000000000D+01
0.116647545197D-04 0.000000000000D+00 0.000000000000D+00 0.183596162244D-02 0.000000000000D+00  5 1 -1 25 23 21 2 0.66525451D-01 0.64574258D-02 0.17439768D+05 0.17439768D+05 0.17439768D+05 0.12404296D+01  1  2 15  1  5  1        1 0.112325262899D-01 0.100000000000D+01
0.827392007756D-03 0.000000000000D+00 0.000000000000D+00 0.183596162244D-02 0.000000000000D+00  5 1 -1 25 23 21 2 0.70487692D-01 0.64574258D-02 0.18273829D+05 0.18273829D+05 0.18273829D+05 0.12381652D+01  1  2 12  1  5  1        1 0.738264553143D+00 0.100000000000D+01
-.109149124466D-02 0.000000000000D+00 0.000000000000D+00 0.183596162244D-02 0.000000000000D+00  5 1 -1 25 23 21 2 0.66525451D-01 0.64574258D-02 0.17439768D+05 0.17439768D+05 0.17439768D+05 0.12404296D+01  1  2  4  1  5  1        1 -.105104690203D+01 0.100000000000D+01
-.328089164587D-02 0.000000000000D+00 -.404335577604D-03 0.183596162244D-02 0.000000000000D+00  5 1 -1 25 23 21 2 0.70650639D-01 0.64574258D-02 0.17439768D+05 0.17439768D+05 0.17439768D+05 0.12404296D+01  1  2  5  1  5  1        1 -.292562933127D+01 0.100000000000D+01
0.329997417591D-02 0.000000000000D+00 0.403604926374D-03 0.183596162244D-02 0.000000000000D+00  5 1 -1 25 23 21 2 0.66525451D-01 0.64574258D-02 0.17439768D+05 0.17439768D+05 0.17439768D+05 0.12404296D+01  1  2  6  1  5  1        1 0.317769624935D+01 0.100000000000D+01
0.251348845259D-03 0.000000000000D+00 0.000000000000D+00 0.183596162244D-02 0.396476737651D-03  5 1 -1 25 23 21 2 0.70171766D-01 0.65209198D-02 0.18273829D+05 0.18273829D+05 0.18273829D+05 0.12381652D+01  1  2 11  1  5  1        1 0.222295824874D+00 0.100000000000D+01
0.115616910676D-04 0.000000000000D+00 0.000000000000D+00 0.183596162244D-02 0.000000000000D+00  5 21 -1 25 23 -1 2 0.70487692D-01 0.64574258D-02 0.18273829D+05 0.18273829D+05 0.18273829D+05 0.12381652D+01  1  2 12  3  5  1        1 0.343140035426D-01 0.100000000000D+01
-.333817297061D-04 0.000000000000D+00 -.417660952863D-05 0.183596162244D-02 0.000000000000D+00  5 21 -1 25 23 -1 2 0.70650639D-01 0.64574258D-02 0.17439768D+05 0.17439768D+05 0.17439768D+05 0.12404296D+01  1  2  5  3  5  1        1 -.989266483441D-01 0.100000000000D+01
0.253296798284D-05 0.000000000000D+00 0.000000000000D+00 0.183596162244D-02 0.370479499053D-05  5 21 -1 25 23 -1 2 0.70171766D-01 0.65209198D-02 0.18273829D+05 0.18273829D+05 0.18273829D+05 0.12381652D+01  1  2 11  3  5  1        1 0.748156811762D-02 0.100000000000D+01
  </mgrwgt>
  </event>
  <event>
  4     66 0.49155423E-03 0.15818012E+03 0.75467711E-02 0.11719297E+00
        1 -1    0    0  501    0 0.00000000E+00 0.00000000E+00 0.13959126E+03 0.13959162E+03 0.32000000E+00 0.0000E+00 0.9000E+01
       -1 -1    0    0    0  501 0.00000000E+00 0.00000000E+00 -.19126167E+03 0.19126193E+03 0.32000000E+00 0.0000E+00 0.9000E+01
       25  1    1    2    0    0 -.81096695E+02 -.81287270E+02 0.13760130E+02 0.17028986E+03 0.12500000E+03 0.0000E+00 0.9000E+01
       23  1    1    2    0    0 0.81096695E+02 0.81287270E+02 -.65430542E+02 0.16056370E+03 0.91188000E+02 0.0000E+00 0.9000E+01
#aMCatNLO 1  0  0  1  2 0.33626884D+02 0.00000000D+00  -5  5  0 0.00000000D+00 0.00000000D+00 0.00000000D+00 0.00000000D+00 0.00000000D+00
  <mgrwgt>
 0.7849925821D-01    4    2    0
 0.163396943330920D+03 0.000000000000000D+00 0.000000000000000D+00 0.163396943330920D+03
 0.163396943330920D+03 0.000000000000000D+00 0.000000000000000D+00 -.163396943330920D+03
 0.174580978519994D+03 -.810966953546609D+02 -.812872702635217D+02 0.408561348717296D+02
 0.152212908141847D+03 0.810966953546609D+02 0.812872702635217D+02 -.408561348717296D+02
 0.000000000000000D+00 0.000000000000000D+00 0.000000000000000D+00 -.000000000000000D+00
 0.173281906919135D+03 0.000000000000000D+00 0.000000000000000D+00 0.173281906919135D+03
 0.195592644122494D+03 0.000000000000000D+00 0.000000000000000D+00 -.195592644122494D+03
 0.187029330700708D+03 -.909959590046771D+02 -.969818654724538D+02 0.408561348717296D+02
 0.141490092890276D+03 0.730564283382593D+02 0.685399851466188D+02 -.408561348717296D+02
 0.403551274506448D+02 0.179395306664178D+02 0.284418803258351D+02 -.223107372033583D+02
0.568338437724D-03 0.000000000000D+00 0.000000000000D+00 0.153919311966D-02 0.000000000000D+00  5 1 -1 25 23 21 0 0.21475627D-01 0.29424921D-01 0.25020951D+05 0.25020951D+05 0.25020951D+05 0.12232586D+01  1  2  2  1  5  1        1 0.136559787183D+00 0.100000000000D+01
-.315339378536D-04 0.000000000000D+00 -.218256924781D-05 0.153919311966D-02 0.000000000000D+00  5 1 -1 25 23 21 2 0.21475627D-01 0.29424921D-01 0.25020951D+05 0.25020951D+05 0.25020951D+05 0.12232586D+01  1  2  3  1  5  1        1 -.113378470530D-01 0.100000000000D+01
0.391430638855D-04 0.000000000000D+00 0.000000000000D+00 0.153919311966D-02 0.000000000000D+00  5 1 -1 25 23 21 2 0.21475627D-01 0.29424921D-01 0.25020951D+05 0.25020951D+05 0.25020951D+05 0.12232586D+01  1  2 15  1  5  1        1 0.140736648109D-01 0.100000000000D+01
-.169092792529D-03 0.000000000000D+00 0.000000000000D+00 0.153919311966D-02 0.000000000000D+00  5 1 -1 25 23 21 2 0.21475627D-01 0.29424921D-01 0.25020951D+05 0.25020951D+05 0.25020951D+05 0.12232586D+01  1  2  4  1  5  1        1 -.607963467281D-01 0.100000000000D+01
  </mgrwgt>
  </event>
  <event>
  5     66 -.49155423E-03 0.10897666E+03 0.75467711E-02 0.12441636E+00
        1 -1    0    0  501    0 0.00000000E+00 0.00000000E+00 0.23407602E+03 0.23407624E+03 0.32000000E+00 0.0000E+00 0.9000E+01
       -1 -1    0    0    0  502 0.00000000E+00 0.00000000E+00 -.68462376E+02 0.68463124E+02 0.32000000E+00 0.0000E+00 0.9000E+01
       25  1    1    2    0    0 -.58414684E+01 -.73963331E+01 0.40254891E+02 0.13165973E+03 0.12500000E+03 0.0000E+00 0.9000E+01
       23  1    1    2    0    0 -.11192886E+02 0.17538790E+02 0.11580778E+03 0.14886096E+03 0.91188000E+02 0.0000E+00 0.9000E+01
       21  1    1    2  501  502 0.17034354E+02 -.10142457E+02 0.95509719E+01 0.22018679E+02 0.75000000E+00 0.0000E+00 0.9000E+01
#aMCatNLO 2  0  0  2  1 0.19825203D+02 0.00000000D+00  -5  5  0 0.00000000D+00 0.00000000D+00 0.00000000D+00 0.00000000D+00 0.00000000D+00
  <mgrwgt>
 -.2086041970D-01    2    2    0
 0.116128440052431D+03 0.000000000000000D+00 0.000000000000000D+00 0.116128440052431D+03
 0.116128440052431D+03 0.000000000000000D+00 0.000000000000000D+00 -.116128440052431D+03
 0.131864784768462D+03 0.379865893185969D+01 -.131361795491904D+02 -.397030532730619D+02
 0.100392095336400D+03 -.379865893185969D+01 0.131361795491904D+02 0.397030532730619D+02
 0.000000000000000D+00 0.000000000000000D+00 -.000000000000000D+00 -.000000000000000D+00
 0.124971680787358D+03 0.000000000000000D+00 0.000000000000000D+00 0.124971680787358D+03
 0.128219222964955D+03 0.000000000000000D+00 0.000000000000000D+00 -.128219222964955D+03
 0.131492056547138D+03 -.584146839002116D+01 -.739633306717308D+01 -.397030532730619D+02
 0.101609417122378D+03 -.111928860557395D+02 0.175387903371108D+02 0.397030532730619D+02
 0.200894300827971D+02 0.170343544457607D+02 -.101424572699377D+02 -.324754217759707D+01
-.130686440071D-03 0.000000000000D+00 0.000000000000D+00 0.204280958691D-02 0.000000000000D+00  5 1 -1 25 23 21 2 0.33461653D-01 0.10862900D-01 0.14245796D+05 0.14245796D+05 0.14245796D+05 0.12503848D+01  1  2 13  2  5  2       -1 -.135953121582D+00 0.100000000000D+01
0.115532286632D-03 0.000000000000D+00 0.000000000000D+00 0.204280958691D-02 0.436923826680D-04  5 1 -1 25 23 21 2 0.36009776D-01 0.10532164D-01 0.14245796D+05 0.14245796D+05 0.14245796D+05 0.12503848D+01  1  2  1  2  5  2       -1 0.115092701880D+00 0.100000000000D+01
  </mgrwgt>
  </event>
  <event>
  4     66 0.49155423E-03 0.13410244E+03 0.75467711E-02 0.11291806E+00
        3 -1    0    0  501    0 0.00000000E+00 0.00000000E+00 0.75989524E+02 0.75991169E+02 0.50000000E+00 0.0000E+00 0.9000E+01
       -3 -1    0    0    0  501 0.00000000E+00 0.00000000E+00 -.23957077E+03 0.23957130E+03 0.50000000E+00 0.0000E+00 0.9000E+01
       25  1    1    2    0    0 -.12555830E+02 0.77726374E+02 -.72676283E+02 0.16463864E+03 0.12500000E+03 0.0000E+00 0.9000E+01
       23  1    1    2    0    0 0.12555830E+02 -.77726374E+02 -.90904966E+02 0.15092383E+03 0.91188000E+02 0.0000E+00 0.9000E+01
#aMCatNLO 1  0  0  1  1 0.14699372D+03 0.00000000D+00  -5  5  0 0.00000000D+00 0.00000000D+00 0.00000000D+00 0.00000000D+00 0.00000000D+00
  <mgrwgt>
 0.3104991666D-01    3    2    0
 0.134926687641666D+03 0.000000000000000D+00 0.000000000000000D+00 0.134926687641666D+03
 0.134926687641666D+03 0.000000000000000D+00 0.000000000000000D+00 -.134926687641666D+03
 0.148470614317264D+03 -.125558301709939D+02 0.777263741905009D+02 0.148150328943636D+02
 0.121382760966068D+03 0.125558301709939D+02 -.777263741905009D+02 -.148150328943636D+02
 0.000000000000000D+00 0.000000000000000D+00 0.000000000000000D+00 -.000000000000000D+00
 0.216911018551330D+03 0.000000000000000D+00 0.000000000000000D+00 0.216911018551330D+03
 0.239028770445016D+03 0.000000000000000D+00 0.000000000000000D+00 -.239028770445016D+03
 0.156125834173813D+03 -.818368980709832D+02 0.428195400597376D+02 0.148150328943636D+02
 0.151165552929994D+03 -.494358257875746D+02 -.108960483560190D+03 -.148150328943636D+02
 0.148648401892539D+03 0.131272723858558D+03 0.661409435004520D+02 -.221177518936853D+02
0.319799641269D-03 0.000000000000D+00 0.000000000000D+00 0.187307771980D-02 0.000000000000D+00  5 3 -3 25 23 21 0 0.11690863D-01 0.36857209D-01 0.17983464D+05 0.17983464D+05 0.17983464D+05 0.12389401D+01  1  2  2  1  5  1        3 0.304113449602D-01 0.100000000000D+01
-.177658356484D-04 0.000000000000D+00 -.122811482765D-05 0.187307771980D-02 0.000000000000D+00  5 3 -3 25 23 21 2 0.11690863D-01 0.36857209D-01 0.17983464D+05 0.17983464D+05 0.17983464D+05 0.12389401D+01  1  2  3  1  5  1        3 -.259324711228D-02 0.100000000000D+01
0.221405671412D-04 0.000000000000D+00 0.000000000000D+00 0.187307771980D-02 0.000000000000D+00  5 3 -3 25 23 21 2 0.11690863D-01 0.36857209D-01 0.17983464D+05 0.17983464D+05 0.17983464D+05 0.12389401D+01  1  2 15  1  5  1        3 0.323181880883D-02 0.100000000000D+01
  </mgrwgt>
  </event>
  <event>
  4     66 0.49155423E-03 0.12833277E+03 0.75467711E-02 0.12074212E+00
        1 -1    0    0  501    0 0.00000000E+00 0.00000000E+00 0.84617593E+03 0.84617599E+03 0.32000000E+00 0.0000E+00 0.9000E+01
       -1 -1    0    0    0  501 0.00000000E+00 0.00000000E+00 -.19833800E+02 0.19836381E+02 0.32000000E+00 0.0000E+00 0.9000E+01
       25  1    1    2    0    0 0.35799188E+02 0.58483891E+02 0.51709202E+03 0.53638709E+03 0.12500000E+03 0.0000E+00 0.9000E+01
       23  1    1    2    0    0 -.35799188E+02 -.58483891E+02 0.30925011E+03 0.32962528E+03 0.91188000E+02 0.0000E+00 0.9000E+01
#aMCatNLO 1  0  0  2  1 0.30486355D+02 0.00000000D+00  -5  5  0 0.00000000D+00 0.00000000D+00 0.00000000D+00 0.00000000D+00 0.00000000D+00
  <mgrwgt>
 0.1961941682D+00    3    2    0
 0.129553184577349D+03 0.000000000000000D+00 0.000000000000000D+00 0.129553184577349D+03
 0.129553184577349D+03 0.000000000000000D+00 0.000000000000000D+00 -.129553184577349D+03
 0.143658875378866D+03 0.357991884687293D+02 0.584838905930259D+02 0.176330689672549D+02
 0.115447493775831D+03 -.357991884687293D+02 -.584838905930259D+02 -.176330689672549D+02
 0.000000000000000D+00 -.000000000000000D+00 0.000000000000000D+00 0.000000000000000D+00
 0.311755041515685D+03 0.000000000000000D+00 0.000000000000000D+00 0.311755041515685D+03
 0.131728399721743D+03 0.000000000000000D+00 0.000000000000000D+00 -.131728399721743D+03
 0.142187623228741D+03 0.467404793655005D+02 0.457899843515759D+02 0.176330689672549D+02
 0.118706087692058D+03 -.268365373191069D+02 -.688822114531086D+02 -.176330689672549D+02
 0.182589730316629D+03 -.199039420463936D+02 0.230922271015327D+02 0.180026641793942D+03
0.257130198708D-03 0.000000000000D+00 0.000000000000D+00 0.194057661117D-02 0.000000000000D+00  5 1 -1 25 23 21 0 0.13018112D+00 0.30515570D-02 0.16469300D+05 0.16469300D+05 0.16469300D+05 0.12432223D+01  1  2  2  2  5  2       -1 0.192188988643D+00 0.100000000000D+01
-.142834551203D-04 0.000000000000D+00 -.987447666976D-06 0.194057661117D-02 0.000000000000D+00  5 1 -1 25 23 21 2 0.13018112D+00 0.30515570D-02 0.16469300D+05 0.16469300D+05 0.16469300D+05 0.12432223D+01  1  2  3  2  5  2       -1 -.165008484918D-01 0.100000000000D+01
0.177504163632D-04 0.000000000000D+00 0.000000000000D+00 0.194057661117D-02 0.000000000000D+00  5 1 -1 25 23 21 2 0.13018112D+00 0.30515570D-02 0.16469300D+05 0.16469300D+05 0.16469300D+05 0.12432223D+01  1  2 15  2  5  2       -1 0.205060280310D-01 0.100000000000D+01
  </mgrwgt>
  </event>
  <event>
  4     66 0.49155423E-03 0.12742498E+03 0.75467711E-02 0.11588899E+00
        1 -1    0    0  501    0 0.00000000E+00 0.00000000E+00 0.62793093E+03 0.62793101E+03 0.32000000E+00 0.0000E+00 0.9000E+01
       -1 -1    0    0    0  501 0.00000000E+00 0.00000000E+00 -.30905785E+02 0.30907442E+02 0.32000000E+00 0.0000E+00 0.9000E+01
       25  1    1    2    0    0 -.49126631E+02 0.45378929E+02 0.45905319E+03 0.48044511E+03 0.12500000E+03 0.0000E+00 0.9000E+01
       23  1    1    2    0    0 0.49126631E+02 -.45378929E+02 0.13797196E+03 0.17839334E+03 0.91188000E+02 0.0000E+00 0.9000E+01
#aMCatNLO 1  0  0  1  1 0.10368206D+03 0.00000000D+00  -5  5  0 0.00000000D+00 0.00000000D+00 0.00000000D+00 0.00000000D+00 0.00000000D+00
  <mgrwgt>
 0.1525723210D+00    3    2    0
 0.139309981368974D+03 0.000000000000000D+00 0.000000000000000D+00 0.139309981368974D+03
 0.139309981368974D+03 0.000000000000000D+00 0.000000000000000D+00 -.139309981368974D+03
 0.152427757611869D+03 -.491266308648891D+02 0.453789287253273D+02 0.560048949484705D+02
 0.126192205126080D+03 0.491266308648891D+02 -.453789287253273D+02 -.560048949484705D+02
 0.000000000000000D+00 -.000000000000000D+00 -.000000000000000D+00 -.000000000000000D+00
 0.181087531973200D+03 0.000000000000000D+00 0.000000000000000D+00 0.181087531973200D+03
 0.231476701938324D+03 0.000000000000000D+00 0.000000000000000D+00 -.231476701938324D+03
 0.145959909640389D+03 0.437297304489169D+01 0.502356852326100D+02 0.560048949484705D+02
 0.151326236523617D+03 0.988844738838050D+02 -.408618536404724D+02 -.560048949484705D+02
 0.115278087747518D+03 -.103257446928697D+03 -.937383159213760D+01 -.503891699651240D+02
0.248147084577D-03 0.000000000000D+00 0.000000000000D+00 0.159856683854D-02 0.000000000000D+00  5 1 -1 25 23 21 0 0.96604892D-01 0.47548698D-02 0.16237126D+05 0.16237126D+05 0.16237126D+05 0.12439178D+01  1  2  2  1  5  1        1 0.149321158853D+00 0.100000000000D+01
-.136526609159D-04 0.000000000000D+00 -.952950143405D-06 0.159856683854D-02 0.000000000000D+00  5 1 -1 25 23 21 2 0.96604892D-01 0.47548698D-02 0.16237126D+05 0.16237126D+05 0.16237126D+05 0.12439178D+01  1  2  3  1  5  1        1 -.127119704546D-01 0.100000000000D+01
0.171444102522D-04 0.000000000000D+00 0.000000000000D+00 0.159856683854D-02 0.000000000000D+00  5 1 -1 25 23 21 2 0.96604892D-01 0.47548698D-02 0.16237126D+05 0.16237126D+05 0.16237126D+05 0.12439178D+01  1  2 15  1  5  1        1 0.159631326032D-01 0.100000000000D+01
  </mgrwgt>
  </event>
  <event>
  4     66 0.49155423E-03 0.11354168E+03 0.75467711E-02 0.11114928E+00
        1 -1    0    0  501    0 0.00000000E+00 0.00000000E+00 0.15909337E+02 0.15912555E+02 0.32000000E+00 0.0000E+00 0.9000E+01
       -1 -1    0    0    0  501 0.00000000E+00 0.00000000E+00 -.12025782E+04 0.12025782E+04 0.32000000E+00 0.0000E+00 0.9000E+01
       25  1    1    2    0    0 0.27579512E+02 0.20493983E+02 -.99562742E+03 0.10040317E+04 0.12500000E+03 0.0000E+00 0.9000E+01
       23  1    1    2    0    0 -.27579512E+02 -.20493983E+02 -.19104143E+03 0.21445911E+03 0.91188000E+02 0.0000E+00 0.9000E+01
#aMCatNLO 1  0  0  2  1 0.20163951D+03 0.00000000D+00  -5  5  0 0.00000000D+00 0.00000000D+00 0.00000000D+00 0.00000000D+00 0.00000000D+00
  <mgrwgt>
 0.9761944666D-01    5    2    0
 0.138326454515469D+03 0.000000000000000D+00 0.000000000000000D+00 0.138326454515469D+03
 0.138326454515469D+03 0.000000000000000D+00 0.000000000000000D+00 -.138326454515469D+03
 0.151537500590503D+03 0.275795119621589D+02 0.204939826896034D+02 -.784728059818437D+02
 0.125115408440434D+03 -.275795119621589D+02 -.204939826896034D+02 0.784728059818437D+02
 0.000000000000000D+00 0.000000000000000D+00 0.000000000000000D+00 -.000000000000000D+00
 0.253256766332851D+03 0.000000000000000D+00 0.000000000000000D+00 0.253256766332851D+03
 0.294995319326488D+03 0.000000000000000D+00 0.000000000000000D+00 -.294995319326488D+03
 0.163448360619556D+03 -.346594527053853D+02 -.610827933932255D+02 -.784728059818437D+02
 0.178889666464882D+03 -.876487513975378D+02 -.992268941552900D+02 0.784728059818437D+02
 0.205914058574901D+03 0.122308204102923D+03 0.160309687548515D+03 -.417385529936370D+02
0.101281226171D-02 0.000000000000D+00 0.000000000000D+00 0.137314606397D-02 0.000000000000D+00  5 1 -1 25 23 21 0 0.24478411D-02 0.18501228D+00 0.12891714D+05 0.12891714D+05 0.12891714D+05 0.12553921D+01  1  2  2  2  5  2       -1 0.948148207760D-01 0.100000000000D+01
-.536002638097D-04 0.000000000000D+00 -.388946576457D-05 0.137314606397D-02 0.000000000000D+00  5 1 -1 25 23 21 2 0.24478411D-02 0.18501228D+00 0.12891714D+05 0.12891714D+05 0.12891714D+05 0.12553921D+01  1  2  3  2  5  2       -1 -.790811472805D-02 0.100000000000D+01
0.692335843315D-04 0.000000000000D+00 0.000000000000D+00 0.137314606397D-02 0.000000000000D+00  5 1 -1 25 23 21 2 0.24478411D-02 0.18501228D+00 0.12891714D+05 0.12891714D+05 0.12891714D+05 0.12553921D+01  1  2 15  2  5  2       -1 0.102146349479D-01 0.100000000000D+01
0.958887823008D-04 0.000000000000D+00 -.247853250417D-03 0.137314606397D-02 0.000000000000D+00  5 1 -1 25 23 21 2 0.24478411D-02 0.50514912D+00 0.12891714D+05 0.12891714D+05 0.12891714D+05 0.12553921D+01  1  2  5  2  5  2       -1 0.122959139445D-03 0.100000000000D+01
0.250214466367D-04 0.000000000000D+00 -.278265020056D-04 0.137314606397D-02 0.000000000000D+00  5 1 21 25 23 1 2 0.24478411D-02 0.50514912D+00 0.12891714D+05 0.12891714D+05 0.12891714D+05 0.12553921D+01  1  2  5  4  5  2       -1 0.375146519889D-03 0.100000000000D+01
  </mgrwgt>
  </event>
  <event>
  4     66 0.49155423E-03 0.11966522E+03 0.75467711E-02 0.10755793E+00
        3 -1    0    0  501    0 0.00000000E+00 0.00000000E+00 0.51153582E+03 0.51153607E+03 0.50000000E+00 0.0000E+00 0.9000E+01
       -3 -1    0    0    0  501 0.00000000E+00 0.00000000E+00 -.28172270E+02 0.28176707E+02 0.50000000E+00 0.0000E+00 0.9000E+01
       25  1    1    2    0    0 -.21150232E+02 0.46211673E+02 0.25086852E+03 0.28485587E+03 0.12500000E+03 0.0000E+00 0.9000E+01
       23  1    1    2    0    0 0.21150232E+02 -.46211673E+02 0.23249503E+03 0.25485691E+03 0.91188000E+02 0.0000E+00 0.9000E+01
#aMCatNLO 1  0  0  2  1 0.27549026D+03 0.00000000D+00  -5  5  0 0.00000000D+00 0.00000000D+00 0.00000000D+00 0.00000000D+00 0.00000000D+00
  <mgrwgt>
 0.1539102964D-01    3    2    0
 0.120051607779268D+03 0.000000000000000D+00 0.000000000000000D+00 0.120051607779268D+03
 0.120051607779268D+03 0.000000000000000D+00 0.000000000000000D+00 -.120051607779268D+03
 0.135273704324281D+03 -.211502321956366D+02 0.462116727545712D+02 -.954589235786621D+01
 0.104829511234255D+03 0.211502321956366D+02 -.462116727545712D+02 0.954589235786621D+01
 0.000000000000000D+00 0.000000000000000D+00 -.000000000000000D+00 0.000000000000000D+00
 0.345661836046813D+03 0.000000000000000D+00 0.000000000000000D+00 0.345661836046813D+03
 0.299162446167028D+03 0.000000000000000D+00 0.000000000000000D+00 -.299162446167028D+03
 0.264154009225966D+03 -.103185885849685D+03 0.208359999737616D+03 -.954589235786621D+01
 0.101283311292511D+03 -.211818332791771D+02 0.374601612436578D+02 0.954589235786621D+01
 0.279386961695365D+03 0.124367719128862D+03 -.245820160981274D+03 0.464993898797852D+02
0.150662239149D-03 0.000000000000D+00 0.000000000000D+00 0.213351216994D-02 0.000000000000D+00  5 3 -3 25 23 21 0 0.78698179D-01 0.43345555D-02 0.14319766D+05 0.14319766D+05 0.14319766D+05 0.12501268D+01  1  2  2  2  5  2       -3 0.150688852401D-01 0.100000000000D+01
-.837001863850D-05 0.000000000000D+00 -.578582668612D-06 0.213351216994D-02 0.000000000000D+00  5 3 -3 25 23 21 2 0.78698179D-01 0.43345555D-02 0.14319766D+05 0.14319766D+05 0.14319766D+05 0.12501268D+01  1  2  3  2  5  2       -3 -.130831188078D-02 0.100000000000D+01
0.104309604004D-04 0.000000000000D+00 0.000000000000D+00 0.213351216994D-02 0.000000000000D+00  5 3 -3 25 23 21 2 0.78698179D-01 0.43345555D-02 0.14319766D+05 0.14319766D+05 0.14319766D+05 0.12501268D+01  1  2 15  2  5  2       -3 0.163045627606D-02 0.100000000000D+01
  </mgrwgt>
  </event>
  <event>
  5     66 0.49155423E-03 0.11833772E+03 0.75467711E-02 0.11552663E+00
        3 -1    0    0  501    0 0.00000000E+00 0.00000000E+00 0.59824134E+03 0.59824155E+03 0.50000000E+00 0.0000E+00 0.9000E+01
       21 -1    0    0  502  501 0.00000000E+00 0.00000000E+00 -.65498396E+02 0.65502690E+02 0.75000000E+00 0.0000E+00 0.9000E+01
       25  1    1    2    0    0 -.11517894E+03 -.71882554E+00 0.20492313E+03 0.26624274E+03 0.12500000E+03 0.0000E+00 0.9000E+01
       23  1    1    2    0    0 -.25934088E+01 0.29650052E+02 0.95080765E+02 0.13506093E+03 0.91188000E+02 0.0000E+00 0.9000E+01
        3  1    1    2  502    0 0.11777235E+03 -.28931227E+02 0.23273905E+03 0.26244058E+03 0.50000000E+00 0.0000E+00 0.9000E+01
#aMCatNLO 2  0  0  2  1 0.12127383D+03 0.00000000D+00  -5  5  0 0.00000000D+00 0.00000000D+00 0.00000000D+00 0.00000000D+00 0.00000000D+00
  <mgrwgt>
 0.4887950158D-02    1    2    0
 0.118674925554390D+03 0.000000000000000D+00 0.000000000000000D+00 0.118674925554390D+03
 0.118674925554390D+03 0.000000000000000D+00 0.000000000000000D+00 -.118674925554390D+03
 0.134073605228829D+03 -.440603007861125D+02 -.181893901349523D+02 0.886383665303729D+01
 0.103276245879950D+03 0.440603007861125D+02 0.181893901349523D+02 -.886383665303729D+01
 0.000000000000000D+00 0.000000000000000D+00 -.000000000000000D+00 0.000000000000000D+00
 0.227366742403978D+03 0.000000000000000D+00 0.000000000000000D+00 0.227366742403978D+03
 0.172343357054622D+03 0.000000000000000D+00 0.000000000000000D+00 -.172343357054622D+03
 0.170206556230220D+03 -.115178936760933D+03 -.718825542333310D+00 0.886383665303729D+01
 0.963310453763776D+02 -.259340879754467D+01 0.296500521062413D+02 -.886383665303729D+01
 0.133172497852002D+03 0.117772345558478D+03 -.289312265639079D+02 0.550233853493557D+02
0.777640141236D-05 0.000000000000D+00 0.000000000000D+00 0.216498854688D-02 0.132551423250D-06  5 3 21 25 23 3 2 0.92037247D-01 0.10076998D-01 0.37475502D+05 0.37475502D+05 0.37475502D+05 0.12048860D+01  1  2  1  4  5  2       -3 0.488795015766D-02 0.100000000000D+01
  </mgrwgt>
  </event>
  <event>
  5     66 0.49155423E-03 0.13650215E+03 0.75467711E-02 0.11924300E+00
        1 -1    0    0  501    0 0.00000000E+00 0.00000000E+00 0.58664233E+03 0.58664242E+03 0.32000000E+00 0.0000E+00 0.9000E+01
       21 -1    0    0  502  501 0.00000000E+00 0.00000000E+00 -.42374597E+02 0.42381233E+02 0.75000000E+00 0.0000E+00 0.9000E+01
       25  1    1    2    0    0 0.42722748E+02 0.85914898E+02 0.27055106E+03 0.31309660E+03 0.12500000E+03 0.0000E+00 0.9000E+01
       23  1    1    2    0    0 -.65749410E+01 -.74656565E+02 0.18471821E+03 0.21920972E+03 0.91188000E+02 0.0000E+00 0.9000E+01
        1  1    1    2  502    0 -.36147807E+02 -.11258333E+02 0.88998461E+02 0.96717333E+02 0.32000000E+00 0.0000E+00 0.9000E+01
#aMCatNLO 2  0  0  2  1 0.37860455D+02 0.00000000D+00  -5  5  0 0.00000000D+00 0.00000000D+00 0.00000000D+00 0.00000000D+00 0.00000000D+00
  <mgrwgt>
 0.4939177663D-01    1    2    0
 0.136607551105861D+03 0.000000000000000D+00 0.000000000000000D+00 0.136607551105861D+03
 0.136607551105861D+03 0.000000000000000D+00 0.000000000000000D+00 -.136607551105861D+03
 0.149984828929865D+03 0.224672831103197D+02 0.796062785124849D+02 0.533952433783657D+01
 0.123230273281856D+03 -.224672831103197D+02 -.796062785124849D+02 -.533952433783657D+01
 0.000000000000000D+00 -.000000000000000D+00 -.000000000000000D+00 0.000000000000000D+00
 0.163847088537083D+03 0.000000000000000D+00 0.000000000000000D+00 0.163847088537083D+03
 0.151730750427169D+03 0.000000000000000D+00 0.000000000000000D+00 -.151730750427169D+03
 0.157670902548893D+03 0.427227481159343D+02 0.859148984975868D+02 0.533952433783657D+01
 0.118154959374883D+03 -.657494101271026D+01 -.746565650924640D+02 -.533952433783657D+01
 0.397519770404762D+02 -.361478071032240D+02 -.112583334051229D+02 0.121163381099136D+02
0.479190112425D-05 0.000000000000D+00 0.000000000000D+00 0.186693567337D-02 0.209471092095D-06  5 1 21 25 23 1 2 0.90252811D-01 0.65196590D-02 0.24566670D+05 0.24566670D+05 0.24566670D+05 0.12241126D+01  1  2  1  4  5  2       -1 0.493917766297D-01 0.100000000000D+01
  </mgrwgt>
  </event>
  <event>
  4     66 0.49155423E-03 0.41838488E+02 0.75467711E-02 0.12415755E+00
        1 -1    0    0  501    0 0.00000000E+00 0.00000000E+00 0.51152319E+03 0.51152329E+03 0.32000000E+00 0.0000E+00 0.9000E+01
       -1 -1    0    0    0  501 0.00000000E+00 0.00000000E+00 -.23027195E+02 0.23029418E+02 0.32000000E+00 0.0000E+00 0.9000E+01
       25  1    1    2    0    0 0.56056016E+01 -.78428605E+01 0.28235863E+03 0.30894066E+03 0.12500000E+03 0.0000E+00 0.9000E+01
       23  1    1    2    0    0 -.56056016E+01 0.78428605E+01 0.20613736E+03 0.22561204E+03 0.91188000E+02 0.0000E+00 0.9000E+01
#aMCatNLO 1  0  0  2  1 0.23516609D+02 0.00000000D+00  -5  5  0 0.00000000D+00 0.00000000D+00 0.00000000D+00 0.00000000D+00 0.00000000D+00
  <mgrwgt>
 0.5609814746D-01    9    2    0
 0.108533704983588D+03 0.000000000000000D+00 0.000000000000000D+00 0.108533704983588D+03
 0.108533704983588D+03 0.000000000000000D+00 0.000000000000000D+00 -.108533704983588D+03
 0.125371213334347D+03 0.560560155577664D+01 -.784286049793303D+01 0.889006986382568D-01
 0.916961966328287D+02 -.560560155577664D+01 0.784286049793303D+01 -.889006986382568D-01
 0.000000000000000D+00 -.000000000000000D+00 0.000000000000000D+00 -.000000000000000D+00
 0.115383039072793D+03 0.000000000000000D+00 0.000000000000000D+00 0.115383039072793D+03
 0.131417251476008D+03 0.000000000000000D+00 0.000000000000000D+00 -.131417251476008D+03
 0.126911361128615D+03 0.187671550636288D+02 -.113701174576699D+02 0.889006986382568D-01
 0.914262017603740D+02 0.394787335254371D+01 0.528255780722558D+01 -.889006986382568D-01
 0.284627276598121D+02 -.227150284161726D+02 0.608755965044428D+01 -.160342124032141D+02
0.413248106184D-04 0.000000000000D+00 0.000000000000D+00 0.245342326327D-02 0.000000000000D+00  5 1 -1 25 23 21 0 0.78696053D-01 0.35428241D-02 0.11779557D+05 0.11779557D+05 0.11779557D+05 0.12599689D+01  1  2  2  2  5  2       -1 0.497579048404D-01 0.100000000000D+01
-.229582281213D-05 0.000000000000D+00 -.158698153847D-06 0.245342326327D-02 0.000000000000D+00  5 1 -1 25 23 21 2 0.78696053D-01 0.35428241D-02 0.11779557D+05 0.11779557D+05 0.11779557D+05 0.12599689D+01  1  2  3  2  5  2       -1 -.438843071137D-02 0.100000000000D+01
0.285843039613D-05 0.000000000000D+00 0.000000000000D+00 0.245342326327D-02 0.000000000000D+00  5 1 -1 25 23 21 2 0.78696053D-01 0.35428241D-02 0.11779557D+05 0.11779557D+05 0.11779557D+05 0.12599689D+01  1  2 15  2  5  2       -1 0.546384663068D-02 0.100000000000D+01
0.518430763961D-04 0.000000000000D+00 0.000000000000D+00 0.245342326327D-02 0.000000000000D+00  5 1 -1 25 23 21 2 0.78696053D-01 0.43843107D-02 0.14623351D+05 0.14623351D+05 0.14623351D+05 0.12490836D+01  1  2 12  2  5  2       -1 0.719146348760D-01 0.100000000000D+01
-.525933734495D-04 0.000000000000D+00 0.000000000000D+00 0.245342326327D-02 0.000000000000D+00  5 1 -1 25 23 21 2 0.78696053D-01 0.35428241D-02 0.11779557D+05 0.11779557D+05 0.11779557D+05 0.12599689D+01  1  2  4  2  5  2       -1 -.100531440859D+00 0.100000000000D+01
-.960711850924D-04 0.000000000000D+00 -.234407962721D-04 0.245342326327D-02 0.000000000000D+00  5 1 -1 25 23 21 2 0.78696053D-01 0.45584745D-02 0.11779557D+05 0.11779557D+05 0.11779557D+05 0.12599689D+01  1  2  5  2  5  2       -1 -.127104362083D+00 0.100000000000D+01
0.995266660452D-04 0.000000000000D+00 0.227153443143D-04 0.245342326327D-02 0.000000000000D+00  5 1 -1 25 23 21 2 0.78696053D-01 0.35428241D-02 0.11779557D+05 0.11779557D+05 0.11779557D+05 0.12599689D+01  1  2  6  2  5  2       -1 0.190243722453D+00 0.100000000000D+01
0.155715831016D-05 0.000000000000D+00 0.000000000000D+00 0.245342326327D-02 0.000000000000D+00  5 1 21 25 23 1 2 0.78696053D-01 0.43843107D-02 0.14623351D+05 0.14623351D+05 0.14623351D+05 0.12490836D+01  1  2 12  4  5  2       -1 0.389241132352D-01 0.100000000000D+01
-.287296461837D-05 0.000000000000D+00 -.798135482162D-06 0.245342326327D-02 0.000000000000D+00  5 1 21 25 23 1 2 0.78696053D-01 0.45584745D-02 0.11779557D+05 0.11779557D+05 0.11779557D+05 0.12599689D+01  1  2  5  4  5  2       -1 -.681818409238D-01 0.100000000000D+01
  </mgrwgt>
  </event>
  <event>
  4     66 0.49155423E-03 0.16026574E+03 0.75467711E-02 0.11417786E+00
        1 -1    0    0  501    0 0.00000000E+00 0.00000000E+00 0.12833037E+03 0.12833077E+03 0.32000000E+00 0.0000E+00 0.9000E+01
       -1 -1    0    0    0  501 0.00000000E+00 0.00000000E+00 -.23798748E+03 0.23798770E+03 0.32000000E+00 0.0000E+00 0.9000E+01
       25  1    1    2    0    0 0.90579718E+02 0.75102023E+02 -.13098790E+03 0.21593478E+03 0.12500000E+03 0.0000E+00 0.9000E+01
       23  1    1    2    0    0 -.90579718E+02 -.75102023E+02 0.21330793E+02 0.15038369E+03 0.91188000E+02 0.0000E+00 0.9000E+01
#aMCatNLO 1  0  0  2  1 0.88274254D+02 0.00000000D+00  -5  5  0 0.00000000D+00 0.00000000D+00 0.00000000D+00 0.00000000D+00 0.00000000D+00
  <mgrwgt>
 0.1200583723D+00    4    2    0
 0.174760219936517D+03 0.000000000000000D+00 0.000000000000000D+00 0.174760219936517D+03
 0.174760219936517D+03 0.000000000000000D+00 0.000000000000000D+00 -.174760219936517D+03
 0.185217045664156D+03 0.905797175897592D+02 0.751020227440210D+02 -.695367165292838D+02
 0.164303394208878D+03 -.905797175897592D+02 -.751020227440210D+02 0.695367165292838D+02
 0.000000000000000D+00 -.000000000000000D+00 -.000000000000000D+00 0.000000000000000D+00
 0.280429429000696D+03 0.000000000000000D+00 0.000000000000000D+00 0.280429429000696D+03
 0.199693178967752D+03 0.000000000000000D+00 0.000000000000000D+00 -.199693178967752D+03
 0.215702818704922D+03 0.140171706941749D+03 0.801201823800392D+02 -.695367165292838D+02
 0.144792509735048D+03 -.523459403703304D+02 -.712331882793808D+02 0.695367165292838D+02
 0.119627279528478D+03 -.878257665714189D+02 -.888699410065841D+01 0.807362500329441D+02
0.747645235306D-03 0.000000000000D+00 0.000000000000D+00 0.134659364628D-02 0.000000000000D+00  5 1 -1 25 23 21 0 0.19743181D-01 0.36613506D-01 0.25685107D+05 0.25685107D+05 0.25685107D+05 0.12220408D+01  1  2  2  2  5  2       -1 0.137753949585D+00 0.100000000000D+01
-.411572683679D-04 0.000000000000D+00 -.287115456309D-05 0.134659364628D-02 0.000000000000D+00  5 1 -1 25 23 21 2 0.19743181D-01 0.36613506D-01 0.25685107D+05 0.25685107D+05 0.25685107D+05 0.12220408D+01  1  2  3  2  5  2       -1 -.113246935670D-01 0.100000000000D+01
0.515432025383D-04 0.000000000000D+00 0.000000000000D+00 0.134659364628D-02 0.000000000000D+00  5 1 -1 25 23 21 2 0.19743181D-01 0.36613506D-01 0.25685107D+05 0.25685107D+05 0.25685107D+05 0.12220408D+01  1  2 15  2  5  2       -1 0.141824517845D-01 0.100000000000D+01
-.746968682653D-04 0.000000000000D+00 0.000000000000D+00 0.134659364628D-02 0.000000000000D+00  5 1 -1 25 23 21 2 0.19743181D-01 0.36613506D-01 0.25685107D+05 0.25685107D+05 0.25685107D+05 0.12220408D+01  1  2  4  2  5  2       -1 -.205533354633D-01 0.100000000000D+01
  </mgrwgt>
  </event>
  <event>
  4     66 0.49155423E-03 0.12338322E+03 0.75467711E-02 0.10758113E+00
        1 -1    0    0  501    0 0.00000000E+00 0.00000000E+00 0.36732501E+03 0.36732515E+03 0.32000000E+00 0.0000E+00 0.9000E+01
       -1 -1    0    0    0  501 0.00000000E+00 0.00000000E+00 -.80273651E+02 0.80274289E+02 0.32000000E+00 0.0000E+00 0.9000E+01
       25  1    1    2    0    0 0.53943984E+02 0.23721481E+02 -.26517487E+01 0.13821973E+03 0.12500000E+03 0.0000E+00 0.9000E+01
       23  1    1    2    0    0 -.53943984E+02 -.23721481E+02 0.28970311E+03 0.30937971E+03 0.91188000E+02 0.0000E+00 0.9000E+01
#aMCatNLO 1  0  0  2  1 0.27173535D+03 0.00000000D+00  -5  5  0 0.00000000D+00 0.00000000D+00 0.00000000D+00 0.00000000D+00 0.00000000D+00
  <mgrwgt>
 0.9991550756D-01    5    2    0
 0.171716899800453D+03 0.000000000000000D+00 0.000000000000000D+00 0.171716899800453D+03
 0.171716899800453D+03 0.000000000000000D+00 0.000000000000000D+00 -.171716899800453D+03
 0.182359050725164D+03 0.539439835899925D+02 0.237214805484502D+02 -.118983870236327D+03
 0.161074748875741D+03 -.539439835899925D+02 -.237214805484502D+02 0.118983870236327D+03
 0.000000000000000D+00 0.000000000000000D+00 0.000000000000000D+00 -.000000000000000D+00
 0.237449153829305D+03 0.000000000000000D+00 0.000000000000000D+00 0.237449153829305D+03
 0.121779121955822D+04 0.000000000000000D+00 0.000000000000000D+00 -.121779121955822D+04
 0.213139990135405D+03 0.519112864434137D+02 -.113805590189126D+03 -.118983870236327D+03
 0.224794792501470D+03 -.559271891977797D+02 -.157900080822650D+03 0.118983870236327D+03
 0.101730559075065D+04 0.401590275436598D+01 0.271705671011777D+03 -.980342065728919D+03
0.387387695282D-03 0.000000000000D+00 0.000000000000D+00 0.924869885840D-03 0.000000000000D+00  5 1 -1 25 23 21 0 0.56511600D-01 0.12349852D-01 0.15223420D+05 0.15223420D+05 0.15223420D+05 0.12470912D+01  1  2  2  2  5  2       -1 0.111027349752D+00 0.100000000000D+01
-.186624047761D-04 0.000000000000D+00 -.148767075141D-05 0.924869885840D-03 0.000000000000D+00  5 1 -1 25 23 21 2 0.56511600D-01 0.12349852D-01 0.15223420D+05 0.15223420D+05 0.15223420D+05 0.12470912D+01  1  2  3  2  5  2       -1 -.831856061825D-02 0.100000000000D+01
0.264292229236D-04 0.000000000000D+00 0.000000000000D+00 0.924869885840D-03 0.000000000000D+00  5 1 -1 25 23 21 2 0.56511600D-01 0.12349852D-01 0.15223420D+05 0.15223420D+05 0.15223420D+05 0.12470912D+01  1  2 15  2  5  2       -1 0.117805339462D-01 0.100000000000D+01
-.403101732488D-03 0.000000000000D+00 -.239995637527D-03 0.924869885840D-03 0.000000000000D+00  5 1 -1 25 23 21 2 0.56511600D-01 0.11060392D+00 0.15223420D+05 0.15223420D+05 0.15223420D+05 0.12470912D+01  1  2  5  2  5  2       -1 -.359822239393D-02 0.100000000000D+01
-.139992087916D-03 0.000000000000D+00 -.632996370318D-04 0.924869885840D-03 0.000000000000D+00  5 1 21 25 23 1 2 0.56511600D-01 0.11060392D+00 0.15223420D+05 0.15223420D+05 0.15223420D+05 0.12470912D+01  1  2  5  4  5  2       -1 -.109755931211D-01 0.100000000000D+01
  </mgrwgt>
  </event>
  <event>
  4     66 0.49155423E-03 0.10885939E+03 0.75467711E-02 0.11481555E+00
        1 -1    0    0  501    0 0.00000000E+00 0.00000000E+00 0.82319956E+02 0.82320578E+02 0.32000000E+00 0.0000E+00 0.9000E+01
       -1 -1    0    0    0  501 0.00000000E+00 0.00000000E+00 -.15611296E+03 0.15611329E+03 0.32000000E+00 0.0000E+00 0.9000E+01
       25  1    1    2    0    0 -.33773656E+01 0.12273656E+02 -.92384726E+01 0.12598571E+03 0.12500000E+03 0.0000E+00 0.9000E+01
       23  1    1    2    0    0 0.33773656E+01 -.12273656E+02 -.64554529E+02 0.11244816E+03 0.91188000E+02 0.0000E+00 0.9000E+01
#aMCatNLO 1  0  0  1  1 0.14319993D+03 0.00000000D+00  -5  5  0 0.00000000D+00 0.00000000D+00 0.00000000D+00 0.00000000D+00 0.00000000D+00
  <mgrwgt>
 0.1562795178D+00    3    2    0
 0.113363685108366D+03 0.000000000000000D+00 0.000000000000000D+00 0.113363685108366D+03
 0.113363685108366D+03 0.000000000000000D+00 0.000000000000000D+00 -.113363685108366D+03
 0.129483813545026D+03 -.337736558088447D+01 0.122736559742398D+02 0.312891153745548D+02
 0.972435566717052D+02 0.337736558088447D+01 -.122736559742398D+02 -.312891153745548D+02
 0.000000000000000D+00 0.000000000000000D+00 0.000000000000000D+00 -.000000000000000D+00
 0.165689566167718D+03 0.000000000000000D+00 0.000000000000000D+00 0.165689566167718D+03
 0.296273580815722D+03 0.000000000000000D+00 0.000000000000000D+00 -.296273580815722D+03
 0.154153277286246D+03 -.846103064376166D+02 0.565863676770400D+00 0.312891153745548D+02
 0.114009958582794D+03 -.571251034726212D+02 -.209936448567279D+02 -.312891153745548D+02
 0.193799911114400D+03 0.141735409910238D+03 0.204277811799575D+02 -.130584014648004D+03
0.236052068416D-03 0.000000000000D+00 0.000000000000D+00 0.217952501927D-02 0.000000000000D+00  5 1 -1 25 23 21 0 0.12664682D-01 0.24017451D-01 0.11850367D+05 0.11850367D+05 0.11850367D+05 0.12596633D+01  1  2  2  1  5  1        1 0.153054696475D+00 0.100000000000D+01
-.130877935661D-04 0.000000000000D+00 -.906502096653D-06 0.217952501927D-02 0.000000000000D+00  5 1 -1 25 23 21 2 0.12664682D-01 0.24017451D-01 0.11850367D+05 0.11850367D+05 0.11850367D+05 0.12596633D+01  1  2  3  1  5  1        1 -.134652438651D-01 0.100000000000D+01
0.162222185232D-04 0.000000000000D+00 0.000000000000D+00 0.217952501927D-02 0.000000000000D+00  5 1 -1 25 23 21 2 0.12664682D-01 0.24017451D-01 0.11850367D+05 0.11850367D+05 0.11850367D+05 0.12596633D+01  1  2 15  1  5  1        1 0.166900652386D-01 0.100000000000D+01
  </mgrwgt>
  </event>
  <event>
  5     66 0.49155423E-03 0.12040266E+03 0.75467711E-02 0.12123621E+00
        1 -1    0    0  501    0 0.00000000E+00 0.00000000E+00 0.17261194E+04 0.17261194E+04 0.32000000E+00 0.0000E+00 0.9000E+01
       21 -1    0    0  502  501 0.00000000E+00 0.00000000E+00 -.17872909E+02 0.17888638E+02 0.75000000E+00 0.0000E+00 0.9000E+01
       25  1    1    2    0    0 -.20683191E+02 -.39558165E+02 0.81032404E+03 0.82112283E+03 0.12500000E+03 0.0000E+00 0.9000E+01
       23  1    1    2    0    0 0.56665973E+02 0.28890979E+02 0.24685290E+03 0.27073479E+03 0.91188000E+02 0.0000E+00 0.9000E+01
        1  1    1    2  502    0 -.35982782E+02 0.10667186E+02 0.65106951E+03 0.65215041E+03 0.32000000E+00 0.0000E+00 0.9000E+01
#aMCatNLO 2  0  0  2  1 0.37530647D+02 0.00000000D+00  -5  5  0 0.00000000D+00 0.00000000D+00 0.00000000D+00 0.00000000D+00 0.00000000D+00
  <mgrwgt>
 0.3487396151D-01    1    2    0
 0.135204862408414D+03 0.000000000000000D+00 0.000000000000000D+00 0.135204862408414D+03
 0.135204862408414D+03 0.000000000000000D+00 0.000000000000000D+00 -.135204862408414D+03
 0.148720923380244D+03 -.402070694586133D+02 -.337702622502979D+02 0.611217964736707D+02
 0.121688801436584D+03 0.402070694586133D+02 0.337702622502979D+02 -.611217964736707D+02
 0.000000000000000D+00 -.000000000000000D+00 0.000000000000000D+00 0.000000000000000D+00
 0.219277460863235D+03 0.000000000000000D+00 0.000000000000000D+00 0.219277460863235D+03
 0.140754957387529D+03 0.000000000000000D+00 0.000000000000000D+00 -.140754957387529D+03
 0.146128425735584D+03 -.206831914013010D+02 -.395581647355933D+02 0.611217964736707D+02
 0.126873348479642D+03 0.566659733672713D+02 0.288909790178111D+02 -.611217964736707D+02
 0.870306440355375D+02 -.359827819659704D+02 0.106671857177822D+02 0.785225034757057D+02
0.535797040456D-05 0.000000000000D+00 0.000000000000D+00 0.158245867184D-02 0.942755245501D-07  5 1 21 25 23 1 2 0.26555750D+00 0.27508849D-02 0.19802404D+05 0.19802404D+05 0.19802404D+05 0.12343011D+01  1  2  1  4  5  2       -1 0.348739615051D-01 0.100000000000D+01
  </mgrwgt>
  </event>
  <event>
  4     66 0.49155423E-03 0.79108597E+02 0.75467711E-02 0.12015015E+00
        1 -1    0    0  501    0 0.00000000E+00 0.00000000E+00 0.71686958E+03 0.71686965E+03 0.32000000E+00 0.0000E+00 0.9000E+01
       -1 -1    0    0    0  501 0.00000000E+00 0.00000000E+00 -.32072184E+02 0.32073780E+02 0.32000000E+00 0.0000E+00 0.9000E+01
       25  1    1    2    0    0 0.82299635E+02 -.50868227E+02 0.47457892E+03 0.50021091E+03 0.12500000E+03 0.0000E+00 0.9000E+01
       23  1    1    2    0    0 -.82299635E+02 0.50868227E+02 0.21021847E+03 0.24873252E+03 0.91188000E+02 0.0000E+00 0.9000E+01
#aMCatNLO 1  0  0  1  2 0.72484547D+01 0.00000000D+00  -5  5  0 0.00000000D+00 0.00000000D+00 0.00000000D+00 0.00000000D+00 0.00000000D+00
  <mgrwgt>
 0.2318326979D+00    8    2    0
 0.151631781978050D+03 0.000000000000000D+00 0.000000000000000D+00 0.151631781978050D+03
 0.151631781978050D+03 0.000000000000000D+00 0.000000000000000D+00 -.151631781978050D+03
 0.163683590247800D+03 0.822996349073515D+02 -.508682267470413D+02 0.425030742198480D+02
 0.139579973708300D+03 -.822996349073515D+02 0.508682267470413D+02 -.425030742198480D+02
 0.000000000000000D+00 -.000000000000000D+00 -.000000000000000D+00 -.000000000000000D+00
 0.154450161050501D+03 0.000000000000000D+00 0.000000000000000D+00 0.154450161050501D+03
 0.156408305478194D+03 0.000000000000000D+00 0.000000000000000D+00 -.156408305478194D+03
 0.165479932419539D+03 0.861831395624367D+02 -.502450313025968D+02 0.425030742198480D+02
 0.137870243646709D+03 -.790262490779577D+02 0.513935149384990D+02 -.425030742198480D+02
 0.750829046244670D+01 -.715689048447898D+01 -.114848363590226D+01 -.195814442769348D+01
0.251059883617D-03 0.000000000000D+00 0.000000000000D+00 0.160139972106D-02 0.000000000000D+00  5 1 -1 25 23 21 0 0.11028776D+00 0.49343104D-02 0.21173208D+05 0.21173208D+05 0.21173208D+05 0.12311098D+01  1  2  2  1  5  1        1 0.119444305632D+00 0.100000000000D+01
-.139189725579D-04 0.000000000000D+00 -.964136058673D-06 0.160139972106D-02 0.000000000000D+00  5 1 -1 25 23 21 2 0.11028776D+00 0.49343104D-02 0.21173208D+05 0.21173208D+05 0.21173208D+05 0.12311098D+01  1  2  3  1  5  1        1 -.100366528382D-01 0.100000000000D+01
0.173756050666D-04 0.000000000000D+00 0.000000000000D+00 0.160139972106D-02 0.000000000000D+00  5 1 -1 25 23 21 2 0.11028776D+00 0.49343104D-02 0.21173208D+05 0.21173208D+05 0.21173208D+05 0.12311098D+01  1  2 15  1  5  1        1 0.125291515005D-01 0.100000000000D+01
0.398073639189D-03 0.000000000000D+00 0.000000000000D+00 0.160139972106D-02 0.000000000000D+00  5 1 -1 25 23 21 2 0.11403237D+00 0.49343104D-02 0.22250509D+05 0.22250509D+05 0.22250509D+05 0.12287601D+01  1  2 12  1  5  1        1 0.272676466555D+00 0.100000000000D+01
-.249252357933D-03 0.000000000000D+00 0.000000000000D+00 0.160139972106D-02 0.000000000000D+00  5 1 -1 25 23 21 2 0.11028776D+00 0.49343104D-02 0.21173208D+05 0.21173208D+05 0.21173208D+05 0.12311098D+01  1  2  4  1  5  1        1 -.179730175865D+00 0.100000000000D+01
0.140005078047D-04 0.000000000000D+00 0.000000000000D+00 0.160139972106D-02 0.245560842387D-03  5 1 -1 25 23 21 2 0.11233767D+00 0.50897452D-02 0.22250509D+05 0.22250509D+05 0.22250509D+05 0.12287601D+01  1  2 11  1  5  1        1 0.936159472233D-02 0.100000000000D+01
0.510496055512D-05 0.000000000000D+00 0.000000000000D+00 0.160139972106D-02 0.000000000000D+00  5 21 -1 25 23 -1 2 0.11403237D+00 0.49343104D-02 0.22250509D+05 0.22250509D+05 0.22250509D+05 0.12287601D+01  1  2 12  3  5  1        1 0.737126777484D-02 0.100000000000D+01
0.151595608695D-06 0.000000000000D+00 0.000000000000D+00 0.160139972106D-02 0.834602506642D-06  5 21 -1 25 23 -1 2 0.11233767D+00 0.50897452D-02 0.22250509D+05 0.22250509D+05 0.22250509D+05 0.12287601D+01  1  2 11  3  5  1        1 0.216740385748D-03 0.100000000000D+01
  </mgrwgt>
  </event>
  <event>
  4     66 0.49155423E-03 0.63196728E+02 0.75467711E-02 0.12264230E+00
        1 -1    0    0  501    0 0.00000000E+00 0.00000000E+00 0.93053380E+02 0.93053930E+02 0.32000000E+00 0.0000E+00 0.9000E+01
       -1 -1    0    0    0  501 0.00000000E+00 0.00000000E+00 -.29025375E+03 0.29025393E+03 0.32000000E+00 0.0000E+00 0.9000E+01
       25  1    1    2    0    0 0.37955928E+01 0.57366367E+02 0.21714932E+02 0.13929051E+03 0.12500000E+03 0.0000E+00 0.9000E+01
       23  1    1    2    0    0 -.37955928E+01 -.57366367E+02 -.21891530E+03 0.24401735E+03 0.91188000E+02 0.0000E+00 0.9000E+01
#aMCatNLO 1  0  0  2  1 0.15781789D+02 0.00000000D+00  -5  5  0 0.00000000D+00 0.00000000D+00 0.00000000D+00 0.00000000D+00 0.00000000D+00
  <mgrwgt>
 0.1094059768D+00    9    2    0
 0.164344856410419D+03 0.000000000000000D+00 0.000000000000000D+00 0.164344856410419D+03
 0.164344856410419D+03 0.000000000000000D+00 0.000000000000000D+00 -.164344856410419D+03
 0.175464383993542D+03 0.379559278105790D+01 0.573663671703503D+02 0.108891888785850D+03
 0.153225328827296D+03 -.379559278105790D+01 -.573663671703503D+02 -.108891888785850D+03
 0.000000000000000D+00 0.000000000000000D+00 -.000000000000000D+00 -.000000000000000D+00
 0.165770975853790D+03 0.000000000000000D+00 0.000000000000000D+00 0.165770975853790D+03
 0.214879167310414D+03 0.000000000000000D+00 0.000000000000000D+00 -.214879167310414D+03
 0.177437397422223D+03 -.232690620204263D+01 0.632152835012936D+02 0.108891888785850D+03
 0.151630972622977D+03 -.908454991846074D+01 -.523137460331314D+02 -.108891888785850D+03
 0.515817731190039D+02 0.114114561205034D+02 -.109015374681623D+02 -.491081914566243D+02
0.463249389003D-03 0.000000000000D+00 0.000000000000D+00 0.101537769642D-02 0.000000000000D+00  5 1 -1 25 23 21 0 0.14315960D-01 0.44654479D-01 0.15053590D+05 0.15053590D+05 0.15053590D+05 0.12476460D+01  1  2  2  2  5  2       -1 0.901128012375D-01 0.100000000000D+01
-.230629145334D-04 0.000000000000D+00 -.177899963014D-05 0.101537769642D-02 0.000000000000D+00  5 1 -1 25 23 21 2 0.14315960D-01 0.44654479D-01 0.15053590D+05 0.15053590D+05 0.15053590D+05 0.12476460D+01  1  2  3  2  5  2       -1 -.698342680717D-02 0.100000000000D+01
0.316864841853D-04 0.000000000000D+00 0.000000000000D+00 0.101537769642D-02 0.000000000000D+00  5 1 -1 25 23 21 2 0.14315960D-01 0.44654479D-01 0.15053590D+05 0.15053590D+05 0.15053590D+05 0.12476460D+01  1  2 15  2  5  2       -1 0.959463483089D-02 0.100000000000D+01
0.387269256968D-02 0.000000000000D+00 0.000000000000D+00 0.101537769642D-02 0.000000000000D+00  5 1 -1 25 23 21 2 0.14315960D-01 0.58536947D-01 0.17082083D+05 0.17082083D+05 0.17082083D+05 0.12414381D+01  1  2 12  2  5  2       -1 0.708754672807D+00 0.100000000000D+01
-.379158734022D-02 0.000000000000D+00 0.000000000000D+00 0.101537769642D-02 0.000000000000D+00  5 1 -1 25 23 21 2 0.14315960D-01 0.44654479D-01 0.15053590D+05 0.15053590D+05 0.15053590D+05 0.12476460D+01  1  2  4  2  5  2       -1 -.114808874806D+01 0.100000000000D+01
-.413650328678D-02 0.000000000000D+00 -.236608661778D-03 0.101537769642D-02 0.000000000000D+00  5 1 -1 25 23 21 2 0.14315960D-01 0.58638110D-01 0.15053590D+05 0.15053590D+05 0.15053590D+05 0.12476460D+01  1  2  5  2  5  2       -1 -.760712349058D+00 0.100000000000D+01
0.405795851107D-02 0.000000000000D+00 0.228091894895D-03 0.101537769642D-02 0.000000000000D+00  5 1 -1 25 23 21 2 0.14315960D-01 0.44654479D-01 0.15053590D+05 0.15053590D+05 0.15053590D+05 0.12476460D+01  1  2  6  2  5  2       -1 0.122874566471D+01 0.100000000000D+01
0.138941516841D-03 0.000000000000D+00 0.000000000000D+00 0.101537769642D-02 0.000000000000D+00  5 1 21 25 23 1 2 0.14315960D-01 0.58536947D-01 0.17082083D+05 0.17082083D+05 0.17082083D+05 0.12414381D+01  1  2 12  4  5  2       -1 0.250275537344D+00 0.100000000000D+01
-.144538873098D-03 0.000000000000D+00 -.852832708828D-05 0.101537769642D-02 0.000000000000D+00  5 1 21 25 23 1 2 0.14315960D-01 0.58638110D-01 0.15053590D+05 0.15053590D+05 0.15053590D+05 0.12476460D+01  1  2  5  4  5  2       -1 -.262292810241D+00 0.100000000000D+01
  </mgrwgt>
  </event>
  <event>
  5     66 0.49155423E-03 0.12313584E+03 0.75467711E-02 0.12006857E+00
        1 -1    0    0  502    0 0.00000000E+00 0.00000000E+00 0.74819866E+03 0.74819873E+03 0.32000000E+00 0.0000E+00 0.9000E+01
       -1 -1    0    0    0  501 0.00000000E+00 0.00000000E+00 -.33762023E+02 0.33763539E+02 0.32000000E+00 0.0000E+00 0.9000E+01
       25  1    1    2    0    0 0.38377402E+02 0.25775450E+02 0.24430781E+03 0.27829572E+03 0.12500000E+03 0.0000E+00 0.9000E+01
       23  1    1    2    0    0 -.74335402E+02 0.68213406E+01 0.40883668E+03 0.42548204E+03 0.91188000E+02 0.0000E+00 0.9000E+01
       21  1    1    2  502  501 0.35958000E+02 -.32596791E+02 0.61292147E+02 0.78184515E+02 0.75000000E+00 0.0000E+00 0.9000E+01
#aMCatNLO 2  0  0  1  1 0.48533788D+02 0.00000000D+00  -5  5  0 0.00000000D+00 0.00000000D+00 0.00000000D+00 0.00000000D+00 0.00000000D+00
  <mgrwgt>
 0.2510222207D-01    1    2    0
 0.128792345012314D+03 0.000000000000000D+00 0.000000000000000D+00 0.128792345012314D+03
 0.128792345012314D+03 0.000000000000000D+00 0.000000000000000D+00 -.128792345012314D+03
 0.142981365049377D+03 0.578495232234656D+02 0.812350474222501D+01 -.374981610869634D+02
 0.114603324975251D+03 -.578495232234656D+02 -.812350474222501D+01 0.374981610869634D+02
 0.000000000000000D+00 0.000000000000000D+00 -.000000000000000D+00 -.000000000000000D+00
 0.144527610499216D+03 0.000000000000000D+00 0.000000000000000D+00 0.144527610499216D+03
 0.174779759041171D+03 0.000000000000000D+00 0.000000000000000D+00 -.174779759041171D+03
 0.138449669215541D+03 0.383774020811947D+02 0.257754501510088D+02 -.374981610869634D+02
 0.123667482241730D+03 -.743354023835739D+02 0.682134059967799D+01 0.374981610869634D+02
 0.571902180831171D+02 0.359580003023792D+02 -.325967907506868D+02 -.302521485419553D+02
0.401134340741D-04 0.000000000000D+00 0.000000000000D+00 0.185108464020D-02 0.663508860994D-05  5 1 -1 25 23 21 2 0.11510574D+00 0.51941951D-02 0.22448140D+05 0.22448140D+05 0.22448140D+05 0.12283428D+01  1  2  1  1  5  1        1 0.251022220677D-01 0.100000000000D+01
  </mgrwgt>
  </event>
  <event>
  4     66 0.49155423E-03 0.11928065E+03 0.75467711E-02 0.11140957E+00
        1 -1    0    0  501    0 0.00000000E+00 0.00000000E+00 0.36302009E+04 0.36302009E+04 0.32000000E+00 0.0000E+00 0.9000E+01
       -1 -1    0    0    0  501 0.00000000E+00 0.00000000E+00 -.49594019E+01 0.49697150E+01 0.32000000E+00 0.0000E+00 0.9000E+01
       25  1    1    2    0    0 -.40287024E+02 0.29485939E+02 0.28249704E+04 0.28281753E+04 0.12500000E+03 0.0000E+00 0.9000E+01
       23  1    1    2    0    0 0.40287024E+02 -.29485939E+02 0.80027106E+03 0.80699535E+03 0.91188000E+02 0.0000E+00 0.9000E+01
#aMCatNLO 1  0  0  2  1 0.19309104D+03 0.00000000D+00  -5  5  0 0.00000000D+00 0.00000000D+00 0.00000000D+00 0.00000000D+00 0.00000000D+00
  <mgrwgt>
 0.1234687819D+00    5    2    0
 0.134247515807094D+03 0.000000000000000D+00 0.000000000000000D+00 0.134247515807094D+03
 0.134247515807094D+03 0.000000000000000D+00 0.000000000000000D+00 -.134247515807094D+03
 0.147859962585073D+03 -.402870241908625D+02 0.294859385137574D+02 0.611972519600928D+02
 0.120635069029115D+03 0.402870241908625D+02 -.294859385137574D+02 -.611972519600928D+02
 0.000000000000000D+00 0.000000000000000D+00 -.000000000000000D+00 -.000000000000000D+00
 0.234430255902536D+03 0.000000000000000D+00 0.000000000000000D+00 0.234430255902536D+03
 0.300305656674526D+03 0.000000000000000D+00 0.000000000000000D+00 -.300305656674526D+03
 0.214273422548560D+03 -.939142289680793D+02 0.133128184696321D+03 0.611972519600928D+02
 0.116443573874685D+03 0.517878658218388D+01 0.383657539320975D+02 -.611972519600928D+02
 0.204018916153818D+03 0.887354423858954D+02 -.171493938628418D+03 -.658754007719900D+02
0.136055165980D-02 0.000000000000D+00 0.000000000000D+00 0.158903518159D-02 0.000000000000D+00  5 1 -1 25 23 21 0 0.55849324D+00 0.76377930D-03 0.14227873D+05 0.14227873D+05 0.14227873D+05 0.12504475D+01  1  2  2  2  5  2       -1 0.974190813605D-01 0.100000000000D+01
-.743020883670D-04 0.000000000000D+00 -.522487661509D-05 0.158903518159D-02 0.000000000000D+00  5 1 -1 25 23 21 2 0.55849324D+00 0.76377930D-03 0.14227873D+05 0.14227873D+05 0.14227873D+05 0.12504475D+01  1  2  3  2  5  2       -1 -.831880517726D-02 0.100000000000D+01
0.933988094620D-04 0.000000000000D+00 0.000000000000D+00 0.158903518159D-02 0.000000000000D+00  5 1 -1 25 23 21 2 0.55849324D+00 0.76377930D-03 0.14227873D+05 0.14227873D+05 0.14227873D+05 0.12504475D+01  1  2 15  2  5  2       -1 0.104568595147D-01 0.100000000000D+01
0.195006763216D-01 0.000000000000D+00 -.432084821390D-02 0.158903518159D-02 0.000000000000D+00  5 1 -1 25 23 21 2 0.55849324D+00 0.38706570D-01 0.14227873D+05 0.14227873D+05 0.14227873D+05 0.12504475D+01  1  2  5  2  5  2       -1 0.587450610521D-02 0.100000000000D+01
0.548378296037D-02 0.000000000000D+00 -.152630349575D-02 0.158903518159D-02 0.000000000000D+00  5 1 21 25 23 1 2 0.55849324D+00 0.38706570D-01 0.14227873D+05 0.14227873D+05 0.14227873D+05 0.12504475D+01  1  2  5  4  5  2       -1 0.180371400895D-01 0.100000000000D+01
  </mgrwgt>
  </event>
  <event>
  4     66 0.49155423E-03 0.11254307E+03 0.75467711E-02 0.11450564E+00
        3 -1    0    0  501    0 0.00000000E+00 0.00000000E+00 0.16230804E+03 0.16230881E+03 0.50000000E+00 0.0000E+00 0.9000E+01
       -3 -1    0    0    0  501 0.00000000E+00 0.00000000E+00 -.20165934E+03 0.20165996E+03 0.50000000E+00 0.0000E+00 0.9000E+01
       25  1    1    2    0    0 -.16126213E+02 0.26446647E+02 0.12113784E+03 0.17680174E+03 0.12500000E+03 0.0000E+00 0.9000E+01
       23  1    1    2    0    0 0.16126213E+02 -.26446647E+02 -.16048914E+03 0.18716703E+03 0.91188000E+02 0.0000E+00 0.9000E+01
#aMCatNLO 1  0  0  1  2 0.14327756D+03 0.00000000D+00  -5  5  0 0.00000000D+00 0.00000000D+00 0.00000000D+00 0.00000000D+00 0.00000000D+00
  <mgrwgt>
 0.1839752814D-01    5    2    0
 0.180917619479524D+03 0.000000000000000D+00 0.000000000000000D+00 0.180917619479524D+03
 0.180917619479524D+03 0.000000000000000D+00 0.000000000000000D+00 -.180917619479524D+03
 0.191018554751928D+03 -.161262127785069D+02 0.264466472257676D+02 0.141080148750465D+03
 0.170816684207121D+03 0.161262127785069D+02 -.264466472257676D+02 -.141080148750465D+03
 0.000000000000000D+00 -.000000000000000D+00 0.000000000000000D+00 0.000000000000000D+00
 0.291740429124803D+03 0.000000000000000D+00 0.000000000000000D+00 0.291740429124803D+03
 0.247408668627494D+03 0.000000000000000D+00 0.000000000000000D+00 -.247408668627494D+03
 0.194119070343187D+03 0.432404207895132D+02 -.168484749872418D+02 0.141080148750465D+03
 0.195050814685234D+03 0.725224730395663D+02 -.675755244015580D+02 -.141080148750465D+03
 0.149979212723876D+03 -.115762893829080D+03 0.844239993887999D+02 0.443317604973096D+02
0.428195024931D-03 0.000000000000D+00 0.000000000000D+00 0.718191667132D-03 0.000000000000D+00  5 3 -3 25 23 21 0 0.24970574D-01 0.31024621D-01 0.12665944D+05 0.12665944D+05 0.12665944D+05 0.12562843D+01  1  2  2  1  5  1        3 0.147317556949D-01 0.100000000000D+01
-.172708339551D-04 0.000000000000D+00 -.164438164208D-05 0.718191667132D-03 0.000000000000D+00  5 3 -3 25 23 21 2 0.24970574D-01 0.31024621D-01 0.12665944D+05 0.12665944D+05 0.12665944D+05 0.12562843D+01  1  2  3  1  5  1        3 -.937782391907D-03 0.100000000000D+01
0.293374228031D-04 0.000000000000D+00 0.000000000000D+00 0.718191667132D-03 0.000000000000D+00  5 3 -3 25 23 21 2 0.24970574D-01 0.31024621D-01 0.12665944D+05 0.12665944D+05 0.12665944D+05 0.12562843D+01  1  2 15  1  5  1        3 0.159298147387D-02 0.100000000000D+01
0.155681254937D-04 0.000000000000D+00 -.153169836999D-03 0.718191667132D-03 0.000000000000D+00  5 3 -3 25 23 21 2 0.53515957D-01 0.31024621D-01 0.12665944D+05 0.12665944D+05 0.12665944D+05 0.12562843D+01  1  2  5  1  5  1        3 0.199219124475D-03 0.100000000000D+01
0.108558220596D-04 0.000000000000D+00 -.126361453526D-04 0.718191667132D-03 0.000000000000D+00  5 21 -3 25 23 -3 2 0.53515957D-01 0.31024621D-01 0.12665944D+05 0.12665944D+05 0.12665944D+05 0.12562843D+01  1  2  5  3  5  1        3 0.281135423461D-02 0.100000000000D+01
  </mgrwgt>
  </event>
  <event>
  4     66 0.49155423E-03 0.17957092E+03 0.75467711E-02 0.11674407E+00
        1 -1    0    0  501    0 0.00000000E+00 0.00000000E+00 0.18351609E+03 0.18351637E+03 0.32000000E+00 0.0000E+00 0.9000E+01
       -1 -1    0    0    0  501 0.00000000E+00 0.00000000E+00 -.18089258E+03 0.18089287E+03 0.32000000E+00 0.0000E+00 0.9000E+01
       25  1    1    2    0    0 -.10377569E+02 0.14237788E+03 -.29408393E+02 0.19201304E+03 0.12500000E+03 0.0000E+00 0.9000E+01
       23  1    1    2    0    0 0.10377569E+02 -.14237788E+03 0.32031898E+02 0.17239619E+03 0.91188000E+02 0.0000E+00 0.9000E+01
#aMCatNLO 1  0  0  1  2 0.16052880D+01 0.00000000D+00  -5  5  0 0.00000000D+00 0.00000000D+00 0.00000000D+00 0.00000000D+00 0.00000000D+00
  <mgrwgt>
 0.1158995083D+00    6    2    0
 0.182199893736760D+03 0.000000000000000D+00 0.000000000000000D+00 0.182199893736760D+03
 0.182199893736760D+03 0.000000000000000D+00 0.000000000000000D+00 -.182199893736760D+03
 0.192229741320756D+03 -.103775691778341D+02 0.142377875701163D+03 -.307915575609354D+02
 0.172170046152764D+03 0.103775691778341D+02 -.142377875701163D+03 0.307915575609354D+02
 0.000000000000000D+00 -.000000000000000D+00 -.000000000000000D+00 -.000000000000000D+00
 0.182408099419992D+03 0.000000000000000D+00 0.000000000000000D+00 0.182408099419992D+03
 0.185322395979699D+03 0.000000000000000D+00 0.000000000000000D+00 -.185322395979699D+03
 0.192502385581450D+03 -.964126945427401D+01 0.142797389194730D+03 -.307915575609354D+02
 0.171900937757172D+03 0.110360516715571D+02 -.142002699285153D+03 0.307915575609354D+02
 0.332717206106813D+01 -.139478221728305D+01 -.794689909576973D+00 -.291429655970696D+01
0.555337198440D-03 0.000000000000D+00 0.000000000000D+00 0.148706415363D-02 0.000000000000D+00  5 1 -1 25 23 21 0 0.28233287D-01 0.27829671D-01 0.32245714D+05 0.32245714D+05 0.32245714D+05 0.12116217D+01  1  2  2  1  5  1        1 0.104147340127D+00 0.100000000000D+01
-.308441425232D-04 0.000000000000D+00 -.213264106565D-05 0.148706415363D-02 0.000000000000D+00  5 1 -1 25 23 21 2 0.28233287D-01 0.27829671D-01 0.32245714D+05 0.32245714D+05 0.32245714D+05 0.12116217D+01  1  2  3  1  5  1        1 -.849177006477D-02 0.100000000000D+01
0.382721940383D-04 0.000000000000D+00 0.000000000000D+00 0.148706415363D-02 0.000000000000D+00  5 1 -1 25 23 21 2 0.28233287D-01 0.27829671D-01 0.32245714D+05 0.32245714D+05 0.32245714D+05 0.12116217D+01  1  2 15  1  5  1        1 0.105368035893D-01 0.100000000000D+01
-.665494850876D-03 0.000000000000D+00 0.000000000000D+00 0.148706415363D-02 0.000000000000D+00  5 1 -1 25 23 21 2 0.28233287D-01 0.27829671D-01 0.32245714D+05 0.32245714D+05 0.32245714D+05 0.12116217D+01  1  2  4  1  5  1        1 -.183218880171D+00 0.100000000000D+01
0.665585972494D-03 0.000000000000D+00 0.000000000000D+00 0.148706415363D-02 0.451577874904D-02  5 1 -1 25 23 21 2 0.28265551D-01 0.28306610D-01 0.32535105D+05 0.32535105D+05 0.32535105D+05 0.12112181D+01  1  2 11  1  5  1        1 0.177744932766D+00 0.100000000000D+01
0.838481845340D-05 0.000000000000D+00 0.000000000000D+00 0.148706415363D-02 0.974192435124D-06  5 21 -1 25 23 -1 2 0.28265551D-01 0.28306610D-01 0.32535105D+05 0.32535105D+05 0.32535105D+05 0.12112181D+01  1  2 11  3  5  1        1 0.151810820471D-01 0.100000000000D+01
  </mgrwgt>
  </event>
  <event>
  5     66 0.49155423E-03 0.15483105E+03 0.75467711E-02 0.11695040E+00
        1 -1    0    0  501    0 0.00000000E+00 0.00000000E+00 0.31397786E+03 0.31397802E+03 0.32000000E+00 0.0000E+00 0.9000E+01
       21 -1    0    0  502  501 0.00000000E+00 0.00000000E+00 -.13243444E+03 0.13243656E+03 0.75000000E+00 0.0000E+00 0.9000E+01
       25  1    1    2    0    0 -.23933513E+02 0.86942102E+02 0.16649321E+03 0.22688484E+03 0.12500000E+03 0.0000E+00 0.9000E+01
       23  1    1    2    0    0 0.54448456E+02 -.11805305E+03 -.24504448E+02 0.16067631E+03 0.91188000E+02 0.0000E+00 0.9000E+01
        1  1    1    2  502    0 -.30514943E+02 0.31110952E+02 0.39554658E+02 0.58853432E+02 0.32000000E+00 0.0000E+00 0.9000E+01
#aMCatNLO 2  0  0  2  2 0.43578126D+02 0.00000000D+00  -5  5  0 0.00000000D+00 0.00000000D+00 0.00000000D+00 0.00000000D+00 0.00000000D+00
  <mgrwgt>
 0.2961807793D-01    1    2    0
 0.178985883319408D+03 0.000000000000000D+00 0.000000000000000D+00 0.178985883319408D+03
 0.178985883319408D+03 0.000000000000000D+00 0.000000000000000D+00 -.178985883319408D+03
 0.189195834686013D+03 -.395386086069829D+02 0.102851991748361D+03 0.896003911004643D+02
 0.168775931952803D+03 0.395386086069829D+02 -.102851991748361D+03 -.896003911004643D+02
 0.000000000000000D+00 -.000000000000000D+00 0.000000000000000D+00 0.000000000000000D+00
 0.213813813069449D+03 0.000000000000000D+00 0.000000000000000D+00 0.213813813069449D+03
 0.194476532964017D+03 0.000000000000000D+00 0.000000000000000D+00 -.194476532964017D+03
 0.178283404013662D+03 -.239335128045071D+02 0.869421015744325D+02 0.896003911004643D+02
 0.182331125369100D+03 0.544484557205811D+02 -.118053053830260D+03 -.896003911004643D+02
 0.476758166507041D+02 -.305149429160740D+02 0.311109522558275D+02 0.193372801054317D+02
0.997542098068D-05 0.000000000000D+00 0.000000000000D+00 0.120379771253D-02 0.732714125264D-07  5 1 21 25 23 1 2 0.48304333D-01 0.20374650D-01 0.31774329D+05 0.31774329D+05 0.31774329D+05 0.12122880D+01  1  2  1  4  5  2       -1 0.296180779327D-01 0.100000000000D+01
  </mgrwgt>
  </event>
  <event>
  4     66 0.49155423E-03 0.81187704E+02 0.75467711E-02 0.12136658E+00
        1 -1    0    0  501    0 0.00000000E+00 0.00000000E+00 0.11999765E+04 0.11999765E+04 0.32000000E+00 0.0000E+00 0.9000E+01
       -1 -1    0    0    0  501 0.00000000E+00 0.00000000E+00 -.12109121E+02 0.12113349E+02 0.32000000E+00 0.0000E+00 0.9000E+01
       25  1    1    2    0    0 -.31540754E+02 -.39496822E+02 0.59104593E+03 0.60623025E+03 0.12500000E+03 0.0000E+00 0.9000E+01
       23  1    1    2    0    0 0.31540754E+02 0.39496822E+02 0.59682143E+03 0.60585963E+03 0.91188000E+02 0.0000E+00 0.9000E+01
#aMCatNLO 1  0  0  2  1 0.37467058D+02 0.00000000D+00  -5  5  0 0.00000000D+00 0.00000000D+00 0.00000000D+00 0.00000000D+00 0.00000000D+00
  <mgrwgt>
 0.1453084131D+00    9    2    0
 0.120553923663590D+03 0.000000000000000D+00 0.000000000000000D+00 0.120553923663590D+03
 0.120553923663590D+03 0.000000000000000D+00 0.000000000000000D+00 -.120553923663590D+03
 0.135712593812722D+03 -.315407535102548D+02 -.394968219037242D+02 -.154301667809451D+02
 0.105395253514458D+03 0.315407535102548D+02 0.394968219037242D+02 0.154301667809451D+02
 0.000000000000000D+00 -.000000000000000D+00 -.000000000000000D+00 -.000000000000000D+00
 0.129711187828397D+03 0.000000000000000D+00 0.000000000000000D+00 0.129711187828397D+03
 0.167516639297138D+03 0.000000000000000D+00 0.000000000000000D+00 -.167516639297138D+03
 0.130294840763130D+03 -.271312037597699D+02 -.194307299180324D+02 -.154301667809451D+02
 0.113706746340114D+03 0.351727616544255D+02 0.560246339565758D+02 0.154301667809451D+02
 0.532262400222912D+02 -.804155789465554D+01 -.365939040385434D+02 -.378054514687410D+02
0.145023001757D-03 0.000000000000D+00 0.000000000000D+00 0.210677336736D-02 0.000000000000D+00  5 1 -1 25 23 21 0 0.18461210D+00 0.18632702D-02 0.14291268D+05 0.14291268D+05 0.14291268D+05 0.12502260D+01  1  2  2  2  5  2       -1 0.121834013762D+00 0.100000000000D+01
-.805614302580D-05 0.000000000000D+00 -.556926512179D-06 0.210677336736D-02 0.000000000000D+00  5 1 -1 25 23 21 2 0.18461210D+00 0.18632702D-02 0.14291268D+05 0.14291268D+05 0.14291268D+05 0.12502260D+01  1  2  3  2  5  2       -1 -.105787878486D-01 0.100000000000D+01
0.100567142672D-04 0.000000000000D+00 0.000000000000D+00 0.210677336736D-02 0.000000000000D+00  5 1 -1 25 23 21 2 0.18461210D+00 0.18632702D-02 0.14291268D+05 0.14291268D+05 0.14291268D+05 0.12502260D+01  1  2 15  2  5  2       -1 0.132058041107D-01 0.100000000000D+01
0.152647112773D-03 0.000000000000D+00 0.000000000000D+00 0.210677336736D-02 0.000000000000D+00  5 1 -1 25 23 21 2 0.18461210D+00 0.26386944D-02 0.19530055D+05 0.19530055D+05 0.19530055D+05 0.12349645D+01  1  2 12  2  5  2       -1 0.119151719937D+00 0.100000000000D+01
-.164488329942D-03 0.000000000000D+00 0.000000000000D+00 0.210677336736D-02 0.000000000000D+00  5 1 -1 25 23 21 2 0.18461210D+00 0.18632702D-02 0.14291268D+05 0.14291268D+05 0.14291268D+05 0.12502260D+01  1  2  4  2  5  2       -1 -.215995066181D+00 0.100000000000D+01
-.219393016878D-03 0.000000000000D+00 -.578533353866D-04 0.210677336736D-02 0.000000000000D+00  5 1 -1 25 23 21 2 0.18461210D+00 0.27939357D-02 0.14291268D+05 0.14291268D+05 0.14291268D+05 0.12502260D+01  1  2  5  2  5  2       -1 -.160640495958D+00 0.100000000000D+01
0.228282990388D-03 0.000000000000D+00 0.534102033917D-04 0.210677336736D-02 0.000000000000D+00  5 1 -1 25 23 21 2 0.18461210D+00 0.18632702D-02 0.14291268D+05 0.14291268D+05 0.14291268D+05 0.12502260D+01  1  2  6  2  5  2       -1 0.299765944700D+00 0.100000000000D+01
0.656628605775D-05 0.000000000000D+00 0.000000000000D+00 0.210677336736D-02 0.000000000000D+00  5 1 21 25 23 1 2 0.18461210D+00 0.26386944D-02 0.19530055D+05 0.19530055D+05 0.19530055D+05 0.12349645D+01  1  2 12  4  5  2       -1 0.101278989897D+00 0.100000000000D+01
-.853223762223D-05 0.000000000000D+00 -.277965830771D-05 0.210677336736D-02 0.000000000000D+00  5 1 21 25 23 1 2 0.18461210D+00 0.27939357D-02 0.14291268D+05 0.14291268D+05 0.14291268D+05 0.12502260D+01  1  2  5  4  5  2       -1 -.122713709358D+00 0.100000000000D+01
  </mgrwgt>
  </event>
  <event>
  4     66 0.49155423E-03 0.17047056E+03 0.75467711E-02 0.10895124E+00
        3 -1    0    0  501    0 0.00000000E+00 0.00000000E+00 0.63731532E+03 0.63731551E+03 0.50000000E+00 0.0000E+00 0.9000E+01
       -3 -1    0    0    0  501 0.00000000E+00 0.00000000E+00 -.48020988E+02 0.48023591E+02 0.50000000E+00 0.0000E+00 0.9000E+01
       25  1    1    2    0    0 -.10178386E+03 0.82734815E+02 0.38909320E+03 0.42921267E+03 0.12500000E+03 0.0000E+00 0.9000E+01
       23  1    1    2    0    0 0.10178386E+03 -.82734815E+02 0.20020113E+03 0.25612643E+03 0.91188000E+02 0.0000E+00 0.9000E+01
#aMCatNLO 1  0  0  2  2 0.19281770D+03 0.00000000D+00  -5  5  0 0.00000000D+00 0.00000000D+00 0.00000000D+00 0.00000000D+00 0.00000000D+00
  <mgrwgt>
 0.1714200700D-01    3    2    0
 0.174944192568556D+03 0.000000000000000D+00 0.000000000000000D+00 0.174944192568556D+03
 0.174944192568556D+03 0.000000000000000D+00 0.000000000000000D+00 -.174944192568556D+03
 0.185390021819412D+03 -.101783860159182D+03 0.827348146152720D+02 0.392359076851100D+02
 0.164498363317700D+03 0.101783860159182D+03 -.827348146152720D+02 -.392359076851100D+02
 0.000000000000000D+00 0.000000000000000D+00 -.000000000000000D+00 0.000000000000000D+00
 0.346147020256347D+03 0.000000000000000D+00 0.000000000000000D+00 0.346147020256347D+03
 0.263239713473098D+03 0.000000000000000D+00 0.000000000000000D+00 -.263239713473098D+03
 0.273684907740406D+03 -.142121102931557D+03 0.193753875766442D+03 0.392359076851100D+02
 0.125815462739778D+03 0.762750411672897D+02 -.125276080509551D+02 -.392359076851100D+02
 0.209886363249261D+03 0.658460617642669D+02 -.181226267715487D+03 0.829073067832490D+02
0.608099239437D-03 0.000000000000D+00 0.000000000000D+00 0.149145839595D-02 0.000000000000D+00  5 3 -3 25 23 21 0 0.98048726D-01 0.73880597D-02 0.29060212D+05 0.29060212D+05 0.29060212D+05 0.12163518D+01  1  2  2  2  5  2       -3 0.168090883957D-01 0.100000000000D+01
-.337557278047D-04 0.000000000000D+00 -.233526119564D-05 0.149145839595D-02 0.000000000000D+00  5 3 -3 25 23 21 2 0.98048726D-01 0.73880597D-02 0.29060212D+05 0.29060212D+05 0.29060212D+05 0.12163518D+01  1  2  3  2  5  2       -3 -.138049736078D-02 0.100000000000D+01
0.418962068700D-04 0.000000000000D+00 0.000000000000D+00 0.149145839595D-02 0.000000000000D+00  5 3 -3 25 23 21 2 0.98048726D-01 0.73880597D-02 0.29060212D+05 0.29060212D+05 0.29060212D+05 0.12163518D+01  1  2 15  2  5  2       -3 0.171341596737D-02 0.100000000000D+01
  </mgrwgt>
  </event>
  <event>
  4     66 0.49155423E-03 0.11581743E+03 0.75467711E-02 0.11732291E+00
        1 -1    0    0  501    0 0.00000000E+00 0.00000000E+00 0.52325869E+03 0.52325879E+03 0.32000000E+00 0.0000E+00 0.9000E+01
       -1 -1    0    0    0  501 0.00000000E+00 0.00000000E+00 -.47607718E+02 0.47608794E+02 0.32000000E+00 0.0000E+00 0.9000E+01
       25  1    1    2    0    0 0.40911359E+02 0.43332027E+01 0.62327359E+02 0.14560981E+03 0.12500000E+03 0.0000E+00 0.9000E+01
       23  1    1    2    0    0 -.40911359E+02 -.43332027E+01 0.41332361E+03 0.42525778E+03 0.91188000E+02 0.0000E+00 0.9000E+01
#aMCatNLO 1  0  0  2  2 0.96980999D+02 0.00000000D+00  -5  5  0 0.00000000D+00 0.00000000D+00 0.00000000D+00 0.00000000D+00 0.00000000D+00
  <mgrwgt>
 0.1539235760D+00    3    2    0
 0.157833733269950D+03 0.000000000000000D+00 0.000000000000000D+00 0.157833733269950D+03
 0.157833733269950D+03 0.000000000000000D+00 0.000000000000000D+00 -.157833733269950D+03
 0.169411975298062D+03 0.409113590442852D+02 0.433320265495160D+01 -.106690681084582D+03
 0.146255491241837D+03 -.409113590442852D+02 -.433320265495160D+01 0.106690681084582D+03
 0.000000000000000D+00 0.000000000000000D+00 -.000000000000000D+00 0.000000000000000D+00
 0.293825268201832D+03 0.000000000000000D+00 0.000000000000000D+00 0.293825268201832D+03
 0.183382874148702D+03 0.000000000000000D+00 0.000000000000000D+00 -.183382874148702D+03
 0.164682171690031D+03 -.924553073288691D+01 0.518038644506286D+01 -.106690681084582D+03
 0.165546936095882D+03 -.877216372883697D+02 -.354254539699229D+01 0.106690681084582D+03
 0.146979034564622D+03 0.969671680212566D+02 -.163784104807057D+01 0.110442394053130D+03
0.371148982094D-03 0.000000000000D+00 0.000000000000D+00 0.102617957240D-02 0.000000000000D+00  5 1 -1 25 23 21 0 0.80501427D-01 0.73243546D-02 0.13413677D+05 0.13413677D+05 0.13413677D+05 0.12533948D+01  1  2  2  2  5  2       -1 0.149409745743D+00 0.100000000000D+01
-.182174898838D-04 0.000000000000D+00 -.142530981701D-05 0.102617957240D-02 0.000000000000D+00  5 1 -1 25 23 21 2 0.80501427D-01 0.73243546D-02 0.13413677D+05 0.13413677D+05 0.13413677D+05 0.12533948D+01  1  2  3  2  5  2       -1 -.115211271228D-01 0.100000000000D+01
0.253548693551D-04 0.000000000000D+00 0.000000000000D+00 0.102617957240D-02 0.000000000000D+00  5 1 -1 25 23 21 2 0.80501427D-01 0.73243546D-02 0.13413677D+05 0.13413677D+05 0.13413677D+05 0.12533948D+01  1  2 15  2  5  2       -1 0.160349573342D-01 0.100000000000D+01
  </mgrwgt>
  </event>
  <event>
  4     66 0.49155423E-03 0.62586089E+02 0.75467711E-02 0.11996262E+00
        1 -1    0    0  501    0 0.00000000E+00 0.00000000E+00 0.14953189E+04 0.14953189E+04 0.32000000E+00 0.0000E+00 0.9000E+01
       -1 -1    0    0    0  501 0.00000000E+00 0.00000000E+00 -.14347127E+02 0.14350695E+02 0.32000000E+00 0.0000E+00 0.9000E+01
       25  1    1    2    0    0 0.97542988E+02 -.10910550E+02 0.78889403E+03 0.80474372E+03 0.12500000E+03 0.0000E+00 0.9000E+01
       23  1    1    2    0    0 -.97542988E+02 0.10910550E+02 0.69207771E+03 0.70492587E+03 0.91188000E+02 0.0000E+00 0.9000E+01
#aMCatNLO 1  0  0  1  2 0.83598549D+01 0.00000000D+00  -5  5  0 0.00000000D+00 0.00000000D+00 0.00000000D+00 0.00000000D+00 0.00000000D+00
  <mgrwgt>
 0.3238285125D+00   11    2    0
 0.146479517918432D+03 0.000000000000000D+00 0.000000000000000D+00 0.146479517918432D+03
 0.146479517918432D+03 0.000000000000000D+00 0.000000000000000D+00 -.146479517918432D+03
 0.158955235957166D+03 0.975429881140390D+02 -.109105504104165D+02 -.284471399695723D+01
 0.134003799879698D+03 -.975429881140390D+02 0.109105504104165D+02 0.284471399695723D+01
 0.000000000000000D+00 -.000000000000000D+00 -.000000000000000D+00 0.000000000000000D+00
 0.155309744396101D+03 0.000000000000000D+00 0.000000000000000D+00 0.155309744396101D+03
 0.148531231377899D+03 0.000000000000000D+00 0.000000000000000D+00 -.148531231377899D+03
 0.159974380324183D+03 0.995591867455130D+02 -.683215170747222D+01 -.284471399695723D+01
 0.133103909306336D+03 -.958543954897593D+02 0.143262624643568D+02 0.284471399695723D+01
 0.107626861434816D+02 -.370479125575369D+01 -.749411075688460D+01 0.677851301820151D+01
0.265517463507D-03 0.000000000000D+00 0.000000000000D+00 0.175899344812D-02 0.000000000000D+00  5 1 -1 25 23 21 0 0.23004933D+00 0.22075275D-02 0.21448098D+05 0.21448098D+05 0.21448098D+05 0.12304977D+01  1  2  2  1  5  1        1 0.112148060206D+00 0.100000000000D+01
-.147509695474D-04 0.000000000000D+00 -.101965697222D-05 0.175899344812D-02 0.000000000000D+00  5 1 -1 25 23 21 2 0.23004933D+00 0.22075275D-02 0.21448098D+05 0.21448098D+05 0.21448098D+05 0.12304977D+01  1  2  3  1  5  1        1 -.943367447415D-02 0.100000000000D+01
0.183964938073D-04 0.000000000000D+00 0.000000000000D+00 0.175899344812D-02 0.000000000000D+00  5 1 -1 25 23 21 2 0.23004933D+00 0.22075275D-02 0.21448098D+05 0.21448098D+05 0.21448098D+05 0.12304977D+01  1  2 15  1  5  1        1 0.117650933714D-01 0.100000000000D+01
0.117735513105D-02 0.000000000000D+00 0.000000000000D+00 0.175899344812D-02 0.000000000000D+00  5 1 -1 25 23 21 2 0.24546563D+00 0.22075275D-02 0.22707845D+05 0.22707845D+05 0.22707845D+05 0.12278008D+01  1  2 12  1  5  1        1 0.646026681992D+00 0.100000000000D+01
-.118958275361D-02 0.000000000000D+00 0.000000000000D+00 0.175899344812D-02 0.000000000000D+00  5 1 -1 25 23 21 2 0.23004933D+00 0.22075275D-02 0.21448098D+05 0.21448098D+05 0.21448098D+05 0.12304977D+01  1  2  4  1  5  1        1 -.760772803545D+00 0.100000000000D+01
-.360848325533D-02 0.000000000000D+00 -.488992439093D-03 0.175899344812D-02 0.000000000000D+00  5 1 -1 25 23 21 2 0.24547222D+00 0.22075275D-02 0.21448098D+05 0.21448098D+05 0.21448098D+05 0.12304977D+01  1  2  5  1  5  1        1 -.198754246236D+01 0.100000000000D+01
0.363358898917D-02 0.000000000000D+00 0.487964739299D-03 0.175899344812D-02 0.000000000000D+00  5 1 -1 25 23 21 2 0.23004933D+00 0.22075275D-02 0.21448098D+05 0.21448098D+05 0.21448098D+05 0.12304977D+01  1  2  6  1  5  1        1 0.232378594414D+01 0.100000000000D+01
0.267324654525D-05 0.000000000000D+00 0.000000000000D+00 0.175899344812D-02 0.202716047996D-03  5 1 -1 25 23 21 2 0.24391740D+00 0.22384479D-02 0.22707845D+05 0.22707845D+05 0.22707845D+05 0.12278008D+01  1  2 11  1  5  1        1 0.145920785584D-02 0.100000000000D+01
0.154434099710D-04 0.000000000000D+00 0.000000000000D+00 0.175899344812D-02 0.000000000000D+00  5 21 -1 25 23 -1 2 0.24546563D+00 0.22075275D-02 0.22707845D+05 0.22707845D+05 0.22707845D+05 0.12278008D+01  1  2 12  3  5  1        1 0.874864967601D-02 0.100000000000D+01
-.392229256663D-04 0.000000000000D+00 -.541151884381D-05 0.175899344812D-02 0.000000000000D+00  5 21 -1 25 23 -1 2 0.24547222D+00 0.22075275D-02 0.21448098D+05 0.21448098D+05 0.21448098D+05 0.12304977D+01  1  2  5  3  5  1        1 -.223733823318D-01 0.100000000000D+01
0.303403112444D-07 0.000000000000D+00 0.000000000000D+00 0.175899344812D-02 0.206207991771D-05  5 21 -1 25 23 -1 2 0.24391740D+00 0.22384479D-02 0.22707845D+05 0.22707845D+05 0.22707845D+05 0.12278008D+01  1  2 11  3  5  1        1 0.171980032930D-04 0.100000000000D+01
  </mgrwgt>
  </event>
  <event>
  4     66 0.49155423E-03 0.78978189E+02 0.75467711E-02 0.11508596E+00
        1 -1    0    0  501    0 0.00000000E+00 0.00000000E+00 0.14314734E+03 0.14314770E+03 0.32000000E+00 0.0000E+00 0.9000E+01
       -1 -1    0    0    0  501 0.00000000E+00 0.00000000E+00 -.15285849E+03 0.15285882E+03 0.32000000E+00 0.0000E+00 0.9000E+01
       25  1    1    2    0    0 -.85981041E+02 0.38192847E+02 0.29577899E+02 0.15922087E+03 0.12500000E+03 0.0000E+00 0.9000E+01
       23  1    1    2    0    0 0.85981041E+02 -.38192847E+02 -.39289048E+02 0.13678565E+03 0.91188000E+02 0.0000E+00 0.9000E+01
#aMCatNLO 1  0  0  2  1 0.94653524D+02 0.00000000D+00  -5  5  0 0.00000000D+00 0.00000000D+00 0.00000000D+00 0.00000000D+00 0.00000000D+00
  <mgrwgt>
 0.1418456111D+00    9    2    0
 0.147923588119325D+03 0.000000000000000D+00 0.000000000000000D+00 0.147923588119325D+03
 0.147923588119325D+03 0.000000000000000D+00 0.000000000000000D+00 -.147923588119325D+03
 0.160277514813733D+03 -.859810406248783D+02 0.381928472338688D+02 0.348202358995437D+02
 0.135569661424916D+03 0.859810406248783D+02 -.381928472338688D+02 -.348202358995437D+02
 0.000000000000000D+00 -.000000000000000D+00 -.000000000000000D+00 -.000000000000000D+00
 0.188828977199887D+03 0.000000000000000D+00 0.000000000000000D+00 0.188828977199887D+03
 0.222132653126756D+03 0.000000000000000D+00 0.000000000000000D+00 -.222132653126756D+03
 0.160996352634697D+03 -.551408620374391D+02 0.777294157146687D+02 0.348202358995437D+02
 0.149623738900308D+03 0.113357731632592D+03 -.309640913331171D+01 -.348202358995437D+02
 0.100341538791638D+03 -.582168695951532D+02 -.746330065813570D+02 -.333036759268692D+02
0.376962750621D-03 0.000000000000D+00 0.000000000000D+00 0.166649243895D-02 0.000000000000D+00  5 1 -1 25 23 21 0 0.22022721D-01 0.23516744D-01 0.20659916D+05 0.20659916D+05 0.20659916D+05 0.12322769D+01  1  2  2  2  5  2       -1 0.126632998180D+00 0.100000000000D+01
-.209213715312D-04 0.000000000000D+00 -.144763621896D-05 0.166649243895D-02 0.000000000000D+00  5 1 -1 25 23 21 2 0.22022721D-01 0.23516744D-01 0.20659916D+05 0.20659916D+05 0.20659916D+05 0.12322769D+01  1  2  3  2  5  2       -1 -.106722315824D-01 0.100000000000D+01
0.260273960361D-04 0.000000000000D+00 0.000000000000D+00 0.166649243895D-02 0.000000000000D+00  5 1 -1 25 23 21 2 0.22022721D-01 0.23516744D-01 0.20659916D+05 0.20659916D+05 0.20659916D+05 0.12322769D+01  1  2 15  2  5  2       -1 0.132768732475D-01 0.100000000000D+01
0.419686049690D-04 0.000000000000D+00 0.000000000000D+00 0.166649243895D-02 0.000000000000D+00  5 1 -1 25 23 21 2 0.22022721D-01 0.37247856D-01 0.39472751D+05 0.39472751D+05 0.39472751D+05 0.12025859D+01  1  2 12  2  5  2       -1 0.949991721212D-02 0.100000000000D+01
-.142654149372D-03 0.000000000000D+00 0.000000000000D+00 0.166649243895D-02 0.000000000000D+00  5 1 -1 25 23 21 2 0.22022721D-01 0.23516744D-01 0.20659916D+05 0.20659916D+05 0.20659916D+05 0.12322769D+01  1  2  4  2  5  2       -1 -.727695178113D-01 0.100000000000D+01
-.153587005775D-03 0.000000000000D+00 -.116630279899D-03 0.166649243895D-02 0.000000000000D+00  5 1 -1 25 23 21 2 0.22022721D-01 0.44164669D-01 0.20659916D+05 0.20659916D+05 0.20659916D+05 0.12322769D+01  1  2  5  2  5  2       -1 -.268000121665D-01 0.100000000000D+01
0.204896361436D-03 0.000000000000D+00 0.967690104546D-04 0.166649243895D-02 0.000000000000D+00  5 1 -1 25 23 21 2 0.22022721D-01 0.23516744D-01 0.20659916D+05 0.20659916D+05 0.20659916D+05 0.12322769D+01  1  2  6  2  5  2       -1 0.104519984092D+00 0.100000000000D+01
0.221726925775D-05 0.000000000000D+00 0.000000000000D+00 0.166649243895D-02 0.000000000000D+00  5 1 21 25 23 1 2 0.22022721D-01 0.37247856D-01 0.39472751D+05 0.39472751D+05 0.39472751D+05 0.12025859D+01  1  2 12  4  5  2       -1 0.540945857642D-02 0.100000000000D+01
-.396403640317D-05 0.000000000000D+00 -.799899555458D-05 0.166649243895D-02 0.000000000000D+00  5 1 21 25 23 1 2 0.22022721D-01 0.44164669D-01 0.20659916D+05 0.20659916D+05 0.20659916D+05 0.12322769D+01  1  2  5  4  5  2       -1 -.725185869796D-02 0.100000000000D+01
  </mgrwgt>
  </event>
  <event>
  4     66 0.49155423E-03 0.92411257E+02 0.75467711E-02 0.12386450E+00
        1 -1    0    0  501    0 0.00000000E+00 0.00000000E+00 0.75530295E+02 0.75530973E+02 0.32000000E+00 0.0000E+00 0.9000E+01
       -1 -1    0    0    0  501 0.00000000E+00 0.00000000E+00 -.17337019E+03 0.17337048E+03 0.32000000E+00 0.0000E+00 0.9000E+01
       25  1    1    2    0    0 0.23456309E+02 -.17495236E+02 -.80628729E+02 0.15159906E+03 0.12500000E+03 0.0000E+00 0.9000E+01
       23  1    1    2    0    0 -.23456309E+02 0.17495236E+02 -.17211163E+02 0.97302401E+02 0.91188000E+02 0.0000E+00 0.9000E+01
#aMCatNLO 1  0  0  1  2 0.20435132D+02 0.00000000D+00  -5  5  0 0.00000000D+00 0.00000000D+00 0.00000000D+00 0.00000000D+00 0.00000000D+00
  <mgrwgt>
 0.1168959201D+00    9    2    0
 0.114432611763586D+03 0.000000000000000D+00 0.000000000000000D+00 0.114432611763586D+03
 0.114432611763586D+03 0.000000000000000D+00 0.000000000000000D+00 -.114432611763586D+03
 0.130402160442379D+03 0.234563092718205D+02 -.174952358398495D+02 -.228788488847835D+02
 0.984630630847934D+02 -.234563092718205D+02 0.174952358398495D+02 0.228788488847835D+02
 0.000000000000000D+00 -.000000000000000D+00 0.000000000000000D+00 0.000000000000000D+00
 0.126953242367110D+03 0.000000000000000D+00 0.000000000000000D+00 0.126953242367110D+03
 0.123540610150251D+03 0.000000000000000D+00 0.000000000000000D+00 -.123540610150251D+03
 0.133425921140568D+03 0.344883396673964D+02 -.215543297947922D+02 -.228788488847835D+02
 0.963498068336468D+02 -.153101654288501D+02 0.144979667929518D+02 0.228788488847835D+02
 0.207181245431464D+02 -.191781742385463D+02 0.705636300184041D+01 0.341263221685898D+01
0.122980594417D-03 0.000000000000D+00 0.000000000000D+00 0.221152930867D-02 0.000000000000D+00  5 1 -1 25 23 21 0 0.11620120D-01 0.26672411D-01 0.12560533D+05 0.12560533D+05 0.12560533D+05 0.12567070D+01  1  2  2  1  5  1        1 0.753096691097D-01 0.100000000000D+01
-.682865137691D-05 0.000000000000D+00 -.472277864096D-06 0.221152930867D-02 0.000000000000D+00  5 1 -1 25 23 21 2 0.11620120D-01 0.26672411D-01 0.12560533D+05 0.12560533D+05 0.12560533D+05 0.12567070D+01  1  2  3  1  5  1        1 -.660415401802D-02 0.100000000000D+01
0.850960668786D-05 0.000000000000D+00 0.000000000000D+00 0.221152930867D-02 0.000000000000D+00  5 1 -1 25 23 21 2 0.11620120D-01 0.26672411D-01 0.12560533D+05 0.12560533D+05 0.12560533D+05 0.12567070D+01  1  2 15  1  5  1        1 0.822984658280D-02 0.100000000000D+01
0.159227530753D-03 0.000000000000D+00 0.000000000000D+00 0.221152930867D-02 0.000000000000D+00  5 1 -1 25 23 21 2 0.13310627D-01 0.26672411D-01 0.15064974D+05 0.15064974D+05 0.15064974D+05 0.12476086D+01  1  2 12  1  5  1        1 0.127964531338D+00 0.100000000000D+01
-.139999193725D-03 0.000000000000D+00 0.000000000000D+00 0.221152930867D-02 0.000000000000D+00  5 1 -1 25 23 21 2 0.11620120D-01 0.26672411D-01 0.12560533D+05 0.12560533D+05 0.12560533D+05 0.12567070D+01  1  2  4  1  5  1        1 -.135396608602D+00 0.100000000000D+01
-.439564107400D-03 0.000000000000D+00 -.113442906845D-03 0.221152930867D-02 0.000000000000D+00  5 1 -1 25 23 21 2 0.13887125D-01 0.26672411D-01 0.12560533D+05 0.12560533D+05 0.12560533D+05 0.12567070D+01  1  2  5  1  5  1        1 -.337182914727D+00 0.100000000000D+01
0.454325829193D-03 0.000000000000D+00 0.111664758822D-03 0.221152930867D-02 0.000000000000D+00  5 1 -1 25 23 21 2 0.11620120D-01 0.26672411D-01 0.12560533D+05 0.12560533D+05 0.12560533D+05 0.12567070D+01  1  2  6  1  5  1        1 0.439389505298D+00 0.100000000000D+01
0.334928364879D-05 0.000000000000D+00 0.000000000000D+00 0.221152930867D-02 0.000000000000D+00  5 21 -1 25 23 -1 2 0.13310627D-01 0.26672411D-01 0.15064974D+05 0.15064974D+05 0.15064974D+05 0.12476086D+01  1  2 12  3  5  1        1 0.285369294117D-01 0.100000000000D+01
-.104339587298D-04 0.000000000000D+00 -.296878481240D-05 0.221152930867D-02 0.000000000000D+00  5 21 -1 25 23 -1 2 0.13887125D-01 0.26672411D-01 0.12560533D+05 0.12560533D+05 0.12560533D+05 0.12567070D+01  1  2  5  3  5  1        1 -.833508842684D-01 0.100000000000D+01
  </mgrwgt>
  </event>
  <event>
  5     66 0.49155423E-03 0.11350184E+03 0.75467711E-02 0.12365765E+00
       21 -1    0    0  501  502 0.00000000E+00 0.00000000E+00 0.52000112E+02 0.52005520E+02 0.75000000E+00 0.0000E+00 0.9000E+01
       -1 -1    0    0    0  501 0.00000000E+00 0.00000000E+00 -.31898366E+03 0.31898382E+03 0.32000000E+00 0.0000E+00 0.9000E+01
       25  1    1    2    0    0 -.38829283E+01 -.28971912E+02 -.10044401E+03 0.16299831E+03 0.12500000E+03 0.0000E+00 0.9000E+01
       23  1    1    2    0    0 -.14564089E+02 0.37141903E+02 -.11198733E+03 0.14982672E+03 0.91188000E+02 0.0000E+00 0.9000E+01
       -1  1    1    2    0  502 0.18447017E+02 -.81699911E+01 -.54552210E+02 0.58164313E+02 0.32000000E+00 0.0000E+00 0.9000E+01
#aMCatNLO 2  0  0  1  1 0.20175262D+02 0.00000000D+00  -5  5  0 0.00000000D+00 0.00000000D+00 0.00000000D+00 0.00000000D+00 0.00000000D+00
  <mgrwgt>
 0.3166077722D-01    1    2    0
 0.114373711833308D+03 0.000000000000000D+00 0.000000000000000D+00 0.114373711833308D+03
 0.114373711833308D+03 0.000000000000000D+00 0.000000000000000D+00 -.114373711833308D+03
 0.130351484476233D+03 0.655950707345237D+01 -.335967574649318D+02 0.139549367592044D+02
 0.983959391903828D+02 -.655950707345237D+01 0.335967574649318D+02 -.139549367592044D+02
 0.000000000000000D+00 0.000000000000000D+00 -.000000000000000D+00 -.000000000000000D+00
 0.118947909866317D+03 0.000000000000000D+00 0.000000000000000D+00 0.118947909866317D+03
 0.139455807503336D+03 0.000000000000000D+00 0.000000000000000D+00 -.139455807503336D+03
 0.129128575772412D+03 -.388292825738560D+01 -.289719120736979D+02 0.139549367592044D+02
 0.100506841873899D+03 -.145640891072213D+02 0.371419031282528D+02 -.139549367592044D+02
 0.287682997233425D+02 0.184470173646069D+02 -.816999105455487D+01 -.205078976370190D+02
0.436579958808D-05 0.000000000000D+00 0.000000000000D+00 0.225462446853D-02 0.371139255661D-06  5 21 -1 25 23 -1 2 0.80003872D-02 0.49074479D-01 0.15386034D+05 0.15386034D+05 0.15386034D+05 0.12465664D+01  1  2  1  3  5  1        1 0.316607772218D-01 0.100000000000D+01
  </mgrwgt>
  </event>
  <event>
  5     66 0.49155423E-03 0.11454062E+03 0.75467711E-02 0.12281455E+00
       21 -1    0    0  501  502 0.00000000E+00 0.00000000E+00 0.10930993E+03 0.10931250E+03 0.75000000E+00 0.0000E+00 0.9000E+01
       -3 -1    0    0    0  501 0.00000000E+00 0.00000000E+00 -.16879301E+03 0.16879375E+03 0.50000000E+00 0.0000E+00 0.9000E+01
       25  1    1    2    0    0 -.44205348E+02 -.21496398E+01 -.59032311E+02 0.14515009E+03 0.12500000E+03 0.0000E+00 0.9000E+01
       23  1    1    2    0    0 0.26969064E+02 0.24544353E+02 -.17775751E+02 0.99804731E+02 0.91188000E+02 0.0000E+00 0.9000E+01
       -3  1    1    2    0  502 0.17236284E+02 -.22394713E+02 0.17324977E+02 0.33151433E+02 0.50000000E+00 0.0000E+00 0.9000E+01
#aMCatNLO 2  0  0  1  2 0.28259736D+02 0.00000000D+00  -5  5  0 0.00000000D+00 0.00000000D+00 0.00000000D+00 0.00000000D+00 0.00000000D+00
  <mgrwgt>
 0.4480706635D-02    2    2    0
 0.115439130398310D+03 0.000000000000000D+00 0.000000000000000D+00 0.115439130398310D+03
 0.115439130398310D+03 0.000000000000000D+00 0.000000000000000D+00 -.115439130398310D+03
 0.131269439910298D+03 -.343638626996590D+02 -.149364582200881D+02 -.142370295554186D+02
 0.996088208863217D+02 0.343638626996590D+02 0.149364582200881D+02 0.142370295554186D+02
 0.000000000000000D+00 0.000000000000000D+00 -.000000000000000D+00 0.000000000000000D+00
 0.151211425740105D+03 0.000000000000000D+00 0.000000000000000D+00 0.151211425740105D+03
 0.122019629478796D+03 0.000000000000000D+00 0.000000000000000D+00 -.122019629478796D+03
 0.133365762948195D+03 -.442053476982719D+02 -.214963975291147D+01 -.142370295554186D+02
 0.992355783848952D+02 0.269690635521990D+02 0.245443531986539D+02 0.142370295554186D+02
 0.406297138858102D+02 0.172362841460728D+02 -.223947134457424D+02 0.291917962613081D+02
-.980326184990D-05 0.000000000000D+00 0.000000000000D+00 0.222658395806D-02 0.000000000000D+00  5 21 -3 25 23 -3 2 0.17099040D-01 0.24567639D-01 0.16779628D+05 0.16779628D+05 0.16779628D+05 0.12423096D+01  1  2 13  3  5  1        3 -.347704950479D-01 0.100000000000D+01
0.118675124971D-04 0.000000000000D+00 0.000000000000D+00 0.222658395806D-02 0.920894275406D-06  5 21 -3 25 23 -3 2 0.16816961D-01 0.25968094D-01 0.16779628D+05 0.16779628D+05 0.16779628D+05 0.12423096D+01  1  2  1  3  5  1        3 0.392512016834D-01 0.100000000000D+01
  </mgrwgt>
  </event>
  <event>
  4     66 0.49155423E-03 0.11683295E+03 0.75467711E-02 0.12278900E+00
        1 -1    0    0  501    0 0.00000000E+00 0.00000000E+00 0.10867332E+04 0.10867332E+04 0.32000000E+00 0.0000E+00 0.9000E+01
       -1 -1    0    0    0  501 0.00000000E+00 0.00000000E+00 -.13437434E+02 0.13441244E+02 0.32000000E+00 0.0000E+00 0.9000E+01
       25  1    1    2    0    0 0.32263661E+02 0.29724112E+02 0.46430819E+03 0.48283699E+03 0.12500000E+03 0.0000E+00 0.9000E+01
       23  1    1    2    0    0 -.32263661E+02 -.29724112E+02 0.60898755E+03 0.61733747E+03 0.91188000E+02 0.0000E+00 0.9000E+01
#aMCatNLO 1  0  0  1  2 0.24464038D+02 0.00000000D+00  -5  5  0 0.00000000D+00 0.00000000D+00 0.00000000D+00 0.00000000D+00 0.00000000D+00
  <mgrwgt>
 0.1633550003D+00    4    2    0
 0.120851259579715D+03 0.000000000000000D+00 0.000000000000000D+00 0.120851259579715D+03
 0.120851259579715D+03 0.000000000000000D+00 0.000000000000000D+00 -.120851259579715D+03
 0.135972634155001D+03 0.322636608902069D+02 0.297241122980698D+02 -.306445847272114D+02
 0.105729885004429D+03 -.322636608902069D+02 -.297241122980698D+02 0.306445847272114D+02
 0.000000000000000D+00 0.000000000000000D+00 -.000000000000000D+00 -.000000000000000D+00
 0.123797643249404D+03 0.000000000000000D+00 0.000000000000000D+00 0.123797643249404D+03
 0.185713898557004D+03 0.000000000000000D+00 0.000000000000000D+00 -.185713898557004D+03
 0.136207509169368D+03 0.219578984013085D+02 0.388103810702515D+02 -.306445847272114D+02
 0.106729924973459D+03 -.403081872591243D+02 -.226315047581982D+02 0.306445847272114D+02
 0.665741076635802D+02 0.183502888578158D+02 -.161788763120533D+02 -.619162553076006D+02
0.201009172428D-03 0.000000000000D+00 0.000000000000D+00 0.202421763758D-02 0.000000000000D+00  5 1 -1 25 23 21 0 0.16719002D+00 0.20675942D-02 0.13649937D+05 0.13649937D+05 0.13649937D+05 0.12525193D+01  1  2  2  1  5  1        1 0.173936112952D+00 0.100000000000D+01
-.111516504224D-04 0.000000000000D+00 -.771928149054D-06 0.202421763758D-02 0.000000000000D+00  5 1 -1 25 23 21 2 0.16719002D+00 0.20675942D-02 0.13649937D+05 0.13649937D+05 0.13649937D+05 0.12525193D+01  1  2  3  1  5  1        1 -.151384665055D-01 0.100000000000D+01
0.139193367453D-04 0.000000000000D+00 0.000000000000D+00 0.202421763758D-02 0.000000000000D+00  5 1 -1 25 23 21 2 0.16719002D+00 0.20675942D-02 0.13649937D+05 0.13649937D+05 0.13649937D+05 0.12525193D+01  1  2 15  1  5  1        1 0.188956257699D-01 0.100000000000D+01
-.105621924232D-04 0.000000000000D+00 0.000000000000D+00 0.202421763758D-02 0.000000000000D+00  5 1 -1 25 23 21 2 0.16719002D+00 0.20675942D-02 0.13649937D+05 0.13649937D+05 0.13649937D+05 0.12525193D+01  1  2  4  1  5  1        1 -.143382719299D-01 0.100000000000D+01
  </mgrwgt>
  </event>
  <event>
  4     66 0.49155423E-03 0.92950542E+02 0.75467711E-02 0.12373324E+00
        1 -1    0    0  501    0 0.00000000E+00 0.00000000E+00 0.51698147E+03 0.51698157E+03 0.32000000E+00 0.0000E+00 0.9000E+01
       -1 -1    0    0    0  501 0.00000000E+00 0.00000000E+00 -.26688341E+02 0.26690260E+02 0.32000000E+00 0.0000E+00 0.9000E+01
       25  1    1    2    0    0 -.32960513E+02 -.30336336E+02 0.29600368E+03 0.32442236E+03 0.12500000E+03 0.0000E+00 0.9000E+01
       23  1    1    2    0    0 0.32960513E+02 0.30336336E+02 0.19428945E+03 0.21924947E+03 0.91188000E+02 0.0000E+00 0.9000E+01
#aMCatNLO 1  0  0  2  1 0.12413617D+02 0.00000000D+00  -5  5  0 0.00000000D+00 0.00000000D+00 0.00000000D+00 0.00000000D+00 0.00000000D+00
  <mgrwgt>
 0.1807271468D+00    6    2    0
 0.117464575037319D+03 0.000000000000000D+00 0.000000000000000D+00 0.117464575037319D+03
 0.117464575037319D+03 0.000000000000000D+00 0.000000000000000D+00 -.117464575037319D+03
 0.133021922121914D+03 -.329605129723291D+02 -.303363356954608D+02 0.794626240327521D+01
 0.101907227952724D+03 0.329605129723291D+02 0.303363356954608D+02 -.794626240327521D+01
 0.000000000000000D+00 -.000000000000000D+00 -.000000000000000D+00 0.000000000000000D+00
 0.124612205011865D+03 0.000000000000000D+00 0.000000000000000D+00 0.124612205011865D+03
 0.123144737007528D+03 0.000000000000000D+00 0.000000000000000D+00 -.123144737007528D+03
 0.131150905708506D+03 -.261633867702261D+02 -.287731502392653D+02 0.794626240327521D+01
 0.104105982476133D+03 0.382612011698458D+02 0.315553742202452D+02 -.794626240327521D+01
 0.125000538347536D+02 -.120978143996197D+02 -.278222398097987D+01 0.146746800433701D+01
0.982972377605D-04 0.000000000000D+00 0.000000000000D+00 0.219451121182D-02 0.000000000000D+00  5 1 -1 25 23 21 0 0.79535766D-01 0.41060539D-02 0.13733651D+05 0.13733651D+05 0.13733651D+05 0.12522132D+01  1  2  2  2  5  2       -1 0.946778007191D-01 0.100000000000D+01
-.546092146365D-05 0.000000000000D+00 -.377487275257D-06 0.219451121182D-02 0.000000000000D+00  5 1 -1 25 23 21 2 0.79535766D-01 0.41060539D-02 0.13733651D+05 0.13733651D+05 0.13733651D+05 0.12522132D+01  1  2  3  2  5  2       -1 -.824763261800D-02 0.100000000000D+01
0.681513225430D-05 0.000000000000D+00 0.000000000000D+00 0.219451121182D-02 0.000000000000D+00  5 1 -1 25 23 21 2 0.79535766D-01 0.41060539D-02 0.13733651D+05 0.13733651D+05 0.13733651D+05 0.12522132D+01  1  2 15  2  5  2       -1 0.102928979021D-01 0.100000000000D+01
0.142646076240D-03 0.000000000000D+00 0.000000000000D+00 0.219451121182D-02 0.000000000000D+00  5 1 -1 25 23 21 2 0.79535766D-01 0.44229764D-02 0.15267796D+05 0.15267796D+05 0.15267796D+05 0.12469474D+01  1  2 12  2  5  2       -1 0.192275558228D+00 0.100000000000D+01
-.100325437601D-03 0.000000000000D+00 0.000000000000D+00 0.219451121182D-02 0.000000000000D+00  5 1 -1 25 23 21 2 0.79535766D-01 0.41060539D-02 0.13733651D+05 0.13733651D+05 0.13733651D+05 0.12522132D+01  1  2  4  2  5  2       -1 -.151521562264D+00 0.100000000000D+01
0.178480150906D-05 0.000000000000D+00 0.000000000000D+00 0.219451121182D-02 0.000000000000D+00  5 1 21 25 23 1 2 0.79535766D-01 0.44229764D-02 0.15267796D+05 0.15267796D+05 0.15267796D+05 0.12469474D+01  1  2 12  4  5  2       -1 0.432500848070D-01 0.100000000000D+01
  </mgrwgt>
  </event>
  <event>
  5     66 0.49155423E-03 0.12684185E+03 0.75467711E-02 0.11798363E+00
        1 -1    0    0  501    0 0.00000000E+00 0.00000000E+00 0.50250103E+03 0.50250113E+03 0.32000000E+00 0.0000E+00 0.9000E+01
       21 -1    0    0  502  501 0.00000000E+00 0.00000000E+00 -.65509217E+02 0.65513510E+02 0.75000000E+00 0.0000E+00 0.9000E+01
       25  1    1    2    0    0 -.41314732E+01 -.67019531E+02 0.21427555E+03 0.25699747E+03 0.12500000E+03 0.0000E+00 0.9000E+01
       23  1    1    2    0    0 0.70908862E+02 0.39247593E+02 0.66673465E+02 0.13902893E+03 0.91188000E+02 0.0000E+00 0.9000E+01
        1  1    1    2  502    0 -.66777389E+02 0.27771938E+02 0.15604280E+03 0.17198825E+03 0.32000000E+00 0.0000E+00 0.9000E+01
#aMCatNLO 2  0  0  2  1 0.72322197D+02 0.00000000D+00  -5  5  0 0.00000000D+00 0.00000000D+00 0.00000000D+00 0.00000000D+00 0.00000000D+00
  <mgrwgt>
 0.3786458762D-01    1    2    0
 0.134790629609801D+03 0.000000000000000D+00 0.000000000000000D+00 0.134790629609801D+03
 0.134790629609801D+03 0.000000000000000D+00 0.000000000000000D+00 -.134790629609801D+03
 0.148348227562197D+03 -.403147356801156D+02 -.519713333090797D+02 0.453420248992524D+02
 0.121233031657405D+03 0.403147356801156D+02 0.519713333090797D+02 -.453420248992524D+02
 0.000000000000000D+00 -.000000000000000D+00 0.000000000000000D+00 0.000000000000000D+00
 0.207179431625073D+03 0.000000000000000D+00 0.000000000000000D+00 0.207179431625073D+03
 0.158894069018495D+03 0.000000000000000D+00 0.000000000000000D+00 -.158894069018495D+03
 0.148961692301991D+03 -.413147323991618D+01 -.670195305890492D+02 0.453420248992524D+02
 0.130152183182791D+03 0.709088618576201D+02 0.392475926820908D+02 -.453420248992524D+02
 0.869596251587860D+02 -.667773886177039D+02 0.277719379069584D+02 0.482853626065784D+02
0.642988959199D-05 0.000000000000D+00 0.000000000000D+00 0.172379678728D-02 0.104484300552D-06  5 1 21 25 23 1 2 0.77308055D-01 0.10078662D-01 0.28259990D+05 0.28259990D+05 0.28259990D+05 0.12176313D+01  1  2  1  4  5  2       -1 0.378645876197D-01 0.100000000000D+01
  </mgrwgt>
  </event>
  <event>
  5     66 0.49155423E-03 0.10849484E+03 0.75467711E-02 0.10897576E+00
        1 -1    0    0  501    0 0.00000000E+00 0.00000000E+00 0.83086343E+03 0.83086349E+03 0.32000000E+00 0.0000E+00 0.9000E+01
       21 -1    0    0  502  501 0.00000000E+00 0.00000000E+00 -.10447404E+03 0.10447673E+03 0.75000000E+00 0.0000E+00 0.9000E+01
       25  1    1    2    0    0 -.49529349E+02 0.14349878E+03 0.18222024E+03 0.26809377E+03 0.12500000E+03 0.0000E+00 0.9000E+01
       23  1    1    2    0    0 -.43648364E+02 0.89288932E+02 0.20685450E+03 0.24694479E+03 0.91188000E+02 0.0000E+00 0.9000E+01
        1  1    1    2  502    0 0.93177713E+02 -.23278771E+03 0.33731466E+03 0.42030166E+03 0.32000000E+00 0.0000E+00 0.9000E+01
#aMCatNLO 2  0  0  2  2 0.25074330D+03 0.00000000D+00  -5  5  0 0.00000000D+00 0.00000000D+00 0.00000000D+00 0.00000000D+00 0.00000000D+00
  <mgrwgt>
 0.2856947833D-01    1    2    0
 0.112930690160502D+03 0.000000000000000D+00 0.000000000000000D+00 0.112930690160502D+03
 0.112930690160502D+03 0.000000000000000D+00 0.000000000000000D+00 -.112930690160502D+03
 0.129112625836294D+03 0.475433820818001D+01 0.788077766307364D+01 -.309896718596734D+02
 0.967487544847105D+02 -.475433820818001D+01 -.788077766307364D+01 0.309896718596734D+02
 0.000000000000000D+00 0.000000000000000D+00 -.000000000000000D+00 0.000000000000000D+00
 0.310128518067424D+03 0.000000000000000D+00 0.000000000000000D+00 0.310128518067424D+03
 0.279899715071498D+03 0.000000000000000D+00 0.000000000000000D+00 -.279899715071498D+03
 0.199073895512762D+03 -.495293490383148D+02 0.143498779425111D+03 -.309896718596734D+02
 0.138395462836754D+03 -.436483643809490D+02 0.892889316471926D+02 0.309896718596734D+02
 0.252558874789406D+03 0.931777134192637D+02 -.232787711072303D+03 0.302288029959266D+02
0.254658267766D-04 0.000000000000D+00 0.000000000000D+00 0.219265121709D-02 0.146957499337D-06  5 1 21 25 23 1 2 0.12782531D+00 0.16073135D-01 0.84760043D+05 0.84760043D+05 0.84760043D+05 0.11702264D+01  1  2  1  4  5  2       -1 0.285694783330D-01 0.100000000000D+01
  </mgrwgt>
  </event>
  <event>
  4     66 0.49155423E-03 0.12267523E+03 0.75467711E-02 0.11168685E+00
        1 -1    0    0  501    0 0.00000000E+00 0.00000000E+00 0.57356028E+03 0.57356037E+03 0.32000000E+00 0.0000E+00 0.9000E+01
       -1 -1    0    0    0  501 0.00000000E+00 0.00000000E+00 -.30881334E+02 0.30882992E+02 0.32000000E+00 0.0000E+00 0.9000E+01
       25  1    1    2    0    0 0.15200757E+02 0.55406957E+02 0.18287269E+03 0.22884147E+03 0.12500000E+03 0.0000E+00 0.9000E+01
       23  1    1    2    0    0 -.15200757E+02 -.55406957E+02 0.35980625E+03 0.37560189E+03 0.91188000E+02 0.0000E+00 0.9000E+01
#aMCatNLO 1  0  0  1  1 0.18379631D+03 0.00000000D+00  -5  5  0 0.00000000D+00 0.00000000D+00 0.00000000D+00 0.00000000D+00 0.00000000D+00
  <mgrwgt>
 0.1821267472D+00    3    2    0
 0.133089572814740D+03 0.000000000000000D+00 0.000000000000000D+00 0.133089572814740D+03
 0.133089572814740D+03 0.000000000000000D+00 0.000000000000000D+00 -.133089572814740D+03
 0.146820454395852D+03 0.152007567645816D+02 0.554069566593426D+02 -.512859822616101D+02
 0.119358691233627D+03 -.152007567645816D+02 -.554069566593426D+02 0.512859822616101D+02
 0.000000000000000D+00 -.000000000000000D+00 -.000000000000000D+00 -.000000000000000D+00
 0.186836396698713D+03 0.000000000000000D+00 0.000000000000000D+00 0.186836396698713D+03
 0.498176548832939D+03 0.000000000000000D+00 0.000000000000000D+00 -.498176548832939D+03
 0.207341358355622D+03 0.109367187856536D+03 0.113022144416789D+03 -.512859822616101D+02
 0.116127990416379D+03 0.474116977188417D+02 -.170978875018390D+02 0.512859822616101D+02
 0.361543596759652D+03 -.156778885575378D+03 -.959242569149497D+02 -.311340152134226D+03
0.262208341220D-03 0.000000000000D+00 0.000000000000D+00 0.169287109603D-02 0.000000000000D+00  5 1 -1 25 23 21 0 0.88240177D-01 0.47511088D-02 0.15049212D+05 0.15049212D+05 0.15049212D+05 0.12476604D+01  1  2  2  1  5  1        1 0.178234550397D+00 0.100000000000D+01
-.144495380312D-04 0.000000000000D+00 -.100694907133D-05 0.169287109603D-02 0.000000000000D+00  5 1 -1 25 23 21 2 0.88240177D-01 0.47511088D-02 0.15049212D+05 0.15049212D+05 0.15049212D+05 0.12476604D+01  1  2  3  1  5  1        1 -.152894595744D-01 0.100000000000D+01
0.181279182792D-04 0.000000000000D+00 0.000000000000D+00 0.169287109603D-02 0.000000000000D+00  5 1 -1 25 23 21 2 0.88240177D-01 0.47511088D-02 0.15049212D+05 0.15049212D+05 0.15049212D+05 0.12476604D+01  1  2 15  1  5  1        1 0.191816564031D-01 0.100000000000D+01
  </mgrwgt>
  </event>
  <event>
  4     66 -.49155423E-03 0.71623864E+02 0.75467711E-02 0.12340036E+00
        1 -1    0    0  501    0 0.00000000E+00 0.00000000E+00 0.26833183E+04 0.26833183E+04 0.32000000E+00 0.0000E+00 0.9000E+01
       -1 -1    0    0    0  501 0.00000000E+00 0.00000000E+00 -.91803962E+01 0.91859716E+01 0.32000000E+00 0.0000E+00 0.9000E+01
       25  1    1    2    0    0 -.42734152E+02 0.42815594E+02 0.61598207E+03 0.63144144E+03 0.12500000E+03 0.0000E+00 0.9000E+01
       23  1    1    2    0    0 0.42734152E+02 -.42815594E+02 0.20581558E+04 0.20610628E+04 0.91188000E+02 0.0000E+00 0.9000E+01
#aMCatNLO 1  0  0  2  1 0.30284489D+01 0.00000000D+00  -5  5  0 0.00000000D+00 0.00000000D+00 0.00000000D+00 0.00000000D+00 0.00000000D+00
  <mgrwgt>
 -.1569033772D+00   11    2    0
 0.156975974268881D+03 0.000000000000000D+00 0.000000000000000D+00 0.156975974268881D+03
 0.156975974268881D+03 0.000000000000000D+00 0.000000000000000D+00 -.156975974268881D+03
 0.168617482929753D+03 -.427341516208770D+02 0.428155939453687D+02 -.956424212884371D+02
 0.145334465608010D+03 0.427341516208770D+02 -.428155939453687D+02 0.956424212884371D+02
 0.000000000000000D+00 0.000000000000000D+00 0.000000000000000D+00 -.000000000000000D+00
 0.158281472469127D+03 0.000000000000000D+00 0.000000000000000D+00 0.158281472469127D+03
 0.158749480074311D+03 0.000000000000000D+00 0.000000000000000D+00 -.158749480074311D+03
 0.168404737240779D+03 -.433651625906969D+02 0.413176166871138D+02 -.956424212884371D+02
 0.145561817496275D+03 0.421895028270208D+02 -.441085532534541D+02 0.956424212884371D+02
 0.306439780638419D+01 0.117565976367603D+01 0.279093656634033D+01 -.468007605183832D+00
0.533332284184D-03 0.000000000000D+00 0.000000000000D+00 0.115108181961D-02 0.000000000000D+00  5 1 -1 25 23 21 0 0.41281863D+00 0.14127990D-02 0.15412837D+05 0.15412837D+05 0.15412837D+05 0.12464805D+01  1  2  2  2  5  2       -1 0.737046773557D-01 0.100000000000D+01
-.276465948954D-04 0.000000000000D+00 -.204813640088D-05 0.115108181961D-02 0.000000000000D+00  5 1 -1 25 23 21 2 0.41281863D+00 0.14127990D-02 0.15412837D+05 0.15412837D+05 0.15412837D+05 0.12464805D+01  1  2  3  2  5  2       -1 -.593621792331D-02 0.100000000000D+01
0.364382735428D-04 0.000000000000D+00 0.000000000000D+00 0.115108181961D-02 0.000000000000D+00  5 1 -1 25 23 21 2 0.41281863D+00 0.14127990D-02 0.15412837D+05 0.15412837D+05 0.15412837D+05 0.12464805D+01  1  2 15  2  5  2       -1 0.782394842177D-02 0.100000000000D+01
0.402915389563D-05 0.000000000000D+00 0.000000000000D+00 0.115108181961D-02 0.000000000000D+00  5 1 -1 25 23 21 2 0.41281863D+00 0.14345780D-02 0.15796558D+05 0.15796558D+05 0.15796558D+05 0.12452689D+01  1  2 12  2  5  2       -1 0.844587238518D-03 0.100000000000D+01
-.361727361003D-02 0.000000000000D+00 0.000000000000D+00 0.115108181961D-02 0.000000000000D+00  5 1 -1 25 23 21 2 0.41281863D+00 0.14127990D-02 0.15412837D+05 0.15412837D+05 0.15412837D+05 0.12464805D+01  1  2  4  2  5  2       -1 -.776693278815D+00 0.100000000000D+01
-.222901035083D-01 0.000000000000D+00 -.293375210650D-02 0.115108181961D-02 0.000000000000D+00  5 1 -1 25 23 21 2 0.41281863D+00 0.14450489D-02 0.15412837D+05 0.15412837D+05 0.15412837D+05 0.12464805D+01  1  2  5  2  5  2       -1 -.463404702036D+01 0.100000000000D+01
0.223513729396D-01 0.000000000000D+00 0.293300501100D-02 0.115108181961D-02 0.000000000000D+00  5 1 -1 25 23 21 2 0.41281863D+00 0.14127990D-02 0.15412837D+05 0.15412837D+05 0.15412837D+05 0.12464805D+01  1  2  6  2  5  2       -1 0.479923915248D+01 0.100000000000D+01
0.361435218900D-02 0.000000000000D+00 0.000000000000D+00 0.115108181961D-02 0.103811990356D-02  5 1 -1 25 23 21 2 0.41625185D+00 0.14287607D-02 0.15796558D+05 0.15796558D+05 0.15796558D+05 0.12452689D+01  1  2 11  2  5  2       -1 0.736559837208D+00 0.100000000000D+01
0.208100592669D-06 0.000000000000D+00 0.000000000000D+00 0.115108181961D-02 0.000000000000D+00  5 1 21 25 23 1 2 0.41281863D+00 0.14345780D-02 0.15796558D+05 0.15796558D+05 0.15796558D+05 0.12452689D+01  1  2 12  4  5  2       -1 0.960252868538D-03 0.100000000000D+01
-.906715300322D-04 0.000000000000D+00 -.120055961620D-04 0.115108181961D-02 0.000000000000D+00  5 1 21 25 23 1 2 0.41281863D+00 0.14450489D-02 0.15412837D+05 0.15412837D+05 0.15412837D+05 0.12464805D+01  1  2  5  4  5  2       -1 -.414609037694D+00 0.100000000000D+01
0.123078906391D-04 0.000000000000D+00 0.000000000000D+00 0.115108181961D-02 0.216484397082D-05  5 1 21 25 23 1 2 0.41625185D+00 0.14287607D-02 0.15796558D+05 0.15796558D+05 0.15796558D+05 0.12452689D+01  1  2 11  4  5  2       -1 0.552497219827D-01 0.100000000000D+01
  </mgrwgt>
  </event>
  <event>
  5     66 0.49155423E-03 0.16349095E+03 0.75467711E-02 0.11428721E+00
        1 -1    0    0  501    0 0.00000000E+00 0.00000000E+00 0.82402651E+02 0.82403272E+02 0.32000000E+00 0.0000E+00 0.9000E+01
       21 -1    0    0  502  501 0.00000000E+00 0.00000000E+00 -.89878827E+03 0.89878858E+03 0.75000000E+00 0.0000E+00 0.9000E+01
       25  1    1    2    0    0 0.11962007E+03 0.24935419E+02 -.21903304E+03 0.28023421E+03 0.12500000E+03 0.0000E+00 0.9000E+01
       23  1    1    2    0    0 -.89719799E+02 -.99185061E+02 -.85847881E+02 0.18322781E+03 0.91188000E+02 0.0000E+00 0.9000E+01
        1  1    1    2  502    0 -.29900270E+02 0.74249642E+02 -.51150469E+03 0.51772984E+03 0.32000000E+00 0.0000E+00 0.9000E+01
#aMCatNLO 2  0  0  2  1 0.80043959D+02 0.00000000D+00  -5  5  0 0.00000000D+00 0.00000000D+00 0.00000000D+00 0.00000000D+00 0.00000000D+00
  <mgrwgt>
 0.1962048146D-01    2    2    0
 0.169880562950312D+03 0.000000000000000D+00 0.000000000000000D+00 0.169880562950312D+03
 0.169880562950312D+03 0.000000000000000D+00 0.000000000000000D+00 -.169880562950312D+03
 0.180637751013872D+03 0.103932319848214D+03 0.638919160520392D+02 -.460531545664096D+02
 0.159123374886752D+03 -.103932319848214D+03 -.638919160520392D+02 0.460531545664096D+02
 0.000000000000000D+00 -.000000000000000D+00 0.000000000000000D+00 -.000000000000000D+00
 0.181382446057590D+03 0.000000000000000D+00 0.000000000000000D+00 0.181382446057590D+03
 0.408324573757809D+03 0.000000000000000D+00 0.000000000000000D+00 -.408324573757809D+03
 0.180766781118697D+03 0.119620069299636D+03 0.249354192113910D+02 -.460531545664096D+02
 0.168295760731823D+03 -.897197992279650D+02 -.991850609581854D+02 0.460531545664096D+02
 0.240644477964879D+03 -.299002700716708D+02 0.742496417467944D+02 -.226942127700220D+03
-.935281773512D-04 0.000000000000D+00 0.000000000000D+00 0.148627735871D-02 0.000000000000D+00  5 1 21 25 23 1 2 0.11873492D-01 0.13732330D+00 0.43413479D+05 0.43413479D+05 0.43413479D+05 0.11984054D+01  1  2 13  4  5  2       -1 -.272228519623D-01 0.100000000000D+01
0.178701252792D-03 0.000000000000D+00 0.000000000000D+00 0.148627735871D-02 0.271081424492D-06  5 1 21 25 23 1 2 0.12677396D-01 0.13827511D+00 0.43413479D+05 0.43413479D+05 0.43413479D+05 0.11984054D+01  1  2  1  4  5  2       -1 0.468433334252D-01 0.100000000000D+01
  </mgrwgt>
  </event>
  <event>
  4     66 0.49155423E-03 0.30442155E+03 0.75467711E-02 0.99945660E-01
        1 -1    0    0  501    0 0.00000000E+00 0.00000000E+00 0.19144156E+03 0.19144183E+03 0.32000000E+00 0.0000E+00 0.9000E+01
       -1 -1    0    0    0  501 0.00000000E+00 0.00000000E+00 -.53699361E+03 0.53699370E+03 0.32000000E+00 0.0000E+00 0.9000E+01
       25  1    1    2    0    0 -.91332407E+02 -.26906650E+03 -.29016108E+03 0.42491981E+03 0.12500000E+03 0.0000E+00 0.9000E+01
       23  1    1    2    0    0 0.91332407E+02 0.26906650E+03 -.55390962E+02 0.30351573E+03 0.91188000E+02 0.0000E+00 0.9000E+01
#aMCatNLO 1  0  0  2  1 0.39443789D+03 0.00000000D+00  -5  5  0 0.00000000D+00 0.00000000D+00 0.00000000D+00 0.00000000D+00 0.00000000D+00
  <mgrwgt>
 0.1679192217D+00    5    2    0
 0.320629113015496D+03 0.000000000000000D+00 0.000000000000000D+00 0.320629113015496D+03
 0.320629113015496D+03 0.000000000000000D+00 0.000000000000000D+00 -.320629113015496D+03
 0.326328648989673D+03 -.913324068802172D+02 -.269066495443631D+03 -.100632994761031D+03
 0.314929577041320D+03 0.913324068802172D+02 0.269066495443631D+03 0.100632994761031D+03
 0.000000000000000D+00 0.000000000000000D+00 0.000000000000000D+00 -.000000000000000D+00
 0.417445341036648D+03 0.000000000000000D+00 0.000000000000000D+00 0.417445341036648D+03
 0.132470272285967D+04 0.000000000000000D+00 0.000000000000000D+00 -.132470272285967D+04
 0.472242262005609D+03 -.312409529455248D+03 -.315691368737175D+03 -.100632994761031D+03
 0.280614537734765D+03 -.735385863508006D+02 0.234295420627566D+03 0.100632994761031D+03
 0.989291264155941D+03 0.385948115806049D+03 0.813959481096091D+02 -.907257381823019D+03
0.709079885409D-02 0.000000000000D+00 0.000000000000D+00 0.115638126125D-02 0.000000000000D+00  5 1 -1 25 23 21 0 0.29452576D-01 0.82614429D-01 0.92672477D+05 0.92672477D+05 0.92672477D+05 0.11666199D+01  1  2  2  2  5  2       -1 0.168267874487D+00 0.100000000000D+01
-.392644533194D-03 0.000000000000D+00 -.272305346499D-04 0.115638126125D-02 0.000000000000D+00  5 1 -1 25 23 21 2 0.29452576D-01 0.82614429D-01 0.92672477D+05 0.92672477D+05 0.92672477D+05 0.11666199D+01  1  2  3  2  5  2       -1 -.126813168660D-01 0.100000000000D+01
0.485694594693D-03 0.000000000000D+00 0.000000000000D+00 0.115638126125D-02 0.000000000000D+00  5 1 -1 25 23 21 2 0.29452576D-01 0.82614429D-01 0.92672477D+05 0.92672477D+05 0.92672477D+05 0.11666199D+01  1  2 15  2  5  2       -1 0.156865728024D-01 0.100000000000D+01
-.429709729753D-02 0.000000000000D+00 -.242251015082D-02 0.115638126125D-02 0.000000000000D+00  5 1 -1 25 23 21 2 0.29452576D-01 0.37063760D+00 0.92672477D+05 0.92672477D+05 0.92672477D+05 0.11666199D+01  1  2  5  2  5  2       -1 -.123610167381D-02 0.100000000000D+01
-.799573051923D-03 0.000000000000D+00 -.439550849595D-03 0.115638126125D-02 0.000000000000D+00  5 1 21 25 23 1 2 0.29452576D-01 0.37063760D+00 0.92672477D+05 0.92672477D+05 0.92672477D+05 0.11666199D+01  1  2  5  4  5  2       -1 -.211780701416D-02 0.100000000000D+01
  </mgrwgt>
  </event>
  <event>
  5     66 -.49155423E-03 0.11122776E+03 0.75467711E-02 0.12457768E+00
        3 -1    0    0  501    0 0.00000000E+00 0.00000000E+00 0.36377909E+03 0.36377943E+03 0.50000000E+00 0.0000E+00 0.9000E+01
       -3 -1    0    0    0  502 0.00000000E+00 0.00000000E+00 -.42196277E+02 0.42199239E+02 0.50000000E+00 0.0000E+00 0.9000E+01
       25  1    1    2    0    0 0.17494717E+02 0.57593604E+01 0.22531464E+03 0.25832329E+03 0.12500000E+03 0.0000E+00 0.9000E+01
       23  1    1    2    0    0 -.28444883E+02 -.14244118E+02 0.75075390E+02 0.12232568E+03 0.91188000E+02 0.0000E+00 0.9000E+01
       21  1    1    2  501  502 0.10950166E+02 0.84847578E+01 0.21192785E+02 0.25329703E+02 0.75000000E+00 0.0000E+00 0.9000E+01
#aMCatNLO 2  0  0  2  1 0.13852698D+02 0.00000000D+00  -5  5  0 0.00000000D+00 0.00000000D+00 0.00000000D+00 0.00000000D+00 0.00000000D+00
  <mgrwgt>
 -.1109282123D-01    2    2    0
 0.116691442058543D+03 0.000000000000000D+00 0.000000000000000D+00 0.116691442058543D+03
 0.116691442058543D+03 0.000000000000000D+00 0.000000000000000D+00 -.116691442058543D+03
 0.132351863523582D+03 0.236695609581787D+02 0.105439504892761D+02 0.349369828447106D+02
 0.101031020593503D+03 -.236695609581787D+02 -.105439504892761D+02 -.349369828447106D+02
 0.000000000000000D+00 0.000000000000000D+00 0.000000000000000D+00 0.000000000000000D+00
 0.124872031601254D+03 0.000000000000000D+00 0.000000000000000D+00 0.124872031601254D+03
 0.122912251606056D+03 0.000000000000000D+00 0.000000000000000D+00 -.122912251606056D+03
 0.131090915480868D+03 0.174947168881479D+02 0.575936040928583D+01 0.349369828447106D+02
 0.102702728260458D+03 -.284448830821334D+02 -.142441182350371D+02 -.349369828447106D+02
 0.139906394659832D+02 0.109501661939855D+02 0.848475782575127D+01 0.195977999519740D+01
-.166803218802D-03 0.000000000000D+00 0.000000000000D+00 0.207414020225D-02 0.000000000000D+00  5 3 -3 25 23 21 2 0.52295573D-01 0.66947705D-02 0.14016202D+05 0.14016202D+05 0.14016202D+05 0.12511952D+01  1  2 13  2  5  2       -3 -.306069771338D-01 0.100000000000D+01
0.116030039417D-03 0.000000000000D+00 0.000000000000D+00 0.207414020225D-02 0.905754206029D-04  5 3 -3 25 23 21 2 0.55961726D-01 0.64914623D-02 0.14016202D+05 0.14016202D+05 0.14016202D+05 0.12511952D+01  1  2  1  2  5  2       -3 0.195141559042D-01 0.100000000000D+01
  </mgrwgt>
  </event>
  <event>
  4     66 0.49155423E-03 0.11745345E+03 0.75467711E-02 0.12025339E+00
        1 -1    0    0  501    0 0.00000000E+00 0.00000000E+00 0.60385903E+03 0.60385912E+03 0.32000000E+00 0.0000E+00 0.9000E+01
       -1 -1    0    0    0  501 0.00000000E+00 0.00000000E+00 -.22983729E+02 0.22985957E+02 0.32000000E+00 0.0000E+00 0.9000E+01
       25  1    1    2    0    0 -.39108707E+00 -.45465501E+02 0.35289599E+03 0.37713107E+03 0.12500000E+03 0.0000E+00 0.9000E+01
       23  1    1    2    0    0 0.39108707E+00 0.45465501E+02 0.22797932E+03 0.24971400E+03 0.91188000E+02 0.0000E+00 0.9000E+01
#aMCatNLO 1  0  0  1  1 0.55335750D+02 0.00000000D+00  -5  5  0 0.00000000D+00 0.00000000D+00 0.00000000D+00 0.00000000D+00 0.00000000D+00
  <mgrwgt>
 0.1389074357D+00    3    2    0
 0.117811956897087D+03 0.000000000000000D+00 0.000000000000000D+00 0.117811956897087D+03
 0.117811956897087D+03 0.000000000000000D+00 0.000000000000000D+00 -.117811956897087D+03
 0.133323431386865D+03 -.391087068468032D+00 -.454655014831826D+02 0.910343795254219D+01
 0.102300482407309D+03 0.391087068468032D+00 0.454655014831826D+02 -.910343795254219D+01
 0.000000000000000D+00 -.000000000000000D+00 0.000000000000000D+00 -.000000000000000D+00
 0.127426383147838D+03 0.000000000000000D+00 0.000000000000000D+00 0.127426383147838D+03
 0.240457429602917D+03 0.000000000000000D+00 0.000000000000000D+00 -.240457429602917D+03
 0.138287471308912D+03 0.307919010549413D+02 -.496730406546668D+02 0.910343795254219D+01
 0.103746976525897D+03 0.240468954362546D+02 0.422736091620657D+02 -.910343795254219D+01
 0.125849364915945D+03 -.548387964911960D+02 0.739943149260110D+01 -.113031046455079D+03
0.139517775597D-03 0.000000000000D+00 0.000000000000D+00 0.218411501873D-02 0.000000000000D+00  5 1 -1 25 23 21 0 0.92901567D-01 0.35361362D-02 0.13795314D+05 0.13795314D+05 0.13795314D+05 0.12519890D+01  1  2  2  1  5  1        1 0.135982203642D+00 0.100000000000D+01
-.775090000025D-05 0.000000000000D+00 -.535784994167D-06 0.218411501873D-02 0.000000000000D+00  5 1 -1 25 23 21 2 0.92901567D-01 0.35361362D-02 0.13795314D+05 0.13795314D+05 0.13795314D+05 0.12519890D+01  1  2  3  1  5  1        1 -.118414720255D-01 0.100000000000D+01
0.966562657930D-05 0.000000000000D+00 0.000000000000D+00 0.218411501873D-02 0.000000000000D+00  5 1 -1 25 23 21 2 0.92901567D-01 0.35361362D-02 0.13795314D+05 0.13795314D+05 0.13795314D+05 0.12519890D+01  1  2 15  1  5  1        1 0.147667040917D-01 0.100000000000D+01
  </mgrwgt>
  </event>
  <event>
  4     66 0.49155423E-03 0.12762758E+03 0.75467711E-02 0.11186350E+00
        1 -1    0    0  501    0 0.00000000E+00 0.00000000E+00 0.26676149E+02 0.26678069E+02 0.32000000E+00 0.0000E+00 0.9000E+01
       -1 -1    0    0    0  501 0.00000000E+00 0.00000000E+00 -.61209042E+03 0.61209050E+03 0.32000000E+00 0.0000E+00 0.9000E+01
       25  1    1    2    0    0 0.18153156E+02 0.64762314E+02 -.30974651E+03 0.34072217E+03 0.12500000E+03 0.0000E+00 0.9000E+01
       23  1    1    2    0    0 -.18153156E+02 -.64762314E+02 -.27566776E+03 0.29804640E+03 0.91188000E+02 0.0000E+00 0.9000E+01
#aMCatNLO 1  0  0  2  1 0.17436996D+03 0.00000000D+00  -5  5  0 0.00000000D+00 0.00000000D+00 0.00000000D+00 0.00000000D+00 0.00000000D+00
  <mgrwgt>
 0.1596364610D+00    3    2    0
 0.127784408824758D+03 0.000000000000000D+00 0.000000000000000D+00 0.127784408824758D+03
 0.127784408824758D+03 0.000000000000000D+00 0.000000000000000D+00 -.127784408824758D+03
 0.142085348828371D+03 0.181531557276444D+02 0.647623136367508D+02 0.628903976954436D+01
 0.113483468821145D+03 -.181531557276444D+02 -.647623136367508D+02 -.628903976954436D+01
 0.000000000000000D+00 0.000000000000000D+00 0.000000000000000D+00 0.000000000000000D+00
 0.102421062427342D+04 0.000000000000000D+00 0.000000000000000D+00 0.102421062427342D+04
 0.163435375813959D+03 0.000000000000000D+00 0.000000000000000D+00 -.163435375813959D+03
 0.126476058211196D+03 0.592441352474153D+01 -.172204124168592D+02 0.628903976954436D+01
 0.182910919753537D+03 -.316492518652881D+02 -.155241508805569D+03 -.628903976954436D+01
 0.878259022122645D+03 0.257248383405465D+02 0.172461921222428D+03 0.860775248459460D+03
0.642161958121D-03 0.000000000000D+00 0.000000000000D+00 0.199368336351D-02 0.000000000000D+00  5 1 -1 25 23 21 0 0.41041771D-02 0.94167910D-01 0.16288800D+05 0.16288800D+05 0.16288800D+05 0.12437621D+01  1  2  2  2  5  2       -1 0.156357179917D+00 0.100000000000D+01
-.356755989276D-04 0.000000000000D+00 -.246607100431D-05 0.199368336351D-02 0.000000000000D+00  5 1 -1 25 23 21 2 0.41041771D-02 0.94167910D-01 0.16288800D+05 0.16288800D+05 0.16288800D+05 0.12437621D+01  1  2  3  2  5  2       -1 -.134375208638D-01 0.100000000000D+01
0.443818415880D-04 0.000000000000D+00 0.000000000000D+00 0.199368336351D-02 0.000000000000D+00  5 1 -1 25 23 21 2 0.41041771D-02 0.94167910D-01 0.16288800D+05 0.16288800D+05 0.16288800D+05 0.12437621D+01  1  2 15  2  5  2       -1 0.167168019666D-01 0.100000000000D+01
  </mgrwgt>
  </event>
  <event>
  4     66 0.49155423E-03 0.85723732E+02 0.75467711E-02 0.11615083E+00
        1 -1    0    0  501    0 0.00000000E+00 0.00000000E+00 0.46323505E+03 0.46323516E+03 0.32000000E+00 0.0000E+00 0.9000E+01
       -1 -1    0    0    0  501 0.00000000E+00 0.00000000E+00 -.51881878E+02 0.51882865E+02 0.32000000E+00 0.0000E+00 0.9000E+01
       25  1    1    2    0    0 -.10952194E+03 0.16304113E+01 0.19753413E+03 0.25815198E+03 0.12500000E+03 0.0000E+00 0.9000E+01
       23  1    1    2    0    0 0.10952194E+03 -.16304113E+01 0.21381903E+03 0.25696604E+03 0.91188000E+02 0.0000E+00 0.9000E+01
#aMCatNLO 1  0  0  1  2 0.59050685D+02 0.00000000D+00  -5  5  0 0.00000000D+00 0.00000000D+00 0.00000000D+00 0.00000000D+00 0.00000000D+00
  <mgrwgt>
 0.1028817370D+00    7    2    0
 0.155028341354002D+03 0.000000000000000D+00 0.000000000000000D+00 0.155028341354002D+03
 0.155028341354002D+03 0.000000000000000D+00 0.000000000000000D+00 -.155028341354002D+03
 0.166816103178965D+03 -.109521937703654D+03 0.163041134852626D+01 -.143143005517734D+02
 0.143240579529039D+03 0.109521937703654D+03 -.163041134852626D+01 0.143143005517734D+02
 0.000000000000000D+00 0.000000000000000D+00 -.000000000000000D+00 0.000000000000000D+00
 0.358551029171441D+03 0.000000000000000D+00 0.000000000000000D+00 0.358551029171441D+03
 0.162157612049694D+03 0.000000000000000D+00 0.000000000000000D+00 -.162157612049694D+03
 0.190393135407636D+03 -.142692307141957D+03 0.765194697898950D+01 -.143143005517734D+02
 0.125236599941717D+03 0.845912072890781D+02 0.289535318249804D+01 0.143143005517734D+02
 0.205078905871782D+03 0.581010998528789D+02 -.105473001614875D+02 0.196393417121747D+03
0.291782340092D-03 0.000000000000D+00 0.000000000000D+00 0.167297974174D-02 0.000000000000D+00  5 1 -1 25 23 21 0 0.71267014D-01 0.79819118D-02 0.23827686D+05 0.23827686D+05 0.23827686D+05 0.12255402D+01  1  2  2  1  5  1        1 0.122579531051D+00 0.100000000000D+01
-.162097645267D-04 0.000000000000D+00 -.112052101401D-05 0.167297974174D-02 0.000000000000D+00  5 1 -1 25 23 21 2 0.71267014D-01 0.79819118D-02 0.23827686D+05 0.23827686D+05 0.23827686D+05 0.12255402D+01  1  2  3  1  5  1        1 -.102280020218D-01 0.100000000000D+01
0.201257115395D-04 0.000000000000D+00 0.000000000000D+00 0.167297974174D-02 0.000000000000D+00  5 1 -1 25 23 21 2 0.71267014D-01 0.79819118D-02 0.23827686D+05 0.23827686D+05 0.23827686D+05 0.12255402D+01  1  2 15  1  5  1        1 0.126988777646D-01 0.100000000000D+01
0.884459432524D-03 0.000000000000D+00 0.000000000000D+00 0.167297974174D-02 0.000000000000D+00  5 1 -1 25 23 21 2 0.16419330D+00 0.79819118D-02 0.34842110D+05 0.34842110D+05 0.34842110D+05 0.12081368D+01  1  2 12  1  5  1        1 0.159341691728D+00 0.100000000000D+01
-.100399926243D-02 0.000000000000D+00 -.981755862828D-04 0.167297974174D-02 0.000000000000D+00  5 1 -1 25 23 21 2 0.16741585D+00 0.79819118D-02 0.23827686D+05 0.23827686D+05 0.23827686D+05 0.12255402D+01  1  2  5  1  5  1        1 -.179855833072D+00 0.100000000000D+01
0.803515410225D-04 0.000000000000D+00 0.000000000000D+00 0.167297974174D-02 0.000000000000D+00  5 21 -1 25 23 -1 2 0.16419330D+00 0.79819118D-02 0.34842110D+05 0.34842110D+05 0.34842110D+05 0.12081368D+01  1  2 12  3  5  1        1 0.212226720428D-01 0.100000000000D+01
-.873519103655D-04 0.000000000000D+00 -.914773200737D-05 0.167297974174D-02 0.000000000000D+00  5 21 -1 25 23 -1 2 0.16741585D+00 0.79819118D-02 0.23827686D+05 0.23827686D+05 0.23827686D+05 0.12255402D+01  1  2  5  3  5  1        1 -.228772005416D-01 0.100000000000D+01
  </mgrwgt>
  </event>
  <event>
  4     66 0.49155423E-03 0.66958963E+03 0.75467711E-02 0.82753397E-01
        1 -1    0    0  501    0 0.00000000E+00 0.00000000E+00 0.69941098E+03 0.69941106E+03 0.32000000E+00 0.0000E+00 0.9000E+01
       -1 -1    0    0    0  501 0.00000000E+00 0.00000000E+00 -.83221440E+03 0.83221446E+03 0.32000000E+00 0.0000E+00 0.9000E+01
       25  1    1    2    0    0 -.47921693E+03 -.45468531E+03 -.43365359E+03 0.80004252E+03 0.12500000E+03 0.0000E+00 0.9000E+01
       23  1    1    2    0    0 0.47921693E+03 0.45468531E+03 0.30085017E+03 0.73158300E+03 0.91188000E+02 0.0000E+00 0.9000E+01
#aMCatNLO 1  0  0  2  2 0.27889643D+04 0.00000000D+00  -5  5  0 0.00000000D+00 0.00000000D+00 0.00000000D+00 0.00000000D+00 0.00000000D+00
  <mgrwgt>
 0.4799384582D-01    3    2    0
 0.762928565986080D+03 0.000000000000000D+00 0.000000000000000D+00 0.762928565986080D+03
 0.762928565986080D+03 0.000000000000000D+00 0.000000000000000D+00 -.762928565986080D+03
 0.765323858606481D+03 -.479216929917250D+03 -.454685314404988D+03 -.365661055483677D+03
 0.760533273365678D+03 0.479216929917250D+03 0.454685314404988D+03 0.365661055483677D+03
 0.000000000000000D+00 0.000000000000000D+00 0.000000000000000D+00 0.000000000000000D+00
 0.368021842260343D+04 0.000000000000000D+00 0.000000000000000D+00 0.368021842260343D+04
 0.251966069338824D+04 0.000000000000000D+00 0.000000000000000D+00 -.251966069338824D+04
 0.268020345422387D+04 -.242665282923342D+04 -.107028668818665D+04 -.365661055483677D+03
 0.498878432677862D+03 -.232611288432727D+03 0.229670242398421D+03 0.365661055483677D+03
 0.302079722908994D+04 0.265926411766615D+04 0.840616445788232D+03 0.116055772921520D+04
0.315801457526D-01 0.000000000000D+00 0.000000000000D+00 0.918752077316D-03 0.000000000000D+00  5 1 -1 25 23 21 0 0.10760170D+00 0.12803300D+00 0.44835028D+06 0.44835028D+06 0.44835028D+06 0.11080714D+01  1  2  2  2  5  2       -1 0.471764759193D-01 0.100000000000D+01
-.171812467236D-02 0.000000000000D+00 -.121276074933D-03 0.918752077316D-03 0.000000000000D+00  5 1 -1 25 23 21 2 0.10760170D+00 0.12803300D+00 0.44835028D+06 0.44835028D+06 0.44835028D+06 0.11080714D+01  1  2  3  2  5  2       -1 -.315138563206D-02 0.100000000000D+01
0.216375194546D-02 0.000000000000D+00 0.000000000000D+00 0.918752077316D-03 0.000000000000D+00  5 1 -1 25 23 21 2 0.10760170D+00 0.12803300D+00 0.44835028D+06 0.44835028D+06 0.44835028D+06 0.11080714D+01  1  2 15  2  5  2       -1 0.396875552860D-02 0.100000000000D+01
  </mgrwgt>
  </event>
  <event>
  4     66 0.49155423E-03 0.83081693E+02 0.75467711E-02 0.12393602E+00
        1 -1    0    0  501    0 0.00000000E+00 0.00000000E+00 0.10664364E+04 0.10664364E+04 0.32000000E+00 0.0000E+00 0.9000E+01
       -1 -1    0    0    0  501 0.00000000E+00 0.00000000E+00 -.11653082E+02 0.11657475E+02 0.32000000E+00 0.0000E+00 0.9000E+01
       25  1    1    2    0    0 0.54655776E+01 -.24934131E+02 0.56260531E+03 0.57688934E+03 0.12500000E+03 0.0000E+00 0.9000E+01
       23  1    1    2    0    0 -.54655776E+01 0.24934131E+02 0.49217797E+03 0.50120454E+03 0.91188000E+02 0.0000E+00 0.9000E+01
#aMCatNLO 1  0  0  1  2 0.21295385D+02 0.00000000D+00  -5  5  0 0.00000000D+00 0.00000000D+00 0.00000000D+00 0.00000000D+00 0.00000000D+00
  <mgrwgt>
 0.1311322396D+00    9    2    0
 0.111488403415799D+03 0.000000000000000D+00 0.000000000000000D+00 0.111488403415799D+03
 0.111488403415799D+03 0.000000000000000D+00 0.000000000000000D+00 -.111488403415799D+03
 0.127879679171938D+03 0.546557759881831D+01 -.249341310207398D+02 -.875379442696533D+01
 0.950971276596601D+02 -.546557759881831D+01 0.249341310207398D+02 0.875379442696533D+01
 0.000000000000000D+00 0.000000000000000D+00 -.000000000000000D+00 0.000000000000000D+00
 0.207147383534021D+03 0.000000000000000D+00 0.000000000000000D+00 0.207147383534021D+03
 0.113187204124242D+03 0.000000000000000D+00 0.000000000000000D+00 -.113187204124242D+03
 0.127736649922803D+03 -.666787637624006D+01 -.238864447179243D+02 -.875379442696533D+01
 0.962547557030222D+02 -.145485625475667D+02 0.257184187379096D+02 0.875379442696533D+01
 0.963431820324374D+02 0.212164389238067D+02 -.183197401998536D+01 0.939601794097790D+02
0.104260330224D-03 0.000000000000D+00 0.000000000000D+00 0.234981515846D-02 0.000000000000D+00  5 1 -1 25 23 21 0 0.16406747D+00 0.17931234D-02 0.12351331D+05 0.12351331D+05 0.12351331D+05 0.12575580D+01  1  2  2  1  5  1        1 0.114040882049D+00 0.100000000000D+01
-.579217019896D-05 0.000000000000D+00 -.400387120434D-06 0.234981515846D-02 0.000000000000D+00  5 1 -1 25 23 21 2 0.16406747D+00 0.17931234D-02 0.12351331D+05 0.12351331D+05 0.12351331D+05 0.12575580D+01  1  2  3  1  5  1        1 -.100193328811D-01 0.100000000000D+01
0.722858310195D-05 0.000000000000D+00 0.000000000000D+00 0.234981515846D-02 0.000000000000D+00  5 1 -1 25 23 21 2 0.16406747D+00 0.17931234D-02 0.12351331D+05 0.12351331D+05 0.12351331D+05 0.12575580D+01  1  2 15  1  5  1        1 0.125040490643D-01 0.100000000000D+01
0.748485356362D-03 0.000000000000D+00 0.000000000000D+00 0.234981515846D-02 0.000000000000D+00  5 1 -1 25 23 21 2 0.30507969D+00 0.17931234D-02 0.14955775D+05 0.14955775D+05 0.14955775D+05 0.12479687D+01  1  2 12  1  5  1        1 0.323428999378D+00 0.100000000000D+01
-.640996513170D-03 0.000000000000D+00 0.000000000000D+00 0.234981515846D-02 0.000000000000D+00  5 1 -1 25 23 21 2 0.16406747D+00 0.17931234D-02 0.12351331D+05 0.12351331D+05 0.12351331D+05 0.12575580D+01  1  2  4  1  5  1        1 -.110879984884D+01 0.100000000000D+01
-.756574921196D-03 0.000000000000D+00 -.338301768274D-04 0.234981515846D-02 0.000000000000D+00  5 1 -1 25 23 21 2 0.30603442D+00 0.17931234D-02 0.12351331D+05 0.12351331D+05 0.12351331D+05 0.12575580D+01  1  2  5  1  5  1        1 -.328648981234D+00 0.100000000000D+01
0.652385153129D-03 0.000000000000D+00 0.281753310311D-04 0.234981515846D-02 0.000000000000D+00  5 1 -1 25 23 21 2 0.16406747D+00 0.17931234D-02 0.12351331D+05 0.12351331D+05 0.12351331D+05 0.12575580D+01  1  2  6  1  5  1        1 0.112849999074D+01 0.100000000000D+01
0.506030180413D-04 0.000000000000D+00 0.000000000000D+00 0.234981515846D-02 0.000000000000D+00  5 21 -1 25 23 -1 2 0.30507969D+00 0.17931234D-02 0.14955775D+05 0.14955775D+05 0.14955775D+05 0.12479687D+01  1  2 12  3  5  1        1 0.187749703130D-01 0.100000000000D+01
-.494924265292D-04 0.000000000000D+00 -.229754528229D-05 0.234981515846D-02 0.000000000000D+00  5 21 -1 25 23 -1 2 0.30603442D+00 0.17931234D-02 0.12351331D+05 0.12351331D+05 0.12351331D+05 0.12575580D+01  1  2  5  3  5  1        1 -.186484890015D-01 0.100000000000D+01
  </mgrwgt>
  </event>
  <event>
  4     66 0.49155423E-03 0.91002973E+02 0.75467711E-02 0.12115388E+00
        1 -1    0    0  501    0 0.00000000E+00 0.00000000E+00 0.23204418E+03 0.23204440E+03 0.32000000E+00 0.0000E+00 0.9000E+01
       -1 -1    0    0    0  501 0.00000000E+00 0.00000000E+00 -.74271094E+02 0.74271783E+02 0.32000000E+00 0.0000E+00 0.9000E+01
       25  1    1    2    0    0 -.46458077E+02 0.56173387E+02 0.73243694E+02 0.16218336E+03 0.12500000E+03 0.0000E+00 0.9000E+01
       23  1    1    2    0    0 0.46458077E+02 -.56173387E+02 0.84529392E+02 0.14413283E+03 0.91188000E+02 0.0000E+00 0.9000E+01
#aMCatNLO 1  0  0  1  2 0.20433175D+02 0.00000000D+00  -5  5  0 0.00000000D+00 0.00000000D+00 0.00000000D+00 0.00000000D+00 0.00000000D+00
  <mgrwgt>
 0.1618274643D+00    9    2    0
 0.131279527714651D+03 0.000000000000000D+00 0.000000000000000D+00 0.131279527714651D+03
 0.131279527714651D+03 0.000000000000000D+00 0.000000000000000D+00 -.131279527714651D+03
 0.145199726818140D+03 -.464580773654701D+02 0.561733872167996D+02 -.120065933618988D+02
 0.117359328611161D+03 0.464580773654701D+02 -.561733872167996D+02 0.120065933618988D+02
 0.000000000000000D+00 -.000000000000000D+00 -.000000000000000D+00 0.000000000000000D+00
 0.147439362546473D+03 0.000000000000000D+00 0.000000000000000D+00 0.147439362546473D+03
 0.138298267764029D+03 0.000000000000000D+00 0.000000000000000D+00 -.138298267764029D+03
 0.145037855345569D+03 -.370560194137645D+02 0.623992998701988D+02 -.120065933618988D+02
 0.118315086977819D+03 0.540925969772414D+02 -.511179139897994D+02 0.120065933618988D+02
 0.223846879871144D+02 -.170365775634769D+02 -.112813858803994D+02 0.914109478244398D+01
0.167638221783D-03 0.000000000000D+00 0.000000000000D+00 0.192979952552D-02 0.000000000000D+00  5 1 -1 25 23 21 0 0.35699174D-01 0.11426392D-01 0.17088503D+05 0.17088503D+05 0.17088503D+05 0.12414198D+01  1  2  2  1  5  1        1 0.958807922999D-01 0.100000000000D+01
-.931303017869D-05 0.000000000000D+00 -.643774911804D-06 0.192979952552D-02 0.000000000000D+00  5 1 -1 25 23 21 2 0.35699174D-01 0.11426392D-01 0.17088503D+05 0.17088503D+05 0.17088503D+05 0.12414198D+01  1  2  3  1  5  1        1 -.820893704093D-02 0.100000000000D+01
0.115694411030D-04 0.000000000000D+00 0.000000000000D+00 0.192979952552D-02 0.000000000000D+00  5 1 -1 25 23 21 2 0.35699174D-01 0.11426392D-01 0.17088503D+05 0.17088503D+05 0.17088503D+05 0.12414198D+01  1  2 15  1  5  1        1 0.101978423554D-01 0.100000000000D+01
0.302180739861D-03 0.000000000000D+00 0.000000000000D+00 0.192979952552D-02 0.000000000000D+00  5 1 -1 25 23 21 2 0.40959503D-01 0.11426392D-01 0.19976643D+05 0.19976643D+05 0.19976643D+05 0.12338819D+01  1  2 12  1  5  1        1 0.223030307354D+00 0.100000000000D+01
-.291625675369D-03 0.000000000000D+00 0.000000000000D+00 0.192979952552D-02 0.000000000000D+00  5 1 -1 25 23 21 2 0.35699174D-01 0.11426392D-01 0.17088503D+05 0.17088503D+05 0.17088503D+05 0.12414198D+01  1  2  4  1  5  1        1 -.257052405360D+00 0.100000000000D+01
-.744630909471D-03 0.000000000000D+00 -.164087255848D-03 0.192979952552D-02 0.000000000000D+00  5 1 -1 25 23 21 2 0.41983690D-01 0.11426392D-01 0.17088503D+05 0.17088503D+05 0.17088503D+05 0.12414198D+01  1  2  5  1  5  1        1 -.537239338670D+00 0.100000000000D+01
0.763314876881D-03 0.000000000000D+00 0.161953400910D-03 0.192979952552D-02 0.000000000000D+00  5 1 -1 25 23 21 2 0.35699174D-01 0.11426392D-01 0.17088503D+05 0.17088503D+05 0.17088503D+05 0.12414198D+01  1  2  6  1  5  1        1 0.672821159869D+00 0.100000000000D+01
0.641901583045D-05 0.000000000000D+00 0.000000000000D+00 0.192979952552D-02 0.000000000000D+00  5 21 -1 25 23 -1 2 0.40959503D-01 0.11426392D-01 0.19976643D+05 0.19976643D+05 0.19976643D+05 0.12338819D+01  1  2 12  3  5  1        1 0.248256768104D-01 0.100000000000D+01
-.167744265741D-04 0.000000000000D+00 -.398487522337D-05 0.192979952552D-02 0.000000000000D+00  5 21 -1 25 23 -1 2 0.41983690D-01 0.11426392D-01 0.17088503D+05 0.17088503D+05 0.17088503D+05 0.12414198D+01  1  2  5  3  5  1        1 -.624276332791D-01 0.100000000000D+01
  </mgrwgt>
  </event>
  <event>
  5     66 0.49155423E-03 0.12474473E+03 0.75467711E-02 0.12277870E+00
        1 -1    0    0  502    0 0.00000000E+00 0.00000000E+00 0.94400567E+03 0.94400572E+03 0.32000000E+00 0.0000E+00 0.9000E+01
       -1 -1    0    0    0  501 0.00000000E+00 0.00000000E+00 -.21696456E+02 0.21698816E+02 0.32000000E+00 0.0000E+00 0.9000E+01
       25  1    1    2    0    0 -.46107789E+02 0.41400069E+02 0.67708469E+03 0.69130932E+03 0.12500000E+03 0.0000E+00 0.9000E+01
       23  1    1    2    0    0 0.38848782E+02 -.48087344E+02 0.23760923E+03 0.26190651E+03 0.91188000E+02 0.0000E+00 0.9000E+01
       21  1    1    2  502  501 0.72590070E+01 0.66872752E+01 0.76152898E+01 0.12488714E+02 0.75000000E+00 0.0000E+00 0.9000E+01
#aMCatNLO 2  0  0  1  1 0.98697939D+01 0.00000000D+00  -5  5  0 0.00000000D+00 0.00000000D+00 0.00000000D+00 0.00000000D+00 0.00000000D+00
  <mgrwgt>
 0.3821214938D-01    1    2    0
 0.134031735543412D+03 0.000000000000000D+00 0.000000000000000D+00 0.134031735543412D+03
 0.134031735543412D+03 0.000000000000000D+00 0.000000000000000D+00 -.134031735543412D+03
 0.147666097260739D+03 -.421088634323512D+02 0.450840319493730D+02 0.487293542317311D+02
 0.120397373826085D+03 0.421088634323512D+02 -.450840319493730D+02 -.487293542317311D+02
 0.000000000000000D+00 0.000000000000000D+00 0.000000000000000D+00 -.000000000000000D+00
 0.135558518903198D+03 0.000000000000000D+00 0.000000000000000D+00 0.135558518903198D+03
 0.151082019820290D+03 0.000000000000000D+00 0.000000000000000D+00 -.151082019820290D+03
 0.147781743966157D+03 -.461077887630237D+02 0.414000688552761D+02 0.487293542317311D+02
 0.120463362910423D+03 0.388487817296037D+02 -.480873440103768D+02 -.487293542317311D+02
 0.183954318469083D+02 0.725900703341994D+01 0.668727515510065D+01 -.155235009170928D+02
0.448776327661D-04 0.000000000000D+00 0.000000000000D+00 0.170506602690D-02 0.145096644445D-03  5 1 -1 25 23 21 2 0.14522371D+00 0.33379156D-02 0.16842058D+05 0.16842058D+05 0.16842058D+05 0.12421283D+01  1  2  1  1  5  1        1 0.382121493801D-01 0.100000000000D+01
  </mgrwgt>
  </event>
  <event>
  5     66 0.49155423E-03 0.13835141E+03 0.75467711E-02 0.11275752E+00
        3 -1    0    0  501    0 0.00000000E+00 0.00000000E+00 0.76330601E+03 0.76330618E+03 0.50000000E+00 0.0000E+00 0.9000E+01
       21 -1    0    0  502  501 0.00000000E+00 0.00000000E+00 -.85433634E+02 0.85436926E+02 0.75000000E+00 0.0000E+00 0.9000E+01
       25  1    1    2    0    0 0.24669993E+02 0.21570313E+02 0.62054501E+02 0.14335148E+03 0.12500000E+03 0.0000E+00 0.9000E+01
       23  1    1    2    0    0 -.14994521E+03 0.51758281E+02 0.23489067E+03 0.29774379E+03 0.91188000E+02 0.0000E+00 0.9000E+01
        3  1    1    2  502    0 0.12527522E+03 -.73328594E+02 0.38092721E+03 0.40764783E+03 0.50000000E+00 0.0000E+00 0.9000E+01
#aMCatNLO 2  0  0  2  1 0.14515841D+03 0.00000000D+00  -5  5  0 0.00000000D+00 0.00000000D+00 0.00000000D+00 0.00000000D+00 0.00000000D+00
  <mgrwgt>
 0.3814190130D-02    1    2    0
 0.146045920660916D+03 0.000000000000000D+00 0.000000000000000D+00 0.146045920660916D+03
 0.146045920660916D+03 0.000000000000000D+00 0.000000000000000D+00 -.146045920660916D+03
 0.158558677989091D+03 0.846313347892587D+02 -.135274570354094D+02 -.465875460138430D+02
 0.133533163332741D+03 -.846313347892587D+02 0.135274570354094D+02 0.465875460138430D+02
 0.000000000000000D+00 0.000000000000000D+00 -.000000000000000D+00 0.000000000000000D+00
 0.337338916998643D+03 0.000000000000000D+00 0.000000000000000D+00 0.337338916998643D+03
 0.193316821892625D+03 0.000000000000000D+00 0.000000000000000D+00 -.193316821892625D+03
 0.137365521176355D+03 0.246699930695455D+02 0.215703130809079D+02 -.465875460138430D+02
 0.188807143826349D+03 -.149945213688353D+03 0.517582811173820D+02 0.465875460138430D+02
 0.204483073888563D+03 0.125275220618808D+03 -.733285941982898D+02 0.144022095106018D+03
0.175260128651D-04 0.000000000000D+00 0.000000000000D+00 0.161735581687D-02 0.637381976319D-07  5 3 21 25 23 3 2 0.11743179D+00 0.13143883D-01 0.52292669D+05 0.52292669D+05 0.52292669D+05 0.11903583D+01  1  2  1  4  5  2       -3 0.381419012954D-02 0.100000000000D+01
  </mgrwgt>
  </event>
  <event>
  5     66 0.49155423E-03 0.14991529E+03 0.75467711E-02 0.11029906E+00
        3 -1    0    0  501    0 0.00000000E+00 0.00000000E+00 0.70105055E+03 0.70105073E+03 0.50000000E+00 0.0000E+00 0.9000E+01
       21 -1    0    0  502  501 0.00000000E+00 0.00000000E+00 -.10784479E+03 0.10784739E+03 0.75000000E+00 0.0000E+00 0.9000E+01
       25  1    1    2    0    0 -.97932730E+02 -.14312263E+03 0.25169707E+03 0.33022919E+03 0.12500000E+03 0.0000E+00 0.9000E+01
       23  1    1    2    0    0 -.71419704E+02 0.73516784E+02 0.78063750E+02 0.15784389E+03 0.91188000E+02 0.0000E+00 0.9000E+01
        3  1    1    2  502    0 0.16935243E+03 0.69605841E+02 0.26344495E+03 0.32082505E+03 0.50000000E+00 0.0000E+00 0.9000E+01
#aMCatNLO 2  0  0  2  1 0.18309893D+03 0.00000000D+00  -5  5  0 0.00000000D+00 0.00000000D+00 0.00000000D+00 0.00000000D+00 0.00000000D+00
  <mgrwgt>
 0.4504416767D-02    1    2    0
 0.154877299796647D+03 0.000000000000000D+00 0.000000000000000D+00 0.154877299796647D+03
 0.154877299796647D+03 0.000000000000000D+00 0.000000000000000D+00 -.154877299796647D+03
 0.166676557443826D+03 -.825370848698099D+00 -.103210359462541D+03 0.387687408088051D+02
 0.143078042149469D+03 0.825370848698099D+00 0.103210359462541D+03 -.387687408088051D+02
 0.000000000000000D+00 0.000000000000000D+00 0.000000000000000D+00 0.000000000000000D+00
 0.308442627340114D+03 0.000000000000000D+00 0.000000000000000D+00 0.308442627340114D+03
 0.245120433056631D+03 0.000000000000000D+00 0.000000000000000D+00 -.245120433056631D+03
 0.217262331590548D+03 -.979327295585639D+02 -.143122625553999D+03 0.387687408088051D+02
 0.142561419321065D+03 -.714197036642633D+02 0.735167844743298D+02 -.387687408088051D+02
 0.193739309485131D+03 0.169352433222827D+03 0.696058410796691D+02 0.633221942834829D+02
0.265852193103D-04 0.000000000000D+00 0.000000000000D+00 0.159810249604D-02 0.575873079149D-07  5 3 21 25 23 3 2 0.10785401D+00 0.16591700D-01 0.71305825D+05 0.71305825D+05 0.71305825D+05 0.11773100D+01  1  2  1  4  5  2       -3 0.450441676672D-02 0.100000000000D+01
  </mgrwgt>
  </event>
  <event>
  4     66 0.49155423E-03 0.90029106E+02 0.75467711E-02 0.12237303E+00
        1 -1    0    0  501    0 0.00000000E+00 0.00000000E+00 0.20590606E+04 0.20590606E+04 0.32000000E+00 0.0000E+00 0.9000E+01
       -1 -1    0    0    0  501 0.00000000E+00 0.00000000E+00 -.81296335E+01 0.81359290E+01 0.32000000E+00 0.0000E+00 0.9000E+01
       25  1    1    2    0    0 0.17668401E+02 0.54286849E+02 0.80650261E+03 0.81812633E+03 0.12500000E+03 0.0000E+00 0.9000E+01
       23  1    1    2    0    0 -.17668401E+02 -.54286849E+02 0.12444283E+04 0.12490702E+04 0.91188000E+02 0.0000E+00 0.9000E+01
#aMCatNLO 1  0  0  2  1 0.19240196D+02 0.00000000D+00  -5  5  0 0.00000000D+00 0.00000000D+00 0.00000000D+00 0.00000000D+00 0.00000000D+00
  <mgrwgt>
 0.2800449160D+00    6    2    0
 0.129406107330839D+03 0.000000000000000D+00 0.000000000000000D+00 0.129406107330839D+03
 0.129406107330839D+03 0.000000000000000D+00 0.000000000000000D+00 -.129406107330839D+03
 0.143527830035378D+03 0.176684008017474D+02 0.542868493299759D+02 -.414246737778073D+02
 0.115284384626299D+03 -.176684008017474D+02 -.542868493299759D+02 0.414246737778073D+02
 0.000000000000000D+00 -.000000000000000D+00 0.000000000000000D+00 0.000000000000000D+00
 0.140236018679300D+03 0.000000000000000D+00 0.000000000000000D+00 0.140236018679300D+03
 0.138599999396967D+03 0.000000000000000D+00 0.000000000000000D+00 -.138599999396967D+03
 0.140186362745271D+03 0.195426114564788D+02 0.439237867175866D+02 -.414246737778073D+02
 0.119340028203318D+03 -.161184763158569D+02 -.628568382216779D+02 0.414246737778073D+02
 0.193096271276786D+02 -.342413514062188D+01 0.189330515040913D+02 0.163601928233312D+01
0.406477616945D-03 0.000000000000D+00 0.000000000000D+00 0.181461718946D-02 0.000000000000D+00  5 1 -1 25 23 21 0 0.31677904D+00 0.12511990D-02 0.15006826D+05 0.15006826D+05 0.15006826D+05 0.12478000D+01  1  2  2  2  5  2       -1 0.168916124835D+00 0.100000000000D+01
-.224995604777D-04 0.000000000000D+00 -.156098107708D-05 0.181461718946D-02 0.000000000000D+00  5 1 -1 25 23 21 2 0.31677904D+00 0.12511990D-02 0.15006826D+05 0.15006826D+05 0.15006826D+05 0.12478000D+01  1  2  3  2  5  2       -1 -.145578914366D-01 0.100000000000D+01
0.280461518427D-04 0.000000000000D+00 0.000000000000D+00 0.181461718946D-02 0.000000000000D+00  5 1 -1 25 23 21 2 0.31677904D+00 0.12511990D-02 0.15006826D+05 0.15006826D+05 0.15006826D+05 0.12478000D+01  1  2 15  2  5  2       -1 0.181467026498D-01 0.100000000000D+01
0.385016248720D-03 0.000000000000D+00 0.000000000000D+00 0.181461718946D-02 0.000000000000D+00  5 1 -1 25 23 21 2 0.31677904D+00 0.13885937D-02 0.17567664D+05 0.17567664D+05 0.17567664D+05 0.12400745D+01  1  2 12  2  5  2       -1 0.212262673019D+00 0.100000000000D+01
-.283826971608D-03 0.000000000000D+00 0.000000000000D+00 0.181461718946D-02 0.000000000000D+00  5 1 -1 25 23 21 2 0.31677904D+00 0.12511990D-02 0.15006826D+05 0.15006826D+05 0.15006826D+05 0.12478000D+01  1  2  4  2  5  2       -1 -.183644575792D+00 0.100000000000D+01
0.647856655137D-05 0.000000000000D+00 0.000000000000D+00 0.181461718946D-02 0.000000000000D+00  5 1 21 25 23 1 2 0.31677904D+00 0.13885937D-02 0.17567664D+05 0.17567664D+05 0.17567664D+05 0.12400745D+01  1  2 12  4  5  2       -1 0.789218827472D-01 0.100000000000D+01
  </mgrwgt>
  </event>
  <event>
  4     66 0.49155423E-03 0.57715764E+02 0.75467711E-02 0.12134532E+00
        1 -1    0    0  501    0 0.00000000E+00 0.00000000E+00 0.80950462E+02 0.80951094E+02 0.32000000E+00 0.0000E+00 0.9000E+01
       -1 -1    0    0    0  501 0.00000000E+00 0.00000000E+00 -.23769502E+03 0.23769524E+03 0.32000000E+00 0.0000E+00 0.9000E+01
       25  1    1    2    0    0 0.32788108E+01 -.34393834E+02 0.49971339E+01 0.12978312E+03 0.12500000E+03 0.0000E+00 0.9000E+01
       23  1    1    2    0    0 -.32788108E+01 0.34393834E+02 -.16174169E+03 0.18886321E+03 0.91188000E+02 0.0000E+00 0.9000E+01
#aMCatNLO 1  0  0  1  2 0.47694443D+02 0.00000000D+00  -5  5  0 0.00000000D+00 0.00000000D+00 0.00000000D+00 0.00000000D+00 0.00000000D+00
  <mgrwgt>
 0.1381629160D+00    9    2    0
 0.138714299307188D+03 0.000000000000000D+00 0.000000000000000D+00 0.138714299307188D+03
 0.138714299307188D+03 0.000000000000000D+00 0.000000000000000D+00 -.138714299307188D+03
 0.151888407334458D+03 0.327881082737156D+01 -.343938344792705D+02 0.790658069709608D+02
 0.125540191279918D+03 -.327881082737156D+01 0.343938344792705D+02 -.790658069709608D+02
 0.000000000000000D+00 0.000000000000000D+00 0.000000000000000D+00 0.000000000000000D+00
 0.166048557243459D+03 0.000000000000000D+00 0.000000000000000D+00 0.166048557243459D+03
 0.163227699743613D+03 0.000000000000000D+00 0.000000000000000D+00 -.163227699743613D+03
 0.154492783516921D+03 -.225379700178438D+02 -.385182844154787D+02 0.790658069709608D+02
 0.127005684067393D+03 -.245592344039197D+02 0.309941061324638D+02 -.790658069709608D+02
 0.477777894027593D+02 0.470972044217636D+02 0.752417828301486D+01 0.282085749984608D+01
0.290381361361D-03 0.000000000000D+00 0.000000000000D+00 0.136462086053D-02 0.000000000000D+00  5 1 -1 25 23 21 0 0.12453982D-01 0.36568530D-01 0.12905035D+05 0.12905035D+05 0.12905035D+05 0.12553400D+01  1  2  2  1  5  1        1 0.956431299585D-01 0.100000000000D+01
-.153498338953D-04 0.000000000000D+00 -.111514088679D-05 0.136462086053D-02 0.000000000000D+00  5 1 -1 25 23 21 2 0.12453982D-01 0.36568530D-01 0.12905035D+05 0.12905035D+05 0.12905035D+05 0.12553400D+01  1  2  3  1  5  1        1 -.796730485089D-02 0.100000000000D+01
0.199594324117D-04 0.000000000000D+00 0.000000000000D+00 0.136462086053D-02 0.000000000000D+00  5 1 -1 25 23 21 2 0.12453982D-01 0.36568530D-01 0.12905035D+05 0.12905035D+05 0.12905035D+05 0.12553400D+01  1  2 15  1  5  1        1 0.103599090231D-01 0.100000000000D+01
0.147519181617D-03 0.000000000000D+00 0.000000000000D+00 0.136462086053D-02 0.000000000000D+00  5 1 -1 25 23 21 2 0.15814760D-01 0.36568530D-01 0.19574168D+05 0.19574168D+05 0.19574168D+05 0.12348564D+01  1  2 12  1  5  1        1 0.549367264482D-01 0.100000000000D+01
-.161703360330D-03 0.000000000000D+00 0.000000000000D+00 0.136462086053D-02 0.000000000000D+00  5 1 -1 25 23 21 2 0.12453982D-01 0.36568530D-01 0.12905035D+05 0.12905035D+05 0.12905035D+05 0.12553400D+01  1  2  4  1  5  1        1 -.839318507256D-01 0.100000000000D+01
-.327641116366D-03 0.000000000000D+00 -.158591948010D-03 0.136462086053D-02 0.000000000000D+00  5 1 -1 25 23 21 2 0.17462301D-01 0.36568530D-01 0.12905035D+05 0.12905035D+05 0.12905035D+05 0.12553400D+01  1  2  5  1  5  1        1 -.110004488922D+00 0.100000000000D+01
0.368634161650D-03 0.000000000000D+00 0.149944748212D-03 0.136462086053D-02 0.000000000000D+00  5 1 -1 25 23 21 2 0.12453982D-01 0.36568530D-01 0.12905035D+05 0.12905035D+05 0.12905035D+05 0.12553400D+01  1  2  6  1  5  1        1 0.191338926816D+00 0.100000000000D+01
0.482750541281D-05 0.000000000000D+00 0.000000000000D+00 0.136462086053D-02 0.000000000000D+00  5 21 -1 25 23 -1 2 0.15814760D-01 0.36568530D-01 0.19574168D+05 0.19574168D+05 0.19574168D+05 0.12348564D+01  1  2 12  3  5  1        1 0.174045469333D-01 0.100000000000D+01
-.954115702581D-05 0.000000000000D+00 -.668085098957D-05 0.136462086053D-02 0.000000000000D+00  5 21 -1 25 23 -1 2 0.17462301D-01 0.36568530D-01 0.12905035D+05 0.12905035D+05 0.12905035D+05 0.12553400D+01  1  2  5  3  5  1        1 -.296166787236D-01 0.100000000000D+01
  </mgrwgt>
  </event>
  <event>
  5     66 0.49155423E-03 0.11544719E+03 0.75467711E-02 0.11940975E+00
        1 -1    0    0  501    0 0.00000000E+00 0.00000000E+00 0.64210605E+03 0.64210613E+03 0.32000000E+00 0.0000E+00 0.9000E+01
       21 -1    0    0  502  501 0.00000000E+00 0.00000000E+00 -.50661671E+02 0.50667222E+02 0.75000000E+00 0.0000E+00 0.9000E+01
       25  1    1    2    0    0 0.25007101E+01 -.76251646E+01 0.17337704E+03 0.21389015E+03 0.12500000E+03 0.0000E+00 0.9000E+01
       23  1    1    2    0    0 0.55024036E+02 0.46207044E+02 0.38501120E+03 0.40213382E+03 0.91188000E+02 0.0000E+00 0.9000E+01
        1  1    1    2  502    0 -.57524746E+02 -.38581879E+02 0.33056146E+02 0.76749391E+02 0.32000000E+00 0.0000E+00 0.9000E+01
#aMCatNLO 2  0  0  2  1 0.69265127D+02 0.00000000D+00  -5  5  0 0.00000000D+00 0.00000000D+00 0.00000000D+00 0.00000000D+00 0.00000000D+00
  <mgrwgt>
 0.5932265181D-01    2    2    0
 0.125389837158397D+03 0.000000000000000D+00 0.000000000000000D+00 0.125389837158397D+03
 0.125389837158397D+03 0.000000000000000D+00 0.000000000000000D+00 -.125389837158397D+03
 0.139963882435220D+03 -.283809450868747D+02 -.283375078903827D+02 -.485427233360316D+02
 0.110815791881573D+03 0.283809450868747D+02 0.283375078903827D+02 0.485427233360316D+02
 0.000000000000000D+00 -.000000000000000D+00 -.000000000000000D+00 -.000000000000000D+00
 0.142247166364961D+03 0.000000000000000D+00 0.000000000000000D+00 0.142247166364961D+03
 0.228700634905533D+03 0.000000000000000D+00 0.000000000000000D+00 -.228700634905533D+03
 0.134334629472306D+03 0.250071008751320D+01 -.762516463044121D+01 -.485427233360316D+02
 0.125834744000280D+03 0.550240362036114D+02 0.462070438851187D+02 0.485427233360316D+02
 0.110778427797909D+03 -.575247462911246D+02 -.385818792546774D+02 -.864534685405720D+02
-.351884640754D-05 0.000000000000D+00 0.000000000000D+00 0.180547135823D-02 0.000000000000D+00  5 1 21 25 23 1 2 0.87078987D-01 0.78739212D-02 0.24120758D+05 0.24120758D+05 0.24120758D+05 0.12249682D+01  1  2 13  4  5  2       -1 -.275483171258D-01 0.100000000000D+01
0.129608933138D-04 0.000000000000D+00 0.000000000000D+00 0.180547135823D-02 0.296379190514D-06  5 1 21 25 23 1 2 0.98785830D-01 0.77945246D-02 0.24120758D+05 0.24120758D+05 0.24120758D+05 0.12249682D+01  1  2  1  4  5  2       -1 0.868709689373D-01 0.100000000000D+01
  </mgrwgt>
  </event>
  <event>
  4     66 -.49155423E-03 0.12348592E+03 0.75467711E-02 0.11310232E+00
        3 -1    0    0  501    0 0.00000000E+00 0.00000000E+00 0.37387804E+03 0.37387838E+03 0.50000000E+00 0.0000E+00 0.9000E+01
       -3 -1    0    0    0  501 0.00000000E+00 0.00000000E+00 -.89990940E+02 0.89992329E+02 0.50000000E+00 0.0000E+00 0.9000E+01
       25  1    1    2    0    0 -.86824321E+02 0.81408283E+02 0.25995290E+03 0.31203570E+03 0.12500000E+03 0.0000E+00 0.9000E+01
       23  1    1    2    0    0 0.86824321E+02 -.81408283E+02 0.23934207E+02 0.15183501E+03 0.91188000E+02 0.0000E+00 0.9000E+01
#aMCatNLO 1  0  0  2  1 0.10922466D+03 0.00000000D+00  -5  5  0 0.00000000D+00 0.00000000D+00 0.00000000D+00 0.00000000D+00 0.00000000D+00
  <mgrwgt>
 -.1656526591D-01    7    2    0
 0.183428559454820D+03 0.000000000000000D+00 0.000000000000000D+00 0.183428559454820D+03
 0.183428559454820D+03 0.000000000000000D+00 0.000000000000000D+00 -.183428559454820D+03
 0.193391223771824D+03 -.868243207649169D+02 0.814082826060448D+02 0.872318421151863D+02
 0.173465895137816D+03 0.868243207649169D+02 -.814082826060448D+02 -.872318421151863D+02
 0.000000000000000D+00 0.000000000000000D+00 -.000000000000000D+00 -.000000000000000D+00
 0.193739497459141D+03 0.000000000000000D+00 0.000000000000000D+00 0.193739497459141D+03
 0.145857039564082D+04 0.000000000000000D+00 0.000000000000000D+00 -.145857039564082D+04
 0.227728345216921D+03 -.910174769715565D+02 0.142624064667084D+03 0.872318421151863D+02
 0.155043353003217D+03 0.835533006218992D+02 -.336547417588970D+02 -.872318421151863D+02
 0.126953819487982D+04 0.746417634965730D+01 -.108969322908187D+03 -.126483089818168D+04
0.565877368969D-03 0.000000000000D+00 0.000000000000D+00 0.121871118431D-02 0.000000000000D+00  5 3 -3 25 23 21 0 0.57519832D-01 0.13844893D-01 0.26007490D+05 0.26007490D+05 0.26007490D+05 0.12214623D+01  1  2  2  2  5  2       -3 0.172531817954D-01 0.100000000000D+01
-.308039635994D-04 0.000000000000D+00 -.217311809578D-05 0.121871118431D-02 0.000000000000D+00  5 3 -3 25 23 21 2 0.57519832D-01 0.13844893D-01 0.26007490D+05 0.26007490D+05 0.26007490D+05 0.12214623D+01  1  2  3  2  5  2       -3 -.140124351626D-02 0.100000000000D+01
0.388398270411D-04 0.000000000000D+00 0.000000000000D+00 0.121871118431D-02 0.000000000000D+00  5 3 -3 25 23 21 2 0.57519832D-01 0.13844893D-01 0.26007490D+05 0.26007490D+05 0.26007490D+05 0.12214623D+01  1  2 15  2  5  2       -3 0.176678743430D-02 0.100000000000D+01
0.263528104436D-02 0.000000000000D+00 0.000000000000D+00 0.121871118431D-02 0.000000000000D+00  5 3 -3 25 23 21 2 0.57519832D-01 0.10621493D+00 0.50122089D+05 0.50122089D+05 0.50122089D+05 0.11921769D+01  1  2 12  2  5  2       -3 0.217276862256D-02 0.100000000000D+01
-.105046723466D-01 0.000000000000D+00 -.320995943759D-03 0.121871118431D-02 0.000000000000D+00  5 3 -3 25 23 21 2 0.57519832D-01 0.11183450D+00 0.26007490D+05 0.26007490D+05 0.26007490D+05 0.12214623D+01  1  2  5  2  5  2       -3 -.798264617945D-02 0.100000000000D+01
0.653471454393D-03 0.000000000000D+00 0.000000000000D+00 0.121871118431D-02 0.000000000000D+00  5 3 21 25 23 3 2 0.57519832D-01 0.10621493D+00 0.50122089D+05 0.50122089D+05 0.50122089D+05 0.11921769D+01  1  2 12  4  5  2       -3 0.967601928021D-02 0.100000000000D+01
-.270095374191D-02 0.000000000000D+00 -.813433885655D-04 0.121871118431D-02 0.000000000000D+00  5 3 21 25 23 3 2 0.57519832D-01 0.11183450D+00 0.26007490D+05 0.26007490D+05 0.26007490D+05 0.12214623D+01  1  2  5  4  5  2       -3 -.380501333468D-01 0.100000000000D+01
  </mgrwgt>
  </event>
  <event>
  4     66 0.49155423E-03 0.88869024E+02 0.75467711E-02 0.12096483E+00
        1 -1    0    0  501    0 0.00000000E+00 0.00000000E+00 0.30121465E+03 0.30121482E+03 0.32000000E+00 0.0000E+00 0.9000E+01
       -1 -1    0    0    0  501 0.00000000E+00 0.00000000E+00 -.47578950E+02 0.47580026E+02 0.32000000E+00 0.0000E+00 0.9000E+01
       25  1    1    2    0    0 0.49410695E+02 -.13099118E+01 0.12506050E+03 0.18359810E+03 0.12500000E+03 0.0000E+00 0.9000E+01
       23  1    1    2    0    0 -.49410695E+02 0.13099118E+01 0.12857520E+03 0.16519675E+03 0.91188000E+02 0.0000E+00 0.9000E+01
#aMCatNLO 1  0  0  2  1 0.43457724D+02 0.00000000D+00  -5  5  0 0.00000000D+00 0.00000000D+00 0.00000000D+00 0.00000000D+00 0.00000000D+00
  <mgrwgt>
 0.1342450124D+00    9    2    0
 0.119715053876197D+03 0.000000000000000D+00 0.000000000000000D+00 0.119715053876197D+03
 0.119715053876197D+03 0.000000000000000D+00 0.000000000000000D+00 -.119715053876197D+03
 0.134979944170527D+03 0.494106947808386D+02 -.130991181609943D+01 -.123066120678048D+02
 0.104450163581866D+03 -.494106947808386D+02 0.130991181609943D+01 0.123066120678048D+02
 0.000000000000000D+00 0.000000000000000D+00 0.000000000000000D+00 -.000000000000000D+00
 0.136546567449280D+03 0.000000000000000D+00 0.000000000000000D+00 0.136546567449280D+03
 0.153410592969867D+03 0.000000000000000D+00 0.000000000000000D+00 -.153410592969867D+03
 0.132353590664820D+03 0.359174802875795D+02 -.212356980359660D+02 -.123066120678048D+02
 0.110988453063133D+03 -.602845997935875D+02 -.147478709136879D+02 0.123066120678048D+02
 0.466151166911934D+02 0.243671195060080D+02 0.359835689496539D+02 -.168640255205869D+02
0.124252451047D-03 0.000000000000D+00 0.000000000000D+00 0.213397058606D-02 0.000000000000D+00  5 1 -1 25 23 21 0 0.46340811D-01 0.73199344D-02 0.14177711D+05 0.14177711D+05 0.14177711D+05 0.12506236D+01  1  2  2  2  5  2       -1 0.100536740858D+00 0.100000000000D+01
-.690266910025D-05 0.000000000000D+00 -.477162128441D-06 0.213397058606D-02 0.000000000000D+00  5 1 -1 25 23 21 2 0.46340811D-01 0.73199344D-02 0.14177711D+05 0.14177711D+05 0.14177711D+05 0.12506236D+01  1  2  3  2  5  2       -1 -.873554705144D-02 0.100000000000D+01
0.859438681688D-05 0.000000000000D+00 0.000000000000D+00 0.213397058606D-02 0.000000000000D+00  5 1 -1 25 23 21 2 0.46340811D-01 0.73199344D-02 0.14177711D+05 0.14177711D+05 0.14177711D+05 0.12506236D+01  1  2 15  2  5  2       -1 0.108764695695D-01 0.100000000000D+01
0.697348848668D-04 0.000000000000D+00 0.000000000000D+00 0.213397058606D-02 0.000000000000D+00  5 1 -1 25 23 21 2 0.46340811D-01 0.97794485D-02 0.20383555D+05 0.20383555D+05 0.20383555D+05 0.12329188D+01  1  2 12  2  5  2       -1 0.560224082687D-01 0.100000000000D+01
-.773287867981D-04 0.000000000000D+00 0.000000000000D+00 0.213397058606D-02 0.000000000000D+00  5 1 -1 25 23 21 2 0.46340811D-01 0.73199344D-02 0.14177711D+05 0.14177711D+05 0.14177711D+05 0.12506236D+01  1  2  4  2  5  2       -1 -.978620365100D-01 0.100000000000D+01
-.135595976003D-03 0.000000000000D+00 -.517654122780D-04 0.213397058606D-02 0.000000000000D+00  5 1 -1 25 23 21 2 0.46340811D-01 0.10668557D-01 0.14177711D+05 0.14177711D+05 0.14177711D+05 0.12506236D+01  1  2  5  2  5  2       -1 -.971159863425D-01 0.100000000000D+01
0.147942099778D-03 0.000000000000D+00 0.482979018271D-04 0.213397058606D-02 0.000000000000D+00  5 1 -1 25 23 21 2 0.46340811D-01 0.73199344D-02 0.14177711D+05 0.14177711D+05 0.14177711D+05 0.12506236D+01  1  2  6  2  5  2       -1 0.187225427546D+00 0.100000000000D+01
0.262821915073D-05 0.000000000000D+00 0.000000000000D+00 0.213397058606D-02 0.000000000000D+00  5 1 21 25 23 1 2 0.46340811D-01 0.97794485D-02 0.20383555D+05 0.20383555D+05 0.20383555D+05 0.12329188D+01  1  2 12  4  5  2       -1 0.319574651306D-01 0.100000000000D+01
-.455128339042D-05 0.000000000000D+00 -.235839609032D-05 0.213397058606D-02 0.000000000000D+00  5 1 21 25 23 1 2 0.46340811D-01 0.10668557D-01 0.14177711D+05 0.14177711D+05 0.14177711D+05 0.12506236D+01  1  2  5  4  5  2       -1 -.486599290765D-01 0.100000000000D+01
  </mgrwgt>
  </event>
  <event>
  4     66 0.49155423E-03 0.56651135E+02 0.75467711E-02 0.11812188E+00
        1 -1    0    0  501    0 0.00000000E+00 0.00000000E+00 0.10619758E+04 0.10619759E+04 0.32000000E+00 0.0000E+00 0.9000E+01
       -1 -1    0    0    0  501 0.00000000E+00 0.00000000E+00 -.20470135E+02 0.20472636E+02 0.32000000E+00 0.0000E+00 0.9000E+01
       25  1    1    2    0    0 0.82411409E+02 0.38177144E+02 0.41431913E+03 0.44219281E+03 0.12500000E+03 0.0000E+00 0.9000E+01
       23  1    1    2    0    0 -.82411409E+02 -.38177144E+02 0.62718654E+03 0.64025569E+03 0.91188000E+02 0.0000E+00 0.9000E+01
#aMCatNLO 1  0  0  1  2 0.46514876D+02 0.00000000D+00  -5  5  0 0.00000000D+00 0.00000000D+00 0.00000000D+00 0.00000000D+00 0.00000000D+00
  <mgrwgt>
 0.2085870621D+00    9    2    0
 0.147445474039956D+03 0.000000000000000D+00 0.000000000000000D+00 0.147445474039956D+03
 0.147445474039956D+03 0.000000000000000D+00 0.000000000000000D+00 -.147445474039956D+03
 0.159839460195847D+03 0.824114093637600D+02 0.381771444315676D+02 -.409208783560377D+02
 0.135051487884065D+03 -.824114093637600D+02 -.381771444315676D+02 0.409208783560377D+02
 0.000000000000000D+00 0.000000000000000D+00 0.000000000000000D+00 0.000000000000000D+00
 0.192285454710909D+03 0.000000000000000D+00 0.000000000000000D+00 0.192285454710909D+03
 0.161842769585358D+03 0.000000000000000D+00 0.000000000000000D+00 -.161842769585358D+03
 0.148941153518847D+03 0.671381528687285D+02 0.194014781774602D+02 -.409208783560377D+02
 0.149595787225177D+03 -.964909553270057D+02 -.554853626299107D+02 0.409208783560377D+02
 0.555912835522429D+02 0.293528024582772D+02 0.360838844524504D+02 0.304426851255509D+02
0.273013953677D-03 0.000000000000D+00 0.000000000000D+00 0.163990770617D-02 0.000000000000D+00  5 1 -1 25 23 21 0 0.16338109D+00 0.31494476D-02 0.20052723D+05 0.20052723D+05 0.20052723D+05 0.12337002D+01  1  2  2  1  5  1        1 0.134918056595D+00 0.100000000000D+01
-.151373450619D-04 0.000000000000D+00 -.104844546834D-05 0.163990770617D-02 0.000000000000D+00  5 1 -1 25 23 21 2 0.16338109D+00 0.31494476D-02 0.20052723D+05 0.20052723D+05 0.20052723D+05 0.12337002D+01  1  2  3  1  5  1        1 -.113855550552D-01 0.100000000000D+01
0.188664828808D-04 0.000000000000D+00 0.000000000000D+00 0.163990770617D-02 0.000000000000D+00  5 1 -1 25 23 21 2 0.16338109D+00 0.31494476D-02 0.20052723D+05 0.20052723D+05 0.20052723D+05 0.12337002D+01  1  2 15  1  5  1        1 0.141904263039D-01 0.100000000000D+01
0.251585696570D-03 0.000000000000D+00 0.000000000000D+00 0.163990770617D-02 0.000000000000D+00  5 1 -1 25 23 21 2 0.21918883D+00 0.31494476D-02 0.27824660D+05 0.27824660D+05 0.27824660D+05 0.12183445D+01  1  2 12  1  5  1        1 0.104802844774D+00 0.100000000000D+01
-.275216874937D-03 0.000000000000D+00 0.000000000000D+00 0.163990770617D-02 0.000000000000D+00  5 1 -1 25 23 21 2 0.16338109D+00 0.31494476D-02 0.20052723D+05 0.20052723D+05 0.20052723D+05 0.12337002D+01  1  2  4  1  5  1        1 -.207004390063D+00 0.100000000000D+01
-.455832089735D-03 0.000000000000D+00 -.133200253476D-03 0.163990770617D-02 0.000000000000D+00  5 1 -1 25 23 21 2 0.22380979D+00 0.31494476D-02 0.20052723D+05 0.20052723D+05 0.20052723D+05 0.12337002D+01  1  2  5  1  5  1        1 -.185658230163D+00 0.100000000000D+01
0.480113452355D-03 0.000000000000D+00 0.126865646772D-03 0.163990770617D-02 0.000000000000D+00  5 1 -1 25 23 21 2 0.16338109D+00 0.31494476D-02 0.20052723D+05 0.20052723D+05 0.20052723D+05 0.12337002D+01  1  2  6  1  5  1        1 0.361117363855D+00 0.100000000000D+01
0.958049591583D-05 0.000000000000D+00 0.000000000000D+00 0.163990770617D-02 0.000000000000D+00  5 21 -1 25 23 -1 2 0.21918883D+00 0.31494476D-02 0.27824660D+05 0.27824660D+05 0.27824660D+05 0.12183445D+01  1  2 12  3  5  1        1 0.452227132605D-02 0.100000000000D+01
-.150248930982D-04 0.000000000000D+00 -.532986079127D-05 0.163990770617D-02 0.000000000000D+00  5 21 -1 25 23 -1 2 0.22380979D+00 0.31494476D-02 0.20052723D+05 0.20052723D+05 0.20052723D+05 0.12337002D+01  1  2  5  3  5  1        1 -.691572546441D-02 0.100000000000D+01
  </mgrwgt>
  </event>
  <event>
  4     66 0.49155423E-03 0.12841292E+03 0.75467711E-02 0.11960943E+00
        1 -1    0    0  501    0 0.00000000E+00 0.00000000E+00 0.63847014E+02 0.63847815E+02 0.32000000E+00 0.0000E+00 0.9000E+01
       -1 -1    0    0    0  501 0.00000000E+00 0.00000000E+00 -.26606873E+03 0.26606892E+03 0.32000000E+00 0.0000E+00 0.9000E+01
       25  1    1    2    0    0 0.22035477E+02 -.65090020E+02 -.83913550E+02 0.16549549E+03 0.12500000E+03 0.0000E+00 0.9000E+01
       23  1    1    2    0    0 -.22035477E+02 0.65090020E+02 -.11830816E+03 0.16442124E+03 0.91188000E+02 0.0000E+00 0.9000E+01
#aMCatNLO 1  0  0  2  2 0.46376477D+02 0.00000000D+00  -5  5  0 0.00000000D+00 0.00000000D+00 0.00000000D+00 0.00000000D+00 0.00000000D+00
  <mgrwgt>
 0.1316733065D+00    4    2    0
 0.130337475499418D+03 0.000000000000000D+00 0.000000000000000D+00 0.130337475499418D+03
 0.130337475499418D+03 0.000000000000000D+00 0.000000000000000D+00 -.130337475499418D+03
 0.144358286912235D+03 0.220354770217356D+02 -.650900204977989D+02 0.221820193908430D+02
 0.116316664086600D+03 -.220354770217356D+02 0.650900204977989D+02 -.221820193908430D+02
 0.000000000000000D+00 -.000000000000000D+00 0.000000000000000D+00 0.000000000000000D+00
 0.212269556838799D+03 0.000000000000000D+00 0.000000000000000D+00 0.212269556838799D+03
 0.139114925480375D+03 0.000000000000000D+00 0.000000000000000D+00 -.139114925480375D+03
 0.158850480322358D+03 0.304365330125817D+02 -.904988981842438D+02 0.221820193908430D+02
 0.105917734790166D+03 -.158779913887055D+02 0.464667903376647D+02 -.221820193908430D+02
 0.866162672066502D+02 -.145585416238762D+02 0.440321078465791D+02 0.731546313584241D+02
0.382788310864D-03 0.000000000000D+00 0.000000000000D+00 0.191262619265D-02 0.000000000000D+00  5 1 -1 25 23 21 0 0.98226940D-02 0.40933727D-01 0.16489879D+05 0.16489879D+05 0.16489879D+05 0.12431612D+01  1  2  2  2  5  2       -1 0.142593195768D+00 0.100000000000D+01
-.212602953614D-04 0.000000000000D+00 -.147000790419D-05 0.191262619265D-02 0.000000000000D+00  5 1 -1 25 23 21 2 0.98226940D-02 0.40933727D-01 0.16489879D+05 0.16489879D+05 0.16489879D+05 0.12431612D+01  1  2  3  2  5  2       -1 -.122395179450D-01 0.100000000000D+01
0.264529373105D-04 0.000000000000D+00 0.000000000000D+00 0.191262619265D-02 0.000000000000D+00  5 1 -1 25 23 21 2 0.98226940D-02 0.40933727D-01 0.16489879D+05 0.16489879D+05 0.16489879D+05 0.12431612D+01  1  2 15  2  5  2       -1 0.152289135878D-01 0.100000000000D+01
-.241607150635D-04 0.000000000000D+00 0.000000000000D+00 0.191262619265D-02 0.000000000000D+00  5 1 -1 25 23 21 2 0.98226940D-02 0.40933727D-01 0.16489879D+05 0.16489879D+05 0.16489879D+05 0.12431612D+01  1  2  4  2  5  2       -1 -.139092849162D-01 0.100000000000D+01
  </mgrwgt>
  </event>
  <event>
  4     66 0.49155423E-03 0.50086605E+02 0.75467711E-02 0.11895730E+00
        3 -1    0    0  501    0 0.00000000E+00 0.00000000E+00 0.13471771E+04 0.13471772E+04 0.50000000E+00 0.0000E+00 0.9000E+01
       -3 -1    0    0    0  501 0.00000000E+00 0.00000000E+00 -.19328520E+02 0.19334986E+02 0.50000000E+00 0.0000E+00 0.9000E+01
       25  1    1    2    0    0 0.10188202E+01 0.85862702E+02 0.10603627E+04 0.10711524E+04 0.12500000E+03 0.0000E+00 0.9000E+01
       23  1    1    2    0    0 -.10188202E+01 -.85862702E+02 0.26748585E+03 0.29535974E+03 0.91188000E+02 0.0000E+00 0.9000E+01
#aMCatNLO 1  0  0  1  2 0.39636959D+02 0.00000000D+00  -5  5  0 0.00000000D+00 0.00000000D+00 0.00000000D+00 0.00000000D+00 0.00000000D+00
  <mgrwgt>
 0.1005422548D-01    9    2    0
 0.161379741965672D+03 0.000000000000000D+00 0.000000000000000D+00 0.161379741965672D+03
 0.161379741965672D+03 0.000000000000000D+00 0.000000000000000D+00 -.161379741965672D+03
 0.172703574447625D+03 0.101882021062460D+01 0.858627019759449D+02 0.826322155200672D+02
 0.150055909483720D+03 -.101882021062460D+01 -.858627019759449D+02 -.826322155200672D+02
 0.000000000000000D+00 -.000000000000000D+00 -.000000000000000D+00 0.000000000000000D+00
 0.198231578379985D+03 0.000000000000000D+00 0.000000000000000D+00 0.198231578379985D+03
 0.173612812757709D+03 0.000000000000000D+00 0.000000000000000D+00 -.173612812757709D+03
 0.184541244755536D+03 0.195112315129783D+01 0.107696708829083D+03 0.826322155200672D+02
 0.140642969167263D+03 -.260182422619080D+00 -.680958346415987D+02 -.826322155200672D+02
 0.466601772148952D+02 -.169094072867875D+01 -.396008741874840D+02 0.246187656222765D+02
0.362904319229D-03 0.000000000000D+00 0.000000000000D+00 0.127579374268D-02 0.000000000000D+00  5 3 -3 25 23 21 0 0.20725852D+00 0.29741231D-02 0.19169356D+05 0.19169356D+05 0.19169356D+05 0.12358594D+01  1  2  2  1  5  1        3 0.644290438656D-02 0.100000000000D+01
-.195858226527D-04 0.000000000000D+00 -.139364814074D-05 0.127579374268D-02 0.000000000000D+00  5 3 -3 25 23 21 2 0.20725852D+00 0.29741231D-02 0.19169356D+05 0.19169356D+05 0.19169356D+05 0.12358594D+01  1  2  3  1  5  1        3 -.531091652906D-03 0.100000000000D+01
0.250009370802D-04 0.000000000000D+00 0.000000000000D+00 0.127579374268D-02 0.000000000000D+00  5 3 -3 25 23 21 2 0.20725852D+00 0.29741231D-02 0.19169356D+05 0.19169356D+05 0.19169356D+05 0.12358594D+01  1  2 15  1  5  1        3 0.677928583016D-03 0.100000000000D+01
0.410909745242D-03 0.000000000000D+00 0.000000000000D+00 0.127579374268D-02 0.000000000000D+00  5 3 -3 25 23 21 2 0.26110152D+00 0.29741231D-02 0.25353021D+05 0.25353021D+05 0.25353021D+05 0.12226453D+01  1  2 12  1  5  1        3 0.554525901415D-02 0.100000000000D+01
-.432247377691D-03 0.000000000000D+00 0.000000000000D+00 0.127579374268D-02 0.000000000000D+00  5 3 -3 25 23 21 2 0.20725852D+00 0.29741231D-02 0.19169356D+05 0.19169356D+05 0.19169356D+05 0.12358594D+01  1  2  4  1  5  1        3 -.117208747548D-01 0.100000000000D+01
-.774644868246D-03 0.000000000000D+00 -.207567179234D-03 0.127579374268D-02 0.000000000000D+00  5 3 -3 25 23 21 2 0.26365557D+00 0.29741231D-02 0.19169356D+05 0.19169356D+05 0.19169356D+05 0.12358594D+01  1  2  5  1  5  1        3 -.102389403619D-01 0.100000000000D+01
0.806985909172D-03 0.000000000000D+00 0.201697242702D-03 0.127579374268D-02 0.000000000000D+00  5 3 -3 25 23 21 2 0.20725852D+00 0.29741231D-02 0.19169356D+05 0.19169356D+05 0.19169356D+05 0.12358594D+01  1  2  6  1  5  1        3 0.218823323368D-01 0.100000000000D+01
0.131115517719D-04 0.000000000000D+00 0.000000000000D+00 0.127579374268D-02 0.000000000000D+00  5 21 -3 25 23 -3 2 0.26110152D+00 0.29741231D-02 0.25353021D+05 0.25353021D+05 0.25353021D+05 0.12226453D+01  1  2 12  3  5  1        3 0.289617708489D-02 0.100000000000D+01
-.222219415829D-04 0.000000000000D+00 -.682995840651D-05 0.127579374268D-02 0.000000000000D+00  5 21 -3 25 23 -3 2 0.26365557D+00 0.29741231D-02 0.19169356D+05 0.19169356D+05 0.19169356D+05 0.12358594D+01  1  2  5  3  5  1        3 -.489946915847D-02 0.100000000000D+01
  </mgrwgt>
  </event>
  <event>
  5     66 0.49155423E-03 0.13146371E+03 0.75467711E-02 0.12214203E+00
        1 -1    0    0  502    0 0.00000000E+00 0.00000000E+00 0.23286200E+03 0.23286222E+03 0.32000000E+00 0.0000E+00 0.9000E+01
       -1 -1    0    0    0  501 0.00000000E+00 0.00000000E+00 -.84358630E+02 0.84359237E+02 0.32000000E+00 0.0000E+00 0.9000E+01
       25  1    1    2    0    0 0.54347382E+02 0.53653523E+02 0.63207922E+02 0.15953865E+03 0.12500000E+03 0.0000E+00 0.9000E+01
       23  1    1    2    0    0 -.54029795E+02 -.48332761E+02 0.92456960E+02 0.14872396E+03 0.91188000E+02 0.0000E+00 0.9000E+01
       21  1    1    2  502  501 -.31758709E+00 -.53207619E+01 -.71615100E+01 0.89588556E+01 0.75000000E+00 0.0000E+00 0.9000E+01
#aMCatNLO 2  0  0  1  1 0.53302316D+01 0.00000000D+00  -5  5  0 0.00000000D+00 0.00000000D+00 0.00000000D+00 0.00000000D+00 0.00000000D+00
  <mgrwgt>
 0.1601700655D-01    4    2    0
 0.133009272122004D+03 0.000000000000000D+00 0.000000000000000D+00 0.133009272122004D+03
 0.133009272122004D+03 0.000000000000000D+00 0.000000000000000D+00 -.133009272122004D+03
 0.146748443345525D+03 0.541715418379920D+02 0.507075496631966D+02 -.201070655836139D+02
 0.119270100898484D+03 -.541715418379920D+02 -.507075496631966D+02 0.201070655836139D+02
 0.000000000000000D+00 -.000000000000000D+00 -.000000000000000D+00 -.000000000000000D+00
 0.133541752656975D+03 0.000000000000000D+00 0.000000000000000D+00 0.133541752656975D+03
 0.147079239274925D+03 0.000000000000000D+00 0.000000000000000D+00 -.147079239274925D+03
 0.147856797361656D+03 0.543473818947904D+02 0.536535229117706D+02 -.201070655836139D+02
 0.118215142628587D+03 -.540297948052157D+02 -.483327610386548D+02 0.201070655836139D+02
 0.145490519416566D+02 -.317587089574681D+00 -.532076187311581D+01 -.135374866179493D+02
-.120300154165D-08 0.000000000000D+00 0.000000000000D+00 0.188301167008D-02 0.000000000000D+00  5 1 -1 25 23 21 2 0.35679568D-01 0.11735931D-01 0.17282708D+05 0.17282708D+05 0.17282708D+05 0.12408695D+01  1  2  8  1  5  1        1 -.101783425536D-05 0.100000000000D+01
-.517503413094D-09 0.000000000000D+00 0.000000000000D+00 0.188301167008D-02 0.000000000000D+00  5 1 -1 25 23 21 2 0.39470080D-01 0.11735931D-01 0.17282708D+05 0.17282708D+05 0.17282708D+05 0.12408695D+01  1  2  9  1  5  1        1 -.386482417117D-06 0.100000000000D+01
0.514876887460D-09 0.000000000000D+00 0.000000000000D+00 0.188301167008D-02 0.000000000000D+00  5 1 -1 25 23 21 2 0.35679568D-01 0.11735931D-01 0.17282708D+05 0.17282708D+05 0.17282708D+05 0.12408695D+01  1  2 10  1  5  1        1 0.435626485261D-06 0.100000000000D+01
0.222665413138D-04 0.000000000000D+00 0.000000000000D+00 0.188301167008D-02 0.545371647403D-03  5 1 -1 25 23 21 2 0.35822405D-01 0.12977379D-01 0.17997036D+05 0.17997036D+05 0.17997036D+05 0.12389035D+01  1  2  1  1  5  1        1 0.160179752422D-01 0.100000000000D+01
  </mgrwgt>
  </event>
  <event>
  4     66 0.49155423E-03 0.12699874E+03 0.75467711E-02 0.12191255E+00
        1 -1    0    0  501    0 0.00000000E+00 0.00000000E+00 0.98927398E+03 0.98927404E+03 0.32000000E+00 0.0000E+00 0.9000E+01
       -1 -1    0    0    0  501 0.00000000E+00 0.00000000E+00 -.17438548E+02 0.17441484E+02 0.32000000E+00 0.0000E+00 0.9000E+01
       25  1    1    2    0    0 0.56093067E+02 -.34916716E+02 0.40966320E+03 0.43337575E+03 0.12500000E+03 0.0000E+00 0.9000E+01
       23  1    1    2    0    0 -.56093067E+02 0.34916716E+02 0.56217224E+03 0.57333976E+03 0.91188000E+02 0.0000E+00 0.9000E+01
#aMCatNLO 1  0  0  2  1 0.17060749D+02 0.00000000D+00  -5  5  0 0.00000000D+00 0.00000000D+00 0.00000000D+00 0.00000000D+00 0.00000000D+00
  <mgrwgt>
 0.1159111376D+00    4    2    0
 0.131350697554715D+03 0.000000000000000D+00 0.000000000000000D+00 0.131350697554715D+03
 0.131350697554715D+03 0.000000000000000D+00 0.000000000000000D+00 -.131350697554715D+03
 0.145263354267016D+03 0.560930671739071D+02 -.349167161638390D+02 -.333291590092207D+02
 0.117438040842414D+03 -.560930671739071D+02 0.349167161638390D+02 0.333291590092207D+02
 0.000000000000000D+00 -.000000000000000D+00 0.000000000000000D+00 0.000000000000000D+00
 0.160454141770318D+03 0.000000000000000D+00 0.000000000000000D+00 0.160454141770318D+03
 0.134151700444558D+03 0.000000000000000D+00 0.000000000000000D+00 -.134151700444558D+03
 0.149738224010718D+03 0.651835781149170D+02 -.379051979780947D+02 -.333291590092207D+02
 0.113516580567712D+03 -.489761713082554D+02 0.325770551693725D+02 0.333291590092207D+02
 0.313510376364455D+02 -.162074068066616D+02 0.532814280872219D+01 0.263024413257603D+02
0.192677998246D-03 0.000000000000D+00 0.000000000000D+00 0.184386634687D-02 0.000000000000D+00  5 1 -1 25 23 21 0 0.15219623D+00 0.26830834D-02 0.16128680D+05 0.16128680D+05 0.16128680D+05 0.12442466D+01  1  2  2  2  5  2       -1 0.135058654048D+00 0.100000000000D+01
-.106895578882D-04 0.000000000000D+00 -.739934246548D-06 0.184386634687D-02 0.000000000000D+00  5 1 -1 25 23 21 2 0.15219623D+00 0.26830834D-02 0.16128680D+05 0.16128680D+05 0.16128680D+05 0.12442466D+01  1  2  3  2  5  2       -1 -.116001320381D-01 0.100000000000D+01
0.133425742733D-04 0.000000000000D+00 0.000000000000D+00 0.184386634687D-02 0.000000000000D+00  5 1 -1 25 23 21 2 0.15219623D+00 0.26830834D-02 0.16128680D+05 0.16128680D+05 0.16128680D+05 0.12442466D+01  1  2 15  2  5  2       -1 0.144791416930D-01 0.100000000000D+01
-.202975125781D-04 0.000000000000D+00 0.000000000000D+00 0.184386634687D-02 0.000000000000D+00  5 1 -1 25 23 21 2 0.15219623D+00 0.26830834D-02 0.16128680D+05 0.16128680D+05 0.16128680D+05 0.12442466D+01  1  2  4  2  5  2       -1 -.220265261120D-01 0.100000000000D+01
  </mgrwgt>
  </event>
  <event>
  4     66 0.49155423E-03 0.67235550E+02 0.75467711E-02 0.12340571E+00
        1 -1    0    0  501    0 0.00000000E+00 0.00000000E+00 0.18032406E+04 0.18032407E+04 0.32000000E+00 0.0000E+00 0.9000E+01
       -1 -1    0    0    0  501 0.00000000E+00 0.00000000E+00 -.96146188E+01 0.96199425E+01 0.32000000E+00 0.0000E+00 0.9000E+01
       25  1    1    2    0    0 0.76261273E+00 -.29904583E+02 0.14616785E+04 0.14673186E+04 0.12500000E+03 0.0000E+00 0.9000E+01
       23  1    1    2    0    0 -.76261273E+00 0.29904583E+02 0.33194750E+03 0.34554198E+03 0.91188000E+02 0.0000E+00 0.9000E+01
#aMCatNLO 1  0  0  1  2 0.25178662D+02 0.00000000D+00  -5  5  0 0.00000000D+00 0.00000000D+00 0.00000000D+00 0.00000000D+00 0.00000000D+00
  <mgrwgt>
 0.3028472915D+00    9    2    0
 0.131690252239513D+03 0.000000000000000D+00 0.000000000000000D+00 0.131690252239513D+03
 0.131690252239513D+03 0.000000000000000D+00 0.000000000000000D+00 -.131690252239513D+03
 0.145567036078277D+03 0.762612734920554D+00 -.299045826747293D+02 0.683366398755540D+02
 0.117813468400749D+03 -.762612734920554D+00 0.299045826747293D+02 -.683366398755540D+02
 0.000000000000000D+00 0.000000000000000D+00 -.000000000000000D+00 0.000000000000000D+00
 0.146034295664019D+03 0.000000000000000D+00 0.000000000000000D+00 0.146034295664019D+03
 0.143822599689131D+03 0.000000000000000D+00 0.000000000000000D+00 -.143822599689131D+03
 0.143721927564135D+03 -.616603467725923D+01 -.179743186137378D+02 0.683366398755540D+02
 0.120859355101979D+03 -.647897266824978D+01 0.397474393558768D+02 -.683366398755540D+02
 0.252756126870364D+02 0.126450073455090D+02 -.217731207421389D+02 0.221169597488807D+01
0.257607735908D-03 0.000000000000D+00 0.000000000000D+00 0.152898301484D-02 0.000000000000D+00  5 1 -1 25 23 21 0 0.27742205D+00 0.14795838D-02 0.12599948D+05 0.12599948D+05 0.12599948D+05 0.12565485D+01  1  2  2  1  5  1        1 0.122055187284D+00 0.100000000000D+01
-.138675917465D-04 0.000000000000D+00 -.989281535563D-06 0.152898301484D-02 0.000000000000D+00  5 1 -1 25 23 21 2 0.27742205D+00 0.14795838D-02 0.12599948D+05 0.12599948D+05 0.12599948D+05 0.12565485D+01  1  2  3  1  5  1        1 -.103742547499D-01 0.100000000000D+01
0.176864475624D-04 0.000000000000D+00 0.000000000000D+00 0.152898301484D-02 0.000000000000D+00  5 1 -1 25 23 21 2 0.27742205D+00 0.14795838D-02 0.12599948D+05 0.12599948D+05 0.12599948D+05 0.12565485D+01  1  2 15  1  5  1        1 0.132311158265D-01 0.100000000000D+01
0.265812086114D-03 0.000000000000D+00 0.000000000000D+00 0.152898301484D-02 0.000000000000D+00  5 1 -1 25 23 21 2 0.31916775D+00 0.14795838D-02 0.15787889D+05 0.15787889D+05 0.15787889D+05 0.12452959D+01  1  2 12  1  5  1        1 0.131829506354D+00 0.100000000000D+01
-.227768412472D-03 0.000000000000D+00 0.000000000000D+00 0.152898301484D-02 0.000000000000D+00  5 1 -1 25 23 21 2 0.27742205D+00 0.14795838D-02 0.12599948D+05 0.12599948D+05 0.12599948D+05 0.12565485D+01  1  2  4  1  5  1        1 -.170392060723D+00 0.100000000000D+01
-.791832055186D-03 0.000000000000D+00 -.204379283513D-03 0.152898301484D-02 0.000000000000D+00  5 1 -1 25 23 21 2 0.32187111D+00 0.14795838D-02 0.12599948D+05 0.12599948D+05 0.12599948D+05 0.12565485D+01  1  2  5  1  5  1        1 -.389162304074D+00 0.100000000000D+01
0.815420428920D-03 0.000000000000D+00 0.202142978980D-03 0.152898301484D-02 0.000000000000D+00  5 1 -1 25 23 21 2 0.27742205D+00 0.14795838D-02 0.12599948D+05 0.12599948D+05 0.12599948D+05 0.12565485D+01  1  2  6  1  5  1        1 0.610010693456D+00 0.100000000000D+01
0.573801944878D-05 0.000000000000D+00 0.000000000000D+00 0.152898301484D-02 0.000000000000D+00  5 21 -1 25 23 -1 2 0.31916775D+00 0.14795838D-02 0.15787889D+05 0.15787889D+05 0.15787889D+05 0.12452959D+01  1  2 12  3  5  1        1 0.231850190211D-02 0.100000000000D+01
-.165318626529D-04 0.000000000000D+00 -.462708652180D-05 0.152898301484D-02 0.000000000000D+00  5 21 -1 25 23 -1 2 0.32187111D+00 0.14795838D-02 0.12599948D+05 0.12599948D+05 0.12599948D+05 0.12565485D+01  1  2  5  3  5  1        1 -.666909375119D-02 0.100000000000D+01
  </mgrwgt>
  </event>
  <event>
  5     66 0.49155423E-03 0.11483091E+03 0.75467711E-02 0.11687866E+00
        1 -1    0    0  501    0 0.00000000E+00 0.00000000E+00 0.31722738E+04 0.31722738E+04 0.32000000E+00 0.0000E+00 0.9000E+01
       21 -1    0    0  502  501 0.00000000E+00 0.00000000E+00 -.11589683E+02 0.11613925E+02 0.75000000E+00 0.0000E+00 0.9000E+01
       25  1    1    2    0    0 0.22012436E+02 0.90263149E+02 0.13136285E+04 0.13228290E+04 0.12500000E+03 0.0000E+00 0.9000E+01
       23  1    1    2    0    0 -.28369007E+02 0.15089869E+02 0.46313818E+03 0.47312232E+03 0.91188000E+02 0.0000E+00 0.9000E+01
        1  1    1    2  502    0 0.63565710E+01 -.10535302E+03 0.13839175E+04 0.13879364E+04 0.32000000E+00 0.0000E+00 0.9000E+01
#aMCatNLO 2  0  0  2  2 0.10554461D+03 0.00000000D+00  -5  5  0 0.00000000D+00 0.00000000D+00 0.00000000D+00 0.00000000D+00 0.00000000D+00
  <mgrwgt>
 0.1542634347D-01    1    2    0
 0.119793563780823D+03 0.000000000000000D+00 0.000000000000000D+00 0.119793563780823D+03
 0.119793563780823D+03 0.000000000000000D+00 0.000000000000000D+00 -.119793563780823D+03
 0.135048449822476D+03 0.257451092287556D+02 0.283982838961755D+02 0.338202693958161D+02
 0.104538677739169D+03 -.257451092287556D+02 -.283982838961755D+02 -.338202693958161D+02
 0.000000000000000D+00 0.000000000000000D+00 -.000000000000000D+00 0.000000000000000D+00
 0.232461153843439D+03 0.000000000000000D+00 0.000000000000000D+00 0.232461153843439D+03
 0.158324006009721D+03 0.000000000000000D+00 0.000000000000000D+00 -.158324006009721D+03
 0.159376265415030D+03 0.220124358564540D+02 0.902631487557470D+02 0.338202693958161D+02
 0.102428348970363D+03 -.283690068486273D+02 0.150898693570044D+02 -.338202693958161D+02
 0.128980545467767D+03 0.635657099217336D+01 -.105353018112751D+03 0.741371478337180D+02
0.110745733379D-04 0.000000000000D+00 0.000000000000D+00 0.202146239161D-02 0.130773682424D-06  5 1 21 25 23 1 2 0.48804343D+00 0.17848921D-02 0.32036514D+05 0.32036514D+05 0.32036514D+05 0.12119161D+01  1  2  1  4  5  2       -1 0.154263434749D-01 0.100000000000D+01
  </mgrwgt>
  </event>
  <event>
  4     66 0.49155423E-03 0.62288817E+02 0.75467711E-02 0.12058131E+00
        3 -1    0    0  501    0 0.00000000E+00 0.00000000E+00 0.22214265E+02 0.22219891E+02 0.50000000E+00 0.0000E+00 0.9000E+01
       -3 -1    0    0    0  501 0.00000000E+00 0.00000000E+00 -.89247630E+03 0.89247644E+03 0.50000000E+00 0.0000E+00 0.9000E+01
       25  1    1    2    0    0 0.61635874E+02 -.53138296E+02 -.35353579E+03 0.38371242E+03 0.12500000E+03 0.0000E+00 0.9000E+01
       23  1    1    2    0    0 -.61635874E+02 0.53138296E+02 -.51672624E+03 0.53098392E+03 0.91188000E+02 0.0000E+00 0.9000E+01
#aMCatNLO 1  0  0  2  1 0.19485577D+02 0.00000000D+00  -5  5  0 0.00000000D+00 0.00000000D+00 0.00000000D+00 0.00000000D+00 0.00000000D+00
  <mgrwgt>
 0.4345580551D-01    9    2    0
 0.140813145222778D+03 0.000000000000000D+00 0.000000000000000D+00 0.140813145222778D+03
 0.140813145222778D+03 0.000000000000000D+00 0.000000000000000D+00 -.140813145222778D+03
 0.153790890738715D+03 0.616358740911196D+02 -.531382960904878D+02 0.374697022650404D+02
 0.127835399706840D+03 -.616358740911196D+02 0.531382960904878D+02 -.374697022650404D+02
 0.000000000000000D+00 -.000000000000000D+00 0.000000000000000D+00 -.000000000000000D+00
 0.148915130682916D+03 0.000000000000000D+00 0.000000000000000D+00 0.148915130682916D+03
 0.153373589984832D+03 0.000000000000000D+00 0.000000000000000D+00 -.153373589984832D+03
 0.159217308918816D+03 0.720964680106143D+02 -.558862431365128D+02 0.374697022650404D+02
 0.123082275195191D+03 -.532503177151341D+02 0.509354512950579D+02 -.374697022650404D+02
 0.199891365537406D+02 -.188461502954802D+02 0.495079184145493D+01 -.445845930191590D+01
0.704990969885D-03 0.000000000000D+00 0.000000000000D+00 0.171527325744D-02 0.000000000000D+00  5 3 -3 25 23 21 0 0.34180227D-02 0.13730449D+00 0.18411402D+05 0.18411402D+05 0.18411402D+05 0.12378028D+01  1  2  2  2  5  2       -3 0.291144094722D-01 0.100000000000D+01
-.391007219492D-04 0.000000000000D+00 -.270735095274D-05 0.171527325744D-02 0.000000000000D+00  5 3 -3 25 23 21 2 0.34180227D-02 0.13730449D+00 0.18411402D+05 0.18411402D+05 0.18411402D+05 0.12378028D+01  1  2  3  2  5  2       -3 -.247407085187D-02 0.100000000000D+01
0.488428154693D-04 0.000000000000D+00 0.000000000000D+00 0.171527325744D-02 0.000000000000D+00  5 3 -3 25 23 21 2 0.34180227D-02 0.13730449D+00 0.18411402D+05 0.18411402D+05 0.18411402D+05 0.12378028D+01  1  2 15  2  5  2       -3 0.309049501012D-02 0.100000000000D+01
0.976352104787D-03 0.000000000000D+00 0.000000000000D+00 0.171527325744D-02 0.000000000000D+00  5 3 -3 25 23 21 2 0.34180227D-02 0.15321083D+00 0.21238880D+05 0.21238880D+05 0.21238880D+05 0.12309628D+01  1  2 12  2  5  2       -3 0.470265210433D-01 0.100000000000D+01
-.873470390230D-03 0.000000000000D+00 0.000000000000D+00 0.171527325744D-02 0.000000000000D+00  5 3 -3 25 23 21 2 0.34180227D-02 0.13730449D+00 0.18411402D+05 0.18411402D+05 0.18411402D+05 0.12378028D+01  1  2  4  2  5  2       -3 -.552682284294D-01 0.100000000000D+01
-.299641299479D-02 0.000000000000D+00 -.643656600025D-03 0.171527325744D-02 0.000000000000D+00  5 3 -3 25 23 21 2 0.34180227D-02 0.15550394D+00 0.18411402D+05 0.18411402D+05 0.18411402D+05 0.12378028D+01  1  2  5  2  5  2       -3 -.139331305557D+00 0.100000000000D+01
0.305776574475D-02 0.000000000000D+00 0.638702563347D-03 0.171527325744D-02 0.000000000000D+00  5 3 -3 25 23 21 2 0.34180227D-02 0.13730449D+00 0.18411402D+05 0.18411402D+05 0.18411402D+05 0.12378028D+01  1  2  6  2  5  2       -3 0.193477990273D+00 0.100000000000D+01
0.171581165633D-04 0.000000000000D+00 0.000000000000D+00 0.171527325744D-02 0.000000000000D+00  5 3 21 25 23 3 2 0.34180227D-02 0.15321083D+00 0.21238880D+05 0.21238880D+05 0.21238880D+05 0.12309628D+01  1  2 12  4  5  2       -3 0.150339713561D-01 0.100000000000D+01
-.554397140464D-04 0.000000000000D+00 -.125928513592D-04 0.171527325744D-02 0.000000000000D+00  5 3 21 25 23 3 2 0.34180227D-02 0.15550394D+00 0.18411402D+05 0.18411402D+05 0.18411402D+05 0.12378028D+01  1  2  5  4  5  2       -3 -.472139768019D-01 0.100000000000D+01
  </mgrwgt>
  </event>
  <event>
  4     66 0.49155423E-03 0.80359918E+02 0.75467711E-02 0.11949545E+00
        1 -1    0    0  501    0 0.00000000E+00 0.00000000E+00 0.20467963E+03 0.20467988E+03 0.32000000E+00 0.0000E+00 0.9000E+01
       -1 -1    0    0    0  501 0.00000000E+00 0.00000000E+00 -.11428006E+03 0.11428051E+03 0.32000000E+00 0.0000E+00 0.9000E+01
       25  1    1    2    0    0 0.61482682E+02 -.58613449E+02 0.11748901E+03 0.19142707E+03 0.12500000E+03 0.0000E+00 0.9000E+01
       23  1    1    2    0    0 -.61482682E+02 0.58613449E+02 -.27089447E+02 0.12753331E+03 0.91188000E+02 0.0000E+00 0.9000E+01
#aMCatNLO 1  0  0  2  1 0.31544157D+02 0.00000000D+00  -5  5  0 0.00000000D+00 0.00000000D+00 0.00000000D+00 0.00000000D+00 0.00000000D+00
  <mgrwgt>
 0.1388421923D+00    9    2    0
 0.152940877140473D+03 0.000000000000000D+00 0.000000000000000D+00 0.152940877140473D+03
 0.152940877140473D+03 0.000000000000000D+00 0.000000000000000D+00 -.152940877140473D+03
 0.164889528136646D+03 0.614826821740380D+02 -.586134488346882D+02 0.659386070334772D+02
 0.140992226144301D+03 -.614826821740380D+02 0.586134488346882D+02 -.659386070334772D+02
 0.000000000000000D+00 -.000000000000000D+00 -.000000000000000D+00 -.000000000000000D+00
 0.164662494990489D+03 0.000000000000000D+00 0.000000000000000D+00 0.164662494990489D+03
 0.176551852888252D+03 0.000000000000000D+00 0.000000000000000D+00 -.176551852888252D+03
 0.164016633357208D+03 0.704773294035618D+02 -.442888491661210D+02 0.659386070334772D+02
 0.143487320204056D+03 -.537029764008270D+02 0.710031699540111D+02 -.659386070334772D+02
 0.337103943174767D+02 -.167743530027348D+02 -.267143207878902D+02 -.118893578977633D+02
0.292002055770D-03 0.000000000000D+00 0.000000000000D+00 0.143930560087D-02 0.000000000000D+00  5 1 -1 25 23 21 0 0.31489227D-01 0.17581602D-01 0.19010111D+05 0.19010111D+05 0.19010111D+05 0.12362605D+01  1  2  2  2  5  2       -1 0.998821214671D-01 0.100000000000D+01
-.160102786327D-04 0.000000000000D+00 -.112136478006D-05 0.143930560087D-02 0.000000000000D+00  5 1 -1 25 23 21 2 0.31489227D-01 0.17581602D-01 0.19010111D+05 0.19010111D+05 0.19010111D+05 0.12362605D+01  1  2  3  2  5  2       -1 -.836990813812D-02 0.100000000000D+01
0.200961802954D-04 0.000000000000D+00 0.000000000000D+00 0.143930560087D-02 0.000000000000D+00  5 1 -1 25 23 21 2 0.31489227D-01 0.17581602D-01 0.19010111D+05 0.19010111D+05 0.19010111D+05 0.12362605D+01  1  2 15  2  5  2       -1 0.105059497625D-01 0.100000000000D+01
0.308461461981D-03 0.000000000000D+00 0.000000000000D+00 0.143930560087D-02 0.000000000000D+00  5 1 -1 25 23 21 2 0.31489227D-01 0.20888462D-01 0.23895227D+05 0.23895227D+05 0.23895227D+05 0.12254077D+01  1  2 12  2  5  2       -1 0.120834711653D+00 0.100000000000D+01
-.299465639334D-03 0.000000000000D+00 0.000000000000D+00 0.143930560087D-02 0.000000000000D+00  5 1 -1 25 23 21 2 0.31489227D-01 0.17581602D-01 0.19010111D+05 0.19010111D+05 0.19010111D+05 0.12362605D+01  1  2  4  2  5  2       -1 -.156555669595D+00 0.100000000000D+01
-.683042366336D-03 0.000000000000D+00 -.187749928852D-03 0.143930560087D-02 0.000000000000D+00  5 1 -1 25 23 21 2 0.31489227D-01 0.21761560D-01 0.19010111D+05 0.19010111D+05 0.19010111D+05 0.12362605D+01  1  2  5  2  5  2       -1 -.253672547902D+00 0.100000000000D+01
0.711043809270D-03 0.000000000000D+00 0.183558709350D-03 0.143930560087D-02 0.000000000000D+00  5 1 -1 25 23 21 2 0.31489227D-01 0.17581602D-01 0.19010111D+05 0.19010111D+05 0.19010111D+05 0.12362605D+01  1  2  6  2  5  2       -1 0.371721910798D+00 0.100000000000D+01
0.786219297858D-05 0.000000000000D+00 0.000000000000D+00 0.143930560087D-02 0.000000000000D+00  5 1 21 25 23 1 2 0.31489227D-01 0.20888462D-01 0.23895227D+05 0.23895227D+05 0.23895227D+05 0.12254077D+01  1  2 12  4  5  2       -1 0.388428417524D-01 0.100000000000D+01
-.181156118563D-04 0.000000000000D+00 -.564294276299D-05 0.143930560087D-02 0.000000000000D+00  5 1 21 25 23 1 2 0.31489227D-01 0.21761560D-01 0.19010111D+05 0.19010111D+05 0.19010111D+05 0.12362605D+01  1  2  5  4  5  2       -1 -.843472175155D-01 0.100000000000D+01
  </mgrwgt>
  </event>
  <event>
  4     66 0.49155423E-03 0.12855338E+03 0.75467711E-02 0.11889392E+00
        1 -1    0    0  501    0 0.00000000E+00 0.00000000E+00 0.12282278E+04 0.12282278E+04 0.32000000E+00 0.0000E+00 0.9000E+01
       -1 -1    0    0    0  501 0.00000000E+00 0.00000000E+00 -.13609008E+02 0.13612770E+02 0.32000000E+00 0.0000E+00 0.9000E+01
       25  1    1    2    0    0 -.61191253E+02 0.31836375E+02 0.73972472E+03 0.75337612E+03 0.12500000E+03 0.0000E+00 0.9000E+01
       23  1    1    2    0    0 0.61191253E+02 -.31836375E+02 0.47489408E+03 0.48846450E+03 0.91188000E+02 0.0000E+00 0.9000E+01
#aMCatNLO 1  0  0  2  1 0.56407619D+02 0.00000000D+00  -5  5  0 0.00000000D+00 0.00000000D+00 0.00000000D+00 0.00000000D+00 0.00000000D+00
  <mgrwgt>
 0.1461225618D+00    4    2    0
 0.129295490592450D+03 0.000000000000000D+00 0.000000000000000D+00 0.129295490592450D+03
 0.129295490592450D+03 0.000000000000000D+00 0.000000000000000D+00 -.129295490592450D+03
 0.143429294916379D+03 -.611912525632601D+02 0.318363753894412D+02 0.137491254998786D+02
 0.115161686268522D+03 0.611912525632601D+02 -.318363753894412D+02 -.137491254998786D+02
 0.000000000000000D+00 0.000000000000000D+00 -.000000000000000D+00 0.000000000000000D+00
 0.199479442540510D+03 0.000000000000000D+00 0.000000000000000D+00 0.199479442540510D+03
 0.144182927480625D+03 0.000000000000000D+00 0.000000000000000D+00 -.144182927480625D+03
 0.161845549456193D+03 -.900819992748795D+02 0.475938739062739D+02 0.137491254998786D+02
 0.102826162389589D+03 0.405612142948395D+02 -.205844060076287D+02 -.137491254998786D+02
 0.789906581753529D+02 0.495207849800400D+02 -.270094678986452D+02 0.552965150598854D+02
0.242792476528D-03 0.000000000000D+00 0.000000000000D+00 0.195563746265D-02 0.000000000000D+00  5 1 -1 25 23 21 0 0.18895842D+00 0.20939861D-02 0.16525972D+05 0.16525972D+05 0.16525972D+05 0.12430542D+01  1  2  2  2  5  2       -1 0.165562096995D+00 0.100000000000D+01
-.134879275311D-04 0.000000000000D+00 -.932387038594D-06 0.195563746265D-02 0.000000000000D+00  5 1 -1 25 23 21 2 0.18895842D+00 0.20939861D-02 0.16525972D+05 0.16525972D+05 0.16525972D+05 0.12430542D+01  1  2  3  2  5  2       -1 -.142118640926D-01 0.100000000000D+01
0.168025055372D-04 0.000000000000D+00 0.000000000000D+00 0.195563746265D-02 0.000000000000D+00  5 1 -1 25 23 21 2 0.18895842D+00 0.20939861D-02 0.16525972D+05 0.16525972D+05 0.16525972D+05 0.12430542D+01  1  2 15  2  5  2       -1 0.177043452050D-01 0.100000000000D+01
-.217638848830D-04 0.000000000000D+00 0.000000000000D+00 0.195563746265D-02 0.000000000000D+00  5 1 -1 25 23 21 2 0.18895842D+00 0.20939861D-02 0.16525972D+05 0.16525972D+05 0.16525972D+05 0.12430542D+01  1  2  4  2  5  2       -1 -.229320163065D-01 0.100000000000D+01
  </mgrwgt>
  </event>
  <event>
  4     66 0.49155423E-03 0.12766235E+03 0.75467711E-02 0.11355007E+00
        1 -1    0    0  501    0 0.00000000E+00 0.00000000E+00 0.22261534E+04 0.22261534E+04 0.32000000E+00 0.0000E+00 0.9000E+01
       -1 -1    0    0    0  501 0.00000000E+00 0.00000000E+00 -.73324492E+01 0.73394285E+01 0.32000000E+00 0.0000E+00 0.9000E+01
       25  1    1    2    0    0 -.14479820E+02 -.65747954E+02 0.12836643E+04 0.12914919E+04 0.12500000E+03 0.0000E+00 0.9000E+01
       23  1    1    2    0    0 0.14479820E+02 0.65747954E+02 0.93515669E+03 0.94200092E+03 0.91188000E+02 0.0000E+00 0.9000E+01
#aMCatNLO 1  0  0  1  1 0.14302856D+03 0.00000000D+00  -5  5  0 0.00000000D+00 0.00000000D+00 0.00000000D+00 0.00000000D+00 0.00000000D+00
  <mgrwgt>
 0.1626290290D+00    5    2    0
 0.127792708774544D+03 0.000000000000000D+00 0.000000000000000D+00 0.127792708774544D+03
 0.127792708774544D+03 0.000000000000000D+00 0.000000000000000D+00 -.127792708774544D+03
 0.142092719952991D+03 -.144798201463853D+02 -.657479539720066D+02 0.573431954658400D+01
 0.113492697596097D+03 0.144798201463853D+02 0.657479539720066D+02 -.573431954658400D+01
 0.000000000000000D+00 0.000000000000000D+00 -.000000000000000D+00 0.000000000000000D+00
 0.265784794441887D+03 0.000000000000000D+00 0.000000000000000D+00 0.265784794441887D+03
 0.189295843181117D+03 0.000000000000000D+00 0.000000000000000D+00 -.189295843181117D+03
 0.150080135330794D+03 -.789539471781810D+02 -.251483364307069D+02 0.573431954658400D+01
 0.142803928173311D+03 -.420774571942058D+02 0.101362299367840D+03 -.573431954658400D+01
 0.162196574118899D+03 0.121031404372387D+03 -.762139629371331D+02 0.764889512607700D+02
0.423562785679D-03 0.000000000000D+00 0.000000000000D+00 0.199417471954D-02 0.000000000000D+00  5 1 -1 25 23 21 0 0.34248567D+00 0.11286077D-02 0.16297676D+05 0.16297676D+05 0.16297676D+05 0.12437354D+01  1  2  2  1  5  1        1 0.159717054401D+00 0.100000000000D+01
-.235312360706D-04 0.000000000000D+00 -.162659262365D-05 0.199417471954D-02 0.000000000000D+00  5 1 -1 25 23 21 2 0.34248567D+00 0.11286077D-02 0.16297676D+05 0.16297676D+05 0.16297676D+05 0.12437354D+01  1  2  3  1  5  1        1 -.137256909179D-01 0.100000000000D+01
0.292804694239D-04 0.000000000000D+00 0.000000000000D+00 0.199417471954D-02 0.000000000000D+00  5 1 -1 25 23 21 2 0.34248567D+00 0.11286077D-02 0.16297676D+05 0.16297676D+05 0.16297676D+05 0.12437354D+01  1  2 15  1  5  1        1 0.170791994113D-01 0.100000000000D+01
-.989290692407D-04 0.000000000000D+00 -.101627800221D-03 0.199417471954D-02 0.000000000000D+00  5 1 -1 25 23 21 2 0.75354527D+00 0.11286077D-02 0.16297676D+05 0.16297676D+05 0.16297676D+05 0.12437354D+01  1  2  5  1  5  1        1 -.440808007151D-03 0.100000000000D+01
-.205430510894D-05 0.000000000000D+00 -.868637603757D-05 0.199417471954D-02 0.000000000000D+00  5 21 -1 25 23 -1 2 0.75354527D+00 0.11286077D-02 0.16297676D+05 0.16297676D+05 0.16297676D+05 0.12437354D+01  1  2  5  3  5  1        1 -.725845497454D-06 0.100000000000D+01
  </mgrwgt>
  </event>
  <event>
  5     66 -.49155423E-03 0.12789912E+03 0.75467711E-02 0.12205094E+00
        3 -1    0    0  502    0 0.00000000E+00 0.00000000E+00 0.67505668E+02 0.67507519E+02 0.50000000E+00 0.0000E+00 0.9000E+01
       -3 -1    0    0    0  501 0.00000000E+00 0.00000000E+00 -.27037087E+03 0.27037133E+03 0.50000000E+00 0.0000E+00 0.9000E+01
       25  1    1    2    0    0 -.58526811E+02 0.36675767E+02 -.11393749E+03 0.18269442E+03 0.12500000E+03 0.0000E+00 0.9000E+01
       23  1    1    2    0    0 0.48995023E+02 -.46149442E+02 -.82986306E+02 0.14047157E+03 0.91188000E+02 0.0000E+00 0.9000E+01
       21  1    1    2  502  501 0.95317880E+01 0.94736751E+01 -.59414046E+01 0.14712861E+02 0.75000000E+00 0.0000E+00 0.9000E+01
#aMCatNLO 2  0  0  1  2 0.13438955D+02 0.00000000D+00  -5  5  0 0.00000000D+00 0.00000000D+00 0.00000000D+00 0.00000000D+00 0.00000000D+00
  <mgrwgt>
 -.9681835964D-02    2    2    0
 0.127942046853224D+03 0.000000000000000D+00 0.000000000000000D+00 0.127942046853224D+03
 0.127942046853224D+03 0.000000000000000D+00 0.000000000000000D+00 -.127942046853224D+03
 0.142225366597956D+03 -.532208653989516D+02 0.419493637287992D+02 -.329321618762963D+01
 0.113658727108493D+03 0.532208653989516D+02 -.419493637287992D+02 0.329321618762963D+01
 0.000000000000000D+00 0.000000000000000D+00 0.000000000000000D+00 0.000000000000000D+00
 0.137009953530881D+03 0.000000000000000D+00 0.000000000000000D+00 0.137009953530881D+03
 0.133196372627709D+03 0.000000000000000D+00 0.000000000000000D+00 -.133196372627709D+03
 0.142850777987297D+03 -.585268110013177D+02 0.366757671049100D+02 -.329321618762963D+01
 0.113385977601310D+03 0.489950230218276D+02 -.461494422375482D+02 0.329321618762963D+01
 0.139695705699839D+02 0.953178797949008D+01 0.947367513263816D+01 0.381358090317236D+01
-.505327310550D-03 0.000000000000D+00 0.000000000000D+00 0.199378221807D-02 0.000000000000D+00  5 3 -3 25 23 21 2 0.10572743D-01 0.39951845D-01 0.18169680D+05 0.18169680D+05 0.18169680D+05 0.12384415D+01  1  2 13  1  5  1        3 -.747378495354D-01 0.100000000000D+01
0.461503311401D-03 0.000000000000D+00 0.000000000000D+00 0.199378221807D-02 0.905859783242D-04  5 3 -3 25 23 21 2 0.10384889D-01 0.41592588D-01 0.18169680D+05 0.18169680D+05 0.18169680D+05 0.12384415D+01  1  2  1  1  5  1        3 0.650560135710D-01 0.100000000000D+01
  </mgrwgt>
  </event>
  <event>
  4     66 0.49155423E-03 0.12977165E+03 0.75467711E-02 0.10921502E+00
        1 -1    0    0  501    0 0.00000000E+00 0.00000000E+00 0.10398335E+04 0.10398335E+04 0.32000000E+00 0.0000E+00 0.9000E+01
       -1 -1    0    0    0  501 0.00000000E+00 0.00000000E+00 -.28433377E+02 0.28435178E+02 0.32000000E+00 0.0000E+00 0.9000E+01
       25  1    1    2    0    0 -.54030259E+01 0.70990588E+02 0.88620590E+03 0.89780552E+03 0.12500000E+03 0.0000E+00 0.9000E+01
       23  1    1    2    0    0 0.54030259E+01 -.70990588E+02 0.12519418E+03 0.17046317E+03 0.91188000E+02 0.0000E+00 0.9000E+01
#aMCatNLO 1  0  0  2  2 0.22865695D+03 0.00000000D+00  -5  5  0 0.00000000D+00 0.00000000D+00 0.00000000D+00 0.00000000D+00 0.00000000D+00
  <mgrwgt>
 0.8176051991D-01    5    2    0
 0.171950473032534D+03 0.000000000000000D+00 0.000000000000000D+00 0.171950473032534D+03
 0.171950473032534D+03 0.000000000000000D+00 0.000000000000000D+00 -.171950473032534D+03
 0.182578167924971D+03 -.540302591930476D+01 0.709905877128831D+02 0.112431895696611D+03
 0.161322778140097D+03 0.540302591930476D+01 -.709905877128831D+02 -.112431895696611D+03
 0.000000000000000D+00 -.000000000000000D+00 0.000000000000000D+00 -.000000000000000D+00
 0.224365350164393D+03 0.000000000000000D+00 0.000000000000000D+00 0.224365350164393D+03
 0.937704814739954D+03 0.000000000000000D+00 0.000000000000000D+00 -.937704814739954D+03
 0.179110519101784D+03 0.593758463131503D+02 -.170045804880363D+02 0.112431895696611D+03
 0.233868733843464D+03 0.761822937824438D+02 -.167136651485115D+03 -.112431895696611D+03
 0.749090911959099D+03 -.135558140095594D+03 0.184141231973151D+03 -.713339464575561D+03
0.353750457051D-03 0.000000000000D+00 0.000000000000D+00 0.995184516949D-03 0.000000000000D+00  5 1 -1 25 23 21 0 0.15997452D+00 0.43745080D-02 0.16840681D+05 0.16840681D+05 0.16840681D+05 0.12421323D+01  1  2  2  2  5  2       -1 0.111736062662D+00 0.100000000000D+01
-.177602538976D-04 0.000000000000D+00 -.135849489971D-05 0.995184516949D-03 0.000000000000D+00  5 1 -1 25 23 21 2 0.15997452D+00 0.43745080D-02 0.16840681D+05 0.16840681D+05 0.16840681D+05 0.12421323D+01  1  2  3  2  5  2       -1 -.865528208757D-02 0.100000000000D+01
0.242037819644D-04 0.000000000000D+00 0.000000000000D+00 0.995184516949D-03 0.000000000000D+00  5 1 -1 25 23 21 2 0.15997452D+00 0.43745080D-02 0.16840681D+05 0.16840681D+05 0.16840681D+05 0.12421323D+01  1  2 15  2  5  2       -1 0.117954710386D-01 0.100000000000D+01
-.320866812780D-03 0.000000000000D+00 -.181237764603D-03 0.995184516949D-03 0.000000000000D+00  5 1 -1 25 23 21 2 0.15997452D+00 0.30807894D-01 0.16840681D+05 0.16840681D+05 0.16840681D+05 0.12421323D+01  1  2  5  2  5  2       -1 -.758108186191D-02 0.100000000000D+01
-.938110959489D-04 0.000000000000D+00 -.432332071335D-04 0.995184516949D-03 0.000000000000D+00  5 1 21 25 23 1 2 0.15997452D+00 0.30807894D-01 0.16840681D+05 0.16840681D+05 0.16840681D+05 0.12421323D+01  1  2  5  4  5  2       -1 -.255346498397D-01 0.100000000000D+01
  </mgrwgt>
  </event>
  <event>
  4     66 0.49155423E-03 0.14525449E+03 0.75467711E-02 0.10740990E+00
        1 -1    0    0  501    0 0.00000000E+00 0.00000000E+00 0.24112338E+03 0.24112359E+03 0.32000000E+00 0.0000E+00 0.9000E+01
       -1 -1    0    0    0  501 0.00000000E+00 0.00000000E+00 -.88420075E+02 0.88420654E+02 0.32000000E+00 0.0000E+00 0.9000E+01
       25  1    1    2    0    0 -.92110736E+02 0.28330811E+02 0.66167131E+02 0.17114354E+03 0.12500000E+03 0.0000E+00 0.9000E+01
       23  1    1    2    0    0 0.92110736E+02 -.28330811E+02 0.86536174E+02 0.15840070E+03 0.91188000E+02 0.0000E+00 0.9000E+01
#aMCatNLO 1  0  0  1  2 0.25819302D+03 0.00000000D+00  -5  5  0 0.00000000D+00 0.00000000D+00 0.00000000D+00 0.00000000D+00 0.00000000D+00
  <mgrwgt>
 0.1203999938D+00    5    2    0
 0.146014648938510D+03 0.000000000000000D+00 0.000000000000000D+00 0.146014648938510D+03
 0.146014648938510D+03 0.000000000000000D+00 0.000000000000000D+00 -.146014648938510D+03
 0.158530086103788D+03 -.921107359461529D+02 0.283308109992641D+02 -.148244956628025D+02
 0.133499211773233D+03 0.921107359461529D+02 -.283308109992641D+02 0.148244956628025D+02
 0.000000000000000D+00 -.000000000000000D+00 0.000000000000000D+00 0.000000000000000D+00
 0.688061482306756D+03 0.000000000000000D+00 0.000000000000000D+00 0.688061482306756D+03
 0.228694503771791D+03 0.000000000000000D+00 0.000000000000000D+00 -.228694503771791D+03
 0.144337350468745D+03 -.262573140403485D+02 -.655672061938542D+02 -.148244956628025D+02
 0.245463555505277D+03 0.174509805593927D+03 -.145820670061572D+03 0.148244956628025D+02
 0.526955080104524D+03 -.148252491553578D+03 0.211387876255426D+03 0.459366978534965D+03
0.284242035673D-03 0.000000000000D+00 0.000000000000D+00 0.174923969874D-02 0.000000000000D+00  5 1 -1 25 23 21 0 0.37095966D-01 0.13603149D-01 0.21098868D+05 0.21098868D+05 0.21098868D+05 0.12312769D+01  1  2  2  1  5  1        1 0.119087701061D+00 0.100000000000D+01
-.157907011176D-04 0.000000000000D+00 -.109156425963D-05 0.174923969874D-02 0.000000000000D+00  5 1 -1 25 23 21 2 0.37095966D-01 0.13603149D-01 0.21098868D+05 0.21098868D+05 0.21098868D+05 0.12312769D+01  1  2  3  1  5  1        1 -.100297815321D-01 0.100000000000D+01
0.196019200764D-04 0.000000000000D+00 0.000000000000D+00 0.174923969874D-02 0.000000000000D+00  5 1 -1 25 23 21 2 0.37095966D-01 0.13603149D-01 0.21098868D+05 0.21098868D+05 0.21098868D+05 0.12312769D+01  1  2 15  1  5  1        1 0.124505539375D-01 0.100000000000D+01
-.111643742473D-04 0.000000000000D+00 -.155046801890D-03 0.174923969874D-02 0.000000000000D+00  5 1 -1 25 23 21 2 0.22880200D+00 0.13603149D-01 0.21098868D+05 0.21098868D+05 0.21098868D+05 0.12312769D+01  1  2  5  1  5  1        1 -.479726568405D-03 0.100000000000D+01
-.132411747534D-04 0.000000000000D+00 -.345714817111D-04 0.174923969874D-02 0.000000000000D+00  5 21 -1 25 23 -1 2 0.22880200D+00 0.13603149D-01 0.21098868D+05 0.21098868D+05 0.21098868D+05 0.12312769D+01  1  2  5  3  5  1        1 -.628753130862D-03 0.100000000000D+01
  </mgrwgt>
  </event>
  <event>
  4     66 0.49155423E-03 0.98798906E+02 0.75467711E-02 0.11381796E+00
        1 -1    0    0  501    0 0.00000000E+00 0.00000000E+00 0.11598100E+03 0.11598145E+03 0.32000000E+00 0.0000E+00 0.9000E+01
       -1 -1    0    0    0  501 0.00000000E+00 0.00000000E+00 -.35834702E+03 0.35834716E+03 0.32000000E+00 0.0000E+00 0.9000E+01
       25  1    1    2    0    0 0.10540240E+03 0.11249050E+03 -.37093392E+02 0.20190269E+03 0.12500000E+03 0.0000E+00 0.9000E+01
       23  1    1    2    0    0 -.10540240E+03 -.11249050E+03 -.20527262E+03 0.27242591E+03 0.91188000E+02 0.0000E+00 0.9000E+01
#aMCatNLO 1  0  0  1  2 0.48529787D+02 0.00000000D+00  -5  5  0 0.00000000D+00 0.00000000D+00 0.00000000D+00 0.00000000D+00 0.00000000D+00
  <mgrwgt>
 0.1423071774D+00    9    2    0
 0.203866587947378D+03 0.000000000000000D+00 0.000000000000000D+00 0.203866587947378D+03
 0.203866587947378D+03 0.000000000000000D+00 0.000000000000000D+00 -.203866587947378D+03
 0.212830475470093D+03 0.105402396760662D+03 0.112490499675653D+03 0.768637335071357D+02
 0.194902700424663D+03 -.105402396760662D+03 -.112490499675653D+03 -.768637335071357D+02
 0.000000000000000D+00 -.000000000000000D+00 -.000000000000000D+00 0.000000000000000D+00
 0.261293849343686D+03 0.000000000000000D+00 0.000000000000000D+00 0.261293849343686D+03
 0.215821771525163D+03 0.000000000000000D+00 0.000000000000000D+00 -.215821771525163D+03
 0.231712971645852D+03 0.116311512330650D+03 0.136489925634284D+03 0.768637335071357D+02
 0.178898137489120D+03 -.962293079041835D+02 -.923102325026977D+02 -.768637335071357D+02
 0.665045117338768D+02 -.200822044264667D+02 -.441796931315859D+02 0.454720778185236D+02
0.107212302843D-02 0.000000000000D+00 0.000000000000D+00 0.126223049261D-02 0.000000000000D+00  5 1 -1 25 23 21 0 0.17843276D-01 0.55130356D-01 0.35640202D+05 0.35640202D+05 0.35640202D+05 0.12071234D+01  1  2  2  1  5  1        1 0.108064134893D+00 0.100000000000D+01
-.591346770325D-04 0.000000000000D+00 -.411723472564D-05 0.126223049261D-02 0.000000000000D+00  5 1 -1 25 23 21 2 0.17843276D-01 0.55130356D-01 0.35640202D+05 0.35640202D+05 0.35640202D+05 0.12071234D+01  1  2  3  1  5  1        1 -.868525442765D-02 0.100000000000D+01
0.739173216066D-04 0.000000000000D+00 0.000000000000D+00 0.126223049261D-02 0.000000000000D+00  5 1 -1 25 23 21 2 0.17843276D-01 0.55130356D-01 0.35640202D+05 0.35640202D+05 0.35640202D+05 0.12071234D+01  1  2 15  1  5  1        1 0.108564175367D-01 0.100000000000D+01
0.174950988358D-02 0.000000000000D+00 0.000000000000D+00 0.126223049261D-02 0.000000000000D+00  5 1 -1 25 23 21 2 0.23284542D-01 0.55130356D-01 0.45938818D+05 0.45938818D+05 0.45938818D+05 0.11959426D+01  1  2 12  1  5  1        1 0.179473315097D+00 0.100000000000D+01
-.182438120440D-02 0.000000000000D+00 0.000000000000D+00 0.126223049261D-02 0.000000000000D+00  5 1 -1 25 23 21 2 0.17843276D-01 0.55130356D-01 0.35640202D+05 0.35640202D+05 0.35640202D+05 0.12071234D+01  1  2  4  1  5  1        1 -.267951322783D+00 0.100000000000D+01
-.268860297788D-02 0.000000000000D+00 -.638041995468D-03 0.126223049261D-02 0.000000000000D+00  5 1 -1 25 23 21 2 0.24069178D-01 0.55130356D-01 0.35640202D+05 0.35640202D+05 0.35640202D+05 0.12071234D+01  1  2  5  1  5  1        1 -.269163025687D+00 0.100000000000D+01
0.278159643678D-02 0.000000000000D+00 0.610492176126D-03 0.126223049261D-02 0.000000000000D+00  5 1 -1 25 23 21 2 0.17843276D-01 0.55130356D-01 0.35640202D+05 0.35640202D+05 0.35640202D+05 0.12071234D+01  1  2  6  1  5  1        1 0.408539861563D+00 0.100000000000D+01
0.619967885649D-04 0.000000000000D+00 0.000000000000D+00 0.126223049261D-02 0.000000000000D+00  5 21 -1 25 23 -1 2 0.23284542D-01 0.55130356D-01 0.45938818D+05 0.45938818D+05 0.45938818D+05 0.11959426D+01  1  2 12  3  5  1        1 0.485016466499D-01 0.100000000000D+01
-.895001556891D-04 0.000000000000D+00 -.246223958502D-04 0.126223049261D-02 0.000000000000D+00  5 21 -1 25 23 -1 2 0.24069178D-01 0.55130356D-01 0.35640202D+05 0.35640202D+05 0.35640202D+05 0.12071234D+01  1  2  5  3  5  1        1 -.673285954608D-01 0.100000000000D+01
  </mgrwgt>
  </event>
  <event>
  5     66 -.49155423E-03 0.25318782E+03 0.75467711E-02 0.11094504E+00
        1 -1    0    0  502    0 0.00000000E+00 0.00000000E+00 0.42015965E+04 0.42015965E+04 0.32000000E+00 0.0000E+00 0.9000E+01
       -1 -1    0    0    0  501 0.00000000E+00 0.00000000E+00 -.16374971E+02 0.16378097E+02 0.32000000E+00 0.0000E+00 0.9000E+01
       25  1    1    2    0    0 -.29215027E+02 -.22629680E+03 0.17533868E+04 0.17725840E+04 0.12500000E+03 0.0000E+00 0.9000E+01
       23  1    1    2    0    0 0.23363920E+02 0.22753753E+03 0.22459741E+04 0.22594323E+04 0.91188000E+02 0.0000E+00 0.9000E+01
       21  1    1    2  502  501 0.58511069E+01 -.12407349E+01 0.18586067E+03 0.18595840E+03 0.75000000E+00 0.0000E+00 0.9000E+01
#aMCatNLO 2  0  0  1  2 0.59812102D+01 0.00000000D+00  -5  5  0 0.00000000D+00 0.00000000D+00 0.00000000D+00 0.00000000D+00 0.00000000D+00
  <mgrwgt>
 -.9456145772D-01    3    2    0
 0.256042803438072D+03 0.000000000000000D+00 0.000000000000000D+00 0.256042803438072D+03
 0.256042803438072D+03 0.000000000000000D+00 0.000000000000000D+00 -.256042803438072D+03
 0.263180036507941D+03 -.262093533151812D+02 -.226934152785971D+03 -.381141930838735D+02
 0.248905570368204D+03 0.262093533151812D+02 0.226934152785971D+03 0.381141930838735D+02
 0.000000000000000D+00 0.000000000000000D+00 -.000000000000000D+00 0.000000000000000D+00
 0.267903180963707D+03 0.000000000000000D+00 0.000000000000000D+00 0.267903180963707D+03
 0.256815463996465D+03 0.000000000000000D+00 0.000000000000000D+00 -.256815463996465D+03
 0.262947617002605D+03 -.292150267227610D+02 -.226296795793715D+03 -.381141930838735D+02
 0.249172919243821D+03 0.233639197761429D+02 0.227537530703722D+03 0.381141930838735D+02
 0.125981087137448D+02 0.585110694661813D+01 -.124073491000680D+01 0.110877169672418D+02
-.293205073942D-01 0.000000000000D+00 0.000000000000D+00 0.131219662938D-02 0.000000000000D+00  5 1 -1 25 23 21 2 0.64727945D+00 0.25117788D-02 0.65636513D+05 0.65636513D+05 0.65636513D+05 0.11807525D+01  1  2 13  1  5  1        1 -.167210917657D+00 0.100000000000D+01
-.374478989718D-01 0.000000000000D+00 0.000000000000D+00 0.131219662938D-02 0.000000000000D+00  5 1 -1 25 23 21 2 0.61775610D+00 0.25117788D-02 0.64104070D+05 0.64104070D+05 0.64104070D+05 0.11817398D+01  1  2  8  1  5  1        1 -.314193489121D+00 0.100000000000D+01
0.673156585455D-01 0.000000000000D+00 0.000000000000D+00 0.131219662938D-02 0.273017366168D-03  5 1 -1 25 23 21 2 0.64637171D+00 0.25193586D-02 0.65636513D+05 0.65636513D+05 0.65636513D+05 0.11807525D+01  1  2  1  1  5  1        1 0.386842949060D+00 0.100000000000D+01
  </mgrwgt>
  </event>
  <event>
  4     66 0.49155423E-03 0.12703200E+03 0.75467711E-02 0.10881421E+00
        1 -1    0    0  501    0 0.00000000E+00 0.00000000E+00 0.62397904E+03 0.62397913E+03 0.32000000E+00 0.0000E+00 0.9000E+01
       -1 -1    0    0    0  501 0.00000000E+00 0.00000000E+00 -.26000324E+02 0.26002294E+02 0.32000000E+00 0.0000E+00 0.9000E+01
       25  1    1    2    0    0 -.63008179E+02 -.20097745E+02 0.35633885E+03 0.38337491E+03 0.12500000E+03 0.0000E+00 0.9000E+01
       23  1    1    2    0    0 0.63008179E+02 0.20097745E+02 0.24163987E+03 0.26660651E+03 0.91188000E+02 0.0000E+00 0.9000E+01
#aMCatNLO 1  0  0  1  2 0.23943293D+03 0.00000000D+00  -5  5  0 0.00000000D+00 0.00000000D+00 0.00000000D+00 0.00000000D+00 0.00000000D+00
  <mgrwgt>
 0.1203550574D+00    5    2    0
 0.127374739248047D+03 0.000000000000000D+00 0.000000000000000D+00 0.127374739248047D+03
 0.127374739248047D+03 0.000000000000000D+00 0.000000000000000D+00 -.127374739248047D+03
 0.141721674714123D+03 -.630081793269248D+02 -.200977450576438D+02 0.927809599431966D+01
 0.113027803781971D+03 0.630081793269248D+02 0.200977450576438D+02 -.927809599431966D+01
 0.000000000000000D+00 -.000000000000000D+00 0.000000000000000D+00 0.000000000000000D+00
 0.326121143662996D+03 0.000000000000000D+00 0.000000000000000D+00 0.326121143662996D+03
 0.269518811878464D+03 0.000000000000000D+00 0.000000000000000D+00 -.269518811878464D+03
 0.145996136404040D+03 0.433868227817260D+02 -.610030522886714D+02 0.927809599431966D+01
 0.203611395455891D+03 0.180098004734911D+03 -.249193627671197D+02 -.927809599431966D+01
 0.246032423681528D+03 -.223484827516637D+03 0.859224150557912D+02 0.566023317845318D+02
0.146226590738D-03 0.000000000000D+00 0.000000000000D+00 0.199607472229D-02 0.000000000000D+00  5 1 -1 25 23 21 0 0.95996934D-01 0.40002077D-02 0.16137129D+05 0.16137129D+05 0.16137129D+05 0.12442209D+01  1  2  2  1  5  1        1 0.114407291253D+00 0.100000000000D+01
-.812362777747D-05 0.000000000000D+00 -.561548610778D-06 0.199607472229D-02 0.000000000000D+00  5 1 -1 25 23 21 2 0.95996934D-01 0.40002077D-02 0.16137129D+05 0.16137129D+05 0.16137129D+05 0.12442209D+01  1  2  3  1  5  1        1 -.983948394596D-02 0.100000000000D+01
0.101323744053D-04 0.000000000000D+00 0.000000000000D+00 0.199607472229D-02 0.000000000000D+00  5 1 -1 25 23 21 2 0.95996934D-01 0.40002077D-02 0.16137129D+05 0.16137129D+05 0.16137129D+05 0.12442209D+01  1  2 15  1  5  1        1 0.122725139589D-01 0.100000000000D+01
0.471701211158D-04 0.000000000000D+00 -.557037076495D-04 0.199607472229D-02 0.000000000000D+00  5 1 -1 25 23 21 2 0.37817105D+00 0.40002077D-02 0.16137129D+05 0.16137129D+05 0.16137129D+05 0.12442209D+01  1  2  5  1  5  1        1 0.314442859260D-02 0.100000000000D+01
0.849180984354D-05 0.000000000000D+00 -.909587748695D-05 0.199607472229D-02 0.000000000000D+00  5 21 -1 25 23 -1 2 0.37817105D+00 0.40002077D-02 0.16137129D+05 0.16137129D+05 0.16137129D+05 0.12442209D+01  1  2  5  3  5  1        1 0.370307498207D-03 0.100000000000D+01
  </mgrwgt>
  </event>
  <event>
  4     66 0.49155423E-03 0.12850151E+03 0.75467711E-02 0.12252202E+00
        3 -1    0    0  501    0 0.00000000E+00 0.00000000E+00 0.39037466E+04 0.39037467E+04 0.50000000E+00 0.0000E+00 0.9000E+01
       -3 -1    0    0    0  501 0.00000000E+00 0.00000000E+00 -.46523752E+01 0.46791661E+01 0.50000000E+00 0.0000E+00 0.9000E+01
       25  1    1    2    0    0 0.44996590E+02 -.52154204E+02 0.15511888E+04 0.15577408E+04 0.12500000E+03 0.0000E+00 0.9000E+01
       23  1    1    2    0    0 -.44996590E+02 0.52154204E+02 0.23479055E+04 0.23506850E+04 0.91188000E+02 0.0000E+00 0.9000E+01
#aMCatNLO 1  0  0  2  1 0.59717172D+01 0.00000000D+00  -5  5  0 0.00000000D+00 0.00000000D+00 0.00000000D+00 0.00000000D+00 0.00000000D+00
  <mgrwgt>
 0.1682615815D-02    6    2    0
 0.134959666863842D+03 0.000000000000000D+00 0.000000000000000D+00 0.134959666863842D+03
 0.134959666863842D+03 0.000000000000000D+00 0.000000000000000D+00 -.134959666863842D+03
 0.148500283897549D+03 0.449965901046146D+02 -.521542041639009D+02 -.410192660178131D+02
 0.121419049830135D+03 -.449965901046146D+02 0.521542041639009D+02 0.410192660178131D+02
 0.000000000000000D+00 0.000000000000000D+00 0.000000000000000D+00 0.000000000000000D+00
 0.143556228059556D+03 0.000000000000000D+00 0.000000000000000D+00 0.143556228059556D+03
 0.136033775538889D+03 0.000000000000000D+00 0.000000000000000D+00 -.136033775538889D+03
 0.148883057261472D+03 0.430597743458115D+02 -.548127757750913D+02 -.410192660178131D+02
 0.121102327761587D+03 -.465760976322913D+02 0.499860919654865D+02 0.410192660178131D+02
 0.960461857538570D+01 0.351632328647975D+01 0.482668380960484D+01 0.752245252066790D+01
0.117022512113D-02 0.000000000000D+00 0.000000000000D+00 0.175268140226D-02 0.000000000000D+00  5 3 -3 25 23 21 0 0.60057847D+00 0.71781334D-03 0.16512639D+05 0.16512639D+05 0.16512639D+05 0.12430937D+01  1  2  2  2  5  2       -3 0.194157275872D-02 0.100000000000D+01
-.648224445286D-04 0.000000000000D+00 -.449397259249D-05 0.175268140226D-02 0.000000000000D+00  5 3 -3 25 23 21 2 0.60057847D+00 0.71781334D-03 0.16512639D+05 0.16512639D+05 0.16512639D+05 0.12430937D+01  1  2  3  2  5  2       -3 -.166194780861D-03 0.100000000000D+01
0.808414648290D-04 0.000000000000D+00 0.000000000000D+00 0.175268140226D-02 0.000000000000D+00  5 3 -3 25 23 21 2 0.60057847D+00 0.71781334D-03 0.16512639D+05 0.16512639D+05 0.16512639D+05 0.12430937D+01  1  2 15  2  5  2       -3 0.207265085873D-03 0.100000000000D+01
-.178400408781D-03 0.000000000000D+00 0.000000000000D+00 0.175268140226D-02 0.000000000000D+00  5 3 -3 25 23 21 2 0.60057847D+00 0.71781334D-03 0.16512639D+05 0.16512639D+05 0.16512639D+05 0.12430937D+01  1  2  4  2  5  2       -3 -.457391217788D-03 0.100000000000D+01
0.465212722340D-04 0.000000000000D+00 0.000000000000D+00 0.175268140226D-02 0.404344744298D-03  5 3 -3 25 23 21 2 0.63883367D+00 0.72352622D-03 0.17297038D+05 0.17297038D+05 0.17297038D+05 0.12408292D+01  1  2 11  2  5  2       -3 0.780261747969D-04 0.100000000000D+01
0.160650985915D-05 0.000000000000D+00 0.000000000000D+00 0.175268140226D-02 0.613455238079D-06  5 3 21 25 23 3 2 0.63883367D+00 0.72352622D-03 0.17297038D+05 0.17297038D+05 0.17297038D+05 0.12408292D+01  1  2 11  4  5  2       -3 0.793377943490D-04 0.100000000000D+01
  </mgrwgt>
  </event>
  <event>
  4     66 0.49155423E-03 0.15640845E+03 0.75467711E-02 0.10636212E+00
        1 -1    0    0  501    0 0.00000000E+00 0.00000000E+00 0.23389329E+04 0.23389329E+04 0.32000000E+00 0.0000E+00 0.9000E+01
       -1 -1    0    0    0  501 0.00000000E+00 0.00000000E+00 -.10619332E+02 0.10624153E+02 0.32000000E+00 0.0000E+00 0.9000E+01
       25  1    1    2    0    0 -.10049766E+03 -.50301160E+02 0.13946798E+04 0.14047729E+04 0.12500000E+03 0.0000E+00 0.9000E+01
       23  1    1    2    0    0 0.10049766E+03 0.50301160E+02 0.93363377E+03 0.94478424E+03 0.91188000E+02 0.0000E+00 0.9000E+01
#aMCatNLO 1  0  0  1  2 0.27756779D+03 0.00000000D+00  -5  5  0 0.00000000D+00 0.00000000D+00 0.00000000D+00 0.00000000D+00 0.00000000D+00
  <mgrwgt>
 0.1966231683D+00    3    2    0
 0.157618509061255D+03 0.000000000000000D+00 0.000000000000000D+00 0.157618509061255D+03
 0.157618509061255D+03 0.000000000000000D+00 0.000000000000000D+00 -.157618509061255D+03
 0.169212560894913D+03 -.100497662508700D+03 -.503011602232824D+02 0.194397498721964D+02
 0.146024457227598D+03 0.100497662508700D+03 0.503011602232824D+02 -.194397498721964D+02
 0.000000000000000D+00 0.000000000000000D+00 0.000000000000000D+00 -.000000000000000D+00
 0.272234275736067D+03 0.000000000000000D+00 0.000000000000000D+00 0.272234275736067D+03
 0.519556271591311D+03 0.000000000000000D+00 0.000000000000000D+00 -.519556271591311D+03
 0.318394160721180D+03 -.226799214781910D+03 -.184211980827958D+03 0.194397498721964D+02
 0.101627574220629D+03 0.363499906065240D+02 -.177112056557866D+02 -.194397498721964D+02
 0.371768812385570D+03 0.190449224175386D+03 0.201923186483745D+03 -.247321995855244D+03
0.102635286046D-02 0.000000000000D+00 0.000000000000D+00 0.164402827979D-02 0.000000000000D+00  5 1 -1 25 23 21 0 0.35983621D+00 0.16341159D-02 0.24463603D+05 0.24463603D+05 0.24463603D+05 0.12243088D+01  1  2  2  1  5  1        1 0.192734071746D+00 0.100000000000D+01
-.570154856957D-04 0.000000000000D+00 -.394146522908D-05 0.164402827979D-02 0.000000000000D+00  5 1 -1 25 23 21 2 0.35983621D+00 0.16341159D-02 0.24463603D+05 0.24463603D+05 0.24463603D+05 0.12243088D+01  1  2  3  1  5  1        1 -.160485792703D-01 0.100000000000D+01
0.708322057853D-04 0.000000000000D+00 0.000000000000D+00 0.164402827979D-02 0.000000000000D+00  5 1 -1 25 23 21 2 0.35983621D+00 0.16341159D-02 0.24463603D+05 0.24463603D+05 0.24463603D+05 0.12243088D+01  1  2 15  1  5  1        1 0.199376758010D-01 0.100000000000D+01
  </mgrwgt>
  </event>
  <event>
  4     66 0.49155423E-03 0.87115245E+02 0.75467711E-02 0.12048990E+00
        1 -1    0    0  501    0 0.00000000E+00 0.00000000E+00 0.39925898E+02 0.39927180E+02 0.32000000E+00 0.0000E+00 0.9000E+01
       -1 -1    0    0    0  501 0.00000000E+00 0.00000000E+00 -.53579025E+03 0.53579034E+03 0.32000000E+00 0.0000E+00 0.9000E+01
       25  1    1    2    0    0 -.76395981E+02 0.26336845E+02 -.16044912E+03 0.21885816E+03 0.12500000E+03 0.0000E+00 0.9000E+01
       23  1    1    2    0    0 0.76395981E+02 -.26336845E+02 -.33541523E+03 0.35685936E+03 0.91188000E+02 0.0000E+00 0.9000E+01
#aMCatNLO 1  0  0  1  2 0.21585157D+02 0.00000000D+00  -5  5  0 0.00000000D+00 0.00000000D+00 0.00000000D+00 0.00000000D+00 0.00000000D+00
  <mgrwgt>
 0.9004521766D-01    9    2    0
 0.146261079193424D+03 0.000000000000000D+00 0.000000000000000D+00 0.146261079193424D+03
 0.146261079193424D+03 0.000000000000000D+00 0.000000000000000D+00 -.146261079193424D+03
 0.158755429529670D+03 -.763959806293000D+02 0.263368451466693D+02 0.552115127175295D+02
 0.133766728857179D+03 0.763959806293000D+02 -.263368451466693D+02 -.552115127175295D+02
 0.000000000000000D+00 0.000000000000000D+00 -.000000000000000D+00 0.000000000000000D+00
 0.162185174958970D+03 0.000000000000000D+00 0.000000000000000D+00 0.162185174958970D+03
 0.154160753076377D+03 0.000000000000000D+00 0.000000000000000D+00 -.154160753076377D+03
 0.164942142141586D+03 -.862614623135749D+02 0.330387535663937D+02 0.552115127175295D+02
 0.128375317542232D+03 0.684065553639842D+02 -.209093963744794D+02 -.552115127175295D+02
 0.230284683515300D+02 0.178549069495907D+02 -.121293571919143D+02 0.802442188259284D+01
0.416194079845D-03 0.000000000000D+00 0.000000000000D+00 0.155676391279D-02 0.000000000000D+00  5 1 -1 25 23 21 0 0.61425518D-02 0.82429375D-01 0.18317790D+05 0.18317790D+05 0.18317790D+05 0.12380490D+01  1  2  2  1  5  1        1 0.775790035202D-01 0.100000000000D+01
-.229526950956D-04 0.000000000000D+00 -.159829485302D-05 0.155676391279D-02 0.000000000000D+00  5 1 -1 25 23 21 2 0.61425518D-02 0.82429375D-01 0.18317790D+05 0.18317790D+05 0.18317790D+05 0.12380490D+01  1  2  3  1  5  1        1 -.655779260702D-02 0.100000000000D+01
0.286747007294D-04 0.000000000000D+00 0.000000000000D+00 0.155676391279D-02 0.000000000000D+00  5 1 -1 25 23 21 2 0.61425518D-02 0.82429375D-01 0.18317790D+05 0.18317790D+05 0.18317790D+05 0.12380490D+01  1  2 15  1  5  1        1 0.819262137488D-02 0.100000000000D+01
0.747658705848D-03 0.000000000000D+00 0.000000000000D+00 0.155676391279D-02 0.000000000000D+00  5 1 -1 25 23 21 2 0.69632587D-02 0.82429375D-01 0.21448837D+05 0.21448837D+05 0.21448837D+05 0.12304961D+01  1  2 12  1  5  1        1 0.178611255486D+00 0.100000000000D+01
-.707506705202D-03 0.000000000000D+00 0.000000000000D+00 0.155676391279D-02 0.000000000000D+00  5 1 -1 25 23 21 2 0.61425518D-02 0.82429375D-01 0.18317790D+05 0.18317790D+05 0.18317790D+05 0.12380490D+01  1  2  4  1  5  1        1 -.202141065416D+00 0.100000000000D+01
-.189366894990D-02 0.000000000000D+00 -.435967568276D-03 0.155676391279D-02 0.000000000000D+00  5 1 -1 25 23 21 2 0.71759571D-02 0.82429375D-01 0.18317790D+05 0.18317790D+05 0.18317790D+05 0.12380490D+01  1  2  5  1  5  1        1 -.438445133906D+00 0.100000000000D+01
0.194313923130D-02 0.000000000000D+00 0.430749526467D-03 0.155676391279D-02 0.000000000000D+00  5 1 -1 25 23 21 2 0.61425518D-02 0.82429375D-01 0.18317790D+05 0.18317790D+05 0.18317790D+05 0.12380490D+01  1  2  6  1  5  1        1 0.555172455016D+00 0.100000000000D+01
0.147195611362D-04 0.000000000000D+00 0.000000000000D+00 0.155676391279D-02 0.000000000000D+00  5 21 -1 25 23 -1 2 0.69632587D-02 0.82429375D-01 0.21448837D+05 0.21448837D+05 0.21448837D+05 0.12304961D+01  1  2 12  3  5  1        1 0.486898600128D-01 0.100000000000D+01
-.412415751408D-04 0.000000000000D+00 -.102378167481D-04 0.155676391279D-02 0.000000000000D+00  5 21 -1 25 23 -1 2 0.71759571D-02 0.82429375D-01 0.18317790D+05 0.18317790D+05 0.18317790D+05 0.12380490D+01  1  2  5  3  5  1        1 -.131055985824D+00 0.100000000000D+01
  </mgrwgt>
  </event>
  <event>
  4     66 0.49155423E-03 0.10948800E+03 0.75467711E-02 0.12419519E+00
        1 -1    0    0  501    0 0.00000000E+00 0.00000000E+00 0.15530584E+04 0.15530584E+04 0.32000000E+00 0.0000E+00 0.9000E+01
       -1 -1    0    0    0  501 0.00000000E+00 0.00000000E+00 -.80562253E+01 0.80625781E+01 0.32000000E+00 0.0000E+00 0.9000E+01
       25  1    1    2    0    0 -.17166855E+02 0.11729579E+01 0.10439804E+04 0.10515779E+04 0.12500000E+03 0.0000E+00 0.9000E+01
       23  1    1    2    0    0 0.17166855E+02 -.11729579E+01 0.50102177E+03 0.50954307E+03 0.91188000E+02 0.0000E+00 0.9000E+01
#aMCatNLO 1  0  0  2  2 0.21397279D+02 0.00000000D+00  -5  5  0 0.00000000D+00 0.00000000D+00 0.00000000D+00 0.00000000D+00 0.00000000D+00
  <mgrwgt>
 0.1620894358D+00    4    2    0
 0.111878384154188D+03 0.000000000000000D+00 0.000000000000000D+00 0.111878384154188D+03
 0.111878384154188D+03 0.000000000000000D+00 0.000000000000000D+00 -.111878384154188D+03
 0.128212523924042D+03 -.171668549633441D+02 0.117295788594512D+01 0.227458688873038D+02
 0.955442443843328D+02 0.171668549633441D+02 -.117295788594512D+01 -.227458688873038D+02
 0.000000000000000D+00 0.000000000000000D+00 -.000000000000000D+00 0.000000000000000D+00
 0.138406953328193D+03 0.000000000000000D+00 0.000000000000000D+00 0.138406953328193D+03
 0.116788025232677D+03 0.000000000000000D+00 0.000000000000000D+00 -.116788025232677D+03
 0.130399170959963D+03 -.289558366561645D+02 0.480923685720657D+01 0.227458688873038D+02
 0.943783521744260D+02 0.850911032852256D+01 0.149749962891610D+01 -.227458688873038D+02
 0.304174554264812D+02 0.204467263276419D+02 -.630673648612268D+01 0.216189280955160D+02
0.228876597233D-03 0.000000000000D+00 0.000000000000D+00 0.227908648406D-02 0.000000000000D+00  5 1 -1 25 23 21 0 0.23893255D+00 0.12399105D-02 0.11987621D+05 0.11987621D+05 0.11987621D+05 0.12590766D+01  1  2  2  2  5  2       -1 0.200868618181D+00 0.100000000000D+01
-.127081551416D-04 0.000000000000D+00 -.878946397968D-06 0.227908648406D-02 0.000000000000D+00  5 1 -1 25 23 21 2 0.23893255D+00 0.12399105D-02 0.11987621D+05 0.11987621D+05 0.11987621D+05 0.12590766D+01  1  2  3  2  5  2       -1 -.176806222962D-01 0.100000000000D+01
0.157364717876D-04 0.000000000000D+00 0.000000000000D+00 0.227908648406D-02 0.000000000000D+00  5 1 -1 25 23 21 2 0.23893255D+00 0.12399105D-02 0.11987621D+05 0.11987621D+05 0.11987621D+05 0.12590766D+01  1  2 15  2  5  2       -1 0.218938634956D-01 0.100000000000D+01
-.309013098808D-04 0.000000000000D+00 0.000000000000D+00 0.227908648406D-02 0.000000000000D+00  5 1 -1 25 23 21 2 0.23893255D+00 0.12399105D-02 0.11987621D+05 0.11987621D+05 0.11987621D+05 0.12590766D+01  1  2  4  2  5  2       -1 -.429924235557D-01 0.100000000000D+01
  </mgrwgt>
  </event>
  <event>
  4     66 0.49155423E-03 0.20187593E+03 0.75467711E-02 0.10887763E+00
        1 -1    0    0  501    0 0.00000000E+00 0.00000000E+00 0.13708723E+04 0.13708724E+04 0.32000000E+00 0.0000E+00 0.9000E+01
       -1 -1    0    0    0  501 0.00000000E+00 0.00000000E+00 -.34960388E+02 0.34961852E+02 0.32000000E+00 0.0000E+00 0.9000E+01
       25  1    1    2    0    0 -.15317080E+03 -.73514727E+02 0.42171610E+03 0.47152431E+03 0.12500000E+03 0.0000E+00 0.9000E+01
       23  1    1    2    0    0 0.15317080E+03 0.73514727E+02 0.91419584E+03 0.93430990E+03 0.91188000E+02 0.0000E+00 0.9000E+01
#aMCatNLO 1  0  0  1  2 0.15546563D+03 0.00000000D+00  -5  5  0 0.00000000D+00 0.00000000D+00 0.00000000D+00 0.00000000D+00 0.00000000D+00
  <mgrwgt>
 0.1584127483D+00    3    2    0
 0.218923008073986D+03 0.000000000000000D+00 0.000000000000000D+00 0.218923008073986D+03
 0.218923008073986D+03 0.000000000000000D+00 0.000000000000000D+00 -.218923008073986D+03
 0.227270404631694D+03 -.153170801444016D+03 -.735147272070465D+02 -.846234440927883D+02
 0.210575611516277D+03 0.153170801444016D+03 0.735147272070465D+02 0.846234440927883D+02
 0.000000000000000D+00 0.000000000000000D+00 0.000000000000000D+00 -.000000000000000D+00
 0.284266531480676D+03 0.000000000000000D+00 0.000000000000000D+00 0.284266531480676D+03
 0.348619141674054D+03 0.000000000000000D+00 0.000000000000000D+00 -.348619141674054D+03
 0.284913119477759D+03 -.184555923887769D+03 -.155975861332306D+03 -.846234440927883D+02
 0.179714360372524D+03 0.129254962726641D+03 0.106783566392410D+02 0.846234440927883D+02
 0.168258193304447D+03 0.553009611611282D+02 0.145297504693065D+03 -.643526101933779D+02
0.112581180227D-02 0.000000000000D+00 0.000000000000D+00 0.121576753994D-02 0.000000000000D+00  5 1 -1 25 23 21 0 0.21090355D+00 0.53786367D-02 0.40753891D+05 0.40753891D+05 0.40753891D+05 0.12011777D+01  1  2  2  1  5  1        1 0.155382204842D+00 0.100000000000D+01
-.620453408411D-04 0.000000000000D+00 -.432341375377D-05 0.121576753994D-02 0.000000000000D+00  5 1 -1 25 23 21 2 0.21090355D+00 0.53786367D-02 0.40753891D+05 0.40753891D+05 0.40753891D+05 0.12011777D+01  1  2  3  1  5  1        1 -.123554664888D-01 0.100000000000D+01
0.772637952540D-04 0.000000000000D+00 0.000000000000D+00 0.121576753994D-02 0.000000000000D+00  5 1 -1 25 23 21 2 0.21090355D+00 0.53786367D-02 0.40753891D+05 0.40753891D+05 0.40753891D+05 0.12011777D+01  1  2 15  1  5  1        1 0.153860099746D-01 0.100000000000D+01
  </mgrwgt>
  </event>
  <event>
  4     66 0.49155423E-03 0.12655371E+03 0.75467711E-02 0.12112884E+00
        1 -1    0    0  501    0 0.00000000E+00 0.00000000E+00 0.70383477E+03 0.70383485E+03 0.32000000E+00 0.0000E+00 0.9000E+01
       -1 -1    0    0    0  501 0.00000000E+00 0.00000000E+00 -.24656742E+02 0.24658818E+02 0.32000000E+00 0.0000E+00 0.9000E+01
       25  1    1    2    0    0 0.60662673E+02 -.23963914E+02 0.47592014E+03 0.49636601E+03 0.12500000E+03 0.0000E+00 0.9000E+01
       23  1    1    2    0    0 -.60662673E+02 0.23963914E+02 0.20325789E+03 0.23212766E+03 0.91188000E+02 0.0000E+00 0.9000E+01
#aMCatNLO 1  0  0  1  2 0.28458151D+02 0.00000000D+00  -5  5  0 0.00000000D+00 0.00000000D+00 0.00000000D+00 0.00000000D+00 0.00000000D+00
  <mgrwgt>
 0.9620169599D-01    4    2    0
 0.131738585586522D+03 0.000000000000000D+00 0.000000000000000D+00 0.131738585586522D+03
 0.131738585586522D+03 0.000000000000000D+00 0.000000000000000D+00 -.131738585586522D+03
 0.145610278195516D+03 0.606626731671982D+02 -.239639142041203D+02 0.363747717024169D+02
 0.117866892977527D+03 -.606626731671982D+02 0.239639142041203D+02 -.363747717024169D+02
 0.000000000000000D+00 -.000000000000000D+00 -.000000000000000D+00 -.000000000000000D+00
 0.139067852379614D+03 0.000000000000000D+00 0.000000000000000D+00 0.139067852379614D+03
 0.163354245252138D+03 0.000000000000000D+00 0.000000000000000D+00 -.163354245252138D+03
 0.151317178159732D+03 0.751742587736110D+02 -.172509480220461D+02 0.363747717024169D+02
 0.113692418099596D+03 -.493457919097192D+02 0.291990306985188D+02 -.363747717024169D+02
 0.374125013724232D+02 -.258284668638918D+02 -.119480826764726D+02 -.242863928725240D+02
0.197859646081D-03 0.000000000000D+00 0.000000000000D+00 0.182036677915D-02 0.000000000000D+00  5 1 -1 25 23 21 0 0.10828244D+00 0.37935102D-02 0.16015841D+05 0.16015841D+05 0.16015841D+05 0.12445912D+01  1  2  2  1  5  1        1 0.141325070231D+00 0.100000000000D+01
-.109706550466D-04 0.000000000000D+00 -.759833138594D-06 0.182036677915D-02 0.000000000000D+00  5 1 -1 25 23 21 2 0.10828244D+00 0.37935102D-02 0.16015841D+05 0.16015841D+05 0.16015841D+05 0.12445912D+01  1  2  3  1  5  1        1 -.121380246708D-01 0.100000000000D+01
0.136930979909D-04 0.000000000000D+00 0.000000000000D+00 0.182036677915D-02 0.000000000000D+00  5 1 -1 25 23 21 2 0.10828244D+00 0.37935102D-02 0.16015841D+05 0.16015841D+05 0.16015841D+05 0.12445912D+01  1  2 15  1  5  1        1 0.151501583567D-01 0.100000000000D+01
-.435060948745D-04 0.000000000000D+00 0.000000000000D+00 0.182036677915D-02 0.000000000000D+00  5 1 -1 25 23 21 2 0.10828244D+00 0.37935102D-02 0.16015841D+05 0.16015841D+05 0.16015841D+05 0.12445912D+01  1  2  4  1  5  1        1 -.481355079231D-01 0.100000000000D+01
  </mgrwgt>
  </event>
  <event>
  4     66 0.49155423E-03 0.17462056E+03 0.75467711E-02 0.10664987E+00
        1 -1    0    0  501    0 0.00000000E+00 0.00000000E+00 0.77537803E+03 0.77537810E+03 0.32000000E+00 0.0000E+00 0.9000E+01
       -1 -1    0    0    0  501 0.00000000E+00 0.00000000E+00 -.22608837E+03 0.22608859E+03 0.32000000E+00 0.0000E+00 0.9000E+01
       25  1    1    2    0    0 -.75634718E+02 0.29577271E+03 -.39249852E+02 0.33221628E+03 0.12500000E+03 0.0000E+00 0.9000E+01
       23  1    1    2    0    0 0.75634718E+02 -.29577271E+03 0.58853952E+03 0.66925042E+03 0.91188000E+02 0.0000E+00 0.9000E+01
#aMCatNLO 1  0  0  2  1 0.32164208D+02 0.00000000D+00  -5  5  0 0.00000000D+00 0.00000000D+00 0.00000000D+00 0.00000000D+00 0.00000000D+00
  <mgrwgt>
 0.1014181929D+00    9    2    0
 0.418693325323423D+03 0.000000000000000D+00 0.000000000000000D+00 0.418693325323423D+03
 0.418693325323423D+03 0.000000000000000D+00 0.000000000000000D+00 -.418693325323423D+03
 0.423057945090381D+03 -.756347178826787D+02 0.295772705948061D+03 -.264860190989633D+03
 0.414328705556465D+03 0.756347178826787D+02 -.295772705948061D+03 0.264860190989633D+03
 0.000000000000000D+00 -.000000000000000D+00 0.000000000000000D+00 -.000000000000000D+00
 0.429455588043099D+03 0.000000000000000D+00 0.000000000000000D+00 0.429455588043099D+03
 0.443743412349404D+03 0.000000000000000D+00 0.000000000000000D+00 -.443743412349404D+03
 0.411659803301788D+03 -.724848386691973D+02 0.280060388213867D+03 -.264860190989633D+03
 0.426344336869446D+03 0.788070699103816D+02 -.311597123217983D+03 0.264860190989633D+03
 0.351948602212691D+02 -.632223124118426D+01 0.315367350041156D+02 -.142878243063056D+02
0.365961275239D-02 0.000000000000D+00 0.000000000000D+00 0.752044560688D-03 0.000000000000D+00  5 1 -1 25 23 21 0 0.11928895D+00 0.34782848D-01 0.10514047D+06 0.10514047D+06 0.10514047D+06 0.11615771D+01  1  2  2  2  5  2       -1 0.701664533712D-01 0.100000000000D+01
-.187160492616D-03 0.000000000000D+00 -.140538765673D-04 0.752044560688D-03 0.000000000000D+00  5 1 -1 25 23 21 2 0.11928895D+00 0.34782848D-01 0.10514047D+06 0.10514047D+06 0.10514047D+06 0.11615771D+01  1  2  3  2  5  2       -1 -.484177563566D-02 0.100000000000D+01
0.249812796539D-03 0.000000000000D+00 0.000000000000D+00 0.752044560688D-03 0.000000000000D+00  5 1 -1 25 23 21 2 0.11928895D+00 0.34782848D-01 0.10514047D+06 0.10514047D+06 0.10514047D+06 0.11615771D+01  1  2 15  2  5  2       -1 0.646256854133D-02 0.100000000000D+01
0.100730703957D-01 0.000000000000D+00 0.000000000000D+00 0.752044560688D-03 0.000000000000D+00  5 1 -1 25 23 21 2 0.11928895D+00 0.37291295D-01 0.11607558D+06 0.11607558D+06 0.11607558D+06 0.11576709D+01  1  2 12  2  5  2       -1 0.228496278988D+00 0.100000000000D+01
-.964128640061D-02 0.000000000000D+00 0.000000000000D+00 0.752044560688D-03 0.000000000000D+00  5 1 -1 25 23 21 2 0.11928895D+00 0.34782848D-01 0.10514047D+06 0.10514047D+06 0.10514047D+06 0.11615771D+01  1  2  4  2  5  2       -1 -.249416663413D+00 0.100000000000D+01
-.305898929818D-01 0.000000000000D+00 -.559856597768D-02 0.752044560688D-03 0.000000000000D+00  5 1 -1 25 23 21 2 0.11928895D+00 0.37717259D-01 0.10514047D+06 0.10514047D+06 0.10514047D+06 0.11615771D+01  1  2  5  2  5  2       -1 -.686200079039D+00 0.100000000000D+01
0.309600494706D-01 0.000000000000D+00 0.558025293750D-02 0.752044560688D-03 0.000000000000D+00  5 1 -1 25 23 21 2 0.11928895D+00 0.34782848D-01 0.10514047D+06 0.10514047D+06 0.10514047D+06 0.11615771D+01  1  2  6  2  5  2       -1 0.800925511098D+00 0.100000000000D+01
0.126164893241D-03 0.000000000000D+00 0.000000000000D+00 0.752044560688D-03 0.000000000000D+00  5 1 21 25 23 1 2 0.11928895D+00 0.37291295D-01 0.11607558D+06 0.11607558D+06 0.11607558D+06 0.11576709D+01  1  2 12  4  5  2       -1 0.300001366784D-01 0.100000000000D+01
-.400668680233D-03 0.000000000000D+00 -.756033417813D-04 0.752044560688D-03 0.000000000000D+00  5 1 21 25 23 1 2 0.11928895D+00 0.37717259D-01 0.10514047D+06 0.10514047D+06 0.10514047D+06 0.11615771D+01  1  2  5  4  5  2       -1 -.941742377048D-01 0.100000000000D+01
  </mgrwgt>
  </event>
  <event>
  4     66 0.49155423E-03 0.43064253E+03 0.75467711E-02 0.86203089E-01
        1 -1    0    0  501    0 0.00000000E+00 0.00000000E+00 0.12159057E+04 0.12159057E+04 0.32000000E+00 0.0000E+00 0.9000E+01
       -1 -1    0    0    0  501 0.00000000E+00 0.00000000E+00 -.15302630E+03 0.15302664E+03 0.32000000E+00 0.0000E+00 0.9000E+01
       25  1    1    2    0    0 -.77943887E+02 0.40917676E+03 0.49737999E+03 0.66069110E+03 0.12500000E+03 0.0000E+00 0.9000E+01
       23  1    1    2    0    0 0.77943887E+02 -.40917676E+03 0.56549937E+03 0.70824125E+03 0.91188000E+02 0.0000E+00 0.9000E+01
#aMCatNLO 1  0  0  1  1 0.18771233D+04 0.00000000D+00  -5  5  0 0.00000000D+00 0.00000000D+00 0.00000000D+00 0.00000000D+00 0.00000000D+00
  <mgrwgt>
 0.1832316584D+00    5    2    0
 0.431353457795039D+03 0.000000000000000D+00 0.000000000000000D+00 0.431353457795039D+03
 0.431353457795039D+03 0.000000000000000D+00 0.000000000000000D+00 -.431353457795039D+03
 0.435589976897821D+03 -.779438870523367D+02 0.409176761218226D+03 -.247539193660325D+02
 0.427116938692256D+03 0.779438870523367D+02 -.409176761218226D+03 0.247539193660325D+02
 0.000000000000000D+00 -.000000000000000D+00 -.000000000000000D+00 0.000000000000000D+00
 0.207930566800501D+04 0.000000000000000D+00 0.000000000000000D+00 0.207930566800501D+04
 0.187480321150283D+04 0.000000000000000D+00 0.000000000000000D+00 -.187480321150283D+04
 0.170875627055615D+04 0.649421788598208D+03 0.157539251494187D+04 -.247539193660325D+02
 0.357122476885903D+03 0.343959150707205D+03 0.173366165649525D+02 0.247539193660325D+02
 0.188823013206580D+04 -.993380939305413D+03 -.159272913150682D+04 0.204502456502182D+03
0.106521854053D-01 0.000000000000D+00 0.000000000000D+00 0.122486692899D-02 0.000000000000D+00  5 1 -1 25 23 21 0 0.18706244D+00 0.23542537D-01 0.18545299D+06 0.18545299D+06 0.18545299D+06 0.11397069D+01  1  2  2  1  5  1        1 0.180196944042D+00 0.100000000000D+01
-.591786120366D-03 0.000000000000D+00 -.409071967410D-04 0.122486692899D-02 0.000000000000D+00  5 1 -1 25 23 21 2 0.18706244D+00 0.23542537D-01 0.18545299D+06 0.18545299D+06 0.18545299D+06 0.11397069D+01  1  2  3  1  5  1        1 -.130034881018D-01 0.100000000000D+01
0.729889146255D-03 0.000000000000D+00 0.000000000000D+00 0.122486692899D-02 0.000000000000D+00  5 1 -1 25 23 21 2 0.18706244D+00 0.23542537D-01 0.18545299D+06 0.18545299D+06 0.18545299D+06 0.11397069D+01  1  2 15  1  5  1        1 0.160380659537D-01 0.100000000000D+01
0.630292750390D-02 0.000000000000D+00 -.430061876770D-02 0.122486692899D-02 0.000000000000D+00  5 1 -1 25 23 21 2 0.96152865D+00 0.23542537D-01 0.18545299D+06 0.18545299D+06 0.18545299D+06 0.11397069D+01  1  2  5  1  5  1        1 0.136380053721D-06 0.100000000000D+01
0.111453263329D-02 0.000000000000D+00 -.859358340552D-03 0.122486692899D-02 0.000000000000D+00  5 21 -1 25 23 -1 2 0.96152865D+00 0.23542537D-01 0.18545299D+06 0.18545299D+06 0.18545299D+06 0.11397069D+01  1  2  5  3  5  1        1 0.915179168609D-10 0.100000000000D+01
  </mgrwgt>
  </event>
  <event>
  4     66 0.49155423E-03 0.11270000E+03 0.75467711E-02 0.12244386E+00
        1 -1    0    0  501    0 0.00000000E+00 0.00000000E+00 0.75353358E+03 0.75353365E+03 0.32000000E+00 0.0000E+00 0.9000E+01
       -1 -1    0    0    0  501 0.00000000E+00 0.00000000E+00 -.16861704E+02 0.16864740E+02 0.32000000E+00 0.0000E+00 0.9000E+01
       25  1    1    2    0    0 0.16664707E+02 -.26765270E+02 0.41318730E+03 0.43283119E+03 0.12500000E+03 0.0000E+00 0.9000E+01
       23  1    1    2    0    0 -.16664707E+02 0.26765270E+02 0.32348457E+03 0.33756719E+03 0.91188000E+02 0.0000E+00 0.9000E+01
#aMCatNLO 1  0  0  2  2 0.35873014D+02 0.00000000D+00  -5  5  0 0.00000000D+00 0.00000000D+00 0.00000000D+00 0.00000000D+00 0.00000000D+00
  <mgrwgt>
 0.1082838834D+00    4    2    0
 0.112725576609176D+03 0.000000000000000D+00 0.000000000000000D+00 0.112725576609176D+03
 0.112725576609176D+03 0.000000000000000D+00 0.000000000000000D+00 -.112725576609176D+03
 0.128936956661245D+03 0.166647073804841D+02 -.267652696385350D+02 -.237627064183503D+01
 0.965141965571070D+02 -.166647073804841D+02 0.267652696385350D+02 0.237627064183503D+01
 0.000000000000000D+00 -.000000000000000D+00 0.000000000000000D+00 0.000000000000000D+00
 0.154666522639647D+03 0.000000000000000D+00 0.000000000000000D+00 0.154666522639647D+03
 0.122082833314645D+03 0.000000000000000D+00 0.000000000000000D+00 -.122082833314645D+03
 0.135517535338235D+03 0.302843379644745D+02 -.426288000774125D+02 -.237627064183503D+01
 0.927697740628414D+02 -.691642238890352D+01 0.154109076580736D+02 0.237627064183503D+01
 0.484620465532154D+02 -.233679155755709D+02 0.272178924193389D+02 0.325836893250028D+02
0.117458902688D-03 0.000000000000D+00 0.000000000000D+00 0.232365723800D-02 0.000000000000D+00  5 1 -1 25 23 21 0 0.11592848D+00 0.25943470D-02 0.12701290D+05 0.12701290D+05 0.12701290D+05 0.12561434D+01  1  2  2  2  5  2       -1 0.131080821990D+00 0.100000000000D+01
-.652549418518D-05 0.000000000000D+00 -.451073113960D-06 0.232365723800D-02 0.000000000000D+00  5 1 -1 25 23 21 2 0.11592848D+00 0.25943470D-02 0.12701290D+05 0.12701290D+05 0.12701290D+05 0.12561434D+01  1  2  3  2  5  2       -1 -.114906633204D-01 0.100000000000D+01
0.812229231243D-05 0.000000000000D+00 0.000000000000D+00 0.232365723800D-02 0.000000000000D+00  5 1 -1 25 23 21 2 0.11592848D+00 0.25943470D-02 0.12701290D+05 0.12701290D+05 0.12701290D+05 0.12561434D+01  1  2 15  2  5  2       -1 0.143024457158D-01 0.100000000000D+01
-.145430733671D-04 0.000000000000D+00 0.000000000000D+00 0.232365723800D-02 0.000000000000D+00  5 1 -1 25 23 21 2 0.11592848D+00 0.25943470D-02 0.12701290D+05 0.12701290D+05 0.12701290D+05 0.12561434D+01  1  2  4  2  5  2       -1 -.256087209587D-01 0.100000000000D+01
  </mgrwgt>
  </event>
  <event>
  4     66 0.49155423E-03 0.82045893E+02 0.75467711E-02 0.11801791E+00
        3 -1    0    0  501    0 0.00000000E+00 0.00000000E+00 0.14287801E+03 0.14287889E+03 0.50000000E+00 0.0000E+00 0.9000E+01
       -3 -1    0    0    0  501 0.00000000E+00 0.00000000E+00 -.18013990E+03 0.18014059E+03 0.50000000E+00 0.0000E+00 0.9000E+01
       25  1    1    2    0    0 -.11163783E+03 0.34054606E+02 -.32535204E+01 0.17105060E+03 0.12500000E+03 0.0000E+00 0.9000E+01
       23  1    1    2    0    0 0.11163783E+03 -.34054606E+02 -.34008365E+02 0.15196888E+03 0.91188000E+02 0.0000E+00 0.9000E+01
#aMCatNLO 1  0  0  2  1 0.16024466D+02 0.00000000D+00  -5  5  0 0.00000000D+00 0.00000000D+00 0.00000000D+00 0.00000000D+00 0.00000000D+00
  <mgrwgt>
 0.1905393785D-01    9    2    0
 0.160431555394882D+03 0.000000000000000D+00 0.000000000000000D+00 0.160431555394882D+03
 0.160431555394882D+03 0.000000000000000D+00 0.000000000000000D+00 -.160431555394882D+03
 0.171822314273346D+03 -.111637829145809D+03 0.340546064981222D+02 0.165887480575681D+02
 0.149040796516418D+03 0.111637829145809D+03 -.340546064981222D+02 -.165887480575681D+02
 0.000000000000000D+00 -.000000000000000D+00 -.000000000000000D+00 -.000000000000000D+00
 0.162447775213274D+03 0.000000000000000D+00 0.000000000000000D+00 0.162447775213274D+03
 0.195976365851549D+03 0.000000000000000D+00 0.000000000000000D+00 -.195976365851549D+03
 0.166854131010084D+03 -.103321748741115D+03 0.355630525980376D+02 0.165887480575681D+02
 0.154408875562764D+03 0.119088928585798D+03 -.327030584919259D+02 -.165887480575681D+02
 0.371611344919747D+02 -.157671798446836D+02 -.285999410611168D+01 -.335285906382753D+02
0.346016075161D-03 0.000000000000D+00 0.000000000000D+00 0.163035288419D-02 0.000000000000D+00  5 3 -3 25 23 21 0 0.21981353D-01 0.27713951D-01 0.25461688D+05 0.25461688D+05 0.25461688D+05 0.12224465D+01  1  2  2  2  5  2       -3 0.193443415494D-01 0.100000000000D+01
-.192224331581D-04 0.000000000000D+00 -.132879283674D-05 0.163035288419D-02 0.000000000000D+00  5 3 -3 25 23 21 2 0.21981353D-01 0.27713951D-01 0.25461688D+05 0.25461688D+05 0.25461688D+05 0.12224465D+01  1  2  3  2  5  2       -3 -.160592690613D-02 0.100000000000D+01
0.238342453207D-04 0.000000000000D+00 0.000000000000D+00 0.163035288419D-02 0.000000000000D+00  5 3 -3 25 23 21 2 0.21981353D-01 0.27713951D-01 0.25461688D+05 0.25461688D+05 0.25461688D+05 0.12224465D+01  1  2 15  2  5  2       -3 0.199121804887D-02 0.100000000000D+01
0.196743341506D-02 0.000000000000D+00 0.000000000000D+00 0.163035288419D-02 0.000000000000D+00  5 3 -3 25 23 21 2 0.21981353D-01 0.34002604D-01 0.28151321D+05 0.28151321D+05 0.28151321D+05 0.12178082D+01  1  2 12  2  5  2       -3 0.112165575306D+00 0.100000000000D+01
-.196797662289D-02 0.000000000000D+00 0.000000000000D+00 0.163035288419D-02 0.000000000000D+00  5 3 -3 25 23 21 2 0.21981353D-01 0.27713951D-01 0.25461688D+05 0.25461688D+05 0.25461688D+05 0.12224465D+01  1  2  4  2  5  2       -3 -.164413452934D+00 0.100000000000D+01
-.246296479847D-02 0.000000000000D+00 -.224479960233D-03 0.163035288419D-02 0.000000000000D+00  5 3 -3 25 23 21 2 0.21981353D-01 0.34139656D-01 0.25461688D+05 0.25461688D+05 0.25461688D+05 0.12224465D+01  1  2  5  2  5  2       -3 -.139547091304D+00 0.100000000000D+01
0.246087161629D-02 0.000000000000D+00 0.219686411057D-03 0.163035288419D-02 0.000000000000D+00  5 3 -3 25 23 21 2 0.21981353D-01 0.27713951D-01 0.25461688D+05 0.25461688D+05 0.25461688D+05 0.12224465D+01  1  2  6  2  5  2       -3 0.205592076123D+00 0.100000000000D+01
0.572689615914D-04 0.000000000000D+00 0.000000000000D+00 0.163035288419D-02 0.000000000000D+00  5 3 21 25 23 3 2 0.21981353D-01 0.34002604D-01 0.28151321D+05 0.28151321D+05 0.28151321D+05 0.12178082D+01  1  2 12  4  5  2       -3 0.658573054513D-01 0.100000000000D+01
-.699888833332D-04 0.000000000000D+00 -.663202845390D-05 0.163035288419D-02 0.000000000000D+00  5 3 21 25 23 3 2 0.21981353D-01 0.34139656D-01 0.25461688D+05 0.25461688D+05 0.25461688D+05 0.12224465D+01  1  2  5  4  5  2       -3 -.803301074797D-01 0.100000000000D+01
  </mgrwgt>
  </event>
  <event>
  4     66 0.49155423E-03 0.19462951E+03 0.75467711E-02 0.10992447E+00
        1 -1    0    0  501    0 0.00000000E+00 0.00000000E+00 0.25458388E+03 0.25458408E+03 0.32000000E+00 0.0000E+00 0.9000E+01
       -1 -1    0    0    0  501 0.00000000E+00 0.00000000E+00 -.15354119E+03 0.15354152E+03 0.32000000E+00 0.0000E+00 0.9000E+01
       25  1    1    2    0    0 0.33430682E+02 -.15773734E+03 0.17042072E+02 0.20472936E+03 0.12500000E+03 0.0000E+00 0.9000E+01
       23  1    1    2    0    0 -.33430682E+02 0.15773734E+03 0.84000621E+02 0.20339625E+03 0.91188000E+02 0.0000E+00 0.9000E+01
#aMCatNLO 1  0  0  2  1 0.13515706D+03 0.00000000D+00  -5  5  0 0.00000000D+00 0.00000000D+00 0.00000000D+00 0.00000000D+00 0.00000000D+00
  <mgrwgt>
 0.1288333295D+00    7    2    0
 0.197709941400396D+03 0.000000000000000D+00 0.000000000000000D+00 0.197709941400396D+03
 0.197709941400396D+03 0.000000000000000D+00 0.000000000000000D+00 -.197709941400396D+03
 0.206952962520407D+03 0.334306820442277D+02 -.157737336183206D+03 -.347253649060332D+02
 0.188466920280385D+03 -.334306820442277D+02 0.157737336183206D+03 0.347253649060332D+02
 0.000000000000000D+00 0.000000000000000D+00 -.000000000000000D+00 -.000000000000000D+00
 0.261846746826626D+03 0.000000000000000D+00 0.000000000000000D+00 0.261846746826626D+03
 0.295259972967456D+03 0.000000000000000D+00 0.000000000000000D+00 -.295259972967456D+03
 0.189157648318095D+03 -.282445123323433D+02 -.134729404631962D+03 -.347253649060332D+02
 0.228723092238108D+03 -.983879803594012D+02 0.181969656624128D+03 0.347253649060332D+02
 0.139225979237879D+03 0.126632492691745D+03 -.472402519921659D+02 -.334132261408295D+02
0.740882800362D-03 0.000000000000D+00 0.000000000000D+00 0.142579833749D-02 0.000000000000D+00  5 1 -1 25 23 21 0 0.39166792D-01 0.23621762D-01 0.37880644D+05 0.37880644D+05 0.37880644D+05 0.12044086D+01  1  2  2  2  5  2       -1 0.121349705162D+00 0.100000000000D+01
-.411478149582D-04 0.000000000000D+00 -.284518503231D-05 0.142579833749D-02 0.000000000000D+00  5 1 -1 25 23 21 2 0.39166792D-01 0.23621762D-01 0.37880644D+05 0.37880644D+05 0.37880644D+05 0.12044086D+01  1  2  3  2  5  2       -1 -.977650618252D-02 0.100000000000D+01
0.510769287545D-04 0.000000000000D+00 0.000000000000D+00 0.142579833749D-02 0.000000000000D+00  5 1 -1 25 23 21 2 0.39166792D-01 0.23621762D-01 0.37880644D+05 0.37880644D+05 0.37880644D+05 0.12044086D+01  1  2 15  2  5  2       -1 0.121356118243D-01 0.100000000000D+01
-.241762474662D-03 0.000000000000D+00 0.000000000000D+00 0.142579833749D-02 0.000000000000D+00  5 1 -1 25 23 21 2 0.39166792D-01 0.23621762D-01 0.37880644D+05 0.37880644D+05 0.37880644D+05 0.12044086D+01  1  2  4  2  5  2       -1 -.574415028025D-01 0.100000000000D+01
-.250125866133D-03 0.000000000000D+00 -.225555049578D-03 0.142579833749D-02 0.000000000000D+00  5 1 -1 25 23 21 2 0.39166792D-01 0.45710947D-01 0.37880644D+05 0.37880644D+05 0.37880644D+05 0.12044086D+01  1  2  5  2  5  2       -1 -.190924900686D-01 0.100000000000D+01
0.359397406447D-03 0.000000000000D+00 0.183985100352D-03 0.142579833749D-02 0.000000000000D+00  5 1 -1 25 23 21 2 0.39166792D-01 0.23621762D-01 0.37880644D+05 0.37880644D+05 0.37880644D+05 0.12044086D+01  1  2  6  2  5  2       -1 0.853909489406D-01 0.100000000000D+01
-.477132674720D-05 0.000000000000D+00 -.161476460997D-04 0.142579833749D-02 0.000000000000D+00  5 1 21 25 23 1 2 0.39166792D-01 0.45710947D-01 0.37880644D+05 0.37880644D+05 0.37880644D+05 0.12044086D+01  1  2  5  4  5  2       -1 -.373243733249D-02 0.100000000000D+01
  </mgrwgt>
  </event>
  <event>
  4     66 0.49155423E-03 0.12348287E+03 0.75467711E-02 0.12073400E+00
        1 -1    0    0  501    0 0.00000000E+00 0.00000000E+00 0.44374649E+02 0.44375803E+02 0.32000000E+00 0.0000E+00 0.9000E+01
       -1 -1    0    0    0  501 0.00000000E+00 0.00000000E+00 -.34715522E+03 0.34715537E+03 0.32000000E+00 0.0000E+00 0.9000E+01
       25  1    1    2    0    0 0.26749525E+02 -.52738700E+02 -.14971904E+03 0.20380800E+03 0.12500000E+03 0.0000E+00 0.9000E+01
       23  1    1    2    0    0 -.26749525E+02 0.52738700E+02 -.15306153E+03 0.18772318E+03 0.91188000E+02 0.0000E+00 0.9000E+01
#aMCatNLO 1  0  0  1  1 0.39044095D+02 0.00000000D+00  -5  5  0 0.00000000D+00 0.00000000D+00 0.00000000D+00 0.00000000D+00 0.00000000D+00
  <mgrwgt>
 0.9675167369D-01    4    2    0
 0.124117468093143D+03 0.000000000000000D+00 0.000000000000000D+00 0.124117468093143D+03
 0.124117468093143D+03 0.000000000000000D+00 0.000000000000000D+00 -.124117468093143D+03
 0.138840916710614D+03 0.267495248372430D+02 -.527386995343462D+02 0.124455873887671D+02
 0.109394019475672D+03 -.267495248372430D+02 0.527386995343462D+02 -.124455873887671D+02
 0.000000000000000D+00 0.000000000000000D+00 -.000000000000000D+00 -.000000000000000D+00
 0.133432996085570D+03 0.000000000000000D+00 0.000000000000000D+00 0.133432996085570D+03
 0.174568734542297D+03 0.000000000000000D+00 0.000000000000000D+00 -.174568734542297D+03
 0.132446389408624D+03 0.910471217295941D+01 -.409787461762424D+02 0.124455873887671D+02
 0.118840349012036D+03 -.415941290066200D+02 0.626323638068354D+02 -.124455873887671D+02
 0.567149922072068D+02 0.324894168336606D+02 -.216536176305930D+02 -.411357384567270D+02
0.317277228041D-03 0.000000000000D+00 0.000000000000D+00 0.204629219615D-02 0.000000000000D+00  5 1 -1 25 23 21 0 0.68269692D-02 0.53408596D-01 0.15248019D+05 0.15248019D+05 0.15248019D+05 0.12470114D+01  1  2  2  1  5  1        1 0.118788610226D+00 0.100000000000D+01
-.176259495453D-04 0.000000000000D+00 -.121842809669D-05 0.204629219615D-02 0.000000000000D+00  5 1 -1 25 23 21 2 0.68269692D-02 0.53408596D-01 0.15248019D+05 0.15248019D+05 0.15248019D+05 0.12470114D+01  1  2  3  1  5  1        1 -.102619354693D-01 0.100000000000D+01
0.219703011403D-04 0.000000000000D+00 0.000000000000D+00 0.204629219615D-02 0.000000000000D+00  5 1 -1 25 23 21 2 0.68269692D-02 0.53408596D-01 0.15248019D+05 0.15248019D+05 0.15248019D+05 0.12470114D+01  1  2 15  1  5  1        1 0.127912434994D-01 0.100000000000D+01
-.421950994156D-04 0.000000000000D+00 0.000000000000D+00 0.204629219615D-02 0.000000000000D+00  5 1 -1 25 23 21 2 0.68269692D-02 0.53408596D-01 0.15248019D+05 0.15248019D+05 0.15248019D+05 0.12470114D+01  1  2  4  1  5  1        1 -.245662445708D-01 0.100000000000D+01
  </mgrwgt>
  </event>
  <event>
  4     66 0.49155423E-03 0.12560904E+03 0.75467711E-02 0.11545073E+00
        3 -1    0    0  501    0 0.00000000E+00 0.00000000E+00 0.16585565E+03 0.16585640E+03 0.50000000E+00 0.0000E+00 0.9000E+01
       -3 -1    0    0    0  501 0.00000000E+00 0.00000000E+00 -.10471920E+03 0.10472040E+03 0.50000000E+00 0.0000E+00 0.9000E+01
       25  1    1    2    0    0 0.12135753E+02 -.62224519E+02 0.74479229E+02 0.15871775E+03 0.12500000E+03 0.0000E+00 0.9000E+01
       23  1    1    2    0    0 -.12135753E+02 0.62224519E+02 -.13342783E+02 0.11185906E+03 0.91188000E+02 0.0000E+00 0.9000E+01
#aMCatNLO 1  0  0  2  1 0.11397209D+03 0.00000000D+00  -5  5  0 0.00000000D+00 0.00000000D+00 0.00000000D+00 0.00000000D+00 0.00000000D+00
  <mgrwgt>
 0.2544261456D-01    3    2    0
 0.131789738283259D+03 0.000000000000000D+00 0.000000000000000D+00 0.131789738283259D+03
 0.131789738283259D+03 0.000000000000000D+00 0.000000000000000D+00 -.131789738283259D+03
 0.145656046751618D+03 0.121357530010956D+02 -.622245185747785D+02 0.396423604562475D+02
 0.117923429814900D+03 -.121357530010956D+02 0.622245185747785D+02 -.396423604562475D+02
 0.000000000000000D+00 0.000000000000000D+00 0.000000000000000D+00 0.000000000000000D+00
 0.207436656359188D+03 0.000000000000000D+00 0.000000000000000D+00 0.207436656359188D+03
 0.194439221212306D+03 0.000000000000000D+00 0.000000000000000D+00 -.194439221212306D+03
 0.183902221494895D+03 -.213299109227121D+01 -.128914547965754D+03 0.396423604562475D+02
 0.103262847375753D+03 -.217123611165296D+02 0.174648485922573D+02 -.396423604562475D+02
 0.114710808700845D+03 0.238453522088008D+02 0.111449699373497D+03 0.129974351468816D+02
0.230604978182D-03 0.000000000000D+00 0.000000000000D+00 0.179810145260D-02 0.000000000000D+00  5 3 -3 25 23 21 0 0.25516404D-01 0.16110797D-01 0.15777631D+05 0.15777631D+05 0.15777631D+05 0.12453279D+01  1  2  2  2  5  2       -3 0.249124247737D-01 0.100000000000D+01
-.127754486049D-04 0.000000000000D+00 -.885583835906D-06 0.179810145260D-02 0.000000000000D+00  5 3 -3 25 23 21 2 0.25516404D-01 0.16110797D-01 0.15777631D+05 0.15777631D+05 0.15777631D+05 0.12453279D+01  1  2  3  2  5  2       -3 -.214038012766D-02 0.100000000000D+01
0.159400324342D-04 0.000000000000D+00 0.000000000000D+00 0.179810145260D-02 0.000000000000D+00  5 3 -3 25 23 21 2 0.25516404D-01 0.16110797D-01 0.15777631D+05 0.15777631D+05 0.15777631D+05 0.12453279D+01  1  2 15  2  5  2       -3 0.267056991198D-02 0.100000000000D+01
  </mgrwgt>
  </event>
  <event>
  4     66 0.49155423E-03 0.91905419E+02 0.75467711E-02 0.11751502E+00
        1 -1    0    0  501    0 0.00000000E+00 0.00000000E+00 0.40293700E+02 0.40294970E+02 0.32000000E+00 0.0000E+00 0.9000E+01
       -1 -1    0    0    0  501 0.00000000E+00 0.00000000E+00 -.77191249E+03 0.77191256E+03 0.32000000E+00 0.0000E+00 0.9000E+01
       25  1    1    2    0    0 0.72183317E+02 0.38747373E+02 -.64504803E+03 0.66213575E+03 0.12500000E+03 0.0000E+00 0.9000E+01
       23  1    1    2    0    0 -.72183317E+02 -.38747373E+02 -.86570759E+02 0.15007178E+03 0.91188000E+02 0.0000E+00 0.9000E+01
#aMCatNLO 1  0  0  2  1 0.65017072D+02 0.00000000D+00  -5  5  0 0.00000000D+00 0.00000000D+00 0.00000000D+00 0.00000000D+00 0.00000000D+00
  <mgrwgt>
 0.6946220432D-01    7    2    0
 0.176362561352522D+03 0.000000000000000D+00 0.000000000000000D+00 0.176362561352522D+03
 0.176362561352522D+03 0.000000000000000D+00 0.000000000000000D+00 -.176362561352522D+03
 0.186724381627672D+03 0.721833168302425D+02 0.387473730173929D+02 -.111933929395302D+03
 0.166000741077372D+03 -.721833168302425D+02 -.387473730173929D+02 0.111933929395302D+03
 0.000000000000000D+00 0.000000000000000D+00 -.000000000000000D+00 -.000000000000000D+00
 0.183066061761142D+03 0.000000000000000D+00 0.000000000000000D+00 0.183066061761142D+03
 0.462476276971103D+03 0.000000000000000D+00 0.000000000000000D+00 -.462476276971103D+03
 0.181172742464339D+03 0.421207975901906D+02 0.538070299546759D+02 -.111933929395302D+03
 0.177494557211863D+03 -.100251853759346D+03 -.246865907686254D+02 0.111933929395302D+03
 0.286875039056043D+03 0.581310561691551D+02 -.291204391860505D+02 -.279410215209960D+03
0.957360556797D-03 0.000000000000D+00 0.000000000000D+00 0.101007792463D-02 0.000000000000D+00  5 1 -1 25 23 21 0 0.61991336D-02 0.11875587D+00 0.18501415D+05 0.18501415D+05 0.18501415D+05 0.12375674D+01  1  2  2  2  5  2       -1 0.791250667188D-01 0.100000000000D+01
-.488239071174D-04 0.000000000000D+00 -.367651661692D-05 0.101007792463D-02 0.000000000000D+00  5 1 -1 25 23 21 2 0.61991336D-02 0.11875587D+00 0.18501415D+05 0.18501415D+05 0.18501415D+05 0.12375674D+01  1  2  3  2  5  2       -1 -.618028897158D-02 0.100000000000D+01
0.653843586313D-04 0.000000000000D+00 0.000000000000D+00 0.101007792463D-02 0.000000000000D+00  5 1 -1 25 23 21 2 0.61991336D-02 0.11875587D+00 0.18501415D+05 0.18501415D+05 0.18501415D+05 0.12375674D+01  1  2 15  2  5  2       -1 0.827656479010D-02 0.100000000000D+01
0.255003220999D-02 0.000000000000D+00 0.000000000000D+00 0.101007792463D-02 0.000000000000D+00  5 1 -1 25 23 21 2 0.61991336D-02 0.30951526D+00 0.29795166D+05 0.29795166D+05 0.29795166D+05 0.12152108D+01  1  2 12  2  5  2       -1 0.160543564742D-01 0.100000000000D+01
-.351322269973D-02 0.000000000000D+00 -.252004941576D-03 0.101007792463D-02 0.000000000000D+00  5 1 -1 25 23 21 2 0.61991336D-02 0.31403040D+00 0.18501415D+05 0.18501415D+05 0.18501415D+05 0.12375674D+01  1  2  5  2  5  2       -1 -.217864695330D-01 0.100000000000D+01
0.270767202048D-03 0.000000000000D+00 0.000000000000D+00 0.101007792463D-02 0.000000000000D+00  5 1 21 25 23 1 2 0.61991336D-02 0.30951526D+00 0.29795166D+05 0.29795166D+05 0.29795166D+05 0.12152108D+01  1  2 12  4  5  2       -1 0.160129007801D-01 0.100000000000D+01
-.364679700889D-03 0.000000000000D+00 -.272322288094D-04 0.101007792463D-02 0.000000000000D+00  5 1 21 25 23 1 2 0.61991336D-02 0.31403040D+00 0.18501415D+05 0.18501415D+05 0.18501415D+05 0.12375674D+01  1  2  5  4  5  2       -1 -.220399259421D-01 0.100000000000D+01
  </mgrwgt>
  </event>
  <event>
  4     66 0.49155423E-03 0.11062952E+03 0.75467711E-02 0.11052827E+00
        1 -1    0    0  501    0 0.00000000E+00 0.00000000E+00 0.20740806E+03 0.20740830E+03 0.32000000E+00 0.0000E+00 0.9000E+01
       -1 -1    0    0    0  501 0.00000000E+00 0.00000000E+00 -.61397771E+02 0.61398604E+02 0.32000000E+00 0.0000E+00 0.9000E+01
       25  1    1    2    0    0 0.44777706E+01 -.22838039E+02 0.57251343E+02 0.13944297E+03 0.12500000E+03 0.0000E+00 0.9000E+01
       23  1    1    2    0    0 -.44777706E+01 0.22838039E+02 0.88758944E+02 0.12936394E+03 0.91188000E+02 0.0000E+00 0.9000E+01
#aMCatNLO 1  0  0  2  1 0.21656587D+03 0.00000000D+00  -5  5  0 0.00000000D+00 0.00000000D+00 0.00000000D+00 0.00000000D+00 0.00000000D+00
  <mgrwgt>
 0.1531512017D+00    3    2    0
 0.112847408471289D+03 0.000000000000000D+00 0.000000000000000D+00 0.112847408471289D+03
 0.112847408471289D+03 0.000000000000000D+00 0.000000000000000D+00 -.112847408471289D+03
 0.129041286458881D+03 0.447777061581398D+01 -.228380385174177D+02 -.220233325805192D+02
 0.966535304836976D+02 -.447777061581398D+01 0.228380385174177D+02 0.220233325805192D+02
 0.000000000000000D+00 0.000000000000000D+00 -.000000000000000D+00 0.000000000000000D+00
 0.760254347511077D+03 0.000000000000000D+00 0.000000000000000D+00 0.760254347511077D+03
 0.175813199488373D+03 0.000000000000000D+00 0.000000000000000D+00 -.175813199488373D+03
 0.156523544591949D+03 -.133675787483694D+02 0.906140202842910D+02 -.220233325805192D+02
 0.156268598087985D+03 -.202832314272371D+02 0.123321477242616D+03 0.220233325805192D+02
 0.623275404319516D+03 0.336508101756065D+02 -.213935497526907D+03 0.584441148022703D+03
0.172772127613D-03 0.000000000000D+00 0.000000000000D+00 0.225721186787D-02 0.000000000000D+00  5 1 -1 25 23 21 0 0.31909015D-01 0.94458940D-02 0.12238890D+05 0.12238890D+05 0.12238890D+05 0.12580220D+01  1  2  2  2  5  2       -1 0.149925228211D+00 0.100000000000D+01
-.959385335325D-05 0.000000000000D+00 -.663490461982D-06 0.225721186787D-02 0.000000000000D+00  5 1 -1 25 23 21 2 0.31909015D-01 0.94458940D-02 0.12238890D+05 0.12238890D+05 0.12238890D+05 0.12580220D+01  1  2  3  2  5  2       -1 -.131756061518D-01 0.100000000000D+01
0.119428547170D-04 0.000000000000D+00 0.000000000000D+00 0.225721186787D-02 0.000000000000D+00  5 1 -1 25 23 21 2 0.31909015D-01 0.94458940D-02 0.12238890D+05 0.12238890D+05 0.12238890D+05 0.12580220D+01  1  2 15  2  5  2       -1 0.164015796663D-01 0.100000000000D+01
  </mgrwgt>
  </event>
  <event>
  5     66 0.49155423E-03 0.13283302E+03 0.75467711E-02 0.11758804E+00
        1 -1    0    0  502    0 0.00000000E+00 0.00000000E+00 0.49822897E+03 0.49822907E+03 0.32000000E+00 0.0000E+00 0.9000E+01
       -1 -1    0    0    0  501 0.00000000E+00 0.00000000E+00 -.67548755E+02 0.67549513E+02 0.32000000E+00 0.0000E+00 0.9000E+01
       25  1    1    2    0    0 -.23466254E+02 0.11096434E+03 0.30793047E+03 0.35115513E+03 0.12500000E+03 0.0000E+00 0.9000E+01
       23  1    1    2    0    0 0.32133255E+02 -.41839590E+02 0.85130096E+02 0.13544549E+03 0.91188000E+02 0.0000E+00 0.9000E+01
       21  1    1    2  502  501 -.86670009E+01 -.69124755E+02 0.37619645E+02 0.79177957E+02 0.75000000E+00 0.0000E+00 0.9000E+01
#aMCatNLO 2  0  0  1  1 0.69665979D+02 0.00000000D+00  -5  5  0 0.00000000D+00 0.00000000D+00 0.00000000D+00 0.00000000D+00 0.00000000D+00
  <mgrwgt>
 0.2006373209D-01    1    2    0
 0.139131422272828D+03 0.000000000000000D+00 0.000000000000000D+00 0.139131422272828D+03
 0.139131422272828D+03 0.000000000000000D+00 0.000000000000000D+00 -.139131422272828D+03
 0.152266033665045D+03 -.284660927634597D+02 0.710875040216722D+02 0.411848678865845D+02
 0.125996810880611D+03 0.284660927634597D+02 -.710875040216722D+02 -.411848678865845D+02
 0.000000000000000D+00 -.000000000000000D+00 -.000000000000000D+00 -.000000000000000D+00
 0.162467380588266D+03 0.000000000000000D+00 0.000000000000000D+00 0.162467380588266D+03
 0.207145136769011D+03 0.000000000000000D+00 0.000000000000000D+00 -.207145136769011D+03
 0.173738148527550D+03 -.234662542069668D+02 0.110964344834003D+03 0.411848678865845D+02
 0.113112961468147D+03 0.321332551016326D+02 -.418395898860457D+02 -.411848678865845D+02
 0.827614073615803D+02 -.866700089466577D+01 -.691247549479575D+02 -.446777561807454D+02
0.529333917274D-04 0.000000000000D+00 0.000000000000D+00 0.170937067961D-02 0.297305609287D-05  5 1 -1 25 23 21 2 0.76649923D-01 0.10392080D-01 0.29549746D+05 0.29549746D+05 0.29549746D+05 0.12155883D+01  1  2  1  1  5  1        1 0.200637320938D-01 0.100000000000D+01
  </mgrwgt>
  </event>
  <event>
  5     66 0.49155423E-03 0.14562442E+03 0.75467711E-02 0.11892403E+00
        1 -1    0    0  502    0 0.00000000E+00 0.00000000E+00 0.30778160E+03 0.30778176E+03 0.32000000E+00 0.0000E+00 0.9000E+01
       -1 -1    0    0    0  501 0.00000000E+00 0.00000000E+00 -.14157109E+03 0.14157145E+03 0.32000000E+00 0.0000E+00 0.9000E+01
       25  1    1    2    0    0 0.22802270E+02 0.80401279E+02 -.61003684E+02 0.16226755E+03 0.12500000E+03 0.0000E+00 0.9000E+01
       23  1    1    2    0    0 -.24384333E+02 -.10662510E+03 0.15622923E+03 0.21139142E+03 0.91188000E+02 0.0000E+00 0.9000E+01
       21  1    1    2  502  501 0.15820633E+01 0.26223821E+02 0.70984959E+02 0.75694245E+02 0.75000000E+00 0.0000E+00 0.9000E+01
#aMCatNLO 2  0  0  1  2 0.26271500D+02 0.00000000D+00  -5  5  0 0.00000000D+00 0.00000000D+00 0.00000000D+00 0.00000000D+00 0.00000000D+00
  <mgrwgt>
 0.1055707630D-01    2    2    0
 0.180182497645933D+03 0.000000000000000D+00 0.000000000000000D+00 0.180182497645933D+03
 0.180182497645933D+03 0.000000000000000D+00 0.000000000000000D+00 -.180182497645933D+03
 0.190324643458514D+03 0.236226043972040D+02 0.939989104320116D+02 -.105852006625752D+03
 0.170040351833353D+03 -.236226043972040D+02 -.939989104320116D+02 0.105852006625752D+03
 0.000000000000000D+00 0.000000000000000D+00 0.000000000000000D+00 0.000000000000000D+00
 0.237173006791882D+03 0.000000000000000D+00 0.000000000000000D+00 0.237173006791882D+03
 0.183713956708030D+03 0.000000000000000D+00 0.000000000000000D+00 -.183713956708030D+03
 0.183885715590355D+03 0.228022695402866D+02 0.804012785675132D+02 -.105852006625752D+03
 0.177435639329775D+03 -.243843328224074D+02 -.106625099139339D+03 0.105852006625752D+03
 0.595656085797815D+02 0.158206328212079D+01 0.262238205718263D+02 0.534590500838517D+02
-.200643089911D-02 0.000000000000D+00 0.000000000000D+00 0.107243927166D-02 0.000000000000D+00  5 1 -1 25 23 21 2 0.47622964D-01 0.21361266D-01 0.25446460D+05 0.25446460D+05 0.25446460D+05 0.12224743D+01  1  2 13  1  5  1        1 -.451550346994D+00 0.100000000000D+01
0.210400174329D-02 0.000000000000D+00 0.000000000000D+00 0.107243927166D-02 0.130449067925D-04  5 1 -1 25 23 21 2 0.47350456D-01 0.21779933D-01 0.25446460D+05 0.25446460D+05 0.25446460D+05 0.12224743D+01  1  2  1  1  5  1        1 0.462107423292D+00 0.100000000000D+01
  </mgrwgt>
  </event>
  <event>
  4     66 0.49155423E-03 0.11496271E+03 0.75467711E-02 0.11214445E+00
        1 -1    0    0  501    0 0.00000000E+00 0.00000000E+00 0.62911448E+01 0.62992779E+01 0.32000000E+00 0.0000E+00 0.9000E+01
       -1 -1    0    0    0  501 0.00000000E+00 0.00000000E+00 -.24540802E+04 0.24540802E+04 0.32000000E+00 0.0000E+00 0.9000E+01
       25  1    1    2    0    0 0.31791740E+02 -.22096717E+02 -.18324815E+04 0.18371479E+04 0.12500000E+03 0.0000E+00 0.9000E+01
       23  1    1    2    0    0 -.31791740E+02 0.22096717E+02 -.61530755E+03 0.62323159E+03 0.91188000E+02 0.0000E+00 0.9000E+01
#aMCatNLO 1  0  0  2  2 0.18177504D+03 0.00000000D+00  -5  5  0 0.00000000D+00 0.00000000D+00 0.00000000D+00 0.00000000D+00 0.00000000D+00
  <mgrwgt>
 0.5071015217D-01    3    2    0
 0.124294024621881D+03 0.000000000000000D+00 0.000000000000000D+00 0.124294024621881D+03
 0.124294024621881D+03 0.000000000000000D+00 0.000000000000000D+00 -.124294024621881D+03
 0.138996558951744D+03 0.317917395304327D+02 -.220967171064085D+02 -.468621786857387D+02
 0.109591490292019D+03 -.317917395304327D+02 0.220967171064085D+02 0.468621786857387D+02
 0.000000000000000D+00 0.000000000000000D+00 -.000000000000000D+00 0.000000000000000D+00
 0.447146242767262D+03 0.000000000000000D+00 0.000000000000000D+00 0.447146242767262D+03
 0.182155935386798D+03 0.000000000000000D+00 0.000000000000000D+00 -.182155935386798D+03
 0.145493045650625D+03 -.577985732512753D+02 0.254705155770059D+01 -.468621786857387D+02
 0.162465038800644D+03 -.117466678584127D+03 0.456634768686534D+02 0.468621786857387D+02
 0.321344093702791D+03 0.175265251835402D+03 -.482105284263540D+02 0.264990307380464D+03
0.234797700982D-02 0.000000000000D+00 0.000000000000D+00 0.183630976902D-02 0.000000000000D+00  5 1 -1 25 23 21 0 0.96849566D-03 0.37755142D+00 0.13216425D+05 0.13216425D+05 0.13216425D+05 0.12541391D+01  1  2  2  2  5  2       -1 0.496562473027D-01 0.100000000000D+01
-.129477203964D-03 0.000000000000D+00 -.901684995426D-05 0.183630976902D-02 0.000000000000D+00  5 1 -1 25 23 21 2 0.96849566D-03 0.37755142D+00 0.13216425D+05 0.13216425D+05 0.13216425D+05 0.12541391D+01  1  2  3  2  5  2       -1 -.430690020011D-02 0.100000000000D+01
0.161160467942D-03 0.000000000000D+00 0.000000000000D+00 0.183630976902D-02 0.000000000000D+00  5 1 -1 25 23 21 2 0.96849566D-03 0.37755142D+00 0.13216425D+05 0.13216425D+05 0.13216425D+05 0.12541391D+01  1  2 15  2  5  2       -1 0.536080507129D-02 0.100000000000D+01
  </mgrwgt>
  </event>
  <event>
  4     66 0.49155423E-03 0.71873158E+02 0.75467711E-02 0.12062590E+00
        1 -1    0    0  501    0 0.00000000E+00 0.00000000E+00 0.17831132E+04 0.17831132E+04 0.32000000E+00 0.0000E+00 0.9000E+01
       -1 -1    0    0    0  501 0.00000000E+00 0.00000000E+00 -.73587147E+01 0.73656692E+01 0.32000000E+00 0.0000E+00 0.9000E+01
       25  1    1    2    0    0 -.28379013E+02 0.24147617E+02 0.10493192E+04 0.10573950E+04 0.12500000E+03 0.0000E+00 0.9000E+01
       23  1    1    2    0    0 0.28379013E+02 -.24147617E+02 0.72643531E+03 0.73308389E+03 0.91188000E+02 0.0000E+00 0.9000E+01
#aMCatNLO 1  0  0  2  1 0.55259690D+02 0.00000000D+00  -5  5  0 0.00000000D+00 0.00000000D+00 0.00000000D+00 0.00000000D+00 0.00000000D+00
  <mgrwgt>
 0.8347328297D-01    7    2    0
 0.114576057865070D+03 0.000000000000000D+00 0.000000000000000D+00 0.114576057865070D+03
 0.114576057865070D+03 0.000000000000000D+00 0.000000000000000D+00 -.114576057865070D+03
 0.130525613104194D+03 -.283790125631344D+02 0.241476166031631D+02 0.484354565929966D+01
 0.986265026259454D+02 0.283790125631344D+02 -.241476166031631D+02 -.484354565929966D+01
 0.000000000000000D+00 0.000000000000000D+00 0.000000000000000D+00 -.000000000000000D+00
 0.125433989021447D+03 0.000000000000000D+00 0.000000000000000D+00 0.125433989021447D+03
 0.218659607470306D+03 0.000000000000000D+00 0.000000000000000D+00 -.218659607470306D+03
 0.140814946179106D+03 -.605940813479269D+02 0.225554081867632D+02 0.484354565929966D+01
 0.949059172850651D+02 0.540176125950202D+01 -.252832520151430D+02 -.484354565929966D+01
 0.108372733027581D+03 0.551923200884249D+02 0.272784382837980D+01 -.932256184488591D+02
0.160537260379D-03 0.000000000000D+00 0.000000000000D+00 0.227098766767D-02 0.000000000000D+00  5 1 -1 25 23 21 0 0.27432565D+00 0.11326471D-02 0.13103749D+05 0.13103749D+05 0.13103749D+05 0.12545699D+01  1  2  2  2  5  2       -1 0.114679937467D+00 0.100000000000D+01
-.891872766740D-05 0.000000000000D+00 -.616505350288D-06 0.227098766767D-02 0.000000000000D+00  5 1 -1 25 23 21 2 0.27432565D+00 0.11326471D-02 0.13103749D+05 0.13103749D+05 0.13103749D+05 0.12545699D+01  1  2  3  2  5  2       -1 -.100277676935D-01 0.100000000000D+01
0.111173269049D-04 0.000000000000D+00 0.000000000000D+00 0.227098766767D-02 0.000000000000D+00  5 1 -1 25 23 21 2 0.27432565D+00 0.11326471D-02 0.13103749D+05 0.13103749D+05 0.13103749D+05 0.12545699D+01  1  2 15  2  5  2       -1 0.124997618194D-01 0.100000000000D+01
0.130277267839D-03 0.000000000000D+00 0.000000000000D+00 0.227098766767D-02 0.000000000000D+00  5 1 -1 25 23 21 2 0.27432565D+00 0.21704985D-02 0.21137315D+05 0.21137315D+05 0.21137315D+05 0.12311904D+01  1  2 12  2  5  2       -1 0.558237116080D-01 0.100000000000D+01
-.190300608308D-03 0.000000000000D+00 -.483941608274D-04 0.227098766767D-02 0.000000000000D+00  5 1 -1 25 23 21 2 0.27432565D+00 0.23914535D-02 0.13103749D+05 0.13103749D+05 0.13103749D+05 0.12545699D+01  1  2  5  2  5  2       -1 -.734320511024D-01 0.100000000000D+01
0.919769150097D-05 0.000000000000D+00 0.000000000000D+00 0.227098766767D-02 0.000000000000D+00  5 1 21 25 23 1 2 0.27432565D+00 0.21704985D-02 0.21137315D+05 0.21137315D+05 0.21137315D+05 0.12311904D+01  1  2 12  4  5  2       -1 0.805507594543D-01 0.100000000000D+01
-.123783471820D-04 0.000000000000D+00 -.391204406685D-05 0.227098766767D-02 0.000000000000D+00  5 1 21 25 23 1 2 0.27432565D+00 0.23914535D-02 0.13103749D+05 0.13103749D+05 0.13103749D+05 0.12545699D+01  1  2  5  4  5  2       -1 -.966210685855D-01 0.100000000000D+01
  </mgrwgt>
  </event>
  <event>
  4     66 0.49155423E-03 0.19560820E+03 0.75467711E-02 0.98457620E-01
        1 -1    0    0  501    0 0.00000000E+00 0.00000000E+00 0.64665196E+03 0.64665204E+03 0.32000000E+00 0.0000E+00 0.9000E+01
       -1 -1    0    0    0  501 0.00000000E+00 0.00000000E+00 -.64012204E+02 0.64013003E+02 0.32000000E+00 0.0000E+00 0.9000E+01
       25  1    1    2    0    0 -.77004781E+02 0.14300345E+03 0.20655281E+03 0.29097901E+03 0.12500000E+03 0.0000E+00 0.9000E+01
       23  1    1    2    0    0 0.77004781E+02 -.14300345E+03 0.37608695E+03 0.41968603E+03 0.91188000E+02 0.0000E+00 0.9000E+01
#aMCatNLO 1  0  0  2  1 0.56892607D+03 0.00000000D+00  -5  5  0 0.00000000D+00 0.00000000D+00 0.00000000D+00 0.00000000D+00 0.00000000D+00
  <mgrwgt>
 0.1781087182D+00    5    2    0
 0.203454981019253D+03 0.000000000000000D+00 0.000000000000000D+00 0.203454981019253D+03
 0.203454981019253D+03 0.000000000000000D+00 0.000000000000000D+00 -.203454981019253D+03
 0.212437003257514D+03 -.770047814203660D+02 0.143003445681586D+03 -.558995394849403D+02
 0.194472958780991D+03 0.770047814203660D+02 -.143003445681586D+03 0.558995394849403D+02
 0.000000000000000D+00 0.000000000000000D+00 0.000000000000000D+00 -.000000000000000D+00
 0.520714313654034D+03 0.000000000000000D+00 0.000000000000000D+00 0.520714313654034D+03
 0.822996377423695D+03 0.000000000000000D+00 0.000000000000000D+00 -.822996377423695D+03
 0.390852449913370D+03 -.365028359390089D+03 0.277520437019462D+02 -.558995394849403D+02
 0.308613478625999D+03 -.163179685535596D+03 -.239112232141134D+03 0.558995394849403D+02
 0.644244762538360D+03 0.528208044925685D+03 0.211360188439188D+03 -.302282063769661D+03
0.803463330726D-03 0.000000000000D+00 0.000000000000D+00 0.134999200294D-02 0.000000000000D+00  5 1 -1 25 23 21 0 0.99484985D-01 0.98480989D-02 0.38262568D+05 0.38262568D+05 0.38262568D+05 0.12039637D+01  1  2  2  2  5  2       -1 0.157615890484D+00 0.100000000000D+01
-.445528966928D-04 0.000000000000D+00 -.308551074674D-05 0.134999200294D-02 0.000000000000D+00  5 1 -1 25 23 21 2 0.99484985D-01 0.98480989D-02 0.38262568D+05 0.38262568D+05 0.38262568D+05 0.12039637D+01  1  2  3  2  5  2       -1 -.126688341716D-01 0.100000000000D+01
0.553724727188D-04 0.000000000000D+00 0.000000000000D+00 0.134999200294D-02 0.000000000000D+00  5 1 -1 25 23 21 2 0.99484985D-01 0.98480989D-02 0.38262568D+05 0.38262568D+05 0.38262568D+05 0.12039637D+01  1  2 15  2  5  2       -1 0.157454335547D-01 0.100000000000D+01
0.124951331576D-02 0.000000000000D+00 -.546886360313D-03 0.134999200294D-02 0.000000000000D+00  5 1 -1 25 23 21 2 0.99484985D-01 0.98117769D-01 0.38262568D+05 0.38262568D+05 0.38262568D+05 0.12039637D+01  1  2  5  2  5  2       -1 0.627685720581D-02 0.100000000000D+01
0.255026535017D-03 0.000000000000D+00 -.149671501876D-03 0.134999200294D-02 0.000000000000D+00  5 1 21 25 23 1 2 0.99484985D-01 0.98117769D-01 0.38262568D+05 0.38262568D+05 0.38262568D+05 0.12039637D+01  1  2  5  4  5  2       -1 0.111393710901D-01 0.100000000000D+01
  </mgrwgt>
  </event>
  <event>
  4     66 0.49155423E-03 0.13262211E+03 0.75467711E-02 0.11763375E+00
        1 -1    0    0  501    0 0.00000000E+00 0.00000000E+00 0.23015891E+03 0.23015913E+03 0.32000000E+00 0.0000E+00 0.9000E+01
       -1 -1    0    0    0  501 0.00000000E+00 0.00000000E+00 -.81433008E+02 0.81433637E+02 0.32000000E+00 0.0000E+00 0.9000E+01
       25  1    1    2    0    0 0.75404831E+02 -.11067013E+02 0.43150612E+02 0.15262812E+03 0.12500000E+03 0.0000E+00 0.9000E+01
       23  1    1    2    0    0 -.75404831E+02 0.11067013E+02 0.10557529E+03 0.15896465E+03 0.91188000E+02 0.0000E+00 0.9000E+01
#aMCatNLO 1  0  0  1  1 0.68890274D+02 0.00000000D+00  -5  5  0 0.00000000D+00 0.00000000D+00 0.00000000D+00 0.00000000D+00 0.00000000D+00
  <mgrwgt>
 0.9843054105D-01    4    2    0
 0.136903853839019D+03 0.000000000000000D+00 0.000000000000000D+00 0.136903853839019D+03
 0.136903853839019D+03 0.000000000000000D+00 0.000000000000000D+00 -.136903853839019D+03
 0.150252179052339D+03 0.754048308337003D+02 -.110670130122239D+02 -.337986689072876D+02
 0.123555528625700D+03 -.754048308337003D+02 0.110670130122239D+02 0.337986689072876D+02
 0.000000000000000D+00 -.000000000000000D+00 -.000000000000000D+00 -.000000000000000D+00
 0.160964660029769D+03 0.000000000000000D+00 0.000000000000000D+00 0.160964660029769D+03
 0.201111099636899D+03 0.000000000000000D+00 0.000000000000000D+00 -.201111099636899D+03
 0.156608167386693D+03 0.841851380092169D+02 0.259158370631372D+02 -.337986689072876D+02
 0.125732992509229D+03 -.682718473241161D+02 0.411112989867016D+02 0.337986689072876D+02
 0.797345997707461D+02 -.159132906851009D+02 -.670271360498388D+02 -.401464396071302D+02
0.263734025470D-03 0.000000000000D+00 0.000000000000D+00 0.177508642369D-02 0.000000000000D+00  5 1 -1 25 23 21 0 0.35409129D-01 0.12528221D-01 0.17588624D+05 0.17588624D+05 0.17588624D+05 0.12400166D+01  1  2  2  1  5  1        1 0.132336795012D+00 0.100000000000D+01
-.146339037443D-04 0.000000000000D+00 -.101280810057D-05 0.177508642369D-02 0.000000000000D+00  5 1 -1 25 23 21 2 0.35409129D-01 0.12528221D-01 0.17588624D+05 0.17588624D+05 0.17588624D+05 0.12400166D+01  1  2  3  1  5  1        1 -.112909287551D-01 0.100000000000D+01
0.182553397414D-04 0.000000000000D+00 0.000000000000D+00 0.177508642369D-02 0.000000000000D+00  5 1 -1 25 23 21 2 0.35409129D-01 0.12528221D-01 0.17588624D+05 0.17588624D+05 0.17588624D+05 0.12400166D+01  1  2 15  1  5  1        1 0.140850824238D-01 0.100000000000D+01
-.475665239170D-04 0.000000000000D+00 0.000000000000D+00 0.177508642369D-02 0.000000000000D+00  5 1 -1 25 23 21 2 0.35409129D-01 0.12528221D-01 0.17588624D+05 0.17588624D+05 0.17588624D+05 0.12400166D+01  1  2  4  1  5  1        1 -.367004076327D-01 0.100000000000D+01
  </mgrwgt>
  </event>
  <event>
  4     66 0.49155423E-03 0.11142264E+03 0.75467711E-02 0.10975066E+00
        1 -1    0    0  501    0 0.00000000E+00 0.00000000E+00 0.16646280E+03 0.16646311E+03 0.32000000E+00 0.0000E+00 0.9000E+01
       -1 -1    0    0    0  501 0.00000000E+00 0.00000000E+00 -.74787503E+02 0.74788188E+02 0.32000000E+00 0.0000E+00 0.9000E+01
       25  1    1    2    0    0 0.16816148E+02 -.20762628E+02 0.58842816E+02 0.14071726E+03 0.12500000E+03 0.0000E+00 0.9000E+01
       23  1    1    2    0    0 -.16816148E+02 0.20762628E+02 0.32832480E+02 0.10053404E+03 0.91188000E+02 0.0000E+00 0.9000E+01
#aMCatNLO 1  0  0  1  1 0.23182854D+03 0.00000000D+00  -5  5  0 0.00000000D+00 0.00000000D+00 0.00000000D+00 0.00000000D+00 0.00000000D+00
  <mgrwgt>
 0.1117682550D+00    5    2    0
 0.111577133969510D+03 0.000000000000000D+00 0.000000000000000D+00 0.111577133969510D+03
 0.111577133969510D+03 0.000000000000000D+00 0.000000000000000D+00 -.111577133969510D+03
 0.127955374734319D+03 0.168161479189011D+02 -.207626281397205D+02 0.580589056919098D+01
 0.951988932047012D+02 -.168161479189011D+02 0.207626281397205D+02 -.580589056919098D+01
 0.000000000000000D+00 0.000000000000000D+00 0.000000000000000D+00 0.000000000000000D+00
 0.396235044184819D+03 0.000000000000000D+00 0.000000000000000D+00 0.396235044184819D+03
 0.217981080162201D+03 0.000000000000000D+00 0.000000000000000D+00 -.217981080162201D+03
 0.183351189168726D+03 -.894810388086490D+02 -.997601819265065D+02 0.580589056919098D+01
 0.138428705031975D+03 -.965894624392059D+02 -.385230114766912D+02 -.580589056919098D+01
 0.292436230146319D+03 0.186070501247855D+03 0.138283193403198D+03 0.178253964022618D+03
0.116048990182D-03 0.000000000000D+00 0.000000000000D+00 0.235303217308D-02 0.000000000000D+00  5 1 -1 25 23 21 0 0.25609738D-01 0.11505846D-01 0.12415004D+05 0.12415004D+05 0.12415004D+05 0.12572973D+01  1  2  2  1  5  1        1 0.980015183628D-01 0.100000000000D+01
-.644715107108D-05 0.000000000000D+00 -.445658678701D-06 0.235303217308D-02 0.000000000000D+00  5 1 -1 25 23 21 2 0.25609738D-01 0.11505846D-01 0.12415004D+05 0.12415004D+05 0.12415004D+05 0.12572973D+01  1  2  3  1  5  1        1 -.860667153572D-02 0.100000000000D+01
0.801901614937D-05 0.000000000000D+00 0.000000000000D+00 0.235303217308D-02 0.000000000000D+00  5 1 -1 25 23 21 2 0.25609738D-01 0.11505846D-01 0.12415004D+05 0.12415004D+05 0.12415004D+05 0.12572973D+01  1  2 15  1  5  1        1 0.107050443330D-01 0.100000000000D+01
0.748993490097D-04 0.000000000000D+00 -.632696112154D-04 0.235303217308D-02 0.000000000000D+00  5 1 -1 25 23 21 2 0.15538228D+00 0.11505846D-01 0.12415004D+05 0.12415004D+05 0.12415004D+05 0.12572973D+01  1  2  5  1  5  1        1 0.922238244573D-02 0.100000000000D+01
0.123674510917D-04 0.000000000000D+00 -.139804948222D-04 0.235303217308D-02 0.000000000000D+00  5 21 -1 25 23 -1 2 0.15538228D+00 0.11505846D-01 0.12415004D+05 0.12415004D+05 0.12415004D+05 0.12572973D+01  1  2  5  3  5  1        1 0.244598138149D-02 0.100000000000D+01
  </mgrwgt>
  </event>
  <event>
  4     66 0.49155423E-03 0.13315986E+03 0.75467711E-02 0.11116252E+00
        3 -1    0    0  501    0 0.00000000E+00 0.00000000E+00 0.98331592E+02 0.98332863E+02 0.50000000E+00 0.0000E+00 0.9000E+01
       -3 -1    0    0    0  501 0.00000000E+00 0.00000000E+00 -.18981010E+03 0.18981075E+03 0.50000000E+00 0.0000E+00 0.9000E+01
       25  1    1    2    0    0 0.70351874E+02 0.31628695E+02 -.82267089E+02 0.16835271E+03 0.12500000E+03 0.0000E+00 0.9000E+01
       23  1    1    2    0    0 -.70351874E+02 -.31628695E+02 -.92114149E+01 0.11979091E+03 0.91188000E+02 0.0000E+00 0.9000E+01
#aMCatNLO 1  0  0  2  1 0.18253966D+03 0.00000000D+00  -5  5  0 0.00000000D+00 0.00000000D+00 0.00000000D+00 0.00000000D+00 0.00000000D+00
  <mgrwgt>
 0.3522187385D-01    3    2    0
 0.136618472253085D+03 0.000000000000000D+00 0.000000000000000D+00 0.136618472253085D+03
 0.136618472253085D+03 0.000000000000000D+00 0.000000000000000D+00 -.136618472253085D+03
 0.149994680710567D+03 0.703518735659545D+02 0.316286954867057D+02 -.303915078440380D+02
 0.123242263795603D+03 -.703518735659545D+02 -.316286954867057D+02 0.303915078440380D+02
 0.000000000000000D+00 0.000000000000000D+00 0.000000000000000D+00 0.000000000000000D+00
 0.420117700380418D+03 0.000000000000000D+00 0.000000000000000D+00 0.420117700380418D+03
 0.196863986417189D+03 0.000000000000000D+00 0.000000000000000D+00 -.196863986417189D+03
 0.141268727244089D+03 0.327658067032429D+02 -.483178172025204D+02 -.303915078440380D+02
 0.187333091549706D+03 -.110430049379020D+03 -.116875986800897D+03 0.303915078440380D+02
 0.288379868003813D+03 0.776642426757769D+02 0.165193804003417D+03 0.223253713963228D+03
0.363229792511D-03 0.000000000000D+00 0.000000000000D+00 0.179561511889D-02 0.000000000000D+00  5 3 -3 25 23 21 0 0.15128086D-01 0.29201702D-01 0.17731548D+05 0.17731548D+05 0.17731548D+05 0.12396238D+01  1  2  2  2  5  2       -3 0.344987552757D-01 0.100000000000D+01
-.201633009279D-04 0.000000000000D+00 -.139489804384D-05 0.179561511889D-02 0.000000000000D+00  5 3 -3 25 23 21 2 0.15128086D-01 0.29201702D-01 0.17731548D+05 0.17731548D+05 0.17731548D+05 0.12396238D+01  1  2  3  2  5  2       -3 -.294281824106D-02 0.100000000000D+01
0.251178907934D-04 0.000000000000D+00 0.000000000000D+00 0.179561511889D-02 0.000000000000D+00  5 3 -3 25 23 21 2 0.15128086D-01 0.29201702D-01 0.17731548D+05 0.17731548D+05 0.17731548D+05 0.12396238D+01  1  2 15  2  5  2       -3 0.366593681600D-02 0.100000000000D+01
  </mgrwgt>
  </event>
  <event>
  4     66 0.49155423E-03 0.76797350E+02 0.75467711E-02 0.12009616E+00
        1 -1    0    0  501    0 0.00000000E+00 0.00000000E+00 0.15181596E+04 0.15181597E+04 0.32000000E+00 0.0000E+00 0.9000E+01
       -1 -1    0    0    0  501 0.00000000E+00 0.00000000E+00 -.13641507E+02 0.13645260E+02 0.32000000E+00 0.0000E+00 0.9000E+01
       25  1    1    2    0    0 -.34258405E+02 -.86861818E+02 0.74617172E+03 0.76230955E+03 0.12500000E+03 0.0000E+00 0.9000E+01
       23  1    1    2    0    0 0.34258405E+02 0.86861818E+02 0.75834642E+03 0.76949539E+03 0.91188000E+02 0.0000E+00 0.9000E+01
#aMCatNLO 1  0  0  1  2 0.12394563D+02 0.00000000D+00  -5  5  0 0.00000000D+00 0.00000000D+00 0.00000000D+00 0.00000000D+00 0.00000000D+00
  <mgrwgt>
 0.3500606303D+00    9    2    0
 0.143919721183785D+03 0.000000000000000D+00 0.000000000000000D+00 0.143919721183785D+03
 0.143919721183785D+03 0.000000000000000D+00 0.000000000000000D+00 -.143919721183785D+03
 0.156617335860695D+03 -.342584052421567D+02 -.868618178561644D+02 -.136152914433846D+02
 0.131222106506875D+03 0.342584052421567D+02 0.868618178561644D+02 0.136152914433846D+02
 0.000000000000000D+00 -.000000000000000D+00 -.000000000000000D+00 0.000000000000000D+00
 0.151646830987959D+03 0.000000000000000D+00 0.000000000000000D+00 0.151646830987959D+03
 0.149110713824951D+03 0.000000000000000D+00 0.000000000000000D+00 -.149110713824951D+03
 0.152812912201671D+03 -.306980984355246D+02 -.812344552939826D+02 -.136152914433846D+02
 0.135293265752904D+03 0.373249331587725D+02 0.917087216010057D+02 0.136152914433846D+02
 0.126513668583356D+02 -.662683472324794D+01 -.104742663070231D+02 0.253611716300871D+01
0.248275178626D-03 0.000000000000D+00 0.000000000000D+00 0.177225743113D-02 0.000000000000D+00  5 1 -1 25 23 21 0 0.23356331D+00 0.20989847D-02 0.20526042D+05 0.20526042D+05 0.20526042D+05 0.12325867D+01  1  2  2  1  5  1        1 0.108956944957D+00 0.100000000000D+01
-.137927212158D-04 0.000000000000D+00 -.953442058280D-06 0.177225743113D-02 0.000000000000D+00  5 1 -1 25 23 21 2 0.23356331D+00 0.20989847D-02 0.20526042D+05 0.20526042D+05 0.20526042D+05 0.12325867D+01  1  2  3  1  5  1        1 -.919615973258D-02 0.100000000000D+01
0.171931678959D-04 0.000000000000D+00 0.000000000000D+00 0.177225743113D-02 0.000000000000D+00  5 1 -1 25 23 21 2 0.23356331D+00 0.20989847D-02 0.20526042D+05 0.20526042D+05 0.20526042D+05 0.12325867D+01  1  2 15  1  5  1        1 0.114633737466D-01 0.100000000000D+01
0.601313442003D-03 0.000000000000D+00 0.000000000000D+00 0.177225743113D-02 0.000000000000D+00  5 1 -1 25 23 21 2 0.25012637D+00 0.20989847D-02 0.22381080D+05 0.22381080D+05 0.22381080D+05 0.12284840D+01  1  2 12  1  5  1        1 0.339685230531D+00 0.100000000000D+01
-.526967005275D-03 0.000000000000D+00 0.000000000000D+00 0.177225743113D-02 0.000000000000D+00  5 1 -1 25 23 21 2 0.23356331D+00 0.20989847D-02 0.20526042D+05 0.20526042D+05 0.20526042D+05 0.12325867D+01  1  2  4  1  5  1        1 -.351350011247D+00 0.100000000000D+01
-.237689948984D-02 0.000000000000D+00 -.410604141274D-03 0.177225743113D-02 0.000000000000D+00  5 1 -1 25 23 21 2 0.25105721D+00 0.20989847D-02 0.20526042D+05 0.20526042D+05 0.20526042D+05 0.12325867D+01  1  2  5  1  5  1        1 -.133856261916D+01 0.100000000000D+01
0.240135869475D-02 0.000000000000D+00 0.409535438060D-03 0.177225743113D-02 0.000000000000D+00  5 1 -1 25 23 21 2 0.23356331D+00 0.20989847D-02 0.20526042D+05 0.20526042D+05 0.20526042D+05 0.12325867D+01  1  2  6  1  5  1        1 0.160108203353D+01 0.100000000000D+01
0.724402721755D-05 0.000000000000D+00 0.000000000000D+00 0.177225743113D-02 0.000000000000D+00  5 21 -1 25 23 -1 2 0.25012637D+00 0.20989847D-02 0.22381080D+05 0.22381080D+05 0.22381080D+05 0.12284840D+01  1  2 12  3  5  1        1 0.415528729043D-02 0.100000000000D+01
-.282444948572D-04 0.000000000000D+00 -.500573739796D-05 0.177225743113D-02 0.000000000000D+00  5 21 -1 25 23 -1 2 0.25105721D+00 0.20989847D-02 0.20526042D+05 0.20526042D+05 0.20526042D+05 0.12325867D+01  1  2  5  3  5  1        1 -.161734496323D-01 0.100000000000D+01
  </mgrwgt>
  </event>
  <event>
  4     66 0.49155423E-03 0.11113252E+03 0.75467711E-02 0.10962594E+00
        1 -1    0    0  501    0 0.00000000E+00 0.00000000E+00 0.19267777E+04 0.19267777E+04 0.32000000E+00 0.0000E+00 0.9000E+01
       -1 -1    0    0    0  501 0.00000000E+00 0.00000000E+00 -.68768105E+02 0.68768849E+02 0.32000000E+00 0.0000E+00 0.9000E+01
       25  1    1    2    0    0 0.24194195E+03 -.37492976E+02 0.26696073E+03 0.38319011E+03 0.12500000E+03 0.0000E+00 0.9000E+01
       23  1    1    2    0    0 -.24194195E+03 0.37492976E+02 0.15910489E+04 0.16123565E+04 0.91188000E+02 0.0000E+00 0.9000E+01
#aMCatNLO 1  0  0  1  2 0.21553309D+02 0.00000000D+00  -5  5  0 0.00000000D+00 0.00000000D+00 0.00000000D+00 0.00000000D+00 0.00000000D+00
  <mgrwgt>
 0.9864390214D-01    6    2    0
 0.364007719437346D+03 0.000000000000000D+00 0.000000000000000D+00 0.364007719437346D+03
 0.364007719437346D+03 0.000000000000000D+00 0.000000000000000D+00 -.364007719437346D+03
 0.369028044739306D+03 0.241941947983511D+03 -.374929761559716D+02 -.246201276091387D+03
 0.358987394135387D+03 -.241941947983511D+03 0.374929761559716D+02 0.246201276091387D+03
 0.000000000000000D+00 -.000000000000000D+00 0.000000000000000D+00 -.000000000000000D+00
 0.374234892717226D+03 0.000000000000000D+00 0.000000000000000D+00 0.374234892717226D+03
 0.375702760134542D+03 0.000000000000000D+00 0.000000000000000D+00 -.375702760134542D+03
 0.373989241323792D+03 0.247875408890241D+03 -.467511063442798D+02 -.246201276091387D+03
 0.354345176621416D+03 -.236245538220948D+03 0.286047229060112D+02 0.246201276091387D+03
 0.216032349065593D+02 -.116298706692936D+02 0.181463834382686D+02 -.146786741731619D+01
0.320787479821D-02 0.000000000000D+00 0.000000000000D+00 0.699081160838D-03 0.000000000000D+00  5 1 -1 25 23 21 0 0.29642740D+00 0.10579768D-01 0.71865286D+05 0.71865286D+05 0.71865286D+05 0.11769869D+01  1  2  2  1  5  1        1 0.676260215240D-01 0.100000000000D+01
-.157939021283D-03 0.000000000000D+00 -.123190838780D-04 0.699081160838D-03 0.000000000000D+00  5 1 -1 25 23 21 2 0.29642740D+00 0.10579768D-01 0.71865286D+05 0.71865286D+05 0.71865286D+05 0.11769869D+01  1  2  3  1  5  1        1 -.461242290714D-02 0.100000000000D+01
0.219640860239D-03 0.000000000000D+00 0.000000000000D+00 0.699081160838D-03 0.000000000000D+00  5 1 -1 25 23 21 2 0.29642740D+00 0.10579768D-01 0.71865286D+05 0.71865286D+05 0.71865286D+05 0.11769869D+01  1  2 15  1  5  1        1 0.641435236766D-02 0.100000000000D+01
0.625552530426D-02 0.000000000000D+00 0.000000000000D+00 0.699081160838D-03 0.000000000000D+00  5 1 -1 25 23 21 2 0.30937707D+00 0.10579768D-01 0.77817605D+05 0.77817605D+05 0.77817605D+05 0.11737121D+01  1  2 12  1  5  1        1 0.159775279192D+00 0.100000000000D+01
-.451840185023D-02 0.000000000000D+00 0.000000000000D+00 0.699081160838D-03 0.000000000000D+00  5 1 -1 25 23 21 2 0.29642740D+00 0.10579768D-01 0.71865286D+05 0.71865286D+05 0.71865286D+05 0.11769869D+01  1  2  4  1  5  1        1 -.131954598860D+00 0.100000000000D+01
0.725883811814D-04 0.000000000000D+00 0.000000000000D+00 0.699081160838D-03 0.000000000000D+00  5 21 -1 25 23 -1 2 0.30937707D+00 0.10579768D-01 0.77817605D+05 0.77817605D+05 0.77817605D+05 0.11737121D+01  1  2 12  3  5  1        1 0.139527082322D-02 0.100000000000D+01
  </mgrwgt>
  </event>
  <event>
  4     66 0.49155423E-03 0.15935063E+03 0.75467711E-02 0.11391794E+00
        3 -1    0    0  501    0 0.00000000E+00 0.00000000E+00 0.35834459E+03 0.35834494E+03 0.50000000E+00 0.0000E+00 0.9000E+01
       -3 -1    0    0    0  501 0.00000000E+00 0.00000000E+00 -.70862361E+02 0.70864125E+02 0.50000000E+00 0.0000E+00 0.9000E+01
       25  1    1    2    0    0 -.87700825E+02 0.76567482E+02 0.15276020E+03 0.22916084E+03 0.12500000E+03 0.0000E+00 0.9000E+01
       23  1    1    2    0    0 0.87700825E+02 -.76567482E+02 0.13472203E+03 0.20004822E+03 0.91188000E+02 0.0000E+00 0.9000E+01
#aMCatNLO 1  0  0  2  1 0.93851620D+02 0.00000000D+00  -5  5  0 0.00000000D+00 0.00000000D+00 0.00000000D+00 0.00000000D+00 0.00000000D+00
  <mgrwgt>
 0.2379282292D-01    3    2    0
 0.159353686441007D+03 0.000000000000000D+00 0.000000000000000D+00 0.159353686441007D+03
 0.159353686441007D+03 0.000000000000000D+00 0.000000000000000D+00 -.159353686441007D+03
 0.170821492456756D+03 -.877008253254694D+02 0.765674817623144D+02 -.984001505452318D+00
 0.147885880425258D+03 0.877008253254694D+02 -.765674817623144D+02 0.984001505452318D+00
 0.000000000000000D+00 0.000000000000000D+00 -.000000000000000D+00 0.000000000000000D+00
 0.282381324773877D+03 0.000000000000000D+00 0.000000000000000D+00 0.282381324773877D+03
 0.185059573705131D+03 0.000000000000000D+00 0.000000000000000D+00 -.185059573705131D+03
 0.204312220197781D+03 -.141777336253068D+03 0.775674028711055D+02 -.984001505452318D+00
 0.127926423104286D+03 0.479417566450258D+02 -.758323024514176D+02 0.984001505452318D+00
 0.135202255176941D+03 0.938355796080424D+02 -.173510041968783D+01 0.973217510687459D+02
0.469595536342D-03 0.000000000000D+00 0.000000000000D+00 0.165266947025D-02 0.000000000000D+00  5 3 -3 25 23 21 0 0.55130100D-01 0.10902064D-01 0.25392624D+05 0.25392624D+05 0.25392624D+05 0.12225727D+01  1  2  2  2  5  2       -3 0.233265815978D-01 0.100000000000D+01
-.260886408962D-04 0.000000000000D+00 -.180337050690D-05 0.165266947025D-02 0.000000000000D+00  5 3 -3 25 23 21 2 0.55130100D-01 0.10902064D-01 0.25392624D+05 0.25392624D+05 0.25392624D+05 0.12225727D+01  1  2  3  2  5  2       -3 -.193699281613D-02 0.100000000000D+01
0.323682731290D-04 0.000000000000D+00 0.000000000000D+00 0.165266947025D-02 0.000000000000D+00  5 3 -3 25 23 21 2 0.55130100D-01 0.10902064D-01 0.25392624D+05 0.25392624D+05 0.25392624D+05 0.12225727D+01  1  2 15  2  5  2       -3 0.240323414205D-02 0.100000000000D+01
  </mgrwgt>
  </event>
  <event>
  5     66 0.49155423E-03 0.11597176E+03 0.75467711E-02 0.12035587E+00
       21 -1    0    0  501  502 0.00000000E+00 0.00000000E+00 0.70116871E+03 0.70116911E+03 0.75000000E+00 0.0000E+00 0.9000E+01
       -1 -1    0    0    0  501 0.00000000E+00 0.00000000E+00 -.41903455E+02 0.41904677E+02 0.32000000E+00 0.0000E+00 0.9000E+01
       25  1    1    2    0    0 -.22915010E+02 0.21169039E+02 0.18831972E+03 0.22817217E+03 0.12500000E+03 0.0000E+00 0.9000E+01
       23  1    1    2    0    0 0.56278264E+02 0.24226889E+02 0.13399958E+03 0.17327817E+03 0.91188000E+02 0.0000E+00 0.9000E+01
       -1  1    1    2    0  502 -.33363253E+02 -.45395927E+02 0.33694596E+03 0.34162344E+03 0.32000000E+00 0.0000E+00 0.9000E+01
#aMCatNLO 2  0  0  1  2 0.56337349D+02 0.00000000D+00  -5  5  0 0.00000000D+00 0.00000000D+00 0.00000000D+00 0.00000000D+00 0.00000000D+00
  <mgrwgt>
 0.8534436992D-02    2    2    0
 0.116295693200647D+03 0.000000000000000D+00 0.000000000000000D+00 0.116295693200647D+03
 0.116295693200647D+03 0.000000000000000D+00 0.000000000000000D+00 -.116295693200647D+03
 0.132009406354642D+03 -.413765172812644D+02 -.395073049132646D+01 0.859412080222122D+01
 0.100581980046652D+03 0.413765172812644D+02 0.395073049132646D+01 -.859412080222122D+01
 0.000000000000000D+00 -.000000000000000D+00 -.000000000000000D+00 0.000000000000000D+00
 0.231843862192967D+03 0.000000000000000D+00 0.000000000000000D+00 0.231843862192967D+03
 0.126731411523356D+03 0.000000000000000D+00 0.000000000000000D+00 -.126731411523356D+03
 0.129120427571072D+03 -.229150104748444D+02 0.211690386817915D+02 0.859412080222122D+01
 0.110196621376951D+03 0.562782637662583D+02 0.242268886567691D+02 -.859412080222122D+01
 0.119258224768300D+03 -.333632532914139D+02 -.453959273385606D+02 0.105112450669611D+03
-.901201607213D-05 0.000000000000D+00 0.000000000000D+00 0.222121283693D-02 0.000000000000D+00  5 21 -1 25 23 -1 2 0.10802408D+00 0.59159371D-02 0.21761035D+05 0.21761035D+05 0.21761035D+05 0.12298115D+01  1  2 13  3  5  1        1 -.113383420783D-01 0.100000000000D+01
0.178996474728D-04 0.000000000000D+00 0.000000000000D+00 0.222121283693D-02 0.612528287181D-06  5 21 -1 25 23 -1 2 0.10787206D+00 0.64467999D-02 0.21761035D+05 0.21761035D+05 0.21761035D+05 0.12298115D+01  1  2  1  3  5  1        1 0.198727790706D-01 0.100000000000D+01
  </mgrwgt>
  </event>
  <event>
  5     66 0.49155423E-03 0.12019045E+03 0.75467711E-02 0.12223182E+00
        1 -1    0    0  501    0 0.00000000E+00 0.00000000E+00 0.81140802E+03 0.81140809E+03 0.32000000E+00 0.0000E+00 0.9000E+01
       -1 -1    0    0    0  502 0.00000000E+00 0.00000000E+00 -.22577735E+02 0.22580003E+02 0.32000000E+00 0.0000E+00 0.9000E+01
       25  1    1    2    0    0 -.53968910E+02 -.34027059E+02 0.43114321E+03 0.45340925E+03 0.12500000E+03 0.0000E+00 0.9000E+01
       23  1    1    2    0    0 0.28621482E+02 0.33751462E+02 0.24628497E+03 0.26632666E+03 0.91188000E+02 0.0000E+00 0.9000E+01
       21  1    1    2  501  502 0.25347427E+02 0.27559633E+00 0.11140211E+03 0.11425218E+03 0.75000000E+00 0.0000E+00 0.9000E+01
#aMCatNLO 2  0  0  2  2 0.25348925D+02 0.00000000D+00  -5  5  0 0.00000000D+00 0.00000000D+00 0.00000000D+00 0.00000000D+00 0.00000000D+00
  <mgrwgt>
 0.5084303772D-01    1    2    0
 0.120901069358751D+03 0.000000000000000D+00 0.000000000000000D+00 0.120901069358751D+03
 0.120901069358751D+03 0.000000000000000D+00 0.000000000000000D+00 -.120901069358751D+03
 0.136016214110511D+03 -.394923085221096D+02 -.338696582322690D+02 0.129851576725150D+02
 0.105785924606992D+03 0.394923085221096D+02 0.338696582322690D+02 -.129851576725150D+02
 0.000000000000000D+00 0.000000000000000D+00 0.000000000000000D+00 0.000000000000000D+00
 0.141191836604389D+03 0.000000000000000D+00 0.000000000000000D+00 0.141191836604389D+03
 0.129747840244878D+03 0.000000000000000D+00 0.000000000000000D+00 -.129747840244878D+03
 0.140940051989793D+03 -.539689096410762D+02 -.340270587512172D+02 0.129851576725150D+02
 0.102187162264917D+03 0.286214823641831D+02 0.337514624165115D+02 -.129851576725150D+02
 0.278124625945564D+02 0.253474272768931D+02 0.275596334705691D+00 0.114439963595114D+02
0.500587867045D-04 0.000000000000D+00 0.000000000000D+00 0.210725030410D-02 0.272485224307D-04  5 1 -1 25 23 21 2 0.12482744D+00 0.34735451D-02 0.17828699D+05 0.17828699D+05 0.17828699D+05 0.12393589D+01  1  2  1  2  5  2       -1 0.508430377220D-01 0.100000000000D+01
  </mgrwgt>
  </event>
  <event>
  4     66 0.49155423E-03 0.17775302E+03 0.75467711E-02 0.10759263E+00
        1 -1    0    0  501    0 0.00000000E+00 0.00000000E+00 0.35826805E+04 0.35826806E+04 0.32000000E+00 0.0000E+00 0.9000E+01
       -1 -1    0    0    0  501 0.00000000E+00 0.00000000E+00 -.92515742E+01 0.92571067E+01 0.32000000E+00 0.0000E+00 0.9000E+01
       25  1    1    2    0    0 -.84423370E+02 0.11226931E+03 0.22740486E+04 0.22818093E+04 0.12500000E+03 0.0000E+00 0.9000E+01
       23  1    1    2    0    0 0.84423370E+02 -.11226931E+03 0.12993804E+04 0.13101284E+04 0.91188000E+02 0.0000E+00 0.9000E+01
#aMCatNLO 1  0  0  2  2 0.22114317D+03 0.00000000D+00  -5  5  0 0.00000000D+00 0.00000000D+00 0.00000000D+00 0.00000000D+00 0.00000000D+00
  <mgrwgt>
 0.9619998290D-01    5    2    0
 0.182086234209389D+03 0.000000000000000D+00 0.000000000000000D+00 0.182086234209389D+03
 0.182086234209389D+03 0.000000000000000D+00 0.000000000000000D+00 -.182086234209389D+03
 0.192122342495854D+03 -.844233702744345D+02 0.112269310166858D+03 0.394244978694435D+02
 0.172050125922925D+03 0.844233702744345D+02 -.112269310166858D+03 -.394244978694435D+02
 0.000000000000000D+00 -.000000000000000D+00 0.000000000000000D+00 -.000000000000000D+00
 0.244204584205353D+03 0.000000000000000D+00 0.000000000000000D+00 0.244204584205353D+03
 0.605200997500948D+03 0.000000000000000D+00 0.000000000000000D+00 -.605200997500948D+03
 0.139740635181839D+03 -.346816057043106D+02 0.338428768655492D+02 0.394244978694435D+02
 0.286317913386793D+03 0.153126529805405D+03 -.220591638598710D+03 -.394244978694435D+02
 0.423347033137670D+03 -.118444924101094D+03 0.186748761733160D+03 -.360996413295596D+03
0.322134192911D-02 0.000000000000D+00 0.000000000000D+00 0.146311799442D-02 0.000000000000D+00  5 1 -1 25 23 21 0 0.55118205D+00 0.14237458D-02 0.31596135D+05 0.31596135D+05 0.31596135D+05 0.12125427D+01  1  2  2  2  5  2       -1 0.100978710307D+00 0.100000000000D+01
-.178837213671D-03 0.000000000000D+00 -.123708012066D-04 0.146311799442D-02 0.000000000000D+00  5 1 -1 25 23 21 2 0.55118205D+00 0.14237458D-02 0.31596135D+05 0.31596135D+05 0.31596135D+05 0.12125427D+01  1  2  3  2  5  2       -1 -.824223440289D-02 0.100000000000D+01
0.221808492539D-03 0.000000000000D+00 0.000000000000D+00 0.146311799442D-02 0.000000000000D+00  5 1 -1 25 23 21 2 0.55118205D+00 0.14237458D-02 0.31596135D+05 0.31596135D+05 0.31596135D+05 0.12125427D+01  1  2 15  2  5  2       -1 0.102226910749D-01 0.100000000000D+01
-.102116290701D-03 0.000000000000D+00 -.154989347483D-02 0.146311799442D-02 0.000000000000D+00  5 1 -1 25 23 21 2 0.55118205D+00 0.92189404D-02 0.31596135D+05 0.31596135D+05 0.31596135D+05 0.12125427D+01  1  2  5  2  5  2       -1 -.297637566993D-03 0.100000000000D+01
-.145653927864D-03 0.000000000000D+00 -.354638165382D-03 0.146311799442D-02 0.000000000000D+00  5 1 21 25 23 1 2 0.55118205D+00 0.92189404D-02 0.31596135D+05 0.31596135D+05 0.31596135D+05 0.12125427D+01  1  2  5  4  5  2       -1 -.646154651591D-02 0.100000000000D+01
  </mgrwgt>
  </event>
  <event>
  4     66 0.49155423E-03 0.12709610E+03 0.75467711E-02 0.10969658E+00
        1 -1    0    0  501    0 0.00000000E+00 0.00000000E+00 0.65915954E+03 0.65915962E+03 0.32000000E+00 0.0000E+00 0.9000E+01
       -1 -1    0    0    0  501 0.00000000E+00 0.00000000E+00 -.29234337E+02 0.29236088E+02 0.32000000E+00 0.0000E+00 0.9000E+01
       25  1    1    2    0    0 0.20537302E+02 -.62994059E+02 0.48252169E+03 0.50283418E+03 0.12500000E+03 0.0000E+00 0.9000E+01
       23  1    1    2    0    0 -.20537302E+02 0.62994059E+02 0.14740351E+03 0.18556152E+03 0.91188000E+02 0.0000E+00 0.9000E+01
#aMCatNLO 1  0  0  1  2 0.21938038D+03 0.00000000D+00  -5  5  0 0.00000000D+00 0.00000000D+00 0.00000000D+00 0.00000000D+00 0.00000000D+00
  <mgrwgt>
 0.1631781954D+00    3    2    0
 0.138819024406750D+03 0.000000000000000D+00 0.000000000000000D+00 0.138819024406750D+03
 0.138819024406750D+03 0.000000000000000D+00 0.000000000000000D+00 -.138819024406750D+03
 0.151983193884310D+03 0.205373019826106D+02 -.629940590332846D+02 0.555325037888805D+02
 0.125654854929190D+03 -.205373019826106D+02 0.629940590332846D+02 -.555325037888805D+02
 0.000000000000000D+00 0.000000000000000D+00 -.000000000000000D+00 -.000000000000000D+00
 0.236945546867900D+03 0.000000000000000D+00 0.000000000000000D+00 0.236945546867900D+03
 0.377391161782206D+03 0.000000000000000D+00 0.000000000000000D+00 -.377391161782206D+03
 0.177184160810808D+03 -.938140145885523D+02 -.623241408440360D+02 0.555325037888805D+02
 0.176666993510312D+03 -.125562605689611D+03 0.636093415100797D+02 -.555325037888805D+02
 0.260485554328986D+03 0.219376620278163D+03 -.128520066604367D+01 -.140445614914306D+03
0.261583898673D-03 0.000000000000D+00 0.000000000000D+00 0.160631913103D-02 0.000000000000D+00  5 1 -1 25 23 21 0 0.10140930D+00 0.44977310D-02 0.16153420D+05 0.16153420D+05 0.16153420D+05 0.12441714D+01  1  2  2  1  5  1        1 0.159699547479D+00 0.100000000000D+01
-.143948989329D-04 0.000000000000D+00 -.100455104753D-05 0.160631913103D-02 0.000000000000D+00  5 1 -1 25 23 21 2 0.10140930D+00 0.44977310D-02 0.16153420D+05 0.16153420D+05 0.16153420D+05 0.12441714D+01  1  2  3  1  5  1        1 -.136038455168D-01 0.100000000000D+01
0.180758275798D-04 0.000000000000D+00 0.000000000000D+00 0.160631913103D-02 0.000000000000D+00  5 1 -1 25 23 21 2 0.10140930D+00 0.44977310D-02 0.16153420D+05 0.16153420D+05 0.16153420D+05 0.12441714D+01  1  2 15  1  5  1        1 0.170824933978D-01 0.100000000000D+01
  </mgrwgt>
  </event>
  <event>
  4     66 0.49155423E-03 0.13980879E+03 0.75467711E-02 0.11530492E+00
        1 -1    0    0  501    0 0.00000000E+00 0.00000000E+00 0.41328606E+02 0.41329845E+02 0.32000000E+00 0.0000E+00 0.9000E+01
       -1 -1    0    0    0  501 0.00000000E+00 0.00000000E+00 -.48021855E+03 0.48021866E+03 0.32000000E+00 0.0000E+00 0.9000E+01
       25  1    1    2    0    0 0.64797269E+02 -.59569597E+02 -.27160596E+03 0.31167615E+03 0.12500000E+03 0.0000E+00 0.9000E+01
       23  1    1    2    0    0 -.64797269E+02 0.59569597E+02 -.16728398E+03 0.20987236E+03 0.91188000E+02 0.0000E+00 0.9000E+01
#aMCatNLO 1  0  0  1  2 0.96467061D+02 0.00000000D+00  -5  5  0 0.00000000D+00 0.00000000D+00 0.00000000D+00 0.00000000D+00 0.00000000D+00
  <mgrwgt>
 0.1298038697D+00    3    2    0
 0.140879786894187D+03 0.000000000000000D+00 0.000000000000000D+00 0.140879786894187D+03
 0.140879786894187D+03 0.000000000000000D+00 0.000000000000000D+00 -.140879786894187D+03
 0.153851393426873D+03 0.647972692683252D+02 -.595695969587127D+02 -.172634953857842D+02
 0.127908180361501D+03 -.647972692683252D+02 0.595695969587127D+02 0.172634953857842D+02
 0.000000000000000D+00 0.000000000000000D+00 -.000000000000000D+00 -.000000000000000D+00
 0.176478714741843D+03 0.000000000000000D+00 0.000000000000000D+00 0.176478714741843D+03
 0.233289988437345D+03 0.000000000000000D+00 0.000000000000000D+00 -.233289988437345D+03
 0.133322497251255D+03 0.230089751041065D+02 -.363654652800495D+02 -.172634953857842D+02
 0.164493471628296D+03 -.107346284495996D+03 0.831961405132402D+02 0.172634953857842D+02
 0.111952734299637D+03 0.843373093918897D+02 -.468306752331907D+02 -.568112736955021D+02
0.571378196369D-03 0.000000000000D+00 0.000000000000D+00 0.179612807668D-02 0.000000000000D+00  5 1 -1 25 23 21 0 0.63583506D-02 0.73879881D-01 0.19546498D+05 0.19546498D+05 0.19546498D+05 0.12349242D+01  1  2  2  1  5  1        1 0.127157666859D+00 0.100000000000D+01
-.317409855147D-04 0.000000000000D+00 -.219424272139D-05 0.179612807668D-02 0.000000000000D+00  5 1 -1 25 23 21 2 0.63583506D-02 0.73879881D-01 0.19546498D+05 0.19546498D+05 0.19546498D+05 0.12349242D+01  1  2  3  1  5  1        1 -.107725837744D-01 0.100000000000D+01
0.395379159984D-04 0.000000000000D+00 0.000000000000D+00 0.179612807668D-02 0.000000000000D+00  5 1 -1 25 23 21 2 0.63583506D-02 0.73879881D-01 0.19546498D+05 0.19546498D+05 0.19546498D+05 0.12349242D+01  1  2 15  1  5  1        1 0.134187866398D-01 0.100000000000D+01
  </mgrwgt>
  </event>
  <event>
  4     66 0.49155423E-03 0.15953821E+03 0.75467711E-02 0.11871220E+00
        1 -1    0    0  501    0 0.00000000E+00 0.00000000E+00 0.44952274E+02 0.44953413E+02 0.32000000E+00 0.0000E+00 0.9000E+01
       -1 -1    0    0    0  501 0.00000000E+00 0.00000000E+00 -.92828396E+03 0.92828401E+03 0.32000000E+00 0.0000E+00 0.9000E+01
       25  1    1    2    0    0 0.10140300E+03 0.57714415E+02 -.76444412E+03 0.78333475E+03 0.12500000E+03 0.0000E+00 0.9000E+01
       23  1    1    2    0    0 -.10140300E+03 -.57714415E+02 -.11888756E+03 0.18990267E+03 0.91188000E+02 0.0000E+00 0.9000E+01
#aMCatNLO 1  0  0  2  1 0.36415866D+01 0.00000000D+00  -5  5  0 0.00000000D+00 0.00000000D+00 0.00000000D+00 0.00000000D+00 0.00000000D+00
  <mgrwgt>
 0.8461868574D-01    6    2    0
 0.204276909597762D+03 0.000000000000000D+00 0.000000000000000D+00 0.204276909597762D+03
 0.204276909597762D+03 0.000000000000000D+00 0.000000000000000D+00 -.204276909597762D+03
 0.213222791771124D+03 0.101402995861578D+03 0.577144152607597D+02 -.127379109873155D+03
 0.195331027424401D+03 -.101402995861578D+03 -.577144152607597D+02 0.127379109873155D+03
 0.000000000000000D+00 0.000000000000000D+00 0.000000000000000D+00 0.000000000000000D+00
 0.207528969769589D+03 0.000000000000000D+00 0.000000000000000D+00 0.207528969769589D+03
 0.205307016668278D+03 0.000000000000000D+00 0.000000000000000D+00 -.205307016668278D+03
 0.212248642284657D+03 0.995387633287858D+02 0.573679624405378D+02 -.127379109873155D+03
 0.196321405971738D+03 -.103119048102558D+03 -.580333299498222D+02 0.127379109873155D+03
 0.426593818147264D+01 0.358028477377268D+01 0.665367509284424D+00 0.222195310131116D+01
0.173798850215D-02 0.000000000000D+00 0.000000000000D+00 0.940867368607D-03 0.000000000000D+00  5 1 -1 25 23 21 0 0.69158263D-02 0.14281301D+00 0.25452440D+05 0.25452440D+05 0.25452440D+05 0.12224634D+01  1  2  2  2  5  2       -1 0.791836240029D-01 0.100000000000D+01
-.893814631102D-04 0.000000000000D+00 -.667433347113D-05 0.940867368607D-03 0.000000000000D+00  5 1 -1 25 23 21 2 0.69158263D-02 0.14281301D+00 0.25452440D+05 0.25452440D+05 0.25452440D+05 0.12224634D+01  1  2  3  2  5  2       -1 -.608565973316D-02 0.100000000000D+01
0.119726839048D-03 0.000000000000D+00 0.000000000000D+00 0.940867368607D-03 0.000000000000D+00  5 1 -1 25 23 21 2 0.69158263D-02 0.14281301D+00 0.25452440D+05 0.25452440D+05 0.25452440D+05 0.12224634D+01  1  2 15  2  5  2       -1 0.815176635087D-02 0.100000000000D+01
-.405527046458D-02 0.000000000000D+00 0.000000000000D+00 0.940867368607D-03 0.000000000000D+00  5 1 -1 25 23 21 2 0.69158263D-02 0.14281301D+00 0.25452440D+05 0.25452440D+05 0.25452440D+05 0.12224634D+01  1  2  4  2  5  2       -1 -.276108661848D+00 0.100000000000D+01
0.404102856547D-02 0.000000000000D+00 0.000000000000D+00 0.940867368607D-03 0.564617145282D-03  5 1 -1 25 23 21 2 0.70259253D-02 0.14353317D+00 0.26050873D+05 0.26050873D+05 0.26050873D+05 0.12213851D+01  1  2 11  2  5  2       -1 0.265432885697D+00 0.100000000000D+01
0.252469222708D-04 0.000000000000D+00 0.000000000000D+00 0.940867368607D-03 0.537364229613D-06  5 1 21 25 23 1 2 0.70259253D-02 0.14353317D+00 0.26050873D+05 0.26050873D+05 0.26050873D+05 0.12213851D+01  1  2 11  4  5  2       -1 0.140447312716D-01 0.100000000000D+01
  </mgrwgt>
  </event>
  <event>
  4     66 0.49155423E-03 0.75474380E+02 0.75467711E-02 0.12389762E+00
        1 -1    0    0  501    0 0.00000000E+00 0.00000000E+00 0.66651923E+01 0.66728696E+01 0.32000000E+00 0.0000E+00 0.9000E+01
       -1 -1    0    0    0  501 0.00000000E+00 0.00000000E+00 -.21123312E+04 0.21123312E+04 0.32000000E+00 0.0000E+00 0.9000E+01
       25  1    1    2    0    0 0.39170471E+02 0.52841482E+01 -.14406181E+04 0.14465710E+04 0.12500000E+03 0.0000E+00 0.9000E+01
       23  1    1    2    0    0 -.39170471E+02 -.52841482E+01 -.66504789E+03 0.67243304E+03 0.91188000E+02 0.0000E+00 0.9000E+01
#aMCatNLO 1  0  0  2  1 0.14141010D+02 0.00000000D+00  -5  5  0 0.00000000D+00 0.00000000D+00 0.00000000D+00 0.00000000D+00 0.00000000D+00
  <mgrwgt>
 0.1187371432D+00    9    2    0
 0.118689735356287D+03 0.000000000000000D+00 0.000000000000000D+00 0.118689735356287D+03
 0.118689735356287D+03 0.000000000000000D+00 0.000000000000000D+00 -.118689735356287D+03
 0.134086493622824D+03 0.391704711594865D+02 0.528414819846087D+01 -.281414238983076D+02
 0.103292977089750D+03 -.391704711594865D+02 -.528414819846087D+01 0.281414238983076D+02
 0.000000000000000D+00 0.000000000000000D+00 0.000000000000000D+00 -.000000000000000D+00
 0.122914232301687D+03 0.000000000000000D+00 0.000000000000000D+00 0.122914232301687D+03
 0.131354308776542D+03 0.000000000000000D+00 0.000000000000000D+00 -.131354308776542D+03
 0.133986286970529D+03 0.390913353083740D+02 -.269311361309063D+01 -.281414238983076D+02
 0.103814010097534D+03 -.392316097341158D+02 -.114472008446032D+02 0.281414238983076D+02
 0.164682440101662D+02 0.140274425741771D+00 0.141403144576939D+02 -.844007647485438D+01
0.115241993602D-02 0.000000000000D+00 0.000000000000D+00 0.208297943235D-02 0.000000000000D+00  5 1 -1 25 23 21 0 0.10260066D-02 0.32497462D+00 0.13280921D+05 0.13280921D+05 0.13280921D+05 0.12538944D+01  1  2  2  2  5  2       -1 0.482016693554D-01 0.100000000000D+01
-.639557202555D-04 0.000000000000D+00 -.442559599346D-05 0.208297943235D-02 0.000000000000D+00  5 1 -1 25 23 21 2 0.10260066D-02 0.32497462D+00 0.13280921D+05 0.13280921D+05 0.13280921D+05 0.12538944D+01  1  2  3  2  5  2       -1 -.420583889517D-02 0.100000000000D+01
0.794087703744D-04 0.000000000000D+00 0.000000000000D+00 0.208297943235D-02 0.000000000000D+00  5 1 -1 25 23 21 2 0.10260066D-02 0.32497462D+00 0.13280921D+05 0.13280921D+05 0.13280921D+05 0.12538944D+01  1  2 15  2  5  2       -1 0.522205822598D-02 0.100000000000D+01
0.194990515359D-02 0.000000000000D+00 0.000000000000D+00 0.208297943235D-02 0.000000000000D+00  5 1 -1 25 23 21 2 0.10260066D-02 0.36499600D+00 0.15014297D+05 0.15014297D+05 0.15014297D+05 0.12477754D+01  1  2 12  2  5  2       -1 0.712854769459D-01 0.100000000000D+01
-.192661217732D-02 0.000000000000D+00 0.000000000000D+00 0.208297943235D-02 0.000000000000D+00  5 1 -1 25 23 21 2 0.10260066D-02 0.32497462D+00 0.13280921D+05 0.13280921D+05 0.13280921D+05 0.12538944D+01  1  2  4  2  5  2       -1 -.126697352464D+00 0.100000000000D+01
-.490791318942D-02 0.000000000000D+00 -.888507874475D-03 0.208297943235D-02 0.000000000000D+00  5 1 -1 25 23 21 2 0.10260066D-02 0.36445036D+00 0.13280921D+05 0.13280921D+05 0.13280921D+05 0.12538944D+01  1  2  5  2  5  2       -1 -.182646936201D+00 0.100000000000D+01
0.498280113571D-02 0.000000000000D+00 0.882700816554D-03 0.208297943235D-02 0.000000000000D+00  5 1 -1 25 23 21 2 0.10260066D-02 0.32497462D+00 0.13280921D+05 0.13280921D+05 0.13280921D+05 0.12538944D+01  1  2  6  2  5  2       -1 0.327677629769D+00 0.100000000000D+01
0.359910837876D-04 0.000000000000D+00 0.000000000000D+00 0.208297943235D-02 0.000000000000D+00  5 1 21 25 23 1 2 0.10260066D-02 0.36499600D+00 0.15014297D+05 0.15014297D+05 0.15014297D+05 0.12477754D+01  1  2 12  4  5  2       -1 0.138650990760D-01 0.100000000000D+01
-.858238774176D-04 0.000000000000D+00 -.162210602901D-04 0.208297943235D-02 0.000000000000D+00  5 1 21 25 23 1 2 0.10260066D-02 0.36445036D+00 0.13280921D+05 0.13280921D+05 0.13280921D+05 0.12538944D+01  1  2  5  4  5  2       -1 -.339646626267D-01 0.100000000000D+01
  </mgrwgt>
  </event>
  <event>
  4     66 0.49155423E-03 0.11583778E+03 0.75467711E-02 0.10680740E+00
        1 -1    0    0  501    0 0.00000000E+00 0.00000000E+00 0.41827904E+03 0.41827917E+03 0.32000000E+00 0.0000E+00 0.9000E+01
       -1 -1    0    0    0  501 0.00000000E+00 0.00000000E+00 -.32275627E+02 0.32277213E+02 0.32000000E+00 0.0000E+00 0.9000E+01
       25  1    1    2    0    0 0.90352867E+01 -.40193368E+02 0.20170958E+03 0.24085036E+03 0.12500000E+03 0.0000E+00 0.9000E+01
       23  1    1    2    0    0 -.90352867E+01 0.40193368E+02 0.18429384E+03 0.20970602E+03 0.91188000E+02 0.0000E+00 0.9000E+01
#aMCatNLO 1  0  0  1  1 0.29722076D+03 0.00000000D+00  -5  5  0 0.00000000D+00 0.00000000D+00 0.00000000D+00 0.00000000D+00 0.00000000D+00
  <mgrwgt>
 0.1215959658D+00    5    2    0
 0.116192096999241D+03 0.000000000000000D+00 0.000000000000000D+00 0.116192096999241D+03
 0.116192096999241D+03 0.000000000000000D+00 0.000000000000000D+00 -.116192096999241D+03
 0.131919820408966D+03 0.903528665004367D+01 -.401933684473776D+02 -.898308102705752D+01
 0.100464373589516D+03 -.903528665004367D+01 0.401933684473776D+02 0.898308102705752D+01
 0.000000000000000D+00 -.000000000000000D+00 0.000000000000000D+00 0.000000000000000D+00
 0.412897238036876D+03 0.000000000000000D+00 0.000000000000000D+00 0.412897238036876D+03
 0.287123141179049D+03 0.000000000000000D+00 0.000000000000000D+00 -.287123141179049D+03
 0.246104284123784D+03 0.176561549754806D+03 -.116994196725832D+03 -.898308102705752D+01
 0.131178890181203D+03 0.936204167497835D+02 -.686816627857629D+01 0.898308102705752D+01
 0.322737204910938D+03 -.270181966504590D+03 0.123862363004408D+03 0.125774096857827D+03
0.119822509899D-03 0.000000000000D+00 0.000000000000D+00 0.222292087945D-02 0.000000000000D+00  5 1 -1 25 23 21 0 0.64350754D-01 0.49656125D-02 0.13418392D+05 0.13418392D+05 0.13418392D+05 0.12533772D+01  1  2  2  1  5  1        1 0.114430595354D+00 0.100000000000D+01
-.665673061452D-05 0.000000000000D+00 -.460149988004D-06 0.222292087945D-02 0.000000000000D+00  5 1 -1 25 23 21 2 0.64350754D-01 0.49656125D-02 0.13418392D+05 0.13418392D+05 0.13418392D+05 0.12533772D+01  1  2  3  1  5  1        1 -.998684434794D-02 0.100000000000D+01
0.828392736830D-05 0.000000000000D+00 0.000000000000D+00 0.222292087945D-02 0.000000000000D+00  5 1 -1 25 23 21 2 0.64350754D-01 0.49656125D-02 0.13418392D+05 0.13418392D+05 0.13418392D+05 0.12533772D+01  1  2 15  1  5  1        1 0.124280668706D-01 0.100000000000D+01
0.952365970158D-04 0.000000000000D+00 -.625462788515D-04 0.222292087945D-02 0.000000000000D+00  5 1 -1 25 23 21 2 0.38891389D+00 0.49656125D-02 0.13418392D+05 0.13418392D+05 0.13418392D+05 0.12533772D+01  1  2  5  1  5  1        1 0.424403204997D-02 0.100000000000D+01
0.169115429108D-04 0.000000000000D+00 -.137906602759D-04 0.222292087945D-02 0.000000000000D+00  5 21 -1 25 23 -1 2 0.38891389D+00 0.49656125D-02 0.13418392D+05 0.13418392D+05 0.13418392D+05 0.12533772D+01  1  2  5  3  5  1        1 0.480115828006D-03 0.100000000000D+01
  </mgrwgt>
  </event>
  <event>
  5     66 0.49155423E-03 0.13250646E+03 0.75467711E-02 0.12190733E+00
        1 -1    0    0  501    0 0.00000000E+00 0.00000000E+00 0.19799815E+04 0.19799815E+04 0.32000000E+00 0.0000E+00 0.9000E+01
       21 -1    0    0  502  501 0.00000000E+00 0.00000000E+00 -.94194979E+01 0.94493090E+01 0.75000000E+00 0.0000E+00 0.9000E+01
       25  1    1    2    0    0 0.53864631E+02 -.57390197E+02 0.11580378E+04 0.11674210E+04 0.12500000E+03 0.0000E+00 0.9000E+01
       23  1    1    2    0    0 -.53621930E+02 0.50854575E+02 0.74781797E+03 0.75697323E+03 0.91188000E+02 0.0000E+00 0.9000E+01
        1  1    1    2  502    0 -.24270101E+00 0.65356223E+01 0.64706194E+02 0.65036661E+02 0.32000000E+00 0.0000E+00 0.9000E+01
#aMCatNLO 2  0  0  2  1 0.65401271D+01 0.00000000D+00  -5  5  0 0.00000000D+00 0.00000000D+00 0.00000000D+00 0.00000000D+00 0.00000000D+00
  <mgrwgt>
 0.4774631499D-01    1    2    0
 0.133195161088380D+03 0.000000000000000D+00 0.000000000000000D+00 0.133195161088380D+03
 0.133195161088380D+03 0.000000000000000D+00 0.000000000000000D+00 -.133195161088380D+03
 0.146915157738915D+03 0.537301578191882D+02 -.537689990849145D+02 0.134546814002339D+02
 0.119475164437845D+03 -.537301578191882D+02 0.537689990849145D+02 -.134546814002339D+02
 0.000000000000000D+00 -.000000000000000D+00 0.000000000000000D+00 0.000000000000000D+00
 0.137744646761174D+03 0.000000000000000D+00 0.000000000000000D+00 0.137744646761174D+03
 0.135606661636280D+03 0.000000000000000D+00 0.000000000000000D+00 -.135606661636280D+03
 0.148327548584546D+03 0.538646313764951D+02 -.573901969346101D+02 0.134546814002339D+02
 0.118143044561151D+03 -.536219303671273D+02 0.508545746840861D+02 -.134546814002339D+02
 0.688071525175681D+01 -.242701009367816D+00 0.653562225052401D+01 0.213798512489356D+01
0.376168800457D-05 0.000000000000D+00 0.000000000000D+00 0.189944038543D-02 0.121384639975D-05  5 1 21 25 23 1 2 0.30460653D+00 0.14514091D-02 0.18445794D+05 0.18445794D+05 0.18445794D+05 0.12377127D+01  1  2  1  4  5  2       -1 0.477463149921D-01 0.100000000000D+01
  </mgrwgt>
  </event>
  <event>
  4     66 0.49155423E-03 0.11411766E+03 0.75467711E-02 0.11885566E+00
        1 -1    0    0  501    0 0.00000000E+00 0.00000000E+00 0.41420829E+03 0.41420842E+03 0.32000000E+00 0.0000E+00 0.9000E+01
       -1 -1    0    0    0  501 0.00000000E+00 0.00000000E+00 -.31641186E+02 0.31642804E+02 0.32000000E+00 0.0000E+00 0.9000E+01
       25  1    1    2    0    0 0.71670373E+01 0.35465241E+02 0.23558245E+03 0.26913424E+03 0.12500000E+03 0.0000E+00 0.9000E+01
       23  1    1    2    0    0 -.71670373E+01 -.35465241E+02 0.14698466E+03 0.17671698E+03 0.91188000E+02 0.0000E+00 0.9000E+01
#aMCatNLO 1  0  0  2  1 0.78792306D+02 0.00000000D+00  -5  5  0 0.00000000D+00 0.00000000D+00 0.00000000D+00 0.00000000D+00 0.00000000D+00
  <mgrwgt>
 0.1529592314D+00    3    2    0
 0.114483317348007D+03 0.000000000000000D+00 0.000000000000000D+00 0.114483317348007D+03
 0.114483317348007D+03 0.000000000000000D+00 0.000000000000000D+00 -.114483317348007D+03
 0.130445792984916D+03 0.716703726150661D+01 0.354652410069881D+02 0.905290918279123D+01
 0.985208417110991D+02 -.716703726150661D+01 -.354652410069881D+02 -.905290918279123D+01
 0.000000000000000D+00 0.000000000000000D+00 -.000000000000000D+00 0.000000000000000D+00
 0.194987737741570D+03 0.000000000000000D+00 0.000000000000000D+00 0.194987737741570D+03
 0.142069956825243D+03 0.000000000000000D+00 0.000000000000000D+00 -.142069956825243D+03
 0.135948843052215D+03 -.373552244083174D+02 0.371445820001811D+02 0.905290918279123D+01
 0.106195633049113D+03 -.413810912416615D+02 -.341747166437316D+02 -.905290918279123D+01
 0.949132184654851D+02 0.787363156499790D+02 -.296986535644947D+01 0.529177809163266D+02
0.150592663191D-03 0.000000000000D+00 0.000000000000D+00 0.226603624141D-02 0.000000000000D+00  5 1 -1 25 23 21 0 0.63724487D-01 0.48680087D-02 0.13022839D+05 0.13022839D+05 0.13022839D+05 0.12548819D+01  1  2  2  2  5  2       -1 0.149746820661D+00 0.100000000000D+01
-.836615495987D-05 0.000000000000D+00 -.578315478611D-06 0.226603624141D-02 0.000000000000D+00  5 1 -1 25 23 21 2 0.63724487D-01 0.48680087D-02 0.13022839D+05 0.13022839D+05 0.13022839D+05 0.12548819D+01  1  2  3  2  5  2       -1 -.131004253569D-01 0.100000000000D+01
0.104176552115D-04 0.000000000000D+00 0.000000000000D+00 0.226603624141D-02 0.000000000000D+00  5 1 -1 25 23 21 2 0.63724487D-01 0.48680087D-02 0.13022839D+05 0.13022839D+05 0.13022839D+05 0.12548819D+01  1  2 15  2  5  2       -1 0.163128360814D-01 0.100000000000D+01
  </mgrwgt>
  </event>
  <event>
  5     66 0.49155423E-03 0.26176458E+03 0.75467711E-02 0.11012869E+00
        1 -1    0    0  501    0 0.00000000E+00 0.00000000E+00 0.11652265E+04 0.11652265E+04 0.32000000E+00 0.0000E+00 0.9000E+01
       -1 -1    0    0    0  502 0.00000000E+00 0.00000000E+00 -.64617330E+02 0.64618123E+02 0.32000000E+00 0.0000E+00 0.9000E+01
       25  1    1    2    0    0 -.22491329E+03 0.59164859E+02 0.44560129E+03 0.51794978E+03 0.12500000E+03 0.0000E+00 0.9000E+01
       23  1    1    2    0    0 0.23173862E+03 -.73848298E+02 0.58567647E+03 0.64069379E+03 0.91188000E+02 0.0000E+00 0.9000E+01
       21  1    1    2  501  502 -.68253310E+01 0.14683438E+02 0.69331369E+02 0.71201051E+02 0.75000000E+00 0.0000E+00 0.9000E+01
#aMCatNLO 2  0  0  2  1 0.16192236D+02 0.00000000D+00  -5  5  0 0.00000000D+00 0.00000000D+00 0.00000000D+00 0.00000000D+00 0.00000000D+00
  <mgrwgt>
 0.8328880725D-01    2    2    0
 0.263940772454685D+03 0.000000000000000D+00 0.000000000000000D+00 0.263940772454685D+03
 0.263940772454685D+03 0.000000000000000D+00 0.000000000000000D+00 -.263940772454685D+03
 0.270864436225935D+03 -.228384406570475D+03 0.666323348628991D+02 -.338117967307850D+02
 0.257017108683436D+03 0.228384406570475D+03 -.666323348628991D+02 0.338117967307850D+02
 0.000000000000000D+00 -.000000000000000D+00 0.000000000000000D+00 0.000000000000000D+00
 0.281003560408718D+03 0.000000000000000D+00 0.000000000000000D+00 0.281003560408718D+03
 0.267934592409383D+03 0.000000000000000D+00 0.000000000000000D+00 -.267934592409383D+03
 0.266185469426523D+03 -.224913285446807D+03 0.591648592086343D+02 -.338117967307850D+02
 0.261944357380048D+03 0.231738616464682D+03 -.738482976115052D+02 0.338117967307850D+02
 0.208083260115300D+02 -.682533101787456D+01 0.146834384028710D+02 0.130689679993353D+02
-.936547480029D-04 0.000000000000D+00 0.000000000000D+00 0.130897382490D-02 0.000000000000D+00  5 1 -1 25 23 21 2 0.16837629D+00 0.97927645D-02 0.68520693D+05 0.68520693D+05 0.68520693D+05 0.11789617D+01  1  2  8  2  5  2       -1 -.111903829872D-01 0.100000000000D+01
0.913798597480D-03 0.000000000000D+00 0.000000000000D+00 0.130897382490D-02 0.369222593512D-04  5 1 -1 25 23 21 2 0.17926119D+00 0.99409437D-02 0.72893116D+05 0.72893116D+05 0.72893116D+05 0.11764004D+01  1  2  1  2  5  2       -1 0.944791902373D-01 0.100000000000D+01
  </mgrwgt>
  </event>
  <event>
  4     66 0.49155423E-03 0.11092196E+03 0.75467711E-02 0.11658106E+00
        1 -1    0    0  501    0 0.00000000E+00 0.00000000E+00 0.11706929E+04 0.11706930E+04 0.32000000E+00 0.0000E+00 0.9000E+01
       -1 -1    0    0    0  501 0.00000000E+00 0.00000000E+00 -.10531686E+02 0.10536546E+02 0.32000000E+00 0.0000E+00 0.9000E+01
       25  1    1    2    0    0 0.13657397E+02 0.20456176E+02 0.69415979E+03 0.70575335E+03 0.12500000E+03 0.0000E+00 0.9000E+01
       23  1    1    2    0    0 -.13657397E+02 -.20456176E+02 0.46600146E+03 0.47547617E+03 0.91188000E+02 0.0000E+00 0.9000E+01
#aMCatNLO 1  0  0  2  1 0.11449610D+03 0.00000000D+00  -5  5  0 0.00000000D+00 0.00000000D+00 0.00000000D+00 0.00000000D+00 0.00000000D+00
  <mgrwgt>
 0.1167308129D+00    5    2    0
 0.111050738465191D+03 0.000000000000000D+00 0.000000000000000D+00 0.111050738465191D+03
 0.111050738465191D+03 0.000000000000000D+00 0.000000000000000D+00 -.111050738465191D+03
 0.127506614304079D+03 0.136573973915083D+02 0.204561763854539D+02 0.528744129675961D+01
 0.945948626263026D+02 -.136573973915083D+02 -.204561763854539D+02 -.528744129675961D+01
 0.000000000000000D+00 0.000000000000000D+00 0.000000000000000D+00 -.000000000000000D+00
 0.156264058571659D+03 0.000000000000000D+00 0.000000000000000D+00 0.156264058571659D+03
 0.229559996030212D+03 0.000000000000000D+00 0.000000000000000D+00 -.229559996030212D+03
 0.131529836622633D+03 -.135930135434758D+01 -.405622137751121D+02 0.528744129675961D+01
 0.118346979527571D+03 -.260019283738179D+02 -.706165625379454D+02 -.528744129675961D+01
 0.135947238451667D+03 0.273612297281655D+02 0.111178776313057D+03 -.732959374585533D+02
0.106422936048D-03 0.000000000000D+00 0.000000000000D+00 0.236949630708D-02 0.000000000000D+00  5 1 -1 25 23 21 0 0.18010698D+00 0.16206366D-02 0.12303680D+05 0.12303680D+05 0.12303680D+05 0.12577540D+01  1  2  2  2  5  2       -1 0.113839190563D+00 0.100000000000D+01
-.591237565724D-05 0.000000000000D+00 -.408692096226D-06 0.236949630708D-02 0.000000000000D+00  5 1 -1 25 23 21 2 0.18010698D+00 0.16206366D-02 0.12303680D+05 0.12303680D+05 0.12303680D+05 0.12577540D+01  1  2  3  2  5  2       -1 -.100048371984D-01 0.100000000000D+01
0.734925869591D-05 0.000000000000D+00 0.000000000000D+00 0.236949630708D-02 0.000000000000D+00  5 1 -1 25 23 21 2 0.18010698D+00 0.16206366D-02 0.12303680D+05 0.12303680D+05 0.12303680D+05 0.12577540D+01  1  2 15  2  5  2       -1 0.124363100460D-01 0.100000000000D+01
-.869555003177D-05 0.000000000000D+00 -.325956788185D-04 0.236949630708D-02 0.000000000000D+00  5 1 -1 25 23 21 2 0.18010698D+00 0.48361498D-02 0.12303680D+05 0.12303680D+05 0.12303680D+05 0.12577540D+01  1  2  5  2  5  2       -1 -.302492387339D-02 0.100000000000D+01
0.565494095905D-06 0.000000000000D+00 -.405066983977D-05 0.236949630708D-02 0.000000000000D+00  5 1 21 25 23 1 2 0.18010698D+00 0.48361498D-02 0.12303680D+05 0.12303680D+05 0.12303680D+05 0.12577540D+01  1  2  5  4  5  2       -1 0.348507340171D-02 0.100000000000D+01
  </mgrwgt>
  </event>
  <event>
  4     66 0.49155423E-03 0.83578874E+02 0.75467711E-02 0.12505529E+00
        1 -1    0    0  501    0 0.00000000E+00 0.00000000E+00 0.10875809E+03 0.10875856E+03 0.32000000E+00 0.0000E+00 0.9000E+01
       -1 -1    0    0    0  501 0.00000000E+00 0.00000000E+00 -.13310843E+03 0.13310881E+03 0.32000000E+00 0.0000E+00 0.9000E+01
       25  1    1    2    0    0 0.20767336E+02 0.16766094E+01 -.61948662E+02 0.14105577E+03 0.12500000E+03 0.0000E+00 0.9000E+01
       23  1    1    2    0    0 -.20767336E+02 -.16766094E+01 0.37598323E+02 0.10081160E+03 0.91188000E+02 0.0000E+00 0.9000E+01
#aMCatNLO 1  0  0  2  1 0.10696479D+02 0.00000000D+00  -5  5  0 0.00000000D+00 0.00000000D+00 0.00000000D+00 0.00000000D+00 0.00000000D+00
  <mgrwgt>
 0.1062792113D+00    9    2    0
 0.120319246858388D+03 0.000000000000000D+00 0.000000000000000D+00 0.120319246858388D+03
 0.120319246858388D+03 0.000000000000000D+00 0.000000000000000D+00 -.120319246858388D+03
 0.135507483252112D+03 0.207673357796777D+02 0.167660939898220D+01 -.479915071951149D+02
 0.105131010464665D+03 -.207673357796777D+02 -.167660939898220D+01 0.479915071951149D+02
 0.000000000000000D+00 -.000000000000000D+00 0.000000000000000D+00 -.000000000000000D+00
 0.123561086061679D+03 0.000000000000000D+00 0.000000000000000D+00 0.123561086061679D+03
 0.129596994374736D+03 0.000000000000000D+00 0.000000000000000D+00 -.129596994374736D+03
 0.136296417475468D+03 0.253680863946103D+02 -.223357257863108D+01 -.479915071951149D+02
 0.104579690348390D+03 -.172176198516100D+02 -.469351607558550D+01 0.479915071951149D+02
 0.122819726125560D+02 -.815046654300034D+01 0.692708865421658D+01 -.603590831305705D+01
0.159715665392D-03 0.000000000000D+00 0.000000000000D+00 0.188366410158D-02 0.000000000000D+00  5 1 -1 25 23 21 0 0.16732079D-01 0.20478285D-01 0.12128882D+05 0.12128882D+05 0.12128882D+05 0.12584807D+01  1  2  2  2  5  2       -1 0.936259014283D-01 0.100000000000D+01
-.878864066346D-05 0.000000000000D+00 -.613350209207D-06 0.188366410158D-02 0.000000000000D+00  5 1 -1 25 23 21 2 0.16732079D-01 0.20478285D-01 0.12128882D+05 0.12128882D+05 0.12128882D+05 0.12584807D+01  1  2  3  2  5  2       -1 -.815949610788D-02 0.100000000000D+01
0.109315109685D-04 0.000000000000D+00 0.000000000000D+00 0.188366410158D-02 0.000000000000D+00  5 1 -1 25 23 21 2 0.16732079D-01 0.20478285D-01 0.12128882D+05 0.12128882D+05 0.12128882D+05 0.12584807D+01  1  2 15  2  5  2       -1 0.101489666737D-01 0.100000000000D+01
0.440970138319D-03 0.000000000000D+00 0.000000000000D+00 0.188366410158D-02 0.000000000000D+00  5 1 -1 25 23 21 2 0.16732079D-01 0.22318233D-01 0.13361287D+05 0.13361287D+05 0.13361287D+05 0.12535913D+01  1  2 12  2  5  2       -1 0.354917348921D+00 0.100000000000D+01
-.433036258731D-03 0.000000000000D+00 0.000000000000D+00 0.188366410158D-02 0.000000000000D+00  5 1 -1 25 23 21 2 0.16732079D-01 0.20478285D-01 0.12128882D+05 0.12128882D+05 0.12128882D+05 0.12584807D+01  1  2  4  2  5  2       -1 -.402036879534D+00 0.100000000000D+01
-.116048367051D-02 0.000000000000D+00 -.205350826272D-03 0.188366410158D-02 0.000000000000D+00  5 1 -1 25 23 21 2 0.16732079D-01 0.22605281D-01 0.12128882D+05 0.12128882D+05 0.12128882D+05 0.12584807D+01  1  2  5  2  5  2       -1 -.919098815739D+00 0.100000000000D+01
0.117602801246D-02 0.000000000000D+00 0.204352254987D-03 0.188366410158D-02 0.000000000000D+00  5 1 -1 25 23 21 2 0.16732079D-01 0.20478285D-01 0.12128882D+05 0.12128882D+05 0.12128882D+05 0.12584807D+01  1  2  6  2  5  2       -1 0.109184074737D+01 0.100000000000D+01
0.629289183476D-05 0.000000000000D+00 0.000000000000D+00 0.188366410158D-02 0.000000000000D+00  5 1 21 25 23 1 2 0.16732079D-01 0.22318233D-01 0.13361287D+05 0.13361287D+05 0.13361287D+05 0.12535913D+01  1  2 12  4  5  2       -1 0.635161208873D-01 0.100000000000D+01
-.179938181383D-04 0.000000000000D+00 -.330127102516D-05 0.188366410158D-02 0.000000000000D+00  5 1 21 25 23 1 2 0.16732079D-01 0.22605281D-01 0.12128882D+05 0.12128882D+05 0.12128882D+05 0.12584807D+01  1  2  5  4  5  2       -1 -.178474682574D+00 0.100000000000D+01
  </mgrwgt>
  </event>
  <event>
  4     66 0.49155423E-03 0.12199399E+03 0.75467711E-02 0.12285414E+00
        1 -1    0    0  501    0 0.00000000E+00 0.00000000E+00 0.19217230E+04 0.19217230E+04 0.32000000E+00 0.0000E+00 0.9000E+01
       -1 -1    0    0    0  501 0.00000000E+00 0.00000000E+00 -.12290678E+02 0.12294843E+02 0.32000000E+00 0.0000E+00 0.9000E+01
       25  1    1    2    0    0 0.42548065E+01 -.69938495E+02 0.15506230E+04 0.15572303E+04 0.12500000E+03 0.0000E+00 0.9000E+01
       23  1    1    2    0    0 -.42548065E+01 0.69938495E+02 0.35880929E+03 0.37678755E+03 0.91188000E+02 0.0000E+00 0.9000E+01
#aMCatNLO 1  0  0  1  1 0.24012581D+00 0.00000000D+00  -5  5  0 0.00000000D+00 0.00000000D+00 0.00000000D+00 0.00000000D+00 0.00000000D+00
  <mgrwgt>
 0.3738644567D+00    9    2    0
 0.153698836220622D+03 0.000000000000000D+00 0.000000000000000D+00 0.153698836220622D+03
 0.153698836220622D+03 0.000000000000000D+00 0.000000000000000D+00 -.153698836220622D+03
 0.165588562967654D+03 0.425480647442114D+01 -.699384945500247D+02 0.829763567989942D+02
 0.141809109473590D+03 -.425480647442114D+01 0.699384945500247D+02 -.829763567989942D+02
 0.000000000000000D+00 0.000000000000000D+00 -.000000000000000D+00 0.000000000000000D+00
 0.154259612308124D+03 0.000000000000000D+00 0.000000000000000D+00 0.154259612308124D+03
 0.153724590892233D+03 0.000000000000000D+00 0.000000000000000D+00 -.153724590892233D+03
 0.165534067108073D+03 0.423630215045709D+01 -.698104958426468D+02 0.829763567989942D+02
 0.141863699121123D+03 -.427065913163406D+01 0.700481510625079D+02 -.829763567989942D+02
 0.586436971160599D+00 0.343569811769716D-01 -.237655219861046D+00 0.535021415890261D+00
0.252258761889D-03 0.000000000000D+00 0.000000000000D+00 0.128485214671D-02 0.000000000000D+00  5 1 -1 25 23 21 0 0.29565002D+00 0.18911960D-02 0.16679403D+05 0.16679403D+05 0.16679403D+05 0.12426023D+01  1  2  2  1  5  1        1 0.709334382574D-01 0.100000000000D+01
-.134983110165D-04 0.000000000000D+00 -.968740066911D-06 0.128485214671D-02 0.000000000000D+00  5 1 -1 25 23 21 2 0.29565002D+00 0.18911960D-02 0.16679403D+05 0.16679403D+05 0.16679403D+05 0.12426023D+01  1  2  3  1  5  1        1 -.586068644739D-02 0.100000000000D+01
0.172624687222D-04 0.000000000000D+00 0.000000000000D+00 0.128485214671D-02 0.000000000000D+00  5 1 -1 25 23 21 2 0.29565002D+00 0.18911960D-02 0.16679403D+05 0.16679403D+05 0.16679403D+05 0.12426023D+01  1  2 15  1  5  1        1 0.749500558736D-02 0.100000000000D+01
-.848902551547D-01 0.000000000000D+00 0.000000000000D+00 0.128485214671D-02 0.000000000000D+00  5 1 -1 25 23 21 2 0.29565002D+00 0.18911960D-02 0.16679403D+05 0.16679403D+05 0.16679403D+05 0.12426023D+01  1  2  4  1  5  1        1 -.368575866486D+02 0.100000000000D+01
-.155178736988D+00 0.000000000000D+00 -.720952797885D-02 0.128485214671D-02 0.000000000000D+00  5 1 -1 25 23 21 2 0.29674678D+00 0.18911960D-02 0.16679403D+05 0.16679403D+05 0.16679403D+05 0.12426023D+01  1  2  5  1  5  1        1 -.666776538124D+02 0.100000000000D+01
0.155204417876D+00 0.000000000000D+00 0.720947855516D-02 0.128485214671D-02 0.000000000000D+00  5 1 -1 25 23 21 2 0.29565002D+00 0.18911960D-02 0.16679403D+05 0.16679403D+05 0.16679403D+05 0.12426023D+01  1  2  6  1  5  1        1 0.673865365311D+02 0.100000000000D+01
0.848907001996D-01 0.000000000000D+00 0.000000000000D+00 0.128485214671D-02 0.183474681613D+00  5 1 -1 25 23 21 2 0.29672871D+00 0.18915129D-02 0.16710990D+05 0.16710990D+05 0.16710990D+05 0.12425098D+01  1  2 11  1  5  1        1 0.364684097830D+02 0.100000000000D+01
-.107103924945D-03 0.000000000000D+00 -.497771000007D-05 0.128485214671D-02 0.000000000000D+00  5 21 -1 25 23 -1 2 0.29674678D+00 0.18911960D-02 0.16679403D+05 0.16679403D+05 0.16679403D+05 0.12426023D+01  1  2  5  3  5  1        1 -.403462476293D-01 0.100000000000D+01
0.582510405138D-04 0.000000000000D+00 0.000000000000D+00 0.128485214671D-02 0.124668028443D-03  5 21 -1 25 23 -1 2 0.29672871D+00 0.18915129D-02 0.16710990D+05 0.16710990D+05 0.16710990D+05 0.12425098D+01  1  2 11  3  5  1        1 0.219370938870D-01 0.100000000000D+01
  </mgrwgt>
  </event>
  <event>
  4     66 0.49155423E-03 0.25142009E+03 0.75467711E-02 0.10393662E+00
        1 -1    0    0  501    0 0.00000000E+00 0.00000000E+00 0.12814397E+03 0.12814437E+03 0.32000000E+00 0.0000E+00 0.9000E+01
       -1 -1    0    0    0  501 0.00000000E+00 0.00000000E+00 -.73388807E+03 0.73388814E+03 0.32000000E+00 0.0000E+00 0.9000E+01
       25  1    1    2    0    0 0.22367421E+03 -.35561389E+02 -.55547738E+03 0.61276005E+03 0.12500000E+03 0.0000E+00 0.9000E+01
       23  1    1    2    0    0 -.22367421E+03 0.35561389E+02 -.50266723E+02 0.24927246E+03 0.91188000E+02 0.0000E+00 0.9000E+01
#aMCatNLO 1  0  0  2  2 0.26144092D+03 0.00000000D+00  -5  5  0 0.00000000D+00 0.00000000D+00 0.00000000D+00 0.00000000D+00 0.00000000D+00
  <mgrwgt>
 0.1077843877D+00    3    2    0
 0.306665182590101D+03 0.000000000000000D+00 0.000000000000000D+00 0.306665182590101D+03
 0.306665182590101D+03 0.000000000000000D+00 0.000000000000000D+00 -.306665182590101D+03
 0.312624245658707D+03 0.223674209954230D+03 -.355613891544200D+02 -.175539609138322D+03
 0.300706119521495D+03 -.223674209954230D+03 0.355613891544200D+02 0.175539609138322D+03
 0.000000000000000D+00 0.000000000000000D+00 -.000000000000000D+00 0.000000000000000D+00
 0.553625751243241D+03 0.000000000000000D+00 0.000000000000000D+00 0.553625751243241D+03
 0.410943315325352D+03 0.000000000000000D+00 0.000000000000000D+00 -.410943315325352D+03
 0.293381389355121D+03 0.181884338967238D+03 0.809417845241687D+02 -.175539609138322D+03
 0.373346058213383D+03 -.270156539355999D+03 0.165146352385472D+03 0.175539609138322D+03
 0.297841619000090D+03 0.882722003887614D+02 -.246088136909641D+03 0.142682435917889D+03
0.527623948786D-02 0.000000000000D+00 0.000000000000D+00 0.885238830879D-03 0.000000000000D+00  5 1 -1 25 23 21 0 0.19714493D-01 0.11290589D+00 0.63212060D+05 0.63212060D+05 0.63212060D+05 0.11823267D+01  1  2  2  2  5  2       -1 0.105493950726D+00 0.100000000000D+01
-.279062998872D-03 0.000000000000D+00 -.202621488992D-04 0.885238830879D-03 0.000000000000D+00  5 1 -1 25 23 21 2 0.19714493D-01 0.11290589D+00 0.63212060D+05 0.63212060D+05 0.63212060D+05 0.11823267D+01  1  2  3  2  5  2       -1 -.779974319078D-02 0.100000000000D+01
0.361011365655D-03 0.000000000000D+00 0.000000000000D+00 0.885238830879D-03 0.000000000000D+00  5 1 -1 25 23 21 2 0.19714493D-01 0.11290589D+00 0.63212060D+05 0.63212060D+05 0.63212060D+05 0.11823267D+01  1  2 15  2  5  2       -1 0.100901801831D-01 0.100000000000D+01
  </mgrwgt>
  </event>
  <event>
  5     66 0.49155423E-03 0.15558817E+03 0.75467711E-02 0.11559729E+00
        1 -1    0    0  501    0 0.00000000E+00 0.00000000E+00 0.12934624E+04 0.12934625E+04 0.32000000E+00 0.0000E+00 0.9000E+01
       21 -1    0    0  502  501 0.00000000E+00 0.00000000E+00 -.28779962E+02 0.28789733E+02 0.75000000E+00 0.0000E+00 0.9000E+01
       25  1    1    2    0    0 0.14179537E+03 -.38059331E+02 0.60806645E+03 0.63790614E+03 0.12500000E+03 0.0000E+00 0.9000E+01
       23  1    1    2    0    0 -.74760575E+02 0.43051913E+02 0.41800475E+03 0.43644683E+03 0.91188000E+02 0.0000E+00 0.9000E+01
        1  1    1    2  502    0 -.67034796E+02 -.49925814E+01 0.23861128E+03 0.24789924E+03 0.32000000E+00 0.0000E+00 0.9000E+01
#aMCatNLO 2  0  0  2  2 0.67220456D+02 0.00000000D+00  -5  5  0 0.00000000D+00 0.00000000D+00 0.00000000D+00 0.00000000D+00 0.00000000D+00
  <mgrwgt>
 0.4530745453D-01    1    2    0
 0.155638690436862D+03 0.000000000000000D+00 0.000000000000000D+00 0.155638690436862D+03
 0.155638690436862D+03 0.000000000000000D+00 0.000000000000000D+00 -.155638690436862D+03
 0.167380225648130D+03 0.103447763502459D+03 -.409153636252376D+02 -.395388211416101D+01
 0.143897155225594D+03 -.103447763502459D+03 0.409153636252376D+02 0.395388211416101D+01
 0.000000000000000D+00 -.000000000000000D+00 -.000000000000000D+00 0.000000000000000D+00
 0.196106822612196D+03 0.000000000000000D+00 0.000000000000000D+00 0.196106822612196D+03
 0.189856418949330D+03 0.000000000000000D+00 0.000000000000000D+00 -.189856418949330D+03
 0.192860241984534D+03 0.141795370379725D+03 -.380593312268773D+02 -.395388211416101D+01
 0.125592576397590D+03 -.747605747652858D+02 0.430519126076414D+02 0.395388211416101D+01
 0.675104231794017D+02 -.670347956144388D+02 -.499258138076405D+01 0.625040366286574D+01
0.846396627669D-05 0.000000000000D+00 0.000000000000D+00 0.167929872831D-02 0.102883667077D-06  5 1 21 25 23 1 2 0.19899458D+00 0.44284324D-02 0.37166150D+05 0.37166150D+05 0.37166150D+05 0.12052545D+01  1  2  1  4  5  2       -1 0.453074545339D-01 0.100000000000D+01
  </mgrwgt>
  </event>
  <event>
  4     66 0.49155423E-03 0.11865109E+03 0.75467711E-02 0.12066296E+00
        1 -1    0    0  501    0 0.00000000E+00 0.00000000E+00 0.10929264E+03 0.10929311E+03 0.32000000E+00 0.0000E+00 0.9000E+01
       -1 -1    0    0    0  501 0.00000000E+00 0.00000000E+00 -.16074735E+03 0.16074766E+03 0.32000000E+00 0.0000E+00 0.9000E+01
       25  1    1    2    0    0 -.11743606E+02 0.46981460E+02 0.31372197E+02 0.13767492E+03 0.12500000E+03 0.0000E+00 0.9000E+01
       23  1    1    2    0    0 0.11743606E+02 -.46981460E+02 -.82826904E+02 0.13236585E+03 0.91188000E+02 0.0000E+00 0.9000E+01
#aMCatNLO 1  0  0  1  2 0.47795843D+02 0.00000000D+00  -5  5  0 0.00000000D+00 0.00000000D+00 0.00000000D+00 0.00000000D+00 0.00000000D+00
  <mgrwgt>
 0.5751903332D-01    4    2    0
 0.132546624533125D+03 0.000000000000000D+00 0.000000000000000D+00 0.132546624533125D+03
 0.132546624533125D+03 0.000000000000000D+00 0.000000000000000D+00 -.132546624533125D+03
 0.146333751669986D+03 -.117436056594135D+02 0.469814603745604D+02 0.586804651055436D+02
 0.118759497396264D+03 0.117436056594135D+02 -.469814603745604D+02 -.586804651055436D+02
 0.000000000000000D+00 -.000000000000000D+00 0.000000000000000D+00 -.000000000000000D+00
 0.152884066191007D+03 0.000000000000000D+00 0.000000000000000D+00 0.152884066191007D+03
 0.166062970151171D+03 0.000000000000000D+00 0.000000000000000D+00 -.166062970151171D+03
 0.140117787827363D+03 -.967272609328930D+00 0.237415640666361D+02 0.586804651055436D+02
 0.129249755375053D+03 0.210737363756110D+02 -.671025228339386D+02 -.586804651055436D+02
 0.495794931397624D+02 -.201064637662821D+02 0.433609587673025D+02 -.131789039601637D+02
0.273912056176D-03 0.000000000000D+00 0.000000000000D+00 0.162847246870D-02 0.000000000000D+00  5 1 -1 25 23 21 0 0.16814313D-01 0.24730421D-01 0.14078081D+05 0.14078081D+05 0.14078081D+05 0.12509753D+01  1  2  2  1  5  1        1 0.118189979050D+00 0.100000000000D+01
-.149904092958D-04 0.000000000000D+00 -.105189441842D-05 0.162847246870D-02 0.000000000000D+00  5 1 -1 25 23 21 2 0.16814313D-01 0.24730421D-01 0.14078081D+05 0.14078081D+05 0.14078081D+05 0.12509753D+01  1  2  3  1  5  1        1 -.101223293460D-01 0.100000000000D+01
0.187986619473D-04 0.000000000000D+00 0.000000000000D+00 0.162847246870D-02 0.000000000000D+00  5 1 -1 25 23 21 2 0.16814313D-01 0.24730421D-01 0.14078081D+05 0.14078081D+05 0.14078081D+05 0.12509753D+01  1  2 15  1  5  1        1 0.126938660406D-01 0.100000000000D+01
-.936573652229D-04 0.000000000000D+00 0.000000000000D+00 0.162847246870D-02 0.000000000000D+00  5 1 -1 25 23 21 2 0.16814313D-01 0.24730421D-01 0.14078081D+05 0.14078081D+05 0.14078081D+05 0.12509753D+01  1  2  4  1  5  1        1 -.632424824270D-01 0.100000000000D+01
  </mgrwgt>
  </event>
  <event>
  4     66 0.49155423E-03 0.16764541E+03 0.75467711E-02 0.11706013E+00
        1 -1    0    0  501    0 0.00000000E+00 0.00000000E+00 0.19391131E+03 0.19391158E+03 0.32000000E+00 0.0000E+00 0.9000E+01
       -1 -1    0    0    0  501 0.00000000E+00 0.00000000E+00 -.14943809E+03 0.14943843E+03 0.32000000E+00 0.0000E+00 0.9000E+01
       25  1    1    2    0    0 0.63470178E+02 -.11056771E+03 -.60950422E+01 0.17865003E+03 0.12500000E+03 0.0000E+00 0.9000E+01
       23  1    1    2    0    0 -.63470178E+02 0.11056771E+03 0.50568268E+02 0.16469998E+03 0.91188000E+02 0.0000E+00 0.9000E+01
#aMCatNLO 1  0  0  2  2 0.18473736D+02 0.00000000D+00  -5  5  0 0.00000000D+00 0.00000000D+00 0.00000000D+00 0.00000000D+00 0.00000000D+00
  <mgrwgt>
 0.1262343617D+00    4    2    0
 0.170228785390475D+03 0.000000000000000D+00 0.000000000000000D+00 0.170228785390475D+03
 0.170228785390475D+03 0.000000000000000D+00 0.000000000000000D+00 -.170228785390475D+03
 0.180963968396147D+03 0.634701778181592D+02 -.110567710065038D+03 -.294834848073721D+02
 0.159493602384803D+03 -.634701778181592D+02 0.110567710065038D+03 0.294834848073721D+02
 0.000000000000000D+00 0.000000000000000D+00 0.000000000000000D+00 0.000000000000000D+00
 0.211154765380077D+03 0.000000000000000D+00 0.000000000000000D+00 0.211154765380077D+03
 0.172576771716705D+03 0.000000000000000D+00 0.000000000000000D+00 -.172576771716705D+03
 0.180117503789688D+03 0.543069970327611D+02 -.114012233415215D+03 -.294834848073721D+02
 0.160840904853743D+03 -.715993210385499D+02 0.107511890880046D+03 0.294834848073721D+02
 0.427731284533508D+02 0.172923240057888D+02 0.650034253516958D+01 0.385779936633715D+02
0.587560812829D-03 0.000000000000D+00 0.000000000000D+00 0.154355080684D-02 0.000000000000D+00  5 1 -1 25 23 21 0 0.29832556D-01 0.22990521D-01 0.28104984D+05 0.28104984D+05 0.28104984D+05 0.12178839D+01  1  2  2  2  5  2       -1 0.140744239934D+00 0.100000000000D+01
-.326329862070D-04 0.000000000000D+00 -.225638822958D-05 0.154355080684D-02 0.000000000000D+00  5 1 -1 25 23 21 2 0.29832556D-01 0.22990521D-01 0.28104984D+05 0.28104984D+05 0.28104984D+05 0.12178839D+01  1  2  3  2  5  2       -1 -.115943491631D-01 0.100000000000D+01
0.404816767997D-04 0.000000000000D+00 0.000000000000D+00 0.154355080684D-02 0.000000000000D+00  5 1 -1 25 23 21 2 0.29832556D-01 0.22990521D-01 0.28104984D+05 0.28104984D+05 0.28104984D+05 0.12178839D+01  1  2 15  2  5  2       -1 0.143829526525D-01 0.100000000000D+01
-.486876070116D-04 0.000000000000D+00 0.000000000000D+00 0.154355080684D-02 0.000000000000D+00  5 1 -1 25 23 21 2 0.29832556D-01 0.22990521D-01 0.28104984D+05 0.28104984D+05 0.28104984D+05 0.12178839D+01  1  2  4  2  5  2       -1 -.172984817273D-01 0.100000000000D+01
  </mgrwgt>
  </event>
  <event>
  4     66 0.49155423E-03 0.56915585E+02 0.75467711E-02 0.11603564E+00
        1 -1    0    0  501    0 0.00000000E+00 0.00000000E+00 0.66073655E+02 0.66074430E+02 0.32000000E+00 0.0000E+00 0.9000E+01
       -1 -1    0    0    0  501 0.00000000E+00 0.00000000E+00 -.26616860E+03 0.26616879E+03 0.32000000E+00 0.0000E+00 0.9000E+01
       25  1    1    2    0    0 0.46039553E+01 -.47107308E+02 -.35635980E+02 0.13833011E+03 0.12500000E+03 0.0000E+00 0.9000E+01
       23  1    1    2    0    0 -.46039553E+01 0.47107308E+02 -.16445896E+03 0.19391312E+03 0.91188000E+02 0.0000E+00 0.9000E+01
#aMCatNLO 1  0  0  1  2 0.11337547D+03 0.00000000D+00  -5  5  0 0.00000000D+00 0.00000000D+00 0.00000000D+00 0.00000000D+00 0.00000000D+00
  <mgrwgt>
 0.8408285980D-01    7    2    0
 0.132615583718002D+03 0.000000000000000D+00 0.000000000000000D+00 0.132615583718002D+03
 0.132615583718002D+03 0.000000000000000D+00 0.000000000000000D+00 -.132615583718002D+03
 0.146395541644258D+03 0.460395530625989D+01 -.471073079524890D+02 0.597190065751526D+02
 0.118835625791746D+03 -.460395530625989D+01 0.471073079524890D+02 -.597190065751526D+02
 0.000000000000000D+00 -.000000000000000D+00 -.000000000000000D+00 0.000000000000000D+00
 0.298303928663838D+03 0.000000000000000D+00 0.000000000000000D+00 0.298303928663838D+03
 0.165079386470712D+03 0.000000000000000D+00 0.000000000000000D+00 -.165079386470712D+03
 0.152350778445759D+03 0.598652588516623D+02 -.208698521635671D+02 0.597190065751526D+02
 0.136096044682047D+03 0.425526303251340D+02 0.694967333058681D+02 -.597190065751526D+02
 0.174936492006745D+03 -.102417889176796D+03 -.486268811423010D+02 0.133224542193125D+03
0.310829301035D-03 0.000000000000D+00 0.000000000000D+00 0.161733707863D-02 0.000000000000D+00  5 1 -1 25 23 21 0 0.10165252D-01 0.40949090D-01 0.13971395D+05 0.13971395D+05 0.13971395D+05 0.12513550D+01  1  2  2  1  5  1        1 0.110032073425D+00 0.100000000000D+01
-.169902832219D-04 0.000000000000D+00 -.119366635921D-05 0.161733707863D-02 0.000000000000D+00  5 1 -1 25 23 21 2 0.10165252D-01 0.40949090D-01 0.13971395D+05 0.13971395D+05 0.13971395D+05 0.12513550D+01  1  2  3  1  5  1        1 -.941800820766D-02 0.100000000000D+01
0.213478365252D-04 0.000000000000D+00 0.000000000000D+00 0.161733707863D-02 0.000000000000D+00  5 1 -1 25 23 21 2 0.10165252D-01 0.40949090D-01 0.13971395D+05 0.13971395D+05 0.13971395D+05 0.12513550D+01  1  2 15  1  5  1        1 0.118334754627D-01 0.100000000000D+01
0.559532688147D-06 0.000000000000D+00 0.000000000000D+00 0.161733707863D-02 0.000000000000D+00  5 1 -1 25 23 21 2 0.22691246D-01 0.40949090D-01 0.35311625D+05 0.35311625D+05 0.35311625D+05 0.12075375D+01  1  2 12  1  5  1        1 0.103895596798D-03 0.100000000000D+01
-.130270684744D-03 0.000000000000D+00 -.112892943276D-03 0.161733707863D-02 0.000000000000D+00  5 1 -1 25 23 21 2 0.27972213D-01 0.40949090D-01 0.13971395D+05 0.13971395D+05 0.13971395D+05 0.12513550D+01  1  2  5  1  5  1        1 -.197661045660D-01 0.100000000000D+01
0.487557881468D-07 0.000000000000D+00 0.000000000000D+00 0.161733707863D-02 0.000000000000D+00  5 21 -1 25 23 -1 2 0.22691246D-01 0.40949090D-01 0.35311625D+05 0.35311625D+05 0.35311625D+05 0.12075375D+01  1  2 12  3  5  1        1 0.705886925638D-04 0.100000000000D+01
-.832476859452D-05 0.000000000000D+00 -.127914622592D-04 0.161733707863D-02 0.000000000000D+00  5 21 -1 25 23 -1 2 0.27972213D-01 0.40949090D-01 0.13971395D+05 0.13971395D+05 0.13971395D+05 0.12513550D+01  1  2  5  3  5  1        1 -.877306060447D-02 0.100000000000D+01
  </mgrwgt>
  </event>
  <event>
  4     66 0.49155423E-03 0.22702113E+03 0.75467711E-02 0.11119606E+00
        1 -1    0    0  501    0 0.00000000E+00 0.00000000E+00 0.10786011E+04 0.10786012E+04 0.32000000E+00 0.0000E+00 0.9000E+01
       -1 -1    0    0    0  501 0.00000000E+00 0.00000000E+00 -.64193914E+02 0.64194712E+02 0.32000000E+00 0.0000E+00 0.9000E+01
       25  1    1    2    0    0 0.22451639E+03 0.34262184E+02 0.35611838E+03 0.44048474E+03 0.12500000E+03 0.0000E+00 0.9000E+01
       23  1    1    2    0    0 -.22451639E+03 -.34262184E+02 0.65828882E+03 0.70231113E+03 0.91188000E+02 0.0000E+00 0.9000E+01
#aMCatNLO 1  0  0  1  2 0.29637396D+00 0.00000000D+00  -5  5  0 0.00000000D+00 0.00000000D+00 0.00000000D+00 0.00000000D+00 0.00000000D+00
  <mgrwgt>
 0.2439727793D+00    9    2    0
 0.263135155340280D+03 0.000000000000000D+00 0.000000000000000D+00 0.263135155340280D+03
 0.263135155340280D+03 0.000000000000000D+00 0.000000000000000D+00 -.263135155340280D+03
 0.270080016666912D+03 0.224516387833729D+03 0.342621840372220D+02 -.757410703772646D+02
 0.256190294013648D+03 -.224516387833729D+03 -.342621840372220D+02 0.757410703772646D+02
 0.000000000000000D+00 0.000000000000000D+00 -.000000000000000D+00 0.000000000000000D+00
 0.263648186759669D+03 0.000000000000000D+00 0.000000000000000D+00 0.263648186759669D+03
 0.263178003737504D+03 0.000000000000000D+00 0.000000000000000D+00 -.263178003737504D+03
 0.269963743707091D+03 0.224370139773602D+03 0.343038416569998D+02 -.757410703772646D+02
 0.256306650426321D+03 -.224655176001364D+03 -.342226513096630D+02 0.757410703772646D+02
 0.555796363760933D+00 0.285036227762040D+00 -.811903473367620D-01 0.470183022165197D+00
0.683865184413D-03 0.000000000000D+00 0.000000000000D+00 0.122722154875D-02 0.000000000000D+00  5 1 -1 25 23 21 0 0.16593870D+00 0.98760518D-02 0.63499040D+05 0.63499040D+05 0.63499040D+05 0.11821369D+01  1  2  2  1  5  1        1 0.596075360323D-01 0.100000000000D+01
-.379059916983D-04 0.000000000000D+00 -.262622237398D-05 0.122722154875D-02 0.000000000000D+00  5 1 -1 25 23 21 2 0.16593870D+00 0.98760518D-02 0.63499040D+05 0.63499040D+05 0.63499040D+05 0.11821369D+01  1  2  3  1  5  1        1 -.461715103359D-02 0.100000000000D+01
0.468080240959D-04 0.000000000000D+00 0.000000000000D+00 0.122722154875D-02 0.000000000000D+00  5 1 -1 25 23 21 2 0.16593870D+00 0.98760518D-02 0.63499040D+05 0.63499040D+05 0.63499040D+05 0.11821369D+01  1  2 15  1  5  1        1 0.570146584093D-02 0.100000000000D+01
-.290128061272D+00 0.000000000000D+00 0.000000000000D+00 0.122722154875D-02 0.000000000000D+00  5 1 -1 25 23 21 2 0.16593870D+00 0.98760518D-02 0.63499040D+05 0.63499040D+05 0.63499040D+05 0.11821369D+01  1  2  4  1  5  1        1 -.353391381668D+02 0.100000000000D+01
-.766100552013D+00 0.000000000000D+00 -.423093960670D-01 0.122722154875D-02 0.000000000000D+00  5 1 -1 25 23 21 2 0.16627486D+00 0.98760518D-02 0.63499040D+05 0.63499040D+05 0.63499040D+05 0.11821369D+01  1  2  5  1  5  1        1 -.929749516141D+02 0.100000000000D+01
0.766184695357D+00 0.000000000000D+00 0.423093094225D-01 0.122722154875D-02 0.000000000000D+00  5 1 -1 25 23 21 2 0.16593870D+00 0.98760518D-02 0.63499040D+05 0.63499040D+05 0.63499040D+05 0.11821369D+01  1  2  6  1  5  1        1 0.933253636060D+02 0.100000000000D+01
0.290128699438D+00 0.000000000000D+00 0.000000000000D+00 0.122722154875D-02 0.104121842470D+00  5 1 -1 25 23 21 2 0.16626223D+00 0.98776600D-02 0.63573912D+05 0.63573912D+05 0.63573912D+05 0.11820875D+01  1  2 11  1  5  1        1 0.352031278983D+02 0.100000000000D+01
-.289761101541D-03 0.000000000000D+00 -.160062013288D-04 0.122722154875D-02 0.000000000000D+00  5 21 -1 25 23 -1 2 0.16627486D+00 0.98760518D-02 0.63499040D+05 0.63499040D+05 0.63499040D+05 0.11821369D+01  1  2  5  3  5  1        1 -.496570864994D-01 0.100000000000D+01
0.108183589921D-03 0.000000000000D+00 0.000000000000D+00 0.122722154875D-02 0.379088595241D-04  5 21 -1 25 23 -1 2 0.16626223D+00 0.98776600D-02 0.63573912D+05 0.63573912D+05 0.63573912D+05 0.11820875D+01  1  2 11  3  5  1        1 0.185362915408D-01 0.100000000000D+01
  </mgrwgt>
  </event>
  <event>
  5     66 0.49155423E-03 0.11450612E+03 0.75467711E-02 0.12255346E+00
        1 -1    0    0  501    0 0.00000000E+00 0.00000000E+00 0.87404457E+03 0.87404463E+03 0.32000000E+00 0.0000E+00 0.9000E+01
       21 -1    0    0  502  501 0.00000000E+00 0.00000000E+00 -.24407312E+02 0.24418832E+02 0.75000000E+00 0.0000E+00 0.9000E+01
       25  1    1    2    0    0 0.34198445E+02 -.26838372E+02 0.46790846E+03 0.48626449E+03 0.12500000E+03 0.0000E+00 0.9000E+01
       23  1    1    2    0    0 -.46782093E+01 0.37731880E+02 0.15854939E+03 0.18681204E+03 0.91188000E+02 0.0000E+00 0.9000E+01
        1  1    1    2  502    0 -.29520236E+02 -.10893508E+02 0.22317942E+03 0.22538693E+03 0.32000000E+00 0.0000E+00 0.9000E+01
#aMCatNLO 2  0  0  2  2 0.31466059D+02 0.00000000D+00  -5  5  0 0.00000000D+00 0.00000000D+00 0.00000000D+00 0.00000000D+00 0.00000000D+00
  <mgrwgt>
 0.5011059651D-01    1    2    0
 0.122057855231320D+03 0.000000000000000D+00 0.000000000000000D+00 0.122057855231320D+03
 0.122057855231320D+03 0.000000000000000D+00 0.000000000000000D+00 -.122057855231320D+03
 0.137029748359679D+03 0.175883326886792D+02 -.329678076303396D+02 0.419037724888596D+02
 0.107085962102961D+03 -.175883326886792D+02 0.329678076303396D+02 -.419037724888596D+02
 0.000000000000000D+00 -.000000000000000D+00 -.000000000000000D+00 0.000000000000000D+00
 0.165546836349131D+03 0.000000000000000D+00 0.000000000000000D+00 0.165546836349131D+03
 0.128894705056447D+03 0.000000000000000D+00 0.000000000000000D+00 -.128894705056447D+03
 0.138819155810361D+03 0.341984453933233D+02 -.268383718541791D+02 0.419037724888596D+02
 0.107316158486241D+03 -.467820930857643D+01 0.377318795862465D+02 -.419037724888596D+02
 0.483062271089755D+02 -.295202360847469D+02 -.108935077320674D+02 0.366521312926837D+02
0.334154708852D-05 0.000000000000D+00 0.000000000000D+00 0.191537549370D-02 0.195311885563D-06  5 1 21 25 23 1 2 0.13446875D+00 0.37558468D-02 0.17240556D+05 0.17240556D+05 0.17240556D+05 0.12409884D+01  1  2  1  4  5  2       -1 0.501105965125D-01 0.100000000000D+01
  </mgrwgt>
  </event>
  <event>
  5     66 0.49155423E-03 0.11277149E+03 0.75467711E-02 0.12493274E+00
        1 -1    0    0  502    0 0.00000000E+00 0.00000000E+00 0.58058736E+03 0.58058745E+03 0.32000000E+00 0.0000E+00 0.9000E+01
       -1 -1    0    0    0  501 0.00000000E+00 0.00000000E+00 -.37406373E+02 0.37407742E+02 0.32000000E+00 0.0000E+00 0.9000E+01
       25  1    1    2    0    0 -.28135832E+02 -.13604272E+02 0.10784276E+03 0.16802310E+03 0.12500000E+03 0.0000E+00 0.9000E+01
       23  1    1    2    0    0 0.31643716E+02 0.76268262E+01 0.43104349E+03 0.44178415E+03 0.91188000E+02 0.0000E+00 0.9000E+01
       21  1    1    2  502  501 -.35078839E+01 0.59774457E+01 0.42947395E+01 0.81879420E+01 0.75000000E+00 0.0000E+00 0.9000E+01
#aMCatNLO 2  0  0  1  2 0.69307364D+01 0.00000000D+00  -5  5  0 0.00000000D+00 0.00000000D+00 0.00000000D+00 0.00000000D+00 0.00000000D+00
  <mgrwgt>
 0.8479531850D-01    2    2    0
 0.142669597716635D+03 0.000000000000000D+00 0.000000000000000D+00 0.142669597716635D+03
 0.142669597716635D+03 0.000000000000000D+00 0.000000000000000D+00 -.142669597716635D+03
 0.155478473561576D+03 -.300463049283088D+02 -.103488195891554D+02 -.868255563431866D+02
 0.129860721871695D+03 0.300463049283088D+02 0.103488195891554D+02 0.868255563431866D+02
 0.000000000000000D+00 -.000000000000000D+00 0.000000000000000D+00 -.000000000000000D+00
 0.144247602572327D+03 0.000000000000000D+00 0.000000000000000D+00 0.144247602572327D+03
 0.150530272812591D+03 0.000000000000000D+00 0.000000000000000D+00 -.150530272812591D+03
 0.155371742878900D+03 -.281358318746778D+02 -.136042719629874D+02 -.868255563431866D+02
 0.130051612082655D+03 0.316437157842900D+02 0.762682623091062D+01 0.868255563431866D+02
 0.935452042336389D+01 -.350788390961221D+01 0.597744573207679D+01 -.628267024026352D+01
-.397661734734D-04 0.000000000000D+00 0.000000000000D+00 0.125996010242D-02 0.000000000000D+00  5 1 -1 25 23 21 2 0.88334984D-01 0.54538530D-02 0.12717409D+05 0.12717409D+05 0.12717409D+05 0.12560794D+01  1  2  8  1  5  1        1 -.345771307130D-01 0.100000000000D+01
0.151317333102D-03 0.000000000000D+00 0.000000000000D+00 0.125996010242D-02 0.219995939569D-03  5 1 -1 25 23 21 2 0.89312018D-01 0.57543442D-02 0.13525875D+05 0.13525875D+05 0.13525875D+05 0.12529769D+01  1  2  1  1  5  1        1 0.119372449208D+00 0.100000000000D+01
  </mgrwgt>
  </event>
  <event>
  4     66 0.49155423E-03 0.71827143E+02 0.75467711E-02 0.12063255E+00
        1 -1    0    0  501    0 0.00000000E+00 0.00000000E+00 0.50167289E+02 0.50168310E+02 0.32000000E+00 0.0000E+00 0.9000E+01
       -1 -1    0    0    0  501 0.00000000E+00 0.00000000E+00 -.73823111E+03 0.73823118E+03 0.32000000E+00 0.0000E+00 0.9000E+01
       25  1    1    2    0    0 0.89046854E+02 0.28908329E+02 -.62325011E+03 0.64251905E+03 0.12500000E+03 0.0000E+00 0.9000E+01
       23  1    1    2    0    0 -.89046854E+02 -.28908329E+02 -.64813714E+02 0.14588044E+03 0.91188000E+02 0.0000E+00 0.9000E+01
#aMCatNLO 1  0  0  2  1 0.38248462D+01 0.00000000D+00  -5  5  0 0.00000000D+00 0.00000000D+00 0.00000000D+00 0.00000000D+00 0.00000000D+00
  <mgrwgt>
 0.1235305345D+00   11    2    0
 0.192446053393554D+03 0.000000000000000D+00 0.000000000000000D+00 0.192446053393554D+03
 0.192446053393554D+03 0.000000000000000D+00 0.000000000000000D+00 -.192446053393554D+03
 0.201941894600871D+03 0.890468544147335D+02 0.289083292339627D+02 -.128025368637358D+03
 0.182950212186237D+03 -.890468544147335D+02 -.289083292339627D+02 0.128025368637358D+03
 0.000000000000000D+00 -.000000000000000D+00 0.000000000000000D+00 -.000000000000000D+00
 0.194035533959182D+03 0.000000000000000D+00 0.000000000000000D+00 0.194035533959182D+03
 0.194770373138626D+03 0.000000000000000D+00 0.000000000000000D+00 -.194770373138626D+03
 0.202366302631648D+03 0.904533286149928D+02 0.274740016841461D+02 -.128025368637358D+03
 0.182544808296065D+03 -.877754003107842D+02 -.302049627941699D+02 0.128025368637358D+03
 0.389479617009536D+01 -.267792830420852D+01 0.273096111002372D+01 -.734839179444302D+00
0.863698168347D-03 0.000000000000D+00 0.000000000000D+00 0.902104854474D-03 0.000000000000D+00  5 1 -1 25 23 21 0 0.77181284D-02 0.11357410D+00 0.20572832D+05 0.20572832D+05 0.20572832D+05 0.12324782D+01  1  2  2  2  5  2       -1 0.589377148673D-01 0.100000000000D+01
-.429421303266D-04 0.000000000000D+00 -.331682838340D-05 0.902104854474D-03 0.000000000000D+00  5 1 -1 25 23 21 2 0.77181284D-02 0.11357410D+00 0.20572832D+05 0.20572832D+05 0.20572832D+05 0.12324782D+01  1  2  3  2  5  2       -1 -.445116140509D-02 0.100000000000D+01
0.588416941987D-04 0.000000000000D+00 0.000000000000D+00 0.902104854474D-03 0.000000000000D+00  5 1 -1 25 23 21 2 0.77181284D-02 0.11357410D+00 0.20572832D+05 0.20572832D+05 0.20572832D+05 0.12324782D+01  1  2 15  2  5  2       -1 0.609922880481D-02 0.100000000000D+01
0.365537113890D-04 0.000000000000D+00 0.000000000000D+00 0.902104854474D-03 0.000000000000D+00  5 1 -1 25 23 21 2 0.77181284D-02 0.11541008D+00 0.21122231D+05 0.21122231D+05 0.21122231D+05 0.12312243D+01  1  2 12  2  5  2       -1 0.364468577228D-02 0.100000000000D+01
-.637731358545D-02 0.000000000000D+00 0.000000000000D+00 0.902104854474D-03 0.000000000000D+00  5 1 -1 25 23 21 2 0.77181284D-02 0.11357410D+00 0.20572832D+05 0.20572832D+05 0.20572832D+05 0.12324782D+01  1  2  4  2  5  2       -1 -.661039680236D+00 0.100000000000D+01
-.413900322083D-01 0.000000000000D+00 -.520286449073D-02 0.902104854474D-03 0.000000000000D+00  5 1 -1 25 23 21 2 0.77181284D-02 0.11566636D+00 0.20572832D+05 0.20572832D+05 0.20572832D+05 0.12324782D+01  1  2  5  2  5  2       -1 -.411327243023D+01 0.100000000000D+01
0.414789628720D-01 0.000000000000D+00 0.520199775739D-02 0.902104854474D-03 0.000000000000D+00  5 1 -1 25 23 21 2 0.77181284D-02 0.11357410D+00 0.20572832D+05 0.20572832D+05 0.20572832D+05 0.12324782D+01  1  2  6  2  5  2       -1 0.429949695683D+01 0.100000000000D+01
0.634697396155D-02 0.000000000000D+00 0.000000000000D+00 0.902104854474D-03 0.498631537901D-03  5 1 -1 25 23 21 2 0.77818751D-02 0.11494582D+00 0.21122231D+05 0.21122231D+05 0.21122231D+05 0.12312243D+01  1  2 11  2  5  2       -1 0.631737719814D+00 0.100000000000D+01
0.181840246568D-05 0.000000000000D+00 0.000000000000D+00 0.902104854474D-03 0.000000000000D+00  5 1 21 25 23 1 2 0.77181284D-02 0.11541008D+00 0.21122231D+05 0.21122231D+05 0.21122231D+05 0.12312243D+01  1  2 12  4  5  2       -1 0.157015004999D-02 0.100000000000D+01
-.137229289186D-03 0.000000000000D+00 -.173300497894D-04 0.902104854474D-03 0.000000000000D+00  5 1 21 25 23 1 2 0.77181284D-02 0.11566636D+00 0.20572832D+05 0.20572832D+05 0.20572832D+05 0.12324782D+01  1  2  5  4  5  2       -1 -.118166553786D+00 0.100000000000D+01
0.220030541933D-04 0.000000000000D+00 0.000000000000D+00 0.902104854474D-03 0.110305635995D-05  5 1 21 25 23 1 2 0.77818751D-02 0.11494582D+00 0.21122231D+05 0.21122231D+05 0.21122231D+05 0.12312243D+01  1  2 11  4  5  2       -1 0.189739039781D-01 0.100000000000D+01
  </mgrwgt>
  </event>
  <event>
  4     66 0.49155423E-03 0.11742866E+03 0.75467711E-02 0.12387555E+00
        1 -1    0    0  501    0 0.00000000E+00 0.00000000E+00 0.82981476E+03 0.82981482E+03 0.32000000E+00 0.0000E+00 0.9000E+01
       -1 -1    0    0    0  501 0.00000000E+00 0.00000000E+00 -.19654056E+02 0.19656661E+02 0.32000000E+00 0.0000E+00 0.9000E+01
       25  1    1    2    0    0 -.17620681E+02 0.41845600E+02 0.28473133E+03 0.31425861E+03 0.12500000E+03 0.0000E+00 0.9000E+01
       23  1    1    2    0    0 0.17620681E+02 -.41845600E+02 0.52542937E+03 0.53521288E+03 0.91188000E+02 0.0000E+00 0.9000E+01
#aMCatNLO 1  0  0  1  1 0.10342411D+02 0.00000000D+00  -5  5  0 0.00000000D+00 0.00000000D+00 0.00000000D+00 0.00000000D+00 0.00000000D+00
  <mgrwgt>
 0.1209002906D+00    4    2    0
 0.127712014083345D+03 0.000000000000000D+00 0.000000000000000D+00 0.127712014083345D+03
 0.127712014083345D+03 0.000000000000000D+00 0.000000000000000D+00 -.127712014083345D+03
 0.142021060707630D+03 -.176206805108704D+02 0.418456001576246D+02 -.498341153257726D+02
 0.113402967459059D+03 0.176206805108704D+02 -.418456001576246D+02 0.498341153257726D+02
 0.000000000000000D+00 0.000000000000000D+00 -.000000000000000D+00 -.000000000000000D+00
 0.129146140391224D+03 0.000000000000000D+00 0.000000000000000D+00 0.129146140391224D+03
 0.147930893286692D+03 0.000000000000000D+00 0.000000000000000D+00 -.147930893286692D+03
 0.143926665486430D+03 -.210323612447730D+02 0.465197352551541D+02 -.498341153257726D+02
 0.111706664954045D+03 0.149348672465311D+02 -.381659316823453D+02 0.498341153257726D+02
 0.214437032374415D+02 0.609749399824189D+01 -.835380357280878D+01 -.187847528954680D+02
0.201779454812D-03 0.000000000000D+00 0.000000000000D+00 0.176421854675D-02 0.000000000000D+00  5 1 -1 25 23 21 0 0.12766401D+00 0.30239061D-02 0.13789489D+05 0.13789489D+05 0.13789489D+05 0.12520101D+01  1  2  2  1  5  1        1 0.156672637214D+00 0.100000000000D+01
-.111139202321D-04 0.000000000000D+00 -.774886236229D-06 0.176421854675D-02 0.000000000000D+00  5 1 -1 25 23 21 2 0.12766401D+00 0.30239061D-02 0.13789489D+05 0.13789489D+05 0.13789489D+05 0.12520101D+01  1  2  3  1  5  1        1 -.135269277010D-01 0.100000000000D+01
0.139462309822D-04 0.000000000000D+00 0.000000000000D+00 0.176421854675D-02 0.000000000000D+00  5 1 -1 25 23 21 2 0.12766401D+00 0.30239061D-02 0.13789489D+05 0.13789489D+05 0.13789489D+05 0.12520101D+01  1  2 15  1  5  1        1 0.169741778110D-01 0.100000000000D+01
-.322233901782D-04 0.000000000000D+00 0.000000000000D+00 0.176421854675D-02 0.000000000000D+00  5 1 -1 25 23 21 2 0.12766401D+00 0.30239061D-02 0.13789489D+05 0.13789489D+05 0.13789489D+05 0.12520101D+01  1  2  4  1  5  1        1 -.392195966965D-01 0.100000000000D+01
  </mgrwgt>
  </event>
  <event>
  5     66 0.49155423E-03 0.11062489E+03 0.75467711E-02 0.11625163E+00
       21 -1    0    0  501  502 0.00000000E+00 0.00000000E+00 0.17766496E+04 0.17766498E+04 0.75000000E+00 0.0000E+00 0.9000E+01
       -3 -1    0    0    0  501 0.00000000E+00 0.00000000E+00 -.21343929E+02 0.21349784E+02 0.50000000E+00 0.0000E+00 0.9000E+01
       25  1    1    2    0    0 -.69655488E+02 -.56259733E+02 0.51288165E+03 0.53543406E+03 0.12500000E+03 0.0000E+00 0.9000E+01
       23  1    1    2    0    0 -.88453914E+01 -.34038722E+02 0.40439349E+03 0.41603632E+03 0.91188000E+02 0.0000E+00 0.9000E+01
       -3  1    1    2    0  502 0.78500879E+02 0.90298455E+02 0.83803055E+03 0.84652918E+03 0.50000000E+00 0.0000E+00 0.9000E+01
#aMCatNLO 2  0  0  1  1 0.11965032D+03 0.00000000D+00  -5  5  0 0.00000000D+00 0.00000000D+00 0.00000000D+00 0.00000000D+00 0.00000000D+00
  <mgrwgt>
 0.1922060329D-02    1    2    0
 0.111339576609359D+03 0.000000000000000D+00 0.000000000000000D+00 0.111339576609359D+03
 0.111339576609359D+03 0.000000000000000D+00 0.000000000000000D+00 -.111339576609359D+03
 0.127752762465199D+03 -.230939647757029D+02 -.270066918493164D+01 -.124556611378819D+02
 0.949263907535180D+02 0.230939647757029D+02 0.270066918493164D+01 0.124556611378819D+02
 0.000000000000000D+00 0.000000000000000D+00 0.000000000000000D+00 0.000000000000000D+00
 0.240330679259147D+03 0.000000000000000D+00 0.000000000000000D+00 0.240330679259147D+03
 0.157807165776234D+03 0.000000000000000D+00 0.000000000000000D+00 -.157807165776234D+03
 0.154263372379466D+03 -.696554878486673D+02 -.562597331674110D+02 -.124556611378819D+02
 0.985254809788091D+02 -.884539143926743D+01 -.340387222734649D+02 0.124556611378819D+02
 0.145348991677105D+03 0.785008792879347D+02 0.902984554408759D+02 0.825235134829127D+02
0.123803892299D-04 0.000000000000D+00 0.000000000000D+00 0.234349116453D-02 0.251481928836D-06  5 21 -3 25 23 -3 2 0.27333050D+00 0.32841359D-02 0.34437153D+05 0.34437153D+05 0.34437153D+05 0.12086609D+01  1  2  1  3  5  1        3 0.192206032917D-02 0.100000000000D+01
  </mgrwgt>
  </event>
  <event>
  4     66 0.49155423E-03 0.16085963E+03 0.75467711E-02 0.10963038E+00
        1 -1    0    0  501    0 0.00000000E+00 0.00000000E+00 0.15586843E+03 0.15586875E+03 0.32000000E+00 0.0000E+00 0.9000E+01
       -1 -1    0    0    0  501 0.00000000E+00 0.00000000E+00 -.19459095E+03 0.19459121E+03 0.32000000E+00 0.0000E+00 0.9000E+01
       25  1    1    2    0    0 0.17604985E+02 0.11715297E+03 0.46485167E+02 0.17838337E+03 0.12500000E+03 0.0000E+00 0.9000E+01
       23  1    1    2    0    0 -.17604985E+02 -.11715297E+03 -.85207692E+02 0.17207660E+03 0.91188000E+02 0.0000E+00 0.9000E+01
#aMCatNLO 1  0  0  2  1 0.18728767D+03 0.00000000D+00  -5  5  0 0.00000000D+00 0.00000000D+00 0.00000000D+00 0.00000000D+00 0.00000000D+00
  <mgrwgt>
 0.9903172332D-01    5    2    0
 0.174157081068496D+03 0.000000000000000D+00 0.000000000000000D+00 0.174157081068496D+03
 0.174157081068496D+03 0.000000000000000D+00 0.000000000000000D+00 -.174157081068496D+03
 0.184650120758805D+03 0.176049847204930D+02 0.117152973842557D+03 0.666026450606690D+02
 0.163664041378188D+03 -.176049847204930D+02 -.117152973842557D+03 -.666026450606690D+02
 0.000000000000000D+00 -.000000000000000D+00 0.000000000000000D+00 -.000000000000000D+00
 0.211842008372912D+03 0.000000000000000D+00 0.000000000000000D+00 0.211842008372912D+03
 0.819435583553305D+03 0.000000000000000D+00 0.000000000000000D+00 -.819435583553305D+03
 0.147475767590372D+03 0.234645960177467D+02 0.337283624123074D+02 0.666026450606690D+02
 0.247997905521395D+03 -.103421392774836D+02 -.220555747204843D+03 -.666026450606690D+02
 0.635803918814449D+03 -.131224567402631D+02 0.186827384792536D+03 -.607593575180393D+03
0.596370898868D-03 0.000000000000D+00 0.000000000000D+00 0.136576335426D-02 0.000000000000D+00  5 1 -1 25 23 21 0 0.23979803D-01 0.29937115D-01 0.25875821D+05 0.25875821D+05 0.25875821D+05 0.12216976D+01  1  2  2  2  5  2       -1 0.121106689470D+00 0.100000000000D+01
-.328775925871D-04 0.000000000000D+00 -.229022127972D-05 0.136576335426D-02 0.000000000000D+00  5 1 -1 25 23 21 2 0.23979803D-01 0.29937115D-01 0.25875821D+05 0.25875821D+05 0.25875821D+05 0.12216976D+01  1  2  3  2  5  2       -1 -.996504242051D-02 0.100000000000D+01
0.410379215285D-04 0.000000000000D+00 0.000000000000D+00 0.136576335426D-02 0.000000000000D+00  5 1 -1 25 23 21 2 0.23979803D-01 0.29937115D-01 0.25875821D+05 0.25875821D+05 0.25875821D+05 0.12216976D+01  1  2 15  2  5  2       -1 0.124383994296D-01 0.100000000000D+01
-.829719770833D-03 0.000000000000D+00 -.237647066627D-03 0.136576335426D-02 0.000000000000D+00  5 1 -1 25 23 21 2 0.23979803D-01 0.15595489D+00 0.25875821D+05 0.25875821D+05 0.25875821D+05 0.12216976D+01  1  2  5  2  5  2       -1 -.878876168021D-02 0.100000000000D+01
-.175880933374D-03 0.000000000000D+00 -.479060064607D-04 0.136576335426D-02 0.000000000000D+00  5 1 21 25 23 1 2 0.23979803D-01 0.15595489D+00 0.25875821D+05 0.25875821D+05 0.25875821D+05 0.12216976D+01  1  2  5  4  5  2       -1 -.157595614766D-01 0.100000000000D+01
  </mgrwgt>
  </event>
  <event>
  4     66 0.49155423E-03 0.11543945E+03 0.75467711E-02 0.11388132E+00
        1 -1    0    0  501    0 0.00000000E+00 0.00000000E+00 0.17236015E+03 0.17236045E+03 0.32000000E+00 0.0000E+00 0.9000E+01
       -1 -1    0    0    0  501 0.00000000E+00 0.00000000E+00 -.84335030E+02 0.84335637E+02 0.32000000E+00 0.0000E+00 0.9000E+01
       25  1    1    2    0    0 0.13417666E+02 0.37771734E+02 0.86253160E+02 0.15707115E+03 0.12500000E+03 0.0000E+00 0.9000E+01
       23  1    1    2    0    0 -.13417666E+02 -.37771734E+02 0.17719643E+01 0.99624941E+02 0.91188000E+02 0.0000E+00 0.9000E+01
#aMCatNLO 1  0  0  2  1 0.15127056D+03 0.00000000D+00  -5  5  0 0.00000000D+00 0.00000000D+00 0.00000000D+00 0.00000000D+00 0.00000000D+00
  <mgrwgt>
 0.1197270482D+00    5    2    0
 0.120565810972866D+03 0.000000000000000D+00 0.000000000000000D+00 0.120565810972866D+03
 0.120565810972866D+03 0.000000000000000D+00 0.000000000000000D+00 -.120565810972866D+03
 0.135722986537432D+03 0.134176657853307D+02 0.377717339133777D+02 0.344817551277504D+02
 0.105408635408300D+03 -.134176657853307D+02 -.377717339133777D+02 -.344817551277504D+02
 0.000000000000000D+00 -.000000000000000D+00 -.000000000000000D+00 -.000000000000000D+00
 0.175521546081211D+03 0.000000000000000D+00 0.000000000000000D+00 0.175521546081211D+03
 0.314661857624585D+03 0.000000000000000D+00 0.000000000000000D+00 -.314661857624585D+03
 0.171895075935372D+03 0.101035787933140D+03 0.502562956341474D+02 0.344817551277504D+02
 0.112757770289797D+03 0.487221534091105D+02 -.289175335603761D+02 -.344817551277504D+02
 0.205530557480627D+03 -.149757941342251D+03 -.213387620737713D+02 -.139140311543374D+03
0.171534333762D-03 0.000000000000D+00 0.000000000000D+00 0.200213634586D-02 0.000000000000D+00  5 1 -1 25 23 21 0 0.26517016D-01 0.12974689D-01 0.13326266D+05 0.13326266D+05 0.13326266D+05 0.12537231D+01  1  2  2  2  5  2       -1 0.115623343111D+00 0.100000000000D+01
-.950781101035D-05 0.000000000000D+00 -.658737007673D-06 0.200213634586D-02 0.000000000000D+00  5 1 -1 25 23 21 2 0.26517016D-01 0.12974689D-01 0.13326266D+05 0.13326266D+05 0.13326266D+05 0.12537231D+01  1  2  3  2  5  2       -1 -.100734508951D-01 0.100000000000D+01
0.118345401858D-04 0.000000000000D+00 0.000000000000D+00 0.200213634586D-02 0.000000000000D+00  5 1 -1 25 23 21 2 0.26517016D-01 0.12974689D-01 0.13326266D+05 0.13326266D+05 0.13326266D+05 0.12537231D+01  1  2 15  2  5  2       -1 0.125386021343D-01 0.100000000000D+01
-.597242873538D-06 0.000000000000D+00 -.563911934996D-04 0.200213634586D-02 0.000000000000D+00  5 1 -1 25 23 21 2 0.26517016D-01 0.47631324D-01 0.13326266D+05 0.13326266D+05 0.13326266D+05 0.12537231D+01  1  2  5  2  5  2       -1 -.742840149870D-04 0.100000000000D+01
0.132527314981D-05 0.000000000000D+00 -.864577079324D-05 0.200213634586D-02 0.000000000000D+00  5 1 21 25 23 1 2 0.26517016D-01 0.47631324D-01 0.13326266D+05 0.13326266D+05 0.13326266D+05 0.12537231D+01  1  2  5  4  5  2       -1 0.171283787866D-02 0.100000000000D+01
  </mgrwgt>
  </event>
  <event>
  4     66 0.49155423E-03 0.14090645E+03 0.75467711E-02 0.11496015E+00
        3 -1    0    0  501    0 0.00000000E+00 0.00000000E+00 0.27598023E+03 0.27598068E+03 0.50000000E+00 0.0000E+00 0.9000E+01
       -3 -1    0    0    0  501 0.00000000E+00 0.00000000E+00 -.86944296E+02 0.86945734E+02 0.50000000E+00 0.0000E+00 0.9000E+01
       25  1    1    2    0    0 0.78795259E+02 0.42941905E+02 0.17683209E+03 0.23440838E+03 0.12500000E+03 0.0000E+00 0.9000E+01
       23  1    1    2    0    0 -.78795259E+02 -.42941905E+02 0.12203839E+02 0.12851803E+03 0.91188000E+02 0.0000E+00 0.9000E+01
#aMCatNLO 1  0  0  2  1 0.10088512D+03 0.00000000D+00  -5  5  0 0.00000000D+00 0.00000000D+00 0.00000000D+00 0.00000000D+00 0.00000000D+00
  <mgrwgt>
 0.1845255971D-01    4    2    0
 0.154904001911954D+03 0.000000000000000D+00 0.000000000000000D+00 0.154904001911954D+03
 0.154904001911954D+03 0.000000000000000D+00 0.000000000000000D+00 -.154904001911954D+03
 0.166701225621117D+03 0.787952589160168D+02 0.429419050127510D+02 0.641217481812248D+02
 0.143106778202790D+03 -.787952589160168D+02 -.429419050127510D+02 -.641217481812248D+02
 0.000000000000000D+00 -.000000000000000D+00 0.000000000000000D+00 0.000000000000000D+00
 0.239129043826512D+03 0.000000000000000D+00 0.000000000000000D+00 0.239129043826512D+03
 0.196293562797159D+03 0.000000000000000D+00 0.000000000000000D+00 -.196293562797159D+03
 0.170943150555165D+03 0.971075320866071D+02 -.742221961128071D+01 0.641217481812248D+02
 0.154877055884554D+03 -.626339905660936D+02 -.873901352065404D+02 -.641217481812248D+02
 0.109602400183952D+03 -.344735415205135D+02 0.948123548178211D+02 0.428354810293536D+02
0.403861522507D-03 0.000000000000D+00 0.000000000000D+00 0.144519656012D-02 0.000000000000D+00  5 3 -3 25 23 21 0 0.42458642D-01 0.13376191D-01 0.19854627D+05 0.19854627D+05 0.19854627D+05 0.12341750D+01  1  2  2  2  5  2       -3 0.235017007315D-01 0.100000000000D+01
-.221920547671D-04 0.000000000000D+00 -.155093458561D-05 0.144519656012D-02 0.000000000000D+00  5 3 -3 25 23 21 2 0.42458642D-01 0.13376191D-01 0.19854627D+05 0.19854627D+05 0.19854627D+05 0.12341750D+01  1  2  3  2  5  2       -3 -.196706094768D-02 0.100000000000D+01
0.277813160682D-04 0.000000000000D+00 0.000000000000D+00 0.144519656012D-02 0.000000000000D+00  5 3 -3 25 23 21 2 0.42458642D-01 0.13376191D-01 0.19854627D+05 0.19854627D+05 0.19854627D+05 0.12341750D+01  1  2 15  2  5  2       -3 0.246248229315D-02 0.100000000000D+01
-.625528313945D-04 0.000000000000D+00 0.000000000000D+00 0.144519656012D-02 0.000000000000D+00  5 3 -3 25 23 21 2 0.42458642D-01 0.13376191D-01 0.19854627D+05 0.19854627D+05 0.19854627D+05 0.12341750D+01  1  2  4  2  5  2       -3 -.554456237126D-02 0.100000000000D+01
  </mgrwgt>
  </event>
  <event>
  4     66 0.49155423E-03 0.51131194E+02 0.75467711E-02 0.12115711E+00
        1 -1    0    0  501    0 0.00000000E+00 0.00000000E+00 0.22256216E+04 0.22256217E+04 0.32000000E+00 0.0000E+00 0.9000E+01
       -1 -1    0    0    0  501 0.00000000E+00 0.00000000E+00 -.68518971E+01 0.68593654E+01 0.32000000E+00 0.0000E+00 0.9000E+01
       25  1    1    2    0    0 0.48437861E+02 -.86967313E+01 0.94459591E+03 0.95410078E+03 0.12500000E+03 0.0000E+00 0.9000E+01
       23  1    1    2    0    0 -.48437861E+02 0.86967313E+01 0.12741738E+04 0.12783802E+04 0.91188000E+02 0.0000E+00 0.9000E+01
#aMCatNLO 1  0  0  1  2 0.41060120D+02 0.00000000D+00  -5  5  0 0.00000000D+00 0.00000000D+00 0.00000000D+00 0.00000000D+00 0.00000000D+00
  <mgrwgt>
 0.1529184404D+00    7    2    0
 0.123523651759688D+03 0.000000000000000D+00 0.000000000000000D+00 0.123523651759688D+03
 0.123523651759688D+03 0.000000000000000D+00 0.000000000000000D+00 -.123523651759688D+03
 0.138317880540709D+03 0.484378605413144D+02 -.869673128329666D+01 -.329389831118108D+02
 0.108729422978667D+03 -.484378605413144D+02 0.869673128329666D+01 0.329389831118108D+02
 0.000000000000000D+00 0.000000000000000D+00 -.000000000000000D+00 0.000000000000000D+00
 0.268020173600209D+03 0.000000000000000D+00 0.000000000000000D+00 0.268020173600209D+03
 0.128169634930104D+03 0.000000000000000D+00 0.000000000000000D+00 -.128169634930104D+03
 0.133973465591059D+03 0.341240624945944D+02 0.862909224099145D+01 -.329389831118108D+02
 0.116462761086866D+03 -.602757521607343D+02 0.230256480689235D+02 0.329389831118108D+02
 0.145753581852388D+03 0.261516896661399D+02 -.316547403099150D+02 0.139850538670105D+03
0.361429376514D-03 0.000000000000D+00 0.000000000000D+00 0.196155646051D-02 0.000000000000D+00  5 1 -1 25 23 21 0 0.34240390D+00 0.10547143D-02 0.14156078D+05 0.14156078D+05 0.14156078D+05 0.12506997D+01  1  2  2  1  5  1        1 0.150036092063D+00 0.100000000000D+01
-.200451092688D-04 0.000000000000D+00 -.138798397235D-05 0.196155646051D-02 0.000000000000D+00  5 1 -1 25 23 21 2 0.34240390D+00 0.10547143D-02 0.14156078D+05 0.14156078D+05 0.14156078D+05 0.12506997D+01  1  2  3  1  5  1        1 -.130162779750D-01 0.100000000000D+01
0.250449574877D-04 0.000000000000D+00 0.000000000000D+00 0.196155646051D-02 0.000000000000D+00  5 1 -1 25 23 21 2 0.34240390D+00 0.10547143D-02 0.14156078D+05 0.14156078D+05 0.14156078D+05 0.12506997D+01  1  2 15  1  5  1        1 0.162629259917D-01 0.100000000000D+01
0.924709142230D-03 0.000000000000D+00 0.000000000000D+00 0.196155646051D-02 0.000000000000D+00  5 1 -1 25 23 21 2 0.74166153D+00 0.10547143D-02 0.19969773D+05 0.19969773D+05 0.19969773D+05 0.12338984D+01  1  2 12  1  5  1        1 0.538679665040D-02 0.100000000000D+01
-.100040515747D-02 0.000000000000D+00 -.869051421267D-04 0.196155646051D-02 0.000000000000D+00  5 1 -1 25 23 21 2 0.74530545D+00 0.10547143D-02 0.14156078D+05 0.14156078D+05 0.14156078D+05 0.12506997D+01  1  2  5  1  5  1        1 -.575069719336D-02 0.100000000000D+01
0.773904530610D-04 0.000000000000D+00 0.000000000000D+00 0.196155646051D-02 0.000000000000D+00  5 21 -1 25 23 -1 2 0.74166153D+00 0.10547143D-02 0.19969773D+05 0.19969773D+05 0.19969773D+05 0.12338984D+01  1  2 12  3  5  1        1 0.381749482760D-04 0.100000000000D+01
-.788217150132D-04 0.000000000000D+00 -.732145381897D-05 0.196155646051D-02 0.000000000000D+00  5 21 -1 25 23 -1 2 0.74530545D+00 0.10547143D-02 0.14156078D+05 0.14156078D+05 0.14156078D+05 0.12506997D+01  1  2  5  3  5  1        1 -.385741214379D-04 0.100000000000D+01
  </mgrwgt>
  </event>
  <event>
  5     66 0.49155423E-03 0.11973165E+03 0.75467711E-02 0.11059220E+00
       21 -1    0    0  501  502 0.00000000E+00 0.00000000E+00 0.30011056E+03 0.30011149E+03 0.75000000E+00 0.0000E+00 0.9000E+01
       -3 -1    0    0    0  501 0.00000000E+00 0.00000000E+00 -.45681995E+03 0.45682022E+03 0.50000000E+00 0.0000E+00 0.9000E+01
       25  1    1    2    0    0 -.69190451E+02 -.13351136E+03 -.28969988E+03 0.34951913E+03 0.12500000E+03 0.0000E+00 0.9000E+01
       23  1    1    2    0    0 -.77915231E+02 -.13341159E+02 -.49857066E+02 0.13057468E+03 0.91188000E+02 0.0000E+00 0.9000E+01
       -3  1    1    2    0  502 0.14710568E+03 0.14685252E+03 0.18284755E+03 0.27683790E+03 0.50000000E+00 0.0000E+00 0.9000E+01
#aMCatNLO 2  0  0  1  1 0.20785992D+03 0.00000000D+00  -5  5  0 0.00000000D+00 0.00000000D+00 0.00000000D+00 0.00000000D+00 0.00000000D+00
  <mgrwgt>
 0.1571908458D-01    1    2    0
 0.134150481689657D+03 0.000000000000000D+00 0.000000000000000D+00 0.134150481689657D+03
 0.134150481689657D+03 0.000000000000000D+00 0.000000000000000D+00 -.134150481689657D+03
 0.147772774662317D+03 0.161023231893303D+02 -.483653731406546D+02 -.601107211757734D+02
 0.120528188716997D+03 -.161023231893303D+02 0.483653731406546D+02 0.601107211757734D+02
 0.000000000000000D+00 0.000000000000000D+00 0.000000000000000D+00 0.000000000000000D+00
 0.724771662531636D+03 0.000000000000000D+00 0.000000000000000D+00 0.724771662531636D+03
 0.189158613822994D+03 0.000000000000000D+00 0.000000000000000D+00 -.189158613822994D+03
 0.204574929209940D+03 -.691904511377479D+02 -.133511364056904D+03 -.601107211757734D+02
 0.134823291360789D+03 -.779152310783403D+02 -.133411586863178D+02 0.601107211757734D+02
 0.574532055783901D+03 0.147105682216088D+03 0.146852522743222D+03 0.535613048708643D+03
0.261561994456D-03 0.000000000000D+00 0.000000000000D+00 0.160076207652D-02 0.252990105190D-06  5 21 -3 25 23 -3 2 0.46170924D-01 0.70280048D-01 0.68666476D+05 0.68666476D+05 0.68666476D+05 0.11788734D+01  1  2  1  3  5  1        3 0.157190845751D-01 0.100000000000D+01
  </mgrwgt>
  </event>
  <event>
  5     66 0.49155423E-03 0.11354847E+03 0.75467711E-02 0.11968881E+00
        1 -1    0    0  501    0 0.00000000E+00 0.00000000E+00 0.13456798E+03 0.13456836E+03 0.32000000E+00 0.0000E+00 0.9000E+01
       21 -1    0    0  502  501 0.00000000E+00 0.00000000E+00 -.23546646E+03 0.23546766E+03 0.75000000E+00 0.0000E+00 0.9000E+01
       25  1    1    2    0    0 0.61468905E+02 -.94893744E+01 0.46733637E+02 0.14723283E+03 0.12500000E+03 0.0000E+00 0.9000E+01
       23  1    1    2    0    0 0.29317138E+01 0.34027573E+02 -.77221326E+02 0.12427733E+03 0.91188000E+02 0.0000E+00 0.9000E+01
        1  1    1    2  502    0 -.64400619E+02 -.24538198E+02 -.70410789E+02 0.98525857E+02 0.32000000E+00 0.0000E+00 0.9000E+01
#aMCatNLO 2  0  0  2  1 0.68917072D+02 0.00000000D+00  -5  5  0 0.00000000D+00 0.00000000D+00 0.00000000D+00 0.00000000D+00 0.00000000D+00
  <mgrwgt>
 0.3759791299D-01    2    2    0
 0.130421152420260D+03 0.000000000000000D+00 0.000000000000000D+00 0.130421152420260D+03
 0.130421152420260D+03 0.000000000000000D+00 0.000000000000000D+00 -.130421152420260D+03
 0.144432968219214D+03 0.253161799213423D+02 -.232644398828988D+02 0.636689812996690D+02
 0.116409336621305D+03 -.253161799213423D+02 0.232644398828988D+02 -.636689812996690D+02
 0.000000000000000D+00 -.000000000000000D+00 -.000000000000000D+00 -.000000000000000D+00
 0.150631808003965D+03 0.000000000000000D+00 0.000000000000000D+00 0.150631808003965D+03
 0.210356820701310D+03 0.000000000000000D+00 0.000000000000000D+00 -.210356820701310D+03
 0.153451013876821D+03 0.614689047632459D+02 -.948937444163749D+01 0.636689812996690D+02
 0.116342000941882D+03 0.293171378646434D+01 0.340275728446449D+02 -.636689812996690D+02
 0.911956138865720D+02 -.644006185497102D+02 -.245381984030074D+02 -.597250126973455D+02
-.412192099332D-05 0.000000000000D+00 0.000000000000D+00 0.159291063560D-02 0.000000000000D+00  5 1 21 25 23 1 2 0.17925097D-01 0.37087549D-01 0.23395269D+05 0.23395269D+05 0.23395269D+05 0.12263988D+01  1  2 13  4  5  2       -1 -.137846762626D-01 0.100000000000D+01
0.176297947199D-04 0.000000000000D+00 0.000000000000D+00 0.159291063560D-02 0.224198918460D-06  5 1 21 25 23 1 2 0.20702852D-01 0.36225668D-01 0.23395269D+05 0.23395269D+05 0.23395269D+05 0.12263988D+01  1  2  1  4  5  2       -1 0.513825892505D-01 0.100000000000D+01
  </mgrwgt>
  </event>
  <event>
  4     66 0.49155423E-03 0.92233653E+02 0.75467711E-02 0.11576153E+00
        1 -1    0    0  501    0 0.00000000E+00 0.00000000E+00 0.96772280E+03 0.96772285E+03 0.32000000E+00 0.0000E+00 0.9000E+01
       -1 -1    0    0    0  501 0.00000000E+00 0.00000000E+00 -.23521749E+02 0.23523925E+02 0.32000000E+00 0.0000E+00 0.9000E+01
       25  1    1    2    0    0 0.11246892E+02 -.10045282E+03 0.59832575E+03 0.61954497E+03 0.12500000E+03 0.0000E+00 0.9000E+01
       23  1    1    2    0    0 -.11246892E+02 0.10045282E+03 0.34587530E+03 0.37170181E+03 0.91188000E+02 0.0000E+00 0.9000E+01
#aMCatNLO 1  0  0  1  2 0.75653899D+02 0.00000000D+00  -5  5  0 0.00000000D+00 0.00000000D+00 0.00000000D+00 0.00000000D+00 0.00000000D+00
  <mgrwgt>
 0.1515564395D+00    7    2    0
 0.150876233116492D+03 0.000000000000000D+00 0.000000000000000D+00 0.150876233116492D+03
 0.150876233116492D+03 0.000000000000000D+00 0.000000000000000D+00 -.150876233116492D+03
 0.162988393701712D+03 0.112468922796558D+02 -.100452821598752D+03 0.268878137520195D+02
 0.138764072531273D+03 -.112468922796558D+02 0.100452821598752D+03 -.268878137520195D+02
 0.000000000000000D+00 -.000000000000000D+00 0.000000000000000D+00 0.000000000000000D+00
 0.602654266140769D+03 0.000000000000000D+00 0.000000000000000D+00 0.602654266140769D+03
 0.158746157510198D+03 0.000000000000000D+00 0.000000000000000D+00 -.158746157510198D+03
 0.184919799392322D+03 0.462562731689462D+02 -.125330502558049D+03 0.268878137520195D+02
 0.126171928685539D+03 0.154131449428016D+02 0.815081878024385D+02 -.268878137520195D+02
 0.450308695573106D+03 -.616694181117478D+02 0.438223147556110D+02 0.443908108630571D+03
0.322094734604D-03 0.000000000000D+00 0.000000000000D+00 0.167411694366D-02 0.000000000000D+00  5 1 -1 25 23 21 0 0.14888060D+00 0.36189021D-02 0.22035838D+05 0.22035838D+05 0.22035838D+05 0.12292180D+01  1  2  2  1  5  1        1 0.152433689116D+00 0.100000000000D+01
-.178884088123D-04 0.000000000000D+00 -.123692859037D-05 0.167411694366D-02 0.000000000000D+00  5 1 -1 25 23 21 2 0.14888060D+00 0.36189021D-02 0.22035838D+05 0.22035838D+05 0.22035838D+05 0.12292180D+01  1  2  3  1  5  1        1 -.127916588635D-01 0.100000000000D+01
0.222983949643D-04 0.000000000000D+00 0.000000000000D+00 0.167411694366D-02 0.000000000000D+00  5 1 -1 25 23 21 2 0.14888060D+00 0.36189021D-02 0.22035838D+05 0.22035838D+05 0.22035838D+05 0.12292180D+01  1  2 15  1  5  1        1 0.159451555798D-01 0.100000000000D+01
0.127347304750D-02 0.000000000000D+00 0.000000000000D+00 0.167411694366D-02 0.000000000000D+00  5 1 -1 25 23 21 2 0.58306959D+00 0.36189021D-02 0.36458496D+05 0.36458496D+05 0.36458496D+05 0.12061104D+01  1  2 12  1  5  1        1 0.102232144059D-01 0.100000000000D+01
-.196383364796D-02 0.000000000000D+00 -.116705339201D-03 0.167411694366D-02 0.000000000000D+00  5 1 -1 25 23 21 2 0.59757786D+00 0.36189021D-02 0.22035838D+05 0.22035838D+05 0.22035838D+05 0.12292180D+01  1  2  5  1  5  1        1 -.141296804638D-01 0.100000000000D+01
0.206891625512D-03 0.000000000000D+00 0.000000000000D+00 0.167411694366D-02 0.000000000000D+00  5 21 -1 25 23 -1 2 0.58306959D+00 0.36189021D-02 0.36458496D+05 0.36458496D+05 0.36458496D+05 0.12061104D+01  1  2 12  3  5  1        1 0.349980365059D-03 0.100000000000D+01
-.324554802732D-03 0.000000000000D+00 -.193644695730D-04 0.167411694366D-02 0.000000000000D+00  5 21 -1 25 23 -1 2 0.59757786D+00 0.36189021D-02 0.22035838D+05 0.22035838D+05 0.22035838D+05 0.12292180D+01  1  2  5  3  5  1        1 -.474260666922D-03 0.100000000000D+01
  </mgrwgt>
  </event>
  <event>
  4     66 0.49155423E-03 0.13333779E+03 0.75467711E-02 0.12081839E+00
        1 -1    0    0  501    0 0.00000000E+00 0.00000000E+00 0.16991099E+03 0.16991129E+03 0.32000000E+00 0.0000E+00 0.9000E+01
       -1 -1    0    0    0  501 0.00000000E+00 0.00000000E+00 -.12040375E+03 0.12040418E+03 0.32000000E+00 0.0000E+00 0.9000E+01
       25  1    1    2    0    0 -.53219827E+02 0.56252350E+02 0.79252099E+02 0.16704063E+03 0.12500000E+03 0.0000E+00 0.9000E+01
       23  1    1    2    0    0 0.53219827E+02 -.56252350E+02 -.29744864E+02 0.12327484E+03 0.91188000E+02 0.0000E+00 0.9000E+01
#aMCatNLO 1  0  0  1  1 0.20451420D+02 0.00000000D+00  -5  5  0 0.00000000D+00 0.00000000D+00 0.00000000D+00 0.00000000D+00 0.00000000D+00
  <mgrwgt>
 0.1342057097D+00    4    2    0
 0.143031555362894D+03 0.000000000000000D+00 0.000000000000000D+00 0.143031555362894D+03
 0.143031555362894D+03 0.000000000000000D+00 0.000000000000000D+00 -.143031555362894D+03
 0.155808016888209D+03 -.532198270061280D+02 0.562523498916222D+02 0.515214641847923D+02
 0.130255093837579D+03 0.532198270061280D+02 -.562523498916222D+02 -.515214641847923D+02
 0.000000000000000D+00 0.000000000000000D+00 0.000000000000000D+00 -.000000000000000D+00
 0.144620212399535D+03 0.000000000000000D+00 0.000000000000000D+00 0.144620212399535D+03
 0.228854209102838D+03 0.000000000000000D+00 0.000000000000000D+00 -.228854209102838D+03
 0.159889515444829D+03 -.644855135482009D+02 0.559179257471358D+02 0.515214641847923D+02
 0.126903727011099D+03 0.440430981105911D+02 -.565247629131111D+02 -.515214641847923D+02
 0.866811790464450D+02 0.204424154376098D+02 0.606837165975320D+00 -.842339967033027D+02
0.347430794659D-03 0.000000000000D+00 0.000000000000D+00 0.160612439091D-02 0.000000000000D+00  5 1 -1 25 23 21 0 0.26140208D-01 0.18523710D-01 0.17778967D+05 0.17778967D+05 0.17778967D+05 0.12394943D+01  1  2  2  1  5  1        1 0.137701223199D+00 0.100000000000D+01
-.191861265292D-04 0.000000000000D+00 -.133422573212D-05 0.160612439091D-02 0.000000000000D+00  5 1 -1 25 23 21 2 0.26140208D-01 0.18523710D-01 0.17778967D+05 0.17778967D+05 0.17778967D+05 0.12394943D+01  1  2  3  1  5  1        1 -.116827711264D-01 0.100000000000D+01
0.240373322115D-04 0.000000000000D+00 0.000000000000D+00 0.160612439091D-02 0.000000000000D+00  5 1 -1 25 23 21 2 0.26140208D-01 0.18523710D-01 0.17778967D+05 0.17778967D+05 0.17778967D+05 0.12394943D+01  1  2 15  1  5  1        1 0.146367559023D-01 0.100000000000D+01
-.105917412860D-04 0.000000000000D+00 0.000000000000D+00 0.160612439091D-02 0.000000000000D+00  5 1 -1 25 23 21 2 0.26140208D-01 0.18523710D-01 0.17778967D+05 0.17778967D+05 0.17778967D+05 0.12394943D+01  1  2  4  1  5  1        1 -.644949823961D-02 0.100000000000D+01
  </mgrwgt>
  </event>
  <event>
  4     66 0.49155423E-03 0.12278282E+03 0.75467711E-02 0.11424743E+00
        1 -1    0    0  501    0 0.00000000E+00 0.00000000E+00 0.81274152E+02 0.81274782E+02 0.32000000E+00 0.0000E+00 0.9000E+01
       -1 -1    0    0    0  501 0.00000000E+00 0.00000000E+00 -.20551658E+03 0.20551683E+03 0.32000000E+00 0.0000E+00 0.9000E+01
       25  1    1    2    0    0 0.42082817E+00 -.57678740E+02 -.11338301E+03 0.17834719E+03 0.12500000E+03 0.0000E+00 0.9000E+01
       23  1    1    2    0    0 -.42082817E+00 0.57678740E+02 -.10859423E+02 0.10844442E+03 0.91188000E+02 0.0000E+00 0.9000E+01
#aMCatNLO 1  0  0  2  1 0.13665472D+03 0.00000000D+00  -5  5  0 0.00000000D+00 0.00000000D+00 0.00000000D+00 0.00000000D+00 0.00000000D+00
  <mgrwgt>
 0.1452284000D+00    3    2    0
 0.129241292907313D+03 0.000000000000000D+00 0.000000000000000D+00 0.129241292907313D+03
 0.129241292907313D+03 0.000000000000000D+00 0.000000000000000D+00 -.129241292907313D+03
 0.143381024280247D+03 0.420828171509243D+00 -.576787401053366D+02 -.400762269576836D+02
 0.115101561534380D+03 -.420828171509243D+00 0.576787401053366D+02 0.400762269576836D+02
 0.000000000000000D+00 0.000000000000000D+00 -.000000000000000D+00 0.000000000000000D+00
 0.266119188016451D+03 0.000000000000000D+00 0.000000000000000D+00 0.266119188016451D+03
 0.185120127274867D+03 0.000000000000000D+00 0.000000000000000D+00 -.185120127274867D+03
 0.131698754535948D+03 -.159737837398633D+01 0.105312089280585D+02 -.400762269576836D+02
 0.160684145237116D+03 -.244421397236909D+01 0.126063734029561D+03 0.400762269576836D+02
 0.158856415518255D+03 0.404159234635542D+01 -.136594942957620D+03 0.809990607415839D+02
0.337169937179D-03 0.000000000000D+00 0.000000000000D+00 0.182676905735D-02 0.000000000000D+00  5 1 -1 25 23 21 0 0.12503783D-01 0.31618003D-01 0.15075621D+05 0.15075621D+05 0.15075621D+05 0.12475736D+01  1  2  2  2  5  2       -1 0.142193520370D+00 0.100000000000D+01
-.186718105549D-04 0.000000000000D+00 -.129482133765D-05 0.182676905735D-02 0.000000000000D+00  5 1 -1 25 23 21 2 0.12503783D-01 0.31618003D-01 0.15075621D+05 0.15075621D+05 0.15075621D+05 0.12475736D+01  1  2  3  2  5  2       -1 -.122560287474D-01 0.100000000000D+01
0.232953880167D-04 0.000000000000D+00 0.000000000000D+00 0.182676905735D-02 0.000000000000D+00  5 1 -1 25 23 21 2 0.12503783D-01 0.31618003D-01 0.15075621D+05 0.15075621D+05 0.15075621D+05 0.12475736D+01  1  2 15  2  5  2       -1 0.152909084192D-01 0.100000000000D+01
  </mgrwgt>
  </event>
  <event>
  4     66 0.49155423E-03 0.15901972E+03 0.75467711E-02 0.11168376E+00
        1 -1    0    0  501    0 0.00000000E+00 0.00000000E+00 0.95388497E+03 0.95388502E+03 0.32000000E+00 0.0000E+00 0.9000E+01
       -1 -1    0    0    0  501 0.00000000E+00 0.00000000E+00 -.27192631E+02 0.27194514E+02 0.32000000E+00 0.0000E+00 0.9000E+01
       25  1    1    2    0    0 0.37065520E+02 0.10988793E+03 0.41839720E+03 0.45180795E+03 0.12500000E+03 0.0000E+00 0.9000E+01
       23  1    1    2    0    0 -.37065520E+02 -.10988793E+03 0.50829514E+03 0.52927158E+03 0.91188000E+02 0.0000E+00 0.9000E+01
#aMCatNLO 1  0  0  2  1 0.14109127D+03 0.00000000D+00  -5  5  0 0.00000000D+00 0.00000000D+00 0.00000000D+00 0.00000000D+00 0.00000000D+00
  <mgrwgt>
 0.1942881901D+00    3    2    0
 0.161057727772207D+03 0.000000000000000D+00 0.000000000000000D+00 0.161057727772207D+03
 0.161057727772207D+03 0.000000000000000D+00 0.000000000000000D+00 -.161057727772207D+03
 0.172404200799473D+03 0.370655197627284D+02 0.109887928852870D+03 -.254754546662141D+02
 0.149711254744942D+03 -.370655197627284D+02 -.109887928852870D+03 0.254754546662141D+02
 0.000000000000000D+00 0.000000000000000D+00 -.000000000000000D+00 0.000000000000000D+00
 0.334105578568431D+03 0.000000000000000D+00 0.000000000000000D+00 0.334105578568431D+03
 0.207273477934836D+03 0.000000000000000D+00 0.000000000000000D+00 -.207273477934836D+03
 0.198076349936549D+03 -.302351175569449D+02 0.148479221711502D+03 -.254754546662141D+02
 0.153584157794531D+03 -.921614607493414D+02 -.782950096976335D+02 0.254754546662141D+02
 0.189718548772188D+03 0.122396578306286D+03 -.701842120138687D+02 0.126832100633595D+03
0.485339370984D-03 0.000000000000D+00 0.000000000000D+00 0.160623119646D-02 0.000000000000D+00  5 1 -1 25 23 21 0 0.14675168D+00 0.41836306D-02 0.25287272D+05 0.25287272D+05 0.25287272D+05 0.12227660D+01  1  2  2  2  5  2       -1 0.190483776982D+00 0.100000000000D+01
-.269579818715D-04 0.000000000000D+00 -.186383097737D-05 0.160623119646D-02 0.000000000000D+00  5 1 -1 25 23 21 2 0.14675168D+00 0.41836306D-02 0.25287272D+05 0.25287272D+05 0.25287272D+05 0.12227660D+01  1  2  3  2  5  2       -1 -.158192747035D-01 0.100000000000D+01
0.334411678615D-04 0.000000000000D+00 0.000000000000D+00 0.160623119646D-02 0.000000000000D+00  5 1 -1 25 23 21 2 0.14675168D+00 0.41836306D-02 0.25287272D+05 0.25287272D+05 0.25287272D+05 0.12227660D+01  1  2 15  2  5  2       -1 0.196236878313D-01 0.100000000000D+01
  </mgrwgt>
  </event>
  <event>
  4     66 0.49155423E-03 0.16257058E+03 0.75467711E-02 0.11031872E+00
        3 -1    0    0  501    0 0.00000000E+00 0.00000000E+00 0.11592996E+03 0.11593104E+03 0.50000000E+00 0.0000E+00 0.9000E+01
       -3 -1    0    0    0  501 0.00000000E+00 0.00000000E+00 -.32742835E+03 0.32742873E+03 0.50000000E+00 0.0000E+00 0.9000E+01
       25  1    1    2    0    0 0.66466658E+02 0.10083457E+03 -.23281128E+03 0.29053661E+03 0.12500000E+03 0.0000E+00 0.9000E+01
       23  1    1    2    0    0 -.66466658E+02 -.10083457E+03 0.21312892E+02 0.15282316E+03 0.91188000E+02 0.0000E+00 0.9000E+01
#aMCatNLO 1  0  0  1  1 0.16986835D+03 0.00000000D+00  -5  5  0 0.00000000D+00 0.00000000D+00 0.00000000D+00 0.00000000D+00 0.00000000D+00
  <mgrwgt>
 0.2517678175D-01    3    2    0
 0.194830896150019D+03 0.000000000000000D+00 0.000000000000000D+00 0.194830896150019D+03
 0.194830896150019D+03 0.000000000000000D+00 0.000000000000000D+00 -.194830896150019D+03
 0.204210502773565D+03 0.664666576780138D+02 0.100834569115343D+03 -.107198425974773D+03
 0.185451289526474D+03 -.664666576780138D+02 -.100834569115343D+03 0.107198425974773D+03
 0.000000000000000D+00 0.000000000000000D+00 0.000000000000000D+00 -.000000000000000D+00
 0.278607134088604D+03 0.000000000000000D+00 0.000000000000000D+00 0.278607134088604D+03
 0.321726903106558D+03 0.000000000000000D+00 0.000000000000000D+00 -.321726903106558D+03
 0.170636999873432D+03 0.147784981217860D+02 0.422146797642841D+02 -.107198425974773D+03
 0.254441308611216D+03 -.127123961353735D+03 -.169626425129027D+03 0.107198425974773D+03
 0.175255728710513D+03 0.112345463231949D+03 0.127411745364743D+03 -.431197690179543D+02
0.954366305920D-03 0.000000000000D+00 0.000000000000D+00 0.107875402641D-02 0.000000000000D+00  5 3 -3 25 23 21 0 0.17835490D-01 0.50373704D-01 0.26429195D+05 0.26429195D+05 0.26429195D+05 0.12207175D+01  1  2  2  1  5  1        3 0.246102312923D-01 0.100000000000D+01
-.509079520417D-04 0.000000000000D+00 -.366501790515D-05 0.107875402641D-02 0.000000000000D+00  5 3 -3 25 23 21 2 0.17835490D-01 0.50373704D-01 0.26429195D+05 0.26429195D+05 0.26429195D+05 0.12207175D+01  1  2  3  1  5  1        3 -.195621506929D-02 0.100000000000D+01
0.656516905642D-04 0.000000000000D+00 0.000000000000D+00 0.107875402641D-02 0.000000000000D+00  5 3 -3 25 23 21 2 0.17835490D-01 0.50373704D-01 0.26429195D+05 0.26429195D+05 0.26429195D+05 0.12207175D+01  1  2 15  1  5  1        3 0.252276552592D-02 0.100000000000D+01
  </mgrwgt>
  </event>
  <event>
  4     66 0.49155423E-03 0.12925971E+03 0.75467711E-02 0.11479863E+00
        3 -1    0    0  501    0 0.00000000E+00 0.00000000E+00 0.10344372E+04 0.10344373E+04 0.50000000E+00 0.0000E+00 0.9000E+01
       -3 -1    0    0    0  501 0.00000000E+00 0.00000000E+00 -.19963121E+02 0.19969382E+02 0.50000000E+00 0.0000E+00 0.9000E+01
       25  1    1    2    0    0 -.53333182E+00 0.70267615E+02 0.78143420E+03 0.79448237E+03 0.12500000E+03 0.0000E+00 0.9000E+01
       23  1    1    2    0    0 0.53333182E+00 -.70267615E+02 0.23303984E+03 0.25992430E+03 0.91188000E+02 0.0000E+00 0.9000E+01
#aMCatNLO 1  0  0  2  1 0.11939589D+03 0.00000000D+00  -5  5  0 0.00000000D+00 0.00000000D+00 0.00000000D+00 0.00000000D+00 0.00000000D+00
  <mgrwgt>
 0.1176810735D-01    3    2    0
 0.143714853149873D+03 0.000000000000000D+00 0.000000000000000D+00 0.143714853149873D+03
 0.143714853149873D+03 0.000000000000000D+00 0.000000000000000D+00 -.143714853149873D+03
 0.156430568498337D+03 -.533331817280674D+00 0.702676152981273D+02 0.625116033884903D+02
 0.130999137801410D+03 0.533331817280674D+00 -.702676152981273D+02 -.625116033884903D+02
 0.000000000000000D+00 0.000000000000000D+00 0.000000000000000D+00 0.000000000000000D+00
 0.544485497577721D+03 0.000000000000000D+00 0.000000000000000D+00 0.544485497577721D+03
 0.164785444356368D+03 0.000000000000000D+00 0.000000000000000D+00 -.164785444356368D+03
 0.142362288955610D+03 -.226197152468355D+02 0.149221057707245D+02 0.625116033884903D+02
 0.168879120085760D+03 -.216332830152168D+02 -.125814173942065D+03 -.625116033884903D+02
 0.398029532892720D+03 0.442529982620523D+02 0.110892068171341D+03 0.379700053221353D+03
0.341537728326D-03 0.000000000000D+00 0.000000000000D+00 0.151319251482D-02 0.000000000000D+00  5 3 -3 25 23 21 0 0.15914467D+00 0.30717403D-02 0.16708073D+05 0.16708073D+05 0.16708073D+05 0.12425184D+01  1  2  2  2  5  2       -3 0.115130324086D-01 0.100000000000D+01
-.187150669505D-04 0.000000000000D+00 -.131159480572D-05 0.151319251482D-02 0.000000000000D+00  5 3 -3 25 23 21 2 0.15914467D+00 0.30717403D-02 0.16708073D+05 0.16708073D+05 0.16708073D+05 0.12425184D+01  1  2  3  2  5  2       -3 -.973975577691D-03 0.100000000000D+01
0.236163649772D-04 0.000000000000D+00 0.000000000000D+00 0.151319251482D-02 0.000000000000D+00  5 3 -3 25 23 21 2 0.15914467D+00 0.30717403D-02 0.16708073D+05 0.16708073D+05 0.16708073D+05 0.12425184D+01  1  2 15  2  5  2       -3 0.122905051756D-02 0.100000000000D+01
  </mgrwgt>
  </event>
  <event>
  4     66 0.49155423E-03 0.11331453E+03 0.75467711E-02 0.11269658E+00
        1 -1    0    0  501    0 0.00000000E+00 0.00000000E+00 0.14790502E+03 0.14790537E+03 0.32000000E+00 0.0000E+00 0.9000E+01
       -1 -1    0    0    0  501 0.00000000E+00 0.00000000E+00 -.89790508E+02 0.89791079E+02 0.32000000E+00 0.0000E+00 0.9000E+01
       25  1    1    2    0    0 -.11490028E+02 -.31593031E+02 0.54485009E+02 0.14044129E+03 0.12500000E+03 0.0000E+00 0.9000E+01
       23  1    1    2    0    0 0.11490028E+02 0.31593031E+02 0.36295044E+01 0.97255154E+02 0.91188000E+02 0.0000E+00 0.9000E+01
#aMCatNLO 1  0  0  2  1 0.17359353D+03 0.00000000D+00  -5  5  0 0.00000000D+00 0.00000000D+00 0.00000000D+00 0.00000000D+00 0.00000000D+00
  <mgrwgt>
 0.1256438558D+00    5    2    0
 0.115241381458126D+03 0.000000000000000D+00 0.000000000000000D+00 0.115241381458126D+03
 0.115241381458126D+03 0.000000000000000D+00 0.000000000000000D+00 -.115241381458126D+03
 0.131098855057261D+03 -.114900276400908D+02 -.315930314344007D+02 0.207790622247386D+02
 0.993839078589922D+02 0.114900276400908D+02 0.315930314344007D+02 -.207790622247386D+02
 0.000000000000000D+00 0.000000000000000D+00 -.000000000000000D+00 -.000000000000000D+00
 0.221058450696900D+03 0.000000000000000D+00 0.000000000000000D+00 0.221058450696900D+03
 0.242382845379863D+03 0.000000000000000D+00 0.000000000000000D+00 -.242382845379863D+03
 0.163035374288462D+03 -.102411371339964D+03 0.597284377054254D+01 0.207790622247386D+02
 0.125507545134417D+03 -.580273255025930D+02 0.603154425478614D+02 -.207790622247386D+02
 0.174898376653883D+03 0.160438696842558D+03 -.662882863184039D+02 -.213243946829633D+02
0.145754561072D-03 0.000000000000D+00 0.000000000000D+00 0.220310370083D-02 0.000000000000D+00  5 1 -1 25 23 21 0 0.22754689D-01 0.13813995D-01 0.12840182D+05 0.12840182D+05 0.12840182D+05 0.12555942D+01  1  2  2  2  5  2       -1 0.107809383791D+00 0.100000000000D+01
-.809467647444D-05 0.000000000000D+00 -.559735892572D-06 0.220310370083D-02 0.000000000000D+00  5 1 -1 25 23 21 2 0.22754689D-01 0.13813995D-01 0.12840182D+05 0.12840182D+05 0.12840182D+05 0.12555942D+01  1  2  3  2  5  2       -1 -.943914116208D-02 0.100000000000D+01
0.100812934625D-04 0.000000000000D+00 0.000000000000D+00 0.220310370083D-02 0.000000000000D+00  5 1 -1 25 23 21 2 0.22754689D-01 0.13813995D-01 0.12840182D+05 0.12840182D+05 0.12840182D+05 0.12555942D+01  1  2 15  2  5  2       -1 0.117557202427D-01 0.100000000000D+01
0.452377458730D-04 0.000000000000D+00 -.492219578638D-04 0.220310370083D-02 0.000000000000D+00  5 1 -1 25 23 21 2 0.22754689D-01 0.53558993D-01 0.12840182D+05 0.12840182D+05 0.12840182D+05 0.12555942D+01  1  2  5  2  5  2       -1 0.551690263984D-02 0.100000000000D+01
0.810859687914D-05 0.000000000000D+00 -.792681786678D-05 0.220310370083D-02 0.000000000000D+00  5 1 21 25 23 1 2 0.22754689D-01 0.53558993D-01 0.12840182D+05 0.12840182D+05 0.12840182D+05 0.12555942D+01  1  2  5  4  5  2       -1 0.100009903189D-01 0.100000000000D+01
  </mgrwgt>
  </event>
  <event>
  4     66 0.49155423E-03 0.12128005E+03 0.75467711E-02 0.12398525E+00
        3 -1    0    0  501    0 0.00000000E+00 0.00000000E+00 0.51547250E+02 0.51549675E+02 0.50000000E+00 0.0000E+00 0.9000E+01
       -3 -1    0    0    0  501 0.00000000E+00 0.00000000E+00 -.29034394E+03 0.29034437E+03 0.50000000E+00 0.0000E+00 0.9000E+01
       25  1    1    2    0    0 0.34872132E+02 0.41829428E+02 -.15625305E+03 0.20737836E+03 0.12500000E+03 0.0000E+00 0.9000E+01
       23  1    1    2    0    0 -.34872132E+02 -.41829428E+02 -.82543636E+02 0.13451569E+03 0.91188000E+02 0.0000E+00 0.9000E+01
#aMCatNLO 1  0  0  1  1 0.14113812D+01 0.00000000D+00  -5  5  0 0.00000000D+00 0.00000000D+00 0.00000000D+00 0.00000000D+00 0.00000000D+00
  <mgrwgt>
 0.4561371035D-01    6    2    0
 0.122339362437735D+03 0.000000000000000D+00 0.000000000000000D+00 0.122339362437735D+03
 0.122339362437735D+03 0.000000000000000D+00 0.000000000000000D+00 -.122339362437735D+03
 0.137276804709678D+03 0.348721316180051D+02 0.418294282224239D+02 -.159422232546352D+02
 0.107401920165791D+03 -.348721316180051D+02 -.418294282224239D+02 0.159422232546352D+02
 0.000000000000000D+00 0.000000000000000D+00 0.000000000000000D+00 -.000000000000000D+00
 0.122799743876353D+03 0.000000000000000D+00 0.000000000000000D+00 0.122799743876353D+03
 0.123427911189443D+03 0.000000000000000D+00 0.000000000000000D+00 -.123427911189443D+03
 0.137041432888307D+03 0.340914581259804D+02 0.417009871420836D+02 -.159422232546352D+02
 0.107641362591174D+03 -.354841164133156D+02 -.419301156276765D+02 0.159422232546352D+02
 0.154485958631467D+01 0.139265828733512D+01 0.229128485592818D+00 -.628167313090302D+00
0.244946237116D-03 0.000000000000D+00 0.000000000000D+00 0.206948513775D-02 0.000000000000D+00  5 3 -3 25 23 21 0 0.79305658D-02 0.44668518D-01 0.14708850D+05 0.14708850D+05 0.14708850D+05 0.12487941D+01  1  2  2  1  5  1        3 0.299556246246D-01 0.100000000000D+01
-.136068729587D-04 0.000000000000D+00 -.940658046351D-06 0.206948513775D-02 0.000000000000D+00  5 3 -3 25 23 21 2 0.79305658D-02 0.44668518D-01 0.14708850D+05 0.14708850D+05 0.14708850D+05 0.12487941D+01  1  2  3  1  5  1        3 -.259506142181D-02 0.100000000000D+01
0.169193206364D-04 0.000000000000D+00 0.000000000000D+00 0.206948513775D-02 0.000000000000D+00  5 3 -3 25 23 21 2 0.79305658D-02 0.44668518D-01 0.14708850D+05 0.14708850D+05 0.14708850D+05 0.12487941D+01  1  2 15  1  5  1        3 0.322680136722D-02 0.100000000000D+01
-.150885202710D-02 0.000000000000D+00 0.000000000000D+00 0.206948513775D-02 0.000000000000D+00  5 3 -3 25 23 21 2 0.79305658D-02 0.44668518D-01 0.14708850D+05 0.14708850D+05 0.14708850D+05 0.12487941D+01  1  2  4  1  5  1        3 -.287763669039D+00 0.100000000000D+01
0.150891134756D-02 0.000000000000D+00 0.000000000000D+00 0.206948513775D-02 0.863317297858D-02  5 3 -3 25 23 21 2 0.79604097D-02 0.45065968D-01 0.14881148D+05 0.14881148D+05 0.14881148D+05 0.12482166D+01  1  2 11  1  5  1        3 0.281131313235D+00 0.100000000000D+01
0.490443733752D-05 0.000000000000D+00 0.000000000000D+00 0.206948513775D-02 0.607118999094D-05  5 21 -3 25 23 -3 2 0.79604097D-02 0.45065968D-01 0.14881148D+05 0.14881148D+05 0.14881148D+05 0.12482166D+01  1  2 11  3  5  1        3 0.216587015805D-01 0.100000000000D+01
  </mgrwgt>
  </event>
  <event>
  5     66 0.49155423E-03 0.11412082E+03 0.75467711E-02 0.12019677E+00
        1 -1    0    0  501    0 0.00000000E+00 0.00000000E+00 0.16285295E+03 0.16285327E+03 0.32000000E+00 0.0000E+00 0.9000E+01
       -1 -1    0    0    0  502 0.00000000E+00 0.00000000E+00 -.15432808E+03 0.15432841E+03 0.32000000E+00 0.0000E+00 0.9000E+01
       25  1    1    2    0    0 -.53138906E+02 -.52281922E+00 0.54834223E+02 0.14647801E+03 0.12500000E+03 0.0000E+00 0.9000E+01
       23  1    1    2    0    0 0.75803273E+01 0.41503223E+02 -.14060979E+02 0.10145413E+03 0.91188000E+02 0.0000E+00 0.9000E+01
       21  1    1    2  501  502 0.45558579E+02 -.40980404E+02 -.32248371E+02 0.69249531E+02 0.75000000E+00 0.0000E+00 0.9000E+01
#aMCatNLO 2  0  0  2  1 0.61277872D+02 0.00000000D+00  -5  5  0 0.00000000D+00 0.00000000D+00 0.00000000D+00 0.00000000D+00 0.00000000D+00
  <mgrwgt>
 0.1983819777D-01    2    2    0
 0.118377484521395D+03 0.000000000000000D+00 0.000000000000000D+00 0.118377484521395D+03
 0.118377484521395D+03 0.000000000000000D+00 0.000000000000000D+00 -.118377484521395D+03
 0.133814855668352D+03 -.272817333231521D+02 -.237816083711978D+02 0.311698207839780D+02
 0.102940113374437D+03 0.272817333231521D+02 0.237816083711978D+02 -.311698207839780D+02
 0.000000000000000D+00 0.000000000000000D+00 -.000000000000000D+00 -.000000000000000D+00
 0.137947985445314D+03 0.000000000000000D+00 0.000000000000000D+00 0.137947985445314D+03
 0.182186425640713D+03 0.000000000000000D+00 0.000000000000000D+00 -.182186425640713D+03
 0.139357720920006D+03 -.531389058259675D+02 -.522819215276481D+00 0.311698207839780D+02
 0.105198802081907D+03 0.758032731557352D+01 0.415032230742585D+02 -.311698207839780D+02
 0.755778880841144D+02 0.455585785103940D+02 -.409804038589820D+02 -.442384401953994D+02
-.554230183185D-04 0.000000000000D+00 0.000000000000D+00 0.206871387640D-02 0.000000000000D+00  5 1 -1 25 23 21 2 0.21499650D-01 0.24461680D-01 0.22138472D+05 0.22138472D+05 0.22138472D+05 0.12289984D+01  1  2 13  2  5  2       -1 -.272265929006D-01 0.100000000000D+01
0.110688339159D-03 0.000000000000D+00 0.000000000000D+00 0.206871387640D-02 0.493122304403D-05  5 1 -1 25 23 21 2 0.25054033D-01 0.23742531D-01 0.22138472D+05 0.22138472D+05 0.22138472D+05 0.12289984D+01  1  2  1  2  5  2       -1 0.470647906690D-01 0.100000000000D+01
  </mgrwgt>
  </event>
  <event>
  4     66 0.49155423E-03 0.11392508E+03 0.75467711E-02 0.10494588E+00
        1 -1    0    0  501    0 0.00000000E+00 0.00000000E+00 0.11780271E+03 0.11780314E+03 0.32000000E+00 0.0000E+00 0.9000E+01
       -1 -1    0    0    0  501 0.00000000E+00 0.00000000E+00 -.19796205E+03 0.19796230E+03 0.32000000E+00 0.0000E+00 0.9000E+01
       25  1    1    2    0    0 -.27304709E+01 0.35477415E+02 -.14777680E+03 0.19679707E+03 0.12500000E+03 0.0000E+00 0.9000E+01
       23  1    1    2    0    0 0.27304709E+01 -.35477415E+02 0.67617465E+02 0.11896838E+03 0.91188000E+02 0.0000E+00 0.9000E+01
#aMCatNLO 1  0  0  1  1 0.35016987D+03 0.00000000D+00  -5  5  0 0.00000000D+00 0.00000000D+00 0.00000000D+00 0.00000000D+00 0.00000000D+00
  <mgrwgt>
 0.1258576053D+00    5    2    0
 0.152710754622840D+03 0.000000000000000D+00 0.000000000000000D+00 0.152710754622840D+03
 0.152710754622840D+03 0.000000000000000D+00 0.000000000000000D+00 -.152710754622840D+03
 0.164677411251009D+03 -.273047089127911D+01 0.354774154624279D+02 -.101131336870190D+03
 0.140744097994672D+03 0.273047089127911D+01 -.354774154624279D+02 0.101131336870190D+03
 0.000000000000000D+00 0.000000000000000D+00 0.000000000000000D+00 0.000000000000000D+00
 0.743643736749836D+03 0.000000000000000D+00 0.000000000000000D+00 0.743643736749836D+03
 0.292278270691098D+03 0.000000000000000D+00 0.000000000000000D+00 -.292278270691098D+03
 0.212284163044200D+03 -.498579465287220D+02 -.129329825447046D+03 -.101131336870190D+03
 0.252367573739581D+03 -.464160787725388D+02 -.207345463575726D+03 0.101131336870190D+03
 0.571270270657153D+03 0.962740253012608D+02 0.336675289022772D+03 0.451365466058738D+03
0.382692892483D-03 0.000000000000D+00 0.000000000000D+00 0.108409836957D-02 0.000000000000D+00  5 1 -1 25 23 21 0 0.18123547D-01 0.30455753D-01 0.12978924D+05 0.12978924D+05 0.12978924D+05 0.12550521D+01  1  2  2  1  5  1        1 0.106077167490D+00 0.100000000000D+01
-.190414561090D-04 0.000000000000D+00 -.146964147249D-05 0.108409836957D-02 0.000000000000D+00  5 1 -1 25 23 21 2 0.18123547D-01 0.30455753D-01 0.12978924D+05 0.12978924D+05 0.12978924D+05 0.12550521D+01  1  2  3  1  5  1        1 -.831371594510D-02 0.100000000000D+01
0.261984316068D-04 0.000000000000D+00 0.000000000000D+00 0.108409836957D-02 0.000000000000D+00  5 1 -1 25 23 21 2 0.18123547D-01 0.30455753D-01 0.12978924D+05 0.12978924D+05 0.12978924D+05 0.12550521D+01  1  2 15  1  5  1        1 0.114385327120D-01 0.100000000000D+01
0.452217611182D-03 0.000000000000D+00 -.266027828072D-03 0.108409836957D-02 0.000000000000D+00  5 1 -1 25 23 21 2 0.14793446D+00 0.30455753D-01 0.12978924D+05 0.12978924D+05 0.12978924D+05 0.12550521D+01  1  2  5  1  5  1        1 0.127602838141D-01 0.100000000000D+01
0.822693055620D-04 0.000000000000D+00 -.677014604240D-04 0.108409836957D-02 0.000000000000D+00  5 21 -1 25 23 -1 2 0.14793446D+00 0.30455753D-01 0.12978924D+05 0.12978924D+05 0.12978924D+05 0.12550521D+01  1  2  5  3  5  1        1 0.389533720525D-02 0.100000000000D+01
  </mgrwgt>
  </event>
  <event>
  4     66 0.49155423E-03 0.12668562E+03 0.75467711E-02 0.12138013E+00
        1 -1    0    0  501    0 0.00000000E+00 0.00000000E+00 0.18881198E+04 0.18881198E+04 0.32000000E+00 0.0000E+00 0.9000E+01
       -1 -1    0    0    0  501 0.00000000E+00 0.00000000E+00 -.86841911E+01 0.86900849E+01 0.32000000E+00 0.0000E+00 0.9000E+01
       25  1    1    2    0    0 -.14866483E+01 0.65459843E+02 0.90613592E+03 0.91705753E+03 0.12500000E+03 0.0000E+00 0.9000E+01
       23  1    1    2    0    0 0.14866483E+01 -.65459843E+02 0.97329966E+03 0.97975236E+03 0.91188000E+02 0.0000E+00 0.9000E+01
#aMCatNLO 1  0  0  2  1 0.24753375D+02 0.00000000D+00  -5  5  0 0.00000000D+00 0.00000000D+00 0.00000000D+00 0.00000000D+00 0.00000000D+00
  <mgrwgt>
 0.1718979060D+00    4    2    0
 0.128071887430446D+03 0.000000000000000D+00 0.000000000000000D+00 0.128071887430446D+03
 0.128071887430446D+03 0.000000000000000D+00 0.000000000000000D+00 -.128071887430446D+03
 0.142340726600888D+03 -.148664827282886D+01 0.654598426884308D+02 -.186730105068142D+02
 0.113803048260004D+03 0.148664827282886D+01 -.654598426884308D+02 0.186730105068142D+02
 0.000000000000000D+00 0.000000000000000D+00 -.000000000000000D+00 0.000000000000000D+00
 0.180490687752250D+03 0.000000000000000D+00 0.000000000000000D+00 0.180490687752250D+03
 0.131624455177476D+03 0.000000000000000D+00 0.000000000000000D+00 -.131624455177476D+03
 0.148347065181055D+03 -.925968749037788D+01 0.771195734818673D+02 -.186730105068142D+02
 0.108989995834512D+03 -.447087425857102D+01 -.565234270898668D+02 0.186730105068142D+02
 0.547780819141586D+02 0.137305617489489D+02 -.205961463920006D+02 0.488662325747734D+02
0.373098155386D-03 0.000000000000D+00 0.000000000000D+00 0.195998979960D-02 0.000000000000D+00  5 1 -1 25 23 21 0 0.29048042D+00 0.13364849D-02 0.16049247D+05 0.16049247D+05 0.16049247D+05 0.12444889D+01  1  2  2  2  5  2       -1 0.181219817870D+00 0.100000000000D+01
-.207246903331D-04 0.000000000000D+00 -.143279515568D-05 0.195998979960D-02 0.000000000000D+00  5 1 -1 25 23 21 2 0.29048042D+00 0.13364849D-02 0.16049247D+05 0.16049247D+05 0.16049247D+05 0.12444889D+01  1  2  3  2  5  2       -1 -.155902363198D-01 0.100000000000D+01
0.258443793683D-04 0.000000000000D+00 0.000000000000D+00 0.195998979960D-02 0.000000000000D+00  5 1 -1 25 23 21 2 0.29048042D+00 0.13364849D-02 0.16049247D+05 0.16049247D+05 0.16049247D+05 0.12444889D+01  1  2 15  2  5  2       -1 0.194415441395D-01 0.100000000000D+01
-.175116587703D-04 0.000000000000D+00 0.000000000000D+00 0.195998979960D-02 0.000000000000D+00  5 1 -1 25 23 21 2 0.29048042D+00 0.13364849D-02 0.16049247D+05 0.16049247D+05 0.16049247D+05 0.12444889D+01  1  2  4  2  5  2       -1 -.131732196811D-01 0.100000000000D+01
  </mgrwgt>
  </event>
  <event>
  4     66 0.49155423E-03 0.82135216E+02 0.75467711E-02 0.12400174E+00
        1 -1    0    0  501    0 0.00000000E+00 0.00000000E+00 0.10517890E+02 0.10522756E+02 0.32000000E+00 0.0000E+00 0.9000E+01
       -1 -1    0    0    0  501 0.00000000E+00 0.00000000E+00 -.11736566E+04 0.11736566E+04 0.32000000E+00 0.0000E+00 0.9000E+01
       25  1    1    2    0    0 0.14561283E+02 -.20693996E+02 -.65318216E+03 0.66551650E+03 0.12500000E+03 0.0000E+00 0.9000E+01
       23  1    1    2    0    0 -.14561283E+02 0.20693996E+02 -.50995651E+03 0.51866287E+03 0.91188000E+02 0.0000E+00 0.9000E+01
#aMCatNLO 1  0  0  2  1 0.20645811D+02 0.00000000D+00  -5  5  0 0.00000000D+00 0.00000000D+00 0.00000000D+00 0.00000000D+00 0.00000000D+00
  <mgrwgt>
 0.1252182359D+00    9    2    0
 0.111118393818804D+03 0.000000000000000D+00 0.000000000000000D+00 0.111118393818804D+03
 0.111118393818804D+03 0.000000000000000D+00 0.000000000000000D+00 -.111118393818804D+03
 0.127564250361510D+03 0.145612825869345D+02 -.206939960979123D+02 0.271395379788381D+01
 0.946725372760972D+02 -.145612825869345D+02 0.206939960979123D+02 -.271395379788381D+01
 0.000000000000000D+00 0.000000000000000D+00 -.000000000000000D+00 -.000000000000000D+00
 0.115284525155405D+03 0.000000000000000D+00 0.000000000000000D+00 0.115284525155405D+03
 0.140493864567614D+03 0.000000000000000D+00 0.000000000000000D+00 -.140493864567614D+03
 0.126040017704102D+03 0.131233319708730D+02 -.902766169147156D+01 0.271395379788381D+01
 0.971537082373746D+02 -.156489483033550D+02 0.295184103917332D+02 -.271395379788381D+01
 0.325846637815416D+02 0.252561633248202D+01 -.204907487002616D+02 -.252093394122086D+02
0.426820758208D-03 0.000000000000D+00 0.000000000000D+00 0.237028792466D-02 0.000000000000D+00  5 1 -1 25 23 21 0 0.16185146D-02 0.18056293D+00 0.12339767D+05 0.12339767D+05 0.12339767D+05 0.12576055D+01  1  2  2  2  5  2       -1 0.759484508995D-01 0.100000000000D+01
-.237122616622D-04 0.000000000000D+00 -.163910409601D-05 0.237028792466D-02 0.000000000000D+00  5 1 -1 25 23 21 2 0.16185146D-02 0.18056293D+00 0.12339767D+05 0.12339767D+05 0.12339767D+05 0.12576055D+01  1  2  3  2  5  2       -1 -.667321625581D-02 0.100000000000D+01
0.295103062034D-04 0.000000000000D+00 0.000000000000D+00 0.237028792466D-02 0.000000000000D+00  5 1 -1 25 23 21 2 0.16185146D-02 0.18056293D+00 0.12339767D+05 0.12339767D+05 0.12339767D+05 0.12576055D+01  1  2 15  2  5  2       -1 0.830492923348D-02 0.100000000000D+01
0.774257729467D-03 0.000000000000D+00 0.000000000000D+00 0.237028792466D-02 0.000000000000D+00  5 1 -1 25 23 21 2 0.16185146D-02 0.23104518D+00 0.14856246D+05 0.14856246D+05 0.14856246D+05 0.12482996D+01  1  2 12  2  5  2       -1 0.101174882388D+00 0.100000000000D+01
-.785291489625D-03 0.000000000000D+00 0.000000000000D+00 0.237028792466D-02 0.000000000000D+00  5 1 -1 25 23 21 2 0.16185146D-02 0.18056293D+00 0.12339767D+05 0.12339767D+05 0.12339767D+05 0.12576055D+01  1  2  4  2  5  2       -1 -.221000426226D+00 0.100000000000D+01
-.115271569328D-02 0.000000000000D+00 -.200264033035D-03 0.237028792466D-02 0.000000000000D+00  5 1 -1 25 23 21 2 0.16185146D-02 0.23190965D+00 0.12339767D+05 0.12339767D+05 0.12339767D+05 0.12576055D+01  1  2  5  2  5  2       -1 -.150513274662D+00 0.100000000000D+01
0.117205028961D-02 0.000000000000D+00 0.194151942142D-03 0.237028792466D-02 0.000000000000D+00  5 1 -1 25 23 21 2 0.16185146D-02 0.18056293D+00 0.12339767D+05 0.12339767D+05 0.12339767D+05 0.12576055D+01  1  2  6  2  5  2       -1 0.329843907625D+00 0.100000000000D+01
0.259346081541D-04 0.000000000000D+00 0.000000000000D+00 0.237028792466D-02 0.000000000000D+00  5 1 21 25 23 1 2 0.16185146D-02 0.23104518D+00 0.14856246D+05 0.14856246D+05 0.14856246D+05 0.12482996D+01  1  2 12  4  5  2       -1 0.305337562072D-01 0.100000000000D+01
-.356804307366D-04 0.000000000000D+00 -.678295162621D-05 0.237028792466D-02 0.000000000000D+00  5 1 21 25 23 1 2 0.16185146D-02 0.23190965D+00 0.12339767D+05 0.12339767D+05 0.12339767D+05 0.12576055D+01  1  2  5  4  5  2       -1 -.424007732672D-01 0.100000000000D+01
  </mgrwgt>
  </event>
  <event>
  4     66 0.49155423E-03 0.13184857E+03 0.75467711E-02 0.97618038E-01
        3 -1    0    0  501    0 0.00000000E+00 0.00000000E+00 0.14520108E+02 0.14528715E+02 0.50000000E+00 0.0000E+00 0.9000E+01
       -3 -1    0    0    0  501 0.00000000E+00 0.00000000E+00 -.12410197E+04 0.12410198E+04 0.50000000E+00 0.0000E+00 0.9000E+01
       25  1    1    2    0    0 0.74828556E+02 0.25903887E+01 -.55765642E+03 0.57637809E+03 0.12500000E+03 0.0000E+00 0.9000E+01
       23  1    1    2    0    0 -.74828556E+02 -.25903887E+01 -.66884313E+03 0.67917038E+03 0.91188000E+02 0.0000E+00 0.9000E+01
#aMCatNLO 1  0  0  1  2 0.64884061D+03 0.00000000D+00  -5  5  0 0.00000000D+00 0.00000000D+00 0.00000000D+00 0.00000000D+00 0.00000000D+00
  <mgrwgt>
 0.4678455915D-01    5    2    0
 0.134257983382648D+03 0.000000000000000D+00 0.000000000000000D+00 0.134257983382648D+03
 0.134257983382648D+03 0.000000000000000D+00 0.000000000000000D+00 -.134257983382648D+03
 0.147869368850815D+03 0.748285563210342D+02 0.259038868642569D+01 0.251858549527610D+02
 0.120646597914481D+03 -.748285563210342D+02 -.259038868642569D+01 -.251858549527610D+02
 0.000000000000000D+00 -.000000000000000D+00 0.000000000000000D+00 0.000000000000000D+00
 0.106590984935812D+04 0.000000000000000D+00 0.000000000000000D+00 0.106590984935812D+04
 0.498344246743599D+03 0.000000000000000D+00 0.000000000000000D+00 -.498344246743599D+03
 0.454582277555828D+03 0.238740083753482D+03 -.365224440840865D+03 0.251858549527610D+02
 0.247624925795126D+03 0.253686102418938D+02 -.227431217856597D+03 -.251858549527610D+02
 0.862046892750767D+03 -.264108693995376D+03 0.592655658697462D+03 0.567565602614523D+03
0.119243301226D-02 0.000000000000D+00 0.000000000000D+00 0.184739505027D-02 0.000000000000D+00  5 3 -3 25 23 21 0 0.22345326D-02 0.19092677D+00 0.17384046D+05 0.17384046D+05 0.17384046D+05 0.12405851D+01  1  2  2  1  5  1        3 0.406619955900D-01 0.100000000000D+01
-.662198642348D-04 0.000000000000D+00 -.457925674189D-05 0.184739505027D-02 0.000000000000D+00  5 3 -3 25 23 21 2 0.22345326D-02 0.19092677D+00 0.17384046D+05 0.17384046D+05 0.17384046D+05 0.12405851D+01  1  2  3  1  5  1        3 -.347533068960D-02 0.100000000000D+01
0.821484363418D-04 0.000000000000D+00 0.000000000000D+00 0.184739505027D-02 0.000000000000D+00  5 3 -3 25 23 21 2 0.22345326D-02 0.19092677D+00 0.17384046D+05 0.17384046D+05 0.17384046D+05 0.12405851D+01  1  2 15  1  5  1        3 0.431128914595D-02 0.100000000000D+01
0.180153755425D-01 0.000000000000D+00 -.458085267294D-02 0.184739505027D-02 0.000000000000D+00  5 3 -3 25 23 21 2 0.11241220D+00 0.19092677D+00 0.17384046D+05 0.17384046D+05 0.17384046D+05 0.12405851D+01  1  2  5  1  5  1        3 0.865119050746D-03 0.100000000000D+01
0.487337889346D-02 0.000000000000D+00 -.161742815263D-02 0.184739505027D-02 0.000000000000D+00  5 21 -3 25 23 -3 2 0.11241220D+00 0.19092677D+00 0.17384046D+05 0.17384046D+05 0.17384046D+05 0.12405851D+01  1  2  5  3  5  1        3 0.442148605298D-02 0.100000000000D+01
  </mgrwgt>
  </event>
  <event>
  4     66 0.49155423E-03 0.12170371E+03 0.75467711E-02 0.11317943E+00
        1 -1    0    0  501    0 0.00000000E+00 0.00000000E+00 0.15450855E+03 0.15450888E+03 0.32000000E+00 0.0000E+00 0.9000E+01
       -1 -1    0    0    0  501 0.00000000E+00 0.00000000E+00 -.95895793E+02 0.95896327E+02 0.32000000E+00 0.0000E+00 0.9000E+01
       25  1    1    2    0    0 -.50842433E+02 -.21958573E+02 0.35211224E+02 0.14118060E+03 0.12500000E+03 0.0000E+00 0.9000E+01
       23  1    1    2    0    0 0.50842433E+02 0.21958573E+02 0.23401535E+02 0.10922461E+03 0.91188000E+02 0.0000E+00 0.9000E+01
#aMCatNLO 1  0  0  2  2 0.15635356D+03 0.00000000D+00  -5  5  0 0.00000000D+00 0.00000000D+00 0.00000000D+00 0.00000000D+00 0.00000000D+00
  <mgrwgt>
 0.1281557831D+00    5    2    0
 0.121724395336107D+03 0.000000000000000D+00 0.000000000000000D+00 0.121724395336107D+03
 0.121724395336107D+03 0.000000000000000D+00 0.000000000000000D+00 -.121724395336107D+03
 0.136737303463143D+03 -.508424332185499D+02 -.219585727049015D+02 0.222670778339514D+01
 0.106711487209071D+03 0.508424332185499D+02 0.219585727049015D+02 -.222670778339514D+01
 0.000000000000000D+00 0.000000000000000D+00 -.000000000000000D+00 -.000000000000000D+00
 0.220580068759515D+03 0.000000000000000D+00 0.000000000000000D+00 0.220580068759515D+03
 0.225174256185242D+03 0.000000000000000D+00 0.000000000000000D+00 -.225174256185242D+03
 0.183323317298225D+03 -.131501202994457D+03 0.261708625896002D+02 0.222670778339514D+01
 0.106009966636355D+03 -.276569492698373D+01 0.539467736408711D+02 -.222670778339514D+01
 0.156421041010177D+03 0.134266897921441D+03 -.801176362304712D+02 -.459418742572647D+01
0.176614635205D-03 0.000000000000D+00 0.000000000000D+00 0.210814424001D-02 0.000000000000D+00  5 1 -1 25 23 21 0 0.23770613D-01 0.14753265D-01 0.14811794D+05 0.14811794D+05 0.14811794D+05 0.12484482D+01  1  2  2  2  5  2       -1 0.112225932564D+00 0.100000000000D+01
-.981192383356D-05 0.000000000000D+00 -.678246702889D-06 0.210814424001D-02 0.000000000000D+00  5 1 -1 25 23 21 2 0.23770613D-01 0.14753265D-01 0.14811794D+05 0.14811794D+05 0.14811794D+05 0.12484482D+01  1  2  3  2  5  2       -1 -.971766059104D-02 0.100000000000D+01
0.122294681969D-04 0.000000000000D+00 0.000000000000D+00 0.210814424001D-02 0.000000000000D+00  5 1 -1 25 23 21 2 0.23770613D-01 0.14753265D-01 0.14811794D+05 0.14811794D+05 0.14811794D+05 0.12484482D+01  1  2 15  2  5  2       -1 0.121119795834D-01 0.100000000000D+01
0.302309423055D-04 0.000000000000D+00 -.549117202029D-04 0.210814424001D-02 0.000000000000D+00  5 1 -1 25 23 21 2 0.23770613D-01 0.47855522D-01 0.14811794D+05 0.14811794D+05 0.14811794D+05 0.12484482D+01  1  2  5  2  5  2       -1 0.424240754988D-02 0.100000000000D+01
0.639500002094D-05 0.000000000000D+00 -.745985344179D-05 0.210814424001D-02 0.000000000000D+00  5 1 21 25 23 1 2 0.23770613D-01 0.47855522D-01 0.14811794D+05 0.14811794D+05 0.14811794D+05 0.12484482D+01  1  2  5  4  5  2       -1 0.929312395586D-02 0.100000000000D+01
  </mgrwgt>
  </event>
  <event>
  4     66 0.49155423E-03 0.11600045E+03 0.75467711E-02 0.12367536E+00
        1 -1    0    0  501    0 0.00000000E+00 0.00000000E+00 0.35264566E+03 0.35264580E+03 0.32000000E+00 0.0000E+00 0.9000E+01
       -1 -1    0    0    0  501 0.00000000E+00 0.00000000E+00 -.45129375E+02 0.45130510E+02 0.32000000E+00 0.0000E+00 0.9000E+01
       25  1    1    2    0    0 -.28351797E+02 0.30501361E+02 0.24897703E+03 0.28168905E+03 0.12500000E+03 0.0000E+00 0.9000E+01
       23  1    1    2    0    0 0.28351797E+02 -.30501361E+02 0.58539248E+02 0.11608726E+03 0.91188000E+02 0.0000E+00 0.9000E+01
#aMCatNLO 1  0  0  2  1 0.15331195D+02 0.00000000D+00  -5  5  0 0.00000000D+00 0.00000000D+00 0.00000000D+00 0.00000000D+00 0.00000000D+00
  <mgrwgt>
 0.1256126646D+00    4    2    0
 0.126154399994563D+03 0.000000000000000D+00 0.000000000000000D+00 0.126154399994563D+03
 0.126154399994563D+03 0.000000000000000D+00 0.000000000000000D+00 -.126154399994563D+03
 0.140640118796909D+03 -.283517973392456D+02 0.305013612964438D+02 0.491984304821496D+02
 0.111668681192216D+03 0.283517973392456D+02 -.305013612964438D+02 -.491984304821496D+02
 0.000000000000000D+00 -.000000000000000D+00 -.000000000000000D+00 0.000000000000000D+00
 0.162310235014699D+03 0.000000000000000D+00 0.000000000000000D+00 0.162310235014699D+03
 0.128022832381620D+03 0.000000000000000D+00 0.000000000000000D+00 -.128022832381620D+03
 0.140495342745732D+03 -.212537068898976D+02 0.352382705984848D+02 0.491984304821496D+02
 0.112278817484571D+03 0.340060096993324D+02 -.267280237607592D+02 -.491984304821496D+02
 0.375589071660156D+02 -.127523028094348D+02 -.851024683772563D+01 0.342874026330785D+02
0.190739771473D-03 0.000000000000D+00 0.000000000000D+00 0.178934828586D-02 0.000000000000D+00  5 1 -1 25 23 21 0 0.54253276D-01 0.69430792D-02 0.13456104D+05 0.13456104D+05 0.13456104D+05 0.12532363D+01  1  2  2  2  5  2       -1 0.137190713384D+00 0.100000000000D+01
-.105059338488D-04 0.000000000000D+00 -.732490945391D-06 0.178934828586D-02 0.000000000000D+00  5 1 -1 25 23 21 2 0.54253276D-01 0.69430792D-02 0.13456104D+05 0.13456104D+05 0.13456104D+05 0.12532363D+01  1  2  3  2  5  2       -1 -.118681782009D-01 0.100000000000D+01
0.130990714461D-04 0.000000000000D+00 0.000000000000D+00 0.178934828586D-02 0.000000000000D+00  5 1 -1 25 23 21 2 0.54253276D-01 0.69430792D-02 0.13456104D+05 0.13456104D+05 0.13456104D+05 0.12532363D+01  1  2 15  2  5  2       -1 0.147975531187D-01 0.100000000000D+01
-.128422434834D-04 0.000000000000D+00 0.000000000000D+00 0.178934828586D-02 0.000000000000D+00  5 1 -1 25 23 21 2 0.54253276D-01 0.69430792D-02 0.13456104D+05 0.13456104D+05 0.13456104D+05 0.12532363D+01  1  2  4  2  5  2       -1 -.145074237430D-01 0.100000000000D+01
  </mgrwgt>
  </event>
  <event>
  4     66 0.49155423E-03 0.14916246E+03 0.75467711E-02 0.11058832E+00
        1 -1    0    0  501    0 0.00000000E+00 0.00000000E+00 0.11960664E+04 0.11960664E+04 0.32000000E+00 0.0000E+00 0.9000E+01
       -1 -1    0    0    0  501 0.00000000E+00 0.00000000E+00 -.18614396E+02 0.18617146E+02 0.32000000E+00 0.0000E+00 0.9000E+01
       25  1    1    2    0    0 0.38005663E+01 -.10205373E+03 0.62066244E+03 0.64130825E+03 0.12500000E+03 0.0000E+00 0.9000E+01
       23  1    1    2    0    0 -.38005663E+01 0.10205373E+03 0.55678955E+03 0.57337532E+03 0.91188000E+02 0.0000E+00 0.9000E+01
#aMCatNLO 1  0  0  2  1 0.17722283D+03 0.00000000D+00  -5  5  0 0.00000000D+00 0.00000000D+00 0.00000000D+00 0.00000000D+00 0.00000000D+00
  <mgrwgt>
 0.8753634259D-01    5    2    0
 0.149217123154936D+03 0.000000000000000D+00 0.000000000000000D+00 0.149217123154936D+03
 0.149217123154936D+03 0.000000000000000D+00 0.000000000000000D+00 -.149217123154936D+03
 0.161463955993970D+03 0.380056630788333D+01 -.102053730836909D+03 -.402502214026018D+01
 0.136970290315902D+03 -.380056630788333D+01 0.102053730836909D+03 0.402502214026018D+01
 0.000000000000000D+00 -.000000000000000D+00 -.000000000000000D+00 -.000000000000000D+00
 0.188975345379214D+03 0.000000000000000D+00 0.000000000000000D+00 0.188975345379214D+03
 0.682398090455545D+03 0.000000000000000D+00 0.000000000000000D+00 -.682398090455545D+03
 0.144834554489710D+03 0.609067792806139D+02 -.403263140971978D+02 -.402502214026018D+01
 0.202254669151173D+03 0.594444450713831D+02 0.170416715718782D+03 0.402502214026018D+01
 0.524284212193875D+03 -.120351224351997D+03 -.130090401621584D+03 -.493422745076331D+03
0.340737153320D-03 0.000000000000D+00 0.000000000000D+00 0.173285557518D-02 0.000000000000D+00  5 1 -1 25 23 21 0 0.18401043D+00 0.28639681D-02 0.22249439D+05 0.22249439D+05 0.22249439D+05 0.12287623D+01  1  2  2  2  5  2       -1 0.156091813570D+00 0.100000000000D+01
-.189298387611D-04 0.000000000000D+00 -.130852038690D-05 0.173285557518D-02 0.000000000000D+00  5 1 -1 25 23 21 2 0.18401043D+00 0.28639681D-02 0.22249439D+05 0.22249439D+05 0.22249439D+05 0.12287623D+01  1  2  3  2  5  2       -1 -.130931256422D-01 0.100000000000D+01
0.235725623234D-04 0.000000000000D+00 0.000000000000D+00 0.173285557518D-02 0.000000000000D+00  5 1 -1 25 23 21 2 0.18401043D+00 0.28639681D-02 0.22249439D+05 0.22249439D+05 0.22249439D+05 0.12287623D+01  1  2 15  2  5  2       -1 0.163043396250D-01 0.100000000000D+01
-.350725831361D-03 0.000000000000D+00 -.151040349659D-03 0.173285557518D-02 0.000000000000D+00  5 1 -1 25 23 21 2 0.18401043D+00 0.16665150D-01 0.22249439D+05 0.22249439D+05 0.22249439D+05 0.12287623D+01  1  2  5  2  5  2       -1 -.170370521648D-01 0.100000000000D+01
-.844246135064D-04 0.000000000000D+00 -.325923264387D-04 0.173285557518D-02 0.000000000000D+00  5 1 21 25 23 1 2 0.18401043D+00 0.16665150D-01 0.22249439D+05 0.22249439D+05 0.22249439D+05 0.12287623D+01  1  2  5  4  5  2       -1 -.547296328013D-01 0.100000000000D+01
  </mgrwgt>
  </event>
  <event>
  4     66 0.49155423E-03 0.74865468E+02 0.75467711E-02 0.11986222E+00
        1 -1    0    0  501    0 0.00000000E+00 0.00000000E+00 0.19333269E+04 0.19333269E+04 0.32000000E+00 0.0000E+00 0.9000E+01
       -1 -1    0    0    0  501 0.00000000E+00 0.00000000E+00 -.11718419E+02 0.11722787E+02 0.32000000E+00 0.0000E+00 0.9000E+01
       25  1    1    2    0    0 0.97170182E+02 0.15312746E+02 0.12583805E+04 0.12683938E+04 0.12500000E+03 0.0000E+00 0.9000E+01
       23  1    1    2    0    0 -.97170182E+02 -.15312746E+02 0.66322797E+03 0.67665583E+03 0.91188000E+02 0.0000E+00 0.9000E+01
#aMCatNLO 1  0  0  1  2 0.97011524D+01 0.00000000D+00  -5  5  0 0.00000000D+00 0.00000000D+00 0.00000000D+00 0.00000000D+00 0.00000000D+00
  <mgrwgt>
 0.1529749005D+00   11    2    0
 0.150531749260504D+03 0.000000000000000D+00 0.000000000000000D+00 0.150531749260504D+03
 0.150531749260504D+03 0.000000000000000D+00 0.000000000000000D+00 -.150531749260504D+03
 0.162671627877323D+03 0.971701816739165D+02 0.153127463800062D+02 0.340666128051788D+02
 0.138391870643684D+03 -.971701816739165D+02 -.153127463800062D+02 -.340666128051788D+02
 0.000000000000000D+00 -.000000000000000D+00 0.000000000000000D+00 0.000000000000000D+00
 0.214764835867363D+03 0.000000000000000D+00 0.000000000000000D+00 0.214764835867363D+03
 0.150976617354156D+03 0.000000000000000D+00 0.000000000000000D+00 -.150976617354156D+03
 0.165449592774852D+03 0.102040259655053D+03 0.132596776309148D+02 0.340666128051788D+02
 0.135770165041001D+03 -.931009828254000D+02 -.170281901618279D+02 -.340666128051788D+02
 0.645216954056656D+02 -.893927682965343D+01 0.376851253091317D+01 0.637882185132071D+02
0.363406679485D-03 0.000000000000D+00 0.000000000000D+00 0.164943394216D-02 0.000000000000D+00  5 1 -1 25 23 21 0 0.29743524D+00 0.18031717D-02 0.21491260D+05 0.21491260D+05 0.21491260D+05 0.12304024D+01  1  2  2  1  5  1        1 0.107737743171D+00 0.100000000000D+01
-.201720565409D-04 0.000000000000D+00 -.139557733640D-05 0.164943394216D-02 0.000000000000D+00  5 1 -1 25 23 21 2 0.29743524D+00 0.18031717D-02 0.21491260D+05 0.21491260D+05 0.21491260D+05 0.12304024D+01  1  2  3  1  5  1        1 -.905356260407D-02 0.100000000000D+01
0.250950294324D-04 0.000000000000D+00 0.000000000000D+00 0.164943394216D-02 0.000000000000D+00  5 1 -1 25 23 21 2 0.29743524D+00 0.18031717D-02 0.21491260D+05 0.21491260D+05 0.21491260D+05 0.12304024D+01  1  2 15  1  5  1        1 0.112630767000D-01 0.100000000000D+01
0.845395333123D-02 0.000000000000D+00 0.000000000000D+00 0.164943394216D-02 0.000000000000D+00  5 1 -1 25 23 21 2 0.42464937D+00 0.18031717D-02 0.22957151D+05 0.22957151D+05 0.22957151D+05 0.12272869D+01  1  2 12  1  5  1        1 0.109659090233D+01 0.100000000000D+01
-.798119403753D-02 0.000000000000D+00 0.000000000000D+00 0.164943394216D-02 0.000000000000D+00  5 1 -1 25 23 21 2 0.29743524D+00 0.18031717D-02 0.21491260D+05 0.21491260D+05 0.21491260D+05 0.12304024D+01  1  2  4  1  5  1        1 -.358209584270D+01 0.100000000000D+01
-.859998058771D-02 0.000000000000D+00 -.135997411811D-03 0.164943394216D-02 0.000000000000D+00  5 1 -1 25 23 21 2 0.42465300D+00 0.18031717D-02 0.21491260D+05 0.21491260D+05 0.21491260D+05 0.12304024D+01  1  2  5  1  5  1        1 -.112229066463D+01 0.100000000000D+01
0.813537964880D-02 0.000000000000D+00 0.127808988695D-03 0.164943394216D-02 0.000000000000D+00  5 1 -1 25 23 21 2 0.29743524D+00 0.18031717D-02 0.21491260D+05 0.21491260D+05 0.21491260D+05 0.12304024D+01  1  2  6  1  5  1        1 0.365129697157D+01 0.100000000000D+01
0.946893990566D-08 0.000000000000D+00 0.000000000000D+00 0.164943394216D-02 0.150100684914D-03  5 1 -1 25 23 21 2 0.42435321D+00 0.18085006D-02 0.22957151D+05 0.22957151D+05 0.22957151D+05 0.12272869D+01  1  2 11  1  5  1        1 0.122666652223D-05 0.100000000000D+01
0.369759319238D-03 0.000000000000D+00 0.000000000000D+00 0.164943394216D-02 0.000000000000D+00  5 21 -1 25 23 -1 2 0.42464937D+00 0.18031717D-02 0.22957151D+05 0.22957151D+05 0.22957151D+05 0.12272869D+01  1  2 12  3  5  1        1 0.249012202596D-01 0.100000000000D+01
-.372209449780D-03 0.000000000000D+00 -.594836304967D-05 0.164943394216D-02 0.000000000000D+00  5 21 -1 25 23 -1 2 0.42465300D+00 0.18031717D-02 0.21491260D+05 0.21491260D+05 0.21491260D+05 0.12304024D+01  1  2  5  3  5  1        1 -.253761981955D-01 0.100000000000D+01
0.414443702608D-09 0.000000000000D+00 0.000000000000D+00 0.164943394216D-02 0.656490606160D-05  5 21 -1 25 23 -1 2 0.42435321D+00 0.18085006D-02 0.22957151D+05 0.22957151D+05 0.22957151D+05 0.12272869D+01  1  2 11  3  5  1        1 0.279125047079D-07 0.100000000000D+01
  </mgrwgt>
  </event>
  <event>
  4     66 0.49155423E-03 0.14348803E+03 0.75467711E-02 0.10987972E+00
        3 -1    0    0  501    0 0.00000000E+00 0.00000000E+00 0.27973776E+02 0.27978244E+02 0.50000000E+00 0.0000E+00 0.9000E+01
       -3 -1    0    0    0  501 0.00000000E+00 0.00000000E+00 -.75707213E+03 0.75707230E+03 0.50000000E+00 0.0000E+00 0.9000E+01
       25  1    1    2    0    0 0.90123893E+02 -.25662680E+02 -.46132986E+03 0.48706378E+03 0.12500000E+03 0.0000E+00 0.9000E+01
       23  1    1    2    0    0 -.90123893E+02 0.25662680E+02 -.26776850E+03 0.29798676E+03 0.91188000E+02 0.0000E+00 0.9000E+01
#aMCatNLO 1  0  0  2  1 0.19934503D+03 0.00000000D+00  -5  5  0 0.00000000D+00 0.00000000D+00 0.00000000D+00 0.00000000D+00 0.00000000D+00
  <mgrwgt>
 0.4136576867D-01    3    2    0
 0.145533449246511D+03 0.000000000000000D+00 0.000000000000000D+00 0.145533449246511D+03
 0.145533449246511D+03 0.000000000000000D+00 0.000000000000000D+00 -.145533449246511D+03
 0.158090268132214D+03 0.901238926265772D+02 -.256626795227028D+02 -.242207294618371D+02
 0.132976630360809D+03 -.901238926265772D+02 0.256626795227028D+02 0.242207294618371D+02
 0.000000000000000D+00 0.000000000000000D+00 -.000000000000000D+00 0.000000000000000D+00
 0.350950576738062D+03 0.000000000000000D+00 0.000000000000000D+00 0.350950576738062D+03
 0.233306476746691D+03 0.000000000000000D+00 0.000000000000000D+00 -.233306476746691D+03
 0.161418158411113D+03 0.692667076197735D+02 0.710373236030793D+02 -.242207294618371D+02
 0.191368433743406D+03 -.111296808412408D+03 0.123826502780918D+03 0.242207294618371D+02
 0.231470461330234D+03 0.420301007926346D+02 -.194863826383997D+03 0.117644099991371D+03
0.942579779517D-03 0.000000000000D+00 0.000000000000D+00 0.172891330136D-02 0.000000000000D+00  5 3 -3 25 23 21 0 0.43040142D-02 0.11647299D+00 0.20588814D+05 0.20588814D+05 0.20588814D+05 0.12324412D+01  1  2  2  2  5  2       -3 0.405279205959D-01 0.100000000000D+01
-.523527875132D-04 0.000000000000D+00 -.361975454030D-05 0.172891330136D-02 0.000000000000D+00  5 3 -3 25 23 21 2 0.43040142D-02 0.11647299D+00 0.20588814D+05 0.20588814D+05 0.20588814D+05 0.12324412D+01  1  2  3  2  5  2       -3 -.341907320429D-02 0.100000000000D+01
0.651819022516D-04 0.000000000000D+00 0.000000000000D+00 0.172891330136D-02 0.000000000000D+00  5 3 -3 25 23 21 2 0.43040142D-02 0.11647299D+00 0.20588814D+05 0.20588814D+05 0.20588814D+05 0.12324412D+01  1  2 15  2  5  2       -3 0.425692128308D-02 0.100000000000D+01
  </mgrwgt>
  </event>
  <event>
  5     66 0.49155423E-03 0.10964511E+03 0.75467711E-02 0.11740338E+00
        1 -1    0    0  501    0 0.00000000E+00 0.00000000E+00 0.30898898E+03 0.30898915E+03 0.32000000E+00 0.0000E+00 0.9000E+01
       21 -1    0    0  502  501 0.00000000E+00 0.00000000E+00 -.12321845E+03 0.12322073E+03 0.75000000E+00 0.0000E+00 0.9000E+01
       25  1    1    2    0    0 -.36209043E+02 -.47612587E+02 0.85255221E+02 0.16270066E+03 0.12500000E+03 0.0000E+00 0.9000E+01
       23  1    1    2    0    0 0.89995229E+00 -.50730928E+02 0.12434985E+03 0.16233475E+03 0.91188000E+02 0.0000E+00 0.9000E+01
        1  1    1    2  502    0 0.35309091E+02 0.98343515E+02 -.23834534E+02 0.10717447E+03 0.32000000E+00 0.0000E+00 0.9000E+01
#aMCatNLO 2  0  0  2  1 0.10449009D+03 0.00000000D+00  -5  5  0 0.00000000D+00 0.00000000D+00 0.00000000D+00 0.00000000D+00 0.00000000D+00
  <mgrwgt>
 0.5013651664D-01    2    2    0
 0.112689351800491D+03 0.000000000000000D+00 0.000000000000000D+00 0.112689351800491D+03
 0.112689351800491D+03 0.000000000000000D+00 0.000000000000000D+00 -.112689351800491D+03
 0.128905943118146D+03 -.160990463302549D+02 0.839813740750160D+01 -.257300246117204D+02
 0.964727604828363D+02 0.160990463302549D+02 -.839813740750160D+01 0.257300246117204D+02
 0.000000000000000D+00 0.000000000000000D+00 0.000000000000000D+00 -.000000000000000D+00
 0.143573195571427D+03 0.000000000000000D+00 0.000000000000000D+00 0.143573195571427D+03
 0.265185964719642D+03 0.000000000000000D+00 0.000000000000000D+00 -.265185964719642D+03
 0.140943561068872D+03 -.362090429071829D+02 -.476125871172836D+02 -.257300246117204D+02
 0.107478939596564D+03 0.899952291479611D+00 -.507309277675384D+02 0.257300246117204D+02
 0.160336659625633D+03 0.353090906157033D+02 0.983435148848220D+02 -.121612769148215D+03
-.217245864209D-07 0.000000000000D+00 0.000000000000D+00 0.223806434070D-02 0.000000000000D+00  5 1 21 25 23 1 2 0.37311305D-01 0.18696473D-01 0.30174963D+05 0.30174963D+05 0.30174963D+05 0.12146334D+01  1  2 13  4  5  2       -1 -.104861580528D-03 0.100000000000D+01
0.144407536153D-04 0.000000000000D+00 0.000000000000D+00 0.223806434070D-02 0.326013129516D-06  5 1 21 25 23 1 2 0.47536907D-01 0.18956854D-01 0.30174963D+05 0.30174963D+05 0.30174963D+05 0.12146334D+01  1  2  1  4  5  2       -1 0.502413782179D-01 0.100000000000D+01
  </mgrwgt>
  </event>
  <event>
  4     66 0.49155423E-03 0.97531136E+02 0.75467711E-02 0.11602328E+00
        1 -1    0    0  501    0 0.00000000E+00 0.00000000E+00 0.45286635E+03 0.45286646E+03 0.32000000E+00 0.0000E+00 0.9000E+01
       -1 -1    0    0    0  501 0.00000000E+00 0.00000000E+00 -.84410232E+02 0.84410839E+02 0.32000000E+00 0.0000E+00 0.9000E+01
       25  1    1    2    0    0 -.11500970E+03 0.59443249E+01 0.35885910E+02 0.17371058E+03 0.12500000E+03 0.0000E+00 0.9000E+01
       23  1    1    2    0    0 0.11500970E+03 -.59443249E+01 0.33257020E+03 0.36356672E+03 0.91188000E+02 0.0000E+00 0.9000E+01
#aMCatNLO 1  0  0  2  1 0.56110600D+02 0.00000000D+00  -5  5  0 0.00000000D+00 0.00000000D+00 0.00000000D+00 0.00000000D+00 0.00000000D+00
  <mgrwgt>
 0.1310320844D+00    9    2    0
 0.195516614883290D+03 0.000000000000000D+00 0.000000000000000D+00 0.195516614883290D+03
 0.195516614883290D+03 0.000000000000000D+00 0.000000000000000D+00 -.195516614883290D+03
 0.204863325213207D+03 -.115009702948053D+03 0.594432491708104D+01 -.114374014734524D+03
 0.186169904553374D+03 0.115009702948053D+03 -.594432491708104D+01 0.114374014734524D+03
 0.000000000000000D+00 0.000000000000000D+00 0.000000000000000D+00 -.000000000000000D+00
 0.223146457784783D+03 0.000000000000000D+00 0.000000000000000D+00 0.223146457784783D+03
 0.228232654014891D+03 0.000000000000000D+00 0.000000000000000D+00 -.228232654014891D+03
 0.222780535886101D+03 -.144647468491517D+03 -.136447139981898D+01 -.114374014734524D+03
 0.172257925837099D+03 0.901689394817953D+02 -.120701605596135D+02 0.114374014734524D+03
 0.563406500764735D+02 0.544785290097215D+02 0.134346319594325D+02 -.508619623010797D+01
0.451853634801D-03 0.000000000000D+00 0.000000000000D+00 0.102497364479D-02 0.000000000000D+00  5 1 -1 25 23 21 0 0.69671801D-01 0.12986245D-01 0.25099642D+05 0.25099642D+05 0.25099642D+05 0.12231125D+01  1  2  2  2  5  2       -1 0.927365488987D-01 0.100000000000D+01
-.237526047154D-04 0.000000000000D+00 -.173523693343D-05 0.102497364479D-02 0.000000000000D+00  5 1 -1 25 23 21 2 0.69671801D-01 0.12986245D-01 0.25099642D+05 0.25099642D+05 0.25099642D+05 0.12231125D+01  1  2  3  2  5  2       -1 -.729284835399D-02 0.100000000000D+01
0.311480395323D-04 0.000000000000D+00 0.000000000000D+00 0.102497364479D-02 0.000000000000D+00  5 1 -1 25 23 21 2 0.69671801D-01 0.12986245D-01 0.25099642D+05 0.25099642D+05 0.25099642D+05 0.12231125D+01  1  2 15  2  5  2       -1 0.956349552209D-02 0.100000000000D+01
0.254728491156D-03 0.000000000000D+00 0.000000000000D+00 0.102497364479D-02 0.000000000000D+00  5 1 -1 25 23 21 2 0.69671801D-01 0.15940761D-01 0.35362430D+05 0.35362430D+05 0.35362430D+05 0.12074732D+01  1  2 12  2  5  2       -1 0.554393021477D-01 0.100000000000D+01
-.249537611274D-03 0.000000000000D+00 0.000000000000D+00 0.102497364479D-02 0.000000000000D+00  5 1 -1 25 23 21 2 0.69671801D-01 0.12986245D-01 0.25099642D+05 0.25099642D+05 0.25099642D+05 0.12231125D+01  1  2  4  2  5  2       -1 -.766164376263D-01 0.100000000000D+01
-.563970912453D-03 0.000000000000D+00 -.230739663773D-03 0.102497364479D-02 0.000000000000D+00  5 1 -1 25 23 21 2 0.69671801D-01 0.17250637D-01 0.25099642D+05 0.25099642D+05 0.25099642D+05 0.12231125D+01  1  2  5  2  5  2       -1 -.110771730175D+00 0.100000000000D+01
0.613587141092D-03 0.000000000000D+00 0.221739736333D-03 0.102497364479D-02 0.000000000000D+00  5 1 -1 25 23 21 2 0.69671801D-01 0.12986245D-01 0.25099642D+05 0.25099642D+05 0.25099642D+05 0.12231125D+01  1  2  6  2  5  2       -1 0.188391884830D+00 0.100000000000D+01
0.742824881712D-05 0.000000000000D+00 0.000000000000D+00 0.102497364479D-02 0.000000000000D+00  5 1 21 25 23 1 2 0.69671801D-01 0.15940761D-01 0.35362430D+05 0.35362430D+05 0.35362430D+05 0.12074732D+01  1  2 12  4  5  2       -1 0.216106863119D-01 0.100000000000D+01
-.162029526525D-04 0.000000000000D+00 -.857134687343D-05 0.102497364479D-02 0.000000000000D+00  5 1 21 25 23 1 2 0.69671801D-01 0.17250637D-01 0.25099642D+05 0.25099642D+05 0.25099642D+05 0.12231125D+01  1  2  5  4  5  2       -1 -.420288171231D-01 0.100000000000D+01
  </mgrwgt>
  </event>
  <event>
  4     66 0.49155423E-03 0.65926176E+02 0.75467711E-02 0.11827917E+00
        1 -1    0    0  501    0 0.00000000E+00 0.00000000E+00 0.57405030E+03 0.57405039E+03 0.32000000E+00 0.0000E+00 0.9000E+01
       -1 -1    0    0    0  501 0.00000000E+00 0.00000000E+00 -.44008126E+02 0.44009289E+02 0.32000000E+00 0.0000E+00 0.9000E+01
       25  1    1    2    0    0 0.11171923E+03 -.25866111E+02 0.25194460E+03 0.30372903E+03 0.12500000E+03 0.0000E+00 0.9000E+01
       23  1    1    2    0    0 -.11171923E+03 0.25866111E+02 0.27809757E+03 0.31433065E+03 0.91188000E+02 0.0000E+00 0.9000E+01
#aMCatNLO 1  0  0  1  2 0.14221716D+02 0.00000000D+00  -5  5  0 0.00000000D+00 0.00000000D+00 0.00000000D+00 0.00000000D+00 0.00000000D+00
  <mgrwgt>
 0.2200864240D+00    9    2    0
 0.158944218864547D+03 0.000000000000000D+00 0.000000000000000D+00 0.158944218864547D+03
 0.158944218864547D+03 0.000000000000000D+00 0.000000000000000D+00 -.158944218864547D+03
 0.170441567916024D+03 0.111719234681900D+03 -.258661107923071D+02 -.165856862457751D+02
 0.147446869813071D+03 -.111719234681900D+03 0.258661107923071D+02 0.165856862457751D+02
 0.000000000000000D+00 0.000000000000000D+00 0.000000000000000D+00 0.000000000000000D+00
 0.171766113210210D+03 0.000000000000000D+00 0.000000000000000D+00 0.171766113210210D+03
 0.163096305177964D+03 0.000000000000000D+00 0.000000000000000D+00 -.163096305177964D+03
 0.168039775380620D+03 0.106545740431478D+03 -.313892707407184D+02 -.165856862457751D+02
 0.150166629424511D+03 -.116268087248359D+03 0.210098107579062D+02 0.165856862457751D+02
 0.166560135830433D+02 0.972234681688159D+01 0.103794599828123D+02 0.866980803224579D+01
0.268838001403D-03 0.000000000000D+00 0.000000000000D+00 0.164048290659D-02 0.000000000000D+00  5 1 -1 25 23 21 0 0.88315527D-01 0.67705772D-02 0.24986717D+05 0.24986717D+05 0.24986717D+05 0.12233224D+01  1  2  2  1  5  1        1 0.109180672704D+00 0.100000000000D+01
-.149348945033D-04 0.000000000000D+00 -.103240871206D-05 0.164048290659D-02 0.000000000000D+00  5 1 -1 25 23 21 2 0.88315527D-01 0.67705772D-02 0.24986717D+05 0.24986717D+05 0.24986717D+05 0.12233224D+01  1  2  3  1  5  1        1 -.907693271225D-02 0.100000000000D+01
0.185685253124D-04 0.000000000000D+00 0.000000000000D+00 0.164048290659D-02 0.000000000000D+00  5 1 -1 25 23 21 2 0.88315527D-01 0.67705772D-02 0.24986717D+05 0.24986717D+05 0.24986717D+05 0.12233224D+01  1  2 15  1  5  1        1 0.112853328015D-01 0.100000000000D+01
0.910008429379D-03 0.000000000000D+00 0.000000000000D+00 0.164048290659D-02 0.000000000000D+00  5 1 -1 25 23 21 2 0.96528642D-01 0.67705772D-02 0.27338781D+05 0.27338781D+05 0.27338781D+05 0.12191554D+01  1  2 12  1  5  1        1 0.487136295891D+00 0.100000000000D+01
-.899891797428D-03 0.000000000000D+00 0.000000000000D+00 0.164048290659D-02 0.000000000000D+00  5 1 -1 25 23 21 2 0.88315527D-01 0.67705772D-02 0.24986717D+05 0.24986717D+05 0.24986717D+05 0.12233224D+01  1  2  4  1  5  1        1 -.546924338283D+00 0.100000000000D+01
-.241255569096D-02 0.000000000000D+00 -.403285327342D-03 0.164048290659D-02 0.000000000000D+00  5 1 -1 25 23 21 2 0.97216959D-01 0.67705772D-02 0.24986717D+05 0.24986717D+05 0.24986717D+05 0.12233224D+01  1  2  5  1  5  1        1 -.128543896191D+01 0.100000000000D+01
0.244186759070D-02 0.000000000000D+00 0.401432974475D-03 0.164048290659D-02 0.000000000000D+00  5 1 -1 25 23 21 2 0.88315527D-01 0.67705772D-02 0.24986717D+05 0.24986717D+05 0.24986717D+05 0.12233224D+01  1  2  6  1  5  1        1 0.148408599793D+01 0.100000000000D+01
0.133490202887D-04 0.000000000000D+00 0.000000000000D+00 0.164048290659D-02 0.000000000000D+00  5 21 -1 25 23 -1 2 0.96528642D-01 0.67705772D-02 0.27338781D+05 0.27338781D+05 0.27338781D+05 0.12191554D+01  1  2 12  3  5  1        1 0.175527694319D-01 0.100000000000D+01
-.366009496558D-04 0.000000000000D+00 -.632436439229D-05 0.164048290659D-02 0.000000000000D+00  5 21 -1 25 23 -1 2 0.97216959D-01 0.67705772D-02 0.24986717D+05 0.24986717D+05 0.24986717D+05 0.12233224D+01  1  2  5  3  5  1        1 -.477144118427D-01 0.100000000000D+01
  </mgrwgt>
  </event>
  <event>
  4     66 0.49155423E-03 0.11446231E+03 0.75467711E-02 0.12049906E+00
        3 -1    0    0  501    0 0.00000000E+00 0.00000000E+00 0.79553821E+03 0.79553836E+03 0.50000000E+00 0.0000E+00 0.9000E+01
       -3 -1    0    0    0  501 0.00000000E+00 0.00000000E+00 -.23406106E+02 0.23411446E+02 0.50000000E+00 0.0000E+00 0.9000E+01
       25  1    1    2    0    0 0.79553823E+02 0.14745798E+02 0.37323683E+03 0.40184199E+03 0.12500000E+03 0.0000E+00 0.9000E+01
       23  1    1    2    0    0 -.79553823E+02 -.14745798E+02 0.39889527E+03 0.41710782E+03 0.91188000E+02 0.0000E+00 0.9000E+01
#aMCatNLO 1  0  0  1  2 0.21155427D+02 0.00000000D+00  -5  5  0 0.00000000D+00 0.00000000D+00 0.00000000D+00 0.00000000D+00 0.00000000D+00
  <mgrwgt>
 0.1182561080D-01    9    2    0
 0.136465022603844D+03 0.000000000000000D+00 0.000000000000000D+00 0.136465022603844D+03
 0.136465022603844D+03 0.000000000000000D+00 0.000000000000000D+00 -.136465022603844D+03
 0.149856272091305D+03 0.795538231635156D+02 0.147457979108441D+02 -.169012706369603D+02
 0.123073773116384D+03 -.795538231635156D+02 -.147457979108441D+02 0.169012706369603D+02
 0.000000000000000D+00 -.000000000000000D+00 -.000000000000000D+00 0.000000000000000D+00
 0.149462353120995D+03 0.000000000000000D+00 0.000000000000000D+00 0.149462353120995D+03
 0.145762831653856D+03 0.000000000000000D+00 0.000000000000000D+00 -.145762831653856D+03
 0.156563947355985D+03 0.913289203380394D+02 0.161445028549036D+02 -.169012706369603D+02
 0.117184772568771D+03 -.703211826819070D+02 -.136490986907061D+02 0.169012706369603D+02
 0.214764648500957D+02 -.210077376561323D+02 -.249540416419757D+01 0.369952146713908D+01
0.145137525375D-03 0.000000000000D+00 0.000000000000D+00 0.184823824806D-02 0.000000000000D+00  5 3 -3 25 23 21 0 0.12239092D+00 0.36013622D-02 0.18334228D+05 0.18334228D+05 0.18334228D+05 0.12380057D+01  1  2  2  1  5  1        3 0.730024831587D-02 0.100000000000D+01
-.806259850341D-05 0.000000000000D+00 -.557366313027D-06 0.184823824806D-02 0.000000000000D+00  5 3 -3 25 23 21 2 0.12239092D+00 0.36013622D-02 0.18334228D+05 0.18334228D+05 0.18334228D+05 0.12380057D+01  1  2  3  1  5  1        3 -.621553102047D-03 0.100000000000D+01
0.100326612970D-04 0.000000000000D+00 0.000000000000D+00 0.184823824806D-02 0.000000000000D+00  5 3 -3 25 23 21 2 0.12239092D+00 0.36013622D-02 0.18334228D+05 0.18334228D+05 0.18334228D+05 0.12380057D+01  1  2 15  1  5  1        3 0.773427046910D-03 0.100000000000D+01
0.213095230663D-03 0.000000000000D+00 0.000000000000D+00 0.184823824806D-02 0.000000000000D+00  5 3 -3 25 23 21 2 0.13787844D+00 0.36013622D-02 0.21427690D+05 0.21427690D+05 0.21427690D+05 0.12305429D+01  1  2 12  1  5  1        3 0.123259067364D-01 0.100000000000D+01
-.186504087608D-03 0.000000000000D+00 0.000000000000D+00 0.184823824806D-02 0.000000000000D+00  5 3 -3 25 23 21 2 0.12239092D+00 0.36013622D-02 0.18334228D+05 0.18334228D+05 0.18334228D+05 0.12380057D+01  1  2  4  1  5  1        3 -.143777709070D-01 0.100000000000D+01
-.654155351144D-03 0.000000000000D+00 -.148268978733D-03 0.184823824806D-02 0.000000000000D+00  5 3 -3 25 23 21 2 0.14069309D+00 0.36013622D-02 0.18334228D+05 0.18334228D+05 0.18334228D+05 0.12380057D+01  1  2  5  1  5  1        3 -.360820766355D-01 0.100000000000D+01
0.669732352279D-03 0.000000000000D+00 0.146840742568D-03 0.184823824806D-02 0.000000000000D+00  5 3 -3 25 23 21 2 0.12239092D+00 0.36013622D-02 0.18334228D+05 0.18334228D+05 0.18334228D+05 0.12380057D+01  1  2  6  1  5  1        3 0.516302803525D-01 0.100000000000D+01
0.401917518576D-05 0.000000000000D+00 0.000000000000D+00 0.184823824806D-02 0.000000000000D+00  5 21 -3 25 23 -3 2 0.13787844D+00 0.36013622D-02 0.21427690D+05 0.21427690D+05 0.21427690D+05 0.12305429D+01  1  2 12  3  5  1        3 0.425964522979D-02 0.100000000000D+01
-.131525106027D-04 0.000000000000D+00 -.318536211195D-05 0.184823824806D-02 0.000000000000D+00  5 21 -3 25 23 -3 2 0.14069309D+00 0.36013622D-02 0.18334228D+05 0.18334228D+05 0.18334228D+05 0.12380057D+01  1  2  5  3  5  1        3 -.133824962399D-01 0.100000000000D+01
  </mgrwgt>
  </event>
  <event>
  4     66 0.49155423E-03 0.18267026E+03 0.75467711E-02 0.11301745E+00
        1 -1    0    0  501    0 0.00000000E+00 0.00000000E+00 0.31282178E+04 0.31282178E+04 0.32000000E+00 0.0000E+00 0.9000E+01
       -1 -1    0    0    0  501 0.00000000E+00 0.00000000E+00 -.10957993E+02 0.10962664E+02 0.32000000E+00 0.0000E+00 0.9000E+01
       25  1    1    2    0    0 0.14574399E+03 0.16033347E+02 0.13852593E+04 0.13985945E+04 0.12500000E+03 0.0000E+00 0.9000E+01
       23  1    1    2    0    0 -.14574399E+03 -.16033347E+02 0.17320005E+04 0.17405860E+04 0.91188000E+02 0.0000E+00 0.9000E+01
#aMCatNLO 1  0  0  2  1 0.76766811D+02 0.00000000D+00  -5  5  0 0.00000000D+00 0.00000000D+00 0.00000000D+00 0.00000000D+00 0.00000000D+00
  <mgrwgt>
 0.1996122936D+00    4    2    0
 0.185165724062851D+03 0.000000000000000D+00 0.000000000000000D+00 0.185165724062851D+03
 0.185165724062851D+03 0.000000000000000D+00 0.000000000000000D+00 -.185165724062851D+03
 0.195034921903050D+03 0.145743994307200D+03 0.160333467671293D+02 -.302529449237060D+02
 0.175296526222652D+03 -.145743994307200D+03 -.160333467671293D+02 0.302529449237060D+02
 0.000000000000000D+00 0.000000000000000D+00 0.000000000000000D+00 0.000000000000000D+00
 0.320928851795989D+03 0.000000000000000D+00 0.000000000000000D+00 0.320928851795989D+03
 0.200278101830645D+03 0.000000000000000D+00 0.000000000000000D+00 -.200278101830645D+03
 0.194333779435118D+03 0.143724277239581D+03 -.238476264005566D+02 -.302529449237060D+02
 0.183870563167392D+03 -.147607050834536D+03 -.528209288338240D+02 0.302529449237060D+02
 0.143002611024124D+03 0.388277359495524D+01 0.766685552343806D+02 0.120650749965344D+03
0.390908953442D-02 0.000000000000D+00 0.000000000000D+00 0.147707281910D-02 0.000000000000D+00  5 1 -1 25 23 21 0 0.48126463D+00 0.16862056D-02 0.33368425D+05 0.33368425D+05 0.33368425D+05 0.12100777D+01  1  2  2  2  5  2       -1 0.205807691623D+00 0.100000000000D+01
-.217123027986D-03 0.000000000000D+00 -.150119330991D-04 0.147707281910D-02 0.000000000000D+00  5 1 -1 25 23 21 2 0.48126463D+00 0.16862056D-02 0.33368425D+05 0.33368425D+05 0.33368425D+05 0.12100777D+01  1  2  3  2  5  2       -1 -.167385723367D-01 0.100000000000D+01
0.269219841722D-03 0.000000000000D+00 0.000000000000D+00 0.147707281910D-02 0.000000000000D+00  5 1 -1 25 23 21 2 0.48126463D+00 0.16862056D-02 0.33368425D+05 0.33368425D+05 0.33368425D+05 0.12100777D+01  1  2 15  2  5  2       -1 0.207548496211D-01 0.100000000000D+01
-.132459914853D-03 0.000000000000D+00 0.000000000000D+00 0.147707281910D-02 0.000000000000D+00  5 1 -1 25 23 21 2 0.48126463D+00 0.16862056D-02 0.33368425D+05 0.33368425D+05 0.33368425D+05 0.12100777D+01  1  2  4  2  5  2       -1 -.102116753209D-01 0.100000000000D+01
  </mgrwgt>
  </event>
  <event>
  4     66 0.49155423E-03 0.85588585E+02 0.75467711E-02 0.11907070E+00
        1 -1    0    0  501    0 0.00000000E+00 0.00000000E+00 0.14808200E+04 0.14808201E+04 0.32000000E+00 0.0000E+00 0.9000E+01
       -1 -1    0    0    0  501 0.00000000E+00 0.00000000E+00 -.16704119E+02 0.16707184E+02 0.32000000E+00 0.0000E+00 0.9000E+01
       25  1    1    2    0    0 -.54256526E+02 -.98188228E+02 0.70120441E+03 0.72103906E+03 0.12500000E+03 0.0000E+00 0.9000E+01
       23  1    1    2    0    0 0.54256526E+02 0.98188228E+02 0.76291149E+03 0.77648818E+03 0.91188000E+02 0.0000E+00 0.9000E+01
#aMCatNLO 1  0  0  1  2 0.39161213D+01 0.00000000D+00  -5  5  0 0.00000000D+00 0.00000000D+00 0.00000000D+00 0.00000000D+00 0.00000000D+00
  <mgrwgt>
 0.3016030007D+00   11    2    0
 0.157283546897134D+03 0.000000000000000D+00 0.000000000000000D+00 0.157283546897134D+03
 0.157283546897134D+03 0.000000000000000D+00 0.000000000000000D+00 -.157283546897134D+03
 0.168902290243475D+03 -.542565261971265D+02 -.981882281295931D+02 -.178405401062469D+02
 0.145664803550793D+03 0.542565261971265D+02 0.981882281295931D+02 0.178405401062469D+02
 0.000000000000000D+00 0.000000000000000D+00 0.000000000000000D+00 0.000000000000000D+00
 0.163261999218422D+03 0.000000000000000D+00 0.000000000000000D+00 0.163261999218422D+03
 0.157938347998805D+03 0.000000000000000D+00 0.000000000000000D+00 -.157938347998805D+03
 0.169671646195809D+03 -.563591508855565D+02 -.983302026997419D+02 -.178405401062469D+02
 0.144919823021463D+03 0.524519265391176D+02 0.980663769679729D+02 0.178405401062469D+02
 0.660887799995465D+01 0.390722434643884D+01 0.263825731768989D+00 0.532365121961767D+01
0.277883083277D-03 0.000000000000D+00 0.000000000000D+00 0.164976718913D-02 0.000000000000D+00  5 1 -1 25 23 21 0 0.22781870D+00 0.25701028D-02 0.24418060D+05 0.24418060D+05 0.24418060D+05 0.12243958D+01  1  2  2  1  5  1        1 0.963183523392D-01 0.100000000000D+01
-.154371533248D-04 0.000000000000D+00 -.106714420808D-05 0.164976718913D-02 0.000000000000D+00  5 1 -1 25 23 21 2 0.22781870D+00 0.25701028D-02 0.24418060D+05 0.24418060D+05 0.24418060D+05 0.12243958D+01  1  2  3  1  5  1        1 -.802154147527D-02 0.100000000000D+01
0.191865515088D-04 0.000000000000D+00 0.000000000000D+00 0.164976718913D-02 0.000000000000D+00  5 1 -1 25 23 21 2 0.22781870D+00 0.25701028D-02 0.24418060D+05 0.24418060D+05 0.24418060D+05 0.12243958D+01  1  2 15  1  5  1        1 0.996982510030D-02 0.100000000000D+01
0.127027363466D-03 0.000000000000D+00 0.000000000000D+00 0.164976718913D-02 0.000000000000D+00  5 1 -1 25 23 21 2 0.23694203D+00 0.25701028D-02 0.25037478D+05 0.25037478D+05 0.25037478D+05 0.12232279D+01  1  2 12  1  5  1        1 0.602897206235D-01 0.100000000000D+01
-.421697009378D-02 0.000000000000D+00 0.000000000000D+00 0.164976718913D-02 0.000000000000D+00  5 1 -1 25 23 21 2 0.22781870D+00 0.25701028D-02 0.24418060D+05 0.24418060D+05 0.24418060D+05 0.12243958D+01  1  2  4  1  5  1        1 -.219124600213D+01 0.100000000000D+01
-.905680808416D-02 0.000000000000D+00 -.840950383895D-03 0.164976718913D-02 0.000000000000D+00  5 1 -1 25 23 21 2 0.23689033D+00 0.25701028D-02 0.24418060D+05 0.24418060D+05 0.24418060D+05 0.12243958D+01  1  2  5  1  5  1        1 -.430812346879D+01 0.100000000000D+01
0.908335998248D-02 0.000000000000D+00 0.840309701614D-03 0.164976718913D-02 0.000000000000D+00  5 1 -1 25 23 21 2 0.22781870D+00 0.25701028D-02 0.24418060D+05 0.24418060D+05 0.24418060D+05 0.12243958D+01  1  2  6  1  5  1        1 0.471994721443D+01 0.100000000000D+01
0.409017820269D-02 0.000000000000D+00 0.000000000000D+00 0.164976718913D-02 0.859030776581D-03  5 1 -1 25 23 21 2 0.23647824D+00 0.25808027D-02 0.25037478D+05 0.25037478D+05 0.25037478D+05 0.12232279D+01  1  2 11  1  5  1        1 0.193828637621D+01 0.100000000000D+01
0.276952160332D-05 0.000000000000D+00 0.000000000000D+00 0.164976718913D-02 0.000000000000D+00  5 21 -1 25 23 -1 2 0.23694203D+00 0.25701028D-02 0.25037478D+05 0.25037478D+05 0.25037478D+05 0.12232279D+01  1  2 12  3  5  1        1 0.139447528752D-02 0.100000000000D+01
-.621335127402D-04 0.000000000000D+00 -.581177050182D-05 0.164976718913D-02 0.000000000000D+00  5 21 -1 25 23 -1 2 0.23689033D+00 0.25701028D-02 0.24418060D+05 0.24418060D+05 0.24418060D+05 0.12243958D+01  1  2  5  3  5  1        1 -.314028463046D-01 0.100000000000D+01
0.281768010721D-04 0.000000000000D+00 0.000000000000D+00 0.164976718913D-02 0.570579690035D-05  5 21 -1 25 23 -1 2 0.23647824D+00 0.25808027D-02 0.25037478D+05 0.25037478D+05 0.25037478D+05 0.12232279D+01  1  2 11  3  5  1        1 0.141908953864D-01 0.100000000000D+01
  </mgrwgt>
  </event>
  <event>
  4     66 0.49155423E-03 0.68636730E+02 0.75467711E-02 0.12156138E+00
        1 -1    0    0  501    0 0.00000000E+00 0.00000000E+00 0.32483604E+03 0.32483620E+03 0.32000000E+00 0.0000E+00 0.9000E+01
       -1 -1    0    0    0  501 0.00000000E+00 0.00000000E+00 -.44108026E+02 0.44109186E+02 0.32000000E+00 0.0000E+00 0.9000E+01
       25  1    1    2    0    0 0.38188553E+02 0.32499821E+02 0.14479008E+03 0.19774673E+03 0.12500000E+03 0.0000E+00 0.9000E+01
       23  1    1    2    0    0 -.38188553E+02 -.32499821E+02 0.13593794E+03 0.17119865E+03 0.91188000E+02 0.0000E+00 0.9000E+01
#aMCatNLO 1  0  0  2  1 0.35297577D+02 0.00000000D+00  -5  5  0 0.00000000D+00 0.00000000D+00 0.00000000D+00 0.00000000D+00 0.00000000D+00
  <mgrwgt>
 0.1376483587D+00    9    2    0
 0.119700123429085D+03 0.000000000000000D+00 0.000000000000000D+00 0.119700123429085D+03
 0.119700123429085D+03 0.000000000000000D+00 0.000000000000000D+00 -.119700123429085D+03
 0.134966917745155D+03 0.381885533576713D+02 0.324998205863536D+02 -.874442336180460D+01
 0.104433329113015D+03 -.381885533576713D+02 -.324998205863536D+02 0.874442336180460D+01
 0.000000000000000D+00 -.000000000000000D+00 -.000000000000000D+00 -.000000000000000D+00
 0.128902962829217D+03 0.000000000000000D+00 0.000000000000000D+00 0.128902962829217D+03
 0.160378398614866D+03 0.000000000000000D+00 0.000000000000000D+00 -.160378398614866D+03
 0.143241847221997D+03 0.473860342071048D+02 0.507082401367142D+02 -.874442336180460D+01
 0.987465762939452D+02 -.314714993885383D+02 -.192019470909254D+02 0.874442336180460D+01
 0.472929379281412D+02 -.159145348185666D+02 -.315062930457889D+02 -.314754357856492D+02
0.131954802858D-03 0.000000000000D+00 0.000000000000D+00 0.214268257534D-02 0.000000000000D+00  5 1 -1 25 23 21 0 0.49974877D-01 0.67859515D-02 0.14250383D+05 0.14250383D+05 0.14250383D+05 0.12503688D+01  1  2  2  2  5  2       -1 0.108948281677D+00 0.100000000000D+01
-.733075643237D-05 0.000000000000D+00 -.506741187474D-06 0.214268257534D-02 0.000000000000D+00  5 1 -1 25 23 21 2 0.49974877D-01 0.67859515D-02 0.14250383D+05 0.14250383D+05 0.14250383D+05 0.12503688D+01  1  2  3  2  5  2       -1 -.946281163013D-02 0.100000000000D+01
0.913454795590D-05 0.000000000000D+00 0.000000000000D+00 0.214268257534D-02 0.000000000000D+00  5 1 -1 25 23 21 2 0.49974877D-01 0.67859515D-02 0.14250383D+05 0.14250383D+05 0.14250383D+05 0.12503688D+01  1  2 15  2  5  2       -1 0.117912124663D-01 0.100000000000D+01
0.137814327775D-03 0.000000000000D+00 0.000000000000D+00 0.214268257534D-02 0.000000000000D+00  5 1 -1 25 23 21 2 0.49974877D-01 0.92857617D-02 0.19131164D+05 0.19131164D+05 0.19131164D+05 0.12359552D+01  1  2 12  2  5  2       -1 0.109430861332D+00 0.100000000000D+01
-.146757886437D-03 0.000000000000D+00 0.000000000000D+00 0.214268257534D-02 0.000000000000D+00  5 1 -1 25 23 21 2 0.49974877D-01 0.67859515D-02 0.14250383D+05 0.14250383D+05 0.14250383D+05 0.12503688D+01  1  2  4  2  5  2       -1 -.189440509640D+00 0.100000000000D+01
-.211324297481D-03 0.000000000000D+00 -.563426099261D-04 0.214268257534D-02 0.000000000000D+00  5 1 -1 25 23 21 2 0.49974877D-01 0.97644185D-02 0.14250383D+05 0.14250383D+05 0.14250383D+05 0.12503688D+01  1  2  5  2  5  2       -1 -.157750925009D+00 0.100000000000D+01
0.220594828790D-03 0.000000000000D+00 0.528075677255D-04 0.214268257534D-02 0.000000000000D+00  5 1 -1 25 23 21 2 0.49974877D-01 0.67859515D-02 0.14250383D+05 0.14250383D+05 0.14250383D+05 0.12503688D+01  1  2  6  2  5  2       -1 0.284751966687D+00 0.100000000000D+01
0.550079722342D-05 0.000000000000D+00 0.000000000000D+00 0.214268257534D-02 0.000000000000D+00  5 1 21 25 23 1 2 0.49974877D-01 0.92857617D-02 0.19131164D+05 0.19131164D+05 0.19131164D+05 0.12359552D+01  1  2 12  4  5  2       -1 0.669500795833D-01 0.100000000000D+01
-.770380350850D-05 0.000000000000D+00 -.250334335324D-05 0.214268257534D-02 0.000000000000D+00  5 1 21 25 23 1 2 0.49974877D-01 0.97644185D-02 0.14250383D+05 0.14250383D+05 0.14250383D+05 0.12503688D+01  1  2  5  4  5  2       -1 -.875697967810D-01 0.100000000000D+01
  </mgrwgt>
  </event>
  <event>
  4     66 -.49155423E-03 0.50877680E+02 0.75467711E-02 0.11638046E+00
        1 -1    0    0  501    0 0.00000000E+00 0.00000000E+00 0.52378012E+03 0.52378022E+03 0.32000000E+00 0.0000E+00 0.9000E+01
       -1 -1    0    0    0  501 0.00000000E+00 0.00000000E+00 -.32802051E+02 0.32803611E+02 0.32000000E+00 0.0000E+00 0.9000E+01
       25  1    1    2    0    0 -.39728817E+02 0.57329984E+02 0.32096581E+03 0.35143870E+03 0.12500000E+03 0.0000E+00 0.9000E+01
       23  1    1    2    0    0 0.39728817E+02 -.57329984E+02 0.17001226E+03 0.20514513E+03 0.91188000E+02 0.0000E+00 0.9000E+01
#aMCatNLO 1  0  0  2  1 0.93850285D+02 0.00000000D+00  -5  5  0 0.00000000D+00 0.00000000D+00 0.00000000D+00 0.00000000D+00 0.00000000D+00
  <mgrwgt>
 -.1227883409D+00    7    2    0
 0.131078311201726D+03 0.000000000000000D+00 0.000000000000000D+00 0.131078311201726D+03
 0.131078311201726D+03 0.000000000000000D+00 0.000000000000000D+00 -.131078311201726D+03
 0.145019879011427D+03 -.397288171177101D+02 0.573299840663078D+02 0.232520821836134D+02
 0.117136743392025D+03 0.397288171177101D+02 -.573299840663078D+02 -.232520821836134D+02
 0.000000000000000D+00 -.000000000000000D+00 0.000000000000000D+00 -.000000000000000D+00
 0.142118582952234D+03 0.000000000000000D+00 0.000000000000000D+00 0.142118582952234D+03
 0.900106177855243D+03 0.000000000000000D+00 0.000000000000000D+00 -.900106177855243D+03
 0.137771555001018D+03 0.910321399461598D+01 0.522730670278041D+02 0.232520821836134D+02
 0.140677669441538D+03 0.842478509868213D+02 -.619402584248036D+02 -.232520821836134D+02
 0.763775536364921D+03 -.933510649814373D+02 0.966719139699951D+01 -.757987594903009D+03
0.178256833664D-03 0.000000000000D+00 0.000000000000D+00 0.189774801368D-02 0.000000000000D+00  5 1 -1 25 23 21 0 0.80581685D-01 0.50465969D-02 0.16634472D+05 0.16634472D+05 0.16634472D+05 0.12427341D+01  1  2  2  2  5  2       -1 0.125423660468D+00 0.100000000000D+01
-.990000574024D-05 0.000000000000D+00 -.684553177372D-06 0.189774801368D-02 0.000000000000D+00  5 1 -1 25 23 21 2 0.80581685D-01 0.50465969D-02 0.16634472D+05 0.16634472D+05 0.16634472D+05 0.12427341D+01  1  2  3  2  5  2       -1 -.107578428219D-01 0.100000000000D+01
0.123542269947D-04 0.000000000000D+00 0.000000000000D+00 0.189774801368D-02 0.000000000000D+00  5 1 -1 25 23 21 2 0.80581685D-01 0.50465969D-02 0.16634472D+05 0.16634472D+05 0.16634472D+05 0.12427341D+01  1  2 15  2  5  2       -1 0.134247227408D-01 0.100000000000D+01
0.284586749599D-03 0.000000000000D+00 0.000000000000D+00 0.189774801368D-02 0.000000000000D+00  5 1 -1 25 23 21 2 0.80581685D-01 0.33005112D-01 0.33927475D+05 0.33927475D+05 0.33927475D+05 0.12093304D+01  1  2 12  2  5  2       -1 0.155173866230D-01 0.100000000000D+01
-.169335941158D-02 0.000000000000D+00 -.934735189424D-04 0.189774801368D-02 0.000000000000D+00  5 1 -1 25 23 21 2 0.80581685D-01 0.36620829D-01 0.16634472D+05 0.16634472D+05 0.16634472D+05 0.12427341D+01  1  2  5  2  5  2       -1 -.820777735049D-01 0.100000000000D+01
0.654533968754D-04 0.000000000000D+00 0.000000000000D+00 0.189774801368D-02 0.000000000000D+00  5 1 21 25 23 1 2 0.80581685D-01 0.33005112D-01 0.33927475D+05 0.33927475D+05 0.33927475D+05 0.12093304D+01  1  2 12  4  5  2       -1 0.398116622626D-01 0.100000000000D+01
-.419065698213D-03 0.000000000000D+00 -.226109537459D-04 0.189774801368D-02 0.000000000000D+00  5 1 21 25 23 1 2 0.80581685D-01 0.36620829D-01 0.16634472D+05 0.16634472D+05 0.16634472D+05 0.12427341D+01  1  2  5  4  5  2       -1 -.224130156659D+00 0.100000000000D+01
  </mgrwgt>
  </event>
  <event>
  4     66 0.49155423E-03 0.12398557E+03 0.75467711E-02 0.11505608E+00
        1 -1    0    0  501    0 0.00000000E+00 0.00000000E+00 0.10562750E+03 0.10562798E+03 0.32000000E+00 0.0000E+00 0.9000E+01
       -1 -1    0    0    0  501 0.00000000E+00 0.00000000E+00 -.15168555E+03 0.15168589E+03 0.32000000E+00 0.0000E+00 0.9000E+01
       25  1    1    2    0    0 -.41302848E+02 -.43744863E+02 0.78692015E-01 0.13872471E+03 0.12500000E+03 0.0000E+00 0.9000E+01
       23  1    1    2    0    0 0.41302848E+02 0.43744863E+02 -.46136746E+02 0.11858916E+03 0.91188000E+02 0.0000E+00 0.9000E+01
#aMCatNLO 1  0  0  2  1 0.12183600D+03 0.00000000D+00  -5  5  0 0.00000000D+00 0.00000000D+00 0.00000000D+00 0.00000000D+00 0.00000000D+00
  <mgrwgt>
 0.1086794868D+00    5    2    0
 0.126579108026651D+03 0.000000000000000D+00 0.000000000000000D+00 0.126579108026651D+03
 0.126579108026651D+03 0.000000000000000D+00 0.000000000000000D+00 -.126579108026651D+03
 0.141016223222749D+03 -.413028476153940D+02 -.437448634112310D+02 0.253187068390221D+02
 0.112141992830554D+03 0.413028476153940D+02 0.437448634112310D+02 -.253187068390221D+02
 0.000000000000000D+00 0.000000000000000D+00 -.000000000000000D+00 -.000000000000000D+00
 0.178538697565365D+03 0.000000000000000D+00 0.000000000000000D+00 0.178538697565365D+03
 0.237970142783452D+03 0.000000000000000D+00 0.000000000000000D+00 -.237970142783452D+03
 0.163047553862077D+03 -.101200427038142D+03 -.877162879426253D+01 0.253187068390221D+02
 0.117902785111876D+03 -.401371554020708D+01 0.702044768137987D+02 -.253187068390221D+02
 0.135558501374864D+03 0.105214142578349D+03 -.614328480195362D+02 -.594314452180873D+02
0.220376159015D-03 0.000000000000D+00 0.000000000000D+00 0.195589219962D-02 0.000000000000D+00  5 1 -1 25 23 21 0 0.16250447D-01 0.23336302D-01 0.15372423D+05 0.15372423D+05 0.15372423D+05 0.12466101D+01  1  2  2  2  5  2       -1 0.109509753012D+00 0.100000000000D+01
-.122367401199D-04 0.000000000000D+00 -.846302476992D-06 0.195589219962D-02 0.000000000000D+00  5 1 -1 25 23 21 2 0.16250447D-01 0.23336302D-01 0.15372423D+05 0.15372423D+05 0.15372423D+05 0.12466101D+01  1  2  3  2  5  2       -1 -.944963924163D-02 0.100000000000D+01
0.152258845480D-04 0.000000000000D+00 0.000000000000D+00 0.195589219962D-02 0.000000000000D+00  5 1 -1 25 23 21 2 0.16250447D-01 0.23336302D-01 0.15372423D+05 0.15372423D+05 0.15372423D+05 0.12466101D+01  1  2 15  2  5  2       -1 0.117579612465D-01 0.100000000000D+01
-.292974481070D-04 0.000000000000D+00 -.640388484228D-04 0.195589219962D-02 0.000000000000D+00  5 1 -1 25 23 21 2 0.16250447D-01 0.59682024D-01 0.15372423D+05 0.15372423D+05 0.15372423D+05 0.12466101D+01  1  2  5  2  5  2       -1 -.441945618383D-02 0.100000000000D+01
0.864380504594D-06 0.000000000000D+00 -.664396165202D-05 0.195589219962D-02 0.000000000000D+00  5 1 21 25 23 1 2 0.16250447D-01 0.59682024D-01 0.15372423D+05 0.15372423D+05 0.15372423D+05 0.12466101D+01  1  2  5  4  5  2       -1 0.128086798030D-02 0.100000000000D+01
  </mgrwgt>
  </event>
  <event>
  4     66 0.49155423E-03 0.34246724E+03 0.75467711E-02 0.90431348E-01
        1 -1    0    0  501    0 0.00000000E+00 0.00000000E+00 0.84215898E+03 0.84215904E+03 0.32000000E+00 0.0000E+00 0.9000E+01
       -1 -1    0    0    0  501 0.00000000E+00 0.00000000E+00 -.15283000E+03 0.15283033E+03 0.32000000E+00 0.0000E+00 0.9000E+01
       25  1    1    2    0    0 -.78422367E+01 0.32446981E+03 0.20136128E+03 0.40188745E+03 0.12500000E+03 0.0000E+00 0.9000E+01
       23  1    1    2    0    0 0.78422367E+01 -.32446981E+03 0.48796770E+03 0.59310192E+03 0.91188000E+02 0.0000E+00 0.9000E+01
#aMCatNLO 1  0  0  1  1 0.12080797D+04 0.00000000D+00  -5  5  0 0.00000000D+00 0.00000000D+00 0.00000000D+00 0.00000000D+00 0.00000000D+00
  <mgrwgt>
 0.1953053734D+00    5    2    0
 0.358758069805552D+03 0.000000000000000D+00 0.000000000000000D+00 0.358758069805552D+03
 0.358758069805552D+03 0.000000000000000D+00 0.000000000000000D+00 -.358758069805552D+03
 0.363851856727169D+03 -.784223671245662D+01 0.324469812632876D+03 -.106869142679918D+03
 0.353664282883936D+03 0.784223671245662D+01 -.324469812632876D+03 0.106869142679918D+03
 0.000000000000000D+00 0.000000000000000D+00 -.000000000000000D+00 0.000000000000000D+00
 0.172047148223468D+04 0.000000000000000D+00 0.000000000000000D+00 0.172047148223468D+04
 0.106098548530328D+04 0.000000000000000D+00 0.000000000000000D+00 -.106098548530328D+04
 0.124958934511943D+04 -.199192624626395D+03 0.122259961396743D+04 -.106869142679918D+03
 0.155503486433178D+03 -.525438808979003D+02 -.410391261105807D+02 0.106869142679918D+03
 0.137636413598535D+04 0.251736505524295D+03 -.118156048785685D+04 0.659485996931400D+03
0.584974268648D-02 0.000000000000D+00 0.000000000000D+00 0.114748077039D-02 0.000000000000D+00  5 1 -1 25 23 21 0 0.12956295D+00 0.23512338D-01 0.11728381D+06 0.11728381D+06 0.11728381D+06 0.11572644D+01  1  2  2  1  5  1        1 0.191874556736D+00 0.100000000000D+01
-.324132343008D-03 0.000000000000D+00 -.224645521887D-04 0.114748077039D-02 0.000000000000D+00  5 1 -1 25 23 21 2 0.12956295D+00 0.23512338D-01 0.11728381D+06 0.11728381D+06 0.11728381D+06 0.11572644D+01  1  2  3  1  5  1        1 -.142386288451D-01 0.100000000000D+01
0.400037490772D-03 0.000000000000D+00 0.000000000000D+00 0.114748077039D-02 0.000000000000D+00  5 1 -1 25 23 21 2 0.12956295D+00 0.23512338D-01 0.11728381D+06 0.11728381D+06 0.11728381D+06 0.11572644D+01  1  2 15  1  5  1        1 0.175730237297D-01 0.100000000000D+01
0.424802059789D-02 0.000000000000D+00 -.281814460226D-02 0.114748077039D-02 0.000000000000D+00  5 1 -1 25 23 21 2 0.77472075D+00 0.23512338D-01 0.11728381D+06 0.11728381D+06 0.11728381D+06 0.11572644D+01  1  2  5  1  5  1        1 0.954380448306D-04 0.100000000000D+01
0.752823347137D-03 0.000000000000D+00 -.617658111947D-03 0.114748077039D-02 0.000000000000D+00  5 21 -1 25 23 -1 2 0.77472075D+00 0.23512338D-01 0.11728381D+06 0.11728381D+06 0.11728381D+06 0.11572644D+01  1  2  5  3  5  1        1 0.983724228569D-06 0.100000000000D+01
  </mgrwgt>
  </event>
  <event>
  4     66 0.49155423E-03 0.11068470E+03 0.75467711E-02 0.12354261E+00
        1 -1    0    0  501    0 0.00000000E+00 0.00000000E+00 0.20588712E+03 0.20588737E+03 0.32000000E+00 0.0000E+00 0.9000E+01
       -1 -1    0    0    0  501 0.00000000E+00 0.00000000E+00 -.59630302E+02 0.59631161E+02 0.32000000E+00 0.0000E+00 0.9000E+01
       25  1    1    2    0    0 -.23438151E+02 -.20543074E+01 0.90072594E+02 0.15585775E+03 0.12500000E+03 0.0000E+00 0.9000E+01
       23  1    1    2    0    0 0.23438151E+02 0.20543074E+01 0.56184221E+02 0.10966077E+03 0.91188000E+02 0.0000E+00 0.9000E+01
#aMCatNLO 1  0  0  1  1 0.26583768D+02 0.00000000D+00  -5  5  0 0.00000000D+00 0.00000000D+00 0.00000000D+00 0.00000000D+00 0.00000000D+00
  <mgrwgt>
 0.1087362145D+00    4    2    0
 0.110802788755993D+03 0.000000000000000D+00 0.000000000000000D+00 0.110802788755993D+03
 0.110802788755993D+03 0.000000000000000D+00 0.000000000000000D+00 -.110802788755993D+03
 0.127295488845197D+03 -.234381513597342D+02 -.205430743646229D+01 0.505711005736675D+01
 0.943100886667892D+02 0.234381513597342D+02 0.205430743646229D+01 -.505711005736675D+01
 0.000000000000000D+00 -.000000000000000D+00 0.000000000000000D+00 -.000000000000000D+00
 0.114631545715739D+03 0.000000000000000D+00 0.000000000000000D+00 0.114631545715739D+03
 0.169821744532834D+03 0.000000000000000D+00 0.000000000000000D+00 -.169821744532834D+03
 0.127852865464939D+03 -.202051705964090D+02 -.169567663967330D+02 0.505711005736675D+01
 0.953415088402927D+02 0.258412237531741D+02 -.902268013118512D+01 -.505711005736675D+01
 0.612589159433415D+02 -.563605315676506D+01 0.259794465279181D+02 -.551901988170956D+02
0.129102297149D-03 0.000000000000D+00 0.000000000000D+00 0.237732951541D-02 0.000000000000D+00  5 1 -1 25 23 21 0 0.31675026D-01 0.91739778D-02 0.12251103D+05 0.12251103D+05 0.12251103D+05 0.12579714D+01  1  2  2  1  5  1        1 0.118161618237D+00 0.100000000000D+01
-.717233992602D-05 0.000000000000D+00 -.495786814467D-06 0.237732951541D-02 0.000000000000D+00  5 1 -1 25 23 21 2 0.31675026D-01 0.91739778D-02 0.12251103D+05 0.12251103D+05 0.12251103D+05 0.12579714D+01  1  2  3  1  5  1        1 -.103883088722D-01 0.100000000000D+01
0.892947394821D-05 0.000000000000D+00 0.000000000000D+00 0.237732951541D-02 0.000000000000D+00  5 1 -1 25 23 21 2 0.31675026D-01 0.91739778D-02 0.12251103D+05 0.12251103D+05 0.12251103D+05 0.12579714D+01  1  2 15  1  5  1        1 0.129333152635D-01 0.100000000000D+01
-.826466091041D-05 0.000000000000D+00 0.000000000000D+00 0.237732951541D-02 0.000000000000D+00  5 1 -1 25 23 21 2 0.31675026D-01 0.91739778D-02 0.12251103D+05 0.12251103D+05 0.12251103D+05 0.12579714D+01  1  2  4  1  5  1        1 -.119704100958D-01 0.100000000000D+01
  </mgrwgt>
  </event>
  <event>
  4     66 0.49155423E-03 0.17797148E+03 0.75467711E-02 0.10796483E+00
        1 -1    0    0  501    0 0.00000000E+00 0.00000000E+00 0.76502961E+02 0.76503630E+02 0.32000000E+00 0.0000E+00 0.9000E+01
       -1 -1    0    0    0  501 0.00000000E+00 0.00000000E+00 -.54573885E+03 0.54573894E+03 0.32000000E+00 0.0000E+00 0.9000E+01
       25  1    1    2    0    0 0.71907085E+02 0.12098978E+03 -.92231104E+02 0.20962045E+03 0.12500000E+03 0.0000E+00 0.9000E+01
       23  1    1    2    0    0 -.71907085E+02 -.12098978E+03 -.37700478E+03 0.41262212E+03 0.91188000E+02 0.0000E+00 0.9000E+01
#aMCatNLO 1  0  0  2  1 0.20984221D+03 0.00000000D+00  -5  5  0 0.00000000D+00 0.00000000D+00 0.00000000D+00 0.00000000D+00 0.00000000D+00
  <mgrwgt>
 0.9525558543D-01    5    2    0
 0.204330308765417D+03 0.000000000000000D+00 0.000000000000000D+00 0.204330308765417D+03
 0.204330308765417D+03 0.000000000000000D+00 0.000000000000000D+00 -.204330308765417D+03
 0.213273853044489D+03 0.719070845308031D+02 0.120989784851987D+03 0.100257566039638D+03
 0.195386764486345D+03 -.719070845308031D+02 -.120989784851987D+03 -.100257566039638D+03
 0.000000000000000D+00 0.000000000000000D+00 -.000000000000000D+00 -.000000000000000D+00
 0.282512690132346D+03 0.000000000000000D+00 0.000000000000000D+00 0.282512690132346D+03
 0.438113148238596D+03 0.000000000000000D+00 0.000000000000000D+00 -.438113148238596D+03
 0.244159750236496D+03 -.195254464538886D+02 0.183183408168240D+03 0.100257566039638D+03
 0.215228160542814D+03 -.153981426219347D+03 -.651617263269372D+02 -.100257566039638D+03
 0.261237927591632D+03 0.173506872673236D+03 -.118021681841303D+03 -.155600458106250D+03
0.125072545930D-02 0.000000000000D+00 0.000000000000D+00 0.113295411451D-02 0.000000000000D+00  5 1 -1 25 23 21 0 0.11769745D-01 0.83959881D-01 0.31673848D+05 0.31673848D+05 0.31673848D+05 0.12124314D+01  1  2  2  2  5  2       -1 0.945205054805D-01 0.100000000000D+01
-.678731756386D-04 0.000000000000D+00 -.480311508728D-05 0.113295411451D-02 0.000000000000D+00  5 1 -1 25 23 21 2 0.11769745D-01 0.83959881D-01 0.31673848D+05 0.31673848D+05 0.31673848D+05 0.12124314D+01  1  2  3  2  5  2       -1 -.754009061457D-02 0.100000000000D+01
0.859641904678D-04 0.000000000000D+00 0.000000000000D+00 0.113295411451D-02 0.000000000000D+00  5 1 -1 25 23 21 2 0.11769745D-01 0.83959881D-01 0.31673848D+05 0.31673848D+05 0.31673848D+05 0.12124314D+01  1  2 15  2  5  2       -1 0.954983731993D-02 0.100000000000D+01
-.161206258605D-03 0.000000000000D+00 -.341732029866D-03 0.113295411451D-02 0.000000000000D+00  5 1 -1 25 23 21 2 0.11769745D-01 0.21963335D+00 0.31673848D+05 0.31673848D+05 0.31673848D+05 0.12124314D+01  1  2  5  2  5  2       -1 -.154619110503D-02 0.100000000000D+01
0.329056828562D-05 0.000000000000D+00 -.364486755303D-04 0.113295411451D-02 0.000000000000D+00  5 1 21 25 23 1 2 0.11769745D-01 0.21963335D+00 0.31673848D+05 0.31673848D+05 0.31673848D+05 0.12124314D+01  1  2  5  4  5  2       -1 0.271524349369D-03 0.100000000000D+01
  </mgrwgt>
  </event>
  <event>
  4     66 -.49155423E-03 0.64738859E+02 0.75467711E-02 0.12614293E+00
        3 -1    0    0  501    0 0.00000000E+00 0.00000000E+00 0.30196509E+03 0.30196550E+03 0.50000000E+00 0.0000E+00 0.9000E+01
       -3 -1    0    0    0  501 0.00000000E+00 0.00000000E+00 -.46207299E+02 0.46210005E+02 0.50000000E+00 0.0000E+00 0.9000E+01
       25  1    1    2    0    0 -.57869037E+01 0.13373894E+02 0.78547221E+02 0.14834762E+03 0.12500000E+03 0.0000E+00 0.9000E+01
       23  1    1    2    0    0 0.57869037E+01 -.13373894E+02 0.17721057E+03 0.19982789E+03 0.91188000E+02 0.0000E+00 0.9000E+01
#aMCatNLO 1  0  0  1  2 0.87854974D+00 0.00000000D+00  -5  5  0 0.00000000D+00 0.00000000D+00 0.00000000D+00 0.00000000D+00 0.00000000D+00
  <mgrwgt>
 -.1519997669D-01   11    2    0
 0.118125079049198D+03 0.000000000000000D+00 0.000000000000000D+00 0.118125079049198D+03
 0.118125079049198D+03 0.000000000000000D+00 0.000000000000000D+00 -.118125079049198D+03
 0.133595436222368D+03 -.578690372089798D+01 0.133738937820558D+02 -.448373871883283D+02
 0.102654721876028D+03 0.578690372089798D+01 -.133738937820558D+02 0.448373871883283D+02
 0.000000000000000D+00 -.000000000000000D+00 0.000000000000000D+00 0.000000000000000D+00
 0.121642787184198D+03 0.000000000000000D+00 0.000000000000000D+00 0.121642787184198D+03
 0.118180763140197D+03 0.000000000000000D+00 0.000000000000000D+00 -.118180763140197D+03
 0.133546334038635D+03 -.578005319281887D+01 0.128772291418161D+02 -.448373871883283D+02
 0.102705457597248D+03 0.579216993469314D+01 -.137556953234546D+02 0.448373871883283D+02
 0.357175868851139D+01 -.121167418742738D-01 0.878466181638428D+00 0.346202404400093D+01
0.116715199250D-03 0.000000000000D+00 0.000000000000D+00 0.195337798451D-02 0.000000000000D+00  5 3 -3 25 23 21 0 0.46456408D-01 0.71090552D-02 0.11901887D+05 0.11901887D+05 0.11901887D+05 0.12594422D+01  1  2  2  1  5  1        3 0.154892683619D-01 0.100000000000D+01
-.643432756836D-05 0.000000000000D+00 -.448217096938D-06 0.195337798451D-02 0.000000000000D+00  5 3 -3 25 23 21 2 0.46456408D-01 0.71090552D-02 0.11901887D+05 0.11901887D+05 0.11901887D+05 0.12594422D+01  1  2  3  1  5  1        3 -.135445046581D-02 0.100000000000D+01
0.799120377281D-05 0.000000000000D+00 0.000000000000D+00 0.195337798451D-02 0.000000000000D+00  5 3 -3 25 23 21 2 0.46456408D-01 0.71090552D-02 0.11901887D+05 0.11901887D+05 0.11901887D+05 0.12594422D+01  1  2 15  1  5  1        3 0.168217883804D-02 0.100000000000D+01
0.798974815047D-08 0.000000000000D+00 0.000000000000D+00 0.195337798451D-02 0.000000000000D+00  5 3 -3 25 23 21 2 0.47850634D-01 0.71090552D-02 0.11998394D+05 0.11998394D+05 0.11998394D+05 0.12590309D+01  1  2 12  1  5  1        3 0.158701397106D-05 0.100000000000D+01
-.183664471933D-01 0.000000000000D+00 0.000000000000D+00 0.195337798451D-02 0.000000000000D+00  5 3 -3 25 23 21 2 0.46456408D-01 0.71090552D-02 0.11901887D+05 0.11901887D+05 0.11901887D+05 0.12594422D+01  1  2  4  1  5  1        3 -.386620710431D+01 0.100000000000D+01
-.216653982686D-01 0.000000000000D+00 -.572778126510D-03 0.195337798451D-02 0.000000000000D+00  5 3 -3 25 23 21 2 0.47851367D-01 0.71090552D-02 0.11901887D+05 0.11901887D+05 0.11901887D+05 0.12594422D+01  1  2  5  1  5  1        3 -.430294515871D+01 0.100000000000D+01
0.216731088447D-01 0.000000000000D+00 0.572527544643D-03 0.195337798451D-02 0.000000000000D+00  5 3 -3 25 23 21 2 0.46456408D-01 0.71090552D-02 0.11901887D+05 0.11901887D+05 0.11901887D+05 0.12594422D+01  1  2  6  1  5  1        3 0.456227197923D+01 0.100000000000D+01
0.183745184685D-01 0.000000000000D+00 0.000000000000D+00 0.195337798451D-02 0.214050427910D-01  5 3 -3 25 23 21 2 0.47839857D-01 0.71124064D-02 0.11998394D+05 0.11998394D+05 0.11998394D+05 0.12590309D+01  1  2 11  1  5  1        3 0.364861186623D+01 0.100000000000D+01
0.287451905940D-09 0.000000000000D+00 0.000000000000D+00 0.195337798451D-02 0.000000000000D+00  5 21 -3 25 23 -3 2 0.47850634D-01 0.71090552D-02 0.11998394D+05 0.11998394D+05 0.11998394D+05 0.12590309D+01  1  2 12  3  5  1        3 0.116747086319D-05 0.100000000000D+01
-.114842908654D-03 0.000000000000D+00 -.304093819046D-05 0.195337798451D-02 0.000000000000D+00  5 21 -3 25 23 -3 2 0.47851367D-01 0.71090552D-02 0.11901887D+05 0.11901887D+05 0.11901887D+05 0.12594422D+01  1  2  5  3  5  1        3 -.466565783418D+00 0.100000000000D+01
0.969929057020D-04 0.000000000000D+00 0.000000000000D+00 0.195337798451D-02 0.112760569082D-03  5 21 -3 25 23 -3 2 0.47839857D-01 0.71124064D-02 0.11998394D+05 0.11998394D+05 0.11998394D+05 0.12590309D+01  1  2 11  3  5  1        3 0.393814473068D+00 0.100000000000D+01
  </mgrwgt>
  </event>
  <event>
  5     66 0.49155423E-03 0.15262604E+03 0.75467711E-02 0.10944003E+00
        1 -1    0    0  501    0 0.00000000E+00 0.00000000E+00 0.18815717E+04 0.18815717E+04 0.32000000E+00 0.0000E+00 0.9000E+01
       21 -1    0    0  502  501 0.00000000E+00 0.00000000E+00 -.42881247E+02 0.42887806E+02 0.75000000E+00 0.0000E+00 0.9000E+01
       25  1    1    2    0    0 -.41757846E+02 0.62521444E+01 0.50641174E+03 0.52331698E+03 0.12500000E+03 0.0000E+00 0.9000E+01
       23  1    1    2    0    0 0.61918847E+02 -.20515167E+03 0.76527977E+03 0.79993095E+03 0.91188000E+02 0.0000E+00 0.9000E+01
        1  1    1    2  502    0 -.20161001E+02 0.19889953E+03 0.56699893E+03 0.60121160E+03 0.32000000E+00 0.0000E+00 0.9000E+01
#aMCatNLO 2  0  0  2  2 0.19991870D+03 0.00000000D+00  -5  5  0 0.00000000D+00 0.00000000D+00 0.00000000D+00 0.00000000D+00 0.00000000D+00
  <mgrwgt>
 0.1760640818D-01    1    2    0
 0.153148863821262D+03 0.000000000000000D+00 0.000000000000000D+00 0.153148863821262D+03
 0.153148863821262D+03 0.000000000000000D+00 0.000000000000000D+00 -.153148863821262D+03
 0.165081287728322D+03 -.506860454091383D+02 0.943338118603754D+02 0.126050901906810D+02
 0.141216439914201D+03 0.506860454091383D+02 -.943338118603754D+02 -.126050901906810D+02
 0.000000000000000D+00 -.000000000000000D+00 0.000000000000000D+00 -.000000000000000D+00
 0.265215619486167D+03 0.000000000000000D+00 0.000000000000000D+00 0.265215619486167D+03
 0.304244546420780D+03 0.000000000000000D+00 0.000000000000000D+00 -.304244546420780D+03
 0.132539410533548D+03 -.417578463977201D+02 0.625214443928456D+01 0.126050901906810D+02
 0.233227983145876D+03 0.619188472516179D+02 -.205151672756058D+03 -.126050901906810D+02
 0.203692772227522D+03 -.201610008538978D+02 0.198899528316774D+03 -.390289269346128D+02
0.171348923663D-04 0.000000000000D+00 0.000000000000D+00 0.169046644416D-02 0.516277801363D-07  5 1 21 25 23 1 2 0.28947294D+00 0.65976186D-02 0.79734076D+05 0.79734076D+05 0.79734076D+05 0.11727165D+01  1  2  1  4  5  2       -1 0.176064081807D-01 0.100000000000D+01
  </mgrwgt>
  </event>
  <event>
  4     66 0.49155423E-03 0.13813961E+03 0.75467711E-02 0.93238317E-01
        1 -1    0    0  501    0 0.00000000E+00 0.00000000E+00 0.34951045E+03 0.34951060E+03 0.32000000E+00 0.0000E+00 0.9000E+01
       -1 -1    0    0    0  501 0.00000000E+00 0.00000000E+00 -.72778782E+02 0.72779486E+02 0.32000000E+00 0.0000E+00 0.9000E+01
       25  1    1    2    0    0 -.18789402E+02 0.83272977E+02 0.43136446E+02 0.15739499E+03 0.12500000E+03 0.0000E+00 0.9000E+01
       23  1    1    2    0    0 0.18789402E+02 -.83272977E+02 0.23359522E+03 0.26489509E+03 0.91188000E+02 0.0000E+00 0.9000E+01
#aMCatNLO 1  0  0  2  2 0.97020474D+03 0.00000000D+00  -5  5  0 0.00000000D+00 0.00000000D+00 0.00000000D+00 0.00000000D+00 0.00000000D+00
  <mgrwgt>
 0.1592980485D+00    3    2    0
 0.159490202311237D+03 0.000000000000000D+00 0.000000000000000D+00 0.159490202311237D+03
 0.159490202311237D+03 0.000000000000000D+00 0.000000000000000D+00 -.159490202311237D+03
 0.170948192441777D+03 -.187894024338575D+02 0.832729770082477D+02 -.794408846594326D+02
 0.148032212180697D+03 0.187894024338575D+02 -.832729770082477D+02 0.794408846594326D+02
 0.000000000000000D+00 0.000000000000000D+00 -.000000000000000D+00 0.000000000000000D+00
 0.105614488716992D+04 0.000000000000000D+00 0.000000000000000D+00 0.105614488716992D+04
 0.942042512791546D+03 0.000000000000000D+00 0.000000000000000D+00 -.942042512791546D+03
 0.806296405276253D+03 -.224219231788132D+03 0.760199825771011D+03 -.794408846594326D+02
 0.214999703421510D+03 -.575247410737796D+02 0.168195336250024D+03 0.794408846594326D+02
 0.976891291263700D+03 0.281743972861912D+03 -.928395162021034D+03 0.114102374378372D+03
0.437055176596D-03 0.000000000000D+00 0.000000000000D+00 0.130692038241D-02 0.000000000000D+00  5 1 -1 25 23 21 0 0.53770904D-01 0.11196801D-01 0.19082552D+05 0.19082552D+05 0.19082552D+05 0.12360775D+01  1  2  2  2  5  2       -1 0.155779822699D+00 0.100000000000D+01
-.236710739253D-04 0.000000000000D+00 -.167840695740D-05 0.130692038241D-02 0.000000000000D+00  5 1 -1 25 23 21 2 0.53770904D-01 0.11196801D-01 0.19082552D+05 0.19082552D+05 0.19082552D+05 0.12360775D+01  1  2  3  2  5  2       -1 -.128909321969D-01 0.100000000000D+01
0.301314431768D-04 0.000000000000D+00 0.000000000000D+00 0.130692038241D-02 0.000000000000D+00  5 1 -1 25 23 21 2 0.53770904D-01 0.11196801D-01 0.19082552D+05 0.19082552D+05 0.19082552D+05 0.12360775D+01  1  2 15  2  5  2       -1 0.164091579542D-01 0.100000000000D+01
  </mgrwgt>
  </event>
  <event>
  4     66 0.49155423E-03 0.11198039E+03 0.75467711E-02 0.11940758E+00
        1 -1    0    0  501    0 0.00000000E+00 0.00000000E+00 0.78200958E+02 0.78201613E+02 0.32000000E+00 0.0000E+00 0.9000E+01
       -1 -1    0    0    0  501 0.00000000E+00 0.00000000E+00 -.16430943E+03 0.16430974E+03 0.32000000E+00 0.0000E+00 0.9000E+01
       25  1    1    2    0    0 0.35532028E+01 -.28691017E+02 -.67805218E+02 0.14511494E+03 0.12500000E+03 0.0000E+00 0.9000E+01
       23  1    1    2    0    0 -.35532028E+01 0.28691017E+02 -.18303252E+02 0.97396407E+02 0.91188000E+02 0.0000E+00 0.9000E+01
#aMCatNLO 1  0  0  1  1 0.74565199D+02 0.00000000D+00  -5  5  0 0.00000000D+00 0.00000000D+00 0.00000000D+00 0.00000000D+00 0.00000000D+00
  <mgrwgt>
 0.1214618073D+00    3    2    0
 0.113354628406011D+03 0.000000000000000D+00 0.000000000000000D+00 0.113354628406011D+03
 0.113354628406011D+03 0.000000000000000D+00 0.000000000000000D+00 -.113354628406011D+03
 0.129476044793656D+03 0.355320281008438D+01 -.286910165428733D+02 -.174139741281444D+02
 0.972332120183670D+02 -.355320281008438D+01 0.286910165428733D+02 0.174139741281444D+02
 0.000000000000000D+00 0.000000000000000D+00 -.000000000000000D+00 -.000000000000000D+00
 0.135037050903298D+03 0.000000000000000D+00 0.000000000000000D+00 0.135037050903298D+03
 0.207814096203326D+03 0.000000000000000D+00 0.000000000000000D+00 -.207814096203326D+03
 0.127693863628879D+03 -.184248435405629D+02 0.616453194011772D+01 -.174139741281444D+02
 0.110962910972917D+03 -.213458911895097D+02 0.569088982670851D+02 0.174139741281444D+02
 0.104194372504829D+03 0.397707347300725D+02 -.630734302072028D+02 -.727770453000282D+02
0.186056892914D-03 0.000000000000D+00 0.000000000000D+00 0.226747396465D-02 0.000000000000D+00  5 1 -1 25 23 21 0 0.12030991D-01 0.25278448D-01 0.12539607D+05 0.12539607D+05 0.12539607D+05 0.12567914D+01  1  2  2  1  5  1        1 0.118903363266D+00 0.100000000000D+01
-.103346242549D-04 0.000000000000D+00 -.714507458696D-06 0.226747396465D-02 0.000000000000D+00  5 1 -1 25 23 21 2 0.12030991D-01 0.25278448D-01 0.12539607D+05 0.12539607D+05 0.12539607D+05 0.12567914D+01  1  2  3  1  5  1        1 -.104320460204D-01 0.100000000000D+01
0.128691757104D-04 0.000000000000D+00 0.000000000000D+00 0.226747396465D-02 0.000000000000D+00  5 1 -1 25 23 21 2 0.12030991D-01 0.25278448D-01 0.12539607D+05 0.12539607D+05 0.12539607D+05 0.12567914D+01  1  2 15  1  5  1        1 0.129904900212D-01 0.100000000000D+01
  </mgrwgt>
  </event>
  <event>
  4     66 0.49155423E-03 0.11609969E+03 0.75467711E-02 0.11640061E+00
        1 -1    0    0  501    0 0.00000000E+00 0.00000000E+00 0.18870946E+04 0.18870946E+04 0.32000000E+00 0.0000E+00 0.9000E+01
       -1 -1    0    0    0  501 0.00000000E+00 0.00000000E+00 -.96543955E+01 0.96596973E+01 0.32000000E+00 0.0000E+00 0.9000E+01
       25  1    1    2    0    0 0.29068758E+02 0.30195627E+02 0.15134618E+04 0.15191934E+04 0.12500000E+03 0.0000E+00 0.9000E+01
       23  1    1    2    0    0 -.29068758E+02 -.30195627E+02 0.36397833E+03 0.37756091E+03 0.91188000E+02 0.0000E+00 0.9000E+01
#aMCatNLO 1  0  0  2  2 0.11107342D+03 0.00000000D+00  -5  5  0 0.00000000D+00 0.00000000D+00 0.00000000D+00 0.00000000D+00 0.00000000D+00
  <mgrwgt>
 0.1486495734D+00    5    2    0
 0.134995596402915D+03 0.000000000000000D+00 0.000000000000000D+00 0.134995596402915D+03
 0.134995596402915D+03 0.000000000000000D+00 0.000000000000000D+00 -.134995596402915D+03
 0.148532609555150D+03 0.290687578961192D+02 0.301956272209962D+02 0.684117498122212D+02
 0.121458583250681D+03 -.290687578961192D+02 -.301956272209962D+02 -.684117498122212D+02
 0.000000000000000D+00 -.000000000000000D+00 0.000000000000000D+00 -.000000000000000D+00
 0.194460880201575D+03 0.000000000000000D+00 0.000000000000000D+00 0.194460880201575D+03
 0.209583409360529D+03 0.000000000000000D+00 0.000000000000000D+00 -.209583409360529D+03
 0.167117043083247D+03 0.870216695075942D+02 0.708290989841371D+01 0.684117498122212D+02
 0.124829096643144D+03 0.161493756407900D+02 -.482294741707400D+02 -.684117498122212D+02
 0.112098149835713D+03 -.103171045148384D+03 0.411465642723263D+02 -.151225291589543D+02
0.299655111645D-03 0.000000000000D+00 0.000000000000D+00 0.150667006514D-02 0.000000000000D+00  5 1 -1 25 23 21 0 0.29032265D+00 0.14857015D-02 0.13479139D+05 0.13479139D+05 0.13479139D+05 0.12531505D+01  1  2  2  2  5  2       -1 0.125046422567D+00 0.100000000000D+01
-.161872576008D-04 0.000000000000D+00 -.115075452972D-05 0.150667006514D-02 0.000000000000D+00  5 1 -1 25 23 21 2 0.29032265D+00 0.14857015D-02 0.13479139D+05 0.13479139D+05 0.13479139D+05 0.12531505D+01  1  2  3  2  5  2       -1 -.106078976371D-01 0.100000000000D+01
0.205903793443D-04 0.000000000000D+00 0.000000000000D+00 0.150667006514D-02 0.000000000000D+00  5 1 -1 25 23 21 2 0.29032265D+00 0.14857015D-02 0.13479139D+05 0.13479139D+05 0.13479139D+05 0.12531505D+01  1  2 15  2  5  2       -1 0.134933687831D-01 0.100000000000D+01
0.449662700873D-05 0.000000000000D+00 -.888142938713D-04 0.150667006514D-02 0.000000000000D+00  5 1 -1 25 23 21 2 0.29032265D+00 0.36618568D-02 0.13479139D+05 0.13479139D+05 0.13479139D+05 0.12531505D+01  1  2  5  2  5  2       -1 0.802440509028D-03 0.100000000000D+01
0.597247016230D-05 0.000000000000D+00 -.879961240972D-05 0.150667006514D-02 0.000000000000D+00  5 1 21 25 23 1 2 0.29032265D+00 0.36618568D-02 0.13479139D+05 0.13479139D+05 0.13479139D+05 0.12531505D+01  1  2  5  4  5  2       -1 0.199152391627D-01 0.100000000000D+01
  </mgrwgt>
  </event>
  <event>
  4     66 0.49155423E-03 0.16347970E+03 0.75467711E-02 0.10853956E+00
        3 -1    0    0  501    0 0.00000000E+00 0.00000000E+00 0.92251822E+02 0.92253177E+02 0.50000000E+00 0.0000E+00 0.9000E+01
       -3 -1    0    0    0  501 0.00000000E+00 0.00000000E+00 -.30289519E+03 0.30289560E+03 0.50000000E+00 0.0000E+00 0.9000E+01
       25  1    1    2    0    0 0.43386976E+02 -.11400883E+03 -.71063135E+02 0.18856143E+03 0.12500000E+03 0.0000E+00 0.9000E+01
       23  1    1    2    0    0 -.43386976E+02 0.11400883E+03 -.13958023E+03 0.20658735E+03 0.91188000E+02 0.0000E+00 0.9000E+01
#aMCatNLO 1  0  0  1  2 0.21065542D+03 0.00000000D+00  -5  5  0 0.00000000D+00 0.00000000D+00 0.00000000D+00 0.00000000D+00 0.00000000D+00
  <mgrwgt>
 0.3686419274D-01    5    2    0
 0.167161545364455D+03 0.000000000000000D+00 0.000000000000000D+00 0.167161545364455D+03
 0.167161545364455D+03 0.000000000000000D+00 0.000000000000000D+00 -.167161545364455D+03
 0.178093707782646D+03 0.433869759385601D+02 -.114008825183099D+03 0.348127397808169D+02
 0.156229382946264D+03 -.433869759385601D+02 0.114008825183099D+03 -.348127397808169D+02
 0.000000000000000D+00 -.000000000000000D+00 -.000000000000000D+00 0.000000000000000D+00
 0.371832497119050D+03 0.000000000000000D+00 0.000000000000000D+00 0.371832497119050D+03
 0.261242533356562D+03 0.000000000000000D+00 0.000000000000000D+00 -.261242533356562D+03
 0.159552436384070D+03 0.886346999514840D+02 -.276395200673980D+02 0.348127397808169D+02
 0.235602765634686D+03 0.912217668966520D+01 0.214238817379363D+03 -.348127397808169D+02
 0.237919828456858D+03 -.977568766411492D+02 -.186599297311965D+03 0.110589963762488D+03
0.735154247050D-03 0.000000000000D+00 0.000000000000D+00 0.154268738879D-02 0.000000000000D+00  5 3 -3 25 23 21 0 0.14192724D-01 0.46599396D-01 0.26725612D+05 0.26725612D+05 0.26725612D+05 0.12202020D+01  1  2  2  1  5  1        3 0.328721988573D-01 0.100000000000D+01
-.408172705410D-04 0.000000000000D+00 -.282318587923D-05 0.154268738879D-02 0.000000000000D+00  5 3 -3 25 23 21 2 0.14192724D-01 0.46599396D-01 0.26725612D+05 0.26725612D+05 0.26725612D+05 0.12202020D+01  1  2  3  1  5  1        3 -.271742571189D-02 0.100000000000D+01
0.506334287965D-04 0.000000000000D+00 0.000000000000D+00 0.154268738879D-02 0.000000000000D+00  5 3 -3 25 23 21 2 0.14192724D-01 0.46599396D-01 0.26725612D+05 0.26725612D+05 0.26725612D+05 0.12202020D+01  1  2 15  1  5  1        3 0.337094027771D-02 0.100000000000D+01
0.679051156786D-04 0.000000000000D+00 -.283237752273D-03 0.154268738879D-02 0.000000000000D+00  5 3 -3 25 23 21 2 0.47790770D-01 0.46599396D-01 0.26725612D+05 0.26725612D+05 0.26725612D+05 0.12202020D+01  1  2  5  1  5  1        3 0.489351503621D-03 0.100000000000D+01
0.200824500487D-04 0.000000000000D+00 -.399663865247D-04 0.154268738879D-02 0.000000000000D+00  5 21 -3 25 23 -3 2 0.47790770D-01 0.46599396D-01 0.26725612D+05 0.26725612D+05 0.26725612D+05 0.12202020D+01  1  2  5  3  5  1        3 0.284912781138D-02 0.100000000000D+01
  </mgrwgt>
  </event>
  <event>
  4     66 0.49155423E-03 0.51937877E+02 0.75467711E-02 0.12093808E+00
        3 -1    0    0  501    0 0.00000000E+00 0.00000000E+00 0.12216265E+03 0.12216367E+03 0.50000000E+00 0.0000E+00 0.9000E+01
       -3 -1    0    0    0  501 0.00000000E+00 0.00000000E+00 -.12701021E+03 0.12701119E+03 0.50000000E+00 0.0000E+00 0.9000E+01
       25  1    1    2    0    0 0.59535309E+02 0.14701691E+02 -.18942728E+01 0.13924504E+03 0.12500000E+03 0.0000E+00 0.9000E+01
       23  1    1    2    0    0 -.59535309E+02 -.14701691E+02 -.29532920E+01 0.10992982E+03 0.91188000E+02 0.0000E+00 0.9000E+01
#aMCatNLO 1  0  0  2  1 0.34456563D+02 0.00000000D+00  -5  5  0 0.00000000D+00 0.00000000D+00 0.00000000D+00 0.00000000D+00 0.00000000D+00
  <mgrwgt>
 0.3283011741D-01    9    2    0
 0.124563852150624D+03 0.000000000000000D+00 0.000000000000000D+00 0.124563852150624D+03
 0.124563852150624D+03 0.000000000000000D+00 0.000000000000000D+00 -.124563852150624D+03
 0.139234538167866D+03 0.595353087041586D+02 0.147016905509244D+02 0.814819774123949D+00
 0.109893166133381D+03 -.595353087041586D+02 -.147016905509244D+02 -.814819774123949D+00
 0.000000000000000D+00 -.000000000000000D+00 0.000000000000000D+00 -.000000000000000D+00
 0.135131385724970D+03 0.000000000000000D+00 0.000000000000000D+00 0.135131385724970D+03
 0.157386913948579D+03 0.000000000000000D+00 0.000000000000000D+00 -.157386913948579D+03
 0.148543667249496D+03 0.792387208073442D+02 0.126799950110592D+02 0.814819774123949D+00
 0.102955572835665D+03 -.449621188635027D+02 -.161969926208486D+02 -.814819774123949D+00
 0.410190595883876D+02 -.342766019438415D+02 0.351699760978943D+01 -.222555282236093D+02
0.193305273036D-03 0.000000000000D+00 0.000000000000D+00 0.205368278378D-02 0.000000000000D+00  5 3 -3 25 23 21 0 0.18794407D-01 0.19540187D-01 0.15515480D+05 0.15515480D+05 0.15515480D+05 0.12461532D+01  1  2  2  2  5  2       -3 0.256760560783D-01 0.100000000000D+01
-.107391818292D-04 0.000000000000D+00 -.742343146907D-06 0.205368278378D-02 0.000000000000D+00  5 3 -3 25 23 21 2 0.18794407D-01 0.19540187D-01 0.15515480D+05 0.15515480D+05 0.15515480D+05 0.12461532D+01  1  2  3  2  5  2       -3 -.221512709677D-02 0.100000000000D+01
0.133634102108D-04 0.000000000000D+00 0.000000000000D+00 0.205368278378D-02 0.000000000000D+00  5 3 -3 25 23 21 2 0.18794407D-01 0.19540187D-01 0.15515480D+05 0.15515480D+05 0.15515480D+05 0.12461532D+01  1  2 15  2  5  2       -3 0.275641594805D-02 0.100000000000D+01
0.183301858484D-03 0.000000000000D+00 0.000000000000D+00 0.205368278378D-02 0.000000000000D+00  5 3 -3 25 23 21 2 0.18794407D-01 0.25353158D-01 0.20441900D+05 0.20441900D+05 0.20441900D+05 0.12327825D+01  1  2 12  2  5  2       -3 0.237847702805D-01 0.100000000000D+01
-.191147513910D-03 0.000000000000D+00 0.000000000000D+00 0.205368278378D-02 0.000000000000D+00  5 3 -3 25 23 21 2 0.18794407D-01 0.19540187D-01 0.15515480D+05 0.15515480D+05 0.15515480D+05 0.12461532D+01  1  2  4  2  5  2       -3 -.394272156179D-01 0.100000000000D+01
-.326730121506D-03 0.000000000000D+00 -.919623147553D-04 0.205368278378D-02 0.000000000000D+00  5 3 -3 25 23 21 2 0.18794407D-01 0.26601617D-01 0.15515480D+05 0.15515480D+05 0.15515480D+05 0.12461532D+01  1  2  5  2  5  2       -3 -.388685580633D-01 0.100000000000D+01
0.342864156772D-03 0.000000000000D+00 0.877532853608D-04 0.205368278378D-02 0.000000000000D+00  5 3 -3 25 23 21 2 0.18794407D-01 0.19540187D-01 0.15515480D+05 0.15515480D+05 0.15515480D+05 0.12461532D+01  1  2  6  2  5  2       -3 0.707211867955D-01 0.100000000000D+01
0.639285337062D-05 0.000000000000D+00 0.000000000000D+00 0.205368278378D-02 0.000000000000D+00  5 3 21 25 23 3 2 0.18794407D-01 0.25353158D-01 0.20441900D+05 0.20441900D+05 0.20441900D+05 0.12327825D+01  1  2 12  4  5  2       -3 0.173926173649D-01 0.100000000000D+01
-.107343497594D-04 0.000000000000D+00 -.362724737294D-05 0.205368278378D-02 0.000000000000D+00  5 3 21 25 23 3 2 0.18794407D-01 0.26601617D-01 0.15515480D+05 0.15515480D+05 0.15515480D+05 0.12461532D+01  1  2  5  4  5  2       -3 -.269900282756D-01 0.100000000000D+01
  </mgrwgt>
  </event>
  <event>
  4     66 0.49155423E-03 0.58653923E+02 0.75467711E-02 0.11865036E+00
        3 -1    0    0  501    0 0.00000000E+00 0.00000000E+00 0.71146249E+02 0.71148005E+02 0.50000000E+00 0.0000E+00 0.9000E+01
       -3 -1    0    0    0  501 0.00000000E+00 0.00000000E+00 -.33340211E+03 0.33340248E+03 0.50000000E+00 0.0000E+00 0.9000E+01
       25  1    1    2    0    0 -.97825259E+02 -.20611844E+02 -.84031297E+02 0.18077856E+03 0.12500000E+03 0.0000E+00 0.9000E+01
       23  1    1    2    0    0 0.97825259E+02 0.20611844E+02 -.17822456E+03 0.22377193E+03 0.91188000E+02 0.0000E+00 0.9000E+01
#aMCatNLO 1  0  0  2  1 0.27215396D+02 0.00000000D+00  -5  5  0 0.00000000D+00 0.00000000D+00 0.00000000D+00 0.00000000D+00 0.00000000D+00
  <mgrwgt>
 0.3286291238D-01    9    2    0
 0.154015390315977D+03 0.000000000000000D+00 0.000000000000000D+00 0.154015390315977D+03
 0.154015390315977D+03 0.000000000000000D+00 0.000000000000000D+00 -.154015390315977D+03
 0.165880679624083D+03 -.978252586566079D+02 -.206118437254381D+02 0.435519292288373D+02
 0.142150101007870D+03 0.978252586566079D+02 0.206118437254381D+02 -.435519292288373D+02
 0.000000000000000D+00 -.000000000000000D+00 0.000000000000000D+00 -.000000000000000D+00
 0.166112609754663D+03 0.000000000000000D+00 0.000000000000000D+00 0.166112609754663D+03
 0.170720905214453D+03 0.000000000000000D+00 0.000000000000000D+00 -.170720905214453D+03
 0.158478023337009D+03 -.838590800441579D+02 -.236889855291339D+02 0.435519292288373D+02
 0.150752698931285D+03 0.110437014662204D+03 0.178331193012612D+02 -.435519292288373D+02
 0.276027927008228D+02 -.265779346180461D+02 0.585586622787272D+01 -.460829545979017D+01
0.431684187195D-03 0.000000000000D+00 0.000000000000D+00 0.158040390767D-02 0.000000000000D+00  5 3 -3 25 23 21 0 0.10945741D-01 0.51292796D-01 0.21811648D+05 0.21811648D+05 0.21811648D+05 0.12297016D+01  1  2  2  2  5  2       -3 0.243698587036D-01 0.100000000000D+01
-.239311335266D-04 0.000000000000D+00 -.165778094389D-05 0.158040390767D-02 0.000000000000D+00  5 3 -3 25 23 21 2 0.10945741D-01 0.51292796D-01 0.21811648D+05 0.21811648D+05 0.21811648D+05 0.12297016D+01  1  2  3  2  5  2       -3 -.204291178252D-02 0.100000000000D+01
0.297832190873D-04 0.000000000000D+00 0.000000000000D+00 0.158040390767D-02 0.000000000000D+00  5 3 -3 25 23 21 2 0.10945741D-01 0.51292796D-01 0.21811648D+05 0.21811648D+05 0.21811648D+05 0.12297016D+01  1  2 15  2  5  2       -3 0.254248254172D-02 0.100000000000D+01
0.461761503450D-03 0.000000000000D+00 0.000000000000D+00 0.158040390767D-02 0.000000000000D+00  5 3 -3 25 23 21 2 0.10945741D-01 0.58683820D-01 0.26230438D+05 0.26230438D+05 0.26230438D+05 0.12210669D+01  1  2 12  2  5  2       -3 0.299371366905D-01 0.100000000000D+01
-.406594905200D-03 0.000000000000D+00 0.000000000000D+00 0.158040390767D-02 0.000000000000D+00  5 3 -3 25 23 21 2 0.10945741D-01 0.51292796D-01 0.21811648D+05 0.21811648D+05 0.21811648D+05 0.12297016D+01  1  2  4  2  5  2       -3 -.347094934565D-01 0.100000000000D+01
-.129199822979D-02 0.000000000000D+00 -.327884159272D-03 0.158040390767D-02 0.000000000000D+00  5 3 -3 25 23 21 2 0.10945741D-01 0.60753310D-01 0.21811648D+05 0.21811648D+05 0.21811648D+05 0.12297016D+01  1  2  5  2  5  2       -3 -.781251266312D-01 0.100000000000D+01
0.133299886215D-02 0.000000000000D+00 0.323242201139D-03 0.158040390767D-02 0.000000000000D+00  5 3 -3 25 23 21 2 0.10945741D-01 0.51292796D-01 0.21811648D+05 0.21811648D+05 0.21811648D+05 0.12297016D+01  1  2  6  2  5  2       -3 0.113793150607D+00 0.100000000000D+01
0.964151356649D-05 0.000000000000D+00 0.000000000000D+00 0.158040390767D-02 0.000000000000D+00  5 3 21 25 23 3 2 0.10945741D-01 0.58683820D-01 0.26230438D+05 0.26230438D+05 0.26230438D+05 0.12210669D+01  1  2 12  4  5  2       -3 0.121420703603D-01 0.100000000000D+01
-.296434323915D-04 0.000000000000D+00 -.823927331800D-05 0.158040390767D-02 0.000000000000D+00  5 3 21 25 23 3 2 0.10945741D-01 0.60753310D-01 0.21811648D+05 0.21811648D+05 0.21811648D+05 0.12297016D+01  1  2  5  4  5  2       -3 -.350442546578D-01 0.100000000000D+01
  </mgrwgt>
  </event>
  <event>
  4     66 0.49155423E-03 0.92885216E+02 0.75467711E-02 0.12100960E+00
        1 -1    0    0  501    0 0.00000000E+00 0.00000000E+00 0.16485480E+03 0.16485511E+03 0.32000000E+00 0.0000E+00 0.9000E+01
       -1 -1    0    0    0  501 0.00000000E+00 0.00000000E+00 -.12150223E+03 0.12150265E+03 0.32000000E+00 0.0000E+00 0.9000E+01
       25  1    1    2    0    0 0.73799212E+02 0.44998830E+02 0.51464619E+02 0.16045194E+03 0.12500000E+03 0.0000E+00 0.9000E+01
       23  1    1    2    0    0 -.73799212E+02 -.44998830E+02 -.81120554E+01 0.12590582E+03 0.91188000E+02 0.0000E+00 0.9000E+01
#aMCatNLO 1  0  0  1  2 0.71365160D+01 0.00000000D+00  -5  5  0 0.00000000D+00 0.00000000D+00 0.00000000D+00 0.00000000D+00 0.00000000D+00
  <mgrwgt>
 0.2565022473D+00    8    2    0
 0.141528549970200D+03 0.000000000000000D+00 0.000000000000000D+00 0.141528549970200D+03
 0.141528549970200D+03 0.000000000000000D+00 0.000000000000000D+00 -.141528549970200D+03
 0.154440695006553D+03 0.737992119185732D+02 0.449988301915389D+02 0.274901778040387D+02
 0.128616404933846D+03 -.737992119185732D+02 -.449988301915389D+02 -.274901778040387D+02
 0.000000000000000D+00 0.000000000000000D+00 0.000000000000000D+00 -.000000000000000D+00
 0.144302755088582D+03 0.000000000000000D+00 0.000000000000000D+00 0.144302755088582D+03
 0.146238746722827D+03 0.000000000000000D+00 0.000000000000000D+00 -.146238746722827D+03
 0.152550540251242D+03 0.717784478571647D+02 0.416990632804176D+02 0.274901778040387D+02
 0.130596509330488D+03 -.755054760761100D+02 -.477850406731070D+02 -.274901778040387D+02
 0.739445222967930D+01 0.372702821894525D+01 0.608597739268941D+01 -.193599163424542D+01
0.292249314763D-03 0.000000000000D+00 0.000000000000D+00 0.175578968215D-02 0.000000000000D+00  5 1 -1 25 23 21 0 0.25362333D-01 0.18692707D-01 0.19268024D+05 0.19268024D+05 0.19268024D+05 0.12356127D+01  1  2  2  1  5  1        1 0.118829357775D+00 0.100000000000D+01
-.162286431693D-04 0.000000000000D+00 -.112231431970D-05 0.175578968215D-02 0.000000000000D+00  5 1 -1 25 23 21 2 0.25362333D-01 0.18692707D-01 0.19268024D+05 0.19268024D+05 0.19268024D+05 0.12356127D+01  1  2  3  1  5  1        1 -.100743539129D-01 0.100000000000D+01
0.201857303544D-04 0.000000000000D+00 0.000000000000D+00 0.175578968215D-02 0.000000000000D+00  5 1 -1 25 23 21 2 0.25362333D-01 0.18692707D-01 0.19268024D+05 0.19268024D+05 0.19268024D+05 0.12356127D+01  1  2 15  1  5  1        1 0.125308190869D-01 0.100000000000D+01
0.487938489794D-03 0.000000000000D+00 0.000000000000D+00 0.175578968215D-02 0.000000000000D+00  5 1 -1 25 23 21 2 0.26270664D-01 0.18692707D-01 0.20286323D+05 0.20286323D+05 0.20286323D+05 0.12331470D+01  1  2 12  1  5  1        1 0.289066280653D+00 0.100000000000D+01
-.307832821577D-03 0.000000000000D+00 0.000000000000D+00 0.175578968215D-02 0.000000000000D+00  5 1 -1 25 23 21 2 0.25362333D-01 0.18692707D-01 0.19268024D+05 0.19268024D+05 0.19268024D+05 0.12356127D+01  1  2  4  1  5  1        1 -.191095260289D+00 0.100000000000D+01
0.193777899102D-04 0.000000000000D+00 0.000000000000D+00 0.175578968215D-02 0.279775377187D-03  5 1 -1 25 23 21 2 0.25859478D-01 0.19314817D-01 0.20286323D+05 0.20286323D+05 0.20286323D+05 0.12331470D+01  1  2 11  1  5  1        1 0.111116996532D-01 0.100000000000D+01
0.591906618029D-05 0.000000000000D+00 0.000000000000D+00 0.175578968215D-02 0.000000000000D+00  5 21 -1 25 23 -1 2 0.26270664D-01 0.18692707D-01 0.20286323D+05 0.20286323D+05 0.20286323D+05 0.12331470D+01  1  2 12  3  5  1        1 0.252025095596D-01 0.100000000000D+01
0.223646719960D-06 0.000000000000D+00 0.000000000000D+00 0.175578968215D-02 0.101202937075D-05  5 21 -1 25 23 -1 2 0.25859478D-01 0.19314817D-01 0.20286323D+05 0.20286323D+05 0.20286323D+05 0.12331470D+01  1  2 11  3  5  1        1 0.931194763142D-03 0.100000000000D+01
  </mgrwgt>
  </event>
  <event>
  4     66 0.49155423E-03 0.11850142E+03 0.75467711E-02 0.10594113E+00
        1 -1    0    0  501    0 0.00000000E+00 0.00000000E+00 0.10699657E+04 0.10699658E+04 0.32000000E+00 0.0000E+00 0.9000E+01
       -1 -1    0    0    0  501 0.00000000E+00 0.00000000E+00 -.18023901E+02 0.18026741E+02 0.32000000E+00 0.0000E+00 0.9000E+01
       25  1    1    2    0    0 -.37538822E+01 0.47918501E+02 0.29390216E+03 0.32297640E+03 0.12500000E+03 0.0000E+00 0.9000E+01
       23  1    1    2    0    0 0.37538822E+01 -.47918501E+02 0.75803968E+03 0.76501613E+03 0.91188000E+02 0.0000E+00 0.9000E+01
#aMCatNLO 1  0  0  2  2 0.32097812D+03 0.00000000D+00  -5  5  0 0.00000000D+00 0.00000000D+00 0.00000000D+00 0.00000000D+00 0.00000000D+00
  <mgrwgt>
 0.1758259740D+00    5    2    0
 0.138875943967221D+03 0.000000000000000D+00 0.000000000000000D+00 0.138875943967221D+03
 0.138875943967221D+03 0.000000000000000D+00 0.000000000000000D+00 -.138875943967221D+03
 0.152034717990974D+03 -.375388217070236D+01 0.479185008427044D+02 -.719672225407598D+02
 0.125717169943469D+03 0.375388217070236D+01 -.479185008427044D+02 0.719672225407598D+02
 0.000000000000000D+00 0.000000000000000D+00 -.000000000000000D+00 -.000000000000000D+00
 0.316852484669078D+03 0.000000000000000D+00 0.000000000000000D+00 0.316852484669078D+03
 0.458430775872549D+03 0.000000000000000D+00 0.000000000000000D+00 -.458430775872549D+03
 0.287684332439523D+03 -.365893473099035D+02 0.246209694517454D+03 -.719672225407598D+02
 0.136783643515035D+03 -.158480347826115D+02 0.704561740555507D+02 0.719672225407598D+02
 0.350815284587070D+03 0.524373820925150D+02 -.316665868573005D+03 -.141578291203471D+03
0.227529408315D-03 0.000000000000D+00 0.000000000000D+00 0.144591820117D-02 0.000000000000D+00  5 1 -1 25 23 21 0 0.16461034D+00 0.27731300D-02 0.14042586D+05 0.14042586D+05 0.14042586D+05 0.12511013D+01  1  2  2  2  5  2       -1 0.132556659874D+00 0.100000000000D+01
-.122536569775D-04 0.000000000000D+00 -.873772837800D-06 0.144591820117D-02 0.000000000000D+00  5 1 -1 25 23 21 2 0.16461034D+00 0.27731300D-02 0.14042586D+05 0.14042586D+05 0.14042586D+05 0.12511013D+01  1  2  3  2  5  2       -1 -.111741544737D-01 0.100000000000D+01
0.155601943725D-04 0.000000000000D+00 0.000000000000D+00 0.144591820117D-02 0.000000000000D+00  5 1 -1 25 23 21 2 0.16461034D+00 0.27731300D-02 0.14042586D+05 0.14042586D+05 0.14042586D+05 0.12511013D+01  1  2 15  2  5  2       -1 0.141893979796D-01 0.100000000000D+01
0.310380562717D-03 0.000000000000D+00 -.133684997124D-03 0.144591820117D-02 0.000000000000D+00  5 1 -1 25 23 21 2 0.16461034D+00 0.23056033D-01 0.14042586D+05 0.14042586D+05 0.14042586D+05 0.12511013D+01  1  2  5  2  5  2       -1 0.114756405858D-01 0.100000000000D+01
0.626270472672D-04 0.000000000000D+00 -.342733097910D-04 0.144591820117D-02 0.000000000000D+00  5 1 21 25 23 1 2 0.16461034D+00 0.23056033D-01 0.14042586D+05 0.14042586D+05 0.14042586D+05 0.12511013D+01  1  2  5  4  5  2       -1 0.287784300079D-01 0.100000000000D+01
  </mgrwgt>
  </event>
  <event>
  4     66 0.49155423E-03 0.12840349E+03 0.75467711E-02 0.10561891E+00
        1 -1    0    0  501    0 0.00000000E+00 0.00000000E+00 0.15329186E+04 0.15329186E+04 0.32000000E+00 0.0000E+00 0.9000E+01
       -1 -1    0    0    0  501 0.00000000E+00 0.00000000E+00 -.15317124E+02 0.15320466E+02 0.32000000E+00 0.0000E+00 0.9000E+01
       25  1    1    2    0    0 -.17831526E+02 0.66346947E+02 0.39717301E+03 0.42200863E+03 0.12500000E+03 0.0000E+00 0.9000E+01
       23  1    1    2    0    0 0.17831526E+02 -.66346947E+02 0.11204285E+04 0.11262305E+04 0.91188000E+02 0.0000E+00 0.9000E+01
#aMCatNLO 1  0  0  1  2 0.32117848D+03 0.00000000D+00  -5  5  0 0.00000000D+00 0.00000000D+00 0.00000000D+00 0.00000000D+00 0.00000000D+00
  <mgrwgt>
 0.2001482091D+00    3    2    0
 0.153240065000088D+03 0.000000000000000D+00 0.000000000000000D+00 0.153240065000088D+03
 0.153240065000088D+03 0.000000000000000D+00 0.000000000000000D+00 -.153240065000088D+03
 0.165165387297484D+03 -.178315261668622D+02 0.663469466571875D+02 -.832749932750322D+02
 0.141314742702691D+03 0.178315261668622D+02 -.663469466571875D+02 0.832749932750322D+02
 0.000000000000000D+00 0.000000000000000D+00 0.000000000000000D+00 -.000000000000000D+00
 0.250344128290030D+03 0.000000000000000D+00 0.000000000000000D+00 0.250344128290030D+03
 0.113091306145884D+04 0.000000000000000D+00 0.000000000000000D+00 -.113091306145884D+04
 0.246057178342125D+03 -.191361023064845D+03 0.369509047292120D+02 -.832749932750322D+02
 0.197886157250138D+03 -.125305953228524D+03 -.905945553979953D+02 0.832749932750322D+02
 0.937313854156605D+03 0.316666976293369D+03 0.536436506687834D+02 -.880568933168806D+03
0.540154854657D-03 0.000000000000D+00 0.000000000000D+00 0.128266230305D-02 0.000000000000D+00  5 1 -1 25 23 21 0 0.23583389D+00 0.23567403D-02 0.16487457D+05 0.16487457D+05 0.16487457D+05 0.12431684D+01  1  2  2  1  5  1        1 0.195634013424D+00 0.100000000000D+01
-.288677489216D-04 0.000000000000D+00 -.207433686792D-05 0.128266230305D-02 0.000000000000D+00  5 1 -1 25 23 21 2 0.23583389D+00 0.23567403D-02 0.16487457D+05 0.16487457D+05 0.16487457D+05 0.12431684D+01  1  2  3  1  5  1        1 -.161584205721D-01 0.100000000000D+01
0.369325635881D-04 0.000000000000D+00 0.000000000000D+00 0.128266230305D-02 0.000000000000D+00  5 1 -1 25 23 21 2 0.23583389D+00 0.23567403D-02 0.16487457D+05 0.16487457D+05 0.16487457D+05 0.12431684D+01  1  2 15  1  5  1        1 0.206726162433D-01 0.100000000000D+01
  </mgrwgt>
  </event>
  <event>
  5     66 0.49155423E-03 0.10878080E+03 0.75467711E-02 0.12078010E+00
        3 -1    0    0  501    0 0.00000000E+00 0.00000000E+00 0.18416316E+03 0.18416384E+03 0.50000000E+00 0.0000E+00 0.9000E+01
       21 -1    0    0  502  501 0.00000000E+00 0.00000000E+00 -.19075837E+03 0.19075984E+03 0.75000000E+00 0.0000E+00 0.9000E+01
       25  1    1    2    0    0 0.20321029E+02 0.95011875E+01 0.10836679E+03 0.16694783E+03 0.12500000E+03 0.0000E+00 0.9000E+01
       23  1    1    2    0    0 0.38164495E+02 0.10872498E+02 -.32050129E+02 0.10448542E+03 0.91188000E+02 0.0000E+00 0.9000E+01
        3  1    1    2  502    0 -.58485524E+02 -.20373686E+02 -.82911868E+02 0.10349044E+03 0.50000000E+00 0.0000E+00 0.9000E+01
#aMCatNLO 2  0  0  2  1 0.61932573D+02 0.00000000D+00  -5  5  0 0.00000000D+00 0.00000000D+00 0.00000000D+00 0.00000000D+00 0.00000000D+00
  <mgrwgt>
 0.1640445241D-01    2    2    0
 0.126507046075177D+03 0.000000000000000D+00 0.000000000000000D+00 0.126507046075177D+03
 0.126507046075177D+03 0.000000000000000D+00 0.000000000000000D+00 -.126507046075177D+03
 0.140952385055854D+03 -.119308347373851D+02 -.173388885515512D+01 0.640095591676803D+02
 0.112061707094500D+03 0.119308347373851D+02 0.173388885515512D+01 -.640095591676803D+02
 0.000000000000000D+00 -.000000000000000D+00 -.000000000000000D+00 -.000000000000000D+00
 0.137948654404453D+03 0.000000000000000D+00 0.000000000000000D+00 0.137948654404453D+03
 0.254666051847592D+03 0.000000000000000D+00 0.000000000000000D+00 -.254666051847592D+03
 0.142216175002324D+03 0.203210286098331D+02 0.950118748837173D+01 0.640095591676803D+02
 0.118267556591317D+03 0.381644954790090D+02 0.108724982443007D+02 -.640095591676803D+02
 0.132130974658404D+03 -.584855240888422D+02 -.203736857326724D+02 -.116717397443138D+03
-.900046209973D-05 0.000000000000D+00 0.000000000000D+00 0.162272841474D-02 0.000000000000D+00  5 3 21 25 23 3 2 0.25982909D-01 0.29373463D-01 0.20790457D+05 0.20790457D+05 0.20790457D+05 0.12319771D+01  1  2 13  4  5  2       -3 -.103618554820D-01 0.100000000000D+01
0.271885237286D-04 0.000000000000D+00 0.000000000000D+00 0.162272841474D-02 0.411402075950D-06  5 3 21 25 23 3 2 0.28332868D-01 0.29347511D-01 0.20790457D+05 0.20790457D+05 0.20790457D+05 0.12319771D+01  1  2  1  4  5  2       -3 0.267663078871D-01 0.100000000000D+01
  </mgrwgt>
  </event>
  <event>
  4     66 0.49155423E-03 0.65105880E+02 0.75467711E-02 0.12413262E+00
        3 -1    0    0  501    0 0.00000000E+00 0.00000000E+00 0.40981308E+03 0.40981339E+03 0.50000000E+00 0.0000E+00 0.9000E+01
       -3 -1    0    0    0  501 0.00000000E+00 0.00000000E+00 -.37964045E+02 0.37967338E+02 0.50000000E+00 0.0000E+00 0.9000E+01
       25  1    1    2    0    0 -.12707139E+02 0.39126128E+02 0.12529009E+03 0.18170012E+03 0.12500000E+03 0.0000E+00 0.9000E+01
       23  1    1    2    0    0 0.12707139E+02 -.39126128E+02 0.24655894E+03 0.26608061E+03 0.91188000E+02 0.0000E+00 0.9000E+01
#aMCatNLO 1  0  0  2  1 0.10235214D+02 0.00000000D+00  -5  5  0 0.00000000D+00 0.00000000D+00 0.00000000D+00 0.00000000D+00 0.00000000D+00
  <mgrwgt>
 0.1005515733D-01    9    2    0
 0.124735591368122D+03 0.000000000000000D+00 0.000000000000000D+00 0.124735591368122D+03
 0.124735591368122D+03 0.000000000000000D+00 0.000000000000000D+00 -.124735591368122D+03
 0.139386078401986D+03 -.127071390081504D+02 0.391261282492523D+02 -.459472910924581D+02
 0.110085104334258D+03 0.127071390081504D+02 -.391261282492523D+02 0.459472910924581D+02
 0.000000000000000D+00 -.000000000000000D+00 0.000000000000000D+00 -.000000000000000D+00
 0.125793117956337D+03 0.000000000000000D+00 0.000000000000000D+00 0.125793117956337D+03
 0.152333918549672D+03 0.000000000000000D+00 0.000000000000000D+00 -.152333918549672D+03
 0.137816855586101D+03 -.111652556121450D+02 0.336551510473605D+02 -.459472910924581D+02
 0.111864202214080D+03 0.139416856473159D+02 -.435065999081628D+02 0.459472910924581D+02
 0.284459787058274D+02 -.277643003517086D+01 0.985144886080234D+01 -.265408005933352D+02
0.144610571609D-03 0.000000000000D+00 0.000000000000D+00 0.183873418869D-02 0.000000000000D+00  5 3 -3 25 23 21 0 0.63048443D-01 0.58408990D-02 0.13413483D+05 0.13413483D+05 0.13413483D+05 0.12533955D+01  1  2  2  2  5  2       -3 0.143502936619D-01 0.100000000000D+01
-.798015796512D-05 0.000000000000D+00 -.555342671818D-06 0.183873418869D-02 0.000000000000D+00  5 3 -3 25 23 21 2 0.63048443D-01 0.58408990D-02 0.13413483D+05 0.13413483D+05 0.13413483D+05 0.12533955D+01  1  2  3  2  5  2       -3 -.124408059582D-02 0.100000000000D+01
0.999278058247D-05 0.000000000000D+00 0.000000000000D+00 0.183873418869D-02 0.000000000000D+00  5 3 -3 25 23 21 2 0.63048443D-01 0.58408990D-02 0.13413483D+05 0.13413483D+05 0.13413483D+05 0.12533955D+01  1  2 15  2  5  2       -3 0.155784189677D-02 0.100000000000D+01
0.121664263985D-02 0.000000000000D+00 0.000000000000D+00 0.183873418869D-02 0.000000000000D+00  5 3 -3 25 23 21 2 0.63048443D-01 0.71543635D-02 0.14660321D+05 0.14660321D+05 0.14660321D+05 0.12489582D+01  1  2 12  2  5  2       -3 0.137127696644D+00 0.100000000000D+01
-.121138679352D-02 0.000000000000D+00 0.000000000000D+00 0.183873418869D-02 0.000000000000D+00  5 3 -3 25 23 21 2 0.63048443D-01 0.58408990D-02 0.13413483D+05 0.13413483D+05 0.13413483D+05 0.12533955D+01  1  2  4  2  5  2       -3 -.188851249616D+00 0.100000000000D+01
-.141803556881D-02 0.000000000000D+00 -.964713356442D-04 0.183873418869D-02 0.000000000000D+00  5 3 -3 25 23 21 2 0.63048443D-01 0.71853025D-02 0.13413483D+05 0.13413483D+05 0.13413483D+05 0.12533955D+01  1  2  5  2  5  2       -3 -.158725083930D+00 0.100000000000D+01
0.140969838309D-02 0.000000000000D+00 0.944378067030D-04 0.183873418869D-02 0.000000000000D+00  5 3 -3 25 23 21 2 0.63048443D-01 0.58408990D-02 0.13413483D+05 0.13413483D+05 0.13413483D+05 0.12533955D+01  1  2  6  2  5  2       -3 0.219767379546D+00 0.100000000000D+01
0.351941947271D-04 0.000000000000D+00 0.000000000000D+00 0.183873418869D-02 0.000000000000D+00  5 3 21 25 23 3 2 0.63048443D-01 0.71543635D-02 0.14660321D+05 0.14660321D+05 0.14660321D+05 0.12489582D+01  1  2 12  4  5  2       -3 0.950696327560D-01 0.100000000000D+01
-.405045035357D-04 0.000000000000D+00 -.283586710421D-05 0.183873418869D-02 0.000000000000D+00  5 3 21 25 23 3 2 0.63048443D-01 0.71853025D-02 0.13413483D+05 0.13413483D+05 0.13413483D+05 0.12533955D+01  1  2  5  4  5  2       -3 -.108997273037D+00 0.100000000000D+01
  </mgrwgt>
  </event>
  <event>
  4     66 0.49155423E-03 0.14780703E+03 0.75467711E-02 0.10542426E+00
        1 -1    0    0  501    0 0.00000000E+00 0.00000000E+00 0.11389114E+04 0.11389114E+04 0.32000000E+00 0.0000E+00 0.9000E+01
       -1 -1    0    0    0  501 0.00000000E+00 0.00000000E+00 -.20349496E+02 0.20352011E+02 0.32000000E+00 0.0000E+00 0.9000E+01
       25  1    1    2    0    0 -.92199024E+02 0.39102340E+02 0.74181096E+03 0.75890589E+03 0.12500000E+03 0.0000E+00 0.9000E+01
       23  1    1    2    0    0 0.92199024E+02 -.39102340E+02 0.37675094E+03 0.40035756E+03 0.91188000E+02 0.0000E+00 0.9000E+01
#aMCatNLO 1  0  0  2  1 0.31236680D+03 0.00000000D+00  -5  5  0 0.00000000D+00 0.00000000D+00 0.00000000D+00 0.00000000D+00 0.00000000D+00
  <mgrwgt>
 0.2037367683D+00    5    2    0
 0.152242426872382D+03 0.000000000000000D+00 0.000000000000000D+00 0.152242426872382D+03
 0.152242426872382D+03 0.000000000000000D+00 0.000000000000000D+00 -.152242426872382D+03
 0.164245895297986D+03 -.921990242901802D+02 0.391023402221969D+02 0.363601571960751D+02
 0.140238958446777D+03 0.921990242901802D+02 -.391023402221969D+02 -.363601571960751D+02
 0.000000000000000D+00 -.000000000000000D+00 0.000000000000000D+00 -.000000000000000D+00
 0.310526370419434D+03 0.000000000000000D+00 0.000000000000000D+00 0.310526370419434D+03
 0.482051003618676D+03 0.000000000000000D+00 0.000000000000000D+00 -.482051003618676D+03
 0.188600399560331D+03 -.816745185655377D+02 -.109326678812085D+03 0.363601571960751D+02
 0.247615194558896D+03 0.103767725203630D+03 -.202257833982223D+03 -.363601571960751D+02
 0.356361779918883D+03 -.220932066380919D+02 0.311584512794308D+03 -.171524633199243D+03
0.372801219623D-03 0.000000000000D+00 0.000000000000D+00 0.162686856154D-02 0.000000000000D+00  5 1 -1 25 23 21 0 0.17521733D+00 0.31308886D-02 0.21846918D+05 0.21846918D+05 0.21846918D+05 0.12296251D+01  1  2  2  2  5  2       -1 0.164213272938D+00 0.100000000000D+01
-.206891653914D-04 0.000000000000D+00 -.143165484417D-05 0.162686856154D-02 0.000000000000D+00  5 1 -1 25 23 21 2 0.17521733D+00 0.31308886D-02 0.21846918D+05 0.21846918D+05 0.21846918D+05 0.12296251D+01  1  2  3  2  5  2       -1 -.137790531521D-01 0.100000000000D+01
0.256987625254D-04 0.000000000000D+00 0.000000000000D+00 0.162686856154D-02 0.000000000000D+00  5 1 -1 25 23 21 2 0.17521733D+00 0.31308886D-02 0.21846918D+05 0.21846918D+05 0.21846918D+05 0.12296251D+01  1  2 15  2  5  2       -1 0.171154615512D-01 0.100000000000D+01
0.321597185374D-03 0.000000000000D+00 -.190305931119D-03 0.162686856154D-02 0.000000000000D+00  5 1 -1 25 23 21 2 0.17521733D+00 0.21914540D-01 0.21846918D+05 0.21846918D+05 0.21846918D+05 0.12296251D+01  1  2  5  2  5  2       -1 0.110528845984D-01 0.100000000000D+01
0.585837136839D-04 0.000000000000D+00 -.452639702359D-04 0.162686856154D-02 0.000000000000D+00  5 1 21 25 23 1 2 0.17521733D+00 0.21914540D-01 0.21846918D+05 0.21846918D+05 0.21846918D+05 0.12296251D+01  1  2  5  4  5  2       -1 0.251342023515D-01 0.100000000000D+01
  </mgrwgt>
  </event>
  <event>
  4     66 0.49155423E-03 0.15624348E+03 0.75467711E-02 0.10935554E+00
        1 -1    0    0  501    0 0.00000000E+00 0.00000000E+00 0.14909557E+04 0.14909557E+04 0.32000000E+00 0.0000E+00 0.9000E+01
       -1 -1    0    0    0  501 0.00000000E+00 0.00000000E+00 -.16479167E+02 0.16482274E+02 0.32000000E+00 0.0000E+00 0.9000E+01
       25  1    1    2    0    0 -.10986372E+03 0.22553558E+02 0.85272712E+03 0.86910715E+03 0.12500000E+03 0.0000E+00 0.9000E+01
       23  1    1    2    0    0 0.10986372E+03 -.22553558E+02 0.62174939E+03 0.63833084E+03 0.91188000E+02 0.0000E+00 0.9000E+01
#aMCatNLO 1  0  0  1  1 0.19800574D+03 0.00000000D+00  -5  5  0 0.00000000D+00 0.00000000D+00 0.00000000D+00 0.00000000D+00 0.00000000D+00
  <mgrwgt>
 0.1509399134D+00    5    2    0
 0.156754826538165D+03 0.000000000000000D+00 0.000000000000000D+00 0.156754826538165D+03
 0.156754826538165D+03 0.000000000000000D+00 0.000000000000000D+00 -.156754826538165D+03
 0.168412758892516D+03 -.109863716319712D+03 0.225535575486626D+02 0.126157931224981D+02
 0.145096894183813D+03 0.109863716319712D+03 -.225535575486626D+02 -.126157931224981D+02
 0.000000000000000D+00 -.000000000000000D+00 -.000000000000000D+00 0.000000000000000D+00
 0.339502321642937D+03 0.000000000000000D+00 0.000000000000000D+00 0.339502321642937D+03
 0.249006132436439D+03 0.000000000000000D+00 0.000000000000000D+00 -.249006132436439D+03
 0.136091627275869D+03 -.249300988956845D+02 0.459919878624069D+02 0.126157931224981D+02
 0.234710983807075D+03 0.215801293803642D+03 0.668116249237428D+01 -.126157931224981D+02
 0.217705842996432D+03 -.190871194907958D+03 -.526731503547811D+02 0.904961892064980D+02
0.427824149503D-03 0.000000000000D+00 0.000000000000D+00 0.166263452671D-02 0.000000000000D+00  5 1 -1 25 23 21 0 0.22937804D+00 0.25354981D-02 0.24412026D+05 0.24412026D+05 0.24412026D+05 0.12244074D+01  1  2  2  1  5  1        1 0.148958496868D+00 0.100000000000D+01
-.237676997920D-04 0.000000000000D+00 -.164295738278D-05 0.166263452671D-02 0.000000000000D+00  5 1 -1 25 23 21 2 0.22937804D+00 0.25354981D-02 0.24412026D+05 0.24412026D+05 0.24412026D+05 0.12244074D+01  1  2  3  1  5  1        1 -.124062064562D-01 0.100000000000D+01
0.294571487792D-04 0.000000000000D+00 0.000000000000D+00 0.166263452671D-02 0.000000000000D+00  5 1 -1 25 23 21 2 0.22937804D+00 0.25354981D-02 0.24412026D+05 0.24412026D+05 0.24412026D+05 0.12244074D+01  1  2 15  1  5  1        1 0.153759712788D-01 0.100000000000D+01
-.599235342665D-04 0.000000000000D+00 -.119447179374D-03 0.166263452671D-02 0.000000000000D+00  5 1 -1 25 23 21 2 0.56985204D+00 0.25354981D-02 0.24412026D+05 0.24412026D+05 0.24412026D+05 0.12244074D+01  1  2  5  1  5  1        1 -.993875704335D-03 0.100000000000D+01
0.140914870543D-05 0.000000000000D+00 -.119532087201D-04 0.166263452671D-02 0.000000000000D+00  5 21 -1 25 23 -1 2 0.56985204D+00 0.25354981D-02 0.24412026D+05 0.24412026D+05 0.24412026D+05 0.12244074D+01  1  2  5  3  5  1        1 0.552737427239D-05 0.100000000000D+01
  </mgrwgt>
  </event>
  <event>
  4     66 0.49155423E-03 0.10872609E+03 0.75467711E-02 0.12221599E+00
        1 -1    0    0  501    0 0.00000000E+00 0.00000000E+00 0.16668400E+04 0.16668401E+04 0.32000000E+00 0.0000E+00 0.9000E+01
       -1 -1    0    0    0  501 0.00000000E+00 0.00000000E+00 -.98301003E+01 0.98353074E+01 0.32000000E+00 0.0000E+00 0.9000E+01
       25  1    1    2    0    0 -.11521353E+02 0.99746007E+00 0.13596497E+04 0.13654325E+04 0.12500000E+03 0.0000E+00 0.9000E+01
       23  1    1    2    0    0 0.11521353E+02 -.99746007E+00 0.29736027E+03 0.31124286E+03 0.91188000E+02 0.0000E+00 0.9000E+01
#aMCatNLO 1  0  0  1  1 0.45239486D+02 0.00000000D+00  -5  5  0 0.00000000D+00 0.00000000D+00 0.00000000D+00 0.00000000D+00 0.00000000D+00
  <mgrwgt>
 0.2145032536D+00    3    2    0
 0.128021856461425D+03 0.000000000000000D+00 0.000000000000000D+00 0.128021856461425D+03
 0.128021856461425D+03 0.000000000000000D+00 0.000000000000000D+00 -.128021856461425D+03
 0.142296271897282D+03 -.115213534975411D+02 0.997460066224048D+00 0.670036751444741D+02
 0.113747441025569D+03 0.115213534975411D+02 -.997460066224048D+00 -.670036751444741D+02
 0.000000000000000D+00 0.000000000000000D+00 0.000000000000000D+00 -.000000000000000D+00
 0.133023502197591D+03 0.000000000000000D+00 0.000000000000000D+00 0.133023502197591D+03
 0.299499197167169D+03 0.000000000000000D+00 0.000000000000000D+00 -.299499197167169D+03
 0.145347276973480D+03 -.239140226923816D+02 -.209632525960944D+02 0.670036751444741D+02
 0.114662326808969D+03 0.168067845109488D+01 -.184358531759365D+02 -.670036751444741D+02
 0.172513095582310D+03 0.222333442412867D+02 0.393991057720309D+02 -.166475694969578D+03
0.374579829063D-03 0.000000000000D+00 0.000000000000D+00 0.157239469880D-02 0.000000000000D+00  5 1 -1 25 23 21 0 0.25643733D+00 0.15127260D-02 0.11821363D+05 0.11821363D+05 0.11821363D+05 0.12597882D+01  1  2  2  1  5  1        1 0.209544126532D+00 0.100000000000D+01
-.201346951009D-04 0.000000000000D+00 -.143848517274D-05 0.157239469880D-02 0.000000000000D+00  5 1 -1 25 23 21 2 0.25643733D+00 0.15127260D-02 0.11821363D+05 0.11821363D+05 0.11821363D+05 0.12597882D+01  1  2  3  1  5  1        1 -.178760371821D-01 0.100000000000D+01
0.257204135531D-04 0.000000000000D+00 0.000000000000D+00 0.157239469880D-02 0.000000000000D+00  5 1 -1 25 23 21 2 0.25643733D+00 0.15127260D-02 0.11821363D+05 0.11821363D+05 0.11821363D+05 0.12597882D+01  1  2 15  1  5  1        1 0.228351642133D-01 0.100000000000D+01
  </mgrwgt>
  </event>
  <event>
  4     66 0.49155423E-03 0.11317166E+03 0.75467711E-02 0.11035298E+00
        1 -1    0    0  501    0 0.00000000E+00 0.00000000E+00 0.13030304E+03 0.13030344E+03 0.32000000E+00 0.0000E+00 0.9000E+01
       -1 -1    0    0    0  501 0.00000000E+00 0.00000000E+00 -.10344032E+03 0.10344082E+03 0.32000000E+00 0.0000E+00 0.9000E+01
       25  1    1    2    0    0 0.11874077E+02 -.30942631E+02 0.41072830E+02 0.13568499E+03 0.12500000E+03 0.0000E+00 0.9000E+01
       23  1    1    2    0    0 -.11874077E+02 0.30942631E+02 -.14210109E+02 0.98059261E+02 0.91188000E+02 0.0000E+00 0.9000E+01
#aMCatNLO 1  0  0  1  2 0.21807596D+03 0.00000000D+00  -5  5  0 0.00000000D+00 0.00000000D+00 0.00000000D+00 0.00000000D+00 0.00000000D+00
  <mgrwgt>
 0.1318334315D+00    5    2    0
 0.116097772018161D+03 0.000000000000000D+00 0.000000000000000D+00 0.116097772018161D+03
 0.116097772018161D+03 0.000000000000000D+00 0.000000000000000D+00 -.116097772018161D+03
 0.131838273599140D+03 0.118740772706279D+02 -.309426306039211D+02 0.256493720367977D+02
 0.100357270437182D+03 -.118740772706279D+02 0.309426306039211D+02 -.256493720367977D+02
 0.000000000000000D+00 0.000000000000000D+00 0.000000000000000D+00 0.000000000000000D+00
 0.272626815546244D+03 0.000000000000000D+00 0.000000000000000D+00 0.272626815546244D+03
 0.264159986704791D+03 0.000000000000000D+00 0.000000000000000D+00 -.264159986704791D+03
 0.196922928106883D+03 -.681915698871588D+02 -.133587645853317D+03 0.256493720367977D+02
 0.121623609472344D+03 -.659347228528389D+02 -.383636947323697D+02 -.256493720367977D+02
 0.218240264671808D+03 0.134126292739998D+03 0.171951340585686D+03 0.846682884145308D+01
0.153669188476D-03 0.000000000000D+00 0.000000000000D+00 0.215507578432D-02 0.000000000000D+00  5 1 -1 25 23 21 0 0.20046690D-01 0.15913964D-01 0.12807825D+05 0.12807825D+05 0.12807825D+05 0.12557215D+01  1  2  2  1  5  1        1 0.106929238384D+00 0.100000000000D+01
-.853041331030D-05 0.000000000000D+00 -.590130145774D-06 0.215507578432D-02 0.000000000000D+00  5 1 -1 25 23 21 2 0.20046690D-01 0.15913964D-01 0.12807825D+05 0.12807825D+05 0.12807825D+05 0.12557215D+01  1  2  3  1  5  1        1 -.935979700674D-02 0.100000000000D+01
0.106263794694D-04 0.000000000000D+00 0.000000000000D+00 0.215507578432D-02 0.000000000000D+00  5 1 -1 25 23 21 2 0.20046690D-01 0.15913964D-01 0.12807825D+05 0.12807825D+05 0.12807825D+05 0.12557215D+01  1  2 15  1  5  1        1 0.116595469800D-01 0.100000000000D+01
0.106804669132D-03 0.000000000000D+00 -.726393318498D-04 0.215507578432D-02 0.000000000000D+00  5 1 -1 25 23 21 2 0.98694289D-01 0.15913964D-01 0.12807825D+05 0.12807825D+05 0.12807825D+05 0.12557215D+01  1  2  5  1  5  1        1 0.157530624249D-01 0.100000000000D+01
0.188798348552D-04 0.000000000000D+00 -.140981727989D-04 0.215507578432D-02 0.000000000000D+00  5 21 -1 25 23 -1 2 0.98694289D-01 0.15913964D-01 0.12807825D+05 0.12807825D+05 0.12807825D+05 0.12557215D+01  1  2  5  3  5  1        1 0.685138074525D-02 0.100000000000D+01
  </mgrwgt>
  </event>
  <event>
  5     66 0.49155423E-03 0.11267710E+03 0.75467711E-02 0.11946793E+00
        1 -1    0    0  501    0 0.00000000E+00 0.00000000E+00 0.98834302E+03 0.98834308E+03 0.32000000E+00 0.0000E+00 0.9000E+01
       21 -1    0    0  502  501 0.00000000E+00 0.00000000E+00 -.26208940E+02 0.26219669E+02 0.75000000E+00 0.0000E+00 0.9000E+01
       25  1    1    2    0    0 0.26785463E+02 -.48921062E+02 0.56571439E+03 0.58203823E+03 0.12500000E+03 0.0000E+00 0.9000E+01
       23  1    1    2    0    0 0.37846367E+02 0.15340527E+02 0.21772466E+03 0.23955576E+03 0.91188000E+02 0.0000E+00 0.9000E+01
        1  1    1    2  502    0 -.64631830E+02 0.33580535E+02 0.17869503E+03 0.19296875E+03 0.32000000E+00 0.0000E+00 0.9000E+01
#aMCatNLO 2  0  0  2  2 0.72834921D+02 0.00000000D+00  -5  5  0 0.00000000D+00 0.00000000D+00 0.00000000D+00 0.00000000D+00 0.00000000D+00
  <mgrwgt>
 0.5818997714D-01    1    2    0
 0.118252908489927D+03 0.000000000000000D+00 0.000000000000000D+00 0.118252908489927D+03
 0.118252908489927D+03 0.000000000000000D+00 0.000000000000000D+00 -.118252908489927D+03
 0.133706542462538D+03 -.995589963977764D+01 -.298314800485865D+02 0.355443716748524D+02
 0.102799274517316D+03 0.995589963977764D+01 0.298314800485865D+02 -.355443716748524D+02
 0.000000000000000D+00 -.000000000000000D+00 0.000000000000000D+00 -.000000000000000D+00
 0.152385095404662D+03 0.000000000000000D+00 0.000000000000000D+00 0.152385095404662D+03
 0.170021752513944D+03 0.000000000000000D+00 0.000000000000000D+00 -.170021752513944D+03
 0.141418293313968D+03 0.267854629709296D+02 -.489210619213087D+02 0.355443716748524D+02
 0.106048729186146D+03 0.378463669359565D+02 0.153405270439278D+02 -.355443716748524D+02
 0.749398254184918D+02 -.646318299068861D+02 0.335805348773809D+02 -.176366571092817D+02
0.546236536595D-05 0.000000000000D+00 0.000000000000D+00 0.203749863474D-02 0.221445207290D-06  5 1 21 25 23 1 2 0.15205328D+00 0.40329653D-02 0.23967385D+05 0.23967385D+05 0.23967385D+05 0.12252666D+01  1  2  1  4  5  2       -1 0.581899771415D-01 0.100000000000D+01
  </mgrwgt>
  </event>
  <event>
  4     66 0.49155423E-03 0.16888178E+03 0.75467711E-02 0.11276545E+00
        3 -1    0    0  501    0 0.00000000E+00 0.00000000E+00 0.28542884E+03 0.28542927E+03 0.50000000E+00 0.0000E+00 0.9000E+01
       -3 -1    0    0    0  501 0.00000000E+00 0.00000000E+00 -.10050169E+03 0.10050294E+03 0.50000000E+00 0.0000E+00 0.9000E+01
       25  1    1    2    0    0 0.11254398E+03 -.63260345E+02 0.11297424E+03 0.21226445E+03 0.12500000E+03 0.0000E+00 0.9000E+01
       23  1    1    2    0    0 -.11254398E+03 0.63260345E+02 0.71952907E+02 0.17366776E+03 0.91188000E+02 0.0000E+00 0.9000E+01
#aMCatNLO 1  0  0  2  2 0.10379160D+03 0.00000000D+00  -5  5  0 0.00000000D+00 0.00000000D+00 0.00000000D+00 0.00000000D+00 0.00000000D+00
  <mgrwgt>
 0.2246624818D-01    7    2    0
 0.169370615986923D+03 0.000000000000000D+00 0.000000000000000D+00 0.169370615986923D+03
 0.169370615986923D+03 0.000000000000000D+00 0.000000000000000D+00 -.169370615986923D+03
 0.180160192167841D+03 0.112543980132367D+03 -.632603445041329D+02 0.128326221458169D+02
 0.158581039806004D+03 -.112543980132367D+03 0.632603445041329D+02 -.128326221458169D+02
 0.000000000000000D+00 0.000000000000000D+00 -.000000000000000D+00 -.000000000000000D+00
 0.226477556048595D+03 0.000000000000000D+00 0.000000000000000D+00 0.226477556048595D+03
 0.231732640371724D+03 0.000000000000000D+00 0.000000000000000D+00 -.231732640371724D+03
 0.152637927763955D+03 0.836380844644785D+02 -.226568229910945D+02 0.128326221458169D+02
 0.201647717741014D+03 -.143832422760471D+03 0.107210581091025D+03 -.128326221458169D+02
 0.103924550915350D+03 0.601943382959924D+02 -.845537580999308D+02 -.525508432312909D+01
0.470710995377D-03 0.000000000000D+00 0.000000000000D+00 0.158136036610D-02 0.000000000000D+00  5 3 -3 25 23 21 0 0.43912258D-01 0.15461928D-01 0.28521054D+05 0.28521054D+05 0.28521054D+05 0.12172095D+01  1  2  2  2  5  2       -3 0.205215034678D-01 0.100000000000D+01
-.261503452258D-04 0.000000000000D+00 -.180765416330D-05 0.158136036610D-02 0.000000000000D+00  5 3 -3 25 23 21 2 0.43912258D-01 0.15461928D-01 0.28521054D+05 0.28521054D+05 0.28521054D+05 0.12172095D+01  1  2  3  2  5  2       -3 -.168912941795D-02 0.100000000000D+01
0.324885627189D-04 0.000000000000D+00 0.000000000000D+00 0.158136036610D-02 0.000000000000D+00  5 3 -3 25 23 21 2 0.43912258D-01 0.15461928D-01 0.28521054D+05 0.28521054D+05 0.28521054D+05 0.12172095D+01  1  2 15  2  5  2       -3 0.209853394138D-02 0.100000000000D+01
-.135045360646D-03 0.000000000000D+00 0.000000000000D+00 0.158136036610D-02 0.000000000000D+00  5 3 -3 25 23 21 2 0.43912258D-01 0.15461928D-01 0.28521054D+05 0.28521054D+05 0.28521054D+05 0.12172095D+01  1  2  4  2  5  2       -3 -.872298585177D-02 0.100000000000D+01
-.181299564996D-03 0.000000000000D+00 -.150407921289D-03 0.158136036610D-02 0.000000000000D+00  5 3 -3 25 23 21 2 0.43912258D-01 0.27969922D-01 0.28521054D+05 0.28521054D+05 0.28521054D+05 0.12172095D+01  1  2  5  2  5  2       -3 -.408075844912D-02 0.100000000000D+01
0.248536922749D-03 0.000000000000D+00 0.127369358274D-03 0.158136036610D-02 0.000000000000D+00  5 3 -3 25 23 21 2 0.43912258D-01 0.15461928D-01 0.28521054D+05 0.28521054D+05 0.28521054D+05 0.12172095D+01  1  2  6  2  5  2       -3 0.160537470552D-01 0.100000000000D+01
-.371766392707D-05 0.000000000000D+00 -.976736525737D-05 0.158136036610D-02 0.000000000000D+00  5 3 21 25 23 3 2 0.43912258D-01 0.27969922D-01 0.28521054D+05 0.28521054D+05 0.28521054D+05 0.12172095D+01  1  2  5  4  5  2       -3 -.171466256228D-02 0.100000000000D+01
  </mgrwgt>
  </event>
  <event>
  4     66 0.49155423E-03 0.47828548E+02 0.75467711E-02 0.12089272E+00
        1 -1    0    0  501    0 0.00000000E+00 0.00000000E+00 0.22253048E+04 0.22253048E+04 0.32000000E+00 0.0000E+00 0.9000E+01
       -1 -1    0    0    0  501 0.00000000E+00 0.00000000E+00 -.84242334E+01 0.84303089E+01 0.32000000E+00 0.0000E+00 0.9000E+01
       25  1    1    2    0    0 -.39358274E+01 0.26731759E+02 0.18602487E+04 0.18646394E+04 0.12500000E+03 0.0000E+00 0.9000E+01
       23  1    1    2    0    0 0.39358274E+01 -.26731759E+02 0.35663186E+03 0.36909567E+03 0.91188000E+02 0.0000E+00 0.9000E+01
#aMCatNLO 1  0  0  1  2 0.57215051D+02 0.00000000D+00  -5  5  0 0.00000000D+00 0.00000000D+00 0.00000000D+00 0.00000000D+00 0.00000000D+00
  <mgrwgt>
 0.4677862248D+00    8    2    0
 0.136942681966219D+03 0.000000000000000D+00 0.000000000000000D+00 0.136942681966219D+03
 0.136942681966219D+03 0.000000000000000D+00 0.000000000000000D+00 -.136942681966219D+03
 0.150287222453974D+03 -.393582737971777D+01 0.267317594825811D+02 0.789377699883441D+02
 0.123598141478463D+03 0.393582737971777D+01 -.267317594825811D+02 -.789377699883441D+02
 0.000000000000000D+00 0.000000000000000D+00 -.000000000000000D+00 0.000000000000000D+00
 0.266115237823938D+03 0.000000000000000D+00 0.000000000000000D+00 0.266115237823938D+03
 0.146382878850740D+03 0.000000000000000D+00 0.000000000000000D+00 -.146382878850740D+03
 0.159174101046619D+03 -.777911684331857D+01 0.584782716434442D+02 0.789377699883441D+02
 0.120623601924861D+03 0.902767084535460D+00 -.167793867163903D+01 -.789377699883441D+02
 0.132700413703198D+03 0.687634975878311D+01 -.568003329718052D+02 0.119732358973198D+03
0.508977261064D-03 0.000000000000D+00 0.000000000000D+00 0.137238202456D-02 0.000000000000D+00  5 1 -1 25 23 21 0 0.34235505D+00 0.12965050D-02 0.12431571D+05 0.12431571D+05 0.12431571D+05 0.12572297D+01  1  2  2  1  5  1        1 0.157430106586D+00 0.100000000000D+01
-.268237121853D-04 0.000000000000D+00 -.195460669927D-05 0.137238202456D-02 0.000000000000D+00  5 1 -1 25 23 21 2 0.34235505D+00 0.12965050D-02 0.12431571D+05 0.12431571D+05 0.12431571D+05 0.12572297D+01  1  2  3  1  5  1        1 -.131140714195D-01 0.100000000000D+01
0.349540566853D-04 0.000000000000D+00 0.000000000000D+00 0.137238202456D-02 0.000000000000D+00  5 1 -1 25 23 21 2 0.34235505D+00 0.12965050D-02 0.12431571D+05 0.12431571D+05 0.12431571D+05 0.12572297D+01  1  2 15  1  5  1        1 0.170889842765D-01 0.100000000000D+01
0.436893817686D-03 0.000000000000D+00 0.000000000000D+00 0.137238202456D-02 0.000000000000D+00  5 1 -1 25 23 21 2 0.66661348D+00 0.12965050D-02 0.20541282D+05 0.20541282D+05 0.20541282D+05 0.12325513D+01  1  2 12  1  5  1        1 0.579257061503D-02 0.100000000000D+01
-.672723374302D-03 0.000000000000D+00 -.126589682192D-03 0.137238202456D-02 0.000000000000D+00  5 1 -1 25 23 21 2 0.67093072D+00 0.12965050D-02 0.12431571D+05 0.12431571D+05 0.12431571D+05 0.12572297D+01  1  2  5  1  5  1        1 -.895230584206D-02 0.100000000000D+01
0.633180187355D-03 0.000000000000D+00 0.102500935134D-03 0.137238202456D-02 0.000000000000D+00  5 1 -1 25 23 21 2 0.34235505D+00 0.12965050D-02 0.12431571D+05 0.12431571D+05 0.12431571D+05 0.12572297D+01  1  2  6  1  5  1        1 0.309560814738D+00 0.100000000000D+01
0.315537112462D-04 0.000000000000D+00 0.000000000000D+00 0.137238202456D-02 0.000000000000D+00  5 21 -1 25 23 -1 2 0.66661348D+00 0.12965050D-02 0.20541282D+05 0.20541282D+05 0.20541282D+05 0.12325513D+01  1  2 12  3  5  1        1 0.568969872693D-04 0.100000000000D+01
-.415688675891D-04 0.000000000000D+00 -.922658331175D-05 0.137238202456D-02 0.000000000000D+00  5 21 -1 25 23 -1 2 0.67093072D+00 0.12965050D-02 0.12431571D+05 0.12431571D+05 0.12431571D+05 0.12572297D+01  1  2  5  3  5  1        1 -.767711907288D-04 0.100000000000D+01
  </mgrwgt>
  </event>
  <event>
  4     66 0.49155423E-03 0.11730208E+03 0.75467711E-02 0.11527232E+00
        1 -1    0    0  501    0 0.00000000E+00 0.00000000E+00 0.20567694E+02 0.20570183E+02 0.32000000E+00 0.0000E+00 0.9000E+01
       -1 -1    0    0    0  501 0.00000000E+00 0.00000000E+00 -.66904094E+03 0.66904102E+03 0.32000000E+00 0.0000E+00 0.9000E+01
       25  1    1    2    0    0 -.41271161E+02 0.18139646E+02 -.36345592E+03 0.38698522E+03 0.12500000E+03 0.0000E+00 0.9000E+01
       23  1    1    2    0    0 0.41271161E+02 -.18139646E+02 -.28501733E+03 0.30262598E+03 0.91188000E+02 0.0000E+00 0.9000E+01
#aMCatNLO 1  0  0  2  2 0.12647985D+03 0.00000000D+00  -5  5  0 0.00000000D+00 0.00000000D+00 0.00000000D+00 0.00000000D+00 0.00000000D+00
  <mgrwgt>
 0.9176355415D-01    5    2    0
 0.117309479367072D+03 0.000000000000000D+00 0.000000000000000D+00 0.117309479367072D+03
 0.117309479367072D+03 0.000000000000000D+00 0.000000000000000D+00 -.117309479367072D+03
 0.132887394927346D+03 -.412711607563667D+02 0.181396458948018D+02 0.130547585572478D+01
 0.101731563806798D+03 0.412711607563667D+02 -.181396458948018D+02 -.130547585572478D+01
 0.000000000000000D+00 -.000000000000000D+00 -.000000000000000D+00 -.000000000000000D+00
 0.180559333298627D+03 0.000000000000000D+00 0.000000000000000D+00 0.180559333298627D+03
 0.217839676955415D+03 0.000000000000000D+00 0.000000000000000D+00 -.217839676955415D+03
 0.140557381423892D+03 0.108813754295870D+02 0.633345788198830D+02 0.130547585572478D+01
 0.125981939306726D+03 0.847016364437277D+02 0.194968254859190D+02 -.130547585572478D+01
 0.131859689523423D+03 -.955830118733146D+02 -.828314043058020D+02 -.372803436567874D+02
0.316852386018D-03 0.000000000000D+00 0.000000000000D+00 0.220541750464D-02 0.000000000000D+00  5 1 -1 25 23 21 0 0.31644580D-02 0.10292957D+00 0.13759779D+05 0.13759779D+05 0.13759779D+05 0.12521180D+01  1  2  2  2  5  2       -1 0.904179332124D-01 0.100000000000D+01
-.176029102493D-04 0.000000000000D+00 -.121679659146D-05 0.220541750464D-02 0.000000000000D+00  5 1 -1 25 23 21 2 0.31644580D-02 0.10292957D+00 0.13759779D+05 0.13759779D+05 0.13759779D+05 0.12521180D+01  1  2  3  2  5  2       -1 -.787539988700D-02 0.100000000000D+01
0.219143568348D-04 0.000000000000D+00 0.000000000000D+00 0.220541750464D-02 0.000000000000D+00  5 1 -1 25 23 21 2 0.31644580D-02 0.10292957D+00 0.13759779D+05 0.13759779D+05 0.13759779D+05 0.12521180D+01  1  2 15  2  5  2       -1 0.980430627078D-02 0.100000000000D+01
-.334574763937D-04 0.000000000000D+00 -.843584634879D-04 0.220541750464D-02 0.000000000000D+00  5 1 -1 25 23 21 2 0.31644580D-02 0.25252576D+00 0.13759779D+05 0.13759779D+05 0.13759779D+05 0.12521180D+01  1  2  5  2  5  2       -1 -.127606149000D-02 0.100000000000D+01
0.196440984523D-05 0.000000000000D+00 -.830957299240D-05 0.220541750464D-02 0.000000000000D+00  5 1 21 25 23 1 2 0.31644580D-02 0.25252576D+00 0.13759779D+05 0.13759779D+05 0.13759779D+05 0.12521180D+01  1  2  5  4  5  2       -1 0.692776041242D-03 0.100000000000D+01
  </mgrwgt>
  </event>
  <event>
  4     66 0.49155423E-03 0.13098478E+03 0.75467711E-02 0.11113255E+00
        1 -1    0    0  501    0 0.00000000E+00 0.00000000E+00 0.64017720E+02 0.64018520E+02 0.32000000E+00 0.0000E+00 0.9000E+01
       -1 -1    0    0    0  501 0.00000000E+00 0.00000000E+00 -.27077629E+03 0.27077648E+03 0.32000000E+00 0.0000E+00 0.9000E+01
       25  1    1    2    0    0 0.57177978E+02 0.45958785E+02 -.97427517E+02 0.17463863E+03 0.12500000E+03 0.0000E+00 0.9000E+01
       23  1    1    2    0    0 -.57177978E+02 -.45958785E+02 -.10933106E+03 0.16015637E+03 0.91188000E+02 0.0000E+00 0.9000E+01
#aMCatNLO 1  0  0  2  2 0.18540497D+03 0.00000000D+00  -5  5  0 0.00000000D+00 0.00000000D+00 0.00000000D+00 0.00000000D+00 0.00000000D+00
  <mgrwgt>
 0.1243606116D+00    3    2    0
 0.131661104279121D+03 0.000000000000000D+00 0.000000000000000D+00 0.131661104279121D+03
 0.131661104279121D+03 0.000000000000000D+00 0.000000000000000D+00 -.131661104279121D+03
 0.145540960247258D+03 0.571779783484379D+02 0.459587851681879D+02 0.132529229811295D+02
 0.117781248310985D+03 -.571779783484379D+02 -.459587851681879D+02 -.132529229811295D+02
 0.000000000000000D+00 0.000000000000000D+00 0.000000000000000D+00 0.000000000000000D+00
 0.277734197140093D+03 0.000000000000000D+00 0.000000000000000D+00 0.277734197140093D+03
 0.234655568679695D+03 0.000000000000000D+00 0.000000000000000D+00 -.234655568679695D+03
 0.129616118458019D+03 0.126682419721556D+02 -.289691878021180D+02 0.132529229811295D+02
 0.192429823344507D+03 -.107358090324329D+03 -.130432304444749D+03 -.132529229811295D+02
 0.190343824017262D+03 0.946898483521736D+02 0.159401492246867D+03 0.430786284603977D+02
0.338065856132D-03 0.000000000000D+00 0.000000000000D+00 0.192149974446D-02 0.000000000000D+00  5 1 -1 25 23 21 0 0.98489560D-02 0.41657967D-01 0.17157012D+05 0.17157012D+05 0.17157012D+05 0.12412249D+01  1  2  2  2  5  2       -1 0.121819305867D+00 0.100000000000D+01
-.187808307696D-04 0.000000000000D+00 -.129826190233D-05 0.192149974446D-02 0.000000000000D+00  5 1 -1 25 23 21 2 0.98489560D-02 0.41657967D-01 0.17157012D+05 0.17157012D+05 0.17157012D+05 0.12412249D+01  1  2  3  2  5  2       -1 -.104263083947D-01 0.100000000000D+01
0.233584656364D-04 0.000000000000D+00 0.000000000000D+00 0.192149974446D-02 0.000000000000D+00  5 1 -1 25 23 21 2 0.98489560D-02 0.41657967D-01 0.17157012D+05 0.17157012D+05 0.17157012D+05 0.12412249D+01  1  2 15  2  5  2       -1 0.129676141242D-01 0.100000000000D+01
  </mgrwgt>
  </event>
  <event>
  4     66 0.49155423E-03 0.12779128E+03 0.75467711E-02 0.11419798E+00
        1 -1    0    0  501    0 0.00000000E+00 0.00000000E+00 0.58223754E+03 0.58223763E+03 0.32000000E+00 0.0000E+00 0.9000E+01
       -1 -1    0    0    0  501 0.00000000E+00 0.00000000E+00 -.30313924E+02 0.30315613E+02 0.32000000E+00 0.0000E+00 0.9000E+01
       25  1    1    2    0    0 -.39713389E+02 -.54661018E+02 0.38779911E+03 0.41301105E+03 0.12500000E+03 0.0000E+00 0.9000E+01
       23  1    1    2    0    0 0.39713389E+02 0.54661018E+02 0.16412451E+03 0.19954219E+03 0.91188000E+02 0.0000E+00 0.9000E+01
#aMCatNLO 1  0  0  1  1 0.13154470D+03 0.00000000D+00  -5  5  0 0.00000000D+00 0.00000000D+00 0.00000000D+00 0.00000000D+00 0.00000000D+00
  <mgrwgt>
 0.1622469364D+00    5    2    0
 0.132854991333196D+03 0.000000000000000D+00 0.000000000000000D+00 0.132854991333196D+03
 0.132854991333196D+03 0.000000000000000D+00 0.000000000000000D+00 -.132854991333196D+03
 0.146610117472317D+03 -.397133887341882D+02 -.546610178296604D+02 0.361185053721693D+02
 0.119099865194074D+03 0.397133887341882D+02 0.546610178296604D+02 -.361185053721693D+02
 0.000000000000000D+00 -.000000000000000D+00 -.000000000000000D+00 0.000000000000000D+00
 0.878972292970965D+03 0.000000000000000D+00 0.000000000000000D+00 0.878972292970965D+03
 0.154164693204789D+03 0.000000000000000D+00 0.000000000000000D+00 -.154164693204789D+03
 0.130369854556454D+03 0.420649249592482D+01 -.700413932137193D+01 0.361185053721693D+02
 0.166119274480434D+03 0.849397300010513D+02 0.103735518733627D+03 -.361185053721693D+02
 0.736647857138867D+03 -.891462224969761D+02 -.967313794122552D+02 0.724807599766177D+03
0.239498111497D-03 0.000000000000D+00 0.000000000000D+00 0.180828913257D-02 0.000000000000D+00  5 1 -1 25 23 21 0 0.89575143D-01 0.46638173D-02 0.16330611D+05 0.16330611D+05 0.16330611D+05 0.12436365D+01  1  2  2  1  5  1        1 0.164370289015D+00 0.100000000000D+01
-.132810210889D-04 0.000000000000D+00 -.919735809450D-06 0.180828913257D-02 0.000000000000D+00  5 1 -1 25 23 21 2 0.89575143D-01 0.46638173D-02 0.16330611D+05 0.16330611D+05 0.16330611D+05 0.12436365D+01  1  2  3  1  5  1        1 -.140974180456D-01 0.100000000000D+01
0.165949178995D-04 0.000000000000D+00 0.000000000000D+00 0.180828913257D-02 0.000000000000D+00  5 1 -1 25 23 21 2 0.89575143D-01 0.46638173D-02 0.16330611D+05 0.16330611D+05 0.16330611D+05 0.12436365D+01  1  2 15  1  5  1        1 0.176150232347D-01 0.100000000000D+01
-.108933398724D-02 0.000000000000D+00 -.131821860233D-03 0.180828913257D-02 0.000000000000D+00  5 1 -1 25 23 21 2 0.60127303D+00 0.46638173D-02 0.16330611D+05 0.16330611D+05 0.16330611D+05 0.12436365D+01  1  2  5  1  5  1        1 -.537344818022D-02 0.100000000000D+01
-.265189610110D-03 0.000000000000D+00 -.307199078329D-04 0.180828913257D-02 0.000000000000D+00  5 21 -1 25 23 -1 2 0.60127303D+00 0.46638173D-02 0.16330611D+05 0.16330611D+05 0.16330611D+05 0.12436365D+01  1  2  5  3  5  1        1 -.267509641377D-03 0.100000000000D+01
  </mgrwgt>
  </event>
  <event>
  4     66 0.49155423E-03 0.10367879E+03 0.75467711E-02 0.11279158E+00
        1 -1    0    0  501    0 0.00000000E+00 0.00000000E+00 0.21809461E+04 0.21809461E+04 0.32000000E+00 0.0000E+00 0.9000E+01
       -1 -1    0    0    0  501 0.00000000E+00 0.00000000E+00 -.17604199E+02 0.17607107E+02 0.32000000E+00 0.0000E+00 0.9000E+01
       25  1    1    2    0    0 0.13552367E+03 -.58120273E+02 0.74573020E+03 0.77037858E+03 0.12500000E+03 0.0000E+00 0.9000E+01
       23  1    1    2    0    0 -.13552367E+03 0.58120273E+02 0.14176117E+04 0.14281746E+04 0.91188000E+02 0.0000E+00 0.9000E+01
#aMCatNLO 1  0  0  2  1 0.81167756D+02 0.00000000D+00  -5  5  0 0.00000000D+00 0.00000000D+00 0.00000000D+00 0.00000000D+00 0.00000000D+00
  <mgrwgt>
 0.1126587869D+00    9    2    0
 0.195951604768405D+03 0.000000000000000D+00 0.000000000000000D+00 0.195951604768405D+03
 0.195951604768405D+03 0.000000000000000D+00 0.000000000000000D+00 -.195951604768405D+03
 0.205277566483084D+03 0.135523674762058D+03 -.581202726873748D+02 -.690597334410584D+02
 0.186625643053726D+03 -.135523674762058D+03 0.581202726873748D+02 0.690597334410584D+02
 0.000000000000000D+00 -.000000000000000D+00 -.000000000000000D+00 -.000000000000000D+00
 0.213828917872236D+03 0.000000000000000D+00 0.000000000000000D+00 0.213828917872236D+03
 0.320168644780183D+03 0.000000000000000D+00 0.000000000000000D+00 -.320168644780183D+03
 0.223672269354828D+03 0.169477197493973D+03 -.302078934217157D+02 -.690597334410584D+02
 0.176548082702601D+03 -.106776659789982D+03 0.817525064026095D+02 0.690597334410584D+02
 0.133777210594991D+03 -.627005377039907D+02 -.515446129808938D+02 -.106339726907947D+03
0.989899166020D-03 0.000000000000D+00 0.000000000000D+00 0.130930343627D-02 0.000000000000D+00  5 1 -1 25 23 21 0 0.33553039D+00 0.27085638D-02 0.33615413D+05 0.33615413D+05 0.33615413D+05 0.12097458D+01  1  2  2  2  5  2       -1 0.112634428781D+00 0.100000000000D+01
-.546987237787D-04 0.000000000000D+00 -.380147344395D-05 0.130930343627D-02 0.000000000000D+00  5 1 -1 25 23 21 2 0.33553039D+00 0.27085638D-02 0.33615413D+05 0.33615413D+05 0.33615413D+05 0.12097458D+01  1  2  3  2  5  2       -1 -.910847506037D-02 0.100000000000D+01
0.683723258124D-04 0.000000000000D+00 0.000000000000D+00 0.130930343627D-02 0.000000000000D+00  5 1 -1 25 23 21 2 0.33553039D+00 0.27085638D-02 0.33615413D+05 0.33615413D+05 0.33615413D+05 0.12097458D+01  1  2 15  2  5  2       -1 0.113854141643D-01 0.100000000000D+01
0.789043693935D-03 0.000000000000D+00 0.000000000000D+00 0.130930343627D-02 0.000000000000D+00  5 1 -1 25 23 21 2 0.33553039D+00 0.44833434D-02 0.52073534D+05 0.52073534D+05 0.52073534D+05 0.11905380D+01  1  2 12  2  5  2       -1 0.600358153775D-01 0.100000000000D+01
-.101459465971D-02 0.000000000000D+00 0.000000000000D+00 0.130930343627D-02 0.000000000000D+00  5 1 -1 25 23 21 2 0.33553039D+00 0.27085638D-02 0.33615413D+05 0.33615413D+05 0.33615413D+05 0.12097458D+01  1  2  4  2  5  2       -1 -.168951111031D+00 0.100000000000D+01
-.110694275330D-02 0.000000000000D+00 -.320226233138D-03 0.130930343627D-02 0.000000000000D+00  5 1 -1 25 23 21 2 0.33553039D+00 0.49035217D-02 0.33615413D+05 0.33615413D+05 0.33615413D+05 0.12097458D+01  1  2  5  2  5  2       -1 -.767750466290D-01 0.100000000000D+01
0.113949680541D-02 0.000000000000D+00 0.271062520019D-03 0.130930343627D-02 0.000000000000D+00  5 1 -1 25 23 21 2 0.33553039D+00 0.27085638D-02 0.33615413D+05 0.33615413D+05 0.33615413D+05 0.12097458D+01  1  2  6  2  5  2       -1 0.189749915837D+00 0.100000000000D+01
0.447671638674D-04 0.000000000000D+00 0.000000000000D+00 0.130930343627D-02 0.000000000000D+00  5 1 21 25 23 1 2 0.33553039D+00 0.44833434D-02 0.52073534D+05 0.52073534D+05 0.52073534D+05 0.11905380D+01  1  2 12  4  5  2       -1 0.597809829095D-01 0.100000000000D+01
-.547961181957D-04 0.000000000000D+00 -.208193196944D-04 0.130930343627D-02 0.000000000000D+00  5 1 21 25 23 1 2 0.33553039D+00 0.49035217D-02 0.33615413D+05 0.33615413D+05 0.33615413D+05 0.12097458D+01  1  2  5  4  5  2       -1 -.660931374800D-01 0.100000000000D+01
  </mgrwgt>
  </event>
  <event>
  4     66 0.49155423E-03 0.84095561E+02 0.75467711E-02 0.11635534E+00
        3 -1    0    0  501    0 0.00000000E+00 0.00000000E+00 0.49803813E+02 0.49806323E+02 0.50000000E+00 0.0000E+00 0.9000E+01
       -3 -1    0    0    0  501 0.00000000E+00 0.00000000E+00 -.50200904E+03 0.50200929E+03 0.50000000E+00 0.0000E+00 0.9000E+01
       25  1    1    2    0    0 -.62358049E+02 -.65808529E+02 -.36535415E+03 0.39664587E+03 0.12500000E+03 0.0000E+00 0.9000E+01
       23  1    1    2    0    0 0.62358049E+02 0.65808529E+02 -.86851076E+02 0.15516974E+03 0.91188000E+02 0.0000E+00 0.9000E+01
#aMCatNLO 1  0  0  2  1 0.75836164D+02 0.00000000D+00  -5  5  0 0.00000000D+00 0.00000000D+00 0.00000000D+00 0.00000000D+00 0.00000000D+00
  <mgrwgt>
 0.3547845694D-01    9    2    0
 0.158122501538805D+03 0.000000000000000D+00 0.000000000000000D+00 0.158122501538805D+03
 0.158122501538805D+03 0.000000000000000D+00 0.000000000000000D+00 -.158122501538805D+03
 0.169679599018392D+03 -.623580488124839D+02 -.658085288099048D+02 -.703340430177165D+02
 0.146565404059219D+03 0.623580488124839D+02 0.658085288099048D+02 0.703340430177165D+02
 0.000000000000000D+00 -.000000000000000D+00 -.000000000000000D+00 -.000000000000000D+00
 0.185295744164275D+03 0.000000000000000D+00 0.000000000000000D+00 0.185295744164275D+03
 0.225970607961054D+03 0.000000000000000D+00 0.000000000000000D+00 -.225970607961054D+03
 0.153646808249409D+03 -.292620809614447D+02 -.466818454628610D+02 -.703340430177165D+02
 0.171563932229100D+03 0.949220400287968D+02 0.846277744447102D+02 0.703340430177165D+02
 0.860556116468208D+02 -.656599590673521D+02 -.379459289818492D+02 -.406748637967792D+02
0.708879676290D-03 0.000000000000D+00 0.000000000000D+00 0.138571170710D-02 0.000000000000D+00  5 3 -3 25 23 21 0 0.76623373D-02 0.77232372D-01 0.20022627D+05 0.20022627D+05 0.20022627D+05 0.12337720D+01  1  2  2  2  5  2       -3 0.305182326836D-01 0.100000000000D+01
-.387915896638D-04 0.000000000000D+00 -.272228460926D-05 0.138571170710D-02 0.000000000000D+00  5 3 -3 25 23 21 2 0.76623373D-02 0.77232372D-01 0.20022627D+05 0.20022627D+05 0.20022627D+05 0.12337720D+01  1  2  3  2  5  2       -3 -.254210943984D-02 0.100000000000D+01
0.488353298704D-04 0.000000000000D+00 0.000000000000D+00 0.138571170710D-02 0.000000000000D+00  5 3 -3 25 23 21 2 0.76623373D-02 0.77232372D-01 0.20022627D+05 0.20022627D+05 0.20022627D+05 0.12337720D+01  1  2 15  2  5  2       -3 0.320030073882D-02 0.100000000000D+01
0.217960629350D-03 0.000000000000D+00 0.000000000000D+00 0.138571170710D-02 0.000000000000D+00  5 3 -3 25 23 21 2 0.76623373D-02 0.11473665D+00 0.34026169D+05 0.34026169D+05 0.34026169D+05 0.12091999D+01  1  2 12  2  5  2       -3 0.581051582473D-02 0.100000000000D+01
-.391349721015D-03 0.000000000000D+00 0.000000000000D+00 0.138571170710D-02 0.000000000000D+00  5 3 -3 25 23 21 2 0.76623373D-02 0.77232372D-01 0.20022627D+05 0.20022627D+05 0.20022627D+05 0.12337720D+01  1  2  4  2  5  2       -3 -.256461214581D-01 0.100000000000D+01
-.500751242988D-03 0.000000000000D+00 -.237683055540D-03 0.138571170710D-02 0.000000000000D+00  5 3 -3 25 23 21 2 0.76623373D-02 0.12392415D+00 0.20022627D+05 0.20022627D+05 0.20022627D+05 0.12337720D+01  1  2  5  2  5  2       -3 -.112534684245D-01 0.100000000000D+01
0.572265569080D-03 0.000000000000D+00 0.213380582454D-03 0.138571170710D-02 0.000000000000D+00  5 3 -3 25 23 21 2 0.76623373D-02 0.77232372D-01 0.20022627D+05 0.20022627D+05 0.20022627D+05 0.12337720D+01  1  2  6  2  5  2       -3 0.375019873602D-01 0.100000000000D+01
0.102952907772D-04 0.000000000000D+00 0.000000000000D+00 0.138571170710D-02 0.000000000000D+00  5 3 21 25 23 3 2 0.76623373D-02 0.11473665D+00 0.34026169D+05 0.34026169D+05 0.34026169D+05 0.12091999D+01  1  2 12  4  5  2       -3 0.500209961341D-02 0.100000000000D+01
-.169793042335D-04 0.000000000000D+00 -.128284555530D-04 0.138571170710D-02 0.000000000000D+00  5 3 21 25 23 3 2 0.76623373D-02 0.12392415D+00 0.20022627D+05 0.20022627D+05 0.20022627D+05 0.12337720D+01  1  2  5  4  5  2       -3 -.711297995954D-02 0.100000000000D+01
  </mgrwgt>
  </event>
  <event>
  5     66 0.49155423E-03 0.18783910E+03 0.75467711E-02 0.11528202E+00
        1 -1    0    0  501    0 0.00000000E+00 0.00000000E+00 0.29448607E+04 0.29448607E+04 0.32000000E+00 0.0000E+00 0.9000E+01
       -1 -1    0    0    0  502 0.00000000E+00 0.00000000E+00 -.16308150E+02 0.16311290E+02 0.32000000E+00 0.0000E+00 0.9000E+01
       25  1    1    2    0    0 0.15224191E+03 0.51464013E+02 0.20281156E+04 0.20383092E+04 0.12500000E+03 0.0000E+00 0.9000E+01
       23  1    1    2    0    0 -.13565150E+03 -.54543504E+02 0.66983952E+03 0.69164771E+03 0.91188000E+02 0.0000E+00 0.9000E+01
       21  1    1    2  501  502 -.16590410E+02 0.30794905E+01 0.23059742E+03 0.23121517E+03 0.75000000E+00 0.0000E+00 0.9000E+01
#aMCatNLO 2  0  0  2  1 0.16873795D+02 0.00000000D+00  -5  5  0 0.00000000D+00 0.00000000D+00 0.00000000D+00 0.00000000D+00 0.00000000D+00
  <mgrwgt>
 0.3663662270D-01    2    2    0
 0.208217251324927D+03 0.000000000000000D+00 0.000000000000000D+00 0.208217251324927D+03
 0.208217251324927D+03 0.000000000000000D+00 0.000000000000000D+00 -.208217251324927D+03
 0.216993839971505D+03 0.143491041433606D+03 0.530883375267356D+02 0.897400469830804D+02
 0.199440662678349D+03 -.143491041433606D+03 -.530883375267356D+02 -.897400469830804D+02
 0.000000000000000D+00 -.000000000000000D+00 0.000000000000000D+00 0.000000000000000D+00
 0.226111193142767D+03 0.000000000000000D+00 0.000000000000000D+00 0.226111193142767D+03
 0.212404412955222D+03 0.000000000000000D+00 0.000000000000000D+00 -.212404412955222D+03
 0.222495884889007D+03 0.152241906521403D+03 0.514640132397883D+02 0.897400469830804D+02
 0.194280337989512D+03 -.135651496697560D+03 -.545435037058061D+02 -.897400469830804D+02
 0.217393832194710D+02 -.165904098238427D+02 0.307949046601778D+01 0.137067801875446D+02
-.494419793651D-06 0.000000000000D+00 0.000000000000D+00 0.119417182655D-02 0.000000000000D+00  5 1 -1 25 23 21 2 0.41718935D+00 0.24596510D-02 0.35283528D+05 0.35283528D+05 0.35283528D+05 0.12075731D+01  1  2  8  2  5  2       -1 -.423084030538D-04 0.100000000000D+01
0.641165025049D-03 0.000000000000D+00 0.000000000000D+00 0.119417182655D-02 0.325577784320D-04  5 1 -1 25 23 21 2 0.45304211D+00 0.25091135D-02 0.38569378D+05 0.38569378D+05 0.38569378D+05 0.12036098D+01  1  2  1  2  5  2       -1 0.366789311003D-01 0.100000000000D+01
  </mgrwgt>
  </event>
  <event>
  4     66 0.49155423E-03 0.44742720E+02 0.75467711E-02 0.11950203E+00
        3 -1    0    0  501    0 0.00000000E+00 0.00000000E+00 0.32855186E+03 0.32855224E+03 0.50000000E+00 0.0000E+00 0.9000E+01
       -3 -1    0    0    0  501 0.00000000E+00 0.00000000E+00 -.55799065E+02 0.55801305E+02 0.50000000E+00 0.0000E+00 0.9000E+01
       25  1    1    2    0    0 0.64745779E+02 0.48295821E+02 0.14347877E+03 0.20672605E+03 0.12500000E+03 0.0000E+00 0.9000E+01
       23  1    1    2    0    0 -.64745779E+02 -.48295821E+02 0.12927403E+03 0.17762750E+03 0.91188000E+02 0.0000E+00 0.9000E+01
#aMCatNLO 1  0  0  2  1 0.36018044D+02 0.00000000D+00  -5  5  0 0.00000000D+00 0.00000000D+00 0.00000000D+00 0.00000000D+00 0.00000000D+00
  <mgrwgt>
 0.1959533155D-01    9    2    0
 0.135400849789250D+03 0.000000000000000D+00 0.000000000000000D+00 0.135400849789250D+03
 0.135400849789250D+03 0.000000000000000D+00 0.000000000000000D+00 -.135400849789250D+03
 0.148897346796797D+03 0.647457788793120D+02 0.482958208683204D+02 -.457358580241063D+01
 0.121904352781702D+03 -.647457788793120D+02 -.482958208683204D+02 0.457358580241063D+01
 0.000000000000000D+00 0.000000000000000D+00 -.000000000000000D+00 -.000000000000000D+00
 0.147649611320050D+03 0.000000000000000D+00 0.000000000000000D+00 0.147649611320050D+03
 0.165927018259819D+03 0.000000000000000D+00 0.000000000000000D+00 -.165927018259819D+03
 0.148177505469042D+03 0.502164604043882D+02 0.615545493395119D+02 -.457358580241063D+01
 0.125008987635340D+03 -.768218012395493D+02 -.372758475803261D+02 0.457358580241063D+01
 0.403901364754876D+02 0.266053408351611D+02 -.242787017591858D+02 -.182774069397693D+02
0.190890322195D-03 0.000000000000D+00 0.000000000000D+00 0.188310285411D-02 0.000000000000D+00  5 3 -3 25 23 21 0 0.50546641D-01 0.85846731D-02 0.18312262D+05 0.18312262D+05 0.18312262D+05 0.12380636D+01  1  2  2  2  5  2       -3 0.163702537762D-01 0.100000000000D+01
-.106050136137D-04 0.000000000000D+00 -.733069099805D-06 0.188310285411D-02 0.000000000000D+00  5 3 -3 25 23 21 2 0.50546641D-01 0.85846731D-02 0.18312262D+05 0.18312262D+05 0.18312262D+05 0.12380636D+01  1  2  3  2  5  2       -3 -.139401887915D-02 0.100000000000D+01
0.131877113165D-04 0.000000000000D+00 0.000000000000D+00 0.188310285411D-02 0.000000000000D+00  5 3 -3 25 23 21 2 0.50546641D-01 0.85846731D-02 0.18312262D+05 0.18312262D+05 0.18312262D+05 0.12380636D+01  1  2 15  2  5  2       -3 0.173351201778D-02 0.100000000000D+01
0.171318810921D-03 0.000000000000D+00 0.000000000000D+00 0.188310285411D-02 0.000000000000D+00  5 3 -3 25 23 21 2 0.50546641D-01 0.10841404D-01 0.23878013D+05 0.23878013D+05 0.23878013D+05 0.12254414D+01  1  2 12  2  5  2       -3 0.153039294658D-01 0.100000000000D+01
-.174629608416D-03 0.000000000000D+00 0.000000000000D+00 0.188310285411D-02 0.000000000000D+00  5 3 -3 25 23 21 2 0.50546641D-01 0.85846731D-02 0.18312262D+05 0.18312262D+05 0.18312262D+05 0.12380636D+01  1  2  4  2  5  2       -3 -.229548947186D-01 0.100000000000D+01
-.333000455533D-03 0.000000000000D+00 -.969950269550D-04 0.188310285411D-02 0.000000000000D+00  5 3 -3 25 23 21 2 0.50546641D-01 0.11442875D-01 0.18312262D+05 0.18312262D+05 0.18312262D+05 0.12380636D+01  1  2  5  2  5  2       -3 -.272307550418D-01 0.100000000000D+01
0.350186723482D-03 0.000000000000D+00 0.931228683650D-04 0.188310285411D-02 0.000000000000D+00  5 3 -3 25 23 21 2 0.50546641D-01 0.85846731D-02 0.18312262D+05 0.18312262D+05 0.18312262D+05 0.12380636D+01  1  2  6  2  5  2       -3 0.460317092978D-01 0.100000000000D+01
0.550980912061D-05 0.000000000000D+00 0.000000000000D+00 0.188310285411D-02 0.000000000000D+00  5 3 21 25 23 3 2 0.50546641D-01 0.10841404D-01 0.23878013D+05 0.23878013D+05 0.23878013D+05 0.12254414D+01  1  2 12  4  5  2       -3 0.111036023899D-01 0.100000000000D+01
-.104446575760D-04 0.000000000000D+00 -.363462500874D-05 0.188310285411D-02 0.000000000000D+00  5 3 21 25 23 3 2 0.50546641D-01 0.11442875D-01 0.18312262D+05 0.18312262D+05 0.18312262D+05 0.12380636D+01  1  2  5  4  5  2       -3 -.193680067598D-01 0.100000000000D+01
  </mgrwgt>
  </event>
  <event>
  4     66 0.49155423E-03 0.11822832E+03 0.75467711E-02 0.11613000E+00
        1 -1    0    0  501    0 0.00000000E+00 0.00000000E+00 0.17579996E+04 0.17579996E+04 0.32000000E+00 0.0000E+00 0.9000E+01
       -1 -1    0    0    0  501 0.00000000E+00 0.00000000E+00 -.80400569E+01 0.80464225E+01 0.32000000E+00 0.0000E+00 0.9000E+01
       25  1    1    2    0    0 0.38392375E+02 -.27798384E+02 0.10818113E+04 0.10900401E+04 0.12500000E+03 0.0000E+00 0.9000E+01
       23  1    1    2    0    0 -.38392375E+02 0.27798384E+02 0.66814828E+03 0.67600599E+03 0.91188000E+02 0.0000E+00 0.9000E+01
#aMCatNLO 1  0  0  1  1 0.11213800D+03 0.00000000D+00  -5  5  0 0.00000000D+00 0.00000000D+00 0.00000000D+00 0.00000000D+00 0.00000000D+00
  <mgrwgt>
 0.2242822980D+00    6    2    0
 0.118911999110092D+03 0.000000000000000D+00 0.000000000000000D+00 0.118911999110092D+03
 0.118911999110092D+03 0.000000000000000D+00 0.000000000000000D+00 -.118911999110092D+03
 0.134279978604812D+03 0.383923753970578D+02 -.277983837655488D+02 0.126248970492161D+02
 0.103544019615373D+03 -.383923753970578D+02 0.277983837655488D+02 -.126248970492161D+02
 0.000000000000000D+00 -.000000000000000D+00 -.000000000000000D+00 0.000000000000000D+00
 0.194226917011628D+03 0.000000000000000D+00 0.000000000000000D+00 0.194226917011628D+03
 0.181559939053207D+03 0.000000000000000D+00 0.000000000000000D+00 -.181559939053207D+03
 0.165052550291502D+03 0.105037745109647D+03 -.206162177546264D+02 0.126248970492161D+02
 0.978831535531173D+02 0.645469977874391D+01 0.326314147833973D+02 -.126248970492161D+02
 0.112851152220216D+03 -.111492444888391D+03 -.120151970287709D+02 0.126669779584204D+02
0.207727784015D-03 0.000000000000D+00 0.000000000000D+00 0.215049514167D-02 0.000000000000D+00  5 1 -1 25 23 21 0 0.27046197D+00 0.12374237D-02 0.13977936D+05 0.13977936D+05 0.13977936D+05 0.12513317D+01  1  2  2  1  5  1        1 0.135873576317D+00 0.100000000000D+01
-.115399659395D-04 0.000000000000D+00 -.797729386598D-06 0.215049514167D-02 0.000000000000D+00  5 1 -1 25 23 21 2 0.27046197D+00 0.12374237D-02 0.13977936D+05 0.13977936D+05 0.13977936D+05 0.12513317D+01  1  2  3  1  5  1        1 -.118192472707D-01 0.100000000000D+01
0.143992297036D-04 0.000000000000D+00 0.000000000000D+00 0.215049514167D-02 0.000000000000D+00  5 1 -1 25 23 21 2 0.27046197D+00 0.12374237D-02 0.13977936D+05 0.13977936D+05 0.13977936D+05 0.12513317D+01  1  2 15  1  5  1        1 0.147477087252D-01 0.100000000000D+01
-.600713877174D-04 0.000000000000D+00 -.580164901526D-04 0.215049514167D-02 0.000000000000D+00  5 1 -1 25 23 21 2 0.51701248D+00 0.12374237D-02 0.13977936D+05 0.13977936D+05 0.13977936D+05 0.12513317D+01  1  2  5  1  5  1        1 -.537423035581D-02 0.100000000000D+01
0.887340800153D-04 0.000000000000D+00 0.476577267245D-04 0.215049514167D-02 0.000000000000D+00  5 1 -1 25 23 21 2 0.27046197D+00 0.12374237D-02 0.13977936D+05 0.13977936D+05 0.13977936D+05 0.12513317D+01  1  2  6  1  5  1        1 0.908815535974D-01 0.100000000000D+01
-.890758515435D-06 0.000000000000D+00 -.408161715398D-05 0.215049514167D-02 0.000000000000D+00  5 21 -1 25 23 -1 2 0.51701248D+00 0.12374237D-02 0.13977936D+05 0.13977936D+05 0.13977936D+05 0.12513317D+01  1  2  5  3  5  1        1 -.270629953520D-04 0.100000000000D+01
  </mgrwgt>
  </event>
  <event>
  4     66 0.49155423E-03 0.11955084E+03 0.75467711E-02 0.11062539E+00
        3 -1    0    0  501    0 0.00000000E+00 0.00000000E+00 0.10599773E+04 0.10599774E+04 0.50000000E+00 0.0000E+00 0.9000E+01
       -3 -1    0    0    0  501 0.00000000E+00 0.00000000E+00 -.14223102E+02 0.14231888E+02 0.50000000E+00 0.0000E+00 0.9000E+01
       25  1    1    2    0    0 -.38251438E+02 -.33056962E+02 0.46437524E+03 0.48355486E+03 0.12500000E+03 0.0000E+00 0.9000E+01
       23  1    1    2    0    0 0.38251438E+02 0.33056962E+02 0.58137893E+03 0.59065442E+03 0.91188000E+02 0.0000E+00 0.9000E+01
#aMCatNLO 1  0  0  2  1 0.20699028D+03 0.00000000D+00  -5  5  0 0.00000000D+00 0.00000000D+00 0.00000000D+00 0.00000000D+00 0.00000000D+00
  <mgrwgt>
 0.1022811826D-01    5    2    0
 0.122804509165017D+03 0.000000000000000D+00 0.000000000000000D+00 0.122804509165017D+03
 0.122804509165017D+03 0.000000000000000D+00 0.000000000000000D+00 -.122804509165017D+03
 0.137685372876173D+03 -.382514376263657D+02 -.330569623325527D+02 -.278626392308996D+02
 0.107923645453862D+03 0.382514376263657D+02 0.330569623325527D+02 0.278626392308996D+02
 0.000000000000000D+00 0.000000000000000D+00 -.000000000000000D+00 -.000000000000000D+00
 0.204119104608474D+03 0.000000000000000D+00 0.000000000000000D+00 0.204119104608474D+03
 0.406723893635204D+03 0.000000000000000D+00 0.000000000000000D+00 -.406723893635204D+03
 0.201185389428714D+03 -.154945314711530D+03 0.813533672424650D+01 -.278626392308996D+02
 0.120013559384697D+03 -.402412478554089D+02 0.607644501193957D+02 0.278626392308996D+02
 0.289644049430267D+03 0.195186562566939D+03 -.688997868436422D+02 -.202604789026730D+03
0.164354446362D-03 0.000000000000D+00 0.000000000000D+00 0.200598897111D-02 0.000000000000D+00  5 3 -3 25 23 21 0 0.16307411D+00 0.21888545D-02 0.14292403D+05 0.14292403D+05 0.14292403D+05 0.12502221D+01  1  2  2  2  5  2       -3 0.866296122014D-02 0.100000000000D+01
-.912279789396D-05 0.000000000000D+00 -.631164349550D-06 0.200598897111D-02 0.000000000000D+00  5 3 -3 25 23 21 2 0.16307411D+00 0.21888545D-02 0.14292403D+05 0.14292403D+05 0.14292403D+05 0.12502221D+01  1  2  3  2  5  2       -3 -.751600904791D-03 0.100000000000D+01
0.113765882331D-04 0.000000000000D+00 0.000000000000D+00 0.200598897111D-02 0.000000000000D+00  5 3 -3 25 23 21 2 0.16307411D+00 0.21888545D-02 0.14292403D+05 0.14292403D+05 0.14292403D+05 0.12502221D+01  1  2 15  2  5  2       -3 0.937284165321D-03 0.100000000000D+01
0.603682917895D-04 0.000000000000D+00 -.717818254249D-04 0.200598897111D-02 0.000000000000D+00  5 3 -3 25 23 21 2 0.16307411D+00 0.12469478D-01 0.14292403D+05 0.14292403D+05 0.14292403D+05 0.12502221D+01  1  2  5  2  5  2       -3 0.314196660237D-03 0.100000000000D+01
0.900945074167D-05 0.000000000000D+00 -.152979462630D-04 0.200598897111D-02 0.000000000000D+00  5 3 21 25 23 3 2 0.16307411D+00 0.12469478D-01 0.14292403D+05 0.14292403D+05 0.14292403D+05 0.12502221D+01  1  2  5  4  5  2       -3 0.106527711803D-02 0.100000000000D+01
  </mgrwgt>
  </event>
  <event>
  4     66 0.49155423E-03 0.13635674E+03 0.75467711E-02 0.11858982E+00
        1 -1    0    0  501    0 0.00000000E+00 0.00000000E+00 0.89946282E+03 0.89946288E+03 0.32000000E+00 0.0000E+00 0.9000E+01
       -1 -1    0    0    0  501 0.00000000E+00 0.00000000E+00 -.22481243E+02 0.22483521E+02 0.32000000E+00 0.0000E+00 0.9000E+01
       25  1    1    2    0    0 0.60778093E+02 -.55755442E+02 0.34786577E+03 0.37873241E+03 0.12500000E+03 0.0000E+00 0.9000E+01
       23  1    1    2    0    0 -.60778093E+02 0.55755442E+02 0.52911581E+03 0.54321399E+03 0.91188000E+02 0.0000E+00 0.9000E+01
#aMCatNLO 1  0  0  1  1 0.48295766D+02 0.00000000D+00  -5  5  0 0.00000000D+00 0.00000000D+00 0.00000000D+00 0.00000000D+00 0.00000000D+00
  <mgrwgt>
 0.1426463937D+00    4    2    0
 0.142204495540398D+03 0.000000000000000D+00 0.000000000000000D+00 0.142204495540398D+03
 0.142204495540398D+03 0.000000000000000D+00 0.000000000000000D+00 -.142204495540398D+03
 0.155055264829059D+03 0.607780929309416D+02 -.557554424169634D+02 -.401807069596340D+02
 0.129353726251738D+03 -.607780929309416D+02 0.557554424169634D+02 0.401807069596340D+02
 0.000000000000000D+00 -.000000000000000D+00 0.000000000000000D+00 -.000000000000000D+00
 0.152914302173867D+03 0.000000000000000D+00 0.000000000000000D+00 0.152914302173867D+03
 0.211465737905258D+03 0.000000000000000D+00 0.000000000000000D+00 -.211465737905258D+03
 0.167817577501661D+03 0.637631118241903D+02 -.828101182057230D+02 -.401807069596340D+02
 0.120662846870379D+03 -.584666436650093D+02 0.348056552536719D+02 0.401807069596340D+02
 0.758996157070855D+02 -.529646815918107D+01 0.480044629520511D+02 -.585514357313908D+02
0.294149921576D-03 0.000000000000D+00 0.000000000000D+00 0.168718696462D-02 0.000000000000D+00  5 1 -1 25 23 21 0 0.13837908D+00 0.34588324D-02 0.18593161D+05 0.18593161D+05 0.18593161D+05 0.12373287D+01  1  2  2  1  5  1        1 0.166943853191D+00 0.100000000000D+01
-.163066273137D-04 0.000000000000D+00 -.112961315030D-05 0.168718696462D-02 0.000000000000D+00  5 1 -1 25 23 21 2 0.13837908D+00 0.34588324D-02 0.18593161D+05 0.18593161D+05 0.18593161D+05 0.12373287D+01  1  2  3  1  5  1        1 -.141688959925D-01 0.100000000000D+01
0.203479162280D-04 0.000000000000D+00 0.000000000000D+00 0.168718696462D-02 0.000000000000D+00  5 1 -1 25 23 21 2 0.13837908D+00 0.34588324D-02 0.18593161D+05 0.18593161D+05 0.18593161D+05 0.12373287D+01  1  2 15  1  5  1        1 0.176803886636D-01 0.100000000000D+01
-.320046261001D-04 0.000000000000D+00 0.000000000000D+00 0.168718696462D-02 0.000000000000D+00  5 1 -1 25 23 21 2 0.13837908D+00 0.34588324D-02 0.18593161D+05 0.18593161D+05 0.18593161D+05 0.12373287D+01  1  2  4  1  5  1        1 -.278089521376D-01 0.100000000000D+01
  </mgrwgt>
  </event>
  <event>
  5     66 0.49155423E-03 0.12562481E+03 0.75467711E-02 0.11345985E+00
       21 -1    0    0  501  502 0.00000000E+00 0.00000000E+00 0.62636907E+03 0.62636952E+03 0.75000000E+00 0.0000E+00 0.9000E+01
       -1 -1    0    0    0  501 0.00000000E+00 0.00000000E+00 -.16930822E+03 0.16930852E+03 0.32000000E+00 0.0000E+00 0.9000E+01
       25  1    1    2    0    0 -.93899548E+02 -.87647495E+02 -.42524807E+02 0.18420795E+03 0.12500000E+03 0.0000E+00 0.9000E+01
       23  1    1    2    0    0 -.46772978E+02 0.44352025E+02 0.24794967E+02 0.11438905E+03 0.91188000E+02 0.0000E+00 0.9000E+01
       -1  1    1    2    0  502 0.14067253E+03 0.43295470E+02 0.47479070E+03 0.49708104E+03 0.32000000E+00 0.0000E+00 0.9000E+01
#aMCatNLO 2  0  0  1  1 0.14718443D+03 0.00000000D+00  -5  5  0 0.00000000D+00 0.00000000D+00 0.00000000D+00 0.00000000D+00 0.00000000D+00
  <mgrwgt>
 0.2958320746D-01    1    2    0
 0.129597996994168D+03 0.000000000000000D+00 0.000000000000000D+00 0.129597996994168D+03
 0.129597996994168D+03 0.000000000000000D+00 0.000000000000000D+00 -.129597996994168D+03
 0.143698810327589D+03 -.116813000688204D+02 -.623427832590304D+02 -.316428932587407D+02
 0.115497183660747D+03 0.116813000688204D+02 0.623427832590304D+02 0.316428932587407D+02
 0.000000000000000D+00 0.000000000000000D+00 0.000000000000000D+00 0.000000000000000D+00
 0.664734137407612D+03 0.000000000000000D+00 0.000000000000000D+00 0.664734137407612D+03
 0.159536969354842D+03 0.000000000000000D+00 0.000000000000000D+00 -.159536969354842D+03
 0.182004068929170D+03 -.938995477215551D+02 -.876474948340084D+02 -.316428932587407D+02
 0.116066091545394D+03 -.467729781114110D+02 0.443520246147711D+02 0.316428932587407D+02
 0.526200946287890D+03 0.140672525832966D+03 0.432954702192373D+02 0.505197168052770D+03
0.197703906256D-03 0.000000000000D+00 0.000000000000D+00 0.187715474900D-02 0.442256200085D-06  5 21 -1 25 23 -1 2 0.96364503D-01 0.26047468D-01 0.47979869D+05 0.47979869D+05 0.47979869D+05 0.11940597D+01  1  2  1  3  5  1        1 0.295832074577D-01 0.100000000000D+01
  </mgrwgt>
  </event>
  <event>
  4     66 0.49155423E-03 0.14067074E+03 0.75467711E-02 0.11583667E+00
        1 -1    0    0  501    0 0.00000000E+00 0.00000000E+00 0.60214413E+03 0.60214422E+03 0.32000000E+00 0.0000E+00 0.9000E+01
       -1 -1    0    0    0  501 0.00000000E+00 0.00000000E+00 -.40823206E+02 0.40824461E+02 0.32000000E+00 0.0000E+00 0.9000E+01
       25  1    1    2    0    0 -.89314535E+02 -.31318807E+01 0.16004715E+03 0.22187155E+03 0.12500000E+03 0.0000E+00 0.9000E+01
       23  1    1    2    0    0 0.89314535E+02 0.31318807E+01 0.40127378E+03 0.42109713E+03 0.91188000E+02 0.0000E+00 0.9000E+01
#aMCatNLO 1  0  0  2  2 0.85962618D+02 0.00000000D+00  -5  5  0 0.00000000D+00 0.00000000D+00 0.00000000D+00 0.00000000D+00 0.00000000D+00
  <mgrwgt>
 0.8070172530D-01    4    2    0
 0.156786111235607D+03 0.000000000000000D+00 0.000000000000000D+00 0.156786111235607D+03
 0.156786111235607D+03 0.000000000000000D+00 0.000000000000000D+00 -.156786111235607D+03
 0.168441717396116D+03 -.893145352997432D+02 -.313188069763199D+01 -.689979511785658D+02
 0.145130505075098D+03 0.893145352997432D+02 0.313188069763199D+01 0.689979511785658D+02
 0.000000000000000D+00 -.000000000000000D+00 0.000000000000000D+00 0.000000000000000D+00
 0.207416789721862D+03 0.000000000000000D+00 0.000000000000000D+00 0.207416789721862D+03
 0.203765034803517D+03 0.000000000000000D+00 0.000000000000000D+00 -.203765034803517D+03
 0.152325533941690D+03 -.493668515481571D+02 -.195003844065544D+02 -.689979511785658D+02
 0.172816143368841D+03 0.128910947056065D+03 -.130926898362637D+02 0.689979511785658D+02
 0.860401472148474D+02 -.795440955079074D+02 0.325930742428181D+02 0.365175491834462D+01
0.317264020778D-03 0.000000000000D+00 0.000000000000D+00 0.140059922806D-02 0.000000000000D+00  5 1 -1 25 23 21 0 0.92637662D-01 0.62805963D-02 0.19788258D+05 0.19788258D+05 0.19788258D+05 0.12343353D+01  1  2  2  2  5  2       -1 0.134456457049D+00 0.100000000000D+01
-.173736786679D-04 0.000000000000D+00 -.121837737732D-05 0.140059922806D-02 0.000000000000D+00  5 1 -1 25 23 21 2 0.92637662D-01 0.62805963D-02 0.19788258D+05 0.19788258D+05 0.19788258D+05 0.12343353D+01  1  2  3  2  5  2       -1 -.112180893594D-01 0.100000000000D+01
0.219211971538D-04 0.000000000000D+00 0.000000000000D+00 0.140059922806D-02 0.000000000000D+00  5 1 -1 25 23 21 2 0.92637662D-01 0.62805963D-02 0.19788258D+05 0.19788258D+05 0.19788258D+05 0.12343353D+01  1  2 15  2  5  2       -1 0.141543971910D-01 0.100000000000D+01
-.877985433589D-04 0.000000000000D+00 0.000000000000D+00 0.140059922806D-02 0.000000000000D+00  5 1 -1 25 23 21 2 0.92637662D-01 0.62805963D-02 0.19788258D+05 0.19788258D+05 0.19788258D+05 0.12343353D+01  1  2  4  2  5  2       -1 -.566910395804D-01 0.100000000000D+01
  </mgrwgt>
  </event>
  <event>
  4     66 0.49155423E-03 0.11057605E+03 0.75467711E-02 0.11945552E+00
        1 -1    0    0  501    0 0.00000000E+00 0.00000000E+00 0.23899706E+03 0.23899727E+03 0.32000000E+00 0.0000E+00 0.9000E+01
       -1 -1    0    0    0  501 0.00000000E+00 0.00000000E+00 -.65179051E+02 0.65179836E+02 0.32000000E+00 0.0000E+00 0.9000E+01
       25  1    1    2    0    0 -.59437689E+01 0.22242648E+02 0.16701933E+03 0.20988216E+03 0.12500000E+03 0.0000E+00 0.9000E+01
       23  1    1    2    0    0 0.59437689E+01 -.22242648E+02 0.67986743E+01 0.94294947E+02 0.91188000E+02 0.0000E+00 0.9000E+01
#aMCatNLO 1  0  0  1  2 0.76150219D+02 0.00000000D+00  -5  5  0 0.00000000D+00 0.00000000D+00 0.00000000D+00 0.00000000D+00 0.00000000D+00
  <mgrwgt>
 0.1731483372D+00    3    2    0
 0.124810869840743D+03 0.000000000000000D+00 0.000000000000000D+00 0.124810869840743D+03
 0.124810869840743D+03 0.000000000000000D+00 0.000000000000000D+00 -.124810869840743D+03
 0.139452520574623D+03 -.594376888319503D+01 0.222426477957334D+02 0.573754453151686D+02
 0.110169219106862D+03 0.594376888319503D+01 -.222426477957334D+02 -.573754453151686D+02
 0.000000000000000D+00 -.000000000000000D+00 -.000000000000000D+00 -.000000000000000D+00
 0.144179448823762D+03 0.000000000000000D+00 0.000000000000000D+00 0.144179448823762D+03
 0.236384310654944D+03 0.000000000000000D+00 0.000000000000000D+00 -.236384310654944D+03
 0.148809324586520D+03 0.268162275428514D+02 0.500815664606503D+02 0.573754453151686D+02
 0.112169350415224D+03 0.312118050981301D+02 -.770276557912553D+00 -.573754453151686D+02
 0.119585084476962D+03 -.580280326409815D+02 -.493112899027377D+02 -.922048618311827D+02
0.254411214439D-03 0.000000000000D+00 0.000000000000D+00 0.171938262304D-02 0.000000000000D+00  5 1 -1 25 23 21 0 0.36768855D-01 0.10027623D-01 0.12227064D+05 0.12227064D+05 0.12227064D+05 0.12580711D+01  1  2  2  1  5  1        1 0.169351246842D+00 0.100000000000D+01
-.138819538706D-04 0.000000000000D+00 -.977006051455D-06 0.171938262304D-02 0.000000000000D+00  5 1 -1 25 23 21 2 0.36768855D-01 0.10027623D-01 0.12227064D+05 0.12227064D+05 0.12227064D+05 0.12580711D+01  1  2  3  1  5  1        1 -.146255810380D-01 0.100000000000D+01
0.174859838818D-04 0.000000000000D+00 0.000000000000D+00 0.171938262304D-02 0.000000000000D+00  5 1 -1 25 23 21 2 0.36768855D-01 0.10027623D-01 0.12227064D+05 0.12227064D+05 0.12227064D+05 0.12580711D+01  1  2 15  1  5  1        1 0.184226713815D-01 0.100000000000D+01
  </mgrwgt>
  </event>
  <event>
  4     66 0.49155423E-03 0.15940624E+03 0.75467711E-02 0.10913052E+00
        1 -1    0    0  501    0 0.00000000E+00 0.00000000E+00 0.27901058E+03 0.27901076E+03 0.32000000E+00 0.0000E+00 0.9000E+01
       -1 -1    0    0    0  501 0.00000000E+00 0.00000000E+00 -.91072625E+02 0.91073187E+02 0.32000000E+00 0.0000E+00 0.9000E+01
       25  1    1    2    0    0 -.35581500E+01 0.11644306E+03 0.10058579E+03 0.19827796E+03 0.12500000E+03 0.0000E+00 0.9000E+01
       23  1    1    2    0    0 0.35581500E+01 -.11644306E+03 0.87352159E+02 0.17180599E+03 0.91188000E+02 0.0000E+00 0.9000E+01
#aMCatNLO 1  0  0  2  2 0.19999973D+03 0.00000000D+00  -5  5  0 0.00000000D+00 0.00000000D+00 0.00000000D+00 0.00000000D+00 0.00000000D+00
  <mgrwgt>
 0.1443651311D+00    5    2    0
 0.159406284803824D+03 0.000000000000000D+00 0.000000000000000D+00 0.159406284803824D+03
 0.159406284803824D+03 0.000000000000000D+00 0.000000000000000D+00 -.159406284803824D+03
 0.170870306854454D+03 -.355814998518904D+01 0.116443061398315D+03 -.121595256750021D+00
 0.147942262753194D+03 0.355814998518904D+01 -.116443061398315D+03 0.121595256750021D+00
 0.000000000000000D+00 -.000000000000000D+00 0.000000000000000D+00 -.000000000000000D+00
 0.246841779830852D+03 0.000000000000000D+00 0.000000000000000D+00 0.246841779830852D+03
 0.358633996186644D+03 0.000000000000000D+00 0.000000000000000D+00 -.358633996186644D+03
 0.135654296535782D+03 0.365897315862148D+02 0.379244634195415D+02 -.121595256750021D+00
 0.240698390308052D+03 0.544614012751735D+02 -.215996307233771D+03 0.121595256750021D+00
 0.229123089173662D+03 -.910511328613883D+02 0.178071843814229D+03 -.111792216355793D+03
0.403119570595D-03 0.000000000000D+00 0.000000000000D+00 0.165234940094D-02 0.000000000000D+00  5 1 -1 25 23 21 0 0.42924762D-01 0.14011230D-01 0.25410349D+05 0.25410349D+05 0.25410349D+05 0.12225403D+01  1  2  2  2  5  2       -1 0.135187778177D+00 0.100000000000D+01
-.223955316997D-04 0.000000000000D+00 -.154808529490D-05 0.165234940094D-02 0.000000000000D+00  5 1 -1 25 23 21 2 0.42924762D-01 0.14011230D-01 0.25410349D+05 0.25410349D+05 0.25410349D+05 0.12225403D+01  1  2  3  2  5  2       -1 -.112251279787D-01 0.100000000000D+01
0.277131723560D-04 0.000000000000D+00 0.000000000000D+00 0.165234940094D-02 0.000000000000D+00  5 1 -1 25 23 21 2 0.42924762D-01 0.14011230D-01 0.25410349D+05 0.25410349D+05 0.25410349D+05 0.12225403D+01  1  2 15  2  5  2       -1 0.138904452265D-01 0.100000000000D+01
0.205656031483D-04 0.000000000000D+00 -.127417550237D-03 0.165234940094D-02 0.000000000000D+00  5 1 -1 25 23 21 2 0.42924762D-01 0.47274675D-01 0.25410349D+05 0.25410349D+05 0.25410349D+05 0.12225403D+01  1  2  5  2  5  2       -1 0.135881392600D-02 0.100000000000D+01
0.759874532144D-05 0.000000000000D+00 -.180154453101D-04 0.165234940094D-02 0.000000000000D+00  5 1 21 25 23 1 2 0.42924762D-01 0.47274675D-01 0.25410349D+05 0.25410349D+05 0.25410349D+05 0.12225403D+01  1  2  5  4  5  2       -1 0.515322174127D-02 0.100000000000D+01
  </mgrwgt>
  </event>
  <event>
  4     66 0.49155423E-03 0.11648757E+03 0.75467711E-02 0.11768388E+00
        1 -1    0    0  501    0 0.00000000E+00 0.00000000E+00 0.13123455E+03 0.13123494E+03 0.32000000E+00 0.0000E+00 0.9000E+01
       -1 -1    0    0    0  501 0.00000000E+00 0.00000000E+00 -.10618999E+03 0.10619047E+03 0.32000000E+00 0.0000E+00 0.9000E+01
       25  1    1    2    0    0 0.41634403E+02 -.10578840E+02 -.49177078E+01 0.13226685E+03 0.12500000E+03 0.0000E+00 0.9000E+01
       23  1    1    2    0    0 -.41634403E+02 0.10578840E+02 0.29962269E+02 0.10515857E+03 0.91188000E+02 0.0000E+00 0.9000E+01
#aMCatNLO 1  0  0  2  2 0.91643665D+02 0.00000000D+00  -5  5  0 0.00000000D+00 0.00000000D+00 0.00000000D+00 0.00000000D+00 0.00000000D+00
  <mgrwgt>
 0.8681155158D-01    5    2    0
 0.118050411081620D+03 0.000000000000000D+00 0.000000000000000D+00 0.118050411081620D+03
 0.118050411081620D+03 0.000000000000000D+00 0.000000000000000D+00 -.118050411081620D+03
 0.133530553397571D+03 0.416344034763682D+02 -.105788401719083D+02 -.189755969193554D+02
 0.102570268765669D+03 -.416344034763682D+02 0.105788401719083D+02 0.189755969193554D+02
 0.000000000000000D+00 -.000000000000000D+00 0.000000000000000D+00 -.000000000000000D+00
 0.169264927332413D+03 0.000000000000000D+00 0.000000000000000D+00 0.169264927332413D+03
 0.175880213802525D+03 0.000000000000000D+00 0.000000000000000D+00 -.175880213802525D+03
 0.150092576742594D+03 0.508767741811514D+02 -.628829242617237D+02 -.189755969193554D+02
 0.103170447742203D+03 -.349299715420131D+02 -.273626342473627D+02 0.189755969193554D+02
 0.918821166501416D+02 -.159468026391383D+02 0.902455585090864D+02 -.661528647011250D+01
0.138987063203D-03 0.000000000000D+00 0.000000000000D+00 0.214642851954D-02 0.000000000000D+00  5 1 -1 25 23 21 0 0.20189998D-01 0.16336989D-01 0.13569353D+05 0.13569353D+05 0.13569353D+05 0.12528160D+01  1  2  2  2  5  2       -1 0.921769168098D-01 0.100000000000D+01
-.771983602736D-05 0.000000000000D+00 -.533746918833D-06 0.214642851954D-02 0.000000000000D+00  5 1 -1 25 23 21 2 0.20189998D-01 0.16336989D-01 0.13569353D+05 0.13569353D+05 0.13569353D+05 0.12528160D+01  1  2  3  2  5  2       -1 -.803582464873D-02 0.100000000000D+01
0.961842971374D-05 0.000000000000D+00 0.000000000000D+00 0.214642851954D-02 0.000000000000D+00  5 1 -1 25 23 21 2 0.20189998D-01 0.16336989D-01 0.13569353D+05 0.13569353D+05 0.13569353D+05 0.12528160D+01  1  2 15  2  5  2       -1 0.100121316440D-01 0.100000000000D+01
-.275527413309D-04 0.000000000000D+00 -.413311078389D-04 0.214642851954D-02 0.000000000000D+00  5 1 -1 25 23 21 2 0.20189998D-01 0.34277416D-01 0.13569353D+05 0.13569353D+05 0.13569353D+05 0.12528160D+01  1  2  5  2  5  2       -1 -.856921448223D-02 0.100000000000D+01
0.350361610071D-06 0.000000000000D+00 -.331246923470D-05 0.214642851954D-02 0.000000000000D+00  5 1 21 25 23 1 2 0.20189998D-01 0.34277416D-01 0.13569353D+05 0.13569353D+05 0.13569353D+05 0.12528160D+01  1  2  5  4  5  2       -1 0.122754226000D-02 0.100000000000D+01
  </mgrwgt>
  </event>
  <event>
  4     66 0.49155423E-03 0.10641456E+03 0.75467711E-02 0.12148125E+00
        1 -1    0    0  501    0 0.00000000E+00 0.00000000E+00 0.98736913E+02 0.98737432E+02 0.32000000E+00 0.0000E+00 0.9000E+01
       -1 -1    0    0    0  501 0.00000000E+00 0.00000000E+00 -.17396842E+03 0.17396871E+03 0.32000000E+00 0.0000E+00 0.9000E+01
       25  1    1    2    0    0 -.64445555E+02 0.34051502E+02 -.31815348E+02 0.14815516E+03 0.12500000E+03 0.0000E+00 0.9000E+01
       23  1    1    2    0    0 0.64445555E+02 -.34051502E+02 -.43416158E+02 0.12455099E+03 0.91188000E+02 0.0000E+00 0.9000E+01
#aMCatNLO 1  0  0  2  1 0.15883442D+02 0.00000000D+00  -5  5  0 0.00000000D+00 0.00000000D+00 0.00000000D+00 0.00000000D+00 0.00000000D+00
  <mgrwgt>
 0.1221284608D+00    9    2    0
 0.131061876755500D+03 0.000000000000000D+00 0.000000000000000D+00 0.131061876755500D+03
 0.131061876755500D+03 0.000000000000000D+00 0.000000000000000D+00 -.131061876755500D+03
 0.145005192761947D+03 -.644455554684398D+02 0.340515015257929D+02 0.942186563970267D+01
 0.117118560749052D+03 0.644455554684398D+02 -.340515015257929D+02 -.942186563970267D+01
 0.000000000000000D+00 -.000000000000000D+00 0.000000000000000D+00 -.000000000000000D+00
 0.136295303869872D+03 0.000000000000000D+00 0.000000000000000D+00 0.136295303869872D+03
 0.143934060499353D+03 0.000000000000000D+00 0.000000000000000D+00 -.143934060499353D+03
 0.142186431380999D+03 -.619838305085206D+02 0.257140909273881D+02 0.942186563970267D+01
 0.120418111397591D+03 0.664816522956527D+02 -.409473877612477D+02 -.942186563970267D+01
 0.176248215906349D+02 -.449782178713210D+01 0.152332968338596D+02 -.763875662948063D+01
0.205030631085D-03 0.000000000000D+00 0.000000000000D+00 0.193788671539D-02 0.000000000000D+00  5 1 -1 25 23 21 0 0.15190357D-01 0.26764435D-01 0.17087422D+05 0.17087422D+05 0.17087422D+05 0.12414229D+01  1  2  2  2  5  2       -1 0.890646847001D-01 0.100000000000D+01
-.113904955062D-04 0.000000000000D+00 -.787371609171D-06 0.193788671539D-02 0.000000000000D+00  5 1 -1 25 23 21 2 0.15190357D-01 0.26764435D-01 0.17087422D+05 0.17087422D+05 0.17087422D+05 0.12414229D+01  1  2  3  2  5  2       -1 -.762551017254D-02 0.100000000000D+01
0.141382043773D-04 0.000000000000D+00 0.000000000000D+00 0.193788671539D-02 0.000000000000D+00  5 1 -1 25 23 21 2 0.15190357D-01 0.26764435D-01 0.17087422D+05 0.17087422D+05 0.17087422D+05 0.12414229D+01  1  2 15  2  5  2       -1 0.946499836127D-02 0.100000000000D+01
0.395990407241D-03 0.000000000000D+00 0.000000000000D+00 0.193788671539D-02 0.000000000000D+00  5 1 -1 25 23 21 2 0.15190357D-01 0.29888873D-01 0.19294087D+05 0.19294087D+05 0.19294087D+05 0.12355478D+01  1  2 12  2  5  2       -1 0.219214752839D+00 0.100000000000D+01
-.383299327040D-03 0.000000000000D+00 0.000000000000D+00 0.193788671539D-02 0.000000000000D+00  5 1 -1 25 23 21 2 0.15190357D-01 0.26764435D-01 0.17087422D+05 0.17087422D+05 0.17087422D+05 0.12414229D+01  1  2  4  2  5  2       -1 -.256604545067D+00 0.100000000000D+01
-.103618770080D-02 0.000000000000D+00 -.203923187530D-03 0.193788671539D-02 0.000000000000D+00  5 1 -1 25 23 21 2 0.15190357D-01 0.30458188D-01 0.17087422D+05 0.17087422D+05 0.17087422D+05 0.12414229D+01  1  2  5  2  5  2       -1 -.559150214979D+00 0.100000000000D+01
0.105541130279D-02 0.000000000000D+00 0.202230834032D-03 0.193788671539D-02 0.000000000000D+00  5 1 -1 25 23 21 2 0.15190357D-01 0.26764435D-01 0.17087422D+05 0.17087422D+05 0.17087422D+05 0.12414229D+01  1  2  6  2  5  2       -1 0.706558342546D+00 0.100000000000D+01
0.700218463095D-05 0.000000000000D+00 0.000000000000D+00 0.193788671539D-02 0.000000000000D+00  5 1 21 25 23 1 2 0.15190357D-01 0.29888873D-01 0.19294087D+05 0.19294087D+05 0.19294087D+05 0.12355478D+01  1  2 12  4  5  2       -1 0.448777539639D-01 0.100000000000D+01
-.198422432179D-04 0.000000000000D+00 -.411775587299D-05 0.193788671539D-02 0.000000000000D+00  5 1 21 25 23 1 2 0.15190357D-01 0.30458188D-01 0.17087422D+05 0.17087422D+05 0.17087422D+05 0.12414229D+01  1  2  5  4  5  2       -1 -.123671801395D+00 0.100000000000D+01
  </mgrwgt>
  </event>
  <event>
  4     66 0.49155423E-03 0.10167004E+03 0.75467711E-02 0.11764300E+00
        1 -1    0    0  501    0 0.00000000E+00 0.00000000E+00 0.48219323E+02 0.48220384E+02 0.32000000E+00 0.0000E+00 0.9000E+01
       -1 -1    0    0    0  501 0.00000000E+00 0.00000000E+00 -.42228320E+03 0.42228332E+03 0.32000000E+00 0.0000E+00 0.9000E+01
       25  1    1    2    0    0 -.88801371E+02 -.22257602E+02 -.18199056E+03 0.23901181E+03 0.12500000E+03 0.0000E+00 0.9000E+01
       23  1    1    2    0    0 0.88801371E+02 0.22257602E+02 -.19207333E+03 0.23149190E+03 0.91188000E+02 0.0000E+00 0.9000E+01
#aMCatNLO 1  0  0  1  2 0.53595842D+02 0.00000000D+00  -5  5  0 0.00000000D+00 0.00000000D+00 0.00000000D+00 0.00000000D+00 0.00000000D+00
  <mgrwgt>
 0.1024468926D+00    9    2    0
 0.142697190950654D+03 0.000000000000000D+00 0.000000000000000D+00 0.142697190950654D+03
 0.142697190950654D+03 0.000000000000000D+00 0.000000000000000D+00 -.142697190950654D+03
 0.155503589954205D+03 -.888013711948535D+02 -.222576016009301D+02 0.132394159060576D+02
 0.129890791947102D+03 0.888013711948535D+02 0.222576016009301D+02 -.132394159060576D+02
 0.000000000000000D+00 0.000000000000000D+00 0.000000000000000D+00 0.000000000000000D+00
 0.251000560392990D+03 0.000000000000000D+00 0.000000000000000D+00 0.251000560392990D+03
 0.151978688904759D+03 0.000000000000000D+00 0.000000000000000D+00 -.151978688904759D+03
 0.169715435105740D+03 -.102958612820319D+03 -.490160262129899D+02 0.132394159060576D+02
 0.120667876144429D+03 0.778941999281266D+02 0.164209416009210D+01 -.132394159060576D+02
 0.112595938047581D+03 0.250644128921929D+02 0.473739320528978D+02 0.990218714882312D+02
0.425802960421D-03 0.000000000000D+00 0.000000000000D+00 0.178559886436D-02 0.000000000000D+00  5 1 -1 25 23 21 0 0.74184483D-02 0.64966738D-01 0.20185770D+05 0.20185770D+05 0.20185770D+05 0.12333842D+01  1  2  2  1  5  1        1 0.991768834288D-01 0.100000000000D+01
-.236551737124D-04 0.000000000000D+00 -.163519548451D-05 0.178559886436D-02 0.000000000000D+00  5 1 -1 25 23 21 2 0.74184483D-02 0.64966738D-01 0.20185770D+05 0.20185770D+05 0.20185770D+05 0.12333842D+01  1  2  3  1  5  1        1 -.838155712911D-02 0.100000000000D+01
0.294675815133D-04 0.000000000000D+00 0.000000000000D+00 0.178559886436D-02 0.000000000000D+00  5 1 -1 25 23 21 2 0.74184483D-02 0.64966738D-01 0.20185770D+05 0.20185770D+05 0.20185770D+05 0.12333842D+01  1  2 15  1  5  1        1 0.104410232160D-01 0.100000000000D+01
0.712621831195D-03 0.000000000000D+00 0.000000000000D+00 0.178559886436D-02 0.000000000000D+00  5 1 -1 25 23 21 2 0.13127819D-01 0.64966738D-01 0.29366557D+05 0.29366557D+05 0.29366557D+05 0.12158723D+01  1  2 12  1  5  1        1 0.115502003304D+00 0.100000000000D+01
-.763942608227D-03 0.000000000000D+00 0.000000000000D+00 0.178559886436D-02 0.000000000000D+00  5 1 -1 25 23 21 2 0.74184483D-02 0.64966738D-01 0.20185770D+05 0.20185770D+05 0.20185770D+05 0.12333842D+01  1  2  4  1  5  1        1 -.270681952797D+00 0.100000000000D+01
-.865434941766D-03 0.000000000000D+00 -.164222206266D-03 0.178559886436D-02 0.000000000000D+00  5 1 -1 25 23 21 2 0.13814284D-01 0.64966738D-01 0.20185770D+05 0.20185770D+05 0.20185770D+05 0.12333842D+01  1  2  5  1  5  1        1 -.134451156510D+00 0.100000000000D+01
0.829338428289D-03 0.000000000000D+00 0.136899434708D-03 0.178559886436D-02 0.000000000000D+00  5 1 -1 25 23 21 2 0.74184483D-02 0.64966738D-01 0.20185770D+05 0.20185770D+05 0.20185770D+05 0.12333842D+01  1  2  6  1  5  1        1 0.293853154519D+00 0.100000000000D+01
0.447920981329D-04 0.000000000000D+00 0.000000000000D+00 0.178559886436D-02 0.000000000000D+00  5 21 -1 25 23 -1 2 0.13127819D-01 0.64966738D-01 0.29366557D+05 0.29366557D+05 0.29366557D+05 0.12158723D+01  1  2 12  3  5  1        1 0.766572147068D-01 0.100000000000D+01
-.494783341609D-04 0.000000000000D+00 -.111257802897D-04 0.178559886436D-02 0.000000000000D+00  5 21 -1 25 23 -1 2 0.13814284D-01 0.64966738D-01 0.20185770D+05 0.20185770D+05 0.20185770D+05 0.12333842D+01  1  2  5  3  5  1        1 -.796687201852D-01 0.100000000000D+01
  </mgrwgt>
  </event>
  <event>
  4     66 0.49155423E-03 0.64279249E+02 0.75467711E-02 0.12475808E+00
        1 -1    0    0  501    0 0.00000000E+00 0.00000000E+00 0.97069616E+03 0.97069621E+03 0.32000000E+00 0.0000E+00 0.9000E+01
       -1 -1    0    0    0  501 0.00000000E+00 0.00000000E+00 -.13824056E+02 0.13827759E+02 0.32000000E+00 0.0000E+00 0.9000E+01
       25  1    1    2    0    0 0.21088095E+00 0.16305167E+02 0.70446964E+03 0.71565940E+03 0.12500000E+03 0.0000E+00 0.9000E+01
       23  1    1    2    0    0 -.21088095E+00 -.16305167E+02 0.25240246E+03 0.26886457E+03 0.91188000E+02 0.0000E+00 0.9000E+01
#aMCatNLO 1  0  0  1  2 0.15444434D+02 0.00000000D+00  -5  5  0 0.00000000D+00 0.00000000D+00 0.00000000D+00 0.00000000D+00 0.00000000D+00
  <mgrwgt>
 0.2700657184D+00    9    2    0
 0.115848206651697D+03 0.000000000000000D+00 0.000000000000000D+00 0.115848206651697D+03
 0.115848206651697D+03 0.000000000000000D+00 0.000000000000000D+00 -.115848206651697D+03
 0.131622617122238D+03 0.210880951984956D+00 0.163051674803756D+02 0.378630476951915D+02
 0.100073796181155D+03 -.210880951984956D+00 -.163051674803756D+02 -.378630476951915D+02
 0.000000000000000D+00 -.000000000000000D+00 -.000000000000000D+00 0.000000000000000D+00
 0.127633925541275D+03 0.000000000000000D+00 0.000000000000000D+00 0.127633925541275D+03
 0.121277864540665D+03 0.000000000000000D+00 0.000000000000000D+00 -.121277864540665D+03
 0.132939965573626D+03 0.324355153987583D+01 0.245744468779372D+02 0.378630476951915D+02
 0.992706252343762D+02 0.207419639163162D+01 -.100743743718683D+02 -.378630476951915D+02
 0.167011992739378D+02 -.531774793150744D+01 -.145000725060689D+02 0.635606100060989D+01
0.119317176098D-03 0.000000000000D+00 0.000000000000D+00 0.206598183376D-02 0.000000000000D+00  5 1 -1 25 23 21 0 0.14933816D+00 0.21270668D-02 0.11956728D+05 0.11956728D+05 0.11956728D+05 0.12592080D+01  1  2  2  1  5  1        1 0.119627238586D+00 0.100000000000D+01
-.660184716754D-05 0.000000000000D+00 -.458209373149D-06 0.206598183376D-02 0.000000000000D+00  5 1 -1 25 23 21 2 0.14933816D+00 0.21270668D-02 0.11956728D+05 0.11956728D+05 0.11956728D+05 0.12592080D+01  1  2  3  1  5  1        1 -.104951232150D-01 0.100000000000D+01
0.819276036484D-05 0.000000000000D+00 0.000000000000D+00 0.206598183376D-02 0.000000000000D+00  5 1 -1 25 23 21 2 0.14933816D+00 0.21270668D-02 0.11956728D+05 0.11956728D+05 0.11956728D+05 0.12592080D+01  1  2 15  1  5  1        1 0.130242381136D-01 0.100000000000D+01
0.233659706650D-03 0.000000000000D+00 0.000000000000D+00 0.206598183376D-02 0.000000000000D+00  5 1 -1 25 23 21 2 0.16776105D+00 0.21270668D-02 0.13764533D+05 0.13764533D+05 0.13764533D+05 0.12521008D+01  1  2 12  1  5  1        1 0.302559915051D+00 0.100000000000D+01
-.222884411591D-03 0.000000000000D+00 0.000000000000D+00 0.206598183376D-02 0.000000000000D+00  5 1 -1 25 23 21 2 0.14933816D+00 0.21270668D-02 0.11956728D+05 0.11956728D+05 0.11956728D+05 0.12592080D+01  1  2  4  1  5  1        1 -.354324979506D+00 0.100000000000D+01
-.633325819570D-03 0.000000000000D+00 -.129650361269D-03 0.206598183376D-02 0.000000000000D+00  5 1 -1 25 23 21 2 0.16938218D+00 0.21270668D-02 0.11956728D+05 0.11956728D+05 0.11956728D+05 0.12592080D+01  1  2  5  1  5  1        1 -.812307932810D+00 0.100000000000D+01
0.645549435694D-03 0.000000000000D+00 0.128628858102D-03 0.206598183376D-02 0.000000000000D+00  5 1 -1 25 23 21 2 0.14933816D+00 0.21270668D-02 0.11956728D+05 0.11956728D+05 0.11956728D+05 0.12592080D+01  1  2  6  1  5  1        1 0.102624624549D+01 0.100000000000D+01
0.431876033151D-05 0.000000000000D+00 0.000000000000D+00 0.206598183376D-02 0.000000000000D+00  5 21 -1 25 23 -1 2 0.16776105D+00 0.21270668D-02 0.13764533D+05 0.13764533D+05 0.13764533D+05 0.12521008D+01  1  2 12  3  5  1        1 0.833719300954D-02 0.100000000000D+01
-.118578894985D-04 0.000000000000D+00 -.256161588778D-05 0.206598183376D-02 0.000000000000D+00  5 21 -1 25 23 -1 2 0.16938218D+00 0.21270668D-02 0.11956728D+05 0.11956728D+05 0.11956728D+05 0.12592080D+01  1  2  5  3  5  1        1 -.226010763425D-01 0.100000000000D+01
  </mgrwgt>
  </event>
  <event>
  4     66 0.49155423E-03 0.62463725E+02 0.75467711E-02 0.11927358E+00
        1 -1    0    0  501    0 0.00000000E+00 0.00000000E+00 0.13855583E+03 0.13855620E+03 0.32000000E+00 0.0000E+00 0.9000E+01
       -1 -1    0    0    0  501 0.00000000E+00 0.00000000E+00 -.12573110E+03 0.12573151E+03 0.32000000E+00 0.0000E+00 0.9000E+01
       25  1    1    2    0    0 -.40697763E+02 -.20462730E+02 0.66883345E+02 0.14890740E+03 0.12500000E+03 0.0000E+00 0.9000E+01
       23  1    1    2    0    0 0.40697763E+02 0.20462730E+02 -.54058610E+02 0.11538031E+03 0.91188000E+02 0.0000E+00 0.9000E+01
#aMCatNLO 1  0  0  1  2 0.67981822D+02 0.00000000D+00  -5  5  0 0.00000000D+00 0.00000000D+00 0.00000000D+00 0.00000000D+00 0.00000000D+00
  <mgrwgt>
 0.1341404001D+00    9    2    0
 0.131988179969532D+03 0.000000000000000D+00 0.000000000000000D+00 0.131988179969532D+03
 0.131988179969532D+03 0.000000000000000D+00 0.000000000000000D+00 -.131988179969532D+03
 0.145833640710197D+03 -.406977632680787D+02 -.204627303636210D+02 0.597278786985782D+02
 0.118142719228867D+03 0.406977632680787D+02 0.204627303636210D+02 -.597278786985782D+02
 0.000000000000000D+00 -.000000000000000D+00 -.000000000000000D+00 0.000000000000000D+00
 0.176782939559186D+03 0.000000000000000D+00 0.000000000000000D+00 0.176782939559186D+03
 0.164831040798077D+03 0.000000000000000D+00 0.000000000000000D+00 -.164831040798077D+03
 0.141588788882710D+03 -.262158669521792D+02 0.129496703968205D+02 0.597278786985782D+02
 0.131000731756115D+03 0.532509576379831D+02 0.494252606815926D+02 -.597278786985782D+02
 0.690244597184377D+02 -.270350906858039D+02 -.623749310784132D+02 0.119518987611090D+02
0.234886124484D-03 0.000000000000D+00 0.000000000000D+00 0.162259290013D-02 0.000000000000D+00  5 1 -1 25 23 21 0 0.21316342D-01 0.19343306D-01 0.13803219D+05 0.13803219D+05 0.13803219D+05 0.12519603D+01  1  2  2  1  5  1        1 0.111404510284D+00 0.100000000000D+01
-.128343215942D-04 0.000000000000D+00 -.902024564957D-06 0.162259290013D-02 0.000000000000D+00  5 1 -1 25 23 21 2 0.21316342D-01 0.19343306D-01 0.13803219D+05 0.13803219D+05 0.13803219D+05 0.12519603D+01  1  2  3  1  5  1        1 -.954112260286D-02 0.100000000000D+01
0.161604203960D-04 0.000000000000D+00 0.000000000000D+00 0.162259290013D-02 0.000000000000D+00  5 1 -1 25 23 21 2 0.21316342D-01 0.19343306D-01 0.13803219D+05 0.13803219D+05 0.13803219D+05 0.12519603D+01  1  2 15  1  5  1        1 0.120137672397D-01 0.100000000000D+01
0.526633463145D-04 0.000000000000D+00 0.000000000000D+00 0.162259290013D-02 0.000000000000D+00  5 1 -1 25 23 21 2 0.30450998D-01 0.19343306D-01 0.24484187D+05 0.24484187D+05 0.24484187D+05 0.12242696D+01  1  2 12  1  5  1        1 0.243158221471D-01 0.100000000000D+01
-.107727825243D-03 0.000000000000D+00 0.000000000000D+00 0.162259290013D-02 0.000000000000D+00  5 1 -1 25 23 21 2 0.21316342D-01 0.19343306D-01 0.13803219D+05 0.13803219D+05 0.13803219D+05 0.12519603D+01  1  2  4  1  5  1        1 -.800856033442D-01 0.100000000000D+01
-.146653903717D-03 0.000000000000D+00 -.987373909653D-04 0.162259290013D-02 0.000000000000D+00  5 1 -1 25 23 21 2 0.35164822D-01 0.19343306D-01 0.13803219D+05 0.13803219D+05 0.13803219D+05 0.12519603D+01  1  2  5  1  5  1        1 -.584728850763D-01 0.100000000000D+01
0.183768949269D-03 0.000000000000D+00 0.875390205029D-04 0.162259290013D-02 0.000000000000D+00  5 1 -1 25 23 21 2 0.21316342D-01 0.19343306D-01 0.13803219D+05 0.13803219D+05 0.13803219D+05 0.12519603D+01  1  2  6  1  5  1        1 0.136615095913D+00 0.100000000000D+01
0.230608942975D-05 0.000000000000D+00 0.000000000000D+00 0.162259290013D-02 0.000000000000D+00  5 21 -1 25 23 -1 2 0.30450998D-01 0.19343306D-01 0.24484187D+05 0.24484187D+05 0.24484187D+05 0.12242696D+01  1  2 12  3  5  1        1 0.690373975244D-02 0.100000000000D+01
-.381698660044D-05 0.000000000000D+00 -.557211685158D-05 0.162259290013D-02 0.000000000000D+00  5 21 -1 25 23 -1 2 0.35164822D-01 0.19343306D-01 0.13803219D+05 0.13803219D+05 0.13803219D+05 0.12519603D+01  1  2  5  3  5  1        1 -.901292419141D-02 0.100000000000D+01
  </mgrwgt>
  </event>
  <event>
  4     66 0.49155423E-03 0.10392941E+03 0.75467711E-02 0.10795897E+00
        1 -1    0    0  501    0 0.00000000E+00 0.00000000E+00 0.18404817E+04 0.18404817E+04 0.32000000E+00 0.0000E+00 0.9000E+01
       -1 -1    0    0    0  501 0.00000000E+00 0.00000000E+00 -.41998731E+02 0.41999950E+02 0.32000000E+00 0.0000E+00 0.9000E+01
       25  1    1    2    0    0 -.11882745E+03 -.12217338E+03 0.15657409E+04 0.15799417E+04 0.12500000E+03 0.0000E+00 0.9000E+01
       23  1    1    2    0    0 0.11882745E+03 0.12217338E+03 0.23274205E+03 0.30253993E+03 0.91188000E+02 0.0000E+00 0.9000E+01
#aMCatNLO 1  0  0  1  2 0.18060065D+03 0.00000000D+00  -5  5  0 0.00000000D+00 0.00000000D+00 0.00000000D+00 0.00000000D+00 0.00000000D+00
  <mgrwgt>
 0.1927662723D+00    8    2    0
 0.278027097179894D+03 0.000000000000000D+00 0.000000000000000D+00 0.278027097179894D+03
 0.278027097179894D+03 0.000000000000000D+00 0.000000000000000D+00 -.278027097179894D+03
 0.284599971487960D+03 -.118827445604021D+03 -.122173379884993D+03 0.190593408043532D+03
 0.271454222871828D+03 0.118827445604021D+03 0.122173379884993D+03 -.190593408043532D+03
 0.000000000000000D+00 0.000000000000000D+00 -.000000000000000D+00 0.000000000000000D+00
 0.525316870784347D+03 0.000000000000000D+00 0.000000000000000D+00 0.525316870784347D+03
 0.327321206948723D+03 0.000000000000000D+00 0.000000000000000D+00 -.327321206948723D+03
 0.307046189220073D+03 -.194521125486488D+03 -.669928866700834D+02 0.190593408043532D+03
 0.277601448390986D+03 0.485826828078176D+02 0.173381626899507D+03 -.190593408043532D+03
 0.267990440122011D+03 0.145938442678671D+03 -.106388740229423D+03 0.197995663835625D+03
0.203353515223D-02 0.000000000000D+00 0.000000000000D+00 0.731379734256D-03 0.000000000000D+00  5 1 -1 25 23 21 0 0.28315112D+00 0.64614391D-02 0.40934841D+05 0.40934841D+05 0.40934841D+05 0.12009827D+01  1  2  2  1  5  1        1 0.105151081363D+00 0.100000000000D+01
-.990968564017D-04 0.000000000000D+00 -.780931042668D-05 0.731379734256D-03 0.000000000000D+00  5 1 -1 25 23 21 2 0.28315112D+00 0.64614391D-02 0.40934841D+05 0.40934841D+05 0.40934841D+05 0.12009827D+01  1  2  3  1  5  1        1 -.739086831870D-02 0.100000000000D+01
0.139372335564D-03 0.000000000000D+00 0.000000000000D+00 0.731379734256D-03 0.000000000000D+00  5 1 -1 25 23 21 2 0.28315112D+00 0.64614391D-02 0.40934841D+05 0.40934841D+05 0.40934841D+05 0.12009827D+01  1  2 15  1  5  1        1 0.103947049061D-01 0.100000000000D+01
0.259220391542D-04 0.000000000000D+00 0.000000000000D+00 0.731379734256D-03 0.000000000000D+00  5 1 -1 25 23 21 2 0.54053076D+00 0.64614391D-02 0.97083730D+05 0.97083730D+05 0.97083730D+05 0.11647543D+01  1  2 12  1  5  1        1 0.126765366387D-03 0.100000000000D+01
-.100087580620D-02 0.000000000000D+00 -.551617533225D-03 0.731379734256D-03 0.000000000000D+00  5 1 -1 25 23 21 2 0.55420609D+00 0.64614391D-02 0.40934841D+05 0.40934841D+05 0.40934841D+05 0.12009827D+01  1  2  5  1  5  1        1 -.467008672614D-02 0.100000000000D+01
0.119597968508D-02 0.000000000000D+00 0.446980823142D-03 0.731379734256D-03 0.000000000000D+00  5 1 -1 25 23 21 2 0.28315112D+00 0.64614391D-02 0.40934841D+05 0.40934841D+05 0.40934841D+05 0.12009827D+01  1  2  6  1  5  1        1 0.891988775951D-01 0.100000000000D+01
0.182012855217D-05 0.000000000000D+00 0.000000000000D+00 0.731379734256D-03 0.000000000000D+00  5 21 -1 25 23 -1 2 0.54053076D+00 0.64614391D-02 0.97083730D+05 0.97083730D+05 0.97083730D+05 0.11647543D+01  1  2 12  3  5  1        1 0.219269817837D-05 0.100000000000D+01
-.403373308046D-04 0.000000000000D+00 -.401334138358D-04 0.731379734256D-03 0.000000000000D+00  5 21 -1 25 23 -1 2 0.55420609D+00 0.64614391D-02 0.40934841D+05 0.40934841D+05 0.40934841D+05 0.12009827D+01  1  2  5  3  5  1        1 -.463945554442D-04 0.100000000000D+01
  </mgrwgt>
  </event>
  <event>
  4     66 0.49155423E-03 0.12254112E+03 0.75467711E-02 0.11090967E+00
        1 -1    0    0  501    0 0.00000000E+00 0.00000000E+00 0.16341146E+04 0.16341147E+04 0.32000000E+00 0.0000E+00 0.9000E+01
       -1 -1    0    0    0  501 0.00000000E+00 0.00000000E+00 -.94816185E+01 0.94870168E+01 0.32000000E+00 0.0000E+00 0.9000E+01
       25  1    1    2    0    0 0.38191842E+02 -.42543832E+02 0.10520071E+04 0.10609488E+04 0.12500000E+03 0.0000E+00 0.9000E+01
       23  1    1    2    0    0 -.38191842E+02 0.42543832E+02 0.57262598E+03 0.58265286E+03 0.91188000E+02 0.0000E+00 0.9000E+01
#aMCatNLO 1  0  0  2  1 0.19828127D+03 0.00000000D+00  -5  5  0 0.00000000D+00 0.00000000D+00 0.00000000D+00 0.00000000D+00 0.00000000D+00
  <mgrwgt>
 0.1330003770D+00    5    2    0
 0.124493026926402D+03 0.000000000000000D+00 0.000000000000000D+00 0.124493026926402D+03
 0.124493026926402D+03 0.000000000000000D+00 0.000000000000000D+00 -.124493026926402D+03
 0.139172059231402D+03 0.381918415996129D+02 -.425438319400932D+02 0.218006346190239D+02
 0.109813994621401D+03 -.381918415996129D+02 0.425438319400932D+02 -.218006346190239D+02
 0.000000000000000D+00 0.000000000000000D+00 -.000000000000000D+00 -.000000000000000D+00
 0.178954992001094D+03 0.000000000000000D+00 0.000000000000000D+00 0.178954992001094D+03
 0.655322314721096D+03 0.000000000000000D+00 0.000000000000000D+00 -.655322314721096D+03
 0.145461710642175D+03 -.611065686270016D+02 -.363981986338506D+02 0.218006346190239D+02
 0.172829850862715D+03 -.136796039300312D+03 0.486465000507085D+02 -.218006346190239D+02
 0.515985745217300D+03 0.197902607927314D+03 -.122483014168579D+02 -.476367322720002D+03
0.259338406209D-03 0.000000000000D+00 0.000000000000D+00 0.200711897198D-02 0.000000000000D+00  5 1 -1 25 23 21 0 0.25140267D+00 0.14591282D-02 0.15016327D+05 0.15016327D+05 0.15016327D+05 0.12477687D+01  1  2  2  2  5  2       -1 0.160930191672D+00 0.100000000000D+01
-.144033144520D-04 0.000000000000D+00 -.995927765214D-06 0.200711897198D-02 0.000000000000D+00  5 1 -1 25 23 21 2 0.25140267D+00 0.14591282D-02 0.15016327D+05 0.15016327D+05 0.15016327D+05 0.12477687D+01  1  2  3  2  5  2       -1 -.139155793227D-01 0.100000000000D+01
0.179603387030D-04 0.000000000000D+00 0.000000000000D+00 0.200711897198D-02 0.000000000000D+00  5 1 -1 25 23 21 2 0.25140267D+00 0.14591282D-02 0.15016327D+05 0.15016327D+05 0.15016327D+05 0.12477687D+01  1  2 15  2  5  2       -1 0.173521531254D-01 0.100000000000D+01
-.927211335197D-04 0.000000000000D+00 -.147963644251D-03 0.200711897198D-02 0.000000000000D+00  5 1 -1 25 23 21 2 0.25140267D+00 0.11691332D-01 0.15016327D+05 0.15016327D+05 0.15016327D+05 0.12477687D+01  1  2  5  2  5  2       -1 -.419153484036D-02 0.100000000000D+01
-.411582707424D-04 0.000000000000D+00 -.373707870273D-04 0.200711897198D-02 0.000000000000D+00  5 1 21 25 23 1 2 0.25140267D+00 0.11691332D-01 0.15016327D+05 0.15016327D+05 0.15016327D+05 0.12477687D+01  1  2  5  4  5  2       -1 -.271748536785D-01 0.100000000000D+01
  </mgrwgt>
  </event>
  <event>
  4     66 0.49155423E-03 0.11127281E+03 0.75467711E-02 0.12245765E+00
        1 -1    0    0  501    0 0.00000000E+00 0.00000000E+00 0.20701194E+02 0.20703667E+02 0.32000000E+00 0.0000E+00 0.9000E+01
       -1 -1    0    0    0  501 0.00000000E+00 0.00000000E+00 -.60037445E+03 0.60037453E+03 0.32000000E+00 0.0000E+00 0.9000E+01
       25  1    1    2    0    0 0.52117877E+01 -.25574702E+02 -.35146317E+03 0.37394196E+03 0.12500000E+03 0.0000E+00 0.9000E+01
       23  1    1    2    0    0 -.52117877E+01 0.25574702E+02 -.22821008E+03 0.24713624E+03 0.91188000E+02 0.0000E+00 0.9000E+01
#aMCatNLO 1  0  0  1  2 0.38130230D+02 0.00000000D+00  -5  5  0 0.00000000D+00 0.00000000D+00 0.00000000D+00 0.00000000D+00 0.00000000D+00
  <mgrwgt>
 0.1039834560D+00    4    2    0
 0.111486600957315D+03 0.000000000000000D+00 0.000000000000000D+00 0.111486600957315D+03
 0.111486600957315D+03 0.000000000000000D+00 0.000000000000000D+00 -.111486600957315D+03
 0.127878141719237D+03 0.521178773938719D+01 -.255747024389211D+02 -.682575953909795D+01
 0.950950601953927D+02 -.521178773938719D+01 0.255747024389211D+02 0.682575953909795D+01
 0.000000000000000D+00 -.000000000000000D+00 -.000000000000000D+00 -.000000000000000D+00
 0.121120666698503D+03 0.000000000000000D+00 0.000000000000000D+00 0.121120666698503D+03
 0.158451015917673D+03 0.000000000000000D+00 0.000000000000000D+00 -.158451015917673D+03
 0.129115013830179D+03 0.257765655144322D+02 -.182938370322363D+02 -.682575953909795D+01
 0.970949841504221D+02 0.101673983097437D+02 0.310196328394803D+02 0.682575953909795D+01
 0.533616846355743D+02 -.359439638241759D+02 -.127257958072440D+02 -.373303492191695D+02
0.360867571425D-03 0.000000000000D+00 0.000000000000D+00 0.235395257794D-02 0.000000000000D+00  5 1 -1 25 23 21 0 0.31849958D-02 0.92365497D-01 0.12381638D+05 0.12381638D+05 0.12381638D+05 0.12574337D+01  1  2  2  1  5  1        1 0.128672521876D+00 0.100000000000D+01
-.200481086008D-04 0.000000000000D+00 -.138582649288D-05 0.235395257794D-02 0.000000000000D+00  5 1 -1 25 23 21 2 0.31849958D-02 0.92365497D-01 0.12381638D+05 0.12381638D+05 0.12381638D+05 0.12574337D+01  1  2  3  1  5  1        1 -.113026829425D-01 0.100000000000D+01
0.249947492170D-04 0.000000000000D+00 0.000000000000D+00 0.235395257794D-02 0.000000000000D+00  5 1 -1 25 23 21 2 0.31849958D-02 0.92365497D-01 0.12381638D+05 0.12381638D+05 0.12381638D+05 0.12574337D+01  1  2 15  1  5  1        1 0.140914901876D-01 0.100000000000D+01
-.487388160773D-04 0.000000000000D+00 0.000000000000D+00 0.235395257794D-02 0.000000000000D+00  5 1 -1 25 23 21 2 0.31849958D-02 0.92365497D-01 0.12381638D+05 0.12381638D+05 0.12381638D+05 0.12574337D+01  1  2  4  1  5  1        1 -.274778731542D-01 0.100000000000D+01
  </mgrwgt>
  </event>
  <event>
  4     66 0.49155423E-03 0.11845615E+03 0.75467711E-02 0.10648564E+00
        1 -1    0    0  501    0 0.00000000E+00 0.00000000E+00 0.48343996E+03 0.48344007E+03 0.32000000E+00 0.0000E+00 0.9000E+01
       -1 -1    0    0    0  501 0.00000000E+00 0.00000000E+00 -.29930082E+02 0.29931792E+02 0.32000000E+00 0.0000E+00 0.9000E+01
       25  1    1    2    0    0 -.47313558E+02 0.78203298E+01 0.21110223E+03 0.24997777E+03 0.12500000E+03 0.0000E+00 0.9000E+01
       23  1    1    2    0    0 0.47313558E+02 -.78203298E+01 0.24240765E+03 0.26339409E+03 0.91188000E+02 0.0000E+00 0.9000E+01
#aMCatNLO 1  0  0  2  2 0.30388339D+03 0.00000000D+00  -5  5  0 0.00000000D+00 0.00000000D+00 0.00000000D+00 0.00000000D+00 0.00000000D+00
  <mgrwgt>
 0.1862215689D+00    3    2    0
 0.120290746796080D+03 0.000000000000000D+00 0.000000000000000D+00 0.120290746796080D+03
 0.120290746796080D+03 0.000000000000000D+00 0.000000000000000D+00 -.120290746796080D+03
 0.135482581685076D+03 -.473135580659535D+02 0.782032975409559D+01 -.207557126047273D+02
 0.105098911907085D+03 0.473135580659535D+02 -.782032975409559D+01 0.207557126047273D+02
 0.000000000000000D+00 -.000000000000000D+00 -.000000000000000D+00 0.000000000000000D+00
 0.151956250827257D+04 0.000000000000000D+00 0.000000000000000D+00 0.151956250827257D+04
 0.211207580691653D+03 0.000000000000000D+00 0.000000000000000D+00 -.211207580691653D+03
 0.223926804153619D+03 -.351070601680672D+02 0.181259229665910D+03 -.207557126047273D+02
 0.163661341707481D+03 0.564413705272951D+02 0.121874343127516D+03 0.207557126047273D+02
 0.134318194310312D+04 -.213343103592279D+02 -.303133572793426D+03 0.130835492758092D+04
0.205122702718D-03 0.000000000000D+00 0.000000000000D+00 0.209092373390D-02 0.000000000000D+00  5 1 -1 25 23 21 0 0.74375518D-01 0.46047677D-02 0.14031860D+05 0.14031860D+05 0.14031860D+05 0.12511394D+01  1  2  2  2  5  2       -1 0.182317839057D+00 0.100000000000D+01
-.113924330191D-04 0.000000000000D+00 -.787725188483D-06 0.209092373390D-02 0.000000000000D+00  5 1 -1 25 23 21 2 0.74375518D-01 0.46047677D-02 0.14031860D+05 0.14031860D+05 0.14031860D+05 0.12511394D+01  1  2  3  2  5  2       -1 -.158505134405D-01 0.100000000000D+01
0.141982084034D-04 0.000000000000D+00 0.000000000000D+00 0.209092373390D-02 0.000000000000D+00  5 1 -1 25 23 21 2 0.74375518D-01 0.46047677D-02 0.14031860D+05 0.14031860D+05 0.14031860D+05 0.12511394D+01  1  2 15  2  5  2       -1 0.197542432553D-01 0.100000000000D+01
  </mgrwgt>
  </event>
  <event>
  4     66 -.49155423E-03 0.21951077E+03 0.75467711E-02 0.11079355E+00
        1 -1    0    0  501    0 0.00000000E+00 0.00000000E+00 0.96475830E+03 0.96475835E+03 0.32000000E+00 0.0000E+00 0.9000E+01
       -1 -1    0    0    0  501 0.00000000E+00 0.00000000E+00 -.80571623E+02 0.80572258E+02 0.32000000E+00 0.0000E+00 0.9000E+01
       25  1    1    2    0    0 0.17467599E+03 0.15643662E+03 0.64749827E+03 0.69990222E+03 0.12500000E+03 0.0000E+00 0.9000E+01
       23  1    1    2    0    0 -.17467599E+03 -.15643662E+03 0.23668841E+03 0.34542839E+03 0.91188000E+02 0.0000E+00 0.9000E+01
#aMCatNLO 1  0  0  2  1 0.54006083D-01 0.00000000D+00  -5  5  0 0.00000000D+00 0.00000000D+00 0.00000000D+00 0.00000000D+00 0.00000000D+00
  <mgrwgt>
 -.3488801593D-01    9    2    0
 0.278805491127194D+03 0.000000000000000D+00 0.000000000000000D+00 0.278805491127194D+03
 0.278805491127194D+03 0.000000000000000D+00 0.000000000000000D+00 -.278805491127194D+03
 0.285360014700642D+03 0.174675990046223D+03 0.156436616847353D+03 0.104025099859008D+03
 0.272250967553745D+03 -.174675990046223D+03 -.156436616847353D+03 -.104025099859008D+03
 0.000000000000000D+00 -.000000000000000D+00 0.000000000000000D+00 -.000000000000000D+00
 0.278831472989033D+03 0.000000000000000D+00 0.000000000000000D+00 0.278831472989033D+03
 0.278833558204213D+03 0.000000000000000D+00 0.000000000000000D+00 -.278833558204213D+03
 0.285375452546662D+03 0.174703509040382D+03 0.156434048226442D+03 0.104025099859008D+03
 0.272235532323041D+03 -.174649736691264D+03 -.156439067333595D+03 -.104025099859008D+03
 0.540463235439009D-01 -.537723491178232D-01 0.501910715313221D-02 -.208521518034340D-02
0.271257258840D-03 0.000000000000D+00 0.000000000000D+00 0.113995239221D-02 0.000000000000D+00  5 1 -1 25 23 21 0 0.14842441D+00 0.12395687D-01 0.66904327D+05 0.66904327D+05 0.66904327D+05 0.11799548D+01  1  2  2  2  5  2       -1 0.201499435145D-01 0.100000000000D+01
-.149667688168D-04 0.000000000000D+00 -.104169929762D-05 0.113995239221D-02 0.000000000000D+00  5 1 -1 25 23 21 2 0.14842441D+00 0.12395687D-01 0.66904327D+05 0.66904327D+05 0.66904327D+05 0.11799548D+01  1  2  3  2  5  2       -1 -.154792970745D-02 0.100000000000D+01
0.185731140119D-04 0.000000000000D+00 0.000000000000D+00 0.113995239221D-02 0.000000000000D+00  5 1 -1 25 23 21 2 0.14842441D+00 0.12395687D-01 0.66904327D+05 0.66904327D+05 0.66904327D+05 0.11799548D+01  1  2 15  2  5  2       -1 0.192091394546D-02 0.100000000000D+01
-.178492627570D+00 0.000000000000D+00 0.000000000000D+00 0.113995239221D-02 0.000000000000D+00  5 1 -1 25 23 21 2 0.14842441D+00 0.12395687D-01 0.66904327D+05 0.66904327D+05 0.66904327D+05 0.11799548D+01  1  2  4  2  5  2       -1 -.184605003362D+02 0.100000000000D+01
-.291095957760D+01 0.000000000000D+00 -.168483334675D+00 0.113995239221D-02 0.000000000000D+00  5 1 -1 25 23 21 2 0.14842441D+00 0.12398110D-01 0.66904327D+05 0.66904327D+05 0.66904327D+05 0.11799548D+01  1  2  5  2  5  2       -1 -.300971988371D+03 0.100000000000D+01
0.291099245443D+01 0.000000000000D+00 0.168483331457D+00 0.113995239221D-02 0.000000000000D+00  5 1 -1 25 23 21 2 0.14842441D+00 0.12395687D-01 0.66904327D+05 0.66904327D+05 0.66904327D+05 0.11799548D+01  1  2  6  2  5  2       -1 0.301067769103D+03 0.100000000000D+01
0.178492628848D+00 0.000000000000D+00 0.000000000000D+00 0.113995239221D-02 0.290218053549D+01  5 1 -1 25 23 21 2 0.14843824D+00 0.12396935D-01 0.66918265D+05 0.66918265D+05 0.66918265D+05 0.11799461D+01  1  2 11  2  5  2       -1 0.184543737302D+02 0.100000000000D+01
-.106641111652D-03 0.000000000000D+00 -.617241708481D-05 0.113995239221D-02 0.000000000000D+00  5 1 21 25 23 1 2 0.14842441D+00 0.12398110D-01 0.66904327D+05 0.66904327D+05 0.66904327D+05 0.11799548D+01  1  2  5  4  5  2       -1 -.154279388915D+00 0.100000000000D+01
0.636917524155D-05 0.000000000000D+00 0.000000000000D+00 0.113995239221D-02 0.547739232371D-04  5 1 21 25 23 1 2 0.14843824D+00 0.12396935D-01 0.66918265D+05 0.66918265D+05 0.66918265D+05 0.11799461D+01  1  2 11  4  5  2       -1 0.921431914696D-02 0.100000000000D+01
  </mgrwgt>
  </event>
  <event>
  4     66 0.49155423E-03 0.11436238E+03 0.75467711E-02 0.11720202E+00
        1 -1    0    0  501    0 0.00000000E+00 0.00000000E+00 0.25807735E+04 0.25807736E+04 0.32000000E+00 0.0000E+00 0.9000E+01
       -1 -1    0    0    0  501 0.00000000E+00 0.00000000E+00 -.50637851E+01 0.50738861E+01 0.32000000E+00 0.0000E+00 0.9000E+01
       25  1    1    2    0    0 0.35204032E+01 0.36763777E+02 0.14489866E+04 0.14548372E+04 0.12500000E+03 0.0000E+00 0.9000E+01
       23  1    1    2    0    0 -.35204032E+01 -.36763777E+02 0.11267231E+04 0.11310103E+04 0.91188000E+02 0.0000E+00 0.9000E+01
#aMCatNLO 1  0  0  2  1 0.10127679D+03 0.00000000D+00  -5  5  0 0.00000000D+00 0.00000000D+00 0.00000000D+00 0.00000000D+00 0.00000000D+00
  <mgrwgt>
 0.1364604207D+00    3    2    0
 0.114374682933399D+03 0.000000000000000D+00 0.000000000000000D+00 0.114374682933399D+03
 0.114374682933399D+03 0.000000000000000D+00 0.000000000000000D+00 -.114374682933399D+03
 0.130352319916788D+03 0.352040324022441D+01 0.367637770808219D+02 -.166095257802476D+01
 0.983970459500111D+02 -.352040324022441D+01 -.367637770808219D+02 0.166095257802476D+01
 0.000000000000000D+00 0.000000000000000D+00 0.000000000000000D+00 0.000000000000000D+00
 0.179086874868707D+03 0.000000000000000D+00 0.000000000000000D+00 0.179086874868707D+03
 0.172566081359967D+03 0.000000000000000D+00 0.000000000000000D+00 -.172566081359967D+03
 0.138353988267841D+03 -.525362245663790D+02 0.274592864885905D+02 -.166095257802476D+01
 0.111812475776373D+03 -.473736235104515D+02 -.440427000451340D+02 0.166095257802476D+01
 0.101486492184459D+03 0.999098480768305D+02 0.165834135565435D+02 0.652079350874027D+01
0.355520606811D-03 0.000000000000D+00 0.000000000000D+00 0.227891283063D-02 0.000000000000D+00  5 1 -1 25 23 21 0 0.39704286D+00 0.77982239D-03 0.13078754D+05 0.13078754D+05 0.13078754D+05 0.12546661D+01  1  2  2  2  5  2       -1 0.133594118148D+00 0.100000000000D+01
-.197511445450D-04 0.000000000000D+00 -.136529274088D-05 0.227891283063D-02 0.000000000000D+00  5 1 -1 25 23 21 2 0.39704286D+00 0.77982239D-03 0.13078754D+05 0.13078754D+05 0.13078754D+05 0.12546661D+01  1  2  3  2  5  2       -1 -.116834509251D-01 0.100000000000D+01
0.245966954513D-04 0.000000000000D+00 0.000000000000D+00 0.227891283063D-02 0.000000000000D+00  5 1 -1 25 23 21 2 0.39704286D+00 0.77982239D-03 0.13078754D+05 0.13078754D+05 0.13078754D+05 0.12546661D+01  1  2 15  2  5  2       -1 0.145497534875D-01 0.100000000000D+01
  </mgrwgt>
  </event>
  <event>
  5     66 -.49155423E-03 0.46671317E+03 0.75467711E-02 0.10177228E+00
        1 -1    0    0  501    0 0.00000000E+00 0.00000000E+00 0.12506945E+04 0.12506945E+04 0.32000000E+00 0.0000E+00 0.9000E+01
       -1 -1    0    0    0  502 0.00000000E+00 0.00000000E+00 -.19564886E+03 0.19564912E+03 0.32000000E+00 0.0000E+00 0.9000E+01
       25  1    1    2    0    0 0.46411520E+03 0.82584961E+02 0.66888574E+03 0.82780211E+03 0.12500000E+03 0.0000E+00 0.9000E+01
       23  1    1    2    0    0 -.43201186E+03 -.65743304E+02 0.34911307E+03 0.56670241E+03 0.91188000E+02 0.0000E+00 0.9000E+01
       21  1    1    2  501  502 -.32103342E+02 -.16841657E+02 0.37046789E+02 0.51839107E+02 0.75000000E+00 0.0000E+00 0.9000E+01
#aMCatNLO 2  0  0  2  1 0.36252806D+02 0.00000000D+00  -5  5  0 0.00000000D+00 0.00000000D+00 0.00000000D+00 0.00000000D+00 0.00000000D+00
  <mgrwgt>
 -.4967492614D-01    3    2    0
 0.476184574062786D+03 0.000000000000000D+00 0.000000000000000D+00 0.476184574062786D+03
 0.476184574062786D+03 0.000000000000000D+00 0.000000000000000D+00 -.476184574062786D+03
 0.480022239673010D+03 0.447657891078241D+03 0.739513307506313D+02 0.944984857883203D+02
 0.472346908452562D+03 -.447657891078241D+03 -.739513307506313D+02 -.944984857883203D+02
 0.000000000000000D+00 -.000000000000000D+00 -.000000000000000D+00 -.000000000000000D+00
 0.494082752758645D+03 0.000000000000000D+00 0.000000000000000D+00 0.494082752758645D+03
 0.495247660776457D+03 0.000000000000000D+00 0.000000000000000D+00 -.495247660776457D+03
 0.496767712462605D+03 0.464115201824317D+03 0.825849608864527D+02 0.944984857883203D+02
 0.456291184058100D+03 -.432011860295802D+03 -.657433042417155D+02 -.944984857883203D+02
 0.362715170143974D+02 -.321033415285160D+02 -.168416566447372D+02 -.116490801781149D+01
-.135084388491D-01 0.000000000000D+00 0.000000000000D+00 0.117142874751D-02 0.000000000000D+00  5 1 -1 25 23 21 2 0.18544287D+00 0.30622728D-01 0.23539391D+06 0.23539391D+06 0.23539391D+06 0.11308882D+01  1  2 13  2  5  2       -1 -.188663966954D+00 0.100000000000D+01
-.140639142278D-02 0.000000000000D+00 0.000000000000D+00 0.117142874751D-02 0.000000000000D+00  5 1 -1 25 23 21 2 0.18544287D+00 0.28941017D-01 0.21782118D+06 0.21782118D+06 0.21782118D+06 0.11337344D+01  1  2  8  2  5  2       -1 -.218159056135D-01 0.100000000000D+01
0.120339153288D-01 0.000000000000D+00 0.000000000000D+00 0.117142874751D-02 0.608117309247D-05  5 1 -1 25 23 21 2 0.19241305D+00 0.30099612D-01 0.23539391D+06 0.23539391D+06 0.23539391D+06 0.11308882D+01  1  2  1  2  5  2       -1 0.160804946425D+00 0.100000000000D+01
  </mgrwgt>
  </event>
  <event>
  4     66 0.49155423E-03 0.11846354E+03 0.75467711E-02 0.10417390E+00
        1 -1    0    0  501    0 0.00000000E+00 0.00000000E+00 0.28038073E+03 0.28038092E+03 0.32000000E+00 0.0000E+00 0.9000E+01
       -1 -1    0    0    0  501 0.00000000E+00 0.00000000E+00 -.51686214E+02 0.51687205E+02 0.32000000E+00 0.0000E+00 0.9000E+01
       25  1    1    2    0    0 0.42719960E+02 0.21827867E+02 0.15805250E+03 0.20714015E+03 0.12500000E+03 0.0000E+00 0.9000E+01
       23  1    1    2    0    0 -.42719960E+02 -.21827867E+02 0.70642021E+02 0.12492797E+03 0.91188000E+02 0.0000E+00 0.9000E+01
#aMCatNLO 1  0  0  2  1 0.37143890D+03 0.00000000D+00  -5  5  0 0.00000000D+00 0.00000000D+00 0.00000000D+00 0.00000000D+00 0.00000000D+00
  <mgrwgt>
 0.1547267218D+00    3    2    0
 0.120382779059871D+03 0.000000000000000D+00 0.000000000000000D+00 0.120382779059871D+03
 0.120382779059871D+03 0.000000000000000D+00 0.000000000000000D+00 -.120382779059871D+03
 0.135562999837887D+03 0.427199596666669D+02 0.218278674308427D+02 0.212338450250296D+02
 0.105202558281855D+03 -.427199596666669D+02 -.218278674308427D+02 -.212338450250296D+02
 0.000000000000000D+00 -.000000000000000D+00 0.000000000000000D+00 0.000000000000000D+00
 0.428232426830521D+03 0.000000000000000D+00 0.000000000000000D+00 0.428232426830521D+03
 0.388021993227803D+03 0.000000000000000D+00 0.000000000000000D+00 -.388021993227803D+03
 0.277868524502100D+03 0.214419853015219D+03 -.123122570503377D+03 0.212338450250296D+02
 0.164776829393386D+03 0.694036432543954D+02 -.116483519389683D+03 -.212338450250296D+02
 0.373609066162838D+03 -.283823496269615D+03 0.239606089893060D+03 0.402104336027180D+02
0.194140819154D-03 0.000000000000D+00 0.000000000000D+00 0.208684748952D-02 0.000000000000D+00  5 1 -1 25 23 21 0 0.43135588D-01 0.79518155D-02 0.14033610D+05 0.14033610D+05 0.14033610D+05 0.12511332D+01  1  2  2  2  5  2       -1 0.151485572806D+00 0.100000000000D+01
-.107822139800D-04 0.000000000000D+00 -.745551864005D-06 0.208684748952D-02 0.000000000000D+00  5 1 -1 25 23 21 2 0.43135588D-01 0.79518155D-02 0.14033610D+05 0.14033610D+05 0.14033610D+05 0.12511332D+01  1  2  3  2  5  2       -1 -.131695051509D-01 0.100000000000D+01
0.134358263478D-04 0.000000000000D+00 0.000000000000D+00 0.208684748952D-02 0.000000000000D+00  5 1 -1 25 23 21 2 0.43135588D-01 0.79518155D-02 0.14033610D+05 0.14033610D+05 0.14033610D+05 0.12511332D+01  1  2 15  2  5  2       -1 0.164106541219D-01 0.100000000000D+01
  </mgrwgt>
  </event>
  <event>
  4     66 0.49155423E-03 0.55209757E+02 0.75467711E-02 0.11591475E+00
        1 -1    0    0  501    0 0.00000000E+00 0.00000000E+00 0.45403339E+02 0.45404467E+02 0.32000000E+00 0.0000E+00 0.9000E+01
       -1 -1    0    0    0  501 0.00000000E+00 0.00000000E+00 -.36164453E+03 0.36164467E+03 0.32000000E+00 0.0000E+00 0.9000E+01
       25  1    1    2    0    0 -.49403682E+02 0.46794410E+02 -.18332564E+03 0.23208561E+03 0.12500000E+03 0.0000E+00 0.9000E+01
       23  1    1    2    0    0 0.49403682E+02 -.46794410E+02 -.13291554E+03 0.17496352E+03 0.91188000E+02 0.0000E+00 0.9000E+01
#aMCatNLO 1  0  0  2  1 0.10260376D+03 0.00000000D+00  -5  5  0 0.00000000D+00 0.00000000D+00 0.00000000D+00 0.00000000D+00 0.00000000D+00
  <mgrwgt>
 0.9038741701D-01    7    2    0
 0.128141045051469D+03 0.000000000000000D+00 0.000000000000000D+00 0.128141045051469D+03
 0.128141045051469D+03 0.000000000000000D+00 0.000000000000000D+00 -.128141045051469D+03
 0.142402183340656D+03 -.494036822217289D+02 0.467944096200123D+02 -.478970055795093D+01
 0.113879906762281D+03 0.494036822217289D+02 -.467944096200123D+02 0.478970055795093D+01
 0.000000000000000D+00 0.000000000000000D+00 -.000000000000000D+00 -.000000000000000D+00
 0.153972148051918D+03 0.000000000000000D+00 0.000000000000000D+00 0.153972148051918D+03
 0.303108483717529D+03 0.000000000000000D+00 0.000000000000000D+00 -.303108483717529D+03
 0.175512026778336D+03 -.609334089585130D+02 0.106974997009110D+03 -.478970055795093D+01
 0.100546013630838D+03 0.416271431784106D+02 -.620396908614646D+01 0.478970055795093D+01
 0.181022591360274D+03 0.193062657801024D+02 -.100771027922964D+03 -.149136335665611D+03
0.311960757636D-03 0.000000000000D+00 0.000000000000D+00 0.198937850813D-02 0.000000000000D+00  5 1 -1 25 23 21 0 0.69852267D-02 0.55637717D-01 0.16396898D+05 0.16396898D+05 0.16396898D+05 0.12434380D+01  1  2  2  2  5  2       -1 0.105213289615D+00 0.100000000000D+01
-.173311426439D-04 0.000000000000D+00 -.119801145048D-05 0.198937850813D-02 0.000000000000D+00  5 1 -1 25 23 21 2 0.69852267D-02 0.55637717D-01 0.16396898D+05 0.16396898D+05 0.16396898D+05 0.12434380D+01  1  2  3  2  5  2       -1 -.903745428815D-02 0.100000000000D+01
0.215576351461D-04 0.000000000000D+00 0.000000000000D+00 0.198937850813D-02 0.000000000000D+00  5 1 -1 25 23 21 2 0.69852267D-02 0.55637717D-01 0.16396898D+05 0.16396898D+05 0.16396898D+05 0.12434380D+01  1  2 15  2  5  2       -1 0.112413904955D-01 0.100000000000D+01
0.188536162269D-04 0.000000000000D+00 0.000000000000D+00 0.198937850813D-02 0.000000000000D+00  5 1 -1 25 23 21 2 0.69852267D-02 0.12988082D+00 0.35812210D+05 0.35812210D+05 0.35812210D+05 0.12069083D+01  1  2 12  2  5  2       -1 0.156581660156D-02 0.100000000000D+01
-.182760108885D-03 0.000000000000D+00 -.879878677205D-04 0.198937850813D-02 0.000000000000D+00  5 1 -1 25 23 21 2 0.69852267D-02 0.14699730D+00 0.16396898D+05 0.16396898D+05 0.16396898D+05 0.12434380D+01  1  2  5  2  5  2       -1 -.117808893653D-01 0.100000000000D+01
0.174244278955D-05 0.000000000000D+00 0.000000000000D+00 0.198937850813D-02 0.000000000000D+00  5 1 21 25 23 1 2 0.69852267D-02 0.12988082D+00 0.35812210D+05 0.35812210D+05 0.35812210D+05 0.12069083D+01  1  2 12  4  5  2       -1 0.121905283337D-02 0.100000000000D+01
-.144989910432D-04 0.000000000000D+00 -.949822700852D-05 0.198937850813D-02 0.000000000000D+00  5 1 21 25 23 1 2 0.69852267D-02 0.14699730D+00 0.16396898D+05 0.16396898D+05 0.16396898D+05 0.12434380D+01  1  2  5  4  5  2       -1 -.803378887675D-02 0.100000000000D+01
  </mgrwgt>
  </event>
  <event>
  4     66 0.49155423E-03 0.11451518E+03 0.75467711E-02 0.11666324E+00
        1 -1    0    0  501    0 0.00000000E+00 0.00000000E+00 0.64559286E+03 0.64559294E+03 0.32000000E+00 0.0000E+00 0.9000E+01
       -1 -1    0    0    0  501 0.00000000E+00 0.00000000E+00 -.33473151E+02 0.33474680E+02 0.32000000E+00 0.0000E+00 0.9000E+01
       25  1    1    2    0    0 0.90296629E+02 0.40501775E+02 0.33436843E+03 0.37043370E+03 0.12500000E+03 0.0000E+00 0.9000E+01
       23  1    1    2    0    0 -.90296629E+02 -.40501775E+02 0.27775127E+03 0.30863392E+03 0.91188000E+02 0.0000E+00 0.9000E+01
#aMCatNLO 1  0  0  2  1 0.61967240D+02 0.00000000D+00  -5  5  0 0.00000000D+00 0.00000000D+00 0.00000000D+00 0.00000000D+00 0.00000000D+00
  <mgrwgt>
 0.1643144795D+00    9    2    0
 0.147005351349631D+03 0.000000000000000D+00 0.000000000000000D+00 0.147005351349631D+03
 0.147005351349631D+03 0.000000000000000D+00 0.000000000000000D+00 -.147005351349631D+03
 0.159436444144707D+03 0.902966293752948D+02 0.405017754774309D+02 0.105101291364389D+01
 0.134574258554555D+03 -.902966293752948D+02 -.405017754774309D+02 -.105101291364389D+01
 0.000000000000000D+00 0.000000000000000D+00 0.000000000000000D+00 -.000000000000000D+00
 0.177492840902605D+03 0.000000000000000D+00 0.000000000000000D+00 0.177492840902605D+03
 0.185453684715341D+03 0.000000000000000D+00 0.000000000000000D+00 -.185453684715341D+03
 0.142126938293078D+03 0.608255303907759D+02 0.295671576770697D+02 0.105101291364389D+01
 0.158343080471108D+03 -.118922770330880D+03 -.511228897634309D+02 -.105101291364389D+01
 0.624765068537592D+02 0.580972399401045D+02 0.215557320863612D+02 -.796084381273563D+01
0.232306488562D-03 0.000000000000D+00 0.000000000000D+00 0.175439583631D-02 0.000000000000D+00  5 1 -1 25 23 21 0 0.99322102D-01 0.51498393D-02 0.21609461D+05 0.21609461D+05 0.21609461D+05 0.12301425D+01  1  2  2  2  5  2       -1 0.120418010777D+00 0.100000000000D+01
-.129059160208D-04 0.000000000000D+00 -.892118083782D-06 0.175439583631D-02 0.000000000000D+00  5 1 -1 25 23 21 2 0.99322102D-01 0.51498393D-02 0.21609461D+05 0.21609461D+05 0.21609461D+05 0.12301425D+01  1  2  3  2  5  2       -1 -.101234794172D-01 0.100000000000D+01
0.160818534560D-04 0.000000000000D+00 0.000000000000D+00 0.175439583631D-02 0.000000000000D+00  5 1 -1 25 23 21 2 0.99322102D-01 0.51498393D-02 0.21609461D+05 0.21609461D+05 0.21609461D+05 0.12301425D+01  1  2 15  2  5  2       -1 0.126147041551D-01 0.100000000000D+01
0.843792854248D-04 0.000000000000D+00 0.000000000000D+00 0.175439583631D-02 0.000000000000D+00  5 1 -1 25 23 21 2 0.99322102D-01 0.69111155D-02 0.32838855D+05 0.32838855D+05 0.32838855D+05 0.12107987D+01  1  2 12  2  5  2       -1 0.416365735512D-01 0.100000000000D+01
-.965650886371D-04 0.000000000000D+00 0.000000000000D+00 0.175439583631D-02 0.000000000000D+00  5 1 -1 25 23 21 2 0.99322102D-01 0.51498393D-02 0.21609461D+05 0.21609461D+05 0.21609461D+05 0.12301425D+01  1  2  4  2  5  2       -1 -.757462458041D-01 0.100000000000D+01
-.184463071965D-03 0.000000000000D+00 -.899238713615D-04 0.175439583631D-02 0.000000000000D+00  5 1 -1 25 23 21 2 0.99322102D-01 0.78559382D-02 0.21609461D+05 0.21609461D+05 0.21609461D+05 0.12301425D+01  1  2  5  2  5  2       -1 -.769108690819D-01 0.100000000000D+01
0.210821232230D-03 0.000000000000D+00 0.824608698981D-04 0.175439583631D-02 0.000000000000D+00  5 1 -1 25 23 21 2 0.99322102D-01 0.51498393D-02 0.21609461D+05 0.21609461D+05 0.21609461D+05 0.12301425D+01  1  2  6  2  5  2       -1 0.165369463257D+00 0.100000000000D+01
0.321571224152D-05 0.000000000000D+00 0.000000000000D+00 0.175439583631D-02 0.000000000000D+00  5 1 21 25 23 1 2 0.99322102D-01 0.69111155D-02 0.32838855D+05 0.32838855D+05 0.32838855D+05 0.12107987D+01  1  2 12  4  5  2       -1 0.257040350608D-01 0.100000000000D+01
-.583995111275D-05 0.000000000000D+00 -.445535576354D-05 0.175439583631D-02 0.000000000000D+00  5 1 21 25 23 1 2 0.99322102D-01 0.78559382D-02 0.21609461D+05 0.21609461D+05 0.21609461D+05 0.12301425D+01  1  2  5  4  5  2       -1 -.386477129984D-01 0.100000000000D+01
  </mgrwgt>
  </event>
  <event>
  5     66 0.49155423E-03 0.11622810E+03 0.75467711E-02 0.12384734E+00
        1 -1    0    0  502    0 0.00000000E+00 0.00000000E+00 0.33496452E+02 0.33497980E+02 0.32000000E+00 0.0000E+00 0.9000E+01
       -1 -1    0    0    0  501 0.00000000E+00 0.00000000E+00 -.47950384E+03 0.47950395E+03 0.32000000E+00 0.0000E+00 0.9000E+01
       25  1    1    2    0    0 0.25193246E+02 -.31676995E+02 -.18383395E+03 0.22596029E+03 0.12500000E+03 0.0000E+00 0.9000E+01
       23  1    1    2    0    0 -.16545790E+02 0.41216205E+02 -.20879811E+03 0.23213022E+03 0.91188000E+02 0.0000E+00 0.9000E+01
       21  1    1    2  502  501 -.86474561E+01 -.95392106E+01 -.53375339E+02 0.54911423E+02 0.75000000E+00 0.0000E+00 0.9000E+01
#aMCatNLO 2  0  0  1  2 0.12875365D+02 0.00000000D+00  -5  5  0 0.00000000D+00 0.00000000D+00 0.00000000D+00 0.00000000D+00 0.00000000D+00
  <mgrwgt>
 0.4590375685D-01    1    2    0
 0.117814695249978D+03 0.000000000000000D+00 0.000000000000000D+00 0.117814695249978D+03
 0.117814695249978D+03 0.000000000000000D+00 0.000000000000000D+00 -.117814695249978D+03
 0.133325809208407D+03 0.203141098094016D+02 -.370592840884434D+02 0.190975864071941D+02
 0.102303581291549D+03 -.203141098094016D+02 0.370592840884434D+02 -.190975864071941D+02
 0.000000000000000D+00 -.000000000000000D+00 -.000000000000000D+00 -.000000000000000D+00
 0.120751491059770D+03 0.000000000000000D+00 0.000000000000000D+00 0.120751491059770D+03
 0.133000639736754D+03 0.000000000000000D+00 0.000000000000000D+00 -.133000639736754D+03
 0.132769911726384D+03 0.251932464869668D+02 -.316769945654349D+02 0.190975864071941D+02
 0.103210987294872D+03 -.165457904022297D+02 0.412162051597122D+02 -.190975864071941D+02
 0.177712317752681D+02 -.864745608473707D+01 -.953921059427737D+01 -.122491486769844D+02
0.999817304197D-04 0.000000000000D+00 0.000000000000D+00 0.215113108054D-02 0.108552365399D-03  5 1 -1 25 23 21 2 0.51530938D-02 0.73765191D-01 0.15091305D+05 0.15091305D+05 0.15091305D+05 0.12475222D+01  1  2  1  1  5  1        1 0.459037568520D-01 0.100000000000D+01
  </mgrwgt>
  </event>
  <event>
  4     66 0.49155423E-03 0.19257706E+03 0.75467711E-02 0.11242171E+00
        1 -1    0    0  501    0 0.00000000E+00 0.00000000E+00 0.22043045E+04 0.22043046E+04 0.32000000E+00 0.0000E+00 0.9000E+01
       -1 -1    0    0    0  501 0.00000000E+00 0.00000000E+00 -.18167831E+02 0.18170649E+02 0.32000000E+00 0.0000E+00 0.9000E+01
       25  1    1    2    0    0 -.48140945E+02 -.15128878E+03 0.84094685E+03 0.86488291E+03 0.12500000E+03 0.0000E+00 0.9000E+01
       23  1    1    2    0    0 0.48140945E+02 0.15128878E+03 0.13451899E+04 0.13575923E+04 0.91188000E+02 0.0000E+00 0.9000E+01
#aMCatNLO 1  0  0  2  2 0.74606526D+02 0.00000000D+00  -5  5  0 0.00000000D+00 0.00000000D+00 0.00000000D+00 0.00000000D+00 0.00000000D+00
  <mgrwgt>
 0.1304941324D+00    4    2    0
 0.200126434590620D+03 0.000000000000000D+00 0.000000000000000D+00 0.200126434590620D+03
 0.200126434590620D+03 0.000000000000000D+00 0.000000000000000D+00 -.200126434590620D+03
 0.209257847778179D+03 -.481409448231106D+02 -.151288783253433D+03 -.543875017811021D+02
 0.190995021403060D+03 0.481409448231106D+02 0.151288783253433D+03 0.543875017811021D+02
 0.000000000000000D+00 -.000000000000000D+00 0.000000000000000D+00 0.000000000000000D+00
 0.270472438435295D+03 0.000000000000000D+00 0.000000000000000D+00 0.270472438435295D+03
 0.224373880637664D+03 0.000000000000000D+00 0.000000000000000D+00 -.224373880637664D+03
 0.206215021806761D+03 -.987732935042516D+01 -.154415262308091D+03 -.543875017811021D+02
 0.200931749044979D+03 0.842360459373106D+02 0.148339491185363D+03 0.543875017811021D+02
 0.876995482212196D+02 -.743587165868854D+02 0.607577112272840D+01 0.460985577976305D+02
0.150918329926D-02 0.000000000000D+00 0.000000000000D+00 0.136201771250D-02 0.000000000000D+00  5 1 -1 25 23 21 0 0.33912399D+00 0.27952695D-02 0.37085924D+05 0.37085924D+05 0.37085924D+05 0.12053506D+01  1  2  2  2  5  2       -1 0.158197245225D+00 0.100000000000D+01
-.836927828839D-04 0.000000000000D+00 -.579566124625D-05 0.136201771250D-02 0.000000000000D+00  5 1 -1 25 23 21 2 0.33912399D+00 0.27952695D-02 0.37085924D+05 0.37085924D+05 0.37085924D+05 0.12053506D+01  1  2  3  2  5  2       -1 -.127459357536D-01 0.100000000000D+01
0.104151860603D-03 0.000000000000D+00 0.000000000000D+00 0.136201771250D-02 0.000000000000D+00  5 1 -1 25 23 21 2 0.33912399D+00 0.27952695D-02 0.37085924D+05 0.37085924D+05 0.37085924D+05 0.12053506D+01  1  2 15  2  5  2       -1 0.158617371548D-01 0.100000000000D+01
-.202364169218D-03 0.000000000000D+00 0.000000000000D+00 0.136201771250D-02 0.000000000000D+00  5 1 -1 25 23 21 2 0.33912399D+00 0.27952695D-02 0.37085924D+05 0.37085924D+05 0.37085924D+05 0.12053506D+01  1  2  4  2  5  2       -1 -.308189142576D-01 0.100000000000D+01
  </mgrwgt>
  </event>
  <event>
  4     66 0.49155423E-03 0.12807897E+03 0.75467711E-02 0.11537662E+00
        1 -1    0    0  501    0 0.00000000E+00 0.00000000E+00 0.18715079E+04 0.18715080E+04 0.32000000E+00 0.0000E+00 0.9000E+01
       -1 -1    0    0    0  501 0.00000000E+00 0.00000000E+00 -.97550699E+01 0.97603170E+01 0.32000000E+00 0.0000E+00 0.9000E+01
       25  1    1    2    0    0 -.14615051E+02 -.66513707E+02 0.72571555E+03 0.73954427E+03 0.12500000E+03 0.0000E+00 0.9000E+01
       23  1    1    2    0    0 0.14615051E+02 0.66513707E+02 0.11360373E+04 0.11417240E+04 0.91188000E+02 0.0000E+00 0.9000E+01
#aMCatNLO 1  0  0  2  1 0.11124347D+03 0.00000000D+00  -5  5  0 0.00000000D+00 0.00000000D+00 0.00000000D+00 0.00000000D+00 0.00000000D+00
  <mgrwgt>
 0.1544061792D+00    5    2    0
 0.135135680492328D+03 0.000000000000000D+00 0.000000000000000D+00 0.135135680492328D+03
 0.135135680492328D+03 0.000000000000000D+00 0.000000000000000D+00 -.135135680492328D+03
 0.148658660932004D+03 -.146150508155188D+02 -.665137072922179D+02 -.428570239517566D+02
 0.121612700052653D+03 0.146150508155188D+02 0.665137072922179D+02 0.428570239517566D+02
 0.000000000000000D+00 0.000000000000000D+00 -.000000000000000D+00 -.000000000000000D+00
 0.197061168446433D+03 0.000000000000000D+00 0.000000000000000D+00 0.197061168446433D+03
 0.206885177751370D+03 0.000000000000000D+00 0.000000000000000D+00 -.206885177751370D+03
 0.136525632503140D+03 -.318339724143432D+02 -.128110120093520D+02 -.428570239517566D+02
 0.155744306609772D+03 -.213127309691995D+01 0.118742456056558D+03 0.428570239517566D+02
 0.111676407084891D+03 0.339652455112631D+02 -.105931444047206D+03 -.982400930493664D+01
0.323912758812D-03 0.000000000000D+00 0.000000000000D+00 0.173819525527D-02 0.000000000000D+00  5 1 -1 25 23 21 0 0.28792470D+00 0.15011857D-02 0.16404221D+05 0.16404221D+05 0.16404221D+05 0.12434162D+01  1  2  2  2  5  2       -1 0.136528511485D+00 0.100000000000D+01
-.179322185510D-04 0.000000000000D+00 -.124391028203D-05 0.173819525527D-02 0.000000000000D+00  5 1 -1 25 23 21 2 0.28792470D+00 0.15011857D-02 0.16404221D+05 0.16404221D+05 0.16404221D+05 0.12434162D+01  1  2  3  2  5  2       -1 -.116859044739D-01 0.100000000000D+01
0.224127526025D-04 0.000000000000D+00 0.000000000000D+00 0.173819525527D-02 0.000000000000D+00  5 1 -1 25 23 21 2 0.28792470D+00 0.15011857D-02 0.16404221D+05 0.16404221D+05 0.16404221D+05 0.12434162D+01  1  2 15  2  5  2       -1 0.146057379996D-01 0.100000000000D+01
-.910545462957D-05 0.000000000000D+00 -.960128787914D-04 0.173819525527D-02 0.000000000000D+00  5 1 -1 25 23 21 2 0.28792470D+00 0.37108642D-02 0.16404221D+05 0.16404221D+05 0.16404221D+05 0.12434162D+01  1  2  5  2  5  2       -1 -.160298575866D-02 0.100000000000D+01
0.506152737408D-05 0.000000000000D+00 -.954797360509D-05 0.173819525527D-02 0.000000000000D+00  5 1 21 25 23 1 2 0.28792470D+00 0.37108642D-02 0.16404221D+05 0.16404221D+05 0.16404221D+05 0.12434162D+01  1  2  5  4  5  2       -1 0.165608199609D-01 0.100000000000D+01
  </mgrwgt>
  </event>
  <event>
  4     66 0.49155423E-03 0.12100305E+03 0.75467711E-02 0.12227406E+00
        3 -1    0    0  501    0 0.00000000E+00 0.00000000E+00 0.13631629E+03 0.13631720E+03 0.50000000E+00 0.0000E+00 0.9000E+01
       -3 -1    0    0    0  501 0.00000000E+00 0.00000000E+00 -.11192063E+03 0.11192175E+03 0.50000000E+00 0.0000E+00 0.9000E+01
       25  1    1    2    0    0 0.49845331E+02 -.20374961E+02 0.38394088E+02 0.14141712E+03 0.12500000E+03 0.0000E+00 0.9000E+01
       23  1    1    2    0    0 -.49845331E+02 0.20374961E+02 -.13998430E+02 0.10682183E+03 0.91188000E+02 0.0000E+00 0.9000E+01
#aMCatNLO 1  0  0  1  1 0.23387238D+02 0.00000000D+00  -5  5  0 0.00000000D+00 0.00000000D+00 0.00000000D+00 0.00000000D+00 0.00000000D+00
  <mgrwgt>
 0.2933952249D-01    4    2    0
 0.123518650999149D+03 0.000000000000000D+00 0.000000000000000D+00 0.123518650999149D+03
 0.123518650999149D+03 0.000000000000000D+00 0.000000000000000D+00 -.123518650999149D+03
 0.138313478737452D+03 0.498453305299150D+02 -.203749612567586D+02 0.246154906228710D+02
 0.108723823260845D+03 -.498453305299150D+02 0.203749612567586D+02 -.246154906228710D+02
 0.000000000000000D+00 -.000000000000000D+00 0.000000000000000D+00 -.000000000000000D+00
 0.126847111640319D+03 0.000000000000000D+00 0.000000000000000D+00 0.126847111640319D+03
 0.173326057648746D+03 0.000000000000000D+00 0.000000000000000D+00 -.173326057648746D+03
 0.143945534552918D+03 0.610676946110065D+02 -.275704772178057D+02 0.246154906228710D+02
 0.104196343134569D+03 -.413798165339534D+02 0.149470727444760D+02 -.246154906228710D+02
 0.520312916015780D+02 -.196878780770531D+02 0.126234044733297D+02 -.464789460084268D+02
0.239514728544D-03 0.000000000000D+00 0.000000000000D+00 0.201096681672D-02 0.000000000000D+00  5 3 -3 25 23 21 0 0.20971893D-01 0.17218715D-01 0.14641739D+05 0.14641739D+05 0.14641739D+05 0.12490212D+01  1  2  2  1  5  1        3 0.325453266580D-01 0.100000000000D+01
-.132995239873D-04 0.000000000000D+00 -.919799623284D-06 0.201096681672D-02 0.000000000000D+00  5 3 -3 25 23 21 2 0.20971893D-01 0.17218715D-01 0.14641739D+05 0.14641739D+05 0.14641739D+05 0.12490212D+01  1  2  3  1  5  1        3 -.281924034064D-02 0.100000000000D+01
0.166027135255D-04 0.000000000000D+00 0.000000000000D+00 0.201096681672D-02 0.000000000000D+00  5 3 -3 25 23 21 2 0.20971893D-01 0.17218715D-01 0.14641739D+05 0.14641739D+05 0.14641739D+05 0.12490212D+01  1  2 15  1  5  1        3 0.351945225859D-02 0.100000000000D+01
-.184262951385D-04 0.000000000000D+00 0.000000000000D+00 0.201096681672D-02 0.000000000000D+00  5 3 -3 25 23 21 2 0.20971893D-01 0.17218715D-01 0.14641739D+05 0.14641739D+05 0.14641739D+05 0.12490212D+01  1  2  4  1  5  1        3 -.390601608243D-02 0.100000000000D+01
  </mgrwgt>
  </event>
  <event>
  4     66 0.49155423E-03 0.63300915E+02 0.75467711E-02 0.12068588E+00
        1 -1    0    0  501    0 0.00000000E+00 0.00000000E+00 0.24964134E+04 0.24964134E+04 0.32000000E+00 0.0000E+00 0.9000E+01
       -1 -1    0    0    0  501 0.00000000E+00 0.00000000E+00 -.63421830E+01 0.63502508E+01 0.32000000E+00 0.0000E+00 0.9000E+01
       25  1    1    2    0    0 -.53147339E+02 -.25851196E+02 0.16302553E+04 0.16361082E+04 0.12500000E+03 0.0000E+00 0.9000E+01
       23  1    1    2    0    0 0.53147339E+02 0.25851196E+02 0.85981592E+03 0.86665540E+03 0.91188000E+02 0.0000E+00 0.9000E+01
#aMCatNLO 1  0  0  1  2 0.39685550D+02 0.00000000D+00  -5  5  0 0.00000000D+00 0.00000000D+00 0.00000000D+00 0.00000000D+00 0.00000000D+00
  <mgrwgt>
 0.2941286063D+00    9    2    0
 0.125868311966846D+03 0.000000000000000D+00 0.000000000000000D+00 0.125868311966846D+03
 0.125868311966846D+03 0.000000000000000D+00 0.000000000000000D+00 -.125868311966846D+03
 0.140386955582893D+03 -.531473389866391D+02 -.258511964820437D+02 0.243017138679384D+02
 0.111349668350800D+03 0.531473389866391D+02 0.258511964820437D+02 -.243017138679384D+02
 0.000000000000000D+00 -.000000000000000D+00 0.000000000000000D+00 0.000000000000000D+00
 0.147266189046300D+03 0.000000000000000D+00 0.000000000000000D+00 0.147266189046300D+03
 0.147264942883554D+03 0.000000000000000D+00 0.000000000000000D+00 -.147264942883554D+03
 0.134422645768824D+03 -.318468979768068D+02 -.289767059519607D+02 0.243017138679384D+02
 0.120422936292794D+03 0.711119903984636D+02 0.232151624165755D+02 -.243017138679384D+02
 0.396855498682368D+02 -.392650924216568D+02 0.576154353538514D+01 0.124616274639224D-02
0.426513541485D-03 0.000000000000D+00 0.000000000000D+00 0.197233168662D-02 0.000000000000D+00  5 1 -1 25 23 21 0 0.38406422D+00 0.97634263D-03 0.15243978D+05 0.15243978D+05 0.15243978D+05 0.12470245D+01  1  2  2  1  5  1        1 0.132356862156D+00 0.100000000000D+01
-.236845027760D-04 0.000000000000D+00 -.163792430290D-05 0.197233168662D-02 0.000000000000D+00  5 1 -1 25 23 21 2 0.38406422D+00 0.97634263D-03 0.15243978D+05 0.15243978D+05 0.15243978D+05 0.12470245D+01  1  2  3  1  5  1        1 -.114295173592D-01 0.100000000000D+01
0.295751588405D-04 0.000000000000D+00 0.000000000000D+00 0.197233168662D-02 0.000000000000D+00  5 1 -1 25 23 21 2 0.38406422D+00 0.97634263D-03 0.15243978D+05 0.15243978D+05 0.15243978D+05 0.12470245D+01  1  2 15  1  5  1        1 0.142721928582D-01 0.100000000000D+01
0.225707104125D-03 0.000000000000D+00 0.000000000000D+00 0.197233168662D-02 0.000000000000D+00  5 1 -1 25 23 21 2 0.47684389D+00 0.97634263D-03 0.21001606D+05 0.21001606D+05 0.21001606D+05 0.12314965D+01  1  2 12  1  5  1        1 0.417406937100D-01 0.100000000000D+01
-.202350207550D-03 0.000000000000D+00 0.000000000000D+00 0.197233168662D-02 0.000000000000D+00  5 1 -1 25 23 21 2 0.38406422D+00 0.97634263D-03 0.15243978D+05 0.15243978D+05 0.15243978D+05 0.12470245D+01  1  2  4  1  5  1        1 -.976488817061D-01 0.100000000000D+01
-.683722794417D-03 0.000000000000D+00 -.207104703855D-03 0.197233168662D-02 0.000000000000D+00  5 1 -1 25 23 21 2 0.47692387D+00 0.97634263D-03 0.15243978D+05 0.15243978D+05 0.15243978D+05 0.12470245D+01  1  2  5  1  5  1        1 -.129989915999D+00 0.100000000000D+01
0.716469146228D-03 0.000000000000D+00 0.202341960981D-03 0.197233168662D-02 0.000000000000D+00  5 1 -1 25 23 21 2 0.38406422D+00 0.97634263D-03 0.15243978D+05 0.15243978D+05 0.15243978D+05 0.12470245D+01  1  2  6  1  5  1        1 0.345749143295D+00 0.100000000000D+01
0.685795607265D-05 0.000000000000D+00 0.000000000000D+00 0.197233168662D-02 0.000000000000D+00  5 21 -1 25 23 -1 2 0.47684389D+00 0.97634263D-03 0.21001606D+05 0.21001606D+05 0.21001606D+05 0.12314965D+01  1  2 12  3  5  1        1 0.513699132893D-03 0.100000000000D+01
-.180548583161D-04 0.000000000000D+00 -.629642108232D-05 0.197233168662D-02 0.000000000000D+00  5 21 -1 25 23 -1 2 0.47692387D+00 0.97634263D-03 0.15243978D+05 0.15243978D+05 0.15243978D+05 0.12470245D+01  1  2  5  3  5  1        1 -.143566982826D-02 0.100000000000D+01
  </mgrwgt>
  </event>
  <event>
  4     66 0.49155423E-03 0.15185356E+03 0.75467711E-02 0.11059324E+00
        3 -1    0    0  501    0 0.00000000E+00 0.00000000E+00 0.50337797E+02 0.50340280E+02 0.50000000E+00 0.0000E+00 0.9000E+01
       -3 -1    0    0    0  501 0.00000000E+00 0.00000000E+00 -.49850041E+03 0.49850066E+03 0.50000000E+00 0.0000E+00 0.9000E+01
       25  1    1    2    0    0 0.63135155E+02 -.85136085E+02 -.31831427E+03 0.35802678E+03 0.12500000E+03 0.0000E+00 0.9000E+01
       23  1    1    2    0    0 -.63135155E+02 0.85136085E+02 -.12984834E+03 0.19081416E+03 0.91188000E+02 0.0000E+00 0.9000E+01
#aMCatNLO 1  0  0  1  2 0.17401259D+03 0.00000000D+00  -5  5  0 0.00000000D+00 0.00000000D+00 0.00000000D+00 0.00000000D+00 0.00000000D+00
  <mgrwgt>
 0.4359898654D-01    3    2    0
 0.158411372107457D+03 0.000000000000000D+00 0.000000000000000D+00 0.158411372107457D+03
 0.158411372107457D+03 0.000000000000000D+00 0.000000000000000D+00 -.158411372107457D+03
 0.169947394677606D+03 0.631351549961270D+02 -.851360848076292D+02 -.449768409845476D+02
 0.146875349537307D+03 -.631351549961270D+02 0.851360848076292D+02 0.449768409845476D+02
 0.000000000000000D+00 -.000000000000000D+00 -.000000000000000D+00 -.000000000000000D+00
 0.229921373999566D+03 0.000000000000000D+00 0.000000000000000D+00 0.229921373999566D+03
 0.334631273741980D+03 0.000000000000000D+00 0.000000000000000D+00 -.334631273741980D+03
 0.168655325089932D+03 0.103578534964666D+03 -.825769645934442D+01 -.449768409845476D+02
 0.192809794108868D+03 -.225624881741309D+02 0.162260233152634D+03 0.449768409845476D+02
 0.203087528542746D+03 -.810160467905351D+02 -.154002536693289D+03 -.104709899742415D+03
0.985169253446D-03 0.000000000000D+00 0.000000000000D+00 0.154714944598D-02 0.000000000000D+00  5 3 -3 25 23 21 0 0.77444868D-02 0.76692581D-01 0.23059504D+05 0.23059504D+05 0.23059504D+05 0.12270777D+01  1  2  2  1  5  1        3 0.427282139235D-01 0.100000000000D+01
-.546126759990D-04 0.000000000000D+00 -.378330933426D-05 0.154714944598D-02 0.000000000000D+00  5 3 -3 25 23 21 2 0.77444868D-02 0.76692581D-01 0.23059504D+05 0.23059504D+05 0.23059504D+05 0.12270777D+01  1  2  3  1  5  1        3 -.356649386104D-02 0.100000000000D+01
0.679465620732D-04 0.000000000000D+00 0.000000000000D+00 0.154714944598D-02 0.000000000000D+00  5 3 -3 25 23 21 2 0.77444868D-02 0.76692581D-01 0.23059504D+05 0.23059504D+05 0.23059504D+05 0.12270777D+01  1  2 15  1  5  1        3 0.443726647853D-02 0.100000000000D+01
  </mgrwgt>
  </event>
  <event>
  4     66 0.49155423E-03 0.11327042E+03 0.75467711E-02 0.12514586E+00
        1 -1    0    0  501    0 0.00000000E+00 0.00000000E+00 0.15708626E+04 0.15708626E+04 0.32000000E+00 0.0000E+00 0.9000E+01
       -1 -1    0    0    0  501 0.00000000E+00 0.00000000E+00 -.82843734E+01 0.82905514E+01 0.32000000E+00 0.0000E+00 0.9000E+01
       25  1    1    2    0    0 -.16004059E+01 -.33433342E+02 0.98497265E+03 0.99343669E+03 0.12500000E+03 0.0000E+00 0.9000E+01
       23  1    1    2    0    0 0.16004059E+01 0.33433342E+02 0.57760557E+03 0.58571648E+03 0.91188000E+02 0.0000E+00 0.9000E+01
#aMCatNLO 1  0  0  2  2 0.35732280D+01 0.00000000D+00  -5  5  0 0.00000000D+00 0.00000000D+00 0.00000000D+00 0.00000000D+00 0.00000000D+00
  <mgrwgt>
 0.1608247621D+00    6    2    0
 0.114098711868457D+03 0.000000000000000D+00 0.000000000000000D+00 0.114098711868457D+03
 0.114098711868457D+03 0.000000000000000D+00 0.000000000000000D+00 -.114098711868457D+03
 0.130114994033911D+03 -.160040585922847D+01 -.334333420884874D+02 0.135853601470333D+02
 0.980824297030038D+02 0.160040585922847D+01 0.334333420884874D+02 -.135853601470333D+02
 0.000000000000000D+00 0.000000000000000D+00 0.000000000000000D+00 0.000000000000000D+00
 0.117312028340538D+03 0.000000000000000D+00 0.000000000000000D+00 0.117312028340538D+03
 0.115110404642937D+03 0.000000000000000D+00 0.000000000000000D+00 -.115110404642937D+03
 0.130576550102150D+03 -.275657249856329D+01 -.351151638799358D+02 0.135853601470333D+02
 0.976488476045338D+02 0.732337913843719D+00 0.321706040563246D+02 -.135853601470333D+02
 0.419703527679210D+01 0.202423458471957D+01 0.294455982361116D+01 0.220162369760083D+01
0.153168489520D-03 0.000000000000D+00 0.000000000000D+00 0.226308678878D-02 0.000000000000D+00  5 1 -1 25 23 21 0 0.24167165D+00 0.12749967D-02 0.12830189D+05 0.12830189D+05 0.12830189D+05 0.12556335D+01  1  2  2  2  5  2       -1 0.126052903373D+00 0.100000000000D+01
-.850881131312D-05 0.000000000000D+00 -.588207329946D-06 0.226308678878D-02 0.000000000000D+00  5 1 -1 25 23 21 2 0.24167165D+00 0.12749967D-02 0.12830189D+05 0.12830189D+05 0.12830189D+05 0.12556335D+01  1  2  3  2  5  2       -1 -.110402288780D-01 0.100000000000D+01
0.106031354919D-04 0.000000000000D+00 0.000000000000D+00 0.226308678878D-02 0.000000000000D+00  5 1 -1 25 23 21 2 0.24167165D+00 0.12749967D-02 0.12830189D+05 0.12830189D+05 0.12830189D+05 0.12556335D+01  1  2 15  2  5  2       -1 0.137576258712D-01 0.100000000000D+01
-.181066713545D-03 0.000000000000D+00 0.000000000000D+00 0.226308678878D-02 0.000000000000D+00  5 1 -1 25 23 21 2 0.24167165D+00 0.12749967D-02 0.12830189D+05 0.12830189D+05 0.12830189D+05 0.12556335D+01  1  2  4  2  5  2       -1 -.234935043939D+00 0.100000000000D+01
0.178904914548D-03 0.000000000000D+00 0.000000000000D+00 0.226308678878D-02 0.148727445537D-02  5 1 -1 25 23 21 2 0.24847775D+00 0.12863019D-02 0.13241144D+05 0.13241144D+05 0.13241144D+05 0.12540452D+01  1  2 11  2  5  2       -1 0.214403581944D+00 0.100000000000D+01
0.195360262745D-05 0.000000000000D+00 0.000000000000D+00 0.226308678878D-02 0.246767017808D-05  5 1 21 25 23 1 2 0.24847775D+00 0.12863019D-02 0.13241144D+05 0.13241144D+05 0.13241144D+05 0.12540452D+01  1  2 11  4  5  2       -1 0.525859237615D-01 0.100000000000D+01
  </mgrwgt>
  </event>
  <event>
  5     66 0.49155423E-03 0.12625512E+03 0.75467711E-02 0.11279215E+00
        3 -1    0    0  501    0 0.00000000E+00 0.00000000E+00 0.43178681E+03 0.43178710E+03 0.50000000E+00 0.0000E+00 0.9000E+01
       21 -1    0    0  502  501 0.00000000E+00 0.00000000E+00 -.13920882E+03 0.13921084E+03 0.75000000E+00 0.0000E+00 0.9000E+01
       25  1    1    2    0    0 0.14233750E+03 0.53206166E+02 0.22547823E+03 0.29925957E+03 0.12500000E+03 0.0000E+00 0.9000E+01
       23  1    1    2    0    0 0.15944227E+02 -.39799164E+02 0.48421065E+02 0.11179465E+03 0.91188000E+02 0.0000E+00 0.9000E+01
        3  1    1    2  502    0 -.15828172E+03 -.13407002E+02 0.18678694E+02 0.15994373E+03 0.50000000E+00 0.0000E+00 0.9000E+01
#aMCatNLO 2  0  0  2  2 0.15884852D+03 0.00000000D+00  -5  5  0 0.00000000D+00 0.00000000D+00 0.00000000D+00 0.00000000D+00 0.00000000D+00
  <mgrwgt>
 0.6291811367D-02    1    2    0
 0.131064768074344D+03 0.000000000000000D+00 0.000000000000000D+00 0.131064768074344D+03
 0.131064768074344D+03 0.000000000000000D+00 0.000000000000000D+00 -.131064768074344D+03
 0.145007776488042D+03 0.463459254278756D+02 0.450753524016926D+02 0.349645970104483D+02
 0.117121759660646D+03 -.463459254278756D+02 -.450753524016926D+02 -.349645970104483D+02
 0.000000000000000D+00 -.000000000000000D+00 -.000000000000000D+00 -.000000000000000D+00
 0.193216874702963D+03 0.000000000000000D+00 0.000000000000000D+00 0.193216874702963D+03
 0.311096109147496D+03 0.000000000000000D+00 0.000000000000000D+00 -.311096109147496D+03
 0.199845896729916D+03 0.142337497752933D+03 0.532061662696622D+02 0.349645970104483D+02
 0.106658174539564D+03 0.159442266190171D+02 -.397991638797905D+02 -.349645970104483D+02
 0.197808912580979D+03 -.158281724371950D+03 -.134070023898717D+02 -.117879234444533D+03
0.198918019538D-04 0.000000000000D+00 0.000000000000D+00 0.183772378136D-02 0.130282855475D-06  5 3 21 25 23 3 2 0.66428821D-01 0.21416888D-01 0.52069826D+05 0.52069826D+05 0.52069826D+05 0.11905411D+01  1  2  1  4  5  2       -3 0.629181136664D-02 0.100000000000D+01
  </mgrwgt>
  </event>
  <event>
  4     66 0.49155423E-03 0.58142771E+02 0.75467711E-02 0.11983474E+00
        1 -1    0    0  501    0 0.00000000E+00 0.00000000E+00 0.33178282E+03 0.33178298E+03 0.32000000E+00 0.0000E+00 0.9000E+01
       -1 -1    0    0    0  501 0.00000000E+00 0.00000000E+00 -.57678917E+02 0.57679804E+02 0.32000000E+00 0.0000E+00 0.9000E+01
       25  1    1    2    0    0 0.76775895E+02 0.90204665E+01 0.98121519E+02 0.17671655E+03 0.12500000E+03 0.0000E+00 0.9000E+01
       23  1    1    2    0    0 -.76775895E+02 -.90204665E+01 0.17598239E+03 0.21274623E+03 0.91188000E+02 0.0000E+00 0.9000E+01
#aMCatNLO 1  0  0  1  2 0.34636647D+02 0.00000000D+00  -5  5  0 0.00000000D+00 0.00000000D+00 0.00000000D+00 0.00000000D+00 0.00000000D+00
  <mgrwgt>
 0.1381008104D+00    9    2    0
 0.138336823941986D+03 0.000000000000000D+00 0.000000000000000D+00 0.138336823941986D+03
 0.138336823941986D+03 0.000000000000000D+00 0.000000000000000D+00 -.138336823941986D+03
 0.151546879745829D+03 0.767758951684319D+02 0.902046646012353D+01 -.369533471640190D+02
 0.125126768138144D+03 -.767758951684319D+02 -.902046646012353D+01 0.369533471640190D+02
 0.000000000000000D+00 0.000000000000000D+00 0.000000000000000D+00 0.000000000000000D+00
 0.208195984150923D+03 0.000000000000000D+00 0.000000000000000D+00 0.208195984150923D+03
 0.143777320891874D+03 0.000000000000000D+00 0.000000000000000D+00 -.143777320891874D+03
 0.143796046909880D+03 0.607186397681706D+02 0.499869296636035D-02 -.369533471640190D+02
 0.135037245143654D+03 -.909205373121481D+02 -.169620830157505D+02 0.369533471640190D+02
 0.731400129892633D+02 0.302018975439775D+02 0.169570843227842D+02 0.644186632590484D+02
0.207089181469D-03 0.000000000000D+00 0.000000000000D+00 0.174251185598D-02 0.000000000000D+00  5 1 -1 25 23 21 0 0.51043592D-01 0.88737597D-02 0.17757975D+05 0.17757975D+05 0.17757975D+05 0.12395516D+01  1  2  2  1  5  1        1 0.112094242597D+00 0.100000000000D+01
-.114853918706D-04 0.000000000000D+00 -.795276984676D-06 0.174251185598D-02 0.000000000000D+00  5 1 -1 25 23 21 2 0.51043592D-01 0.88737597D-02 0.17757975D+05 0.17757975D+05 0.17757975D+05 0.12395516D+01  1  2  3  1  5  1        1 -.955214572018D-02 0.100000000000D+01
0.143291447245D-04 0.000000000000D+00 0.000000000000D+00 0.174251185598D-02 0.000000000000D+00  5 1 -1 25 23 21 2 0.51043592D-01 0.88737597D-02 0.17757975D+05 0.17757975D+05 0.17757975D+05 0.12395516D+01  1  2 15  1  5  1        1 0.119172319060D-01 0.100000000000D+01
0.533931615601D-03 0.000000000000D+00 0.000000000000D+00 0.174251185598D-02 0.000000000000D+00  5 1 -1 25 23 21 2 0.77417391D-01 0.88737597D-02 0.23025946D+05 0.23025946D+05 0.23025946D+05 0.12271462D+01  1  2 12  1  5  1        1 0.258086955436D+00 0.100000000000D+01
-.531471839236D-03 0.000000000000D+00 0.000000000000D+00 0.174251185598D-02 0.000000000000D+00  5 1 -1 25 23 21 2 0.51043592D-01 0.88737597D-02 0.17757975D+05 0.17757975D+05 0.17757975D+05 0.12395516D+01  1  2  4  1  5  1        1 -.442013342839D+00 0.100000000000D+01
-.622402721671D-03 0.000000000000D+00 -.920853746322D-04 0.174251185598D-02 0.000000000000D+00  5 1 -1 25 23 21 2 0.78559732D-01 0.88737597D-02 0.17757975D+05 0.17757975D+05 0.17757975D+05 0.12395516D+01  1  2  5  1  5  1        1 -.299616433301D+00 0.100000000000D+01
0.612250874485D-03 0.000000000000D+00 0.841418059893D-04 0.174251185598D-02 0.000000000000D+00  5 1 -1 25 23 21 2 0.51043592D-01 0.88737597D-02 0.17757975D+05 0.17757975D+05 0.17757975D+05 0.12395516D+01  1  2  6  1  5  1        1 0.509195475109D+00 0.100000000000D+01
0.261852679591D-04 0.000000000000D+00 0.000000000000D+00 0.174251185598D-02 0.000000000000D+00  5 21 -1 25 23 -1 2 0.77417391D-01 0.88737597D-02 0.23025946D+05 0.23025946D+05 0.23025946D+05 0.12271462D+01  1  2 12  3  5  1        1 0.384145800120D-01 0.100000000000D+01
-.278481830405D-04 0.000000000000D+00 -.463375254933D-05 0.174251185598D-02 0.000000000000D+00  5 21 -1 25 23 -1 2 0.78559732D-01 0.88737597D-02 0.17757975D+05 0.17757975D+05 0.17757975D+05 0.12395516D+01  1  2  5  3  5  1        1 -.404257527565D-01 0.100000000000D+01
  </mgrwgt>
  </event>
  <event>
  4     66 0.49155423E-03 0.41352464E+02 0.75467711E-02 0.12415514E+00
        1 -1    0    0  501    0 0.00000000E+00 0.00000000E+00 0.46277205E+03 0.46277216E+03 0.32000000E+00 0.0000E+00 0.9000E+01
       -1 -1    0    0    0  501 0.00000000E+00 0.00000000E+00 -.79175821E+02 0.79176467E+02 0.32000000E+00 0.0000E+00 0.9000E+01
       25  1    1    2    0    0 0.98363066E+01 0.38358399E+02 0.41695459E+03 0.43708609E+03 0.12500000E+03 0.0000E+00 0.9000E+01
       23  1    1    2    0    0 -.98363066E+01 -.38358399E+02 -.33358363E+02 0.10486254E+03 0.91188000E+02 0.0000E+00 0.9000E+01
#aMCatNLO 1  0  0  2  1 0.10826884D+02 0.00000000D+00  -5  5  0 0.00000000D+00 0.00000000D+00 0.00000000D+00 0.00000000D+00 0.00000000D+00
  <mgrwgt>
 0.7048821569D-01    9    2    0
 0.191417245224256D+03 0.000000000000000D+00 0.000000000000000D+00 0.191417245224256D+03
 0.191417245224256D+03 0.000000000000000D+00 0.000000000000000D+00 -.191417245224256D+03
 0.200964123625202D+03 0.983630657792856D+01 0.383583993940419D+02 0.152293989550729D+03
 0.181870366823310D+03 -.983630657792856D+01 -.383583993940419D+02 -.152293989550729D+03
 0.000000000000000D+00 -.000000000000000D+00 0.000000000000000D+00 -.000000000000000D+00
 0.195616975822607D+03 0.000000000000000D+00 0.000000000000000D+00 0.195616975822607D+03
 0.198601212221695D+03 0.000000000000000D+00 0.000000000000000D+00 -.198601212221695D+03
 0.200105865082773D+03 0.116519927808517D+02 0.329868011708049D+02 0.152293989550729D+03
 0.182881691494760D+03 -.818503548205465D+01 -.432435854302626D+02 -.152293989550729D+03
 0.112306314667693D+02 -.346695729879709D+01 0.102567842594577D+02 -.298423639908862D+01
0.284680183035D-03 0.000000000000D+00 0.000000000000D+00 0.654260838268D-03 0.000000000000D+00  5 1 -1 25 23 21 0 0.71195758D-01 0.12180954D-01 0.13286906D+05 0.13286906D+05 0.13286906D+05 0.12538718D+01  1  2  2  2  5  2       -1 0.621236326620D-01 0.100000000000D+01
-.108689872646D-04 0.000000000000D+00 -.109324686087D-05 0.654260838268D-03 0.000000000000D+00  5 1 -1 25 23 21 2 0.71195758D-01 0.12180954D-01 0.13286906D+05 0.13286906D+05 0.13286906D+05 0.12538718D+01  1  2  3  2  5  2       -1 -.372902180764D-02 0.100000000000D+01
0.194165493145D-04 0.000000000000D+00 0.000000000000D+00 0.654260838268D-03 0.000000000000D+00  5 1 -1 25 23 21 2 0.71195758D-01 0.12180954D-01 0.13286906D+05 0.13286906D+05 0.13286906D+05 0.12538718D+01  1  2 15  2  5  2       -1 0.666158990350D-02 0.100000000000D+01
0.637069749163D-03 0.000000000000D+00 0.000000000000D+00 0.654260838268D-03 0.000000000000D+00  5 1 -1 25 23 21 2 0.71195758D-01 0.12767738D-01 0.14626919D+05 0.14626919D+05 0.14626919D+05 0.12490715D+01  1  2 12  2  5  2       -1 0.202051134422D+00 0.100000000000D+01
-.574822619364D-03 0.000000000000D+00 0.000000000000D+00 0.654260838268D-03 0.000000000000D+00  5 1 -1 25 23 21 2 0.71195758D-01 0.12180954D-01 0.13286906D+05 0.13286906D+05 0.13286906D+05 0.12538718D+01  1  2  4  2  5  2       -1 -.197214885891D+00 0.100000000000D+01
-.327789814313D-02 0.000000000000D+00 -.614484401510D-03 0.654260838268D-03 0.000000000000D+00  5 1 -1 25 23 21 2 0.71195758D-01 0.12908222D-01 0.13286906D+05 0.13286906D+05 0.13286906D+05 0.12538718D+01  1  2  5  2  5  2       -1 -.102849159032D+01 0.100000000000D+01
0.330899888917D-02 0.000000000000D+00 0.613452608936D-03 0.654260838268D-03 0.000000000000D+00  5 1 -1 25 23 21 2 0.71195758D-01 0.12180954D-01 0.13286906D+05 0.13286906D+05 0.13286906D+05 0.12538718D+01  1  2  6  2  5  2       -1 0.113527863441D+01 0.100000000000D+01
0.826098778912D-05 0.000000000000D+00 0.000000000000D+00 0.654260838268D-03 0.000000000000D+00  5 1 21 25 23 1 2 0.71195758D-01 0.12767738D-01 0.14626919D+05 0.14626919D+05 0.14626919D+05 0.12490715D+01  1  2 12  4  5  2       -1 0.375127732043D-01 0.100000000000D+01
-.320182956431D-04 0.000000000000D+00 -.613720565314D-05 0.654260838268D-03 0.000000000000D+00  5 1 21 25 23 1 2 0.71195758D-01 0.12908222D-01 0.13286906D+05 0.13286906D+05 0.13286906D+05 0.12538718D+01  1  2  5  4  5  2       -1 -.143704050903D+00 0.100000000000D+01
  </mgrwgt>
  </event>
  <event>
  4     66 0.49155423E-03 0.70320190E+02 0.75467711E-02 0.12077587E+00
        1 -1    0    0  501    0 0.00000000E+00 0.00000000E+00 0.39815149E+02 0.39816435E+02 0.32000000E+00 0.0000E+00 0.9000E+01
       -1 -1    0    0    0  501 0.00000000E+00 0.00000000E+00 -.36899321E+03 0.36899335E+03 0.32000000E+00 0.0000E+00 0.9000E+01
       25  1    1    2    0    0 0.14159614E+01 0.46919945E+02 -.13901680E+03 0.19275413E+03 0.12500000E+03 0.0000E+00 0.9000E+01
       23  1    1    2    0    0 -.14159614E+01 -.46919945E+02 -.19016126E+03 0.21605565E+03 0.91188000E+02 0.0000E+00 0.9000E+01
#aMCatNLO 1  0  0  2  1 0.47741498D+02 0.00000000D+00  -5  5  0 0.00000000D+00 0.00000000D+00 0.00000000D+00 0.00000000D+00 0.00000000D+00
  <mgrwgt>
 0.1079734466D+00    9    2    0
 0.121209780094468D+03 0.000000000000000D+00 0.000000000000000D+00 0.121209780094468D+03
 0.121209780094468D+03 0.000000000000000D+00 0.000000000000000D+00 -.121209780094468D+03
 0.136286427891170D+03 0.141596136149827D+01 0.469199451562879D+02 0.273039232948074D+02
 0.106133132297766D+03 -.141596136149827D+01 -.469199451562879D+02 -.273039232948074D+02
 0.000000000000000D+00 -.000000000000000D+00 -.000000000000000D+00 -.000000000000000D+00
 0.130305874753425D+03 0.000000000000000D+00 0.000000000000000D+00 0.130305874753425D+03
 0.207730974241502D+03 0.000000000000000D+00 0.000000000000000D+00 -.207730974241502D+03
 0.147873249731485D+03 0.893876680568864D+01 0.735941044300090D+02 0.273039232948074D+02
 0.992026369751503D+02 0.402007043547106D+01 -.276450112177328D+02 -.273039232948074D+02
 0.909609622882909D+02 -.129588372411597D+02 -.459490932122762D+02 -.774250994880767D+02
0.254821872586D-03 0.000000000000D+00 0.000000000000D+00 0.203852182550D-02 0.000000000000D+00  5 1 -1 25 23 21 0 0.61255171D-02 0.56768296D-01 0.13933943D+05 0.13933943D+05 0.13933943D+05 0.12514891D+01  1  2  2  2  5  2       -1 0.983242498950D-01 0.100000000000D+01
-.141447003110D-04 0.000000000000D+00 -.978583086869D-06 0.203852182550D-02 0.000000000000D+00  5 1 -1 25 23 21 2 0.61255171D-02 0.56768296D-01 0.13933943D+05 0.13933943D+05 0.13933943D+05 0.12514891D+01  1  2  3  2  5  2       -1 -.854814449607D-02 0.100000000000D+01
0.176273766774D-04 0.000000000000D+00 0.000000000000D+00 0.203852182550D-02 0.000000000000D+00  5 1 -1 25 23 21 2 0.61255171D-02 0.56768296D-01 0.13933943D+05 0.13933943D+05 0.13933943D+05 0.12514891D+01  1  2 15  2  5  2       -1 0.106528494497D-01 0.100000000000D+01
0.277383692505D-03 0.000000000000D+00 0.000000000000D+00 0.203852182550D-02 0.000000000000D+00  5 1 -1 25 23 21 2 0.61255171D-02 0.98099769D-01 0.20799884D+05 0.20799884D+05 0.20799884D+05 0.12319555D+01  1  2 12  2  5  2       -1 0.545649147976D-01 0.100000000000D+01
-.318200230985D-03 0.000000000000D+00 0.000000000000D+00 0.203852182550D-02 0.000000000000D+00  5 1 -1 25 23 21 2 0.61255171D-02 0.56768296D-01 0.13933943D+05 0.13933943D+05 0.13933943D+05 0.12514891D+01  1  2  4  2  5  2       -1 -.192299694820D+00 0.100000000000D+01
-.359064379709D-03 0.000000000000D+00 -.786613461434D-04 0.203852182550D-02 0.000000000000D+00  5 1 -1 25 23 21 2 0.61255171D-02 0.10151588D+00 0.13933943D+05 0.13933943D+05 0.13933943D+05 0.12514891D+01  1  2  5  2  5  2       -1 -.671453649325D-01 0.100000000000D+01
0.354791147066D-03 0.000000000000D+00 0.670183866173D-04 0.203852182550D-02 0.000000000000D+00  5 1 -1 25 23 21 2 0.61255171D-02 0.56768296D-01 0.13933943D+05 0.13933943D+05 0.13933943D+05 0.12514891D+01  1  2  6  2  5  2       -1 0.214412884286D+00 0.100000000000D+01
0.168220577524D-04 0.000000000000D+00 0.000000000000D+00 0.203852182550D-02 0.000000000000D+00  5 1 21 25 23 1 2 0.61255171D-02 0.98099769D-01 0.20799884D+05 0.20799884D+05 0.20799884D+05 0.12319555D+01  1  2 12  4  5  2       -1 0.292858352946D-01 0.100000000000D+01
-.187840401084D-04 0.000000000000D+00 -.502199359898D-05 0.203852182550D-02 0.000000000000D+00  5 1 21 25 23 1 2 0.61255171D-02 0.10151588D+00 0.13933943D+05 0.13933943D+05 0.13933943D+05 0.12514891D+01  1  2  5  4  5  2       -1 -.312740828832D-01 0.100000000000D+01
  </mgrwgt>
  </event>
  <event>
  4     66 0.49155423E-03 0.11227033E+03 0.75467711E-02 0.10882126E+00
        1 -1    0    0  501    0 0.00000000E+00 0.00000000E+00 0.17719925E+04 0.17719925E+04 0.32000000E+00 0.0000E+00 0.9000E+01
       -1 -1    0    0    0  501 0.00000000E+00 0.00000000E+00 -.74083458E+01 0.74152537E+01 0.32000000E+00 0.0000E+00 0.9000E+01
       25  1    1    2    0    0 -.26624509E+02 0.13805130E+02 0.11818160E+04 0.11887866E+04 0.12500000E+03 0.0000E+00 0.9000E+01
       23  1    1    2    0    0 0.26624509E+02 -.13805130E+02 0.58276813E+03 0.59062119E+03 0.91188000E+02 0.0000E+00 0.9000E+01
#aMCatNLO 1  0  0  1  1 0.25139703D+03 0.00000000D+00  -5  5  0 0.00000000D+00 0.00000000D+00 0.00000000D+00 0.00000000D+00 0.00000000D+00
  <mgrwgt>
 0.1744228018D+00    5    2    0
 0.114602377065712D+03 0.000000000000000D+00 0.000000000000000D+00 0.114602377065712D+03
 0.114602377065712D+03 0.000000000000000D+00 0.000000000000000D+00 -.114602377065712D+03
 0.130548269383043D+03 -.266245094823886D+02 0.138051303876128D+02 0.227684981654663D+02
 0.986564847483815D+02 0.266245094823886D+02 -.138051303876128D+02 -.227684981654663D+02
 0.000000000000000D+00 0.000000000000000D+00 0.000000000000000D+00 0.000000000000000D+00
 0.405526268520661D+03 0.000000000000000D+00 0.000000000000000D+00 0.405526268520661D+03
 0.237212092273677D+03 0.000000000000000D+00 0.000000000000000D+00 -.237212092273677D+03
 0.218401905547948D+03 -.176049074083126D+03 -.237215377397425D+02 0.227684981654663D+02
 0.121796987580877D+03 -.677762574008336D+02 -.375130545783924D+02 -.227684981654663D+02
 0.302539467665512D+03 0.243825331483959D+03 0.612345923181349D+02 0.168314176246984D+03
0.237650544272D-03 0.000000000000D+00 0.000000000000D+00 0.220795755325D-02 0.000000000000D+00  5 1 -1 25 23 21 0 0.27261476D+00 0.11402791D-02 0.12604627D+05 0.12604627D+05 0.12604627D+05 0.12565297D+01  1  2  2  1  5  1        1 0.170765823336D+00 0.100000000000D+01
-.131960230443D-04 0.000000000000D+00 -.912640664832D-06 0.220795755325D-02 0.000000000000D+00  5 1 -1 25 23 21 2 0.27261476D+00 0.11402791D-02 0.12604627D+05 0.12604627D+05 0.12604627D+05 0.12565297D+01  1  2  3  1  5  1        1 -.149709977455D-01 0.100000000000D+01
0.164194110699D-04 0.000000000000D+00 0.000000000000D+00 0.220795755325D-02 0.000000000000D+00  5 1 -1 25 23 21 2 0.27261476D+00 0.11402791D-02 0.12604627D+05 0.12604627D+05 0.12604627D+05 0.12565297D+01  1  2 15  1  5  1        1 0.186279582330D-01 0.100000000000D+01
0.214329284962D-04 0.000000000000D+00 -.693928992282D-04 0.220795755325D-02 0.000000000000D+00  5 1 -1 25 23 21 2 0.97534014D+00 0.11402791D-02 0.12604627D+05 0.12604627D+05 0.12604627D+05 0.12565297D+01  1  2  5  1  5  1        1 0.180115989114D-07 0.100000000000D+01
0.521127346379D-05 0.000000000000D+00 -.103860759724D-04 0.220795755325D-02 0.000000000000D+00  5 21 -1 25 23 -1 2 0.97534014D+00 0.11402791D-02 0.12604627D+05 0.12604627D+05 0.12604627D+05 0.12565297D+01  1  2  5  3  5  1        1 0.375061162782D-11 0.100000000000D+01
  </mgrwgt>
  </event>
  <event>
  4     66 0.49155423E-03 0.75171707E+02 0.75467711E-02 0.11783335E+00
        1 -1    0    0  501    0 0.00000000E+00 0.00000000E+00 0.32332115E+03 0.32332131E+03 0.32000000E+00 0.0000E+00 0.9000E+01
       -1 -1    0    0    0  501 0.00000000E+00 0.00000000E+00 -.53827531E+02 0.53828482E+02 0.32000000E+00 0.0000E+00 0.9000E+01
       25  1    1    2    0    0 0.62339647E+02 -.40117361E+02 0.16518810E+03 0.22001760E+03 0.12500000E+03 0.0000E+00 0.9000E+01
       23  1    1    2    0    0 -.62339647E+02 0.40117361E+02 0.10430552E+03 0.15713220E+03 0.91188000E+02 0.0000E+00 0.9000E+01
#aMCatNLO 1  0  0  2  1 0.67645445D+02 0.00000000D+00  -5  5  0 0.00000000D+00 0.00000000D+00 0.00000000D+00 0.00000000D+00 0.00000000D+00
  <mgrwgt>
 0.1357477016D+00    9    2    0
 0.131923419734635D+03 0.000000000000000D+00 0.000000000000000D+00 0.131923419734635D+03
 0.131923419734635D+03 0.000000000000000D+00 0.000000000000000D+00 -.131923419734635D+03
 0.145775677109981D+03 0.623396470081886D+02 -.401173608645706D+02 0.113979737247362D+02
 0.118071162359289D+03 -.623396470081886D+02 0.401173608645706D+02 -.113979737247362D+02
 0.000000000000000D+00 0.000000000000000D+00 -.000000000000000D+00 -.000000000000000D+00
 0.162158127816893D+03 0.000000000000000D+00 0.000000000000000D+00 0.162158127816893D+03
 0.180243587459652D+03 0.000000000000000D+00 0.000000000000000D+00 -.180243587459652D+03
 0.137247617478821D+03 0.552792205524917D+02 -.511883518898568D+01 0.113979737247362D+02
 0.135132743292886D+03 -.686561855699693D+02 0.714284351208471D+02 -.113979737247362D+02
 0.700213545048381D+02 0.133769650174775D+02 -.663095999318614D+02 -.180854596427595D+02
0.174165818334D-03 0.000000000000D+00 0.000000000000D+00 0.192170582973D-02 0.000000000000D+00  5 1 -1 25 23 21 0 0.49741801D-01 0.82812440D-02 0.17272415D+05 0.17272415D+05 0.17272415D+05 0.12408985D+01  1  2  2  2  5  2       -1 0.107980001594D+00 0.100000000000D+01
-.967570993623D-05 0.000000000000D+00 -.668842601315D-06 0.192170582973D-02 0.000000000000D+00  5 1 -1 25 23 21 2 0.49741801D-01 0.82812440D-02 0.17272415D+05 0.17272415D+05 0.17272415D+05 0.12408985D+01  1  2  3  2  5  2       -1 -.923710291057D-02 0.100000000000D+01
0.120589261753D-04 0.000000000000D+00 0.000000000000D+00 0.192170582973D-02 0.000000000000D+00  5 1 -1 25 23 21 2 0.49741801D-01 0.82812440D-02 0.17272415D+05 0.17272415D+05 0.17272415D+05 0.12408985D+01  1  2 15  2  5  2       -1 0.115122862102D-01 0.100000000000D+01
0.455556563523D-04 0.000000000000D+00 0.000000000000D+00 0.192170582973D-02 0.000000000000D+00  5 1 -1 25 23 21 2 0.49741801D-01 0.11978835D-01 0.28742143D+05 0.28742143D+05 0.28742143D+05 0.12168556D+01  1  2 12  2  5  2       -1 0.240988298833D-01 0.100000000000D+01
-.721709740311D-04 0.000000000000D+00 0.000000000000D+00 0.192170582973D-02 0.000000000000D+00  5 1 -1 25 23 21 2 0.49741801D-01 0.82812440D-02 0.17272415D+05 0.17272415D+05 0.17272415D+05 0.12408985D+01  1  2  4  2  5  2       -1 -.688994108624D-01 0.100000000000D+01
-.105100215807D-03 0.000000000000D+00 -.599584945984D-04 0.192170582973D-02 0.000000000000D+00  5 1 -1 25 23 21 2 0.49741801D-01 0.13844814D-01 0.17272415D+05 0.17272415D+05 0.17272415D+05 0.12408985D+01  1  2  5  2  5  2       -1 -.456671489159D-01 0.100000000000D+01
0.126032190345D-03 0.000000000000D+00 0.528274374080D-04 0.192170582973D-02 0.000000000000D+00  5 1 -1 25 23 21 2 0.49741801D-01 0.82812440D-02 0.17272415D+05 0.17272415D+05 0.17272415D+05 0.12408985D+01  1  2  6  2  5  2       -1 0.120319058749D+00 0.100000000000D+01
0.204520928542D-05 0.000000000000D+00 0.000000000000D+00 0.192170582973D-02 0.000000000000D+00  5 1 21 25 23 1 2 0.49741801D-01 0.11978835D-01 0.28742143D+05 0.28742143D+05 0.28742143D+05 0.12168556D+01  1  2 12  4  5  2       -1 0.155406555480D-01 0.100000000000D+01
-.326895718597D-05 0.000000000000D+00 -.345548188484D-05 0.192170582973D-02 0.000000000000D+00  5 1 21 25 23 1 2 0.49741801D-01 0.13844814D-01 0.17272415D+05 0.17272415D+05 0.17272415D+05 0.12408985D+01  1  2  5  4  5  2       -1 -.198994677410D-01 0.100000000000D+01
  </mgrwgt>
  </event>
  <event>
  4     66 -.49155423E-03 0.47893701E+02 0.75467711E-02 0.12416818E+00
        3 -1    0    0  501    0 0.00000000E+00 0.00000000E+00 0.25188344E+03 0.25188394E+03 0.50000000E+00 0.0000E+00 0.9000E+01
       -3 -1    0    0    0  501 0.00000000E+00 0.00000000E+00 -.13891748E+03 0.13891838E+03 0.50000000E+00 0.0000E+00 0.9000E+01
       25  1    1    2    0    0 -.24722852E+02 -.43268767E+02 -.90615238E+02 0.16223294E+03 0.12500000E+03 0.0000E+00 0.9000E+01
       23  1    1    2    0    0 0.24722852E+02 0.43268767E+02 0.20358120E+03 0.22856938E+03 0.91188000E+02 0.0000E+00 0.9000E+01
#aMCatNLO 1  0  0  1  2 0.32414623D+01 0.00000000D+00  -5  5  0 0.00000000D+00 0.00000000D+00 0.00000000D+00 0.00000000D+00 0.00000000D+00
  <mgrwgt>
 -.1148234501D-01   11    2    0
 0.187059578710705D+03 0.000000000000000D+00 0.000000000000000D+00 0.187059578710705D+03
 0.187059578710705D+03 0.000000000000000D+00 0.000000000000000D+00 -.187059578710705D+03
 0.196828857443157D+03 -.247228521460757D+02 -.432687670695767D+02 -.143642589437885D+03
 0.177290299978252D+03 0.247228521460757D+02 0.432687670695767D+02 0.143642589437885D+03
 0.000000000000000D+00 -.000000000000000D+00 0.000000000000000D+00 0.000000000000000D+00
 0.189123126038341D+03 0.000000000000000D+00 0.000000000000000D+00 0.189123126038341D+03
 0.188343884442876D+03 0.000000000000000D+00 0.000000000000000D+00 -.188343884442876D+03
 0.196933421343054D+03 -.234702345366078D+02 -.444266477719946D+02 -.143642589437885D+03
 0.177199778236149D+03 0.258505389212584D+02 0.422263685391022D+02 0.143642589437885D+03
 0.333381090201416D+01 -.238030438465057D+01 0.220027923289239D+01 0.779241595465886D+00
0.291232132266D-03 0.000000000000D+00 0.000000000000D+00 0.723652322962D-03 0.000000000000D+00  5 3 -3 25 23 21 0 0.38751406D-01 0.21372028D-01 0.14218662D+05 0.14218662D+05 0.14218662D+05 0.12504798D+01  1  2  2  1  5  1        3 0.877828917286D-02 0.100000000000D+01
-.121911702578D-04 0.000000000000D+00 -.111840807108D-05 0.723652322962D-03 0.000000000000D+00  5 3 -3 25 23 21 2 0.38751406D-01 0.21372028D-01 0.14218662D+05 0.14218662D+05 0.14218662D+05 0.12504798D+01  1  2  3  1  5  1        3 -.574604929605D-03 0.100000000000D+01
0.198473971345D-04 0.000000000000D+00 0.000000000000D+00 0.723652322962D-03 0.000000000000D+00  5 3 -3 25 23 21 2 0.38751406D-01 0.21372028D-01 0.14218662D+05 0.14218662D+05 0.14218662D+05 0.12504798D+01  1  2 15  1  5  1        3 0.935464930122D-03 0.100000000000D+01
0.458726486135D-05 0.000000000000D+00 0.000000000000D+00 0.723652322962D-03 0.000000000000D+00  5 3 -3 25 23 21 2 0.39310729D-01 0.21372028D-01 0.14607612D+05 0.14607612D+05 0.14607612D+05 0.12491371D+01  1  2 12  1  5  1        3 0.210302780848D-03 0.100000000000D+01
-.340655694725D-02 0.000000000000D+00 0.000000000000D+00 0.723652322962D-03 0.000000000000D+00  5 3 -3 25 23 21 2 0.38751406D-01 0.21372028D-01 0.14218662D+05 0.14218662D+05 0.14218662D+05 0.12504798D+01  1  2  4  1  5  1        3 -.160560829968D+00 0.100000000000D+01
-.193461761755D-01 0.000000000000D+00 -.246814224884D-02 0.723652322962D-03 0.000000000000D+00  5 3 -3 25 23 21 2 0.39422068D-01 0.21372028D-01 0.14218662D+05 0.14218662D+05 0.14218662D+05 0.12504798D+01  1  2  5  1  5  1        3 -.882393068940D+00 0.100000000000D+01
0.193860357414D-01 0.000000000000D+00 0.246777895581D-02 0.723652322962D-03 0.000000000000D+00  5 3 -3 25 23 21 2 0.38751406D-01 0.21372028D-01 0.14218662D+05 0.14218662D+05 0.14218662D+05 0.12504798D+01  1  2  6  1  5  1        3 0.913719640279D+00 0.100000000000D+01
0.340304636820D-02 0.000000000000D+00 0.000000000000D+00 0.723652322962D-03 0.573238814365D-03  5 3 -3 25 23 21 2 0.39178892D-01 0.21518763D-01 0.14607612D+05 0.14607612D+05 0.14607612D+05 0.12491371D+01  1  2 11  1  5  1        3 0.155129169661D+00 0.100000000000D+01
0.274503811014D-06 0.000000000000D+00 0.000000000000D+00 0.723652322962D-03 0.000000000000D+00  5 21 -3 25 23 -3 2 0.39310729D-01 0.21372028D-01 0.14607612D+05 0.14607612D+05 0.14607612D+05 0.12491371D+01  1  2 12  3  5  1        3 0.258572831763D-03 0.100000000000D+01
-.604034499739D-04 0.000000000000D+00 -.774016255178D-05 0.723652322962D-03 0.000000000000D+00  5 21 -3 25 23 -3 2 0.39422068D-01 0.21372028D-01 0.14218662D+05 0.14218662D+05 0.14218662D+05 0.12504798D+01  1  2  5  3  5  1        3 -.566673429489D-01 0.100000000000D+01
0.103345181973D-04 0.000000000000D+00 0.000000000000D+00 0.723652322962D-03 0.116637749537D-05  5 21 -3 25 23 -3 2 0.39178892D-01 0.21518763D-01 0.14607612D+05 0.14607612D+05 0.14607612D+05 0.12491371D+01  1  2 11  3  5  1        3 0.968206211856D-02 0.100000000000D+01
  </mgrwgt>
  </event>
  <event>
  4     66 0.49155423E-03 0.10835903E+03 0.75467711E-02 0.10441484E+00
        1 -1    0    0  501    0 0.00000000E+00 0.00000000E+00 0.67480889E+03 0.67480896E+03 0.32000000E+00 0.0000E+00 0.9000E+01
       -1 -1    0    0    0  501 0.00000000E+00 0.00000000E+00 -.17412825E+02 0.17415765E+02 0.32000000E+00 0.0000E+00 0.9000E+01
       25  1    1    2    0    0 0.69115608E+01 0.28634662E+01 0.38963344E+03 0.40926176E+03 0.12500000E+03 0.0000E+00 0.9000E+01
       23  1    1    2    0    0 -.69115608E+01 -.28634662E+01 0.26776262E+03 0.28296297E+03 0.91188000E+02 0.0000E+00 0.9000E+01
#aMCatNLO 1  0  0  2  2 0.36950456D+03 0.00000000D+00  -5  5  0 0.00000000D+00 0.00000000D+00 0.00000000D+00 0.00000000D+00 0.00000000D+00
  <mgrwgt>
 0.7726188689D-01    5    2    0
 0.108403749328841D+03 0.000000000000000D+00 0.000000000000000D+00 0.108403749328841D+03
 0.108403749328841D+03 0.000000000000000D+00 0.000000000000000D+00 -.108403749328841D+03
 0.125261442677219D+03 0.691156084743069D+01 0.286346618406438D+01 0.307569661102673D+01
 0.915460559804632D+02 -.691156084743069D+01 -.286346618406438D+01 -.307569661102673D+01
 0.000000000000000D+00 -.000000000000000D+00 0.000000000000000D+00 -.000000000000000D+00
 0.263923310284250D+03 0.000000000000000D+00 0.000000000000000D+00 0.263923310284250D+03
 0.900775336573623D+03 0.000000000000000D+00 0.000000000000000D+00 -.900775336573623D+03
 0.249148193708497D+03 0.113627690604766D+03 -.183109558588270D+03 0.307569661102673D+01
 0.179266456196929D+03 0.702767921779169D+02 -.137378759438803D+03 -.307569661102673D+01
 0.736283996952446D+03 -.183904482782683D+03 0.320488318027073D+03 -.636852026289373D+03
0.549919479931D-04 0.000000000000D+00 0.000000000000D+00 0.245639788452D-02 0.000000000000D+00  5 1 -1 25 23 21 0 0.10381698D+00 0.26791281D-02 0.11741678D+05 0.11741678D+05 0.11741678D+05 0.12601333D+01  1  2  2  2  5  2       -1 0.683823210996D-01 0.100000000000D+01
-.305510758930D-05 0.000000000000D+00 -.211183560006D-06 0.245639788452D-02 0.000000000000D+00  5 1 -1 25 23 21 2 0.10381698D+00 0.26791281D-02 0.11741678D+05 0.11741678D+05 0.11741678D+05 0.12601333D+01  1  2  3  2  5  2       -1 -.603259541250D-02 0.100000000000D+01
0.380027847797D-05 0.000000000000D+00 0.000000000000D+00 0.245639788452D-02 0.000000000000D+00  5 1 -1 25 23 21 2 0.10381698D+00 0.26791281D-02 0.11741678D+05 0.11741678D+05 0.11741678D+05 0.12601333D+01  1  2 15  2  5  2       -1 0.750400496293D-02 0.100000000000D+01
0.142282021173D-03 0.000000000000D+00 -.719206022123D-04 0.245639788452D-02 0.000000000000D+00  5 1 -1 25 23 21 2 0.10381698D+00 0.54212316D-01 0.11741678D+05 0.11741678D+05 0.11741678D+05 0.12601333D+01  1  2  5  2  5  2       -1 0.251717550273D-02 0.100000000000D+01
0.273572748066D-04 0.000000000000D+00 -.231720568776D-04 0.245639788452D-02 0.000000000000D+00  5 1 21 25 23 1 2 0.10381698D+00 0.54212316D-01 0.11741678D+05 0.11741678D+05 0.11741678D+05 0.12601333D+01  1  2  5  4  5  2       -1 0.489098073949D-02 0.100000000000D+01
  </mgrwgt>
  </event>
  <event>
  4     66 0.49155423E-03 0.12975786E+03 0.75467711E-02 0.11801407E+00
        1 -1    0    0  501    0 0.00000000E+00 0.00000000E+00 0.65536099E+03 0.65536107E+03 0.32000000E+00 0.0000E+00 0.9000E+01
       -1 -1    0    0    0  501 0.00000000E+00 0.00000000E+00 -.38552898E+02 0.38554226E+02 0.32000000E+00 0.0000E+00 0.9000E+01
       25  1    1    2    0    0 -.65149333E+02 0.28651091E+02 0.13109543E+03 0.19461843E+03 0.12500000E+03 0.0000E+00 0.9000E+01
       23  1    1    2    0    0 0.65149333E+02 -.28651091E+02 0.48571266E+03 0.49929686E+03 0.91188000E+02 0.0000E+00 0.9000E+01
#aMCatNLO 1  0  0  1  1 0.67097119D+02 0.00000000D+00  -5  5  0 0.00000000D+00 0.00000000D+00 0.00000000D+00 0.00000000D+00 0.00000000D+00
  <mgrwgt>
 0.1601869958D+00    3    2    0
 0.158954564033763D+03 0.000000000000000D+00 0.000000000000000D+00 0.158954564033763D+03
 0.158954564033763D+03 0.000000000000000D+00 0.000000000000000D+00 -.158954564033763D+03
 0.170451164808384D+03 -.651493328524414D+02 0.286510907195663D+02 -.914509650796305D+02
 0.147457963259143D+03 0.651493328524414D+02 -.286510907195663D+02 0.914509650796305D+02
 0.000000000000000D+00 -.000000000000000D+00 0.000000000000000D+00 -.000000000000000D+00
 0.169593496379062D+03 0.000000000000000D+00 0.000000000000000D+00 0.169593496379062D+03
 0.320152794415969D+03 0.000000000000000D+00 0.000000000000000D+00 -.320152794415969D+03
 0.162636462830215D+03 -.495626026939996D+02 -.242661124302701D+01 -.914509650796305D+02
 0.162276197880445D+03 0.796432449342560D+02 -.575498703463318D+02 0.914509650796305D+02
 0.164833630084371D+03 -.300806422402564D+02 0.599764815893589D+02 -.150559298036907D+03
0.382374651711D-03 0.000000000000D+00 0.000000000000D+00 0.119493864431D-02 0.000000000000D+00  5 1 -1 25 23 21 0 0.10082488D+00 0.59313233D-02 0.16837103D+05 0.16837103D+05 0.16837103D+05 0.12421427D+01  1  2  2  1  5  1        1 0.156466336949D+00 0.100000000000D+01
-.201792145047D-04 0.000000000000D+00 -.146841934413D-05 0.119493864431D-02 0.000000000000D+00  5 1 -1 25 23 21 2 0.10082488D+00 0.59313233D-02 0.16837103D+05 0.16837103D+05 0.16837103D+05 0.12421427D+01  1  2  3  1  5  1        1 -.127402817705D-01 0.100000000000D+01
0.260723317288D-04 0.000000000000D+00 0.000000000000D+00 0.119493864431D-02 0.000000000000D+00  5 1 -1 25 23 21 2 0.10082488D+00 0.59313233D-02 0.16837103D+05 0.16837103D+05 0.16837103D+05 0.12421427D+01  1  2 15  1  5  1        1 0.164609406655D-01 0.100000000000D+01
  </mgrwgt>
  </event>
  <event>
  4     66 0.49155423E-03 0.79468124E+02 0.75467711E-02 0.11722520E+00
        1 -1    0    0  501    0 0.00000000E+00 0.00000000E+00 0.66094418E+03 0.66094426E+03 0.32000000E+00 0.0000E+00 0.9000E+01
       -1 -1    0    0    0  501 0.00000000E+00 0.00000000E+00 -.43617583E+02 0.43618757E+02 0.32000000E+00 0.0000E+00 0.9000E+01
       25  1    1    2    0    0 0.11012811E+03 0.69417564E+02 0.31726165E+03 0.36500267E+03 0.12500000E+03 0.0000E+00 0.9000E+01
       23  1    1    2    0    0 -.11012811E+03 -.69417564E+02 0.30006496E+03 0.33956035E+03 0.91188000E+02 0.0000E+00 0.9000E+01
#aMCatNLO 1  0  0  2  1 0.11349235D+02 0.00000000D+00  -5  5  0 0.00000000D+00 0.00000000D+00 0.00000000D+00 0.00000000D+00 0.00000000D+00
  <mgrwgt>
 0.2850755122D+00    6    2    0
 0.169791721604331D+03 0.000000000000000D+00 0.000000000000000D+00 0.169791721604331D+03
 0.169791721604331D+03 0.000000000000000D+00 0.000000000000000D+00 -.169791721604331D+03
 0.180554538228916D+03 0.110128113097327D+03 0.694175642555086D+02 -.528599598106205D+01
 0.159028904979746D+03 -.110128113097327D+03 -.694175642555086D+02 0.528599598106205D+01
 0.000000000000000D+00 0.000000000000000D+00 -.000000000000000D+00 0.000000000000000D+00
 0.177203063651744D+03 0.000000000000000D+00 0.000000000000000D+00 0.177203063651744D+03
 0.174287682540119D+03 0.000000000000000D+00 0.000000000000000D+00 -.174287682540119D+03
 0.179625128673528D+03 0.105805474785692D+03 0.736033056516075D+02 -.528599598106205D+01
 0.160147913292359D+03 -.113958662319370D+03 -.657083276059047D+02 0.528599598106205D+01
 0.117177042259769D+02 0.815318753367844D+01 -.789497804570277D+01 0.291538111162475D+01
0.385216999293D-03 0.000000000000D+00 0.000000000000D+00 0.158548190319D-02 0.000000000000D+00  5 1 -1 25 23 21 0 0.10168382D+00 0.67104937D-02 0.28801174D+05 0.28801174D+05 0.28801174D+05 0.12167616D+01  1  2  2  2  5  2       -1 0.130843472439D+00 0.100000000000D+01
-.214009382390D-04 0.000000000000D+00 -.147933470725D-05 0.158548190319D-02 0.000000000000D+00  5 1 -1 25 23 21 2 0.10168382D+00 0.67104937D-02 0.28801174D+05 0.28801174D+05 0.28801174D+05 0.12167616D+01  1  2  3  2  5  2       -1 -.107619371852D-01 0.100000000000D+01
0.265703044393D-04 0.000000000000D+00 0.000000000000D+00 0.158548190319D-02 0.000000000000D+00  5 1 -1 25 23 21 2 0.10168382D+00 0.67104937D-02 0.28801174D+05 0.28801174D+05 0.28801174D+05 0.12167616D+01  1  2 15  2  5  2       -1 0.133614678092D-01 0.100000000000D+01
0.633475640529D-03 0.000000000000D+00 0.000000000000D+00 0.158548190319D-02 0.000000000000D+00  5 1 -1 25 23 21 2 0.10168382D+00 0.70296808D-02 0.30792743D+05 0.30792743D+05 0.30792743D+05 0.12137114D+01  1  2 12  2  5  2       -1 0.295841725347D+00 0.100000000000D+01
-.383679113216D-03 0.000000000000D+00 0.000000000000D+00 0.158548190319D-02 0.000000000000D+00  5 1 -1 25 23 21 2 0.10168382D+00 0.67104937D-02 0.28801174D+05 0.28801174D+05 0.28801174D+05 0.12167616D+01  1  2  4  2  5  2       -1 -.192941564972D+00 0.100000000000D+01
0.645752361748D-05 0.000000000000D+00 0.000000000000D+00 0.158548190319D-02 0.000000000000D+00  5 1 21 25 23 1 2 0.10168382D+00 0.70296808D-02 0.30792743D+05 0.30792743D+05 0.30792743D+05 0.12137114D+01  1  2 12  4  5  2       -1 0.487323487920D-01 0.100000000000D+01
  </mgrwgt>
  </event>
  <event>
  4     66 0.49155423E-03 0.17728328E+03 0.75467711E-02 0.11515274E+00
        1 -1    0    0  501    0 0.00000000E+00 0.00000000E+00 0.71220493E+03 0.71220501E+03 0.32000000E+00 0.0000E+00 0.9000E+01
       -1 -1    0    0    0  501 0.00000000E+00 0.00000000E+00 -.44164333E+02 0.44165492E+02 0.32000000E+00 0.0000E+00 0.9000E+01
       25  1    1    2    0    0 -.12253096E+03 -.67465960E+02 0.36410391E+03 0.40958778E+03 0.12500000E+03 0.0000E+00 0.9000E+01
       23  1    1    2    0    0 0.12253096E+03 0.67465960E+02 0.30393669E+03 0.34678272E+03 0.91188000E+02 0.0000E+00 0.9000E+01
#aMCatNLO 1  0  0  2  1 0.39075954D+02 0.00000000D+00  -5  5  0 0.00000000D+00 0.00000000D+00 0.00000000D+00 0.00000000D+00 0.00000000D+00
  <mgrwgt>
 0.1126893254D+00    4    2    0
 0.177354225601588D+03 0.000000000000000D+00 0.000000000000000D+00 0.177354225601588D+03
 0.177354225601588D+03 0.000000000000000D+00 0.000000000000000D+00 -.177354225601588D+03
 0.187658108454119D+03 -.122530956045330D+03 -.674659602383699D+02 0.500746326095238D+01
 0.167050342749058D+03 0.122530956045330D+03 0.674659602383699D+02 -.500746326095238D+01
 0.000000000000000D+00 0.000000000000000D+00 -.000000000000000D+00 0.000000000000000D+00
 0.217674973256429D+03 0.000000000000000D+00 0.000000000000000D+00 0.217674973256429D+03
 0.188153380491093D+03 0.000000000000000D+00 0.000000000000000D+00 -.188153380491093D+03
 0.185343053979843D+03 -.128142087887635D+03 -.477658694264330D+02 0.500746326095238D+01
 0.171511279812188D+03 0.117437905159002D+03 0.853471235740849D+02 -.500746326095238D+01
 0.489740199554897D+02 0.107041827286324D+02 -.375812541476519D+02 0.295215927653361D+02
0.513701734826D-03 0.000000000000D+00 0.000000000000D+00 0.154635129089D-02 0.000000000000D+00  5 1 -1 25 23 21 0 0.10957008D+00 0.67946074D-02 0.31429362D+05 0.31429362D+05 0.31429362D+05 0.12127825D+01  1  2  2  2  5  2       -1 0.154070958791D+00 0.100000000000D+01
-.285389797135D-04 0.000000000000D+00 -.197274992251D-05 0.154635129089D-02 0.000000000000D+00  5 1 -1 25 23 21 2 0.10957008D+00 0.67946074D-02 0.31429362D+05 0.31429362D+05 0.31429362D+05 0.12127825D+01  1  2  3  2  5  2       -1 -.125896619480D-01 0.100000000000D+01
0.353900845055D-04 0.000000000000D+00 0.000000000000D+00 0.154635129089D-02 0.000000000000D+00  5 1 -1 25 23 21 2 0.10957008D+00 0.67946074D-02 0.31429362D+05 0.31429362D+05 0.31429362D+05 0.12127825D+01  1  2 15  2  5  2       -1 0.156119526594D-01 0.100000000000D+01
-.100657404111D-03 0.000000000000D+00 0.000000000000D+00 0.154635129089D-02 0.000000000000D+00  5 1 -1 25 23 21 2 0.10957008D+00 0.67946074D-02 0.31429362D+05 0.31429362D+05 0.31429362D+05 0.12127825D+01  1  2  4  2  5  2       -1 -.444039241430D-01 0.100000000000D+01
  </mgrwgt>
  </event>
  <event>
  4     66 0.49155423E-03 0.12086281E+03 0.75467711E-02 0.11529908E+00
        1 -1    0    0  501    0 0.00000000E+00 0.00000000E+00 0.50698722E+03 0.50698732E+03 0.32000000E+00 0.0000E+00 0.9000E+01
       -1 -1    0    0    0  501 0.00000000E+00 0.00000000E+00 -.85469313E+02 0.85469912E+02 0.32000000E+00 0.0000E+00 0.9000E+01
       25  1    1    2    0    0 -.15905483E+03 0.76815259E+01 0.33062342E+03 0.38767808E+03 0.12500000E+03 0.0000E+00 0.9000E+01
       23  1    1    2    0    0 0.15905483E+03 -.76815259E+01 0.90894486E+02 0.20477916E+03 0.91188000E+02 0.0000E+00 0.9000E+01
#aMCatNLO 1  0  0  2  1 0.63868594D+01 0.00000000D+00  -5  5  0 0.00000000D+00 0.00000000D+00 0.00000000D+00 0.00000000D+00 0.00000000D+00
  <mgrwgt>
 0.7068930992D-01   11    2    0
 0.208163534299831D+03 0.000000000000000D+00 0.000000000000000D+00 0.208163534299831D+03
 0.208163534299831D+03 0.000000000000000D+00 0.000000000000000D+00 -.208163534299831D+03
 0.216942387763031D+03 -.159054828673991D+03 0.768152593134080D+01 0.779843269072644D+02
 0.199384680836632D+03 0.159054828673991D+03 -.768152593134080D+01 -.779843269072644D+02
 0.000000000000000D+00 -.000000000000000D+00 0.000000000000000D+00 -.000000000000000D+00
 0.210973776526654D+03 0.000000000000000D+00 0.000000000000000D+00 0.210973776526654D+03
 0.211848801116799D+03 0.000000000000000D+00 0.000000000000000D+00 -.211848801116799D+03
 0.216626602749516D+03 -.158749589635007D+03 0.437007623895089D+01 0.779843269072644D+02
 0.199749453264603D+03 0.159335825060228D+03 -.107299741241633D+02 -.779843269072644D+02
 0.644652162933404D+01 -.586235425220164D+00 0.635989788521241D+01 -.875024590145524D+00
0.561713604308D-03 0.000000000000D+00 0.000000000000D+00 0.125302511977D-02 0.000000000000D+00  5 1 -1 25 23 21 0 0.77998088D-01 0.13149179D-01 0.37237889D+05 0.37237889D+05 0.37237889D+05 0.12051688D+01  1  2  2  2  5  2       -1 0.980214841059D-01 0.100000000000D+01
-.309884063604D-04 0.000000000000D+00 -.215712814313D-05 0.125302511977D-02 0.000000000000D+00  5 1 -1 25 23 21 2 0.77998088D-01 0.13149179D-01 0.37237889D+05 0.37237889D+05 0.37237889D+05 0.12051688D+01  1  2  3  2  5  2       -1 -.785418817983D-02 0.100000000000D+01
0.386605760565D-04 0.000000000000D+00 0.000000000000D+00 0.125302511977D-02 0.000000000000D+00  5 1 -1 25 23 21 2 0.77998088D-01 0.13149179D-01 0.37237889D+05 0.37237889D+05 0.37237889D+05 0.12051688D+01  1  2 15  2  5  2       -1 0.979874330927D-02 0.100000000000D+01
0.465293369917D-03 0.000000000000D+00 0.000000000000D+00 0.125302511977D-02 0.000000000000D+00  5 1 -1 25 23 21 2 0.77998088D-01 0.13469345D-01 0.38491914D+05 0.38491914D+05 0.38491914D+05 0.12036989D+01  1  2 12  2  5  2       -1 0.113323110203D+00 0.100000000000D+01
-.730724722652D-03 0.000000000000D+00 0.000000000000D+00 0.125302511977D-02 0.000000000000D+00  5 1 -1 25 23 21 2 0.77998088D-01 0.13149179D-01 0.37237889D+05 0.37237889D+05 0.37237889D+05 0.12051688D+01  1  2  4  2  5  2       -1 -.185206345000D+00 0.100000000000D+01
-.164104788896D-01 0.000000000000D+00 -.225521566517D-02 0.125302511977D-02 0.000000000000D+00  5 1 -1 25 23 21 2 0.77998088D-01 0.13558991D-01 0.37237889D+05 0.37237889D+05 0.37237889D+05 0.12051688D+01  1  2  5  2  5  2       -1 -.396395228573D+01 0.100000000000D+01
0.164729957438D-01 0.000000000000D+00 0.225415397675D-02 0.125302511977D-02 0.000000000000D+00  5 1 -1 25 23 21 2 0.77998088D-01 0.13149179D-01 0.37237889D+05 0.37237889D+05 0.37237889D+05 0.12051688D+01  1  2  6  2  5  2       -1 0.417517464283D+01 0.100000000000D+01
0.342103788504D-03 0.000000000000D+00 0.000000000000D+00 0.125302511977D-02 0.237433115027D-03  5 1 -1 25 23 21 2 0.79051075D-01 0.13381968D-01 0.38491914D+05 0.38491914D+05 0.38491914D+05 0.12036989D+01  1  2 11  2  5  2       -1 0.826912321229D-01 0.100000000000D+01
0.125556205829D-04 0.000000000000D+00 0.000000000000D+00 0.125302511977D-02 0.000000000000D+00  5 1 21 25 23 1 2 0.77998088D-01 0.13469345D-01 0.38491914D+05 0.38491914D+05 0.38491914D+05 0.12036989D+01  1  2 12  4  5  2       -1 0.424823754375D-01 0.100000000000D+01
-.894672439416D-04 0.000000000000D+00 -.124003840996D-04 0.125302511977D-02 0.000000000000D+00  5 1 21 25 23 1 2 0.77998088D-01 0.13558991D-01 0.37237889D+05 0.37237889D+05 0.37237889D+05 0.12051688D+01  1  2  5  4  5  2       -1 -.299980517551D+00 0.100000000000D+01
0.184083326775D-05 0.000000000000D+00 0.000000000000D+00 0.125302511977D-02 0.765971189207D-06  5 1 21 25 23 1 2 0.79051075D-01 0.13381968D-01 0.38491914D+05 0.38491914D+05 0.38491914D+05 0.12036989D+01  1  2 11  4  5  2       -1 0.619105836673D-02 0.100000000000D+01
  </mgrwgt>
  </event>
  <event>
  5     66 0.49155423E-03 0.12501220E+03 0.75467711E-02 0.11342339E+00
        1 -1    0    0  501    0 0.00000000E+00 0.00000000E+00 0.18947668E+03 0.18947695E+03 0.32000000E+00 0.0000E+00 0.9000E+01
       21 -1    0    0  502  501 0.00000000E+00 0.00000000E+00 -.26161136E+03 0.26161243E+03 0.75000000E+00 0.0000E+00 0.9000E+01
       25  1    1    2    0    0 0.25095776E+02 0.15308492E+03 -.60531731E+02 0.20821595E+03 0.12500000E+03 0.0000E+00 0.9000E+01
       23  1    1    2    0    0 0.17325103E+01 -.71805967E+01 -.22209956E+02 0.94144018E+02 0.91188000E+02 0.0000E+00 0.9000E+01
        1  1    1    2  502    0 -.26828287E+02 -.14590432E+03 0.10607009E+02 0.14872942E+03 0.32000000E+00 0.0000E+00 0.9000E+01
#aMCatNLO 2  0  0  2  1 0.14835036D+03 0.00000000D+00  -5  5  0 0.00000000D+00 0.00000000D+00 0.00000000D+00 0.00000000D+00 0.00000000D+00
  <mgrwgt>
 0.2224217753D-01    1    2    0
 0.125067515779184D+03 0.000000000000000D+00 0.000000000000000D+00 0.125067515779184D+03
 0.125067515779184D+03 0.000000000000000D+00 0.000000000000000D+00 -.125067515779184D+03
 0.139679120979902D+03 0.828641737657439D+01 0.616680448778487D+02 -.369382805810241D+01
 0.110455910578466D+03 -.828641737657439D+01 -.616680448778487D+02 0.369382805810241D+01
 0.000000000000000D+00 -.000000000000000D+00 -.000000000000000D+00 0.000000000000000D+00
 0.250905644592254D+03 0.000000000000000D+00 0.000000000000000D+00 0.250905644592254D+03
 0.197562238438766D+03 0.000000000000000D+00 0.000000000000000D+00 -.197562238438766D+03
 0.199257209622908D+03 0.250957764169788D+02 0.153084921618733D+03 -.369382805810241D+01
 0.915612268947985D+02 0.173251033785306D+01 -.718059668044194D+01 0.369382805810241D+01
 0.157649446513313D+03 -.268282867548319D+02 -.145904324938291D+03 0.533434061534882D+02
0.154895114987D-04 0.000000000000D+00 0.000000000000D+00 0.204318263792D-02 0.987247100391D-07  5 1 21 25 23 1 2 0.29150340D-01 0.40247975D-01 0.48193424D+05 0.48193424D+05 0.48193424D+05 0.11938678D+01  1  2  1  4  5  2       -1 0.222421775257D-01 0.100000000000D+01
  </mgrwgt>
  </event>
  <event>
  5     66 -.49155423E-03 0.17023882E+03 0.75467711E-02 0.11736437E+00
        1 -1    0    0  501    0 0.00000000E+00 0.00000000E+00 0.13478665E+04 0.13478666E+04 0.32000000E+00 0.0000E+00 0.9000E+01
       -1 -1    0    0    0  502 0.00000000E+00 0.00000000E+00 -.28163108E+02 0.28164925E+02 0.32000000E+00 0.0000E+00 0.9000E+01
       25  1    1    2    0    0 0.12216582E+03 0.57309089E+02 0.38238636E+03 0.42432670E+03 0.12500000E+03 0.0000E+00 0.9000E+01
       23  1    1    2    0    0 -.11505156E+03 -.54331939E+02 0.90723956E+03 0.92064526E+03 0.91188000E+02 0.0000E+00 0.9000E+01
       21  1    1    2  501  502 -.71142595E+01 -.29771499E+01 0.30077499E+02 0.31059532E+02 0.75000000E+00 0.0000E+00 0.9000E+01
#aMCatNLO 2  0  0  2  1 0.77120756D+01 0.00000000D+00  -5  5  0 0.00000000D+00 0.00000000D+00 0.00000000D+00 0.00000000D+00 0.00000000D+00
  <mgrwgt>
 -.7447611876D-01    3    2    0
 0.190889415876407D+03 0.000000000000000D+00 0.000000000000000D+00 0.190889415876407D+03
 0.190889415876407D+03 0.000000000000000D+00 0.000000000000000D+00 -.190889415876407D+03
 0.200462692402033D+03 0.118405691645223D+03 0.557355639695083D+02 -.862202420553858D+02
 0.181316139350782D+03 -.118405691645223D+03 -.557355639695083D+02 0.862202420553858D+02
 0.000000000000000D+00 -.000000000000000D+00 -.000000000000000D+00 0.000000000000000D+00
 0.195340854294382D+03 0.000000000000000D+00 0.000000000000000D+00 0.195340854294382D+03
 0.194298113192315D+03 0.000000000000000D+00 0.000000000000000D+00 -.194298113192315D+03
 0.203144651154645D+03 0.122165819622248D+03 0.573090888836797D+02 -.862202420553858D+02
 0.178712066063708D+03 -.115051560088132D+03 -.543319389858005D+02 0.862202420553858D+02
 0.778225026834482D+01 -.711425953411672D+01 -.297714989787921D+01 0.104274110206713D+01
-.534929195104D-03 0.000000000000D+00 0.000000000000D+00 0.122113106256D-02 0.000000000000D+00  5 1 -1 25 23 21 2 0.20262004D+00 0.43811521D-02 0.30308992D+05 0.30308992D+05 0.30308992D+05 0.12144316D+01  1  2 13  2  5  2       -1 -.160622381188D+00 0.100000000000D+01
-.816428933826D-03 0.000000000000D+00 0.000000000000D+00 0.122113106256D-02 0.000000000000D+00  5 1 -1 25 23 21 2 0.20262004D+00 0.42565191D-02 0.28981256D+05 0.28981256D+05 0.28981256D+05 0.12164763D+01  1  2  8  2  5  2       -1 -.256673808194D+00 0.100000000000D+01
0.117750754930D-02 0.000000000000D+00 0.000000000000D+00 0.122113106256D-02 0.161534736092D-03  5 1 -1 25 23 21 2 0.20734503D+00 0.43325275D-02 0.30308992D+05 0.30308992D+05 0.30308992D+05 0.12144316D+01  1  2  1  2  5  2       -1 0.342820070624D+00 0.100000000000D+01
  </mgrwgt>
  </event>
  <event>
  4     66 0.49155423E-03 0.15251786E+03 0.75467711E-02 0.11460650E+00
        1 -1    0    0  501    0 0.00000000E+00 0.00000000E+00 0.27137973E+03 0.27137991E+03 0.32000000E+00 0.0000E+00 0.9000E+01
       -1 -1    0    0    0  501 0.00000000E+00 0.00000000E+00 -.85947453E+02 0.85948048E+02 0.32000000E+00 0.0000E+00 0.9000E+01
       25  1    1    2    0    0 -.96627706E+02 -.45806345E+02 0.10922525E+03 0.19745959E+03 0.12500000E+03 0.0000E+00 0.9000E+01
       23  1    1    2    0    0 0.96627706E+02 0.45806345E+02 0.76207024E+02 0.15986837E+03 0.91188000E+02 0.0000E+00 0.9000E+01
#aMCatNLO 1  0  0  1  1 0.90619867D+02 0.00000000D+00  -5  5  0 0.00000000D+00 0.00000000D+00 0.00000000D+00 0.00000000D+00 0.00000000D+00
  <mgrwgt>
 0.1505939113D+00    7    2    0
 0.152723725201323D+03 0.000000000000000D+00 0.000000000000000D+00 0.152723725201323D+03
 0.152723725201323D+03 0.000000000000000D+00 0.000000000000000D+00 -.152723725201323D+03
 0.164689365520736D+03 -.966277055686361D+02 -.458063445342326D+02 0.790268514966934D+01
 0.140758084881909D+03 0.966277055686361D+02 0.458063445342326D+02 -.790268514966934D+01
 0.000000000000000D+00 -.000000000000000D+00 0.000000000000000D+00 0.000000000000000D+00
 0.205428781458545D+03 0.000000000000000D+00 0.000000000000000D+00 0.205428781458545D+03
 0.203812012219435D+03 0.000000000000000D+00 0.000000000000000D+00 -.203812012219435D+03
 0.161216947264791D+03 -.632690574093957D+02 -.793755505639497D+02 0.790268514966934D+01
 0.157389558065763D+03 0.127145071849735D+03 0.150963543906192D+02 -.790268514966934D+01
 0.906342883474262D+02 -.638760144403388D+02 0.642791961733305D+02 0.161676923910938D+01
0.357749635154D-03 0.000000000000D+00 0.000000000000D+00 0.169974877277D-02 0.000000000000D+00  5 1 -1 25 23 21 0 0.41750787D-01 0.13222745D-01 0.23261697D+05 0.23261697D+05 0.23261697D+05 0.12266675D+01  1  2  2  1  5  1        1 0.135641979674D+00 0.100000000000D+01
-.198749357630D-04 0.000000000000D+00 -.137385279663D-05 0.169974877277D-02 0.000000000000D+00  5 1 -1 25 23 21 2 0.41750787D-01 0.13222745D-01 0.23261697D+05 0.23261697D+05 0.23261697D+05 0.12266675D+01  1  2  3  1  5  1        1 -.113389906713D-01 0.100000000000D+01
0.247230637892D-04 0.000000000000D+00 0.000000000000D+00 0.169974877277D-02 0.000000000000D+00  5 1 -1 25 23 21 2 0.41750787D-01 0.13222745D-01 0.23261697D+05 0.23261697D+05 0.23261697D+05 0.12266675D+01  1  2 15  1  5  1        1 0.141049306028D-01 0.100000000000D+01
-.123456489068D-03 0.000000000000D+00 0.000000000000D+00 0.169974877277D-02 0.000000000000D+00  5 1 -1 25 23 21 2 0.41750787D-01 0.13222745D-01 0.23261697D+05 0.23261697D+05 0.23261697D+05 0.12266675D+01  1  2  4  1  5  1        1 -.704340378535D-01 0.100000000000D+01
-.187379389131D-03 0.000000000000D+00 -.139927804249D-03 0.169974877277D-02 0.000000000000D+00  5 1 -1 25 23 21 2 0.72633346D-01 0.13222745D-01 0.23261697D+05 0.23261697D+05 0.23261697D+05 0.12266675D+01  1  2  5  1  5  1        1 -.532608363687D-01 0.100000000000D+01
0.245298510764D-03 0.000000000000D+00 0.120913871119D-03 0.169974877277D-02 0.000000000000D+00  5 1 -1 25 23 21 2 0.41750787D-01 0.13222745D-01 0.23261697D+05 0.23261697D+05 0.23261697D+05 0.12266675D+01  1  2  6  1  5  1        1 0.139946994467D+00 0.100000000000D+01
-.444743873551D-05 0.000000000000D+00 -.857259708685D-05 0.169974877277D-02 0.000000000000D+00  5 21 -1 25 23 -1 2 0.72633346D-01 0.13222745D-01 0.23261697D+05 0.23261697D+05 0.23261697D+05 0.12266675D+01  1  2  5  3  5  1        1 -.406612850883D-02 0.100000000000D+01
  </mgrwgt>
  </event>
  <event>
  4     66 0.49155423E-03 0.90948455E+02 0.75467711E-02 0.11942448E+00
        1 -1    0    0  501    0 0.00000000E+00 0.00000000E+00 0.89112171E+03 0.89112177E+03 0.32000000E+00 0.0000E+00 0.9000E+01
       -1 -1    0    0    0  501 0.00000000E+00 0.00000000E+00 -.22080629E+02 0.22082948E+02 0.32000000E+00 0.0000E+00 0.9000E+01
       25  1    1    2    0    0 -.38686798E+02 0.34614201E+01 0.21511400E+03 0.25180882E+03 0.12500000E+03 0.0000E+00 0.9000E+01
       23  1    1    2    0    0 0.38686798E+02 -.34614201E+01 0.65392708E+03 0.66139590E+03 0.91188000E+02 0.0000E+00 0.9000E+01
#aMCatNLO 1  0  0  1  2 0.69493340D+02 0.00000000D+00  -5  5  0 0.00000000D+00 0.00000000D+00 0.00000000D+00 0.00000000D+00 0.00000000D+00
  <mgrwgt>
 0.1106754407D+00    9    2    0
 0.140276916133796D+03 0.000000000000000D+00 0.000000000000000D+00 0.140276916133796D+03
 0.140276916133796D+03 0.000000000000000D+00 0.000000000000000D+00 -.140276916133796D+03
 0.153304270985660D+03 -.386867976563953D+02 0.346142013721148D+01 -.798031939221191D+02
 0.127249561281933D+03 0.386867976563953D+02 -.346142013721148D+01 0.798031939221191D+02
 0.000000000000000D+00 -.000000000000000D+00 0.000000000000000D+00 0.000000000000000D+00
 0.239993807169692D+03 0.000000000000000D+00 0.000000000000000D+00 0.239993807169692D+03
 0.157161422996893D+03 0.000000000000000D+00 0.000000000000000D+00 -.157161422996893D+03
 0.149620113227569D+03 -.851937017613913D+01 -.178899092748190D+02 -.798031939221191D+02
 0.139412371230282D+03 0.652429447678298D+02 -.222568260518084D+02 0.798031939221191D+02
 0.108122745708734D+03 -.567235745916907D+02 0.401467353266275D+02 0.828323841727993D+02
0.223849586769D-03 0.000000000000D+00 0.000000000000D+00 0.135070893452D-02 0.000000000000D+00  5 1 -1 25 23 21 0 0.13709583D+00 0.33972027D-02 0.13226284D+05 0.13226284D+05 0.13226284D+05 0.12541016D+01  1  2  2  1  5  1        1 0.131289665960D+00 0.100000000000D+01
-.118394802501D-04 0.000000000000D+00 -.859641354142D-06 0.135070893452D-02 0.000000000000D+00  5 1 -1 25 23 21 2 0.13709583D+00 0.33972027D-02 0.13226284D+05 0.13226284D+05 0.13226284D+05 0.12541016D+01  1  2  3  1  5  1        1 -.109212501550D-01 0.100000000000D+01
0.153313148264D-04 0.000000000000D+00 0.000000000000D+00 0.135070893452D-02 0.000000000000D+00  5 1 -1 25 23 21 2 0.13709583D+00 0.33972027D-02 0.13226284D+05 0.13226284D+05 0.13226284D+05 0.12541016D+01  1  2 15  1  5  1        1 0.141422698366D-01 0.100000000000D+01
0.886285869924D-04 0.000000000000D+00 0.000000000000D+00 0.135070893452D-02 0.000000000000D+00  5 1 -1 25 23 21 2 0.23779271D+00 0.33972027D-02 0.24081798D+05 0.24081798D+05 0.24081798D+05 0.12250438D+01  1  2 12  1  5  1        1 0.278296856703D-01 0.100000000000D+01
-.213799657914D-03 0.000000000000D+00 0.000000000000D+00 0.135070893452D-02 0.000000000000D+00  5 1 -1 25 23 21 2 0.13709583D+00 0.33972027D-02 0.13226284D+05 0.13226284D+05 0.13226284D+05 0.12541016D+01  1  2  4  1  5  1        1 -.197218078648D+00 0.100000000000D+01
-.212787045494D-03 0.000000000000D+00 -.768297145735D-04 0.135070893452D-02 0.000000000000D+00  5 1 -1 25 23 21 2 0.24648313D+00 0.33972027D-02 0.13226284D+05 0.13226284D+05 0.13226284D+05 0.12541016D+01  1  2  5  1  5  1        1 -.643024937078D-01 0.100000000000D+01
0.228888527152D-03 0.000000000000D+00 0.652731913118D-04 0.135070893452D-02 0.000000000000D+00  5 1 -1 25 23 21 2 0.13709583D+00 0.33972027D-02 0.13226284D+05 0.13226284D+05 0.13226284D+05 0.12541016D+01  1  2  6  1  5  1        1 0.211136706157D+00 0.100000000000D+01
0.540528600470D-05 0.000000000000D+00 0.000000000000D+00 0.135070893452D-02 0.000000000000D+00  5 21 -1 25 23 -1 2 0.23779271D+00 0.33972027D-02 0.24081798D+05 0.24081798D+05 0.24081798D+05 0.12250438D+01  1  2 12  3  5  1        1 0.179841550737D-02 0.100000000000D+01
-.961646541726D-05 0.000000000000D+00 -.494427561152D-05 0.135070893452D-02 0.000000000000D+00  5 21 -1 25 23 -1 2 0.24648313D+00 0.33972027D-02 0.13226284D+05 0.13226284D+05 0.13226284D+05 0.12541016D+01  1  2  5  3  5  1        1 -.307947994334D-02 0.100000000000D+01
  </mgrwgt>
  </event>
  <event>
  4     66 0.49155423E-03 0.23818557E+03 0.75467711E-02 0.10754368E+00
        1 -1    0    0  501    0 0.00000000E+00 0.00000000E+00 0.12284009E+03 0.12284051E+03 0.32000000E+00 0.0000E+00 0.9000E+01
       -1 -1    0    0    0  501 0.00000000E+00 0.00000000E+00 -.11823666E+04 0.11823666E+04 0.32000000E+00 0.0000E+00 0.9000E+01
       25  1    1    2    0    0 0.28738693E+03 -.83210969E+01 -.92175352E+03 0.97360929E+03 0.12500000E+03 0.0000E+00 0.9000E+01
       23  1    1    2    0    0 -.28738693E+03 0.83210969E+01 -.13777296E+03 0.33159784E+03 0.91188000E+02 0.0000E+00 0.9000E+01
#aMCatNLO 1  0  0  2  1 0.25336849D+02 0.00000000D+00  -5  5  0 0.00000000D+00 0.00000000D+00 0.00000000D+00 0.00000000D+00 0.00000000D+00
  <mgrwgt>
 0.1185706757D+00    9    2    0
 0.381106700262334D+03 0.000000000000000D+00 0.000000000000000D+00 0.381106700262334D+03
 0.381106700262334D+03 0.000000000000000D+00 0.000000000000000D+00 -.381106700262334D+03
 0.385901780387511D+03 0.287386925378634D+03 -.832109691196997D+01 -.225021551354193D+03
 0.376311620137156D+03 -.287386925378634D+03 0.832109691196997D+01 0.225021551354193D+03
 0.000000000000000D+00 -.000000000000000D+00 0.000000000000000D+00 -.000000000000000D+00
 0.390820660968091D+03 0.000000000000000D+00 0.000000000000000D+00 0.390820660968091D+03
 0.398204620471822D+03 0.000000000000000D+00 0.000000000000000D+00 -.398204620471822D+03
 0.388944458565597D+03 0.290841217443044D+03 -.207238874559218D+02 -.225021551354193D+03
 0.373689938672285D+03 -.284043391781064D+03 -.368401039050459D+01 0.225021551354193D+03
 0.263908842020308D+02 -.679782566197952D+01 0.244078978464264D+02 -.738395950373141D+01
0.778879714198D-02 0.000000000000D+00 0.000000000000D+00 0.824671777608D-03 0.000000000000D+00  5 1 -1 25 23 21 0 0.18898511D-01 0.18190258D+00 0.94595308D+05 0.94595308D+05 0.94595308D+05 0.11657949D+01  1  2  2  2  5  2       -1 0.474584802588D-01 0.100000000000D+01
-.408527400513D-03 0.000000000000D+00 -.299110318626D-04 0.824671777608D-03 0.000000000000D+00  5 1 -1 25 23 21 2 0.18898511D-01 0.18190258D+00 0.94595308D+05 0.94595308D+05 0.94595308D+05 0.11657949D+01  1  2  3  2  5  2       -1 -.338305372385D-02 0.100000000000D+01
0.532096257351D-03 0.000000000000D+00 0.000000000000D+00 0.824671777608D-03 0.000000000000D+00  5 1 -1 25 23 21 2 0.18898511D-01 0.18190258D+00 0.94595308D+05 0.94595308D+05 0.94595308D+05 0.11657949D+01  1  2 15  2  5  2       -1 0.440633901817D-02 0.100000000000D+01
0.179826893825D-01 0.000000000000D+00 0.000000000000D+00 0.824671777608D-03 0.000000000000D+00  5 1 -1 25 23 21 2 0.18898511D-01 0.19229943D+00 0.10269601D+06 0.10269601D+06 0.10269601D+06 0.11625118D+01  1  2 12  2  5  2       -1 0.125304395021D+00 0.100000000000D+01
-.163538728673D-01 0.000000000000D+00 0.000000000000D+00 0.824671777608D-03 0.000000000000D+00  5 1 -1 25 23 21 2 0.18898511D-01 0.18190258D+00 0.94595308D+05 0.94595308D+05 0.94595308D+05 0.11657949D+01  1  2  4  2  5  2       -1 -.135427955220D+00 0.100000000000D+01
-.800906262127D-01 0.000000000000D+00 -.135909121189D-01 0.824671777608D-03 0.000000000000D+00  5 1 -1 25 23 21 2 0.18898511D-01 0.19304630D+00 0.94595308D+05 0.94595308D+05 0.94595308D+05 0.11657949D+01  1  2  5  2  5  2       -1 -.555914064708D+00 0.100000000000D+01
0.807798795802D-01 0.000000000000D+00 0.135669231766D-01 0.824671777608D-03 0.000000000000D+00  5 1 -1 25 23 21 2 0.18898511D-01 0.18190258D+00 0.94595308D+05 0.94595308D+05 0.94595308D+05 0.11657949D+01  1  2  6  2  5  2       -1 0.668945760021D+00 0.100000000000D+01
0.215693161892D-03 0.000000000000D+00 0.000000000000D+00 0.824671777608D-03 0.000000000000D+00  5 1 21 25 23 1 2 0.18898511D-01 0.19229943D+00 0.10269601D+06 0.10269601D+06 0.10269601D+06 0.11625118D+01  1  2 12  4  5  2       -1 0.120815361218D-01 0.100000000000D+01
-.801735203366D-03 0.000000000000D+00 -.138885034822D-03 0.824671777608D-03 0.000000000000D+00  5 1 21 25 23 1 2 0.18898511D-01 0.19304630D+00 0.94595308D+05 0.94595308D+05 0.94595308D+05 0.11657949D+01  1  2  5  4  5  2       -1 -.449007610441D-01 0.100000000000D+01
  </mgrwgt>
  </event>
  <event>
  4     66 0.49155423E-03 0.10868104E+03 0.75467711E-02 0.11834299E+00
        3 -1    0    0  501    0 0.00000000E+00 0.00000000E+00 0.37254586E+02 0.37257941E+02 0.50000000E+00 0.0000E+00 0.9000E+01
       -3 -1    0    0    0  501 0.00000000E+00 0.00000000E+00 -.38716383E+03 0.38716415E+03 0.50000000E+00 0.0000E+00 0.9000E+01
       25  1    1    2    0    0 0.42805464E+01 -.10288492E+02 -.10769105E+03 0.16536789E+03 0.12500000E+03 0.0000E+00 0.9000E+01
       23  1    1    2    0    0 -.42805464E+01 0.10288492E+02 -.24221819E+03 0.25905420E+03 0.91188000E+02 0.0000E+00 0.9000E+01
#aMCatNLO 1  0  0  2  1 0.93243275D+02 0.00000000D+00  -5  5  0 0.00000000D+00 0.00000000D+00 0.00000000D+00 0.00000000D+00 0.00000000D+00
  <mgrwgt>
 0.4104650567D-01    3    2    0
 0.120101658736587D+03 0.000000000000000D+00 0.000000000000000D+00 0.120101658736587D+03
 0.120101658736587D+03 0.000000000000000D+00 0.000000000000000D+00 -.120101658736587D+03
 0.135317411651441D+03 0.428054642155151D+01 -.102884918547100D+02 0.506125059025330D+02
 0.104885905821733D+03 -.428054642155151D+01 0.102884918547100D+02 -.506125059025330D+02
 0.000000000000000D+00 -.000000000000000D+00 0.000000000000000D+00 0.000000000000000D+00
 0.189154246897511D+03 0.000000000000000D+00 0.000000000000000D+00 0.189154246897511D+03
 0.164866628689329D+03 0.000000000000000D+00 0.000000000000000D+00 -.164866628689329D+03
 0.149480302690203D+03 0.239945827440511D+02 -.598497714077468D+02 0.506125059025330D+02
 0.108186036018986D+03 0.104685466688324D+02 -.267908719979379D+02 -.506125059025330D+02
 0.963545368776509D+02 -.344631294128834D+02 0.866406434056847D+02 0.242876182081822D+02
0.353599807809D-03 0.000000000000D+00 0.000000000000D+00 0.185842070098D-02 0.000000000000D+00  5 3 -3 25 23 21 0 0.57317576D-02 0.59563949D-01 0.11811568D+05 0.11811568D+05 0.11811568D+05 0.12598305D+01  1  2  2  2  5  2       -3 0.401707763008D-01 0.100000000000D+01
-.194059623960D-04 0.000000000000D+00 -.135791636695D-05 0.185842070098D-02 0.000000000000D+00  5 3 -3 25 23 21 2 0.57317576D-02 0.59563949D-01 0.11811568D+05 0.11811568D+05 0.11811568D+05 0.12598305D+01  1  2  3  2  5  2       -3 -.349911020599D-02 0.100000000000D+01
0.242627317650D-04 0.000000000000D+00 0.000000000000D+00 0.185842070098D-02 0.000000000000D+00  5 3 -3 25 23 21 2 0.57317576D-02 0.59563949D-01 0.11811568D+05 0.11811568D+05 0.11811568D+05 0.12598305D+01  1  2 15  2  5  2       -3 0.437483957825D-02 0.100000000000D+01
  </mgrwgt>
  </event>
  <event>
  4     66 0.49155423E-03 0.14673368E+03 0.75467711E-02 0.11846748E+00
        1 -1    0    0  501    0 0.00000000E+00 0.00000000E+00 0.37040802E+03 0.37040816E+03 0.32000000E+00 0.0000E+00 0.9000E+01
       -1 -1    0    0    0  501 0.00000000E+00 0.00000000E+00 -.64850340E+02 0.64851130E+02 0.32000000E+00 0.0000E+00 0.9000E+01
       25  1    1    2    0    0 0.30999677E+01 0.98519754E+02 0.23425023E+03 0.28322062E+03 0.12500000E+03 0.0000E+00 0.9000E+01
       23  1    1    2    0    0 -.30999677E+01 -.98519754E+02 0.71307452E+02 0.15203867E+03 0.91188000E+02 0.0000E+00 0.9000E+01
#aMCatNLO 1  0  0  1  2 0.31926831D+02 0.00000000D+00  -5  5  0 0.00000000D+00 0.00000000D+00 0.00000000D+00 0.00000000D+00 0.00000000D+00
  <mgrwgt>
 0.1784354354D+00    4    2    0
 0.154988025343920D+03 0.000000000000000D+00 0.000000000000000D+00 0.154988025343920D+03
 0.154988025343920D+03 0.000000000000000D+00 0.000000000000000D+00 -.154988025343920D+03
 0.166778853441413D+03 0.309996765365603D+01 0.985197541038830D+02 0.497436850975987D+02
 0.143197197246428D+03 -.309996765365603D+01 -.985197541038830D+02 -.497436850975987D+02
 0.000000000000000D+00 -.000000000000000D+00 0.000000000000000D+00 -.000000000000000D+00
 0.157959096259637D+03 0.000000000000000D+00 0.000000000000000D+00 0.157959096259637D+03
 0.274270912336792D+03 0.000000000000000D+00 0.000000000000000D+00 -.274270912336792D+03
 0.158257168497944D+03 0.890136712356341D+01 0.828653295246511D+02 0.497436850975987D+02
 0.153358740178647D+03 0.219310555069393D+01 -.112802517374996D+03 -.497436850975987D+02
 0.120614099919838D+03 -.110944726742573D+02 0.299371878503453D+02 -.116311816077155D+03
0.462478981652D-03 0.000000000000D+00 0.000000000000D+00 0.154057903253D-02 0.000000000000D+00  5 1 -1 25 23 21 0 0.56985921D-01 0.99770468D-02 0.21530773D+05 0.21530773D+05 0.21530773D+05 0.12303154D+01  1  2  2  1  5  1        1 0.183447822664D+00 0.100000000000D+01
-.255997081861D-04 0.000000000000D+00 -.177604106306D-05 0.154057903253D-02 0.000000000000D+00  5 1 -1 25 23 21 2 0.56985921D-01 0.99770468D-02 0.21530773D+05 0.21530773D+05 0.21530773D+05 0.12303154D+01  1  2  3  1  5  1        1 -.153705170467D-01 0.100000000000D+01
0.318334685350D-04 0.000000000000D+00 0.000000000000D+00 0.154057903253D-02 0.000000000000D+00  5 1 -1 25 23 21 2 0.56985921D-01 0.99770468D-02 0.21530773D+05 0.21530773D+05 0.21530773D+05 0.12303154D+01  1  2 15  1  5  1        1 0.191133768876D-01 0.100000000000D+01
-.145819279552D-04 0.000000000000D+00 0.000000000000D+00 0.154057903253D-02 0.000000000000D+00  5 1 -1 25 23 21 2 0.56985921D-01 0.99770468D-02 0.21530773D+05 0.21530773D+05 0.21530773D+05 0.12303154D+01  1  2  4  1  5  1        1 -.875524715283D-02 0.100000000000D+01
  </mgrwgt>
  </event>
  <event>
  4     66 0.49155423E-03 0.12192372E+03 0.75467711E-02 0.11483225E+00
        1 -1    0    0  501    0 0.00000000E+00 0.00000000E+00 0.35144004E+03 0.35144018E+03 0.32000000E+00 0.0000E+00 0.9000E+01
       -1 -1    0    0    0  501 0.00000000E+00 0.00000000E+00 -.44572177E+02 0.44573326E+02 0.32000000E+00 0.0000E+00 0.9000E+01
       25  1    1    2    0    0 0.18270175E+02 -.52783695E+02 0.12692760E+03 0.18669637E+03 0.12500000E+03 0.0000E+00 0.9000E+01
       23  1    1    2    0    0 -.18270175E+02 0.52783695E+02 0.17994025E+03 0.20931714E+03 0.91188000E+02 0.0000E+00 0.9000E+01
#aMCatNLO 1  0  0  1  2 0.12806945D+03 0.00000000D+00  -5  5  0 0.00000000D+00 0.00000000D+00 0.00000000D+00 0.00000000D+00 0.00000000D+00
  <mgrwgt>
 0.1149466318D+00    5    2    0
 0.125158714993539D+03 0.000000000000000D+00 0.000000000000000D+00 0.125158714993539D+03
 0.125158714993539D+03 0.000000000000000D+00 0.000000000000000D+00 -.125158714993539D+03
 0.139759673177668D+03 0.182701754225976D+02 -.527836952606994D+02 -.280686382174420D+02
 0.110557756809409D+03 -.182701754225976D+02 0.527836952606994D+02 0.280686382174420D+02
 0.000000000000000D+00 -.000000000000000D+00 0.000000000000000D+00 0.000000000000000D+00
 0.303885611845258D+03 0.000000000000000D+00 0.000000000000000D+00 0.303885611845258D+03
 0.165698938416598D+03 0.000000000000000D+00 0.000000000000000D+00 -.165698938416598D+03
 0.166456309122470D+03 0.920555547528186D+02 -.531095964439996D+02 -.280686382174420D+02
 0.114720859865980D+03 0.360126482939276D+02 0.525439345297432D+02 0.280686382174420D+02
 0.188407381273407D+03 -.128068203046746D+03 0.565661914256430D+00 0.138186673428660D+03
0.173043775921D-03 0.000000000000D+00 0.000000000000D+00 0.196452620543D-02 0.000000000000D+00  5 1 -1 25 23 21 0 0.54067797D-01 0.68573576D-02 0.14865392D+05 0.14865392D+05 0.14865392D+05 0.12482691D+01  1  2  2  1  5  1        1 0.127771032494D+00 0.100000000000D+01
-.960552744584D-05 0.000000000000D+00 -.664533663010D-06 0.196452620543D-02 0.000000000000D+00  5 1 -1 25 23 21 2 0.54067797D-01 0.68573576D-02 0.14865392D+05 0.14865392D+05 0.14865392D+05 0.12482691D+01  1  2  3  1  5  1        1 -.110513177266D-01 0.100000000000D+01
0.119815896980D-04 0.000000000000D+00 0.000000000000D+00 0.196452620543D-02 0.000000000000D+00  5 1 -1 25 23 21 2 0.54067797D-01 0.68573576D-02 0.14865392D+05 0.14865392D+05 0.14865392D+05 0.12482691D+01  1  2 15  1  5  1        1 0.137850165301D-01 0.100000000000D+01
-.549646106467D-04 0.000000000000D+00 -.609340979997D-04 0.196452620543D-02 0.000000000000D+00  5 1 -1 25 23 21 2 0.15821585D+00 0.68573576D-02 0.14865392D+05 0.14865392D+05 0.14865392D+05 0.12482691D+01  1  2  5  1  5  1        1 -.141455811394D-01 0.100000000000D+01
-.349834103653D-05 0.000000000000D+00 -.740905410107D-05 0.196452620543D-02 0.000000000000D+00  5 21 -1 25 23 -1 2 0.15821585D+00 0.68573576D-02 0.14865392D+05 0.14865392D+05 0.14865392D+05 0.12482691D+01  1  2  5  3  5  1        1 -.141251837234D-02 0.100000000000D+01
  </mgrwgt>
  </event>
  <event>
  4     66 0.49155423E-03 0.33151384E+03 0.75467711E-02 0.10387990E+00
        1 -1    0    0  501    0 0.00000000E+00 0.00000000E+00 0.14509607E+04 0.14509607E+04 0.32000000E+00 0.0000E+00 0.9000E+01
       -1 -1    0    0    0  501 0.00000000E+00 0.00000000E+00 -.95239961E+02 0.95240498E+02 0.32000000E+00 0.0000E+00 0.9000E+01
       25  1    1    2    0    0 0.21878364E+03 -.22382003E+03 0.33707687E+03 0.47666289E+03 0.12500000E+03 0.0000E+00 0.9000E+01
       23  1    1    2    0    0 -.21878364E+03 0.22382003E+03 0.10186438E+04 0.10695383E+04 0.91188000E+02 0.0000E+00 0.9000E+01
#aMCatNLO 1  0  0  1  2 0.15220228D+03 0.00000000D+00  -5  5  0 0.00000000D+00 0.00000000D+00 0.00000000D+00 0.00000000D+00 0.00000000D+00
  <mgrwgt>
 0.9052839664D-01    4    2    0
 0.371738994074176D+03 0.000000000000000D+00 0.000000000000000D+00 0.371738994074176D+03
 0.371738994074176D+03 0.000000000000000D+00 0.000000000000000D+00 -.371738994074176D+03
 0.376654908716252D+03 0.218783642523879D+03 -.223820034554080D+03 -.168173214740762D+03
 0.366823079432099D+03 -.218783642523879D+03 0.223820034554080D+03 0.168173214740762D+03
 0.000000000000000D+00 -.000000000000000D+00 0.000000000000000D+00 -.000000000000000D+00
 0.432590624211791D+03 0.000000000000000D+00 0.000000000000000D+00 0.432590624211791D+03
 0.488428046802350D+03 0.000000000000000D+00 0.000000000000000D+00 -.488428046802350D+03
 0.443137142341869D+03 0.295812851222580D+03 -.254868699173209D+03 -.168173214740762D+03
 0.315760118620799D+03 -.154646836672713D+03 0.197967994681721D+03 0.168173214740762D+03
 0.162121410051472D+03 -.141166014549867D+03 0.569007044914874D+02 -.558374225905591D+02
0.535252389370D-02 0.000000000000D+00 0.000000000000D+00 0.100181413704D-02 0.000000000000D+00  5 1 -1 25 23 21 0 0.22322476D+00 0.14652346D-01 0.10990143D+06 0.10990143D+06 0.10990143D+06 0.11598237D+01  1  2  2  1  5  1        1 0.137192009148D+00 0.100000000000D+01
-.292620580560D-03 0.000000000000D+00 -.205551011037D-04 0.100181413704D-02 0.000000000000D+00  5 1 -1 25 23 21 2 0.22322476D+00 0.14652346D-01 0.10990143D+06 0.10990143D+06 0.10990143D+06 0.11598237D+01  1  2  3  1  5  1        1 -.100892531532D-01 0.100000000000D+01
0.366805542153D-03 0.000000000000D+00 0.000000000000D+00 0.100181413704D-02 0.000000000000D+00  5 1 -1 25 23 21 2 0.22322476D+00 0.14652346D-01 0.10990143D+06 0.10990143D+06 0.10990143D+06 0.11598237D+01  1  2 15  1  5  1        1 0.126470734413D-01 0.100000000000D+01
-.142757883282D-02 0.000000000000D+00 0.000000000000D+00 0.100181413704D-02 0.000000000000D+00  5 1 -1 25 23 21 2 0.22322476D+00 0.14652346D-01 0.10990143D+06 0.10990143D+06 0.10990143D+06 0.11598237D+01  1  2  4  1  5  1        1 -.492214327951D-01 0.100000000000D+01
  </mgrwgt>
  </event>
  <event>
  4     66 0.49155423E-03 0.13622825E+03 0.75467711E-02 0.11267109E+00
        1 -1    0    0  501    0 0.00000000E+00 0.00000000E+00 0.36632578E+03 0.36632592E+03 0.32000000E+00 0.0000E+00 0.9000E+01
       -1 -1    0    0    0  501 0.00000000E+00 0.00000000E+00 -.50660106E+02 0.50661117E+02 0.32000000E+00 0.0000E+00 0.9000E+01
       25  1    1    2    0    0 -.56065013E+02 -.60205267E+02 0.17406732E+03 0.22954823E+03 0.12500000E+03 0.0000E+00 0.9000E+01
       23  1    1    2    0    0 0.56065013E+02 0.60205267E+02 0.14159836E+03 0.18743881E+03 0.91188000E+02 0.0000E+00 0.9000E+01
#aMCatNLO 1  0  0  2  1 0.14917584D+03 0.00000000D+00  -5  5  0 0.00000000D+00 0.00000000D+00 0.00000000D+00 0.00000000D+00 0.00000000D+00
  <mgrwgt>
 0.1225282274D+00    5    2    0
 0.136229008970411D+03 0.000000000000000D+00 0.000000000000000D+00 0.136229008970411D+03
 0.136229008970411D+03 0.000000000000000D+00 0.000000000000000D+00 -.136229008970411D+03
 0.149643458490461D+03 -.560650130949403D+02 -.602052665375602D+02 0.452611082230793D+00
 0.122814559450361D+03 0.560650130949403D+02 0.602052665375602D+02 -.452611082230793D+00
 0.000000000000000D+00 0.000000000000000D+00 -.000000000000000D+00 -.000000000000000D+00
 0.189612383459094D+03 0.000000000000000D+00 0.000000000000000D+00 0.189612383459094D+03
 0.317505050271330D+03 0.000000000000000D+00 0.000000000000000D+00 -.317505050271330D+03
 0.145251911939161D+03 -.727608812824138D+02 0.133703859404481D+02 0.452611082230793D+00
 0.165371336202511D+03 0.397490101671913D+02 0.132106921950898D+03 -.452611082230793D+00
 0.196494185588753D+03 0.330118711152225D+02 -.145477307891346D+03 -.127892666812236D+03
0.213496692450D-03 0.000000000000D+00 0.000000000000D+00 0.187402229199D-02 0.000000000000D+00  5 1 -1 25 23 21 0 0.56357901D-01 0.77939510D-02 0.18558136D+05 0.18558136D+05 0.18558136D+05 0.12374197D+01  1  2  2  2  5  2       -1 0.124418868085D+00 0.100000000000D+01
-.118609273579D-04 0.000000000000D+00 -.819883513976D-06 0.187402229199D-02 0.000000000000D+00  5 1 -1 25 23 21 2 0.56357901D-01 0.77939510D-02 0.18558136D+05 0.18558136D+05 0.18558136D+05 0.12374197D+01  1  2  3  2  5  2       -1 -.105839494963D-01 0.100000000000D+01
0.147472708808D-04 0.000000000000D+00 0.000000000000D+00 0.187402229199D-02 0.000000000000D+00  5 1 -1 25 23 21 2 0.56357901D-01 0.77939510D-02 0.18558136D+05 0.18558136D+05 0.18558136D+05 0.12374197D+01  1  2 15  2  5  2       -1 0.131595418723D-01 0.100000000000D+01
-.250825924527D-04 0.000000000000D+00 -.664794893381D-04 0.187402229199D-02 0.000000000000D+00  5 1 -1 25 23 21 2 0.56357901D-01 0.24910377D-01 0.18558136D+05 0.18558136D+05 0.18558136D+05 0.12374197D+01  1  2  5  2  5  2       -1 -.363678937860D-02 0.100000000000D+01
-.471682783538D-06 0.000000000000D+00 -.889380597263D-05 0.187402229199D-02 0.000000000000D+00  5 1 21 25 23 1 2 0.56357901D-01 0.24910377D-01 0.18558136D+05 0.18558136D+05 0.18558136D+05 0.12374197D+01  1  2  5  4  5  2       -1 -.829443721901D-03 0.100000000000D+01
  </mgrwgt>
  </event>
  <event>
  5     66 0.49155423E-03 0.11685853E+03 0.75467711E-02 0.11870304E+00
        1 -1    0    0  501    0 0.00000000E+00 0.00000000E+00 0.14187861E+04 0.14187861E+04 0.32000000E+00 0.0000E+00 0.9000E+01
       21 -1    0    0  502  501 0.00000000E+00 0.00000000E+00 -.26183881E+02 0.26194620E+02 0.75000000E+00 0.0000E+00 0.9000E+01
       25  1    1    2    0    0 0.53907352E+02 0.62627181E+01 0.61488085E+03 0.62980051E+03 0.12500000E+03 0.0000E+00 0.9000E+01
       23  1    1    2    0    0 -.37432797E-01 -.61148099E+02 0.68931720E+03 0.69800612E+03 0.91188000E+02 0.0000E+00 0.9000E+01
        1  1    1    2  502    0 -.53869919E+02 0.54885381E+02 0.88404124E+02 0.11717408E+03 0.32000000E+00 0.0000E+00 0.9000E+01
#aMCatNLO 2  0  0  2  1 0.76904962D+02 0.00000000D+00  -5  5  0 0.00000000D+00 0.00000000D+00 0.00000000D+00 0.00000000D+00 0.00000000D+00
  <mgrwgt>
 0.8348914821D-01    2    2    0
 0.118557502666017D+03 0.000000000000000D+00 0.000000000000000D+00 0.118557502666017D+03
 0.118557502666017D+03 0.000000000000000D+00 0.000000000000000D+00 -.118557502666017D+03
 0.133971433652300D+03 0.238177006953889D+02 0.369195668476882D+02 -.198244231244310D+02
 0.103143571679734D+03 -.238177006953889D+02 -.369195668476882D+02 0.198244231244310D+02
 0.000000000000000D+00 -.000000000000000D+00 0.000000000000000D+00 -.000000000000000D+00
 0.134372285479366D+03 0.000000000000000D+00 0.000000000000000D+00 0.134372285479366D+03
 0.276523001015549D+03 0.000000000000000D+00 0.000000000000000D+00 -.276523001015549D+03
 0.137707051388910D+03 0.539073521148320D+02 0.626271809831678D+01 -.198244231244310D+02
 0.111567694541322D+03 -.374327973297746D-01 -.611480986444792D+02 0.198244231244310D+02
 0.161620540564682D+03 -.538699193175022D+02 0.548853805461625D+02 -.142150715536183D+03
-.395725616473D-05 0.000000000000D+00 0.000000000000D+00 0.213151353739D-02 0.000000000000D+00  5 1 21 25 23 1 2 0.19258571D+00 0.39914069D-02 0.26077380D+05 0.26077380D+05 0.26077380D+05 0.12213380D+01  1  2 13  4  5  2       -1 -.277627723563D-01 0.100000000000D+01
0.208306825978D-04 0.000000000000D+00 0.000000000000D+00 0.213151353739D-02 0.460676563568D-06  5 1 21 25 23 1 2 0.21827536D+00 0.40291138D-02 0.26077380D+05 0.26077380D+05 0.26077380D+05 0.12213380D+01  1  2  1  4  5  2       -1 0.111251920562D+00 0.100000000000D+01
  </mgrwgt>
  </event>
  <event>
  4     66 0.49155423E-03 0.72608949E+02 0.75467711E-02 0.11565806E+00
        1 -1    0    0  501    0 0.00000000E+00 0.00000000E+00 0.26037372E+02 0.26039338E+02 0.32000000E+00 0.0000E+00 0.9000E+01
       -1 -1    0    0    0  501 0.00000000E+00 0.00000000E+00 -.64760149E+03 0.64760157E+03 0.32000000E+00 0.0000E+00 0.9000E+01
       25  1    1    2    0    0 0.84769634E+01 0.65115488E+02 -.41683656E+03 0.44010181E+03 0.12500000E+03 0.0000E+00 0.9000E+01
       23  1    1    2    0    0 -.84769634E+01 -.65115488E+02 -.20472756E+03 0.23353910E+03 0.91188000E+02 0.0000E+00 0.9000E+01
#aMCatNLO 1  0  0  1  2 0.10843418D+03 0.00000000D+00  -5  5  0 0.00000000D+00 0.00000000D+00 0.00000000D+00 0.00000000D+00 0.00000000D+00
  <mgrwgt>
 0.8805645218D-01    7    2    0
 0.129855804413548D+03 0.000000000000000D+00 0.000000000000000D+00 0.129855804413548D+03
 0.129855804413548D+03 0.000000000000000D+00 0.000000000000000D+00 -.129855804413548D+03
 0.143928622892884D+03 0.847696335133941D+01 0.651154880690649D+02 -.279027381041649D+02
 0.115782985934213D+03 -.847696335133941D+01 -.651154880690649D+02 0.279027381041649D+02
 0.000000000000000D+00 -.000000000000000D+00 0.000000000000000D+00 0.000000000000000D+00
 0.275536328544764D+03 0.000000000000000D+00 0.000000000000000D+00 0.275536328544764D+03
 0.162523290367259D+03 0.000000000000000D+00 0.000000000000000D+00 -.162523290367259D+03
 0.157512961952463D+03 0.687174244355772D+02 0.607016142146900D+02 -.279027381041649D+02
 0.123926358219520D+03 0.394268500041722D+02 -.686254444254593D+02 0.279027381041649D+02
 0.156620298740040D+03 -.108144274439749D+03 0.792383021076930D+01 0.113013038177505D+03
0.536839968968D-03 0.000000000000D+00 0.000000000000D+00 0.189373121138D-02 0.000000000000D+00  5 1 -1 25 23 21 0 0.40059069D-02 0.99631156D-01 0.16074255D+05 0.16074255D+05 0.16074255D+05 0.12444125D+01  1  2  2  1  5  1        1 0.119528160580D+00 0.100000000000D+01
-.298036642970D-04 0.000000000000D+00 -.206160683405D-05 0.189373121138D-02 0.000000000000D+00  5 1 -1 25 23 21 2 0.40059069D-02 0.99631156D-01 0.16074255D+05 0.16074255D+05 0.16074255D+05 0.12444125D+01  1  2  3  1  5  1        1 -.102759920827D-01 0.100000000000D+01
0.371346062258D-04 0.000000000000D+00 0.000000000000D+00 0.189373121138D-02 0.000000000000D+00  5 1 -1 25 23 21 2 0.40059069D-02 0.99631156D-01 0.16074255D+05 0.16074255D+05 0.16074255D+05 0.12444125D+01  1  2 15  1  5  1        1 0.128036242714D-01 0.100000000000D+01
0.138752195193D-04 0.000000000000D+00 0.000000000000D+00 0.189373121138D-02 0.000000000000D+00  5 1 -1 25 23 21 2 0.85021168D-02 0.99631156D-01 0.36902466D+05 0.36902466D+05 0.36902466D+05 0.12055713D+01  1  2 12  1  5  1        1 0.163166549666D-02 0.100000000000D+01
-.237059099880D-03 0.000000000000D+00 -.194937694180D-03 0.189373121138D-02 0.000000000000D+00  5 1 -1 25 23 21 2 0.10616118D-01 0.99631156D-01 0.16074255D+05 0.16074255D+05 0.16074255D+05 0.12444125D+01  1  2  5  1  5  1        1 -.219479166438D-01 0.100000000000D+01
0.112961989934D-05 0.000000000000D+00 0.000000000000D+00 0.189373121138D-02 0.000000000000D+00  5 21 -1 25 23 -1 2 0.85021168D-02 0.99631156D-01 0.36902466D+05 0.36902466D+05 0.36902466D+05 0.12055713D+01  1  2 12  3  5  1        1 0.169011951920D-02 0.100000000000D+01
-.141295632673D-04 0.000000000000D+00 -.211209315728D-04 0.189373121138D-02 0.000000000000D+00  5 21 -1 25 23 -1 2 0.10616118D-01 0.99631156D-01 0.16074255D+05 0.16074255D+05 0.16074255D+05 0.12444125D+01  1  2  5  3  5  1        1 -.153732089603D-01 0.100000000000D+01
  </mgrwgt>
  </event>
  <event>
  4     66 0.49155423E-03 0.40093716E+02 0.75467711E-02 0.12014129E+00
        1 -1    0    0  501    0 0.00000000E+00 0.00000000E+00 0.42948987E+02 0.42950179E+02 0.32000000E+00 0.0000E+00 0.9000E+01
       -1 -1    0    0    0  501 0.00000000E+00 0.00000000E+00 -.59740987E+03 0.59740996E+03 0.32000000E+00 0.0000E+00 0.9000E+01
       25  1    1    2    0    0 -.84962578E+02 0.40666685E+02 -.43755160E+03 0.46470294E+03 0.12500000E+03 0.0000E+00 0.9000E+01
       23  1    1    2    0    0 0.84962578E+02 -.40666685E+02 -.11690929E+03 0.17565720E+03 0.91188000E+02 0.0000E+00 0.9000E+01
#aMCatNLO 1  0  0  2  1 0.10607378D+02 0.00000000D+00  -5  5  0 0.00000000D+00 0.00000000D+00 0.00000000D+00 0.00000000D+00 0.00000000D+00
  <mgrwgt>
 0.1738414102D+00    9    2    0
 0.160182888399765D+03 0.000000000000000D+00 0.000000000000000D+00 0.160182888399765D+03
 0.160182888399765D+03 0.000000000000000D+00 0.000000000000000D+00 -.160182888399765D+03
 0.171591330226830D+03 -.849625775805348D+02 0.406666851713828D+02 -.703289821983540D+02
 0.148774446572700D+03 0.849625775805348D+02 -.406666851713828D+02 0.703289821983540D+02
 0.000000000000000D+00 -.000000000000000D+00 0.000000000000000D+00 -.000000000000000D+00
 0.165241383867904D+03 0.000000000000000D+00 0.000000000000000D+00 0.165241383867904D+03
 0.165929633501345D+03 0.000000000000000D+00 0.000000000000000D+00 -.165929633501345D+03
 0.170177359397488D+03 -.846332109386168D+02 0.350198161140962D+02 -.703289821983540D+02
 0.150363975542871D+03 0.852508609152931D+02 -.456091961472909D+02 0.703289821983540D+02
 0.106296824288895D+02 -.617649976676315D+00 0.105893800331948D+02 -.688249633440613D+00
0.529102618038D-03 0.000000000000D+00 0.000000000000D+00 0.137938147130D-02 0.000000000000D+00  5 1 -1 25 23 21 0 0.66076347D-02 0.91909309D-01 0.20681067D+05 0.20681067D+05 0.20681067D+05 0.12322282D+01  1  2  2  2  5  2       -1 0.712347674626D-01 0.100000000000D+01
-.289790410359D-04 0.000000000000D+00 -.203189336918D-05 0.137938147130D-02 0.000000000000D+00  5 1 -1 25 23 21 2 0.66076347D-02 0.91909309D-01 0.20681067D+05 0.20681067D+05 0.20681067D+05 0.12322282D+01  1  2  3  2  5  2       -1 -.592404566613D-02 0.100000000000D+01
0.364311471904D-04 0.000000000000D+00 0.000000000000D+00 0.137938147130D-02 0.000000000000D+00  5 1 -1 25 23 21 2 0.66076347D-02 0.91909309D-01 0.20681067D+05 0.20681067D+05 0.20681067D+05 0.12322282D+01  1  2 15  2  5  2       -1 0.744744380459D-02 0.100000000000D+01
0.104642795111D-02 0.000000000000D+00 0.000000000000D+00 0.137938147130D-02 0.000000000000D+00  5 1 -1 25 23 21 2 0.66076347D-02 0.96609474D-01 0.22271869D+05 0.22271869D+05 0.22271869D+05 0.12287148D+01  1  2 12  2  5  2       -1 0.191232075235D+00 0.100000000000D+01
-.840358889064D-03 0.000000000000D+00 0.000000000000D+00 0.137938147130D-02 0.000000000000D+00  5 1 -1 25 23 21 2 0.66076347D-02 0.91909309D-01 0.20681067D+05 0.20681067D+05 0.20681067D+05 0.12322282D+01  1  2  4  2  5  2       -1 -.171790516760D+00 0.100000000000D+01
-.579175092022D-02 0.000000000000D+00 -.100531468406D-02 0.137938147130D-02 0.000000000000D+00  5 1 -1 25 23 21 2 0.66076347D-02 0.97656296D-01 0.20681067D+05 0.20681067D+05 0.20681067D+05 0.12322282D+01  1  2  5  2  5  2       -1 -.103858690134D+01 0.100000000000D+01
0.584381938427D-02 0.000000000000D+00 0.100346841781D-02 0.137938147130D-02 0.000000000000D+00  5 1 -1 25 23 21 2 0.66076347D-02 0.91909309D-01 0.20681067D+05 0.20681067D+05 0.20681067D+05 0.12322282D+01  1  2  6  2  5  2       -1 0.119462382672D+01 0.100000000000D+01
0.119247585973D-04 0.000000000000D+00 0.000000000000D+00 0.137938147130D-02 0.000000000000D+00  5 1 21 25 23 1 2 0.66076347D-02 0.96609474D-01 0.22271869D+05 0.22271869D+05 0.22271869D+05 0.12287148D+01  1  2 12  4  5  2       -1 0.192958679374D-01 0.100000000000D+01
-.589867717464D-04 0.000000000000D+00 -.104616188076D-04 0.137938147130D-02 0.000000000000D+00  5 1 21 25 23 1 2 0.66076347D-02 0.97656296D-01 0.20681067D+05 0.20681067D+05 0.20681067D+05 0.12322282D+01  1  2  5  4  5  2       -1 -.936911072138D-01 0.100000000000D+01
  </mgrwgt>
  </event>
  <event>
  5     66 0.49155423E-03 0.14704503E+03 0.75467711E-02 0.11990911E+00
        1 -1    0    0  501    0 0.00000000E+00 0.00000000E+00 0.61790853E+03 0.61790861E+03 0.32000000E+00 0.0000E+00 0.9000E+01
       -1 -1    0    0    0  502 0.00000000E+00 0.00000000E+00 -.37738457E+02 0.37739814E+02 0.32000000E+00 0.0000E+00 0.9000E+01
       25  1    1    2    0    0 0.38676199E+02 0.91208760E+02 0.34480159E+03 0.37990528E+03 0.12500000E+03 0.0000E+00 0.9000E+01
       23  1    1    2    0    0 -.45993018E+02 -.87829070E+02 0.21368595E+03 0.25259897E+03 0.91188000E+02 0.0000E+00 0.9000E+01
       21  1    1    2  501  502 0.73168184E+01 -.33796901E+01 0.21682533E+02 0.23144176E+02 0.75000000E+00 0.0000E+00 0.9000E+01
#aMCatNLO 2  0  0  2  1 0.80596611D+01 0.00000000D+00  -5  5  0 0.00000000D+00 0.00000000D+00 0.00000000D+00 0.00000000D+00 0.00000000D+00
  <mgrwgt>
 0.1164745615D+00    2    2    0
 0.148398397758817D+03 0.000000000000000D+00 0.000000000000000D+00 0.148398397758817D+03
 0.148398397758817D+03 0.000000000000000D+00 0.000000000000000D+00 -.148398397758817D+03
 0.160712797318373D+03 0.426377795657380D+02 0.893788783978164D+02 0.199258393034858D+02
 0.136083998199261D+03 -.426377795657380D+02 -.893788783978164D+02 -.199258393034858D+02
 0.000000000000000D+00 0.000000000000000D+00 -.000000000000000D+00 0.000000000000000D+00
 0.154023872931233D+03 0.000000000000000D+00 0.000000000000000D+00 0.154023872931233D+03
 0.151368236841710D+03 0.000000000000000D+00 0.000000000000000D+00 -.151368236841710D+03
 0.160738686774546D+03 0.386761992502860D+02 0.912087603556229D+02 0.199258393034858D+02
 0.136167520581130D+03 -.459930176374980D+02 -.878290702094752D+02 -.199258393034858D+02
 0.848590241726745D+01 0.731681838721195D+01 -.337969014614764D+01 0.265563608952265D+01
-.114586397745D-03 0.000000000000D+00 0.000000000000D+00 0.171560908736D-02 0.000000000000D+00  5 1 -1 25 23 21 2 0.91580993D-01 0.56914951D-02 0.21622241D+05 0.21622241D+05 0.21622241D+05 0.12301145D+01  1  2  8  2  5  2       -1 -.866283034853D-01 0.100000000000D+01
0.292032506646D-03 0.000000000000D+00 0.000000000000D+00 0.171560908736D-02 0.212439755344D-03  5 1 -1 25 23 21 2 0.95052638D-01 0.58053967D-02 0.22840314D+05 0.22840314D+05 0.22840314D+05 0.12275269D+01  1  2  1  2  5  2       -1 0.203102864958D+00 0.100000000000D+01
  </mgrwgt>
  </event>
  <event>
  5     66 0.49155423E-03 0.15967127E+03 0.75467711E-02 0.11787419E+00
        1 -1    0    0  501    0 0.00000000E+00 0.00000000E+00 0.38746983E+03 0.38746996E+03 0.32000000E+00 0.0000E+00 0.9000E+01
       -1 -1    0    0    0  502 0.00000000E+00 0.00000000E+00 -.76838423E+02 0.76839090E+02 0.32000000E+00 0.0000E+00 0.9000E+01
       25  1    1    2    0    0 0.72862650E+02 0.10353295E+03 0.16197136E+03 0.24059875E+03 0.12500000E+03 0.0000E+00 0.9000E+01
       23  1    1    2    0    0 -.58986886E+02 -.91415015E+02 0.10577690E+03 0.17703153E+03 0.91188000E+02 0.0000E+00 0.9000E+01
       21  1    1    2  501  502 -.13875764E+02 -.12117935E+02 0.42883152E+02 0.46678778E+02 0.75000000E+00 0.0000E+00 0.9000E+01
#aMCatNLO 2  0  0  2  1 0.18422301D+02 0.00000000D+00  -5  5  0 0.00000000D+00 0.00000000D+00 0.00000000D+00 0.00000000D+00 0.00000000D+00
  <mgrwgt>
 0.4865691214D-01    1    2    0
 0.159989481290801D+03 0.000000000000000D+00 0.000000000000000D+00 0.159989481290801D+03
 0.159989481290801D+03 0.000000000000000D+00 0.000000000000000D+00 -.159989481290801D+03
 0.171411714485484D+03 0.652885934742891D+02 0.969184005166145D+02 0.100597746646373D+02
 0.148567248096117D+03 -.652885934742891D+02 -.969184005166145D+02 -.100597746646373D+02
 0.000000000000000D+00 -.000000000000000D+00 -.000000000000000D+00 0.000000000000000D+00
 0.181189585702721D+03 0.000000000000000D+00 0.000000000000000D+00 0.181189585702721D+03
 0.164307185367432D+03 0.000000000000000D+00 0.000000000000000D+00 -.164307185367432D+03
 0.178197183914170D+03 0.728626495996052D+02 0.103532949257530D+03 0.100597746646373D+02
 0.142311657872732D+03 -.589868855670719D+02 -.914150145615013D+02 -.100597746646373D+02
 0.249879292832507D+02 -.138757640325333D+02 -.121179346960290D+02 0.168824003352890D+02
0.113103557378D-03 0.000000000000D+00 0.000000000000D+00 0.164276340013D-02 0.385130951713D-04  5 1 -1 25 23 21 2 0.59608797D-01 0.11820959D-01 0.28610194D+05 0.28610194D+05 0.28610194D+05 0.12170665D+01  1  2  1  2  5  2       -1 0.486569121356D-01 0.100000000000D+01
  </mgrwgt>
  </event>
  <event>
  4     66 0.49155423E-03 0.60606474E+02 0.75467711E-02 0.11580827E+00
        1 -1    0    0  501    0 0.00000000E+00 0.00000000E+00 0.53053952E+02 0.53054917E+02 0.32000000E+00 0.0000E+00 0.9000E+01
       -1 -1    0    0    0  501 0.00000000E+00 0.00000000E+00 -.28093991E+03 0.28094009E+03 0.32000000E+00 0.0000E+00 0.9000E+01
       25  1    1    2    0    0 0.16740898E+02 -.51899939E+02 -.10929647E+03 0.17477008E+03 0.12500000E+03 0.0000E+00 0.9000E+01
       23  1    1    2    0    0 -.16740898E+02 0.51899939E+02 -.11858948E+03 0.15922493E+03 0.91188000E+02 0.0000E+00 0.9000E+01
#aMCatNLO 1  0  0  2  1 0.11311894D+03 0.00000000D+00  -5  5  0 0.00000000D+00 0.00000000D+00 0.00000000D+00 0.00000000D+00 0.00000000D+00
  <mgrwgt>
 0.9388376972D-01    7    2    0
 0.122086707404177D+03 0.000000000000000D+00 0.000000000000000D+00 0.122086707404177D+03
 0.122086707404177D+03 0.000000000000000D+00 0.000000000000000D+00 -.122086707404177D+03
 0.137055062296001D+03 0.167408978450788D+02 -.518999394705803D+02 0.136098759454802D+02
 0.107118352512353D+03 -.167408978450788D+02 0.518999394705803D+02 -.136098759454802D+02
 0.000000000000000D+00 -.000000000000000D+00 -.000000000000000D+00 -.000000000000000D+00
 0.152522357177631D+03 0.000000000000000D+00 0.000000000000000D+00 0.152522357177631D+03
 0.312561765401992D+03 0.000000000000000D+00 0.000000000000000D+00 -.312561765401992D+03
 0.130582311316778D+03 0.349849345813522D+02 0.419114040795041D+01 0.136098759454802D+02
 0.138520925320990D+03 0.359470530383277D-02 0.103380688097971D+03 -.136098759454802D+02
 0.195980885941855D+03 -.349885292866560D+02 -.107571828505922D+03 -.160039408224361D+03
0.245956152881D-03 0.000000000000D+00 0.000000000000D+00 0.208169893410D-02 0.000000000000D+00  5 1 -1 25 23 21 0 0.81622347D-02 0.43221613D-01 0.14717072D+05 0.14717072D+05 0.14717072D+05 0.12487664D+01  1  2  2  2  5  2       -1 0.106104696325D+00 0.100000000000D+01
-.136635608551D-04 0.000000000000D+00 -.944536388805D-06 0.208169893410D-02 0.000000000000D+00  5 1 -1 25 23 21 2 0.81622347D-02 0.43221613D-01 0.14717072D+05 0.14717072D+05 0.14717072D+05 0.12487664D+01  1  2  3  2  5  2       -1 -.919185628923D-02 0.100000000000D+01
0.170198908586D-04 0.000000000000D+00 0.000000000000D+00 0.208169893410D-02 0.000000000000D+00  5 1 -1 25 23 21 2 0.81622347D-02 0.43221613D-01 0.14717072D+05 0.14717072D+05 0.14717072D+05 0.12487664D+01  1  2 15  2  5  2       -1 0.114497525564D-01 0.100000000000D+01
0.120074042487D-05 0.000000000000D+00 0.000000000000D+00 0.208169893410D-02 0.000000000000D+00  5 1 -1 25 23 21 2 0.81622347D-02 0.10797608D+00 0.36259926D+05 0.36259926D+05 0.36259926D+05 0.12063539D+01  1  2 12  2  5  2       -1 0.124675433997D-03 0.100000000000D+01
-.111582161523D-03 0.000000000000D+00 -.720998061792D-04 0.208169893410D-02 0.000000000000D+00  5 1 -1 25 23 21 2 0.81622347D-02 0.12840449D+00 0.14717072D+05 0.14717072D+05 0.14717072D+05 0.12487664D+01  1  2  5  2  5  2       -1 -.823138022869D-02 0.100000000000D+01
0.120999911895D-06 0.000000000000D+00 0.000000000000D+00 0.208169893410D-02 0.000000000000D+00  5 1 21 25 23 1 2 0.81622347D-02 0.10797608D+00 0.36259926D+05 0.36259926D+05 0.36259926D+05 0.12063539D+01  1  2 12  4  5  2       -1 0.107882615596D-03 0.100000000000D+01
-.101273176843D-04 0.000000000000D+00 -.891579105881D-05 0.208169893410D-02 0.000000000000D+00  5 1 21 25 23 1 2 0.81622347D-02 0.12840449D+00 0.14717072D+05 0.14717072D+05 0.14717072D+05 0.12487664D+01  1  2  5  4  5  2       -1 -.648000068862D-02 0.100000000000D+01
  </mgrwgt>
  </event>
  <event>
  5     66 0.49155423E-03 0.11052204E+03 0.75467711E-02 0.11293385E+00
        3 -1    0    0  501    0 0.00000000E+00 0.00000000E+00 0.11667310E+04 0.11667311E+04 0.50000000E+00 0.0000E+00 0.9000E+01
       21 -1    0    0  502  501 0.00000000E+00 0.00000000E+00 -.52688221E+02 0.52693559E+02 0.75000000E+00 0.0000E+00 0.9000E+01
       25  1    1    2    0    0 0.11346912E+03 -.57601730E+02 0.58213494E+03 0.60885079E+03 0.12500000E+03 0.0000E+00 0.9000E+01
       23  1    1    2    0    0 0.43000992E+02 -.14317206E+02 0.32921659E+03 0.34460540E+03 0.91188000E+02 0.0000E+00 0.9000E+01
        3  1    1    2  502    0 -.15647011E+03 0.71918936E+02 0.20269120E+03 0.26596842E+03 0.50000000E+00 0.0000E+00 0.9000E+01
#aMCatNLO 2  0  0  2  1 0.17220694D+03 0.00000000D+00  -5  5  0 0.00000000D+00 0.00000000D+00 0.00000000D+00 0.00000000D+00 0.00000000D+00
  <mgrwgt>
 0.3232076301D-02    1    2    0
 0.110523610440789D+03 0.000000000000000D+00 0.000000000000000D+00 0.110523610440789D+03
 0.110523610440789D+03 0.000000000000000D+00 0.000000000000000D+00 -.110523610440789D+03
 0.127057970445062D+03 0.181256211627358D+02 -.137786454098857D+02 0.581929335777260D+00
 0.939892504365165D+02 -.181256211627358D+02 0.137786454098857D+02 -.581929335777260D+00
 0.000000000000000D+00 -.000000000000000D+00 0.000000000000000D+00 -.000000000000000D+00
 0.175315072500791D+03 0.000000000000000D+00 0.000000000000000D+00 0.175315072500791D+03
 0.350660905619340D+03 0.000000000000000D+00 0.000000000000000D+00 -.350660905619340D+03
 0.178377518547616D+03 0.113469119745108D+03 -.576017304056367D+02 0.581929335777260D+00
 0.101831516169495D+03 0.430009920048218D+02 -.143172059504454D+02 -.581929335777260D+00
 0.245766943403021D+03 -.156470111749930D+03 0.719189363560821D+02 -.175345833118549D+03
0.181885832953D-04 0.000000000000D+00 0.000000000000D+00 0.238938728363D-02 0.270945668997D-06  5 3 21 25 23 3 2 0.17949726D+00 0.81062887D-02 0.51169462D+05 0.51169462D+05 0.51169462D+05 0.11912886D+01  1  2  1  4  5  2       -3 0.323207630111D-02 0.100000000000D+01
  </mgrwgt>
  </event>
  <event>
  4     66 0.49155423E-03 0.56713520E+02 0.75467711E-02 0.12425891E+00
        1 -1    0    0  501    0 0.00000000E+00 0.00000000E+00 0.20089582E+03 0.20089608E+03 0.32000000E+00 0.0000E+00 0.9000E+01
       -1 -1    0    0    0  501 0.00000000E+00 0.00000000E+00 -.69393863E+02 0.69394601E+02 0.32000000E+00 0.0000E+00 0.9000E+01
       25  1    1    2    0    0 0.26439657E+02 0.31057076E+02 0.47602507E+02 0.13983775E+03 0.12500000E+03 0.0000E+00 0.9000E+01
       23  1    1    2    0    0 -.26439657E+02 -.31057076E+02 0.83899454E+02 0.13045293E+03 0.91188000E+02 0.0000E+00 0.9000E+01
#aMCatNLO 1  0  0  1  2 0.90755326D+01 0.00000000D+00  -5  5  0 0.00000000D+00 0.00000000D+00 0.00000000D+00 0.00000000D+00 0.00000000D+00
  <mgrwgt>
 0.1807537587D+00    8    2    0
 0.118072314538689D+03 0.000000000000000D+00 0.000000000000000D+00 0.118072314538689D+03
 0.118072314538689D+03 0.000000000000000D+00 0.000000000000000D+00 -.118072314538689D+03
 0.133549585151532D+03 0.264396567519386D+02 0.310570756997863D+02 -.233857711859947D+02
 0.102595043925846D+03 -.264396567519386D+02 -.310570756997863D+02 0.233857711859947D+02
 0.000000000000000D+00 -.000000000000000D+00 -.000000000000000D+00 -.000000000000000D+00
 0.122261657976640D+03 0.000000000000000D+00 0.000000000000000D+00 0.122261657976640D+03
 0.123179088125469D+03 0.000000000000000D+00 0.000000000000000D+00 -.123179088125469D+03
 0.135072751905274D+03 0.311187814650570D+02 0.332321448815749D+02 -.233857711859947D+02
 0.101246208685960D+03 -.228889518734861D+02 -.294065471868155D+02 0.233857711859947D+02
 0.912178551087588D+01 -.822982959157086D+01 -.382559769475943D+01 -.917430148829426D+00
0.119383989683D-03 0.000000000000D+00 0.000000000000D+00 0.212425037131D-02 0.000000000000D+00  5 1 -1 25 23 21 0 0.30907126D-01 0.10676055D-01 0.13384211D+05 0.13384211D+05 0.13384211D+05 0.12535052D+01  1  2  2  1  5  1        1 0.897743139756D-01 0.100000000000D+01
-.662909391360D-05 0.000000000000D+00 -.458465954910D-06 0.212425037131D-02 0.000000000000D+00  5 1 -1 25 23 21 2 0.30907126D-01 0.10676055D-01 0.13384211D+05 0.13384211D+05 0.13384211D+05 0.12535052D+01  1  2  3  1  5  1        1 -.783271753833D-02 0.100000000000D+01
0.826276232771D-05 0.000000000000D+00 0.000000000000D+00 0.212425037131D-02 0.000000000000D+00  5 1 -1 25 23 21 2 0.30907126D-01 0.10676055D-01 0.13384211D+05 0.13384211D+05 0.13384211D+05 0.12535052D+01  1  2 15  1  5  1        1 0.976300596172D-02 0.100000000000D+01
0.262827886770D-03 0.000000000000D+00 0.000000000000D+00 0.212425037131D-02 0.000000000000D+00  5 1 -1 25 23 21 2 0.32646539D-01 0.10676055D-01 0.14474113D+05 0.14474113D+05 0.14474113D+05 0.12495933D+01  1  2 12  1  5  1        1 0.289244429702D+00 0.100000000000D+01
-.185663368156D-03 0.000000000000D+00 0.000000000000D+00 0.212425037131D-02 0.000000000000D+00  5 1 -1 25 23 21 2 0.30907126D-01 0.10676055D-01 0.13384211D+05 0.13384211D+05 0.13384211D+05 0.12535052D+01  1  2  4  1  5  1        1 -.219373678958D+00 0.100000000000D+01
0.281114913972D-07 0.000000000000D+00 0.000000000000D+00 0.212425037131D-02 0.215096611863D-03  5 1 -1 25 23 21 2 0.32003747D-01 0.11137808D-01 0.14474113D+05 0.14474113D+05 0.14474113D+05 0.12495933D+01  1  2 11  1  5  1        1 0.297191175883D-04 0.100000000000D+01
0.278771219679D-05 0.000000000000D+00 0.000000000000D+00 0.212425037131D-02 0.000000000000D+00  5 21 -1 25 23 -1 2 0.32646539D-01 0.10676055D-01 0.14474113D+05 0.14474113D+05 0.14474113D+05 0.12495933D+01  1  2 12  3  5  1        1 0.191458727275D-01 0.100000000000D+01
0.420535621794D-09 0.000000000000D+00 0.000000000000D+00 0.212425037131D-02 0.137599931293D-05  5 21 -1 25 23 -1 2 0.32003747D-01 0.11137808D-01 0.14474113D+05 0.14474113D+05 0.14474113D+05 0.12495933D+01  1  2 11  3  5  1        1 0.281374564297D-05 0.100000000000D+01
  </mgrwgt>
  </event>
  <event>
  4     66 0.49155423E-03 0.13426556E+03 0.75467711E-02 0.11051418E+00
        1 -1    0    0  501    0 0.00000000E+00 0.00000000E+00 0.53648596E+02 0.53649550E+02 0.32000000E+00 0.0000E+00 0.9000E+01
       -1 -1    0    0    0  501 0.00000000E+00 0.00000000E+00 -.34088119E+03 0.34088134E+03 0.32000000E+00 0.0000E+00 0.9000E+01
       25  1    1    2    0    0 0.28916591E+02 -.73526833E+02 -.13453092E+03 0.19991481E+03 0.12500000E+03 0.0000E+00 0.9000E+01
       23  1    1    2    0    0 -.28916591E+02 0.73526833E+02 -.15270168E+03 0.19461608E+03 0.91188000E+02 0.0000E+00 0.9000E+01
#aMCatNLO 1  0  0  2  2 0.19500026D+03 0.00000000D+00  -5  5  0 0.00000000D+00 0.00000000D+00 0.00000000D+00 0.00000000D+00 0.00000000D+00
  <mgrwgt>
 0.1274782593D+00    3    2    0
 0.135233187536989D+03 0.000000000000000D+00 0.000000000000000D+00 0.135233187536989D+03
 0.135233187536989D+03 0.000000000000000D+00 0.000000000000000D+00 -.135233187536989D+03
 0.148746417516132D+03 0.289165908499781D+02 -.735268326365987D+02 0.160664986829147D+02
 0.121719957557845D+03 -.289165908499781D+02 0.735268326365987D+02 -.160664986829147D+02
 0.000000000000000D+00 -.000000000000000D+00 0.000000000000000D+00 0.000000000000000D+00
 0.524411024932614D+03 0.000000000000000D+00 0.000000000000000D+00 0.524411024932614D+03
 0.193292692563052D+03 0.000000000000000D+00 0.000000000000000D+00 -.193292692563052D+03
 0.217807196513054D+03 0.142850042120879D+03 -.105596912544881D+03 0.160664986829147D+02
 0.115625196586155D+03 0.448558438473827D+02 0.527613081187158D+02 -.160664986829147D+02
 0.384271324396457D+03 -.187705885968261D+03 0.528356044261651D+02 0.331118332369561D+03
0.414038922484D-03 0.000000000000D+00 0.000000000000D+00 0.186595691707D-02 0.000000000000D+00  5 1 -1 25 23 21 0 0.82537151D-02 0.52443345D-01 0.18027241D+05 0.18027241D+05 0.18027241D+05 0.12388224D+01  1  2  2  2  5  2       -1 0.124866682284D+00 0.100000000000D+01
-.230007201947D-04 0.000000000000D+00 -.159001848129D-05 0.186595691707D-02 0.000000000000D+00  5 1 -1 25 23 21 2 0.82537151D-02 0.52443345D-01 0.18027241D+05 0.18027241D+05 0.18027241D+05 0.12388224D+01  1  2  3  2  5  2       -1 -.106454716094D-01 0.100000000000D+01
0.286433214890D-04 0.000000000000D+00 0.000000000000D+00 0.186595691707D-02 0.000000000000D+00  5 1 -1 25 23 21 2 0.82537151D-02 0.52443345D-01 0.18027241D+05 0.18027241D+05 0.18027241D+05 0.12388224D+01  1  2 15  2  5  2       -1 0.132570486110D-01 0.100000000000D+01
  </mgrwgt>
  </event>
  <event>
  5     66 0.49155423E-03 0.11054988E+03 0.75467711E-02 0.11339300E+00
        1 -1    0    0  502    0 0.00000000E+00 0.00000000E+00 0.49009627E+03 0.49009638E+03 0.32000000E+00 0.0000E+00 0.9000E+01
       -1 -1    0    0    0  501 0.00000000E+00 0.00000000E+00 -.11676331E+03 0.11676375E+03 0.32000000E+00 0.0000E+00 0.9000E+01
       25  1    1    2    0    0 -.10042441E+03 0.38150700E+02 0.88921390E+02 0.18727667E+03 0.12500000E+03 0.0000E+00 0.9000E+01
       23  1    1    2    0    0 -.38842099E+02 0.49205335E+02 0.26589567E+02 0.11380743E+03 0.91188000E+02 0.0000E+00 0.9000E+01
       21  1    1    2  502  501 0.13926651E+03 -.87356035E+02 0.25782200E+03 0.30577604E+03 0.75000000E+00 0.0000E+00 0.9000E+01
#aMCatNLO 2  0  0  1  1 0.16439658D+03 0.00000000D+00  -5  5  0 0.00000000D+00 0.00000000D+00 0.00000000D+00 0.00000000D+00 0.00000000D+00
  <mgrwgt>
 0.1576385817D-01    1    2    0
 0.112118926412982D+03 0.000000000000000D+00 0.000000000000000D+00 0.112118926412982D+03
 0.112118926412982D+03 0.000000000000000D+00 0.000000000000000D+00 -.112118926412982D+03
 0.128418022582248D+03 -.188326012392254D+02 -.130284161390556D+02 0.184873477656112D+02
 0.958198302437169D+02 0.188326012392254D+02 0.130284161390556D+02 -.184873477656112D+02
 0.000000000000000D+00 0.000000000000000D+00 -.000000000000000D+00 0.000000000000000D+00
 0.327100174439241D+03 0.000000000000000D+00 0.000000000000000D+00 0.327100174439241D+03
 0.174946618467848D+03 0.000000000000000D+00 0.000000000000000D+00 -.174946618467848D+03
 0.165853306710297D+03 -.100424406514833D+03 0.381506998032376D+02 0.184873477656112D+02
 0.112191385794312D+03 -.388420987559096D+02 0.492053354757141D+02 -.184873477656112D+02
 0.224002100402480D+03 0.139266505270742D+03 -.873560352789517D+02 0.152153555971393D+03
0.992724126171D-04 0.000000000000D+00 0.000000000000D+00 0.229600861411D-02 0.120591339946D-05  5 1 -1 25 23 21 2 0.75399231D-01 0.17963572D-01 0.48372281D+05 0.48372281D+05 0.48372281D+05 0.11937079D+01  1  2  1  1  5  1        1 0.157638581733D-01 0.100000000000D+01
  </mgrwgt>
  </event>
  <event>
  4     66 0.49155423E-03 0.14267451E+03 0.75467711E-02 0.11782127E+00
        1 -1    0    0  501    0 0.00000000E+00 0.00000000E+00 0.84600751E+03 0.84600757E+03 0.32000000E+00 0.0000E+00 0.9000E+01
       -1 -1    0    0    0  501 0.00000000E+00 0.00000000E+00 -.24860743E+02 0.24862803E+02 0.32000000E+00 0.0000E+00 0.9000E+01
       25  1    1    2    0    0 -.86317103E+02 0.33155761E+02 0.52407655E+03 0.54665453E+03 0.12500000E+03 0.0000E+00 0.9000E+01
       23  1    1    2    0    0 0.86317103E+02 -.33155761E+02 0.29707022E+03 0.32421584E+03 0.91188000E+02 0.0000E+00 0.9000E+01
#aMCatNLO 1  0  0  2  1 0.49686950D+02 0.00000000D+00  -5  5  0 0.00000000D+00 0.00000000D+00 0.00000000D+00 0.00000000D+00 0.00000000D+00
  <mgrwgt>
 0.1592088744D+00    4    2    0
 0.145028612526093D+03 0.000000000000000D+00 0.000000000000000D+00 0.145028612526093D+03
 0.145028612526093D+03 0.000000000000000D+00 0.000000000000000D+00 -.145028612526093D+03
 0.157629141016092D+03 -.863171026358590D+02 0.331557614011866D+02 0.259229507566016D+02
 0.132428084036095D+03 0.863171026358590D+02 -.331557614011866D+02 -.259229507566016D+02
 0.000000000000000D+00 -.000000000000000D+00 -.000000000000000D+00 0.000000000000000D+00
 0.217686219337342D+03 0.000000000000000D+00 0.000000000000000D+00 0.217686219337342D+03
 0.155890060585987D+03 0.000000000000000D+00 0.000000000000000D+00 -.155890060585987D+03
 0.164138225719772D+03 -.836533976705938D+02 0.603859820212526D+02 0.259229507566016D+02
 0.130143929366509D+03 0.884907673643097D+02 -.109350684634931D+02 -.259229507566016D+02
 0.792941248370481D+02 -.483736969371589D+01 -.494509135577596D+02 0.617961587513551D+02
0.327888021818D-03 0.000000000000D+00 0.000000000000D+00 0.172777007020D-02 0.000000000000D+00  5 1 -1 25 23 21 0 0.13015516D+00 0.38248928D-02 0.20356016D+05 0.20356016D+05 0.20356016D+05 0.12329833D+01  1  2  2  2  5  2       -1 0.177156813067D+00 0.100000000000D+01
-.182100695726D-04 0.000000000000D+00 -.125917633868D-05 0.172777007020D-02 0.000000000000D+00  5 1 -1 25 23 21 2 0.13015516D+00 0.38248928D-02 0.20356016D+05 0.20356016D+05 0.20356016D+05 0.12329833D+01  1  2  3  2  5  2       -1 -.149574762621D-01 0.100000000000D+01
0.226816563293D-04 0.000000000000D+00 0.000000000000D+00 0.172777007020D-02 0.000000000000D+00  5 1 -1 25 23 21 2 0.13015516D+00 0.38248928D-02 0.20356016D+05 0.20356016D+05 0.20356016D+05 0.12329833D+01  1  2 15  2  5  2       -1 0.186303701244D-01 0.100000000000D+01
-.263224127464D-04 0.000000000000D+00 0.000000000000D+00 0.172777007020D-02 0.000000000000D+00  5 1 -1 25 23 21 2 0.13015516D+00 0.38248928D-02 0.20356016D+05 0.20356016D+05 0.20356016D+05 0.12329833D+01  1  2  4  2  5  2       -1 -.216208324874D-01 0.100000000000D+01
  </mgrwgt>
  </event>
  <event>
  4     66 0.49155423E-03 0.21313223E+03 0.75467711E-02 0.11211198E+00
        1 -1    0    0  501    0 0.00000000E+00 0.00000000E+00 0.13058756E+04 0.13058757E+04 0.32000000E+00 0.0000E+00 0.9000E+01
       -1 -1    0    0    0  501 0.00000000E+00 0.00000000E+00 -.45524964E+02 0.45526089E+02 0.32000000E+00 0.0000E+00 0.9000E+01
       25  1    1    2    0    0 0.21001288E+03 -.24974153E+02 0.79638728E+03 0.83341875E+03 0.12500000E+03 0.0000E+00 0.9000E+01
       23  1    1    2    0    0 -.21001288E+03 0.24974153E+02 0.46396339E+03 0.51798301E+03 0.91188000E+02 0.0000E+00 0.9000E+01
#aMCatNLO 1  0  0  1  2 0.52785950D-01 0.00000000D+00  -5  5  0 0.00000000D+00 0.00000000D+00 0.00000000D+00 0.00000000D+00 0.00000000D+00
  <mgrwgt>
 0.1102816324D+00    9    2    0
 0.243825199725061D+03 0.000000000000000D+00 0.000000000000000D+00 0.243825199725061D+03
 0.243825199725061D+03 0.000000000000000D+00 0.000000000000000D+00 -.243825199725061D+03
 0.251320065580028D+03 0.210012882108977D+03 -.249741527279305D+02 0.529873230778156D+02
 0.236330333870093D+03 -.210012882108977D+03 0.249741527279305D+02 -.529873230778156D+02
 0.000000000000000D+00 0.000000000000000D+00 -.000000000000000D+00 0.000000000000000D+00
 0.243857670683808D+03 0.000000000000000D+00 0.000000000000000D+00 0.243857670683808D+03
 0.243846654778971D+03 0.000000000000000D+00 0.000000000000000D+00 -.243846654778971D+03
 0.251297562461995D+03 0.209986917134427D+03 -.249660394289283D+02 0.529873230778156D+02
 0.236352839845047D+03 -.210037300684631D+03 0.249817828222761D+02 -.529873230778156D+02
 0.539231557371257D-01 0.503835502041270D-01 -.157433933478006D-01 0.110159048368692D-01
0.174469966143D-03 0.000000000000D+00 0.000000000000D+00 0.129892352403D-02 0.000000000000D+00  5 1 -1 25 23 21 0 0.20090403D+00 0.70039302D-02 0.56640284D+05 0.56640284D+05 0.56640284D+05 0.11869554D+01  1  2  2  1  5  1        1 0.178581430389D-01 0.100000000000D+01
-.968586631168D-05 0.000000000000D+00 -.670010608986D-06 0.129892352403D-02 0.000000000000D+00  5 1 -1 25 23 21 2 0.20090403D+00 0.70039302D-02 0.56640284D+05 0.56640284D+05 0.56640284D+05 0.11869554D+01  1  2  3  1  5  1        1 -.139676349885D-02 0.100000000000D+01
0.119569575781D-04 0.000000000000D+00 0.000000000000D+00 0.129892352403D-02 0.000000000000D+00  5 1 -1 25 23 21 2 0.20090403D+00 0.70039302D-02 0.56640284D+05 0.56640284D+05 0.56640284D+05 0.11869554D+01  1  2 15  1  5  1        1 0.172426929765D-02 0.100000000000D+01
-.151292883120D+00 0.000000000000D+00 0.000000000000D+00 0.129892352403D-02 0.000000000000D+00  5 1 -1 25 23 21 2 0.20090403D+00 0.70039302D-02 0.56640284D+05 0.56640284D+05 0.56640284D+05 0.11869554D+01  1  2  4  1  5  1        1 -.218173955719D+02 0.100000000000D+01
-.196965648849D+01 0.000000000000D+00 -.111425523606D+00 0.129892352403D-02 0.000000000000D+00  5 1 -1 25 23 21 2 0.20094174D+00 0.70039302D-02 0.56640284D+05 0.56640284D+05 0.56640284D+05 0.11869554D+01  1  2  5  1  5  1        1 -.283927805683D+03 0.100000000000D+01
0.196967736587D+01 0.000000000000D+00 0.111425521644D+00 0.129892352403D-02 0.000000000000D+00  5 1 -1 25 23 21 2 0.20090403D+00 0.70039302D-02 0.56640284D+05 0.56640284D+05 0.56640284D+05 0.11869554D+01  1  2  6  1  5  1        1 0.284039998140D+03 0.100000000000D+01
0.151292883614D+00 0.000000000000D+00 0.000000000000D+00 0.129892352403D-02 0.350273685600D+01  5 1 -1 25 23 21 2 0.20093079D+00 0.70045465D-02 0.56652865D+05 0.56652865D+05 0.56652865D+05 0.11869460D+01  1  2 11  1  5  1        1 0.218081483105D+02 0.100000000000D+01
-.692837951936D-04 0.000000000000D+00 -.391953984136D-05 0.129892352403D-02 0.000000000000D+00  5 21 -1 25 23 -1 2 0.20094174D+00 0.70039302D-02 0.56640284D+05 0.56640284D+05 0.56640284D+05 0.11869554D+01  1  2  5  3  5  1        1 -.118415020686D-01 0.100000000000D+01
0.580580839327D-05 0.000000000000D+00 0.000000000000D+00 0.129892352403D-02 0.874471452655D-04  5 21 -1 25 23 -1 2 0.20093079D+00 0.70045465D-02 0.56652865D+05 0.56652865D+05 0.56652865D+05 0.11869460D+01  1  2 11  3  5  1        1 0.992289692801D-03 0.100000000000D+01
  </mgrwgt>
  </event>
  <event>
  5     66 -.49155423E-03 0.11268210E+03 0.75467711E-02 0.12486319E+00
        1 -1    0    0  502    0 0.00000000E+00 0.00000000E+00 0.65369726E+02 0.65370509E+02 0.32000000E+00 0.0000E+00 0.9000E+01
       -1 -1    0    0    0  501 0.00000000E+00 0.00000000E+00 -.24686710E+03 0.24686730E+03 0.32000000E+00 0.0000E+00 0.9000E+01
       25  1    1    2    0    0 0.86099027E+01 -.34407255E+02 -.16008085E+03 0.20617679E+03 0.12500000E+03 0.0000E+00 0.9000E+01
       23  1    1    2    0    0 -.36112509E+01 0.28218914E+02 -.17314483E+02 0.97079302E+02 0.91188000E+02 0.0000E+00 0.9000E+01
       21  1    1    2  502  501 -.49986518E+01 0.61883407E+01 -.41020331E+01 0.89817179E+01 0.75000000E+00 0.0000E+00 0.9000E+01
#aMCatNLO 2  0  0  1  2 0.79550035D+01 0.00000000D+00  -5  5  0 0.00000000D+00 0.00000000D+00 0.00000000D+00 0.00000000D+00 0.00000000D+00
  <mgrwgt>
 -.5886947271D-01    3    2    0
 0.122914473338182D+03 0.000000000000000D+00 0.000000000000000D+00 0.122914473338182D+03
 0.122914473338182D+03 0.000000000000000D+00 0.000000000000000D+00 -.122914473338182D+03
 0.137782024037212D+03 0.579915016407184D+01 -.309275377316811D+02 -.486697381852498D+02
 0.108046922639151D+03 -.579915016407184D+01 0.309275377316811D+02 0.486697381852498D+02
 0.000000000000000D+00 -.000000000000000D+00 0.000000000000000D+00 0.000000000000000D+00
 0.127729283349420D+03 0.000000000000000D+00 0.000000000000000D+00 0.127729283349420D+03
 0.126309117864027D+03 0.000000000000000D+00 0.000000000000000D+00 -.126309117864027D+03
 0.138750614524992D+03 0.860990273872727D+01 -.344072549162492D+02 -.486697381852498D+02
 0.107207010086436D+03 -.361125093901505D+01 0.282189142120650D+02 0.486697381852498D+02
 0.808077660201849D+01 -.499865179971222D+01 0.618834070418412D+01 0.142016548539293D+01
-.463168213917D-03 0.000000000000D+00 0.000000000000D+00 0.183793554350D-02 0.000000000000D+00  5 1 -1 25 23 21 2 0.10184748D-01 0.36953844D-01 0.13620329D+05 0.13620329D+05 0.13620329D+05 0.12526281D+01  1  2 13  1  5  1        1 -.306501920699D+00 0.100000000000D+01
-.131181046392D-03 0.000000000000D+00 0.000000000000D+00 0.183793554350D-02 0.000000000000D+00  5 1 -1 25 23 21 2 0.96765316D-02 0.36953844D-01 0.12697257D+05 0.12697257D+05 0.12697257D+05 0.12561595D+01  1  2  8  1  5  1        1 -.931857451466D-01 0.100000000000D+01
0.530822895577D-03 0.000000000000D+00 0.000000000000D+00 0.183793554350D-02 0.243327665748D-03  5 1 -1 25 23 21 2 0.10055581D-01 0.37974433D-01 0.13620329D+05 0.13620329D+05 0.13620329D+05 0.12526281D+01  1  2  1  1  5  1        1 0.340818193136D+00 0.100000000000D+01
  </mgrwgt>
  </event>
  <event>
  4     66 0.49155423E-03 0.77101731E+02 0.75467711E-02 0.11654147E+00
        1 -1    0    0  501    0 0.00000000E+00 0.00000000E+00 0.81382695E+03 0.81382701E+03 0.32000000E+00 0.0000E+00 0.9000E+01
       -1 -1    0    0    0  501 0.00000000E+00 0.00000000E+00 -.19096343E+02 0.19099024E+02 0.32000000E+00 0.0000E+00 0.9000E+01
       25  1    1    2    0    0 -.52835305E+02 -.25273680E+02 0.50717620E+03 0.52562631E+03 0.12500000E+03 0.0000E+00 0.9000E+01
       23  1    1    2    0    0 0.52835305E+02 0.25273680E+02 0.28755441E+03 0.30729972E+03 0.91188000E+02 0.0000E+00 0.9000E+01
#aMCatNLO 1  0  0  1  2 0.99297165D+02 0.00000000D+00  -5  5  0 0.00000000D+00 0.00000000D+00 0.00000000D+00 0.00000000D+00 0.00000000D+00
  <mgrwgt>
 0.1251675737D+00    7    2    0
 0.124668604304566D+03 0.000000000000000D+00 0.000000000000000D+00 0.124668604304566D+03
 0.124668604304566D+03 0.000000000000000D+00 0.000000000000000D+00 -.124668604304566D+03
 0.139326963353293D+03 -.528353051485207D+02 -.252736796616105D+02 0.188858244054827D+02
 0.110010245255838D+03 0.528353051485207D+02 0.252736796616105D+02 -.188858244054827D+02
 0.000000000000000D+00 -.000000000000000D+00 0.000000000000000D+00 0.000000000000000D+00
 0.340639893036217D+03 0.000000000000000D+00 0.000000000000000D+00 0.340639893036217D+03
 0.146130984245181D+03 0.000000000000000D+00 0.000000000000000D+00 -.146130984245181D+03
 0.147663810327980D+03 -.242914170336999D+02 -.723384653942694D+02 0.188858244054827D+02
 0.120718325047973D+03 0.757833965145475D+02 -.125644382139545D+02 -.188858244054827D+02
 0.218388741905445D+03 -.514919794808476D+02 0.849029036082239D+02 0.194508908791036D+03
0.169201831201D-03 0.000000000000D+00 0.000000000000D+00 0.201597866062D-02 0.000000000000D+00  5 1 -1 25 23 21 0 0.12520436D+00 0.29381099D-02 0.15180466D+05 0.15180466D+05 0.15180466D+05 0.12472309D+01  1  2  2  1  5  1        1 0.141487847650D+00 0.100000000000D+01
-.939851661932D-05 0.000000000000D+00 -.649779583676D-06 0.201597866062D-02 0.000000000000D+00  5 1 -1 25 23 21 2 0.12520436D+00 0.29381099D-02 0.15180466D+05 0.15180466D+05 0.15180466D+05 0.12472309D+01  1  2  3  1  5  1        1 -.122255130862D-01 0.100000000000D+01
0.117050171434D-04 0.000000000000D+00 0.000000000000D+00 0.201597866062D-02 0.000000000000D+00  5 1 -1 25 23 21 2 0.12520436D+00 0.29381099D-02 0.15180466D+05 0.15180466D+05 0.15180466D+05 0.12472309D+01  1  2 15  1  5  1        1 0.152257899898D-01 0.100000000000D+01
0.153717614004D-04 0.000000000000D+00 0.000000000000D+00 0.201597866062D-02 0.000000000000D+00  5 1 -1 25 23 21 2 0.33344242D+00 0.29381099D-02 0.33302627D+05 0.33302627D+05 0.33302627D+05 0.12101666D+01  1  2 12  1  5  1        1 0.232031650156D-02 0.100000000000D+01
-.160113443742D-03 0.000000000000D+00 -.547886005629D-04 0.201597866062D-02 0.000000000000D+00  5 1 -1 25 23 21 2 0.35842793D+00 0.29381099D-02 0.15180466D+05 0.15180466D+05 0.15180466D+05 0.12472309D+01  1  2  5  1  5  1        1 -.203781735241D-01 0.100000000000D+01
0.167536781188D-05 0.000000000000D+00 0.000000000000D+00 0.201597866062D-02 0.000000000000D+00  5 21 -1 25 23 -1 2 0.33344242D+00 0.29381099D-02 0.33302627D+05 0.33302627D+05 0.33302627D+05 0.12101666D+01  1  2 12  3  5  1        1 0.185094912843D-03 0.100000000000D+01
-.160270483275D-04 0.000000000000D+00 -.649853585219D-05 0.201597866062D-02 0.000000000000D+00  5 21 -1 25 23 -1 2 0.35842793D+00 0.29381099D-02 0.15180466D+05 0.15180466D+05 0.15180466D+05 0.12472309D+01  1  2  5  3  5  1        1 -.144778872984D-02 0.100000000000D+01
  </mgrwgt>
  </event>
  <event>
  5     66 -.49155423E-03 0.13239339E+03 0.75467711E-02 0.12126957E+00
        1 -1    0    0  501    0 0.00000000E+00 0.00000000E+00 0.10831284E+04 0.10831284E+04 0.32000000E+00 0.0000E+00 0.9000E+01
       -1 -1    0    0    0  502 0.00000000E+00 0.00000000E+00 -.19602333E+02 0.19604945E+02 0.32000000E+00 0.0000E+00 0.9000E+01
       25  1    1    2    0    0 0.61211771E+02 0.52163864E+02 0.41455997E+03 0.44040086E+03 0.12500000E+03 0.0000E+00 0.9000E+01
       23  1    1    2    0    0 -.46012561E+02 -.56200857E+02 0.57831608E+03 0.58994951E+03 0.91188000E+02 0.0000E+00 0.9000E+01
       21  1    1    2  501  502 -.15199210E+02 0.40369929E+01 0.70649987E+02 0.72382985E+02 0.75000000E+00 0.0000E+00 0.9000E+01
#aMCatNLO 2  0  0  2  1 0.15726198D+02 0.00000000D+00  -5  5  0 0.00000000D+00 0.00000000D+00 0.00000000D+00 0.00000000D+00 0.00000000D+00
  <mgrwgt>
 -.7831824878D-01    2    2    0
 0.137451569504059D+03 0.000000000000000D+00 0.000000000000000D+00 0.137451569504059D+03
 0.137451569504059D+03 0.000000000000000D+00 0.000000000000000D+00 -.137451569504059D+03
 0.150746704442085D+03 0.528184860509855D+02 0.543931660169026D+02 -.367581272930067D+02
 0.124156434566032D+03 -.528184860509855D+02 -.543931660169026D+02 0.367581272930067D+02
 0.000000000000000D+00 -.000000000000000D+00 0.000000000000000D+00 0.000000000000000D+00
 0.147400526049212D+03 0.000000000000000D+00 0.000000000000000D+00 0.147400526049212D+03
 0.144034466486615D+03 0.000000000000000D+00 0.000000000000000D+00 -.144034466486615D+03
 0.153114694050955D+03 0.612117711275519D+02 0.521638638106590D+02 -.367581272930067D+02
 0.122237896517188D+03 -.460125611382207D+02 -.562008567226450D+02 0.367581272930067D+02
 0.160824019676838D+02 -.151992099893312D+02 0.403699291198598D+01 0.336605956259688D+01
-.236374244502D-03 0.000000000000D+00 0.000000000000D+00 0.175278279992D-02 0.000000000000D+00  5 1 -1 25 23 21 2 0.15537877D+00 0.31139884D-02 0.19732295D+05 0.19732295D+05 0.19732295D+05 0.12344709D+01  1  2 13  2  5  2       -1 -.197269294437D+00 0.100000000000D+01
0.153531174254D-03 0.000000000000D+00 0.000000000000D+00 0.175278279992D-02 0.577969131518D-04  5 1 -1 25 23 21 2 0.16662532D+00 0.30157668D-02 0.19732295D+05 0.19732295D+05 0.19732295D+05 0.12344709D+01  1  2  1  2  5  2       -1 0.118951045656D+00 0.100000000000D+01
  </mgrwgt>
  </event>
  <event>
  4     66 0.49155423E-03 0.14409117E+03 0.75467711E-02 0.10592362E+00
        1 -1    0    0  501    0 0.00000000E+00 0.00000000E+00 0.30480174E+03 0.30480191E+03 0.32000000E+00 0.0000E+00 0.9000E+01
       -1 -1    0    0    0  501 0.00000000E+00 0.00000000E+00 -.76569368E+02 0.76570037E+02 0.32000000E+00 0.0000E+00 0.9000E+01
       25  1    1    2    0    0 0.17526573E+00 0.94620059E+02 0.59914665E+02 0.16783252E+03 0.12500000E+03 0.0000E+00 0.9000E+01
       23  1    1    2    0    0 -.17526573E+00 -.94620059E+02 0.16831771E+03 0.21353943E+03 0.91188000E+02 0.0000E+00 0.9000E+01
#aMCatNLO 1  0  0  1  1 0.30059883D+03 0.00000000D+00  -5  5  0 0.00000000D+00 0.00000000D+00 0.00000000D+00 0.00000000D+00 0.00000000D+00
  <mgrwgt>
 0.1882399963D+00    3    2    0
 0.152769880724054D+03 0.000000000000000D+00 0.000000000000000D+00 0.152769880724054D+03
 0.152769880724054D+03 0.000000000000000D+00 0.000000000000000D+00 -.152769880724054D+03
 0.164731905930455D+03 0.175265731963925D+00 0.946200586625815D+02 -.505827501436328D+02
 0.140807855517653D+03 -.175265731963925D+00 -.946200586625815D+02 0.505827501436328D+02
 0.000000000000000D+00 -.000000000000000D+00 0.000000000000000D+00 -.000000000000000D+00
 0.238320546849168D+03 0.000000000000000D+00 0.000000000000000D+00 0.238320546849168D+03
 0.115512177179818D+04 0.000000000000000D+00 0.000000000000000D+00 -.115512177179818D+04
 0.177680443171732D+03 0.114854637543849D+03 0.139691627623514D+02 -.505827501436328D+02
 0.250938502575014D+03 0.131026854674779D+03 -.186890956101497D+03 0.505827501436328D+02
 0.964823372900598D+03 -.245881492218627D+03 0.172921793339145D+03 -.916801224949008D+03
0.470856350175D-03 0.000000000000D+00 0.000000000000D+00 0.154830242778D-02 0.000000000000D+00  5 1 -1 25 23 21 0 0.46892640D-01 0.11779967D-01 0.20762266D+05 0.20762266D+05 0.20762266D+05 0.12320416D+01  1  2  2  1  5  1        1 0.184383880917D+00 0.100000000000D+01
-.260498911763D-04 0.000000000000D+00 -.180821236400D-05 0.154830242778D-02 0.000000000000D+00  5 1 -1 25 23 21 2 0.46892640D-01 0.11779967D-01 0.20762266D+05 0.20762266D+05 0.20762266D+05 0.12320416D+01  1  2  3  1  5  1        1 -.154842867450D-01 0.100000000000D+01
0.325372023925D-04 0.000000000000D+00 0.000000000000D+00 0.154830242778D-02 0.000000000000D+00  5 1 -1 25 23 21 2 0.46892640D-01 0.11779967D-01 0.20762266D+05 0.20762266D+05 0.20762266D+05 0.12320416D+01  1  2 15  1  5  1        1 0.193404021658D-01 0.100000000000D+01
  </mgrwgt>
  </event>
  <event>
  4     66 0.49155423E-03 0.13344284E+03 0.75467711E-02 0.11662794E+00
        1 -1    0    0  501    0 0.00000000E+00 0.00000000E+00 0.69866046E+03 0.69866053E+03 0.32000000E+00 0.0000E+00 0.9000E+01
       -1 -1    0    0    0  501 0.00000000E+00 0.00000000E+00 -.26138952E+02 0.26140911E+02 0.32000000E+00 0.0000E+00 0.9000E+01
       25  1    1    2    0    0 -.64842056E+02 -.42660458E+02 0.42687728E+03 0.45152366E+03 0.12500000E+03 0.0000E+00 0.9000E+01
       23  1    1    2    0    0 0.64842056E+02 0.42660458E+02 0.24564423E+03 0.27327778E+03 0.91188000E+02 0.0000E+00 0.9000E+01
#aMCatNLO 1  0  0  1  1 0.83663111D+02 0.00000000D+00  -5  5  0 0.00000000D+00 0.00000000D+00 0.00000000D+00 0.00000000D+00 0.00000000D+00
  <mgrwgt>
 0.9041684187D-01    4    2    0
 0.135140625254652D+03 0.000000000000000D+00 0.000000000000000D+00 0.135140625254652D+03
 0.135140625254652D+03 0.000000000000000D+00 0.000000000000000D+00 -.135140625254652D+03
 0.148663110891791D+03 -.648420559065862D+02 -.426604584191400D+02 0.212441430352220D+02
 0.121618139617513D+03 0.648420559065862D+02 0.426604584191400D+02 -.212441430352220D+02
 0.000000000000000D+00 0.000000000000000D+00 0.000000000000000D+00 -.000000000000000D+00
 0.178266286229792D+03 0.000000000000000D+00 0.000000000000000D+00 0.178266286229792D+03
 0.189018623491692D+03 0.000000000000000D+00 0.000000000000000D+00 -.189018623491692D+03
 0.176899118282796D+03 -.886982990863496D+02 -.857297858105237D+02 0.212441430352220D+02
 0.106034567567517D+03 0.481603346979961D+02 0.125437922378523D+02 -.212441430352220D+02
 0.843512238711696D+02 0.405379643883535D+02 0.731859935726714D+02 -.107523372619000D+02
0.229740935756D-03 0.000000000000D+00 0.000000000000D+00 0.185135928807D-02 0.000000000000D+00  5 1 -1 25 23 21 0 0.10748638D+00 0.40215335D-02 0.17806992D+05 0.17806992D+05 0.17806992D+05 0.12394179D+01  1  2  2  1  5  1        1 0.152697425254D+00 0.100000000000D+01
-.127609049054D-04 0.000000000000D+00 -.882265685479D-06 0.185135928807D-02 0.000000000000D+00  5 1 -1 25 23 21 2 0.10748638D+00 0.40215335D-02 0.17806992D+05 0.17806992D+05 0.17806992D+05 0.12394179D+01  1  2  3  1  5  1        1 -.130289780782D-01 0.100000000000D+01
0.159235804869D-04 0.000000000000D+00 0.000000000000D+00 0.185135928807D-02 0.000000000000D+00  5 1 -1 25 23 21 2 0.10748638D+00 0.40215335D-02 0.17806992D+05 0.17806992D+05 0.17806992D+05 0.12394179D+01  1  2 15  1  5  1        1 0.162580931860D-01 0.100000000000D+01
-.641618266492D-04 0.000000000000D+00 0.000000000000D+00 0.185135928807D-02 0.000000000000D+00  5 1 -1 25 23 21 2 0.10748638D+00 0.40215335D-02 0.17806992D+05 0.17806992D+05 0.17806992D+05 0.12394179D+01  1  2  4  1  5  1        1 -.655096984944D-01 0.100000000000D+01
  </mgrwgt>
  </event>
  <event>
  4     66 0.49155423E-03 0.69839066E+02 0.75467711E-02 0.11534364E+00
        1 -1    0    0  501    0 0.00000000E+00 0.00000000E+00 0.19014052E+03 0.19014079E+03 0.32000000E+00 0.0000E+00 0.9000E+01
       -1 -1    0    0    0  501 0.00000000E+00 0.00000000E+00 -.15012801E+03 0.15012835E+03 0.32000000E+00 0.0000E+00 0.9000E+01
       25  1    1    2    0    0 -.12717029E+03 0.21138208E+02 0.29907119E+02 0.18203995E+03 0.12500000E+03 0.0000E+00 0.9000E+01
       23  1    1    2    0    0 0.12717029E+03 -.21138208E+02 0.10105390E+02 0.15822919E+03 0.91188000E+02 0.0000E+00 0.9000E+01
#aMCatNLO 1  0  0  1  2 0.50185123D+02 0.00000000D+00  -5  5  0 0.00000000D+00 0.00000000D+00 0.00000000D+00 0.00000000D+00 0.00000000D+00
  <mgrwgt>
 0.1036364409D+00    7    2    0
 0.168954200443496D+03 0.000000000000000D+00 0.000000000000000D+00 0.168954200443496D+03
 0.168954200443496D+03 0.000000000000000D+00 0.000000000000000D+00 -.168954200443496D+03
 0.179770369317683D+03 -.127170292353412D+03 0.211382077091222D+02 0.856029218016338D+01
 0.158138031569310D+03 0.127170292353412D+03 -.211382077091222D+02 -.856029218016338D+01
 0.000000000000000D+00 0.000000000000000D+00 -.000000000000000D+00 0.000000000000000D+00
 0.526444404775366D+03 0.000000000000000D+00 0.000000000000000D+00 0.526444404775366D+03
 0.172577819835091D+03 0.000000000000000D+00 0.000000000000000D+00 -.172577819835091D+03
 0.198896859891379D+03 -.149851941820745D+03 0.374977039962890D+02 0.856029218016338D+01
 0.142717885060550D+03 0.109149434157088D+03 -.814038040476616D+01 -.856029218016338D+01
 0.357407479658528D+03 0.407025076636574D+02 -.293573235915229D+02 0.353866584940276D+03
0.544558910474D-03 0.000000000000D+00 0.000000000000D+00 0.158805511096D-02 0.000000000000D+00  5 1 -1 25 23 21 0 0.29252435D-01 0.23096664D-01 0.28471941D+05 0.28471941D+05 0.28471941D+05 0.12172885D+01  1  2  2  1  5  1        1 0.132719162495D+00 0.100000000000D+01
-.302532115452D-04 0.000000000000D+00 -.209124960187D-05 0.158805511096D-02 0.000000000000D+00  5 1 -1 25 23 21 2 0.29252435D-01 0.23096664D-01 0.28471941D+05 0.28471941D+05 0.28471941D+05 0.12172885D+01  1  2  3  1  5  1        1 -.109256505868D-01 0.100000000000D+01
0.374294844950D-04 0.000000000000D+00 0.000000000000D+00 0.158805511096D-02 0.000000000000D+00  5 1 -1 25 23 21 2 0.29252435D-01 0.23096664D-01 0.28471941D+05 0.28471941D+05 0.28471941D+05 0.12172885D+01  1  2 15  1  5  1        1 0.135172911685D-01 0.100000000000D+01
0.618019230433D-02 0.000000000000D+00 0.000000000000D+00 0.158805511096D-02 0.000000000000D+00  5 1 -1 25 23 21 2 0.90633816D-01 0.23096664D-01 0.38290391D+05 0.38290391D+05 0.38290391D+05 0.12039315D+01  1  2 12  1  5  1        1 0.518064644180D+00 0.100000000000D+01
-.642069211207D-02 0.000000000000D+00 -.201067561738D-03 0.158805511096D-02 0.000000000000D+00  5 1 -1 25 23 21 2 0.91746391D-01 0.23096664D-01 0.28471941D+05 0.28471941D+05 0.28471941D+05 0.12172885D+01  1  2  5  1  5  1        1 -.541811978901D+00 0.100000000000D+01
0.800060050356D-03 0.000000000000D+00 0.000000000000D+00 0.158805511096D-02 0.000000000000D+00  5 21 -1 25 23 -1 2 0.90633816D-01 0.23096664D-01 0.38290391D+05 0.38290391D+05 0.38290391D+05 0.12039315D+01  1  2 12  3  5  1        1 0.173004125990D+00 0.100000000000D+01
-.832936038221D-03 0.000000000000D+00 -.263702047541D-04 0.158805511096D-02 0.000000000000D+00  5 21 -1 25 23 -1 2 0.91746391D-01 0.23096664D-01 0.28471941D+05 0.28471941D+05 0.28471941D+05 0.12172885D+01  1  2  5  3  5  1        1 -.180931153448D+00 0.100000000000D+01
  </mgrwgt>
  </event>
  <event>
  5     66 0.49155423E-03 0.11106385E+03 0.75467711E-02 0.11231817E+00
       21 -1    0    0  501  502 0.00000000E+00 0.00000000E+00 0.20771044E+03 0.20771179E+03 0.75000000E+00 0.0000E+00 0.9000E+01
       -1 -1    0    0    0  501 0.00000000E+00 0.00000000E+00 -.27161818E+03 0.27161837E+03 0.32000000E+00 0.0000E+00 0.9000E+01
       25  1    1    2    0    0 0.33102253E+02 0.70762045E+02 -.15628607E+02 0.14823049E+03 0.12500000E+03 0.0000E+00 0.9000E+01
       23  1    1    2    0    0 0.14591792E+02 0.10535447E+03 -.49642104E+02 0.14863403E+03 0.91188000E+02 0.0000E+00 0.9000E+01
       -1  1    1    2    0  502 -.47694045E+02 -.17611651E+03 0.13629675E+01 0.18246564E+03 0.32000000E+00 0.0000E+00 0.9000E+01
#aMCatNLO 2  0  0  1  1 0.18246026D+03 0.00000000D+00  -5  5  0 0.00000000D+00 0.00000000D+00 0.00000000D+00 0.00000000D+00 0.00000000D+00
  <mgrwgt>
 0.1145668119D-01    1    2    0
 0.112446132314993D+03 0.000000000000000D+00 0.000000000000000D+00 0.112446132314993D+03
 0.112446132314993D+03 0.000000000000000D+00 0.000000000000000D+00 -.112446132314993D+03
 0.128697799903531D+03 0.741252993514434D+01 -.241006239184909D+02 0.173878701027271D+02
 0.961944647264553D+02 -.741252993514434D+01 0.241006239184909D+02 -.173878701027271D+02
 0.000000000000000D+00 -.000000000000000D+00 -.000000000000000D+00 0.000000000000000D+00
 0.259735666489776D+03 0.000000000000000D+00 0.000000000000000D+00 0.259735666489776D+03
 0.217214041843838D+03 0.000000000000000D+00 0.000000000000000D+00 -.217214041843838D+03
 0.148426291861977D+03 0.331022526557900D+02 0.707620446164454D+02 0.173878701027271D+02
 0.141173912919114D+03 0.145917922640387D+02 0.105354467948481D+03 -.173878701027271D+02
 0.187349503552522D+03 -.476940449198287D+02 -.176116512564926D+03 0.425216246459378D+02
0.165391057778D-04 0.000000000000D+00 0.000000000000D+00 0.229220534462D-02 0.174645070329D-06  5 21 -1 25 23 -1 2 0.31955552D-01 0.41787506D-01 0.55216442D+05 0.55216442D+05 0.55216442D+05 0.11880369D+01  1  2  1  3  5  1        1 0.114566811855D-01 0.100000000000D+01
  </mgrwgt>
  </event>
  <event>
  4     66 0.49155423E-03 0.88756384E+02 0.75467711E-02 0.12075640E+00
        1 -1    0    0  501    0 0.00000000E+00 0.00000000E+00 0.10635496E+04 0.10635496E+04 0.32000000E+00 0.0000E+00 0.9000E+01
       -1 -1    0    0    0  501 0.00000000E+00 0.00000000E+00 -.19919517E+02 0.19922087E+02 0.32000000E+00 0.0000E+00 0.9000E+01
       25  1    1    2    0    0 0.94272500E+01 -.38640960E+02 0.23828364E+03 0.27200384E+03 0.12500000E+03 0.0000E+00 0.9000E+01
       23  1    1    2    0    0 -.94272500E+01 0.38640960E+02 0.80534644E+03 0.81146789E+03 0.91188000E+02 0.0000E+00 0.9000E+01
#aMCatNLO 1  0  0  2  1 0.51719235D+02 0.00000000D+00  -5  5  0 0.00000000D+00 0.00000000D+00 0.00000000D+00 0.00000000D+00 0.00000000D+00
  <mgrwgt>
 0.1331564234D+00    9    2    0
 0.145556903726930D+03 0.000000000000000D+00 0.000000000000000D+00 0.145556903726930D+03
 0.145556903726930D+03 0.000000000000000D+00 0.000000000000000D+00 -.145556903726930D+03
 0.158111699255065D+03 0.942725000213939D+01 -.386409599410100D+02 -.882740766791616D+02
 0.133002108198795D+03 -.942725000213939D+01 0.386409599410100D+02 0.882740766791616D+02
 0.000000000000000D+00 0.000000000000000D+00 -.000000000000000D+00 -.000000000000000D+00
 0.164549439765745D+03 0.000000000000000D+00 0.000000000000000D+00 0.164549439765745D+03
 0.187847467709660D+03 0.000000000000000D+00 0.000000000000000D+00 -.187847467709660D+03
 0.153522671344985D+03 0.345237012728108D+01 -.118312782000089D+02 -.882740766791616D+02
 0.142149661132821D+03 -.147026590205529D+02 0.623120696201193D+02 0.882740766791616D+02
 0.567245749975988D+02 0.112502888932719D+02 -.504807914201104D+02 -.232980279439148D+02
0.229611710897D-03 0.000000000000D+00 0.000000000000D+00 0.123863653191D-02 0.000000000000D+00  5 1 -1 25 23 21 0 0.16362322D+00 0.30647424D-02 0.13301050D+05 0.13301050D+05 0.13301050D+05 0.12538183D+01  1  2  2  2  5  2       -1 0.116803800769D+00 0.100000000000D+01
-.119158769483D-04 0.000000000000D+00 -.881769427998D-06 0.123863653191D-02 0.000000000000D+00  5 1 -1 25 23 21 2 0.16362322D+00 0.30647424D-02 0.13301050D+05 0.13301050D+05 0.13301050D+05 0.12538183D+01  1  2  3  2  5  2       -1 -.952923741263D-02 0.100000000000D+01
0.157078926131D-04 0.000000000000D+00 0.000000000000D+00 0.123863653191D-02 0.000000000000D+00  5 1 -1 25 23 21 2 0.16362322D+00 0.30647424D-02 0.13301050D+05 0.13301050D+05 0.13301050D+05 0.12538183D+01  1  2 15  2  5  2       -1 0.125617475417D-01 0.100000000000D+01
0.113931520465D-03 0.000000000000D+00 0.000000000000D+00 0.123863653191D-02 0.000000000000D+00  5 1 -1 25 23 21 2 0.16362322D+00 0.41093859D-02 0.20843339D+05 0.20843339D+05 0.20843339D+05 0.12318562D+01  1  2 12  2  5  2       -1 0.577372439264D-01 0.100000000000D+01
-.152332708755D-03 0.000000000000D+00 0.000000000000D+00 0.123863653191D-02 0.000000000000D+00  5 1 -1 25 23 21 2 0.16362322D+00 0.30647424D-02 0.13301050D+05 0.13301050D+05 0.13301050D+05 0.12538183D+01  1  2  4  2  5  2       -1 -.121821881322D+00 0.100000000000D+01
-.212213605343D-03 0.000000000000D+00 -.950946118484D-04 0.123863653191D-02 0.000000000000D+00  5 1 -1 25 23 21 2 0.16362322D+00 0.44920871D-02 0.13301050D+05 0.13301050D+05 0.13301050D+05 0.12538183D+01  1  2  5  2  5  2       -1 -.971575226909D-01 0.100000000000D+01
0.237548196642D-03 0.000000000000D+00 0.885431172649D-04 0.123863653191D-02 0.000000000000D+00  5 1 -1 25 23 21 2 0.16362322D+00 0.30647424D-02 0.13301050D+05 0.13301050D+05 0.13301050D+05 0.12538183D+01  1  2  6  2  5  2       -1 0.189969498054D+00 0.100000000000D+01
0.433281259712D-05 0.000000000000D+00 0.000000000000D+00 0.123863653191D-02 0.000000000000D+00  5 1 21 25 23 1 2 0.16362322D+00 0.41093859D-02 0.20843339D+05 0.20843339D+05 0.20843339D+05 0.12318562D+01  1  2 12  4  5  2       -1 0.398689111820D-01 0.100000000000D+01
-.672304435937D-05 0.000000000000D+00 -.437964888321D-05 0.123863653191D-02 0.000000000000D+00  5 1 21 25 23 1 2 0.16362322D+00 0.44920871D-02 0.13301050D+05 0.13301050D+05 0.13301050D+05 0.12538183D+01  1  2  5  4  5  2       -1 -.552761366761D-01 0.100000000000D+01
  </mgrwgt>
  </event>
  <event>
  4     66 0.49155423E-03 0.58436752E+02 0.75467711E-02 0.12228840E+00
        1 -1    0    0  501    0 0.00000000E+00 0.00000000E+00 0.90642396E+03 0.90642401E+03 0.32000000E+00 0.0000E+00 0.9000E+01
       -1 -1    0    0    0  501 0.00000000E+00 0.00000000E+00 -.21786489E+02 0.21788838E+02 0.32000000E+00 0.0000E+00 0.9000E+01
       25  1    1    2    0    0 0.67144493E+02 -.15751389E+02 0.66981572E+03 0.68486100E+03 0.12500000E+03 0.0000E+00 0.9000E+01
       23  1    1    2    0    0 -.67144493E+02 0.15751389E+02 0.21482174E+03 0.24335185E+03 0.91188000E+02 0.0000E+00 0.9000E+01
#aMCatNLO 1  0  0  2  1 0.89739401D+01 0.00000000D+00  -5  5  0 0.00000000D+00 0.00000000D+00 0.00000000D+00 0.00000000D+00 0.00000000D+00
  <mgrwgt>
 0.2207273323D-01   11    2    0
 0.140530822141730D+03 0.000000000000000D+00 0.000000000000000D+00 0.140530822141730D+03
 0.140530822141730D+03 0.000000000000000D+00 0.000000000000000D+00 -.140530822141730D+03
 0.153534639639908D+03 0.671444929671753D+02 -.157513894019270D+02 0.564924452068261D+02
 0.127527004643552D+03 -.671444929671753D+02 0.157513894019270D+02 -.564924452068261D+02
 0.000000000000000D+00 0.000000000000000D+00 0.000000000000000D+00 -.000000000000000D+00
 0.143484386885348D+03 0.000000000000000D+00 0.000000000000000D+00 0.143484386885348D+03
 0.147588292473996D+03 0.000000000000000D+00 0.000000000000000D+00 -.147588292473996D+03
 0.152733636849847D+03 0.642207737662219D+02 -.196687487350464D+02 0.564924452068261D+02
 0.128471234174085D+03 -.695883208909152D+02 0.124770147210484D+02 -.564924452068261D+02
 0.986780833541257D+01 0.536754712469328D+01 0.719173401399808D+01 -.410390558864819D+01
0.158177256086D-03 0.000000000000D+00 0.000000000000D+00 0.158545322604D-02 0.000000000000D+00  5 1 -1 25 23 21 0 0.13945002D+00 0.33519526D-02 0.16524520D+05 0.16524520D+05 0.16524520D+05 0.12430585D+01  1  2  2  2  5  2       -1 0.925837099428D-01 0.100000000000D+01
-.870275280964D-05 0.000000000000D+00 -.607442312398D-06 0.158545322604D-02 0.000000000000D+00  5 1 -1 25 23 21 2 0.13945002D+00 0.33519526D-02 0.16524520D+05 0.16524520D+05 0.16524520D+05 0.12430585D+01  1  2  3  2  5  2       -1 -.787100745878D-02 0.100000000000D+01
0.109313004197D-04 0.000000000000D+00 0.000000000000D+00 0.158545322604D-02 0.000000000000D+00  5 1 -1 25 23 21 2 0.13945002D+00 0.33519526D-02 0.16524520D+05 0.16524520D+05 0.16524520D+05 0.12430585D+01  1  2 15  2  5  2       -1 0.988656681626D-02 0.100000000000D+01
0.452373034151D-03 0.000000000000D+00 0.000000000000D+00 0.158545322604D-02 0.000000000000D+00  5 1 -1 25 23 21 2 0.13945002D+00 0.35542284D-02 0.17723581D+05 0.17723581D+05 0.17723581D+05 0.12396456D+01  1  2 12  2  5  2       -1 0.374127214024D+00 0.100000000000D+01
-.434146638058D-03 0.000000000000D+00 0.000000000000D+00 0.158545322604D-02 0.000000000000D+00  5 1 -1 25 23 21 2 0.13945002D+00 0.33519526D-02 0.16524520D+05 0.16524520D+05 0.16524520D+05 0.12430585D+01  1  2  4  2  5  2       -1 -.392654083265D+00 0.100000000000D+01
-.175365584034D-02 0.000000000000D+00 -.286647579261D-03 0.158545322604D-02 0.000000000000D+00  5 1 -1 25 23 21 2 0.13945002D+00 0.35955939D-02 0.16524520D+05 0.16524520D+05 0.16524520D+05 0.12430585D+01  1  2  5  2  5  2       -1 -.143162545327D+01 0.100000000000D+01
0.177011379688D-02 0.000000000000D+00 0.285943399674D-03 0.158545322604D-02 0.000000000000D+00  5 1 -1 25 23 21 2 0.13945002D+00 0.33519526D-02 0.16524520D+05 0.16524520D+05 0.16524520D+05 0.12430585D+01  1  2  6  2  5  2       -1 0.160093928931D+01 0.100000000000D+01
0.115278327557D-06 0.000000000000D+00 0.000000000000D+00 0.158545322604D-02 0.161623032288D-03  5 1 -1 25 23 21 2 0.14238087D+00 0.35202879D-02 0.17723581D+05 0.17723581D+05 0.17723581D+05 0.12396456D+01  1  2 11  2  5  2       -1 0.935102172391D-04 0.100000000000D+01
0.562648736571D-05 0.000000000000D+00 0.000000000000D+00 0.158545322604D-02 0.000000000000D+00  5 1 21 25 23 1 2 0.13945002D+00 0.35542284D-02 0.17723581D+05 0.17723581D+05 0.17723581D+05 0.12396456D+01  1  2 12  4  5  2       -1 0.871057341533D-01 0.100000000000D+01
-.203452566470D-04 0.000000000000D+00 -.340468819417D-05 0.158545322604D-02 0.000000000000D+00  5 1 21 25 23 1 2 0.13945002D+00 0.35955939D-02 0.16524520D+05 0.16524520D+05 0.16524520D+05 0.12430585D+01  1  2  5  4  5  2       -1 -.310532071894D+00 0.100000000000D+01
0.127033269105D-08 0.000000000000D+00 0.000000000000D+00 0.158545322604D-02 0.139533681341D-05  5 1 21 25 23 1 2 0.14238087D+00 0.35202879D-02 0.17723581D+05 0.17723581D+05 0.17723581D+05 0.12396456D+01  1  2 11  4  5  2       -1 0.193246568125D-04 0.100000000000D+01
  </mgrwgt>
  </event>
  <event>
  4     66 0.49155423E-03 0.17183528E+03 0.75467711E-02 0.10751112E+00
        1 -1    0    0  501    0 0.00000000E+00 0.00000000E+00 0.19750807E+04 0.19750807E+04 0.32000000E+00 0.0000E+00 0.9000E+01
       -1 -1    0    0    0  501 0.00000000E+00 0.00000000E+00 -.15022048E+02 0.15025456E+02 0.32000000E+00 0.0000E+00 0.9000E+01
       25  1    1    2    0    0 0.11866986E+03 -.59898261E+02 0.97076604E+03 0.98776619E+03 0.12500000E+03 0.0000E+00 0.9000E+01
       23  1    1    2    0    0 -.11866986E+03 0.59898261E+02 0.98929259E+03 0.10023400E+04 0.91188000E+02 0.0000E+00 0.9000E+01
#aMCatNLO 1  0  0  2  1 0.22924231D+03 0.00000000D+00  -5  5  0 0.00000000D+00 0.00000000D+00 0.00000000D+00 0.00000000D+00 0.00000000D+00
  <mgrwgt>
 0.1554423718D+00    5    2    0
 0.172259029680157D+03 0.000000000000000D+00 0.000000000000000D+00 0.172259029680157D+03
 0.172259029680157D+03 0.000000000000000D+00 0.000000000000000D+00 -.172259029680157D+03
 0.182867687858443D+03 0.118669863652292D+03 -.598982606781403D+02 -.120520990359615D+02
 0.161650371501871D+03 -.118669863652292D+03 0.598982606781403D+02 0.120520990359615D+02
 0.000000000000000D+00 0.000000000000000D+00 0.000000000000000D+00 -.000000000000000D+00
 0.300750692327091D+03 0.000000000000000D+00 0.000000000000000D+00 0.300750692327091D+03
 0.346909920623969D+03 0.000000000000000D+00 0.000000000000000D+00 -.346909920623969D+03
 0.178720500046052D+03 0.298514731654393D+02 -.123610895941221D+03 -.120520990359615D+02
 0.235096766063567D+03 -.216124491230270D+03 -.100094589679856D+02 0.120520990359615D+02
 0.233843346841441D+03 0.186273018064831D+03 0.133620354909207D+03 -.461592282968777D+02
0.637876707377D-03 0.000000000000D+00 0.000000000000D+00 0.156663982490D-02 0.000000000000D+00  5 1 -1 25 23 21 0 0.30385883D+00 0.23113484D-02 0.29527364D+05 0.29527364D+05 0.29527364D+05 0.12156229D+01  1  2  2  2  5  2       -1 0.124154757410D+00 0.100000000000D+01
-.354373334793D-04 0.000000000000D+00 -.244961451312D-05 0.156663982490D-02 0.000000000000D+00  5 1 -1 25 23 21 2 0.30385883D+00 0.23113484D-02 0.29527364D+05 0.29527364D+05 0.29527364D+05 0.12156229D+01  1  2  3  2  5  2       -1 -.101926096534D-01 0.100000000000D+01
0.440786785395D-04 0.000000000000D+00 0.000000000000D+00 0.156663982490D-02 0.000000000000D+00  5 1 -1 25 23 21 2 0.30385883D+00 0.23113484D-02 0.29527364D+05 0.29527364D+05 0.29527364D+05 0.12156229D+01  1  2 15  2  5  2       -1 0.126780635076D-01 0.100000000000D+01
0.249413521450D-03 0.000000000000D+00 -.233110496784D-03 0.156663982490D-02 0.000000000000D+00  5 1 -1 25 23 21 2 0.30385883D+00 0.10092363D-01 0.29527364D+05 0.29527364D+05 0.29527364D+05 0.12156229D+01  1  2  5  2  5  2       -1 0.798580261805D-02 0.100000000000D+01
0.435391839026D-04 0.000000000000D+00 -.414234111828D-04 0.156663982490D-02 0.000000000000D+00  5 1 21 25 23 1 2 0.30385883D+00 0.10092363D-01 0.29527364D+05 0.29527364D+05 0.29527364D+05 0.12156229D+01  1  2  5  4  5  2       -1 0.208163579256D-01 0.100000000000D+01
  </mgrwgt>
  </event>
  <event>
  5     66 0.49155423E-03 0.21450517E+03 0.75467711E-02 0.10973081E+00
        1 -1    0    0  501    0 0.00000000E+00 0.00000000E+00 0.93391761E+03 0.93391766E+03 0.32000000E+00 0.0000E+00 0.9000E+01
       21 -1    0    0  502  501 0.00000000E+00 0.00000000E+00 -.84255407E+02 0.84258745E+02 0.75000000E+00 0.0000E+00 0.9000E+01
       25  1    1    2    0    0 0.46953171E+02 0.20277898E+03 0.38057141E+03 0.45142387E+03 0.12500000E+03 0.0000E+00 0.9000E+01
       23  1    1    2    0    0 -.12668350E+03 -.12556185E+03 0.24331960E+03 0.31517323E+03 0.91188000E+02 0.0000E+00 0.9000E+01
        1  1    1    2  502    0 0.79730331E+02 -.77217134E+02 0.22577119E+03 0.25157930E+03 0.32000000E+00 0.0000E+00 0.9000E+01
#aMCatNLO 2  0  0  2  1 0.11099284D+03 0.00000000D+00  -5  5  0 0.00000000D+00 0.00000000D+00 0.00000000D+00 0.00000000D+00 0.00000000D+00
  <mgrwgt>
 0.4112257165D-01    1    2    0
 0.215703337877082D+03 0.000000000000000D+00 0.000000000000000D+00 0.215703337877082D+03
 0.215703337877082D+03 0.000000000000000D+00 0.000000000000000D+00 -.215703337877082D+03
 0.224175330855889D+03 0.895093595478093D+02 0.161564216435472D+03 0.226860636797195D+02
 0.207231344898274D+03 -.895093595478093D+02 -.161564216435472D+03 -.226860636797195D+02
 0.000000000000000D+00 0.000000000000000D+00 -.000000000000000D+00 0.000000000000000D+00
 0.299189694562015D+03 0.000000000000000D+00 0.000000000000000D+00 0.299189694562015D+03
 0.263007755107462D+03 0.000000000000000D+00 0.000000000000000D+00 -.263007755107462D+03
 0.243851539729555D+03 0.469531711916148D+02 0.202778982289205D+03 0.226860636797195D+02
 0.201604553900802D+03 -.126683501909132D+03 -.125561847980587D+03 -.226860636797195D+02
 0.116741356039120D+03 0.797303307175168D+02 -.772171343086177D+02 0.361819394545525D+02
0.295776832913D-04 0.000000000000D+00 0.000000000000D+00 0.140063990257D-02 0.359846595291D-07  5 1 21 25 23 1 2 0.14367978D+00 0.12962621D-01 0.76759724D+05 0.76759724D+05 0.76759724D+05 0.11742734D+01  1  2  1  4  5  2       -1 0.411225716485D-01 0.100000000000D+01
  </mgrwgt>
  </event>
  <event>
  4     66 0.49155423E-03 0.15634227E+03 0.75467711E-02 0.10321547E+00
        1 -1    0    0  501    0 0.00000000E+00 0.00000000E+00 0.26537673E+04 0.26537673E+04 0.32000000E+00 0.0000E+00 0.9000E+01
       -1 -1    0    0    0  501 0.00000000E+00 0.00000000E+00 -.10233713E+02 0.10238715E+02 0.32000000E+00 0.0000E+00 0.9000E+01
       25  1    1    2    0    0 -.89837480E+02 0.67369377E+02 0.18312447E+04 0.18389376E+04 0.12500000E+03 0.0000E+00 0.9000E+01
       23  1    1    2    0    0 0.89837480E+02 -.67369377E+02 0.81228887E+03 0.82506840E+03 0.91188000E+02 0.0000E+00 0.9000E+01
#aMCatNLO 1  0  0  2  1 0.37930072D+03 0.00000000D+00  -5  5  0 0.00000000D+00 0.00000000D+00 0.00000000D+00 0.00000000D+00 0.00000000D+00
  <mgrwgt>
 0.1732900665D+00    5    2    0
 0.164816809363835D+03 0.000000000000000D+00 0.000000000000000D+00 0.164816809363835D+03
 0.164816809363835D+03 0.000000000000000D+00 0.000000000000000D+00 -.164816809363835D+03
 0.175904496178388D+03 -.898374801278900D+02 0.673693773422491D+02 0.520383121993893D+02
 0.153729122549283D+03 0.898374801278900D+02 -.673693773422491D+02 -.520383121993893D+02
 0.000000000000000D+00 -.000000000000000D+00 -.000000000000000D+00 -.000000000000000D+00
 0.297413060125953D+03 0.000000000000000D+00 0.000000000000000D+00 0.297413060125953D+03
 0.103057289475151D+04 0.000000000000000D+00 0.000000000000000D+00 -.103057289475151D+04
 0.266566028586004D+03 0.331463920470728D+02 0.227213068184502D+03 0.520383121993893D+02
 0.235954977354260D+03 0.198149462167082D+03 0.734050727169748D+02 -.520383121993893D+02
 0.825464948937195D+03 -.231295854214155D+03 -.300618140901477D+03 -.733159834625554D+03
0.125987211265D-02 0.000000000000D+00 0.000000000000D+00 0.147932949529D-02 0.000000000000D+00  5 1 -1 25 23 21 0 0.40827228D+00 0.15748036D-02 0.24442906D+05 0.24442906D+05 0.24442906D+05 0.12243483D+01  1  2  2  2  5  2       -1 0.155198854003D+00 0.100000000000D+01
-.697557639333D-04 0.000000000000D+00 -.483824064453D-05 0.147932949529D-02 0.000000000000D+00  5 1 -1 25 23 21 2 0.40827228D+00 0.15748036D-02 0.24442906D+05 0.24442906D+05 0.24442906D+05 0.12243483D+01  1  2  3  2  5  2       -1 -.128810759663D-01 0.100000000000D+01
0.868835184497D-04 0.000000000000D+00 0.000000000000D+00 0.147932949529D-02 0.000000000000D+00  5 1 -1 25 23 21 2 0.40827228D+00 0.15748036D-02 0.24442906D+05 0.24442906D+05 0.24442906D+05 0.12243483D+01  1  2 15  2  5  2       -1 0.160438813693D-01 0.100000000000D+01
0.256912429462D-02 0.000000000000D+00 -.158628436023D-02 0.147932949529D-02 0.000000000000D+00  5 1 -1 25 23 21 2 0.40827228D+00 0.30570384D-01 0.24442906D+05 0.24442906D+05 0.24442906D+05 0.12243483D+01  1  2  5  2  5  2       -1 0.518173064341D-02 0.100000000000D+01
0.421744240496D-03 0.000000000000D+00 -.507730523861D-03 0.147932949529D-02 0.000000000000D+00  5 1 21 25 23 1 2 0.40827228D+00 0.30570384D-01 0.24442906D+05 0.24442906D+05 0.24442906D+05 0.12243483D+01  1  2  5  4  5  2       -1 0.974667641039D-02 0.100000000000D+01
  </mgrwgt>
  </event>
  <event>
  4     66 0.49155423E-03 0.11565445E+03 0.75467711E-02 0.12030891E+00
        1 -1    0    0  501    0 0.00000000E+00 0.00000000E+00 0.40961094E+04 0.40961094E+04 0.32000000E+00 0.0000E+00 0.9000E+01
       -1 -1    0    0    0  501 0.00000000E+00 0.00000000E+00 -.32998157E+01 0.33152954E+01 0.32000000E+00 0.0000E+00 0.9000E+01
       25  1    1    2    0    0 0.40234596E+02 -.60554928E+01 0.25513842E+04 0.25547684E+04 0.12500000E+03 0.0000E+00 0.9000E+01
       23  1    1    2    0    0 -.40234596E+02 0.60554928E+01 0.15414254E+04 0.15446563E+04 0.91188000E+02 0.0000E+00 0.9000E+01
#aMCatNLO 1  0  0  2  2 0.57458331D+02 0.00000000D+00  -5  5  0 0.00000000D+00 0.00000000D+00 0.00000000D+00 0.00000000D+00 0.00000000D+00
  <mgrwgt>
 0.4275189648D-01    4    2    0
 0.116396566214981D+03 0.000000000000000D+00 0.000000000000000D+00 0.116396566214981D+03
 0.116396566214981D+03 0.000000000000000D+00 0.000000000000000D+00 -.116396566214981D+03
 0.132096661358894D+03 0.402345959425616D+02 -.605549284368692D+01 0.130013936916492D+02
 0.100696471071068D+03 -.402345959425616D+02 0.605549284368692D+01 -.130013936916492D+02
 0.000000000000000D+00 -.000000000000000D+00 -.000000000000000D+00 0.000000000000000D+00
 0.149867040224468D+03 0.000000000000000D+00 0.000000000000000D+00 0.149867040224468D+03
 0.147422544206506D+03 0.000000000000000D+00 0.000000000000000D+00 -.147422544206506D+03
 0.140141399698119D+03 0.580354496260676D+02 0.218509097779233D+02 0.130013936916492D+02
 0.996378785261659D+02 -.271353164696084D+02 0.265912364391719D+02 -.130013936916492D+02
 0.575103062066893D+02 -.309001331564591D+02 -.484421462170951D+02 0.244449601796226D+01
0.106895303847D-02 0.000000000000D+00 0.000000000000D+00 0.220726300323D-02 0.000000000000D+00  5 1 -1 25 23 21 0 0.63017187D+00 0.50885566D-03 0.13375951D+05 0.13375951D+05 0.13375951D+05 0.12535362D+01  1  2  2  2  5  2       -1 0.576778071932D-01 0.100000000000D+01
-.593833259043D-04 0.000000000000D+00 -.410506112953D-05 0.220726300323D-02 0.000000000000D+00  5 1 -1 25 23 21 2 0.63017187D+00 0.50885566D-03 0.13375951D+05 0.13375951D+05 0.13375951D+05 0.12535362D+01  1  2  3  2  5  2       -1 -.503487158553D-02 0.100000000000D+01
0.740811674416D-04 0.000000000000D+00 0.000000000000D+00 0.220726300323D-02 0.000000000000D+00  5 1 -1 25 23 21 2 0.63017187D+00 0.50885566D-03 0.13375951D+05 0.13375951D+05 0.13375951D+05 0.12535362D+01  1  2 15  2  5  2       -1 0.628104201464D-02 0.100000000000D+01
-.190740110998D-03 0.000000000000D+00 0.000000000000D+00 0.220726300323D-02 0.000000000000D+00  5 1 -1 25 23 21 2 0.63017187D+00 0.50885566D-03 0.13375951D+05 0.13375951D+05 0.13375951D+05 0.12535362D+01  1  2  4  2  5  2       -1 -.161720811433D-01 0.100000000000D+01
  </mgrwgt>
  </event>
  <event>
  4     66 0.49155423E-03 0.12058981E+03 0.75467711E-02 0.11458458E+00
        1 -1    0    0  501    0 0.00000000E+00 0.00000000E+00 0.43638744E+03 0.43638756E+03 0.32000000E+00 0.0000E+00 0.9000E+01
       -1 -1    0    0    0  501 0.00000000E+00 0.00000000E+00 -.42883879E+02 0.42885073E+02 0.32000000E+00 0.0000E+00 0.9000E+01
       25  1    1    2    0    0 -.52918434E+02 0.10315558E+01 0.10350975E+03 0.17070646E+03 0.12500000E+03 0.0000E+00 0.9000E+01
       23  1    1    2    0    0 0.52918434E+02 -.10315558E+01 0.28999381E+03 0.30856618E+03 0.91188000E+02 0.0000E+00 0.9000E+01
#aMCatNLO 1  0  0  2  2 0.13349008D+03 0.00000000D+00  -5  5  0 0.00000000D+00 0.00000000D+00 0.00000000D+00 0.00000000D+00 0.00000000D+00
  <mgrwgt>
 0.1338318870D+00    5    2    0
 0.136800220771825D+03 0.000000000000000D+00 0.000000000000000D+00 0.136800220771825D+03
 0.136800220771825D+03 0.000000000000000D+00 0.000000000000000D+00 -.136800220771825D+03
 0.150158658014759D+03 -.529184336245213D+02 0.103155581174617D+01 -.641965563883910D+02
 0.123441783528891D+03 0.529184336245213D+02 -.103155581174617D+01 0.641965563883910D+02
 0.000000000000000D+00 -.000000000000000D+00 -.000000000000000D+00 -.000000000000000D+00
 0.209436607344311D+03 0.000000000000000D+00 0.000000000000000D+00 0.209436607344311D+03
 0.230066874720011D+03 0.000000000000000D+00 0.000000000000000D+00 -.230066874720011D+03
 0.142460116103586D+03 0.118884224025358D+02 0.201829690803444D+02 -.641965563883910D+02
 0.161968535030956D+03 0.116128818806655D+03 0.176480760004330D+02 0.641965563883910D+02
 0.135074830929781D+03 -.128017241209191D+03 -.378310450807774D+02 -.206302673756997D+02
0.197493228238D-03 0.000000000000D+00 0.000000000000D+00 0.154012646133D-02 0.000000000000D+00  5 1 -1 25 23 21 0 0.67136630D-01 0.65976207D-02 0.14541902D+05 0.14541902D+05 0.14541902D+05 0.12493611D+01  1  2  2  2  5  2       -1 0.117658469665D+00 0.100000000000D+01
-.107596309131D-04 0.000000000000D+00 -.758425997596D-06 0.154012646133D-02 0.000000000000D+00  5 1 -1 25 23 21 2 0.67136630D-01 0.65976207D-02 0.14541902D+05 0.14541902D+05 0.14541902D+05 0.12493611D+01  1  2  3  2  5  2       -1 -.100056266550D-01 0.100000000000D+01
0.135163464880D-04 0.000000000000D+00 0.000000000000D+00 0.154012646133D-02 0.000000000000D+00  5 1 -1 25 23 21 2 0.67136630D-01 0.65976207D-02 0.14541902D+05 0.14541902D+05 0.14541902D+05 0.12493611D+01  1  2 15  2  5  2       -1 0.125691594620D-01 0.100000000000D+01
0.587890343455D-05 0.000000000000D+00 -.583842989920D-04 0.154012646133D-02 0.000000000000D+00  5 1 -1 25 23 21 2 0.67136630D-01 0.16908241D-01 0.14541902D+05 0.14541902D+05 0.14541902D+05 0.12493611D+01  1  2  5  2  5  2       -1 0.129694535497D-02 0.100000000000D+01
0.416572613845D-05 0.000000000000D+00 -.607278509714D-05 0.154012646133D-02 0.000000000000D+00  5 1 21 25 23 1 2 0.67136630D-01 0.16908241D-01 0.14541902D+05 0.14541902D+05 0.14541902D+05 0.12493611D+01  1  2  5  4  5  2       -1 0.123129392030D-01 0.100000000000D+01
  </mgrwgt>
  </event>
  <event>
  4     66 0.49155423E-03 0.87225197E+02 0.75467711E-02 0.11543590E+00
        1 -1    0    0  501    0 0.00000000E+00 0.00000000E+00 0.16023889E+04 0.16023889E+04 0.32000000E+00 0.0000E+00 0.9000E+01
       -1 -1    0    0    0  501 0.00000000E+00 0.00000000E+00 -.17638459E+02 0.17641362E+02 0.32000000E+00 0.0000E+00 0.9000E+01
       25  1    1    2    0    0 0.11528913E+02 0.11515953E+03 0.57886093E+03 0.60340667E+03 0.12500000E+03 0.0000E+00 0.9000E+01
       23  1    1    2    0    0 -.11528913E+02 -.11515953E+03 0.10058895E+04 0.10166236E+04 0.91188000E+02 0.0000E+00 0.9000E+01
#aMCatNLO 1  0  0  2  1 0.65596911D+02 0.00000000D+00  -5  5  0 0.00000000D+00 0.00000000D+00 0.00000000D+00 0.00000000D+00 0.00000000D+00
  <mgrwgt>
 0.1787686485D+00    9    2    0
 0.168125094959540D+03 0.000000000000000D+00 0.000000000000000D+00 0.168125094959540D+03
 0.168125094959540D+03 0.000000000000000D+00 0.000000000000000D+00 -.168125094959540D+03
 0.178994603550388D+03 0.115289126220919D+02 0.115159528135457D+03 -.549493890187309D+02
 0.157255586368691D+03 -.115289126220919D+02 -.115159528135457D+03 0.549493890187309D+02
 0.000000000000000D+00 -.000000000000000D+00 -.000000000000000D+00 -.000000000000000D+00
 0.200477417667453D+03 0.000000000000000D+00 0.000000000000000D+00 0.200477417667453D+03
 0.208156301673109D+03 0.000000000000000D+00 0.000000000000000D+00 -.208156301673109D+03
 0.204899996840502D+03 0.175944197353021D+02 0.151756415831041D+03 -.549493890187309D+02
 0.137688889356871D+03 -.686881108981242D+01 -.870423057427206D+02 0.549493890187309D+02
 0.660448331431895D+02 -.107256086454896D+02 -.647141100883201D+02 -.767888400565643D+01
0.494386048006D-03 0.000000000000D+00 0.000000000000D+00 0.145047969269D-02 0.000000000000D+00  5 1 -1 25 23 21 0 0.24652159D+00 0.27138348D-02 0.25232408D+05 0.25232408D+05 0.25232408D+05 0.12228670D+01  1  2  2  2  5  2       -1 0.132028851092D+00 0.100000000000D+01
-.273582814577D-04 0.000000000000D+00 -.189857259918D-05 0.145047969269D-02 0.000000000000D+00  5 1 -1 25 23 21 2 0.24652159D+00 0.27138348D-02 0.25232408D+05 0.25232408D+05 0.25232408D+05 0.12228670D+01  1  2  3  2  5  2       -1 -.109257163015D-01 0.100000000000D+01
0.341432052065D-04 0.000000000000D+00 0.000000000000D+00 0.145047969269D-02 0.000000000000D+00  5 1 -1 25 23 21 2 0.24652159D+00 0.27138348D-02 0.25232408D+05 0.25232408D+05 0.25232408D+05 0.12228670D+01  1  2 15  2  5  2       -1 0.136353218782D-01 0.100000000000D+01
0.185499839896D-03 0.000000000000D+00 0.000000000000D+00 0.145047969269D-02 0.000000000000D+00  5 1 -1 25 23 21 2 0.24652159D+00 0.35674181D-02 0.37877005D+05 0.37877005D+05 0.37877005D+05 0.12044129D+01  1  2 12  2  5  2       -1 0.481420435245D-01 0.100000000000D+01
-.206793681431D-03 0.000000000000D+00 0.000000000000D+00 0.145047969269D-02 0.000000000000D+00  5 1 -1 25 23 21 2 0.24652159D+00 0.27138348D-02 0.25232408D+05 0.25232408D+05 0.25232408D+05 0.12228670D+01  1  2  4  2  5  2       -1 -.825844671474D-01 0.100000000000D+01
-.382873911526D-03 0.000000000000D+00 -.194275629290D-03 0.145047969269D-02 0.000000000000D+00  5 1 -1 25 23 21 2 0.24652159D+00 0.41059169D-02 0.25232408D+05 0.25232408D+05 0.25232408D+05 0.12228670D+01  1  2  5  2  5  2       -1 -.833126602299D-01 0.100000000000D+01
0.440550048508D-03 0.000000000000D+00 0.178733449600D-03 0.145047969269D-02 0.000000000000D+00  5 1 -1 25 23 21 2 0.24652159D+00 0.27138348D-02 0.25232408D+05 0.25232408D+05 0.25232408D+05 0.12228670D+01  1  2  6  2  5  2       -1 0.175936666711D+00 0.100000000000D+01
0.670492132714D-05 0.000000000000D+00 0.000000000000D+00 0.145047969269D-02 0.000000000000D+00  5 1 21 25 23 1 2 0.24652159D+00 0.35674181D-02 0.37877005D+05 0.37877005D+05 0.37877005D+05 0.12044129D+01  1  2 12  4  5  2       -1 0.321477212690D-01 0.100000000000D+01
-.117490685888D-04 0.000000000000D+00 -.948596512109D-05 0.145047969269D-02 0.000000000000D+00  5 1 21 25 23 1 2 0.24652159D+00 0.41059169D-02 0.25232408D+05 0.25232408D+05 0.25232408D+05 0.12228670D+01  1  2  5  4  5  2       -1 -.462991122911D-01 0.100000000000D+01
  </mgrwgt>
  </event>
  <event>
  5     66 0.49155423E-03 0.11062007E+03 0.75467711E-02 0.12456161E+00
        1 -1    0    0  502    0 0.00000000E+00 0.00000000E+00 0.12647909E+03 0.12647950E+03 0.32000000E+00 0.0000E+00 0.9000E+01
       -1 -1    0    0    0  501 0.00000000E+00 0.00000000E+00 -.11439276E+03 0.11439321E+03 0.32000000E+00 0.0000E+00 0.9000E+01
       25  1    1    2    0    0 0.17272167E+02 0.27531649E+01 -.75593815E+01 0.12644387E+03 0.12500000E+03 0.0000E+00 0.9000E+01
       23  1    1    2    0    0 -.23081353E+02 -.16800829E+02 0.24148768E+02 0.98556740E+02 0.91188000E+02 0.0000E+00 0.9000E+01
       21  1    1    2  502  501 0.58091865E+01 0.14047664E+02 -.45030587E+01 0.15872100E+02 0.75000000E+00 0.0000E+00 0.9000E+01
#aMCatNLO 2  0  0  1  1 0.15201431D+02 0.00000000D+00  -5  5  0 0.00000000D+00 0.00000000D+00 0.00000000D+00 0.00000000D+00 0.00000000D+00
  <mgrwgt>
 0.9814153927D-01    1    2    0
 0.111936346652556D+03 0.000000000000000D+00 0.000000000000000D+00 0.111936346652556D+03
 0.111936346652556D+03 0.000000000000000D+00 0.000000000000000D+00 -.111936346652556D+03
 0.128262028333702D+03 0.205847141179795D+02 0.107635034314731D+02 -.169282146382031D+02
 0.956106649714108D+02 -.205847141179795D+02 -.107635034314731D+02 0.169282146382031D+02
 0.000000000000000D+00 0.000000000000000D+00 0.000000000000000D+00 -.000000000000000D+00
 0.117465345880454D+03 0.000000000000000D+00 0.000000000000000D+00 0.117465345880454D+03
 0.123153731897825D+03 0.000000000000000D+00 0.000000000000000D+00 -.123153731897825D+03
 0.127347839073093D+03 0.172721668774263D+02 0.275316492562618D+01 -.169282146382031D+02
 0.970403654286609D+02 -.230813534129167D+02 -.168008289176164D+02 0.169282146382031D+02
 0.162308732765246D+02 0.580918653549033D+01 0.140476639919903D+02 -.568838601737074D+01
0.101304264240D-03 0.000000000000D+00 0.000000000000D+00 0.230852793480D-02 0.838667718325D-04  5 1 -1 25 23 21 2 0.19456975D-01 0.17597675D-01 0.14038881D+05 0.14038881D+05 0.14038881D+05 0.12511145D+01  1  2  1  1  5  1        1 0.981415392735D-01 0.100000000000D+01
  </mgrwgt>
  </event>
  <event>
  5     66 0.49155423E-03 0.17338480E+03 0.75467711E-02 0.11405263E+00
        1 -1    0    0  501    0 0.00000000E+00 0.00000000E+00 0.31956540E+03 0.31956556E+03 0.32000000E+00 0.0000E+00 0.9000E+01
       -1 -1    0    0    0  502 0.00000000E+00 0.00000000E+00 -.23998065E+03 0.23998086E+03 0.32000000E+00 0.0000E+00 0.9000E+01
       25  1    1    2    0    0 0.12080605E+03 -.63219444E+02 0.21110849E+03 0.28068238E+03 0.12500000E+03 0.0000E+00 0.9000E+01
       23  1    1    2    0    0 -.78855612E+02 0.11797977E+03 -.58822498E+02 0.17864146E+03 0.91188000E+02 0.0000E+00 0.9000E+01
       21  1    1    2  501  502 -.41950440E+02 -.54760330E+02 -.72701244E+02 0.10022259E+03 0.75000000E+00 0.0000E+00 0.9000E+01
#aMCatNLO 2  0  0  2  1 0.68982122D+02 0.00000000D+00  -5  5  0 0.00000000D+00 0.00000000D+00 0.00000000D+00 0.00000000D+00 0.00000000D+00
  <mgrwgt>
 0.2364922486D-01    2    2    0
 0.213909344879810D+03 0.000000000000000D+00 0.000000000000000D+00 0.213909344879810D+03
 0.213909344879810D+03 0.000000000000000D+00 0.000000000000000D+00 -.213909344879810D+03
 0.222452389902115D+03 0.990907429765015D+02 -.915656894309505D+02 0.125127195079896D+03
 0.205366299857505D+03 -.990907429765015D+02 0.915656894309505D+02 -.125127195079896D+03
 0.000000000000000D+00 -.000000000000000D+00 -.000000000000000D+00 -.000000000000000D+00
 0.226421026682347D+03 0.000000000000000D+00 0.000000000000000D+00 0.226421026682347D+03
 0.338700520733947D+03 0.000000000000000D+00 0.000000000000000D+00 -.338700520733947D+03
 0.223321775069718D+03 0.120806051999740D+03 -.632194437808755D+02 0.125127195079896D+03
 0.210022619703947D+03 -.788556116882711D+02 0.117979773690302D+03 -.125127195079896D+03
 0.131777152642629D+03 -.419504403114693D+02 -.547603299094267D+02 -.112279494051600D+03
-.109080058992D-02 0.000000000000D+00 0.000000000000D+00 0.979193625948D-03 0.000000000000D+00  5 1 -1 25 23 21 2 0.46447001D-01 0.37271918D-01 0.44655402D+05 0.44655402D+05 0.44655402D+05 0.11971748D+01  1  2 13  2  5  2       -1 -.955527115383D-01 0.100000000000D+01
0.143746563729D-02 0.000000000000D+00 0.000000000000D+00 0.979193625948D-03 0.177553334970D-05  5 1 -1 25 23 21 2 0.49163713D-01 0.36919961D-01 0.44655402D+05 0.44655402D+05 0.44655402D+05 0.11971748D+01  1  2  1  2  5  2       -1 0.119201936403D+00 0.100000000000D+01
  </mgrwgt>
  </event>
  <event>
  4     66 0.49155423E-03 0.11550810E+03 0.75467711E-02 0.12240816E+00
        1 -1    0    0  501    0 0.00000000E+00 0.00000000E+00 0.22096631E+03 0.22096654E+03 0.32000000E+00 0.0000E+00 0.9000E+01
       -1 -1    0    0    0  501 0.00000000E+00 0.00000000E+00 -.75994104E+02 0.75994778E+02 0.32000000E+00 0.0000E+00 0.9000E+01
       25  1    1    2    0    0 -.25573714E+02 0.31117199E+02 0.13575002E+02 0.13202869E+03 0.12500000E+03 0.0000E+00 0.9000E+01
       23  1    1    2    0    0 0.25573714E+02 -.31117199E+02 0.13139721E+03 0.16493263E+03 0.91188000E+02 0.0000E+00 0.9000E+01
#aMCatNLO 1  0  0  2  1 0.31549871D+02 0.00000000D+00  -5  5  0 0.00000000D+00 0.00000000D+00 0.00000000D+00 0.00000000D+00 0.00000000D+00
  <mgrwgt>
 0.1363145630D+00    4    2    0
 0.129584996366994D+03 0.000000000000000D+00 0.000000000000000D+00 0.129584996366994D+03
 0.129584996366994D+03 0.000000000000000D+00 0.000000000000000D+00 -.129584996366994D+03
 0.143687224365863D+03 -.255737140771106D+02 0.311171994287857D+02 -.582985719720235D+02
 0.115482768368124D+03 0.255737140771106D+02 -.311171994287857D+02 0.582985719720235D+02
 0.000000000000000D+00 -.000000000000000D+00 -.000000000000000D+00 0.000000000000000D+00
 0.196492725106884D+03 0.000000000000000D+00 0.000000000000000D+00 0.196492725106884D+03
 0.134314870113984D+03 0.000000000000000D+00 0.000000000000000D+00 -.134314870113984D+03
 0.146407372400520D+03 -.165647935778753D+02 0.462277277504486D+02 -.582985719720235D+02
 0.114675908384948D+03 0.327213178042749D+02 -.191286300368694D+02 0.582985719720235D+02
 0.697243144354001D+02 -.161565242263996D+02 -.270990977135792D+02 0.621778549929007D+02
0.250642442680D-03 0.000000000000D+00 0.000000000000D+00 0.165938044705D-02 0.000000000000D+00  5 1 -1 25 23 21 0 0.33994887D-01 0.11691470D-01 0.13342121D+05 0.13342121D+05 0.13342121D+05 0.12536634D+01  1  2  2  2  5  2       -1 0.145816169114D+00 0.100000000000D+01
-.137006916682D-04 0.000000000000D+00 -.962532975563D-06 0.165938044705D-02 0.000000000000D+00  5 1 -1 25 23 21 2 0.33994887D-01 0.11691470D-01 0.13342121D+05 0.13342121D+05 0.13342121D+05 0.12536634D+01  1  2  3  2  5  2       -1 -.125272415035D-01 0.100000000000D+01
0.171868436279D-04 0.000000000000D+00 0.000000000000D+00 0.165938044705D-02 0.000000000000D+00  5 1 -1 25 23 21 2 0.33994887D-01 0.11691470D-01 0.13342121D+05 0.13342121D+05 0.13342121D+05 0.12536634D+01  1  2 15  2  5  2       -1 0.157148081296D-01 0.100000000000D+01
-.138777913437D-04 0.000000000000D+00 0.000000000000D+00 0.165938044705D-02 0.000000000000D+00  5 1 -1 25 23 21 2 0.33994887D-01 0.11691470D-01 0.13342121D+05 0.13342121D+05 0.13342121D+05 0.12536634D+01  1  2  4  2  5  2       -1 -.126891727738D-01 0.100000000000D+01
  </mgrwgt>
  </event>
  <event>
  4     66 0.49155423E-03 0.41538089E+03 0.75467711E-02 0.91111485E-01
        1 -1    0    0  501    0 0.00000000E+00 0.00000000E+00 0.47210541E+03 0.47210552E+03 0.32000000E+00 0.0000E+00 0.9000E+01
       -1 -1    0    0    0  501 0.00000000E+00 0.00000000E+00 -.36668024E+03 0.36668038E+03 0.32000000E+00 0.0000E+00 0.9000E+01
       25  1    1    2    0    0 0.22308469E+03 -.33290199E+03 0.29193253E+02 0.42079420E+03 0.12500000E+03 0.0000E+00 0.9000E+01
       23  1    1    2    0    0 -.22308469E+03 0.33290199E+03 0.76231921E+02 0.41799171E+03 0.91188000E+02 0.0000E+00 0.9000E+01
#aMCatNLO 1  0  0  2  1 0.10589969D+04 0.00000000D+00  -5  5  0 0.00000000D+00 0.00000000D+00 0.00000000D+00 0.00000000D+00 0.00000000D+00
  <mgrwgt>
 0.1585223885D+00    5    2    0
 0.416067099506856D+03 0.000000000000000D+00 0.000000000000000D+00 0.416067099506856D+03
 0.416067099506856D+03 0.000000000000000D+00 0.000000000000000D+00 -.416067099506856D+03
 0.420459268861670D+03 0.223084688000416D+03 -.332901985572622D+03 -.238848645223751D+02
 0.411674930152043D+03 -.223084688000416D+03 0.332901985572622D+03 0.238848645223751D+02
 0.000000000000000D+00 0.000000000000000D+00 -.000000000000000D+00 -.000000000000000D+00
 0.922255837601216D+03 0.000000000000000D+00 0.000000000000000D+00 0.922255837601216D+03
 0.180008348926139D+04 0.000000000000000D+00 0.000000000000000D+00 -.180008348926139D+04
 0.171949991427994D+03 0.454081531780120D+02 -.106345721229381D+03 -.238848645223751D+02
 0.117486913530128D+04 -.698924062548618D+03 0.939647221981133D+03 0.238848645223751D+02
 0.137552020013333D+04 0.653515909370606D+03 -.833301500751753D+03 -.877827651660169D+03
0.976480124951D-02 0.000000000000D+00 0.000000000000D+00 0.122920645954D-02 0.000000000000D+00  5 1 -1 25 23 21 0 0.72631621D-01 0.56412364D-01 0.17254128D+06 0.17254128D+06 0.17254128D+06 0.11424178D+01  1  2  2  2  5  2       -1 0.154852787821D+00 0.100000000000D+01
-.542487161172D-03 0.000000000000D+00 -.374994079293D-04 0.122920645954D-02 0.000000000000D+00  5 1 -1 25 23 21 2 0.72631621D-01 0.56412364D-01 0.17254128D+06 0.17254128D+06 0.17254128D+06 0.11424178D+01  1  2  3  2  5  2       -1 -.112278083949D-01 0.100000000000D+01
0.666805569662D-03 0.000000000000D+00 0.000000000000D+00 0.122920645954D-02 0.000000000000D+00  5 1 -1 25 23 21 2 0.72631621D-01 0.56412364D-01 0.17254128D+06 0.17254128D+06 0.17254128D+06 0.11424178D+01  1  2 15  2  5  2       -1 0.138008154085D-01 0.100000000000D+01
0.608602861179D-02 0.000000000000D+00 -.457415408143D-02 0.122920645954D-02 0.000000000000D+00  5 1 -1 25 23 21 2 0.72631621D-01 0.37961147D+00 0.17254128D+06 0.17254128D+06 0.17254128D+06 0.11424178D+01  1  2  5  2  5  2       -1 0.439768621437D-03 0.100000000000D+01
0.102468338042D-02 0.000000000000D+00 -.106728785372D-02 0.122920645954D-02 0.000000000000D+00  5 1 21 25 23 1 2 0.72631621D-01 0.37961147D+00 0.17254128D+06 0.17254128D+06 0.17254128D+06 0.11424178D+01  1  2  5  4  5  2       -1 0.656825051145D-03 0.100000000000D+01
  </mgrwgt>
  </event>
  <event>
  4     66 0.49155423E-03 0.12827403E+03 0.75467711E-02 0.11287688E+00
        1 -1    0    0  501    0 0.00000000E+00 0.00000000E+00 0.16714351E+04 0.16714352E+04 0.32000000E+00 0.0000E+00 0.9000E+01
       -1 -1    0    0    0  501 0.00000000E+00 0.00000000E+00 -.16067160E+02 0.16070347E+02 0.32000000E+00 0.0000E+00 0.9000E+01
       25  1    1    2    0    0 0.37054324E+02 -.57567672E+02 0.36085090E+03 0.38797607E+03 0.12500000E+03 0.0000E+00 0.9000E+01
       23  1    1    2    0    0 -.37054324E+02 0.57567672E+02 0.12945171E+04 0.12995295E+04 0.91188000E+02 0.0000E+00 0.9000E+01
#aMCatNLO 1  0  0  1  1 0.15850351D+03 0.00000000D+00  -5  5  0 0.00000000D+00 0.00000000D+00 0.00000000D+00 0.00000000D+00 0.00000000D+00
  <mgrwgt>
 0.1643061004D+00    3    2    0
 0.163883893826177D+03 0.000000000000000D+00 0.000000000000000D+00 0.163883893826177D+03
 0.163883893826177D+03 0.000000000000000D+00 0.000000000000000D+00 -.163883893826177D+03
 0.175034697735793D+03 0.370543241728145D+02 -.575676715555384D+02 -.101612428684832D+03
 0.152733089916561D+03 -.370543241728145D+02 0.575676715555384D+02 0.101612428684832D+03
 0.000000000000000D+00 -.000000000000000D+00 0.000000000000000D+00 -.000000000000000D+00
 0.203200494595160D+03 0.000000000000000D+00 0.000000000000000D+00 0.203200494595160D+03
 0.478867850857303D+03 0.000000000000000D+00 0.000000000000000D+00 -.478867850857303D+03
 0.225621982853965D+03 0.109716272306106D+03 -.113655325766007D+03 -.101612428684832D+03
 0.138459170078556D+03 0.157554701414503D+02 0.168038665858314D+02 0.101612428684832D+03
 0.317987192519942D+03 -.125471742447556D+03 0.968514591801759D+02 -.275667356262144D+03
0.581283953723D-03 0.000000000000D+00 0.000000000000D+00 0.109289655118D-02 0.000000000000D+00  5 1 -1 25 23 21 0 0.25714412D+00 0.24721183D-02 0.16454227D+05 0.16454227D+05 0.16454227D+05 0.12432671D+01  1  2  2  1  5  1        1 0.160141851818D+00 0.100000000000D+01
-.299369206494D-04 0.000000000000D+00 -.223228343788D-05 0.109289655118D-02 0.000000000000D+00  5 1 -1 25 23 21 2 0.25714412D+00 0.24721183D-02 0.16454227D+05 0.16454227D+05 0.16454227D+05 0.12432671D+01  1  2  3  1  5  1        1 -.127483077387D-01 0.100000000000D+01
0.397158484309D-04 0.000000000000D+00 0.000000000000D+00 0.109289655118D-02 0.000000000000D+00  5 1 -1 25 23 21 2 0.25714412D+00 0.24721183D-02 0.16454227D+05 0.16454227D+05 0.16454227D+05 0.12432671D+01  1  2 15  1  5  1        1 0.169125563658D-01 0.100000000000D+01
  </mgrwgt>
  </event>
  <event>
  4     66 0.49155423E-03 0.81401711E+02 0.75467711E-02 0.11525185E+00
        1 -1    0    0  501    0 0.00000000E+00 0.00000000E+00 0.25064601E+03 0.25064621E+03 0.32000000E+00 0.0000E+00 0.9000E+01
       -1 -1    0    0    0  501 0.00000000E+00 0.00000000E+00 -.89450426E+02 0.89450999E+02 0.32000000E+00 0.0000E+00 0.9000E+01
       25  1    1    2    0    0 -.64754910E+02 0.76768361E+02 0.11288355E+03 0.19609762E+03 0.12500000E+03 0.0000E+00 0.9000E+01
       23  1    1    2    0    0 0.64754910E+02 -.76768361E+02 0.48312035E+02 0.14399960E+03 0.91188000E+02 0.0000E+00 0.9000E+01
#aMCatNLO 1  0  0  2  1 0.85582755D+02 0.00000000D+00  -5  5  0 0.00000000D+00 0.00000000D+00 0.00000000D+00 0.00000000D+00 0.00000000D+00
  <mgrwgt>
 0.1442168621D+00    9    2    0
 0.149734847109123D+03 0.000000000000000D+00 0.000000000000000D+00 0.149734847109123D+03
 0.149734847109123D+03 0.000000000000000D+00 0.000000000000000D+00 -.149734847109123D+03
 0.161939335237850D+03 -.647549100791611D+02 0.767683610448399D+02 0.226443957836291D+02
 0.137530358980397D+03 0.647549100791611D+02 -.767683610448399D+02 -.226443957836291D+02
 0.000000000000000D+00 0.000000000000000D+00 -.000000000000000D+00 -.000000000000000D+00
 0.176619253568658D+03 0.000000000000000D+00 0.000000000000000D+00 0.176619253568658D+03
 0.243384163081749D+03 0.000000000000000D+00 0.000000000000000D+00 -.243384163081749D+03
 0.196425594342122D+03 -.879222093299052D+02 0.121305113489905D+03 0.226443957836291D+02
 0.115033079848452D+03 0.484273839063212D+02 -.453803695776542D+02 -.226443957836291D+02
 0.108544742459833D+03 0.394948254235840D+02 -.759247439122508D+02 -.667649095130909D+02
0.357208774166D-03 0.000000000000D+00 0.000000000000D+00 0.169667786850D-02 0.000000000000D+00  5 1 -1 25 23 21 0 0.38560984D-01 0.13761664D-01 0.21904245D+05 0.21904245D+05 0.21904245D+05 0.12295012D+01  1  2  2  2  5  2       -1 0.140222443385D+00 0.100000000000D+01
-.198416581371D-04 0.000000000000D+00 -.137177574803D-05 0.169667786850D-02 0.000000000000D+00  5 1 -1 25 23 21 2 0.38560984D-01 0.13761664D-01 0.21904245D+05 0.21904245D+05 0.21904245D+05 0.12295012D+01  1  2  3  2  5  2       -1 -.117741964531D-01 0.100000000000D+01
0.246993209322D-04 0.000000000000D+00 0.000000000000D+00 0.169667786850D-02 0.000000000000D+00  5 1 -1 25 23 21 2 0.38560984D-01 0.13761664D-01 0.21904245D+05 0.21904245D+05 0.21904245D+05 0.12295012D+01  1  2 15  2  5  2       -1 0.146567718739D-01 0.100000000000D+01
0.966935410162D-04 0.000000000000D+00 0.000000000000D+00 0.169667786850D-02 0.000000000000D+00  5 1 -1 25 23 21 2 0.38560984D-01 0.22968743D-01 0.38706826D+05 0.38706826D+05 0.38706826D+05 0.12034523D+01  1  2 12  2  5  2       -1 0.244989950805D-01 0.100000000000D+01
-.207376548822D-03 0.000000000000D+00 0.000000000000D+00 0.169667786850D-02 0.000000000000D+00  5 1 -1 25 23 21 2 0.38560984D-01 0.13761664D-01 0.21904245D+05 0.21904245D+05 0.21904245D+05 0.12295012D+01  1  2  4  2  5  2       -1 -.123058879895D+00 0.100000000000D+01
-.221475619182D-03 0.000000000000D+00 -.111075318197D-03 0.169667786850D-02 0.000000000000D+00  5 1 -1 25 23 21 2 0.38560984D-01 0.26069411D-01 0.21904245D+05 0.21904245D+05 0.21904245D+05 0.12295012D+01  1  2  5  2  5  2       -1 -.471936002773D-01 0.100000000000D+01
0.257449118871D-03 0.000000000000D+00 0.917130537949D-04 0.169667786850D-02 0.000000000000D+00  5 1 -1 25 23 21 2 0.38560984D-01 0.13761664D-01 0.21904245D+05 0.21904245D+05 0.21904245D+05 0.12295012D+01  1  2  6  2  5  2       -1 0.152772337943D+00 0.100000000000D+01
0.555802771976D-05 0.000000000000D+00 0.000000000000D+00 0.169667786850D-02 0.000000000000D+00  5 1 21 25 23 1 2 0.38560984D-01 0.22968743D-01 0.38706826D+05 0.38706826D+05 0.38706826D+05 0.12034523D+01  1  2 12  4  5  2       -1 0.171673350974D-01 0.100000000000D+01
-.905920271233D-05 0.000000000000D+00 -.771362991125D-05 0.169667786850D-02 0.000000000000D+00  5 1 21 25 23 1 2 0.38560984D-01 0.26069411D-01 0.21904245D+05 0.21904245D+05 0.21904245D+05 0.12295012D+01  1  2  5  4  5  2       -1 -.230743446047D-01 0.100000000000D+01
  </mgrwgt>
  </event>
  <event>
  4     66 0.49155423E-03 0.85745379E+02 0.75467711E-02 0.12271351E+00
        3 -1    0    0  501    0 0.00000000E+00 0.00000000E+00 0.40017660E+02 0.40020783E+02 0.50000000E+00 0.0000E+00 0.9000E+01
       -3 -1    0    0    0  501 0.00000000E+00 0.00000000E+00 -.45164689E+03 0.45164716E+03 0.50000000E+00 0.0000E+00 0.9000E+01
       25  1    1    2    0    0 0.64100384E+02 0.99235374E+01 -.14318896E+03 0.20083678E+03 0.12500000E+03 0.0000E+00 0.9000E+01
       23  1    1    2    0    0 -.64100384E+02 -.99235374E+01 -.26844027E+03 0.29083117E+03 0.91188000E+02 0.0000E+00 0.9000E+01
#aMCatNLO 1  0  0  1  2 0.75487601D+01 0.00000000D+00  -5  5  0 0.00000000D+00 0.00000000D+00 0.00000000D+00 0.00000000D+00 0.00000000D+00
  <mgrwgt>
 0.6439062597D-01    8    2    0
 0.134442133631689D+03 0.000000000000000D+00 0.000000000000000D+00 0.134442133631689D+03
 0.134442133631689D+03 0.000000000000000D+00 0.000000000000000D+00 -.134442133631689D+03
 0.148034875093279D+03 0.641003840493246D+02 0.992353743720934D+01 0.456288112199296D+02
 0.120849392170100D+03 -.641003840493246D+02 -.992353743720934D+01 -.456288112199296D+02
 0.000000000000000D+00 0.000000000000000D+00 -.000000000000000D+00 -.000000000000000D+00
 0.137569352227232D+03 0.000000000000000D+00 0.000000000000000D+00 0.137569352227232D+03
 0.139129066650421D+03 0.000000000000000D+00 0.000000000000000D+00 -.139129066650421D+03
 0.146637254970070D+03 0.604528119535485D+02 0.118723906068713D+02 0.456288112199296D+02
 0.122352954814785D+03 -.671108421279310D+02 -.831508649653565D+01 -.456288112199296D+02
 0.770820909279850D+01 0.665803017438252D+01 -.355730411033562D+01 -.155971442318863D+01
0.319884241748D-03 0.000000000000D+00 0.000000000000D+00 0.172522230676D-02 0.000000000000D+00  5 3 -3 25 23 21 0 0.61568246D-02 0.69484398D-01 0.15968327D+05 0.15968327D+05 0.15968327D+05 0.12447372D+01  1  2  2  1  5  1        3 0.241407130646D-01 0.100000000000D+01
-.176884149121D-04 0.000000000000D+00 -.122843971577D-05 0.172522230676D-02 0.000000000000D+00  5 3 -3 25 23 21 2 0.61568246D-02 0.69484398D-01 0.15968327D+05 0.15968327D+05 0.15968327D+05 0.12447372D+01  1  2  3  1  5  1        3 -.206824264857D-02 0.100000000000D+01
0.221082592637D-04 0.000000000000D+00 0.000000000000D+00 0.172522230676D-02 0.000000000000D+00  5 3 -3 25 23 21 2 0.61568246D-02 0.69484398D-01 0.15968327D+05 0.15968327D+05 0.15968327D+05 0.12447372D+01  1  2 15  1  5  1        3 0.258503912997D-02 0.100000000000D+01
0.600839252264D-03 0.000000000000D+00 0.000000000000D+00 0.172522230676D-02 0.000000000000D+00  5 3 -3 25 23 21 2 0.64043204D-02 0.69484398D-01 0.16956293D+05 0.16956293D+05 0.16956293D+05 0.12417985D+01  1  2 12  1  5  1        3 0.659610750876D-01 0.100000000000D+01
-.389811430863D-03 0.000000000000D+00 0.000000000000D+00 0.172522230676D-02 0.000000000000D+00  5 3 -3 25 23 21 2 0.61568246D-02 0.69484398D-01 0.15968327D+05 0.15968327D+05 0.15968327D+05 0.12447372D+01  1  2  4  1  5  1        3 -.455792466549D-01 0.100000000000D+01
0.911116230225D-05 0.000000000000D+00 0.000000000000D+00 0.172522230676D-02 0.249221649849D-03  5 3 -3 25 23 21 2 0.63000366D-02 0.71906769D-01 0.16956293D+05 0.16956293D+05 0.16956293D+05 0.12417985D+01  1  2 11  1  5  1        3 0.954958710123D-03 0.100000000000D+01
0.684857178714D-05 0.000000000000D+00 0.000000000000D+00 0.172522230676D-02 0.000000000000D+00  5 21 -3 25 23 -3 2 0.64043204D-02 0.69484398D-01 0.16956293D+05 0.16956293D+05 0.16956293D+05 0.12417985D+01  1  2 12  3  5  1        3 0.181182903457D-01 0.100000000000D+01
0.109899003436D-06 0.000000000000D+00 0.000000000000D+00 0.172522230676D-02 0.106614939847D-05  5 21 -3 25 23 -3 2 0.63000366D-02 0.71906769D-01 0.16956293D+05 0.16956293D+05 0.16956293D+05 0.12417985D+01  1  2 11  3  5  1        3 0.278038931598D-03 0.100000000000D+01
  </mgrwgt>
  </event>
  <event>
  4     66 0.49155423E-03 0.12158949E+03 0.75467711E-02 0.11631027E+00
        3 -1    0    0  501    0 0.00000000E+00 0.00000000E+00 0.33145803E+02 0.33149574E+02 0.50000000E+00 0.0000E+00 0.9000E+01
       -3 -1    0    0    0  501 0.00000000E+00 0.00000000E+00 -.58045605E+03 0.58045626E+03 0.50000000E+00 0.0000E+00 0.9000E+01
       25  1    1    2    0    0 -.29076801E+02 0.46843419E+02 -.15285518E+03 0.20501091E+03 0.12500000E+03 0.0000E+00 0.9000E+01
       23  1    1    2    0    0 0.29076801E+02 -.46843419E+02 -.39445507E+03 0.40859493E+03 0.91188000E+02 0.0000E+00 0.9000E+01
#aMCatNLO 1  0  0  2  2 0.10472493D+03 0.00000000D+00  -5  5  0 0.00000000D+00 0.00000000D+00 0.00000000D+00 0.00000000D+00 0.00000000D+00
  <mgrwgt>
 0.4641507050D-01    6    2    0
 0.138711588110379D+03 0.000000000000000D+00 0.000000000000000D+00 0.138711588110379D+03
 0.138711588110379D+03 0.000000000000000D+00 0.000000000000000D+00 -.138711588110379D+03
 0.151885953633077D+03 -.290768008883644D+02 0.468434191184321D+02 0.663669846114950D+02
 0.125537222587682D+03 0.290768008883644D+02 -.468434191184321D+02 -.663669846114950D+02
 0.000000000000000D+00 0.000000000000000D+00 0.000000000000000D+00 -.000000000000000D+00
 0.185929660668163D+03 0.000000000000000D+00 0.000000000000000D+00 0.185929660668163D+03
 0.221062958023079D+03 0.000000000000000D+00 0.000000000000000D+00 -.221062958023079D+03
 0.146958907207547D+03 -.390060699840179D+02 -.677275908443276D+01 0.663669846114950D+02
 0.149572590791994D+03 0.199361405463463D+02 -.962012589622568D+02 -.663669846114950D+02
 0.110461120691701D+03 0.190699294376717D+02 0.102974018046690D+03 -.351332973549155D+02
0.504907727454D-03 0.000000000000D+00 0.000000000000D+00 0.150602995891D-02 0.000000000000D+00  5 3 -3 25 23 21 0 0.50996609D-02 0.89301237D-01 0.14784004D+05 0.14784004D+05 0.14784004D+05 0.12485413D+01  1  2  2  2  5  2       -3 0.297094341490D-01 0.100000000000D+01
-.274584614748D-04 0.000000000000D+00 -.193897861868D-05 0.150602995891D-02 0.000000000000D+00  5 3 -3 25 23 21 2 0.50996609D-02 0.89301237D-01 0.14784004D+05 0.14784004D+05 0.14784004D+05 0.12485413D+01  1  2  3  2  5  2       -3 -.251863003827D-02 0.100000000000D+01
0.346334386103D-04 0.000000000000D+00 0.000000000000D+00 0.150602995891D-02 0.000000000000D+00  5 3 -3 25 23 21 2 0.50996609D-02 0.89301237D-01 0.14784004D+05 0.14784004D+05 0.14784004D+05 0.12485413D+01  1  2 15  2  5  2       -3 0.317675551096D-02 0.100000000000D+01
-.130211520515D-03 0.000000000000D+00 -.142402049618D-03 0.150602995891D-02 0.000000000000D+00  5 3 -3 25 23 21 2 0.50996609D-02 0.17532707D+00 0.14784004D+05 0.14784004D+05 0.14784004D+05 0.12485413D+01  1  2  5  2  5  2       -3 -.238872483338D-02 0.100000000000D+01
0.205043938650D-03 0.000000000000D+00 0.115181135613D-03 0.150602995891D-02 0.000000000000D+00  5 3 -3 25 23 21 2 0.50996609D-02 0.89301237D-01 0.14784004D+05 0.14784004D+05 0.14784004D+05 0.12485413D+01  1  2  6  2  5  2       -3 0.188076751322D-01 0.100000000000D+01
-.110558225727D-05 0.000000000000D+00 -.104058030489D-04 0.150602995891D-02 0.000000000000D+00  5 3 21 25 23 3 2 0.50996609D-02 0.17532707D+00 0.14784004D+05 0.14784004D+05 0.14784004D+05 0.12485413D+01  1  2  5  4  5  2       -3 -.371439422048D-03 0.100000000000D+01
  </mgrwgt>
  </event>
  <event>
  4     66 0.49155423E-03 0.11043153E+03 0.75467711E-02 0.12583577E+00
        3 -1    0    0  501    0 0.00000000E+00 0.00000000E+00 0.14386581E+03 0.14386668E+03 0.50000000E+00 0.0000E+00 0.9000E+01
       -3 -1    0    0    0  501 0.00000000E+00 0.00000000E+00 -.17546417E+03 0.17546489E+03 0.50000000E+00 0.0000E+00 0.9000E+01
       25  1    1    2    0    0 0.18634686E+02 -.12312076E+02 0.97225823E+02 0.15992717E+03 0.12500000E+03 0.0000E+00 0.9000E+01
       23  1    1    2    0    0 -.18634686E+02 0.12312076E+02 -.12882419E+03 0.15940440E+03 0.91188000E+02 0.0000E+00 0.9000E+01
#aMCatNLO 1  0  0  2  2 0.15547338D+01 0.00000000D+00  -5  5  0 0.00000000D+00 0.00000000D+00 0.00000000D+00 0.00000000D+00 0.00000000D+00
  <mgrwgt>
 0.2560112799D-01    8    2    0
 0.158882182216893D+03 0.000000000000000D+00 0.000000000000000D+00 0.158882182216893D+03
 0.158882182216893D+03 0.000000000000000D+00 0.000000000000000D+00 -.158882182216893D+03
 0.170384020487879D+03 0.186346861683085D+02 -.123120761796493D+02 0.113608431417607D+03
 0.147380343945907D+03 -.186346861683085D+02 0.123120761796493D+02 -.113608431417607D+03
 0.000000000000000D+00 -.000000000000000D+00 -.000000000000000D+00 0.000000000000000D+00
 0.165993861125540D+03 0.000000000000000D+00 0.000000000000000D+00 0.165993861125540D+03
 0.158969079454613D+03 0.000000000000000D+00 0.000000000000000D+00 -.158969079454613D+03
 0.170459477499069D+03 0.194425383916033D+02 -.121055970929823D+02 0.113608431417607D+03
 0.147308690354588D+03 -.179362272188309D+02 0.124905954209214D+02 -.113608431417607D+03
 0.719477272649543D+01 -.150631117277246D+01 -.384998327939114D+00 0.702478167092667D+01
0.335300367310D-03 0.000000000000D+00 0.000000000000D+00 0.944445094355D-03 0.000000000000D+00  5 3 -3 25 23 21 0 0.22133323D-01 0.26994610D-01 0.12195123D+05 0.12195123D+05 0.12195123D+05 0.12582040D+01  1  2  2  2  5  2       -3 0.184113675548D-01 0.100000000000D+01
-.156307745980D-04 0.000000000000D+00 -.128764169708D-05 0.944445094355D-03 0.000000000000D+00  5 3 -3 25 23 21 2 0.22133323D-01 0.26994610D-01 0.12195123D+05 0.12195123D+05 0.12195123D+05 0.12582040D+01  1  2  3  2  5  2       -3 -.135873454374D-02 0.100000000000D+01
0.229777709557D-04 0.000000000000D+00 0.000000000000D+00 0.944445094355D-03 0.000000000000D+00  5 3 -3 25 23 21 2 0.22133323D-01 0.26994610D-01 0.12195123D+05 0.12195123D+05 0.12195123D+05 0.12582040D+01  1  2 15  2  5  2       -3 0.199738605019D-02 0.100000000000D+01
-.534257863899D-04 0.000000000000D+00 0.000000000000D+00 0.944445094355D-03 0.000000000000D+00  5 3 -3 25 23 21 2 0.22133323D-01 0.26994610D-01 0.12195123D+05 0.12195123D+05 0.12195123D+05 0.12582040D+01  1  2  4  2  5  2       -3 -.464413718204D-02 0.100000000000D+01
0.655714945003D-07 0.000000000000D+00 0.000000000000D+00 0.944445094355D-03 0.000000000000D+00  5 3 -3 25 23 21 2 0.22133323D-01 0.28205020D-01 0.12195123D+05 0.12195123D+05 0.12195123D+05 0.12582040D+01  1  2  5  2  5  2       -3 0.526241459256D-05 0.100000000000D+01
-.655084671268D-07 0.000000000000D+00 0.000000000000D+00 0.944445094355D-03 0.000000000000D+00  5 3 -3 25 23 21 2 0.22133323D-01 0.26994610D-01 0.12195123D+05 0.12195123D+05 0.12195123D+05 0.12582040D+01  1  2  6  2  5  2       -3 -.569444697924D-05 0.100000000000D+01
0.534754114512D-04 0.000000000000D+00 0.000000000000D+00 0.944445094355D-03 0.329852386184D-02  5 3 -3 25 23 21 2 0.23124026D-01 0.27009374D-01 0.12366163D+05 0.12366163D+05 0.12366163D+05 0.12574971D+01  1  2 11  2  5  2       -3 0.429592679417D-02 0.100000000000D+01
0.402738588954D-05 0.000000000000D+00 0.000000000000D+00 0.944445094355D-03 0.345989269851D-06  5 3 21 25 23 3 2 0.23124026D-01 0.27009374D-01 0.12366163D+05 0.12366163D+05 0.12366163D+05 0.12574971D+01  1  2 11  4  5  2       -3 0.689975134877D-02 0.100000000000D+01
  </mgrwgt>
  </event>
  <event>
  4     66 0.49155423E-03 0.21687804E+03 0.75467711E-02 0.93034188E-01
        3 -1    0    0  501    0 0.00000000E+00 0.00000000E+00 0.44901358E+02 0.44904141E+02 0.50000000E+00 0.0000E+00 0.9000E+01
       -3 -1    0    0    0  501 0.00000000E+00 0.00000000E+00 -.10556213E+04 0.10556214E+04 0.50000000E+00 0.0000E+00 0.9000E+01
       25  1    1    2    0    0 -.13993486E+03 -.12472047E+03 -.57304993E+03 0.61575010E+03 0.12500000E+03 0.0000E+00 0.9000E+01
       23  1    1    2    0    0 0.13993486E+03 0.12472047E+03 -.43767003E+03 0.48477548E+03 0.91188000E+02 0.0000E+00 0.9000E+01
#aMCatNLO 1  0  0  2  2 0.95828549D+03 0.00000000D+00  -5  5  0 0.00000000D+00 0.00000000D+00 0.00000000D+00 0.00000000D+00 0.00000000D+00
  <mgrwgt>
 0.3928156785D-01    5    2    0
 0.217716391719794D+03 0.000000000000000D+00 0.000000000000000D+00 0.217716391719794D+03
 0.217716391719794D+03 0.000000000000000D+00 0.000000000000000D+00 -.217716391719794D+03
 0.226110050780394D+03 -.139934855429225D+03 -.124720471510770D+03 -.190734183104523D+02
 0.209322732659194D+03 0.139934855429225D+03 0.124720471510770D+03 0.190734183104523D+02
 0.000000000000000D+00 -.000000000000000D+00 -.000000000000000D+00 -.000000000000000D+00
 0.923505565285506D+03 0.000000000000000D+00 0.000000000000000D+00 0.923505565285506D+03
 0.110425079616444D+04 0.000000000000000D+00 0.000000000000000D+00 -.110425079616444D+04
 0.142108754891738D+03 0.646728193130793D+02 -.485070849798363D+01 -.190734183104523D+02
 0.910465610787193D+03 0.762166217941741D+03 0.489255800194983D+03 0.190734183104523D+02
 0.975181995771013D+03 -.826839037254821D+03 -.484405091697000D+03 -.180745230878932D+03
0.413663662902D-02 0.000000000000D+00 0.000000000000D+00 0.140013712654D-02 0.000000000000D+00  5 3 -3 25 23 21 0 0.69081244D-02 0.16240350D+00 0.47036086D+05 0.47036086D+05 0.47036086D+05 0.11949190D+01  1  2  2  2  5  2       -3 0.385637643260D-01 0.100000000000D+01
-.229808986980D-03 0.000000000000D+00 -.158857738569D-04 0.140013712654D-02 0.000000000000D+00  5 3 -3 25 23 21 2 0.69081244D-02 0.16240350D+00 0.47036086D+05 0.47036086D+05 0.47036086D+05 0.11949190D+01  1  2  3  2  5  2       -3 -.305897558175D-02 0.100000000000D+01
0.283722599286D-03 0.000000000000D+00 0.000000000000D+00 0.140013712654D-02 0.000000000000D+00  5 3 -3 25 23 21 2 0.69081244D-02 0.16240350D+00 0.47036086D+05 0.47036086D+05 0.47036086D+05 0.11949190D+01  1  2 15  2  5  2       -3 0.377661689654D-02 0.100000000000D+01
0.244413203359D-02 0.000000000000D+00 -.151881616435D-02 0.140013712654D-02 0.000000000000D+00  5 3 -3 25 23 21 2 0.69081244D-02 0.92705163D+00 0.47036086D+05 0.47036086D+05 0.47036086D+05 0.11949190D+01  1  2  5  2  5  2       -3 0.154932551480D-06 0.100000000000D+01
0.439318624455D-03 0.000000000000D+00 -.324073655720D-03 0.140013712654D-02 0.000000000000D+00  5 3 21 25 23 3 2 0.69081244D-02 0.92705163D+00 0.47036086D+05 0.47036086D+05 0.47036086D+05 0.11949190D+01  1  2  5  4  5  2       -3 0.727752725075D-08 0.100000000000D+01
  </mgrwgt>
  </event>
  <event>
  4     66 0.49155423E-03 0.44074516E+02 0.75467711E-02 0.12476326E+00
        1 -1    0    0  501    0 0.00000000E+00 0.00000000E+00 0.10184904E+04 0.10184905E+04 0.32000000E+00 0.0000E+00 0.9000E+01
       -1 -1    0    0    0  501 0.00000000E+00 0.00000000E+00 -.18614066E+02 0.18616816E+02 0.32000000E+00 0.0000E+00 0.9000E+01
       25  1    1    2    0    0 -.12145855E+02 0.78727859E+01 0.23402752E+03 0.26571297E+03 0.12500000E+03 0.0000E+00 0.9000E+01
       23  1    1    2    0    0 0.12145855E+02 -.78727859E+01 0.76584883E+03 0.77139431E+03 0.91188000E+02 0.0000E+00 0.9000E+01
#aMCatNLO 1  0  0  1  2 0.15959615D+02 0.00000000D+00  -5  5  0 0.00000000D+00 0.00000000D+00 0.00000000D+00 0.00000000D+00 0.00000000D+00
  <mgrwgt>
 0.1313181617D+00    9    2    0
 0.137694225405164D+03 0.000000000000000D+00 0.000000000000000D+00 0.137694225405164D+03
 0.137694225405164D+03 0.000000000000000D+00 0.000000000000000D+00 -.137694225405164D+03
 0.150965930581054D+03 -.121458552682155D+02 0.787278590563548D+01 -.834038946218421D+02
 0.124422520229273D+03 0.121458552682155D+02 -.787278590563548D+01 0.834038946218421D+02
 0.000000000000000D+00 0.000000000000000D+00 -.000000000000000D+00 0.000000000000000D+00
 0.189411160042940D+03 0.000000000000000D+00 0.000000000000000D+00 0.189411160042940D+03
 0.139162050498452D+03 0.000000000000000D+00 0.000000000000000D+00 -.139162050498452D+03
 0.152045162396142D+03 -.185608604613565D+02 0.138569920585977D+02 -.834038946218421D+02
 0.123805355387230D+03 0.689065785772973D+01 -.297050075823063D+01 0.834038946218421D+02
 0.527226927580201D+02 0.116702026036268D+02 -.108864913003671D+02 0.502491095444877D+02
0.166851708743D-03 0.000000000000D+00 0.000000000000D+00 0.131317096941D-02 0.000000000000D+00  5 1 -1 25 23 21 0 0.15669105D+00 0.28639178D-02 0.11898971D+05 0.11898971D+05 0.11898971D+05 0.12594547D+01  1  2  2  1  5  1        1 0.100580721380D+00 0.100000000000D+01
-.865803806553D-05 0.000000000000D+00 -.640754494638D-06 0.131317096941D-02 0.000000000000D+00  5 1 -1 25 23 21 2 0.15669105D+00 0.28639178D-02 0.11898971D+05 0.11898971D+05 0.11898971D+05 0.12594547D+01  1  2  3  1  5  1        1 -.827882416543D-02 0.100000000000D+01
0.114365022887D-04 0.000000000000D+00 0.000000000000D+00 0.131317096941D-02 0.000000000000D+00  5 1 -1 25 23 21 2 0.15669105D+00 0.28639178D-02 0.11898971D+05 0.11898971D+05 0.11898971D+05 0.12594547D+01  1  2 15  1  5  1        1 0.109355942766D-01 0.100000000000D+01
0.128231071096D-02 0.000000000000D+00 0.000000000000D+00 0.131317096941D-02 0.000000000000D+00  5 1 -1 25 23 21 2 0.21614571D+00 0.28639178D-02 0.13757390D+05 0.13757390D+05 0.13757390D+05 0.12521267D+01  1  2 12  1  5  1        1 0.663430414869D+00 0.100000000000D+01
-.124064096320D-02 0.000000000000D+00 0.000000000000D+00 0.131317096941D-02 0.000000000000D+00  5 1 -1 25 23 21 2 0.15669105D+00 0.28639178D-02 0.11898971D+05 0.11898971D+05 0.11898971D+05 0.12594547D+01  1  2  4  1  5  1        1 -.118630205932D+01 0.100000000000D+01
-.135606431004D-02 0.000000000000D+00 -.805388745678D-04 0.131317096941D-02 0.000000000000D+00  5 1 -1 25 23 21 2 0.21635192D+00 0.28639178D-02 0.11898971D+05 0.11898971D+05 0.11898971D+05 0.12594547D+01  1  2  5  1  5  1        1 -.707158788491D+00 0.100000000000D+01
0.131692943794D-02 0.000000000000D+00 0.765216281801D-04 0.131317096941D-02 0.000000000000D+00  5 1 -1 25 23 21 2 0.15669105D+00 0.28639178D-02 0.11898971D+05 0.11898971D+05 0.11898971D+05 0.12594547D+01  1  2  6  1  5  1        1 0.125924917083D+01 0.100000000000D+01
0.521260827112D-04 0.000000000000D+00 0.000000000000D+00 0.131317096941D-02 0.000000000000D+00  5 21 -1 25 23 -1 2 0.21614571D+00 0.28639178D-02 0.13757390D+05 0.13757390D+05 0.13757390D+05 0.12521267D+01  1  2 12  3  5  1        1 0.320276680688D-01 0.100000000000D+01
-.532234051713D-04 0.000000000000D+00 -.328090356689D-05 0.131317096941D-02 0.000000000000D+00  5 21 -1 25 23 -1 2 0.21635192D+00 0.28639178D-02 0.11898971D+05 0.11898971D+05 0.11898971D+05 0.12594547D+01  1  2  5  3  5  1        1 -.331657357947D-01 0.100000000000D+01
  </mgrwgt>
  </event>
  <event>
  4     66 0.49155423E-03 0.13689155E+03 0.75467711E-02 0.11117499E+00
        1 -1    0    0  501    0 0.00000000E+00 0.00000000E+00 0.11548682E+04 0.11548682E+04 0.32000000E+00 0.0000E+00 0.9000E+01
       -1 -1    0    0    0  501 0.00000000E+00 0.00000000E+00 -.28894280E+02 0.28896052E+02 0.32000000E+00 0.0000E+00 0.9000E+01
       25  1    1    2    0    0 0.21342323E+02 0.80572238E+02 0.98468393E+03 0.99607973E+03 0.12500000E+03 0.0000E+00 0.9000E+01
       23  1    1    2    0    0 -.21342323E+02 -.80572238E+02 0.14128994E+03 0.18768452E+03 0.91188000E+02 0.0000E+00 0.9000E+01
#aMCatNLO 1  0  0  1  2 0.17994083D+03 0.00000000D+00  -5  5  0 0.00000000D+00 0.00000000D+00 0.00000000D+00 0.00000000D+00 0.00000000D+00
  <mgrwgt>
 0.1087825393D+00    5    2    0
 0.182675007720747D+03 0.000000000000000D+00 0.000000000000000D+00 0.182675007720747D+03
 0.182675007720747D+03 0.000000000000000D+00 0.000000000000000D+00 -.182675007720747D+03
 0.192678768973044D+03 0.213423227849624D+02 0.805722378921063D+02 0.120634687184773D+03
 0.172671246468449D+03 -.213423227849624D+02 -.805722378921063D+02 -.120634687184773D+03
 0.000000000000000D+00 0.000000000000000D+00 0.000000000000000D+00 0.000000000000000D+00
 0.301371015831772D+03 0.000000000000000D+00 0.000000000000000D+00 0.301371015831772D+03
 0.286446042395869D+03 0.000000000000000D+00 0.000000000000000D+00 -.286446042395869D+03
 0.173897679499308D+03 -.790841185804205D+01 0.363599999412088D+00 0.120634687184773D+03
 0.233360638537643D+03 -.537413789011051D+02 -.169413909453551D+03 -.120634687184773D+03
 0.180558740190690D+03 0.616497907591471D+02 0.169050309454139D+03 0.149249734359026D+02
0.415450005989D-03 0.000000000000D+00 0.000000000000D+00 0.941794303869D-03 0.000000000000D+00  5 1 -1 25 23 21 0 0.17767216D+00 0.44454135D-02 0.18739296D+05 0.18739296D+05 0.18739296D+05 0.12369513D+01  1  2  2  1  5  1        1 0.106454666929D+00 0.100000000000D+01
-.207445249146D-04 0.000000000000D+00 -.159543741350D-05 0.941794303869D-03 0.000000000000D+00  5 1 -1 25 23 21 2 0.17767216D+00 0.44454135D-02 0.18739296D+05 0.18739296D+05 0.18739296D+05 0.12369513D+01  1  2  3  1  5  1        1 -.813307179718D-02 0.100000000000D+01
0.284224054028D-04 0.000000000000D+00 0.000000000000D+00 0.941794303869D-03 0.000000000000D+00  5 1 -1 25 23 21 2 0.17767216D+00 0.44454135D-02 0.18739296D+05 0.18739296D+05 0.18739296D+05 0.12369513D+01  1  2 15  1  5  1        1 0.111432517612D-01 0.100000000000D+01
-.157860683483D-04 0.000000000000D+00 -.126062929914D-03 0.941794303869D-03 0.000000000000D+00  5 1 -1 25 23 21 2 0.37233826D+00 0.44454135D-02 0.18739296D+05 0.18739296D+05 0.18739296D+05 0.12369513D+01  1  2  5  1  5  1        1 -.939262423836D-03 0.100000000000D+01
0.653597104559D-05 0.000000000000D+00 -.100867844866D-04 0.941794303869D-03 0.000000000000D+00  5 21 -1 25 23 -1 2 0.37233826D+00 0.44454135D-02 0.18739296D+05 0.18739296D+05 0.18739296D+05 0.12369513D+01  1  2  5  3  5  1        1 0.256954843325D-03 0.100000000000D+01
  </mgrwgt>
  </event>
  <event>
  4     66 0.49155423E-03 0.62641191E+02 0.75467711E-02 0.11819989E+00
        1 -1    0    0  501    0 0.00000000E+00 0.00000000E+00 0.57789377E+02 0.57790263E+02 0.32000000E+00 0.0000E+00 0.9000E+01
       -1 -1    0    0    0  501 0.00000000E+00 0.00000000E+00 -.40881559E+03 0.40881572E+03 0.32000000E+00 0.0000E+00 0.9000E+01
       25  1    1    2    0    0 -.98798035E+02 0.45112178E+02 -.19016371E+03 0.25215748E+03 0.12500000E+03 0.0000E+00 0.9000E+01
       23  1    1    2    0    0 0.98798035E+02 -.45112178E+02 -.16086251E+03 0.21444850E+03 0.91188000E+02 0.0000E+00 0.9000E+01
#aMCatNLO 1  0  0  2  1 0.23829090D+02 0.00000000D+00  -5  5  0 0.00000000D+00 0.00000000D+00 0.00000000D+00 0.00000000D+00 0.00000000D+00
  <mgrwgt>
 0.1792026538D+00    9    2    0
 0.153705674024232D+03 0.000000000000000D+00 0.000000000000000D+00 0.153705674024232D+03
 0.153705674024232D+03 0.000000000000000D+00 0.000000000000000D+00 -.153705674024232D+03
 0.165594871840781D+03 -.987980354213067D+02 0.451121775340796D+02 -.707965386527935D+00
 0.141816476207684D+03 0.987980354213067D+02 -.451121775340796D+02 0.707965386527935D+00
 0.000000000000000D+00 0.000000000000000D+00 0.000000000000000D+00 -.000000000000000D+00
 0.165625789387173D+03 0.000000000000000D+00 0.000000000000000D+00 0.165625789387173D+03
 0.166554932704214D+03 0.000000000000000D+00 0.000000000000000D+00 -.166554932704214D+03
 0.169953391187118D+03 -.109009170586588D+03 0.370898192100884D+02 -.707965386527935D+00
 0.138380133469486D+03 0.902713173019841D+02 -.518111769081602D+02 0.707965386527935D+00
 0.238471974347833D+02 0.187378532846042D+02 0.147213576980718D+02 -.929143317041379D+00
0.477420033632D-03 0.000000000000D+00 0.000000000000D+00 0.169545886908D-02 0.000000000000D+00  5 1 -1 25 23 21 0 0.88907512D-02 0.62894784D-01 0.23624930D+05 0.23624930D+05 0.23624930D+05 0.12259406D+01  1  2  2  2  5  2       -1 0.931512120211D-01 0.100000000000D+01
-.265233351981D-04 0.000000000000D+00 -.183341863673D-05 0.169545886908D-02 0.000000000000D+00  5 1 -1 25 23 21 2 0.88907512D-02 0.62894784D-01 0.23624930D+05 0.23624930D+05 0.23624930D+05 0.12259406D+01  1  2  3  2  5  2       -1 -.777776572308D-02 0.100000000000D+01
0.328939247363D-04 0.000000000000D+00 0.000000000000D+00 0.169545886908D-02 0.000000000000D+00  5 1 -1 25 23 21 2 0.88907512D-02 0.62894784D-01 0.23624930D+05 0.23624930D+05 0.23624930D+05 0.12259406D+01  1  2 15  2  5  2       -1 0.964589250938D-02 0.100000000000D+01
0.531434373715D-03 0.000000000000D+00 0.000000000000D+00 0.169545886908D-02 0.000000000000D+00  5 1 -1 25 23 21 2 0.88907512D-02 0.70400701D-01 0.27582455D+05 0.27582455D+05 0.27582455D+05 0.12187467D+01  1  2 12  2  5  2       -1 0.123894444393D+00 0.100000000000D+01
-.429613567476D-03 0.000000000000D+00 0.000000000000D+00 0.169545886908D-02 0.000000000000D+00  5 1 -1 25 23 21 2 0.88907512D-02 0.62894784D-01 0.23624930D+05 0.23624930D+05 0.23624930D+05 0.12259406D+01  1  2  4  2  5  2       -1 -.125980901509D+00 0.100000000000D+01
-.172411762696D-02 0.000000000000D+00 -.411278147810D-03 0.169545886908D-02 0.000000000000D+00  5 1 -1 25 23 21 2 0.88907512D-02 0.72719969D-01 0.23624930D+05 0.23624930D+05 0.23624930D+05 0.12259406D+01  1  2  5  2  5  2       -1 -.380290049213D+00 0.100000000000D+01
0.176943757577D-02 0.000000000000D+00 0.406983183074D-03 0.169545886908D-02 0.000000000000D+00  5 1 -1 25 23 21 2 0.88907512D-02 0.62894784D-01 0.23624930D+05 0.23624930D+05 0.23624930D+05 0.12259406D+01  1  2  6  2  5  2       -1 0.518874071573D+00 0.100000000000D+01
0.956539403413D-05 0.000000000000D+00 0.000000000000D+00 0.169545886908D-02 0.000000000000D+00  5 1 21 25 23 1 2 0.88907512D-02 0.70400701D-01 0.27582455D+05 0.27582455D+05 0.27582455D+05 0.12187467D+01  1  2 12  4  5  2       -1 0.208297582760D-01 0.100000000000D+01
-.356031515796D-04 0.000000000000D+00 -.913475236259D-05 0.169545886908D-02 0.000000000000D+00  5 1 21 25 23 1 2 0.88907512D-02 0.72719969D-01 0.23624930D+05 0.23624930D+05 0.23624930D+05 0.12259406D+01  1  2  5  4  5  2       -1 -.731440084846D-01 0.100000000000D+01
  </mgrwgt>
  </event>
  <event>
  4     66 0.49155423E-03 0.12710266E+03 0.75467711E-02 0.11129383E+00
        1 -1    0    0  501    0 0.00000000E+00 0.00000000E+00 0.67055816E+03 0.67055823E+03 0.32000000E+00 0.0000E+00 0.9000E+01
       -1 -1    0    0    0  501 0.00000000E+00 0.00000000E+00 -.26478576E+02 0.26480509E+02 0.32000000E+00 0.0000E+00 0.9000E+01
       25  1    1    2    0    0 0.58557880E+02 0.31026614E+02 0.25114112E+03 0.28825083E+03 0.12500000E+03 0.0000E+00 0.9000E+01
       23  1    1    2    0    0 -.58557880E+02 -.31026614E+02 0.39293846E+03 0.40878792E+03 0.91188000E+02 0.0000E+00 0.9000E+01
#aMCatNLO 1  0  0  2  1 0.18605394D+03 0.00000000D+00  -5  5  0 0.00000000D+00 0.00000000D+00 0.00000000D+00 0.00000000D+00 0.00000000D+00
  <mgrwgt>
 0.1630434235D+00    3    2    0
 0.133252112586247D+03 0.000000000000000D+00 0.000000000000000D+00 0.133252112586247D+03
 0.133252112586247D+03 0.000000000000000D+00 0.000000000000000D+00 -.133252112586247D+03
 0.146966245357067D+03 0.585578798613504D+02 0.310266139655796D+02 -.397794068121696D+02
 0.119537979815427D+03 -.585578798613504D+02 -.310266139655796D+02 0.397794068121696D+02
 0.000000000000000D+00 -.000000000000000D+00 0.000000000000000D+00 0.000000000000000D+00
 0.357875276301038D+03 0.000000000000000D+00 0.000000000000000D+00 0.357875276301038D+03
 0.206809022106330D+03 0.000000000000000D+00 0.000000000000000D+00 -.206809022106330D+03
 0.170938329424292D+03 0.887634260449049D+02 -.642928103041880D+02 -.397794068121696D+02
 0.154085623589348D+03 -.325596683060816D+02 -.113068982689277D+03 0.397794068121696D+02
 0.239660345393729D+03 -.562037577388233D+02 0.177361792993465D+03 0.151066254194709D+03
0.231642596477D-03 0.000000000000D+00 0.000000000000D+00 0.178000020768D-02 0.000000000000D+00  5 1 -1 25 23 21 0 0.10316295D+00 0.40737817D-02 0.16155085D+05 0.16155085D+05 0.16155085D+05 0.12441663D+01  1  2  2  2  5  2       -1 0.159675456762D+00 0.100000000000D+01
-.128341037095D-04 0.000000000000D+00 -.889568563369D-06 0.178000020768D-02 0.000000000000D+00  5 1 -1 25 23 21 2 0.10316295D+00 0.40737817D-02 0.16155085D+05 0.16155085D+05 0.16155085D+05 0.12441663D+01  1  2  3  2  5  2       -1 -.136943729403D-01 0.100000000000D+01
0.159904975088D-04 0.000000000000D+00 0.000000000000D+00 0.178000020768D-02 0.000000000000D+00  5 1 -1 25 23 21 2 0.10316295D+00 0.40737817D-02 0.16155085D+05 0.16155085D+05 0.16155085D+05 0.12441663D+01  1  2 15  2  5  2       -1 0.170623396338D-01 0.100000000000D+01
  </mgrwgt>
  </event>
  <event>
  4     66 0.49155423E-03 0.11524849E+03 0.75467711E-02 0.10225624E+00
        3 -1    0    0  501    0 0.00000000E+00 0.00000000E+00 0.20367378E+03 0.20367439E+03 0.50000000E+00 0.0000E+00 0.9000E+01
       -3 -1    0    0    0  501 0.00000000E+00 0.00000000E+00 -.68590603E+02 0.68592426E+02 0.50000000E+00 0.0000E+00 0.9000E+01
       25  1    1    2    0    0 -.52582673E+01 0.39190163E+02 0.10631852E+03 0.16879617E+03 0.12500000E+03 0.0000E+00 0.9000E+01
       23  1    1    2    0    0 0.52582673E+01 -.39190163E+02 0.28764649E+02 0.10347065E+03 0.91188000E+02 0.0000E+00 0.9000E+01
#aMCatNLO 1  0  0  2  1 0.43931850D+03 0.00000000D+00  -5  5  0 0.00000000D+00 0.00000000D+00 0.00000000D+00 0.00000000D+00 0.00000000D+00
  <mgrwgt>
 0.2258751107D-01    5    2    0
 0.118196610700904D+03 0.000000000000000D+00 0.000000000000000D+00 0.118196610700904D+03
 0.118196610700904D+03 0.000000000000000D+00 0.000000000000000D+00 -.118196610700904D+03
 0.133657605336565D+03 -.525826732929838D+01 0.391901628066060D+02 0.259968695844401D+02
 0.102735616065243D+03 0.525826732929838D+01 -.391901628066060D+02 -.259968695844401D+02
 0.000000000000000D+00 0.000000000000000D+00 0.000000000000000D+00 -.000000000000000D+00
 0.265216875506960D+03 0.000000000000000D+00 0.000000000000000D+00 0.265216875506960D+03
 0.330784730875251D+04 0.000000000000000D+00 0.000000000000000D+00 -.330784730875251D+04
 0.270517047364538D+03 -.236578864272679D+03 -.301508982633460D+02 0.259968695844401D+02
 0.228364204525062D+03 -.184239534264499D+03 -.959943506159318D+02 -.259968695844401D+02
 0.307418293236987D+04 0.420818398537178D+03 0.126145248879278D+03 -.304263043324555D+04
0.150265969093D-03 0.000000000000D+00 0.000000000000D+00 0.210663637750D-02 0.000000000000D+00  5 3 -3 25 23 21 0 0.31334614D-01 0.10552588D-01 0.13282215D+05 0.13282215D+05 0.13282215D+05 0.12538895D+01  1  2  2  2  5  2       -3 0.224056641223D-01 0.100000000000D+01
-.834163356372D-05 0.000000000000D+00 -.577060887255D-06 0.210663637750D-02 0.000000000000D+00  5 3 -3 25 23 21 2 0.31334614D-01 0.10552588D-01 0.13282215D+05 0.13282215D+05 0.13282215D+05 0.12538895D+01  1  2  3  2  5  2       -3 -.195554052785D-02 0.100000000000D+01
0.104058780470D-04 0.000000000000D+00 0.000000000000D+00 0.210663637750D-02 0.000000000000D+00  5 3 -3 25 23 21 2 0.31334614D-01 0.10552588D-01 0.13282215D+05 0.13282215D+05 0.13282215D+05 0.12538895D+01  1  2 15  2  5  2       -3 0.243946417611D-02 0.100000000000D+01
-.111162049998D-02 0.000000000000D+00 -.380057121440D-03 0.210663637750D-02 0.000000000000D+00  5 3 -3 25 23 21 2 0.31334614D-01 0.42785859D+00 0.13282215D+05 0.13282215D+05 0.13282215D+05 0.12538895D+01  1  2  5  2  5  2       -3 -.413065949938D-04 0.100000000000D+01
-.505815909174D-03 0.000000000000D+00 -.132238157918D-03 0.210663637750D-02 0.000000000000D+00  5 3 21 25 23 3 2 0.31334614D-01 0.42785859D+00 0.13282215D+05 0.13282215D+05 0.13282215D+05 0.12538895D+01  1  2  5  4  5  2       -3 -.260770107477D-03 0.100000000000D+01
  </mgrwgt>
  </event>
  <event>
  4     66 0.49155423E-03 0.52430417E+02 0.75467711E-02 0.12435605E+00
        1 -1    0    0  501    0 0.00000000E+00 0.00000000E+00 0.22407359E+03 0.22407382E+03 0.32000000E+00 0.0000E+00 0.9000E+01
       -1 -1    0    0    0  501 0.00000000E+00 0.00000000E+00 -.63106423E+02 0.63107234E+02 0.32000000E+00 0.0000E+00 0.9000E+01
       25  1    1    2    0    0 0.26721118E+02 0.34077878E+01 0.14039330E+03 0.18989710E+03 0.12500000E+03 0.0000E+00 0.9000E+01
       23  1    1    2    0    0 -.26721118E+02 -.34077878E+01 0.20573866E+02 0.97283948E+02 0.91188000E+02 0.0000E+00 0.9000E+01
#aMCatNLO 1  0  0  1  2 0.15985878D+02 0.00000000D+00  -5  5  0 0.00000000D+00 0.00000000D+00 0.00000000D+00 0.00000000D+00 0.00000000D+00
  <mgrwgt>
 0.1297836125D+00    9    2    0
 0.118914389237795D+03 0.000000000000000D+00 0.000000000000000D+00 0.118914389237795D+03
 0.118914389237795D+03 0.000000000000000D+00 0.000000000000000D+00 -.118914389237795D+03
 0.134282059842785D+03 0.267211184875054D+02 0.340778781227938D+01 0.410004927363608D+02
 0.103546718632805D+03 -.267211184875054D+02 -.340778781227938D+01 -.410004927363608D+02
 0.000000000000000D+00 -.000000000000000D+00 -.000000000000000D+00 0.000000000000000D+00
 0.157703539470837D+03 0.000000000000000D+00 0.000000000000000D+00 0.157703539470837D+03
 0.120841220310558D+03 0.000000000000000D+00 0.000000000000000D+00 -.120841220310558D+03
 0.136352458761262D+03 0.352685039006474D+02 0.648731363718867D+01 0.410004927363608D+02
 0.102012966966379D+03 -.202289759948062D+02 -.106874265415204D+01 -.410004927363608D+02
 0.401793340537531D+02 -.150395279058412D+02 -.541857098303663D+01 0.368623191602794D+02
0.129115336231D-03 0.000000000000D+00 0.000000000000D+00 0.197710518994D-02 0.000000000000D+00  5 1 -1 25 23 21 0 0.34472940D-01 0.97087604D-02 0.12427026D+05 0.12427026D+05 0.12427026D+05 0.12572482D+01  1  2  2  1  5  1        1 0.977733086752D-01 0.100000000000D+01
-.713669036025D-05 0.000000000000D+00 -.495836887975D-06 0.197710518994D-02 0.000000000000D+00  5 1 -1 25 23 21 2 0.34472940D-01 0.97087604D-02 0.12427026D+05 0.12427026D+05 0.12427026D+05 0.12572482D+01  1  2  3  1  5  1        1 -.854242928346D-02 0.100000000000D+01
0.887848289495D-05 0.000000000000D+00 0.000000000000D+00 0.197710518994D-02 0.000000000000D+00  5 1 -1 25 23 21 2 0.34472940D-01 0.97087604D-02 0.12427026D+05 0.12427026D+05 0.12427026D+05 0.12572482D+01  1  2 15  1  5  1        1 0.106273088009D-01 0.100000000000D+01
0.735162009104D-03 0.000000000000D+00 0.000000000000D+00 0.197710518994D-02 0.000000000000D+00  5 1 -1 25 23 21 2 0.45931493D-01 0.97087604D-02 0.14332752D+05 0.14332752D+05 0.14332752D+05 0.12500817D+01  1  2 12  1  5  1        1 0.614158679583D+00 0.100000000000D+01
-.723202349952D-03 0.000000000000D+00 0.000000000000D+00 0.197710518994D-02 0.000000000000D+00  5 1 -1 25 23 21 2 0.34472940D-01 0.97087604D-02 0.12427026D+05 0.12427026D+05 0.12427026D+05 0.12572482D+01  1  2  4  1  5  1        1 -.865654052543D+00 0.100000000000D+01
-.846164063766D-03 0.000000000000D+00 -.769946659642D-04 0.197710518994D-02 0.000000000000D+00  5 1 -1 25 23 21 2 0.46163505D-01 0.97087604D-02 0.12427026D+05 0.12427026D+05 0.12427026D+05 0.12572482D+01  1  2  5  1  5  1        1 -.707456684067D+00 0.100000000000D+01
0.835923007177D-03 0.000000000000D+00 0.738246230773D-04 0.197710518994D-02 0.000000000000D+00  5 1 -1 25 23 21 2 0.34472940D-01 0.97087604D-02 0.12427026D+05 0.12427026D+05 0.12427026D+05 0.12572482D+01  1  2  6  1  5  1        1 0.100057769285D+01 0.100000000000D+01
0.275195236102D-04 0.000000000000D+00 0.000000000000D+00 0.197710518994D-02 0.000000000000D+00  5 21 -1 25 23 -1 2 0.45931493D-01 0.97087604D-02 0.14332752D+05 0.14332752D+05 0.14332752D+05 0.12500817D+01  1  2 12  3  5  1        1 0.110899930411D+00 0.100000000000D+01
-.304214022130D-04 0.000000000000D+00 -.291873960571D-05 0.197710518994D-02 0.000000000000D+00  5 21 -1 25 23 -1 2 0.46163505D-01 0.97087604D-02 0.12427026D+05 0.12427026D+05 0.12427026D+05 0.12572482D+01  1  2  5  3  5  1        1 -.122600141967D+00 0.100000000000D+01
  </mgrwgt>
  </event>
  <event>
  5     66 0.49155423E-03 0.11122528E+03 0.75467711E-02 0.12273274E+00
        1 -1    0    0  502    0 0.00000000E+00 0.00000000E+00 0.19691686E+02 0.19694286E+02 0.32000000E+00 0.0000E+00 0.9000E+01
       -1 -1    0    0    0  501 0.00000000E+00 0.00000000E+00 -.87353595E+03 0.87353601E+03 0.32000000E+00 0.0000E+00 0.9000E+01
       25  1    1    2    0    0 -.29625162E+02 -.34855181E+02 -.39990244E+03 0.42147301E+03 0.12500000E+03 0.0000E+00 0.9000E+01
       23  1    1    2    0    0 0.27372509E+01 0.12466097E+02 -.29628040E+03 0.31025831E+03 0.91188000E+02 0.0000E+00 0.9000E+01
       21  1    1    2  502  501 0.26887911E+02 0.22389084E+02 -.15766142E+03 0.16149897E+03 0.75000000E+00 0.0000E+00 0.9000E+01
#aMCatNLO 2  0  0  1  2 0.34989010D+02 0.00000000D+00  -5  5  0 0.00000000D+00 0.00000000D+00 0.00000000D+00 0.00000000D+00 0.00000000D+00
  <mgrwgt>
 0.2769960724D-01    1    2    0
 0.111283367554104D+03 0.000000000000000D+00 0.000000000000000D+00 0.111283367554104D+03
 0.111283367554104D+03 0.000000000000000D+00 0.000000000000000D+00 -.111283367554104D+03
 0.127704843684502D+03 -.139643307167169D+02 -.218146859064728D+02 0.355584686384113D+01
 0.948618914237060D+02 0.139643307167169D+02 0.218146859064728D+02 -.355584686384113D+01
 0.000000000000000D+00 0.000000000000000D+00 0.000000000000000D+00 -.000000000000000D+00
 0.124807321425606D+03 0.000000000000000D+00 0.000000000000000D+00 0.124807321425606D+03
 0.137825079547944D+03 0.000000000000000D+00 0.000000000000000D+00 -.137825079547944D+03
 0.133154714084021D+03 -.296251620133859D+02 -.348551805555360D+02 0.355584686384113D+01
 0.921454909794912D+02 0.273725093439606D+01 0.124660969936287D+02 -.355584686384113D+01
 0.373321959100375D+02 0.268879110789899D+02 0.223890835619073D+02 -.130177581223378D+02
0.109697047733D-03 0.000000000000D+00 0.000000000000D+00 0.236461711438D-02 0.163446148331D-04  5 1 -1 25 23 21 2 0.30296063D-02 0.13438643D+00 0.16922510D+05 0.16922510D+05 0.16922510D+05 0.12418957D+01  1  2  1  1  5  1        1 0.276996072420D-01 0.100000000000D+01
  </mgrwgt>
  </event>
  <event>
  4     66 0.49155423E-03 0.54360410E+02 0.75467711E-02 0.11921535E+00
        1 -1    0    0  501    0 0.00000000E+00 0.00000000E+00 0.51425133E+03 0.51425143E+03 0.32000000E+00 0.0000E+00 0.9000E+01
       -1 -1    0    0    0  501 0.00000000E+00 0.00000000E+00 -.43065214E+02 0.43066403E+02 0.32000000E+00 0.0000E+00 0.9000E+01
       25  1    1    2    0    0 -.10017376E+03 0.27057469E+01 0.22340715E+03 0.27491427E+03 0.12500000E+03 0.0000E+00 0.9000E+01
       23  1    1    2    0    0 0.10017376E+03 -.27057469E+01 0.24777897E+03 0.28240356E+03 0.91188000E+02 0.0000E+00 0.9000E+01
#aMCatNLO 1  0  0  2  1 0.17713691D+02 0.00000000D+00  -5  5  0 0.00000000D+00 0.00000000D+00 0.00000000D+00 0.00000000D+00 0.00000000D+00
  <mgrwgt>
 0.2164458437D+00    6    2    0
 0.148817682762319D+03 0.000000000000000D+00 0.000000000000000D+00 0.148817682762319D+03
 0.148817682762319D+03 0.000000000000000D+00 0.000000000000000D+00 -.148817682762319D+03
 0.161097387230764D+03 -.100173758683281D+03 0.270574685134385D+01 -.168897950792423D+02
 0.136537978293875D+03 0.100173758683281D+03 -.270574685134385D+01 0.168897950792423D+02
 0.000000000000000D+00 -.000000000000000D+00 -.000000000000000D+00 0.000000000000000D+00
 0.159902289247870D+03 0.000000000000000D+00 0.000000000000000D+00 0.159902289247870D+03
 0.156330028045619D+03 0.000000000000000D+00 0.000000000000000D+00 -.156330028045619D+03
 0.155523058711959D+03 -.908813846162397D+02 0.421076519646905D+01 -.168897950792423D+02
 0.142638953753521D+03 0.108367217181355D+03 -.137871188044652D+01 0.168897950792423D+02
 0.180703048280086D+02 -.174858325651153D+02 -.283205331602254D+01 0.357226120225115D+01
0.249955600569D-03 0.000000000000D+00 0.000000000000D+00 0.171913743701D-02 0.000000000000D+00  5 1 -1 25 23 21 0 0.79115689D-01 0.66255166D-02 0.21859456D+05 0.21859456D+05 0.21859456D+05 0.12295980D+01  1  2  2  2  5  2       -1 0.121062454325D+00 0.100000000000D+01
-.138857028590D-04 0.000000000000D+00 -.959895321004D-06 0.171913743701D-02 0.000000000000D+00  5 1 -1 25 23 21 2 0.79115689D-01 0.66255166D-02 0.21859456D+05 0.21859456D+05 0.21859456D+05 0.12295980D+01  1  2  3  2  5  2       -1 -.101681224629D-01 0.100000000000D+01
0.172772678384D-04 0.000000000000D+00 0.000000000000D+00 0.171913743701D-02 0.000000000000D+00  5 1 -1 25 23 21 2 0.79115689D-01 0.66255166D-02 0.21859456D+05 0.21859456D+05 0.21859456D+05 0.12295980D+01  1  2 15  2  5  2       -1 0.126516732346D-01 0.100000000000D+01
0.305055912634D-03 0.000000000000D+00 0.000000000000D+00 0.171913743701D-02 0.000000000000D+00  5 1 -1 25 23 21 2 0.79115689D-01 0.71921273D-02 0.24641525D+05 0.24641525D+05 0.24641525D+05 0.12239707D+01  1  2 12  2  5  2       -1 0.196220535723D+00 0.100000000000D+01
-.200199644835D-03 0.000000000000D+00 0.000000000000D+00 0.171913743701D-02 0.000000000000D+00  5 1 -1 25 23 21 2 0.79115689D-01 0.66255166D-02 0.21859456D+05 0.21859456D+05 0.21859456D+05 0.12295980D+01  1  2  4  2  5  2       -1 -.146600753766D+00 0.100000000000D+01
0.416749042573D-05 0.000000000000D+00 0.000000000000D+00 0.171913743701D-02 0.000000000000D+00  5 1 21 25 23 1 2 0.79115689D-01 0.71921273D-02 0.24641525D+05 0.24641525D+05 0.24641525D+05 0.12239707D+01  1  2 12  4  5  2       -1 0.432800566169D-01 0.100000000000D+01
  </mgrwgt>
  </event>
  <event>
  4     66 0.49155423E-03 0.12372853E+03 0.75467711E-02 0.11209375E+00
        3 -1    0    0  501    0 0.00000000E+00 0.00000000E+00 0.18242132E+03 0.18242200E+03 0.50000000E+00 0.0000E+00 0.9000E+01
       -3 -1    0    0    0  501 0.00000000E+00 0.00000000E+00 -.19524755E+03 0.19524819E+03 0.50000000E+00 0.0000E+00 0.9000E+01
       25  1    1    2    0    0 0.14495078E+03 -.48856598E+02 0.11802422E+02 0.19789389E+03 0.12500000E+03 0.0000E+00 0.9000E+01
       23  1    1    2    0    0 -.14495078E+03 0.48856598E+02 -.24628650E+02 0.17977630E+03 0.91188000E+02 0.0000E+00 0.9000E+01
#aMCatNLO 1  0  0  1  2 0.90297239D+02 0.00000000D+00  -5  5  0 0.00000000D+00 0.00000000D+00 0.00000000D+00 0.00000000D+00 0.00000000D+00
  <mgrwgt>
 0.2965433574D-01    9    2    0
 0.188726163747365D+03 0.000000000000000D+00 0.000000000000000D+00 0.188726163747365D+03
 0.188726163747365D+03 0.000000000000000D+00 0.000000000000000D+00 -.188726163747365D+03
 0.198409172863399D+03 0.144950778326948D+03 -.488565976012508D+02 0.185338773487827D+02
 0.179043154631330D+03 -.144950778326948D+03 0.488565976012508D+02 -.185338773487827D+02
 0.000000000000000D+00 -.000000000000000D+00 -.000000000000000D+00 0.000000000000000D+00
 0.282339940230449D+03 0.000000000000000D+00 0.000000000000000D+00 0.282339940230449D+03
 0.217139364354095D+03 0.000000000000000D+00 0.000000000000000D+00 -.217139364354095D+03
 0.224973175341386D+03 0.185136187553518D+03 -.192098170671880D+02 0.185338773487827D+02
 0.163129711591356D+03 -.112473381208974D+03 0.728167931848146D+02 -.185338773487827D+02
 0.111376417651802D+03 -.726628063445436D+02 -.536069761176266D+02 0.652005758763545D+02
0.777800813437D-03 0.000000000000D+00 0.000000000000D+00 0.148551863934D-02 0.000000000000D+00  5 3 -3 25 23 21 0 0.28064920D-01 0.30038186D-01 0.35273145D+05 0.35273145D+05 0.35273145D+05 0.12075863D+01  1  2  2  1  5  1        3 0.245421237038D-01 0.100000000000D+01
-.432099161281D-04 0.000000000000D+00 -.298695992326D-05 0.148551863934D-02 0.000000000000D+00  5 3 -3 25 23 21 2 0.28064920D-01 0.30038186D-01 0.35273145D+05 0.35273145D+05 0.35273145D+05 0.12075863D+01  1  2  3  1  5  1        3 -.198821584339D-02 0.100000000000D+01
0.535826595839D-04 0.000000000000D+00 0.000000000000D+00 0.148551863934D-02 0.000000000000D+00  5 3 -3 25 23 21 2 0.28064920D-01 0.30038186D-01 0.35273145D+05 0.35273145D+05 0.35273145D+05 0.12075863D+01  1  2 15  1  5  1        3 0.246549640134D-02 0.100000000000D+01
0.415573161784D-03 0.000000000000D+00 0.000000000000D+00 0.148551863934D-02 0.000000000000D+00  5 3 -3 25 23 21 2 0.43258010D-01 0.30038186D-01 0.56781913D+05 0.56781913D+05 0.56781913D+05 0.11868495D+01  1  2 12  1  5  1        3 0.829573709054D-02 0.100000000000D+01
-.611988621046D-03 0.000000000000D+00 0.000000000000D+00 0.148551863934D-02 0.000000000000D+00  5 3 -3 25 23 21 2 0.28064920D-01 0.30038186D-01 0.35273145D+05 0.35273145D+05 0.35273145D+05 0.12075863D+01  1  2  4  1  5  1        3 -.281594037057D-01 0.100000000000D+01
-.764039190773D-03 0.000000000000D+00 -.316827492276D-03 0.148551863934D-02 0.000000000000D+00  5 3 -3 25 23 21 2 0.47423813D-01 0.30038186D-01 0.35273145D+05 0.35273145D+05 0.35273145D+05 0.12075863D+01  1  2  5  1  5  1        3 -.128758955592D-01 0.100000000000D+01
0.849717733149D-03 0.000000000000D+00 0.277726476618D-03 0.148551863934D-02 0.000000000000D+00  5 3 -3 25 23 21 2 0.28064920D-01 0.30038186D-01 0.35273145D+05 0.35273145D+05 0.35273145D+05 0.12075863D+01  1  2  6  1  5  1        3 0.390980221866D-01 0.100000000000D+01
0.209655007052D-04 0.000000000000D+00 0.000000000000D+00 0.148551863934D-02 0.000000000000D+00  5 21 -3 25 23 -3 2 0.43258010D-01 0.30038186D-01 0.56781913D+05 0.56781913D+05 0.56781913D+05 0.11868495D+01  1  2 12  3  5  1        3 0.800808820149D-02 0.100000000000D+01
-.297071529479D-04 0.000000000000D+00 -.185652303558D-04 0.148551863934D-02 0.000000000000D+00  5 21 -3 25 23 -3 2 0.47423813D-01 0.30038186D-01 0.35273145D+05 0.35273145D+05 0.35273145D+05 0.12075863D+01  1  2  5  3  5  1        3 -.973161673521D-02 0.100000000000D+01
  </mgrwgt>
  </event>
  <event>
  4     66 0.49155423E-03 0.44087919E+02 0.75467711E-02 0.12430672E+00
        3 -1    0    0  501    0 0.00000000E+00 0.00000000E+00 0.41061806E+02 0.41064850E+02 0.50000000E+00 0.0000E+00 0.9000E+01
       -3 -1    0    0    0  501 0.00000000E+00 0.00000000E+00 -.33951810E+03 0.33951847E+03 0.50000000E+00 0.0000E+00 0.9000E+01
       25  1    1    2    0    0 -.45729953E+01 0.41498277E+02 -.13391411E+03 0.18788562E+03 0.12500000E+03 0.0000E+00 0.9000E+01
       23  1    1    2    0    0 0.45729953E+01 -.41498277E+02 -.16454219E+03 0.19269770E+03 0.91188000E+02 0.0000E+00 0.9000E+01
#aMCatNLO 1  0  0  2  1 0.78272991D+01 0.00000000D+00  -5  5  0 0.00000000D+00 0.00000000D+00 0.00000000D+00 0.00000000D+00 0.00000000D+00
  <mgrwgt>
 0.1208095201D-01   11    2    0
 0.118075720589901D+03 0.000000000000000D+00 0.000000000000000D+00 0.118075720589901D+03
 0.118075720589901D+03 0.000000000000000D+00 0.000000000000000D+00 -.118075720589901D+03
 0.133552544740287D+03 -.457299530692988D+01 0.414982766286026D+02 0.216393844040230D+02
 0.102598896439515D+03 0.457299530692988D+01 -.414982766286026D+02 -.216393844040230D+02
 0.000000000000000D+00 -.000000000000000D+00 -.000000000000000D+00 -.000000000000000D+00
 0.120207594177668D+03 0.000000000000000D+00 0.000000000000000D+00 0.120207594177668D+03
 0.125550536212118D+03 0.000000000000000D+00 0.000000000000000D+00 -.125550536212118D+03
 0.133810705141552D+03 -.274205235509889D+00 0.425672017471571D+02 0.216393844040230D+02
 0.102470419332740D+03 0.787019467514621D+01 -.406784042535824D+02 -.216393844040230D+02
 0.947700591549324D+01 -.759598943963632D+01 -.188879749357463D+01 -.534294203445007D+01
0.187034762853D-03 0.000000000000D+00 0.000000000000D+00 0.213330635929D-02 0.000000000000D+00  5 3 -3 25 23 21 0 0.63174634D-02 0.52233817D-01 0.13465132D+05 0.13465132D+05 0.13465132D+05 0.12532027D+01  1  2  2  2  5  2       -3 0.240151987696D-01 0.100000000000D+01
-.103869966173D-04 0.000000000000D+00 -.718262736738D-06 0.213330635929D-02 0.000000000000D+00  5 3 -3 25 23 21 2 0.63174634D-02 0.52233817D-01 0.13465132D+05 0.13465132D+05 0.13465132D+05 0.12532027D+01  1  2  3  2  5  2       -3 -.209457761524D-02 0.100000000000D+01
0.129589769236D-04 0.000000000000D+00 0.000000000000D+00 0.213330635929D-02 0.000000000000D+00  5 3 -3 25 23 21 2 0.63174634D-02 0.52233817D-01 0.13465132D+05 0.13465132D+05 0.13465132D+05 0.12532027D+01  1  2 15  2  5  2       -3 0.261322728607D-02 0.100000000000D+01
0.670098724198D-03 0.000000000000D+00 0.000000000000D+00 0.213330635929D-02 0.000000000000D+00  5 3 -3 25 23 21 2 0.63174634D-02 0.55991970D-01 0.14404342D+05 0.14404342D+05 0.14404342D+05 0.12498337D+01  1  2 12  2  5  2       -3 0.117510085343D+00 0.100000000000D+01
-.673993492053D-03 0.000000000000D+00 0.000000000000D+00 0.213330635929D-02 0.000000000000D+00  5 3 -3 25 23 21 2 0.63174634D-02 0.52233817D-01 0.13465132D+05 0.13465132D+05 0.13465132D+05 0.12532027D+01  1  2  4  2  5  2       -3 -.135913366808D+00 0.100000000000D+01
-.199229177084D-02 0.000000000000D+00 -.299726324104D-03 0.213330635929D-02 0.000000000000D+00  5 3 -3 25 23 21 2 0.63174634D-02 0.56340965D-01 0.13465132D+05 0.13465132D+05 0.13465132D+05 0.12532027D+01  1  2  5  2  5  2       -3 -.344888683510D+00 0.100000000000D+01
0.201007429174D-02 0.000000000000D+00 0.298869766366D-03 0.213330635929D-02 0.000000000000D+00  5 3 -3 25 23 21 2 0.63174634D-02 0.52233817D-01 0.13465132D+05 0.13465132D+05 0.13465132D+05 0.12532027D+01  1  2  6  2  5  2       -3 0.405339172775D+00 0.100000000000D+01
0.568148467931D-05 0.000000000000D+00 0.000000000000D+00 0.213330635929D-02 0.290685315998D-03  5 3 -3 25 23 21 2 0.64315261D-02 0.55540493D-01 0.14404342D+05 0.14404342D+05 0.14404342D+05 0.12498337D+01  1  2 11  2  5  2       -3 0.984235726213D-03 0.100000000000D+01
0.865705624690D-05 0.000000000000D+00 0.000000000000D+00 0.213330635929D-02 0.000000000000D+00  5 3 21 25 23 3 2 0.63174634D-02 0.55991970D-01 0.14404342D+05 0.14404342D+05 0.14404342D+05 0.12498337D+01  1  2 12  4  5  2       -3 0.304533158565D-01 0.100000000000D+01
-.247450993988D-04 0.000000000000D+00 -.381069022761D-05 0.213330635929D-02 0.000000000000D+00  5 3 21 25 23 3 2 0.63174634D-02 0.56340965D-01 0.13465132D+05 0.13465132D+05 0.13465132D+05 0.12532027D+01  1  2  5  4  5  2       -3 -.861813575259D-01 0.100000000000D+01
0.700908801661D-07 0.000000000000D+00 0.000000000000D+00 0.213330635929D-02 0.309878045558D-05  5 3 21 25 23 3 2 0.64315261D-02 0.55540493D-01 0.14404342D+05 0.14404342D+05 0.14404342D+05 0.12498337D+01  1  2 11  4  5  2       -3 0.243701710370D-03 0.100000000000D+01
  </mgrwgt>
  </event>
  <event>
  4     66 0.49155423E-03 0.23587185E+03 0.75467711E-02 0.99981622E-01
        1 -1    0    0  501    0 0.00000000E+00 0.00000000E+00 0.12567041E+04 0.12567041E+04 0.32000000E+00 0.0000E+00 0.9000E+01
       -1 -1    0    0    0  501 0.00000000E+00 0.00000000E+00 -.15866800E+03 0.15866832E+03 0.32000000E+00 0.0000E+00 0.9000E+01
       25  1    1    2    0    0 0.41912488E+03 0.10596685E+03 0.59124960E+03 0.74303144E+03 0.12500000E+03 0.0000E+00 0.9000E+01
       23  1    1    2    0    0 -.41912488E+03 -.10596685E+03 0.50678647E+03 0.67234100E+03 0.91188000E+02 0.0000E+00 0.9000E+01
#aMCatNLO 1  0  0  2  1 0.20053059D+03 0.00000000D+00  -5  5  0 0.00000000D+00 0.00000000D+00 0.00000000D+00 0.00000000D+00 0.00000000D+00
  <mgrwgt>
 0.1683999108D+00    9    2    0
 0.446541131232394D+03 0.000000000000000D+00 0.000000000000000D+00 0.446541131232394D+03
 0.446541131232394D+03 0.000000000000000D+00 0.000000000000000D+00 -.446541131232394D+03
 0.450633558639824D+03 0.419124877340976D+03 0.105966849911404D+03 0.234727093910670D+02
 0.442448703824965D+03 -.419124877340976D+03 -.105966849911404D+03 -.234727093910670D+02
 0.000000000000000D+00 0.000000000000000D+00 -.000000000000000D+00 -.000000000000000D+00
 0.539604596403022D+03 0.000000000000000D+00 0.000000000000000D+00 0.539604596403022D+03
 0.580340492329518D+03 0.000000000000000D+00 0.000000000000000D+00 -.580340492329518D+03
 0.390055852972905D+03 0.336898371830624D+03 0.149890251217809D+03 0.234727093910670D+02
 0.525262914310894D+03 -.513775224546413D+03 -.554069342456257D+02 -.234727093910670D+02
 0.204626321448741D+03 0.176876852715789D+03 -.944833169721834D+02 -.407358959264956D+02
0.855955036088D-02 0.000000000000D+00 0.000000000000D+00 0.122163323616D-02 0.000000000000D+00  5 1 -1 25 23 21 0 0.19333912D+00 0.24410490D-01 0.19884797D+06 0.19884797D+06 0.19884797D+06 0.11371060D+01  1  2  2  2  5  2       -1 0.127265056758D+00 0.100000000000D+01
-.475529468773D-03 0.000000000000D+00 -.328709271672D-04 0.122163323616D-02 0.000000000000D+00  5 1 -1 25 23 21 2 0.19333912D+00 0.24410490D-01 0.19884797D+06 0.19884797D+06 0.19884797D+06 0.11371060D+01  1  2  3  2  5  2       -1 -.914192230330D-02 0.100000000000D+01
0.586393366416D-03 0.000000000000D+00 0.000000000000D+00 0.122163323616D-02 0.000000000000D+00  5 1 -1 25 23 21 2 0.19333912D+00 0.24410490D-01 0.19884797D+06 0.19884797D+06 0.19884797D+06 0.11371060D+01  1  2 15  2  5  2       -1 0.112732500234D-01 0.100000000000D+01
0.285053756014D-02 0.000000000000D+00 0.000000000000D+00 0.122163323616D-02 0.000000000000D+00  5 1 -1 25 23 21 2 0.19333912D+00 0.33633064D-01 0.31059317D+06 0.31059317D+06 0.31059317D+06 0.11208952D+01  1  2 12  2  5  2       -1 0.302504888055D-01 0.100000000000D+01
-.359836596879D-02 0.000000000000D+00 0.000000000000D+00 0.122163323616D-02 0.000000000000D+00  5 1 -1 25 23 21 2 0.19333912D+00 0.24410490D-01 0.19884797D+06 0.19884797D+06 0.19884797D+06 0.11371060D+01  1  2  4  2  5  2       -1 -.691775889104D-01 0.100000000000D+01
-.613415258129D-02 0.000000000000D+00 -.311106189934D-02 0.122163323616D-02 0.000000000000D+00  5 1 -1 25 23 21 2 0.19333912D+00 0.38402405D-01 0.19884797D+06 0.19884797D+06 0.19884797D+06 0.11371060D+01  1  2  5  2  5  2       -1 -.537944009340D-01 0.100000000000D+01
0.709687742736D-02 0.000000000000D+00 0.281691569551D-02 0.122163323616D-02 0.000000000000D+00  5 1 -1 25 23 21 2 0.19333912D+00 0.24410490D-01 0.19884797D+06 0.19884797D+06 0.19884797D+06 0.11371060D+01  1  2  6  2  5  2       -1 0.136435502524D+00 0.100000000000D+01
0.115568296876D-03 0.000000000000D+00 0.000000000000D+00 0.122163323616D-02 0.000000000000D+00  5 1 21 25 23 1 2 0.19333912D+00 0.33633064D-01 0.31059317D+06 0.31059317D+06 0.31059317D+06 0.11208952D+01  1  2 12  4  5  2       -1 0.128993579329D-01 0.100000000000D+01
-.195566765631D-03 0.000000000000D+00 -.162513631878D-03 0.122163323616D-02 0.000000000000D+00  5 1 21 25 23 1 2 0.19333912D+00 0.38402405D-01 0.19884797D+06 0.19884797D+06 0.19884797D+06 0.11371060D+01  1  2  5  4  5  2       -1 -.176098330910D-01 0.100000000000D+01
  </mgrwgt>
  </event>
  <event>
  4     66 0.49155423E-03 0.15746845E+03 0.75467711E-02 0.11746789E+00
        1 -1    0    0  501    0 0.00000000E+00 0.00000000E+00 0.24790689E+03 0.24790709E+03 0.32000000E+00 0.0000E+00 0.9000E+01
       -1 -1    0    0    0  501 0.00000000E+00 0.00000000E+00 -.10082566E+03 0.10082617E+03 0.32000000E+00 0.0000E+00 0.9000E+01
       25  1    1    2    0    0 -.27204350E+02 0.11054767E+03 0.63393652E+02 0.18056749E+03 0.12500000E+03 0.0000E+00 0.9000E+01
       23  1    1    2    0    0 0.27204350E+02 -.11054767E+03 0.83687571E+02 0.16816577E+03 0.91188000E+02 0.0000E+00 0.9000E+01
#aMCatNLO 1  0  0  1  2 0.29808705D+02 0.00000000D+00  -5  5  0 0.00000000D+00 0.00000000D+00 0.00000000D+00 0.00000000D+00 0.00000000D+00
  <mgrwgt>
 0.1491882445D+00    4    2    0
 0.158099654566984D+03 0.000000000000000D+00 0.000000000000000D+00 0.158099654566984D+03
 0.158099654566984D+03 0.000000000000000D+00 0.000000000000000D+00 -.158099654566984D+03
 0.169658422162050D+03 -.272043499470855D+02 0.110547674586267D+03 -.140753400684236D+02
 0.146540886971918D+03 0.272043499470855D+02 -.110547674586267D+03 0.140753400684236D+02
 0.000000000000000D+00 -.000000000000000D+00 -.000000000000000D+00 -.000000000000000D+00
 0.161667775851680D+03 0.000000000000000D+00 0.000000000000000D+00 0.161667775851680D+03
 0.236278318621800D+03 0.000000000000000D+00 0.000000000000000D+00 -.236278318621800D+03
 0.173303033968126D+03 -.131598547001617D+02 0.118480566376035D+03 -.140753400684236D+02
 0.144298228641940D+03 0.391144013649567D+02 -.103820401911285D+03 0.140753400684236D+02
 0.803448318634148D+02 -.259545466647949D+02 -.146601644647502D+02 -.746105427701196D+02
0.480995813990D-03 0.000000000000D+00 0.000000000000D+00 0.165068214319D-02 0.000000000000D+00  5 1 -1 25 23 21 0 0.38139576D-01 0.15511695D-01 0.24796312D+05 0.24796312D+05 0.24796312D+05 0.12236787D+01  1  2  2  1  5  1        1 0.159118059785D+00 0.100000000000D+01
-.267214697092D-04 0.000000000000D+00 -.184715057483D-05 0.165068214319D-02 0.000000000000D+00  5 1 -1 25 23 21 2 0.38139576D-01 0.15511695D-01 0.24796312D+05 0.24796312D+05 0.24796312D+05 0.12236787D+01  1  2  3  1  5  1        1 -.132365056695D-01 0.100000000000D+01
0.331933315823D-04 0.000000000000D+00 0.000000000000D+00 0.165068214319D-02 0.000000000000D+00  5 1 -1 25 23 21 2 0.38139576D-01 0.15511695D-01 0.24796312D+05 0.24796312D+05 0.24796312D+05 0.12236787D+01  1  2 15  1  5  1        1 0.164423486605D-01 0.100000000000D+01
-.265178819676D-04 0.000000000000D+00 0.000000000000D+00 0.165068214319D-02 0.000000000000D+00  5 1 -1 25 23 21 2 0.38139576D-01 0.15511695D-01 0.24796312D+05 0.24796312D+05 0.24796312D+05 0.12236787D+01  1  2  4  1  5  1        1 -.131356582863D-01 0.100000000000D+01
  </mgrwgt>
  </event>
  <event>
  4     66 0.49155423E-03 0.10007753E+03 0.75467711E-02 0.12139956E+00
        1 -1    0    0  501    0 0.00000000E+00 0.00000000E+00 0.30986104E+02 0.30987756E+02 0.32000000E+00 0.0000E+00 0.9000E+01
       -1 -1    0    0    0  501 0.00000000E+00 0.00000000E+00 -.52984461E+03 0.52984471E+03 0.32000000E+00 0.0000E+00 0.9000E+01
       25  1    1    2    0    0 0.59242721E+02 0.33446126E+02 -.26664086E+03 0.30224277E+03 0.12500000E+03 0.0000E+00 0.9000E+01
       23  1    1    2    0    0 -.59242721E+02 -.33446126E+02 -.23221765E+03 0.25858970E+03 0.91188000E+02 0.0000E+00 0.9000E+01
#aMCatNLO 1  0  0  2  1 0.21986013D+02 0.00000000D+00  -5  5  0 0.00000000D+00 0.00000000D+00 0.00000000D+00 0.00000000D+00 0.00000000D+00
  <mgrwgt>
 0.1366404607D+00    9    2    0
 0.128133955953778D+03 0.000000000000000D+00 0.000000000000000D+00 0.128133955953778D+03
 0.128133955953778D+03 0.000000000000000D+00 0.000000000000000D+00 -.128133955953778D+03
 0.142395883250077D+03 0.592427207503061D+02 0.334461258848021D+02 0.482123095991428D+01
 0.113872028657479D+03 -.592427207503061D+02 -.334461258848021D+02 -.482123095991428D+01
 0.000000000000000D+00 -.000000000000000D+00 0.000000000000000D+00 -.000000000000000D+00
 0.133263775541864D+03 0.000000000000000D+00 0.000000000000000D+00 0.133263775541864D+03
 0.154542197336347D+03 0.000000000000000D+00 0.000000000000000D+00 -.154542197336347D+03
 0.145449814571882D+03 0.693564992108935D+02 0.264022784667428D+02 0.482123095991428D+01
 0.111759492071692D+03 -.513149065371794D+02 -.389675355037292D+02 -.482123095991428D+01
 0.305966662346354D+02 -.180415926737141D+02 0.125652570369865D+02 -.212784217944828D+02
0.326154144979D-03 0.000000000000D+00 0.000000000000D+00 0.198946618989D-02 0.000000000000D+00  5 1 -1 25 23 21 0 0.47672274D-02 0.81514691D-01 0.16394774D+05 0.16394774D+05 0.16394774D+05 0.12434444D+01  1  2  2  2  5  2       -1 0.876111548249D-01 0.100000000000D+01
-.181196633863D-04 0.000000000000D+00 -.125251779508D-05 0.198946618989D-02 0.000000000000D+00  5 1 -1 25 23 21 2 0.47672274D-02 0.81514691D-01 0.16394774D+05 0.16394774D+05 0.16394774D+05 0.12434444D+01  1  2  3  2  5  2       -1 -.752556901642D-02 0.100000000000D+01
0.225412746868D-04 0.000000000000D+00 0.000000000000D+00 0.198946618989D-02 0.000000000000D+00  5 1 -1 25 23 21 2 0.47672274D-02 0.81514691D-01 0.16394774D+05 0.16394774D+05 0.16394774D+05 0.12434444D+01  1  2 15  2  5  2       -1 0.936197956646D-02 0.100000000000D+01
0.605294624721D-03 0.000000000000D+00 0.000000000000D+00 0.198946618989D-02 0.000000000000D+00  5 1 -1 25 23 21 2 0.47672274D-02 0.99710878D-01 0.19461834D+05 0.19461834D+05 0.19461834D+05 0.12351323D+01  1  2 12  2  5  2       -1 0.162395722214D+00 0.100000000000D+01
-.614699720851D-03 0.000000000000D+00 0.000000000000D+00 0.198946618989D-02 0.000000000000D+00  5 1 -1 25 23 21 2 0.47672274D-02 0.81514691D-01 0.16394774D+05 0.16394774D+05 0.16394774D+05 0.12434444D+01  1  2  4  2  5  2       -1 -.255300833962D+00 0.100000000000D+01
-.103617268433D-02 0.000000000000D+00 -.196449100868D-03 0.198946618989D-02 0.000000000000D+00  5 1 -1 25 23 21 2 0.47672274D-02 0.10084472D+00 0.16394774D+05 0.16394774D+05 0.16394774D+05 0.12434444D+01  1  2  5  2  5  2       -1 -.273796042310D+00 0.100000000000D+01
0.105829033183D-02 0.000000000000D+00 0.192083577556D-03 0.198946618989D-02 0.000000000000D+00  5 1 -1 25 23 21 2 0.47672274D-02 0.81514691D-01 0.16394774D+05 0.16394774D+05 0.16394774D+05 0.12434444D+01  1  2  6  2  5  2       -1 0.439535589696D+00 0.100000000000D+01
0.174205261821D-04 0.000000000000D+00 0.000000000000D+00 0.198946618989D-02 0.000000000000D+00  5 1 21 25 23 1 2 0.47672274D-02 0.99710878D-01 0.19461834D+05 0.19461834D+05 0.19461834D+05 0.12351323D+01  1  2 12  4  5  2       -1 0.413374238194D-01 0.100000000000D+01
-.285726251528D-04 0.000000000000D+00 -.589404508315D-05 0.198946618989D-02 0.000000000000D+00  5 1 21 25 23 1 2 0.47672274D-02 0.10084472D+00 0.16394774D+05 0.16394774D+05 0.16394774D+05 0.12434444D+01  1  2  5  4  5  2       -1 -.669789641226D-01 0.100000000000D+01
  </mgrwgt>
  </event>
  <event>
  5     66 0.49155423E-03 0.13146030E+03 0.75467711E-02 0.10858188E+00
        1 -1    0    0  501    0 0.00000000E+00 0.00000000E+00 0.18639639E+04 0.18639639E+04 0.32000000E+00 0.0000E+00 0.9000E+01
       -1 -1    0    0    0  502 0.00000000E+00 0.00000000E+00 -.14236907E+03 0.14236943E+03 0.32000000E+00 0.0000E+00 0.9000E+01
       25  1    1    2    0    0 0.15091468E+03 -.10093332E+03 0.10201506E+04 0.10436929E+04 0.12500000E+03 0.0000E+00 0.9000E+01
       23  1    1    2    0    0 0.85528512E+02 0.54122043E+02 0.70852431E+03 0.72150279E+03 0.91188000E+02 0.0000E+00 0.9000E+01
       21  1    1    2  501  502 -.23644320E+03 0.46811275E+02 -.70800248E+01 0.24113766E+03 0.75000000E+00 0.0000E+00 0.9000E+01
#aMCatNLO 2  0  0  2  1 0.24103253D+03 0.00000000D+00  -5  5  0 0.00000000D+00 0.00000000D+00 0.00000000D+00 0.00000000D+00 0.00000000D+00
  <mgrwgt>
 0.1598231556D-01    1    2    0
 0.131816584127146D+03 0.000000000000000D+00 0.000000000000000D+00 0.131816584127146D+03
 0.131816584127146D+03 0.000000000000000D+00 0.000000000000000D+00 -.131816584127146D+03
 0.145680068574879D+03 0.114059092961091D+02 -.733132224297369D+02 -.963114894902503D+01
 0.117953099679413D+03 -.114059092961091D+02 0.733132224297369D+02 0.963114894902503D+01
 0.000000000000000D+00 -.000000000000000D+00 0.000000000000000D+00 -.000000000000000D+00
 0.190569913840491D+03 0.000000000000000D+00 0.000000000000000D+00 0.190569913840491D+03
 0.139251205624365D+04 0.000000000000000D+00 0.000000000000000D+00 -.139251205624365D+04
 0.220636659756244D+03 0.150914684362487D+03 -.100933317799847D+03 -.963114894902503D+01
 0.136573541325281D+03 0.855285115535648D+02 0.541220428982666D+02 0.963114894902503D+01
 0.122587176900261D+04 -.236443195916052D+03 0.468112749015803D+02 -.120194214240315D+04
0.163120999764D-02 0.000000000000D+00 0.000000000000D+00 0.192647757182D-02 0.164763855775D-05  5 1 -1 25 23 21 2 0.28676355D+00 0.21902952D-01 0.89309053D+05 0.89309053D+05 0.89309053D+05 0.11681096D+01  1  2  1  2  5  2       -1 0.159823155577D-01 0.100000000000D+01
  </mgrwgt>
  </event>
  <event>
  4     66 0.49155423E-03 0.15522927E+03 0.75467711E-02 0.11270067E+00
        3 -1    0    0  501    0 0.00000000E+00 0.00000000E+00 0.28106437E+04 0.28106438E+04 0.50000000E+00 0.0000E+00 0.9000E+01
       -3 -1    0    0    0  501 0.00000000E+00 0.00000000E+00 -.87249980E+01 0.87393129E+01 0.50000000E+00 0.0000E+00 0.9000E+01
       25  1    1    2    0    0 0.10846783E+03 0.22345553E+02 0.13155704E+04 0.13261278E+04 0.12500000E+03 0.0000E+00 0.9000E+01
       23  1    1    2    0    0 -.10846783E+03 -.22345553E+02 0.14863483E+04 0.14932552E+04 0.91188000E+02 0.0000E+00 0.9000E+01
#aMCatNLO 1  0  0  2  1 0.12446492D+03 0.00000000D+00  -5  5  0 0.00000000D+00 0.00000000D+00 0.00000000D+00 0.00000000D+00 0.00000000D+00
  <mgrwgt>
 0.4946906013D-02    3    2    0
 0.156662385974824D+03 0.000000000000000D+00 0.000000000000000D+00 0.156662385974824D+03
 0.156662385974824D+03 0.000000000000000D+00 0.000000000000000D+00 -.156662385974824D+03
 0.168327197235223D+03 0.108467826460968D+03 0.223455532129700D+02 -.210820350892721D+02
 0.144997574714426D+03 -.108467826460968D+03 -.223455532129700D+02 0.210820350892721D+02
 0.000000000000000D+00 0.000000000000000D+00 -.000000000000000D+00 0.000000000000000D+00
 0.265740026366079D+03 0.000000000000000D+00 0.000000000000000D+00 0.265740026366079D+03
 0.208427297717183D+03 0.000000000000000D+00 0.000000000000000D+00 -.208427297717183D+03
 0.168381773593079D+03 0.777504335560499D+02 0.789799946612549D+02 -.210820350892721D+02
 0.168759040252053D+03 -.137091314557330D+03 0.304283024868602D+02 0.210820350892721D+02
 0.137026510238130D+03 0.593408810012802D+02 -.109408297148115D+03 0.573127286488964D+02
0.121220097856D-02 0.000000000000D+00 0.000000000000D+00 0.164705603625D-02 0.000000000000D+00  5 3 -3 25 23 21 0 0.43240783D+00 0.13434119D-02 0.24096127D+05 0.24096127D+05 0.24096127D+05 0.12250160D+01  1  2  2  2  5  2       -3 0.484991736214D-02 0.100000000000D+01
-.673375836283D-04 0.000000000000D+00 -.465517093753D-05 0.164705603625D-02 0.000000000000D+00  5 3 -3 25 23 21 2 0.43240783D+00 0.13434119D-02 0.24096127D+05 0.24096127D+05 0.24096127D+05 0.12250160D+01  1  2  3  2  5  2       -3 -.404297215984D-03 0.100000000000D+01
0.834914950540D-04 0.000000000000D+00 0.000000000000D+00 0.164705603625D-02 0.000000000000D+00  5 3 -3 25 23 21 2 0.43240783D+00 0.13434119D-02 0.24096127D+05 0.24096127D+05 0.24096127D+05 0.12250160D+01  1  2 15  2  5  2       -3 0.501285867265D-03 0.100000000000D+01
  </mgrwgt>
  </event>
  <event>
  4     66 0.49155423E-03 0.13067869E+03 0.75467711E-02 0.11917652E+00
        1 -1    0    0  501    0 0.00000000E+00 0.00000000E+00 0.13695262E+04 0.13695263E+04 0.32000000E+00 0.0000E+00 0.9000E+01
       -1 -1    0    0    0  501 0.00000000E+00 0.00000000E+00 -.12828819E+02 0.12832809E+02 0.32000000E+00 0.0000E+00 0.9000E+01
       25  1    1    2    0    0 0.66801112E+01 0.72510195E+02 0.86428416E+03 0.87630728E+03 0.12500000E+03 0.0000E+00 0.9000E+01
       23  1    1    2    0    0 -.66801112E+01 -.72510195E+02 0.49241325E+03 0.50605179E+03 0.91188000E+02 0.0000E+00 0.9000E+01
#aMCatNLO 1  0  0  1  2 0.48822119D+02 0.00000000D+00  -5  5  0 0.00000000D+00 0.00000000D+00 0.00000000D+00 0.00000000D+00 0.00000000D+00
  <mgrwgt>
 0.1933486725D+00    3    2    0
 0.132560128575274D+03 0.000000000000000D+00 0.000000000000000D+00 0.132560128575274D+03
 0.132560128575274D+03 0.000000000000000D+00 0.000000000000000D+00 -.132560128575274D+03
 0.146345851202741D+03 0.668011120310117D+01 0.725101948504094D+02 0.221304297591485D+02
 0.118774405947808D+03 -.668011120310117D+01 -.725101948504094D+02 -.221304297591485D+02
 0.000000000000000D+00 -.000000000000000D+00 -.000000000000000D+00 -.000000000000000D+00
 0.139383934528562D+03 0.000000000000000D+00 0.000000000000000D+00 0.139383934528562D+03
 0.264476654864394D+03 0.000000000000000D+00 0.000000000000000D+00 -.264476654864394D+03
 0.158166699952936D+03 0.282864695325428D+02 0.900101366183945D+02 0.221304297591485D+02
 0.111411396368213D+03 0.965247314626232D+01 -.592817150355070D+02 -.221304297591485D+02
 0.134282493071807D+03 -.379389426788051D+02 -.307284215828875D+02 -.125092720335832D+03
0.316711627931D-03 0.000000000000D+00 0.000000000000D+00 0.188176841234D-02 0.000000000000D+00  5 1 -1 25 23 21 0 0.21069665D+00 0.19739743D-02 0.17076920D+05 0.17076920D+05 0.17076920D+05 0.12414529D+01  1  2  2  1  5  1        1 0.189358363339D+00 0.100000000000D+01
-.175907189654D-04 0.000000000000D+00 -.121625604334D-05 0.188176841234D-02 0.000000000000D+00  5 1 -1 25 23 21 2 0.21069665D+00 0.19739743D-02 0.17076920D+05 0.17076920D+05 0.17076920D+05 0.12414529D+01  1  2  3  1  5  1        1 -.162093103009D-01 0.100000000000D+01
0.219210949319D-04 0.000000000000D+00 0.000000000000D+00 0.188176841234D-02 0.000000000000D+00  5 1 -1 25 23 21 2 0.21069665D+00 0.19739743D-02 0.17076920D+05 0.17076920D+05 0.17076920D+05 0.12414529D+01  1  2 15  1  5  1        1 0.201996195030D-01 0.100000000000D+01
  </mgrwgt>
  </event>
  <event>
  5     66 -.49155423E-03 0.12212525E+03 0.75467711E-02 0.12138513E+00
        1 -1    0    0  501    0 0.00000000E+00 0.00000000E+00 0.16409508E+04 0.16409508E+04 0.32000000E+00 0.0000E+00 0.9000E+01
       -1 -1    0    0    0  502 0.00000000E+00 0.00000000E+00 -.12238254E+02 0.12242437E+02 0.32000000E+00 0.0000E+00 0.9000E+01
       25  1    1    2    0    0 0.52644916E+02 -.53609038E+02 0.90980220E+03 0.92141763E+03 0.12500000E+03 0.0000E+00 0.9000E+01
       23  1    1    2    0    0 -.28180294E+02 0.31784007E+02 0.60225213E+03 0.61059580E+03 0.91188000E+02 0.0000E+00 0.9000E+01
       21  1    1    2  501  502 -.24464623E+02 0.21825031E+02 0.11665819E+03 0.12117981E+03 0.75000000E+00 0.0000E+00 0.9000E+01
#aMCatNLO 2  0  0  2  1 0.32784901D+02 0.00000000D+00  -5  5  0 0.00000000D+00 0.00000000D+00 0.00000000D+00 0.00000000D+00 0.00000000D+00
  <mgrwgt>
 -.1163148586D-01    2    2    0
 0.122149520639626D+03 0.000000000000000D+00 0.000000000000000D+00 0.122149520639626D+03
 0.122149520639626D+03 0.000000000000000D+00 0.000000000000000D+00 -.122149520639626D+03
 0.137110178319090D+03 0.385393341745077D+02 -.410253665737584D+02 0.241661282933726D+01
 0.107188862960163D+03 -.385393341745077D+02 0.410253665737584D+02 -.241661282933726D+01
 0.000000000000000D+00 -.000000000000000D+00 0.000000000000000D+00 -.000000000000000D+00
 0.132870225181418D+03 0.000000000000000D+00 0.000000000000000D+00 0.132870225181418D+03
 0.151160747325230D+03 0.000000000000000D+00 0.000000000000000D+00 -.151160747325230D+03
 0.145863827553736D+03 0.526449163738382D+02 -.536090379605027D+02 0.241661282933726D+01
 0.100625262134297D+03 -.281802935458102D+02 0.317840065709329D+02 -.241661282933726D+01
 0.375418828186154D+02 -.244646228280280D+02 0.218250313895698D+02 -.182905221438119D+02
-.154115289352D-03 0.000000000000D+00 0.000000000000D+00 0.209949063085D-02 0.000000000000D+00  5 1 -1 25 23 21 2 0.23207856D+00 0.19378097D-02 0.19491643D+05 0.19491643D+05 0.19491643D+05 0.12350589D+01  1  2 13  2  5  2       -1 -.117382759799D+00 0.100000000000D+01
0.162140497268D-03 0.000000000000D+00 0.000000000000D+00 0.209949063085D-02 0.162619971490D-04  5 1 -1 25 23 21 2 0.25244742D+00 0.18830812D-02 0.19491643D+05 0.19491643D+05 0.19491643D+05 0.12350589D+01  1  2  1  2  5  2       -1 0.105751273940D+00 0.100000000000D+01
  </mgrwgt>
  </event>
  <event>
  4     66 0.49155423E-03 0.11084791E+03 0.75467711E-02 0.12353630E+00
        1 -1    0    0  501    0 0.00000000E+00 0.00000000E+00 0.28777836E+02 0.28779615E+02 0.32000000E+00 0.0000E+00 0.9000E+01
       -1 -1    0    0    0  501 0.00000000E+00 0.00000000E+00 -.42696354E+03 0.42696366E+03 0.32000000E+00 0.0000E+00 0.9000E+01
       25  1    1    2    0    0 -.20328852E+02 -.13253677E+02 -.22766707E+03 0.26085670E+03 0.12500000E+03 0.0000E+00 0.9000E+01
       23  1    1    2    0    0 0.20328852E+02 0.13253677E+02 -.17051863E+03 0.19488657E+03 0.91188000E+02 0.0000E+00 0.9000E+01
#aMCatNLO 1  0  0  2  1 0.26366213D+02 0.00000000D+00  -5  5  0 0.00000000D+00 0.00000000D+00 0.00000000D+00 0.00000000D+00 0.00000000D+00
  <mgrwgt>
 0.2130172791D-01    4    2    0
 0.110849084610608D+03 0.000000000000000D+00 0.000000000000000D+00 0.110849084610608D+03
 0.110849084610608D+03 0.000000000000000D+00 0.000000000000000D+00 -.110849084610608D+03
 0.127334896563133D+03 -.203288518411216D+02 -.132536765648502D+02 0.503709320807917D+00
 0.943632726580834D+02 0.203288518411216D+02 0.132536765648502D+02 -.503709320807917D+00
 0.000000000000000D+00 -.000000000000000D+00 -.000000000000000D+00 0.000000000000000D+00
 0.126508737728238D+03 0.000000000000000D+00 0.000000000000000D+00 0.126508737728238D+03
 0.123311170346777D+03 0.000000000000000D+00 0.000000000000000D+00 -.123311170346777D+03
 0.125774286509742D+03 -.533586126344648D+01 -.128625817211055D+02 0.503709320807917D+00
 0.974862236894556D+02 0.316931083890248D+02 0.135501152316958D+02 -.503709320807917D+00
 0.265593978758174D+02 -.263572471255783D+02 -.687533510590303D+00 0.319756738146121D+01
0.190740960144D-03 0.000000000000D+00 0.000000000000D+00 0.237942125111D-02 0.000000000000D+00  5 1 -1 25 23 21 0 0.44275055D-02 0.65686845D-01 0.12287260D+05 0.12287260D+05 0.12287260D+05 0.12578218D+01  1  2  2  2  5  2       -1 0.863130485288D-01 0.100000000000D+01
-.105967200066D-04 0.000000000000D+00 -.732495510200D-06 0.237942125111D-02 0.000000000000D+00  5 1 -1 25 23 21 2 0.44275055D-02 0.65686845D-01 0.12287260D+05 0.12287260D+05 0.12287260D+05 0.12578218D+01  1  2  3  2  5  2       -1 -.758651274517D-02 0.100000000000D+01
0.131989268873D-04 0.000000000000D+00 0.000000000000D+00 0.237942125111D-02 0.000000000000D+00  5 1 -1 25 23 21 2 0.44275055D-02 0.65686845D-01 0.12287260D+05 0.12287260D+05 0.12287260D+05 0.12578218D+01  1  2 15  2  5  2       -1 0.944951145180D-02 0.100000000000D+01
-.934089826702D-04 0.000000000000D+00 0.000000000000D+00 0.237942125111D-02 0.000000000000D+00  5 1 -1 25 23 21 2 0.44275055D-02 0.65686845D-01 0.12287260D+05 0.12287260D+05 0.12287260D+05 0.12578218D+01  1  2  4  2  5  2       -1 -.668743193274D-01 0.100000000000D+01
  </mgrwgt>
  </event>
  <event>
  4     66 0.49155423E-03 0.62895538E+02 0.75467711E-02 0.11551897E+00
        1 -1    0    0  501    0 0.00000000E+00 0.00000000E+00 0.49314011E+03 0.49314021E+03 0.32000000E+00 0.0000E+00 0.9000E+01
       -1 -1    0    0    0  501 0.00000000E+00 0.00000000E+00 -.68265297E+02 0.68266047E+02 0.32000000E+00 0.0000E+00 0.9000E+01
       25  1    1    2    0    0 -.12534750E+03 0.75558032E+02 0.25350284E+03 0.31829185E+03 0.12500000E+03 0.0000E+00 0.9000E+01
       23  1    1    2    0    0 0.12534750E+03 -.75558032E+02 0.17137197E+03 0.24311441E+03 0.91188000E+02 0.0000E+00 0.9000E+01
#aMCatNLO 1  0  0  2  1 0.21775440D+02 0.00000000D+00  -5  5  0 0.00000000D+00 0.00000000D+00 0.00000000D+00 0.00000000D+00 0.00000000D+00
  <mgrwgt>
 0.1211618127D+00    9    2    0
 0.183479142631316D+03 0.000000000000000D+00 0.000000000000000D+00 0.183479142631316D+03
 0.183479142631316D+03 0.000000000000000D+00 0.000000000000000D+00 -.183479142631316D+03
 0.193439060351621D+03 -.125347500169854D+03 0.755580324300485D+02 0.193043520011991D+02
 0.173519224911011D+03 0.125347500169854D+03 -.755580324300485D+02 -.193043520011991D+02
 0.000000000000000D+00 -.000000000000000D+00 0.000000000000000D+00 -.000000000000000D+00
 0.186387055746700D+03 0.000000000000000D+00 0.000000000000000D+00 0.186387055746700D+03
 0.229656938050075D+03 0.000000000000000D+00 0.000000000000000D+00 -.229656938050075D+03
 0.185715656735648D+03 -.118565290688667D+03 0.665951874723613D+02 0.193043520011991D+02
 0.181888142073339D+03 0.131704923948102D+03 -.839595133652504D+02 -.193043520011991D+02
 0.484401949877873D+02 -.131396332594353D+02 0.173643258928891D+02 -.432698823033752D+02
0.421651013822D-03 0.000000000000D+00 0.000000000000D+00 0.150488581403D-02 0.000000000000D+00  5 1 -1 25 23 21 0 0.75867775D-01 0.10502419D-01 0.33290824D+05 0.33290824D+05 0.33290824D+05 0.12101826D+01  1  2  2  2  5  2       -1 0.108052585748D+00 0.100000000000D+01
-.234241687328D-04 0.000000000000D+00 -.161925091634D-05 0.150488581403D-02 0.000000000000D+00  5 1 -1 25 23 21 2 0.75867775D-01 0.10502419D-01 0.33290824D+05 0.33290824D+05 0.33290824D+05 0.12101826D+01  1  2  3  2  5  2       -1 -.879119673402D-02 0.100000000000D+01
0.289747460984D-04 0.000000000000D+00 0.000000000000D+00 0.150488581403D-02 0.000000000000D+00  5 1 -1 25 23 21 2 0.75867775D-01 0.10502419D-01 0.33290824D+05 0.33290824D+05 0.33290824D+05 0.12101826D+01  1  2 15  2  5  2       -1 0.108743535865D-01 0.100000000000D+01
0.196369286759D-02 0.000000000000D+00 0.000000000000D+00 0.150488581403D-02 0.000000000000D+00  5 1 -1 25 23 21 2 0.75867775D-01 0.13214535D-01 0.37509211D+05 0.37509211D+05 0.37509211D+05 0.12048461D+01  1  2 12  2  5  2       -1 0.512009383155D+00 0.100000000000D+01
-.195901905748D-02 0.000000000000D+00 0.000000000000D+00 0.150488581403D-02 0.000000000000D+00  5 1 -1 25 23 21 2 0.75867775D-01 0.10502419D-01 0.33290824D+05 0.33290824D+05 0.33290824D+05 0.12101826D+01  1  2  4  2  5  2       -1 -.735228734749D+00 0.100000000000D+01
-.245062189259D-02 0.000000000000D+00 -.249196510275D-03 0.150488581403D-02 0.000000000000D+00  5 1 -1 25 23 21 2 0.75867775D-01 0.13321577D-01 0.33290824D+05 0.33290824D+05 0.33290824D+05 0.12101826D+01  1  2  5  2  5  2       -1 -.635744015087D+00 0.100000000000D+01
0.244724898650D-02 0.000000000000D+00 0.242314069877D-03 0.150488581403D-02 0.000000000000D+00  5 1 -1 25 23 21 2 0.75867775D-01 0.10502419D-01 0.33290824D+05 0.33290824D+05 0.33290824D+05 0.12101826D+01  1  2  6  2  5  2       -1 0.918463640815D+00 0.100000000000D+01
0.624088966033D-04 0.000000000000D+00 0.000000000000D+00 0.150488581403D-02 0.000000000000D+00  5 1 21 25 23 1 2 0.75867775D-01 0.13214535D-01 0.37509211D+05 0.37509211D+05 0.37509211D+05 0.12048461D+01  1  2 12  4  5  2       -1 0.227221279883D+00 0.100000000000D+01
-.760700114403D-04 0.000000000000D+00 -.812632468332D-05 0.150488581403D-02 0.000000000000D+00  5 1 21 25 23 1 2 0.75867775D-01 0.13321577D-01 0.33290824D+05 0.33290824D+05 0.33290824D+05 0.12101826D+01  1  2  5  4  5  2       -1 -.275695483877D+00 0.100000000000D+01
  </mgrwgt>
  </event>
  <event>
  4     66 0.49155423E-03 0.12435582E+03 0.75467711E-02 0.11977819E+00
        1 -1    0    0  501    0 0.00000000E+00 0.00000000E+00 0.39423096E+03 0.39423109E+03 0.32000000E+00 0.0000E+00 0.9000E+01
       -1 -1    0    0    0  501 0.00000000E+00 0.00000000E+00 -.45617165E+02 0.45618287E+02 0.32000000E+00 0.0000E+00 0.9000E+01
       25  1    1    2    0    0 -.34093866E+02 0.50475750E+02 0.11019629E+03 0.17742157E+03 0.12500000E+03 0.0000E+00 0.9000E+01
       23  1    1    2    0    0 0.34093866E+02 -.50475750E+02 0.23841750E+03 0.26242780E+03 0.91188000E+02 0.0000E+00 0.9000E+01
#aMCatNLO 1  0  0  2  1 0.50950372D+02 0.00000000D+00  -5  5  0 0.00000000D+00 0.00000000D+00 0.00000000D+00 0.00000000D+00 0.00000000D+00
  <mgrwgt>
 0.9173702564D-01    4    2    0
 0.134104340305890D+03 0.000000000000000D+00 0.000000000000000D+00 0.134104340305890D+03
 0.134104340305890D+03 0.000000000000000D+00 0.000000000000000D+00 -.134104340305890D+03
 0.147731320311396D+03 -.340938662219360D+02 0.504757499897340D+02 -.498933858338250D+02
 0.120477360300383D+03 0.340938662219360D+02 -.504757499897340D+02 0.498933858338250D+02
 0.000000000000000D+00 0.000000000000000D+00 -.000000000000000D+00 0.000000000000000D+00
 0.173018623737642D+03 0.000000000000000D+00 0.000000000000000D+00 0.173018623737642D+03
 0.154275208015348D+03 0.000000000000000D+00 0.000000000000000D+00 -.154275208015348D+03
 0.159080766515885D+03 -.620227306892686D+02 0.578404806616008D+02 -.498933858338250D+02
 0.113924428951711D+03 0.127564545488184D+02 -.448491592491378D+02 0.498933858338250D+02
 0.542886362853936D+02 0.492662761404502D+02 -.129913214124630D+02 0.187434157222942D+02
0.225946491013D-03 0.000000000000D+00 0.000000000000D+00 0.169477807424D-02 0.000000000000D+00  5 1 -1 25 23 21 0 0.60651013D-01 0.70181217D-02 0.15464369D+05 0.15464369D+05 0.15464369D+05 0.12463159D+01  1  2  2  2  5  2       -1 0.139796751525D+00 0.100000000000D+01
-.124656513115D-04 0.000000000000D+00 -.867694018569D-06 0.169477807424D-02 0.000000000000D+00  5 1 -1 25 23 21 2 0.60651013D-01 0.70181217D-02 0.15464369D+05 0.15464369D+05 0.15464369D+05 0.12463159D+01  1  2  3  2  5  2       -1 -.119801624065D-01 0.100000000000D+01
0.156449948559D-04 0.000000000000D+00 0.000000000000D+00 0.169477807424D-02 0.000000000000D+00  5 1 -1 25 23 21 2 0.60651013D-01 0.70181217D-02 0.15464369D+05 0.15464369D+05 0.15464369D+05 0.12463159D+01  1  2 15  2  5  2       -1 0.150356828165D-01 0.100000000000D+01
-.531866610309D-04 0.000000000000D+00 0.000000000000D+00 0.169477807424D-02 0.000000000000D+00  5 1 -1 25 23 21 2 0.60651013D-01 0.70181217D-02 0.15464369D+05 0.15464369D+05 0.15464369D+05 0.12463159D+01  1  2  4  2  5  2       -1 -.511152462943D-01 0.100000000000D+01
  </mgrwgt>
  </event>
  <event>
  4     66 0.49155423E-03 0.13574634E+03 0.75467711E-02 0.12153192E+00
        1 -1    0    0  501    0 0.00000000E+00 0.00000000E+00 0.96288408E+02 0.96288940E+02 0.32000000E+00 0.0000E+00 0.9000E+01
       -1 -1    0    0    0  501 0.00000000E+00 0.00000000E+00 -.23319940E+03 0.23319962E+03 0.32000000E+00 0.0000E+00 0.9000E+01
       25  1    1    2    0    0 0.54887294E+02 0.60212612E+02 -.14351533E+03 0.20702614E+03 0.12500000E+03 0.0000E+00 0.9000E+01
       23  1    1    2    0    0 -.54887294E+02 -.60212612E+02 0.66043432E+01 0.12246241E+03 0.91188000E+02 0.0000E+00 0.9000E+01
#aMCatNLO 1  0  0  1  1 0.54608097D+01 0.00000000D+00  -5  5  0 0.00000000D+00 0.00000000D+00 0.00000000D+00 0.00000000D+00 0.00000000D+00
  <mgrwgt>
 0.7760687441D-01    6    2    0
 0.149848331779885D+03 0.000000000000000D+00 0.000000000000000D+00 0.149848331779885D+03
 0.149848331779885D+03 0.000000000000000D+00 0.000000000000000D+00 -.149848331779885D+03
 0.162043577080876D+03 0.548872942148862D+02 0.602126123414374D+02 -.632055940716806D+02
 0.137653086478894D+03 -.548872942148862D+02 -.602126123414374D+02 0.632055940716806D+02
 0.000000000000000D+00 0.000000000000000D+00 0.000000000000000D+00 -.000000000000000D+00
 0.150759984375544D+03 0.000000000000000D+00 0.000000000000000D+00 0.150759984375544D+03
 0.158280158230250D+03 0.000000000000000D+00 0.000000000000000D+00 -.158280158230250D+03
 0.160622595169254D+03 0.534359693748482D+02 0.576564665403834D+02 -.632055940716806D+02
 0.139123815303035D+03 -.561322130419936D+02 -.624052255626652D+02 0.632055940716806D+02
 0.929373213350454D+01 0.269624366714540D+01 0.474875902228180D+01 -.752017385470643D+01
0.362755018629D-03 0.000000000000D+00 0.000000000000D+00 0.147499182111D-02 0.000000000000D+00  5 1 -1 25 23 21 0 0.14813659D-01 0.35876888D-01 0.18427070D+05 0.18427070D+05 0.18427070D+05 0.12377617D+01  1  2  2  1  5  1        1 0.995024682499D-01 0.100000000000D+01
-.199136977326D-04 0.000000000000D+00 -.139307478713D-05 0.147499182111D-02 0.000000000000D+00  5 1 -1 25 23 21 2 0.14813659D-01 0.35876888D-01 0.18427070D+05 0.18427070D+05 0.18427070D+05 0.12377617D+01  1  2  3  1  5  1        1 -.836847716813D-02 0.100000000000D+01
0.250470065771D-04 0.000000000000D+00 0.000000000000D+00 0.147499182111D-02 0.000000000000D+00  5 1 -1 25 23 21 2 0.14813659D-01 0.35876888D-01 0.18427070D+05 0.18427070D+05 0.18427070D+05 0.12377617D+01  1  2 15  1  5  1        1 0.105256846561D-01 0.100000000000D+01
-.146040469626D-03 0.000000000000D+00 0.000000000000D+00 0.147499182111D-02 0.000000000000D+00  5 1 -1 25 23 21 2 0.14813659D-01 0.35876888D-01 0.18427070D+05 0.18427070D+05 0.18427070D+05 0.12377617D+01  1  2  4  1  5  1        1 -.613716423791D-01 0.100000000000D+01
0.745193164898D-04 0.000000000000D+00 0.000000000000D+00 0.147499182111D-02 0.403322508098D-03  5 1 -1 25 23 21 2 0.14903783D-01 0.37895647D-01 0.19190879D+05 0.19190879D+05 0.19190879D+05 0.12358054D+01  1  2 11  1  5  1        1 0.282003699968D-01 0.100000000000D+01
0.241307157600D-05 0.000000000000D+00 0.000000000000D+00 0.147499182111D-02 0.464207728158D-06  5 21 -1 25 23 -1 2 0.14903783D-01 0.37895647D-01 0.19190879D+05 0.19190879D+05 0.19190879D+05 0.12358054D+01  1  2 11  3  5  1        1 0.911847105399D-02 0.100000000000D+01
  </mgrwgt>
  </event>
  <event>
  5     66 0.49155423E-03 0.11423703E+03 0.75467711E-02 0.12197442E+00
        1 -1    0    0  501    0 0.00000000E+00 0.00000000E+00 0.16005343E+04 0.16005344E+04 0.32000000E+00 0.0000E+00 0.9000E+01
       21 -1    0    0  502  501 0.00000000E+00 0.00000000E+00 -.11777474E+02 0.11801330E+02 0.75000000E+00 0.0000E+00 0.9000E+01
       25  1    1    2    0    0 -.17133972E+02 -.50449064E+02 0.69111185E+03 0.70434315E+03 0.12500000E+03 0.0000E+00 0.9000E+01
       23  1    1    2    0    0 -.13421696E+02 0.26306068E+02 0.70156858E+03 0.70808606E+03 0.91188000E+02 0.0000E+00 0.9000E+01
        1  1    1    2  502    0 0.30555668E+02 0.24142995E+02 0.19607643E+03 0.19990648E+03 0.32000000E+00 0.0000E+00 0.9000E+01
#aMCatNLO 2  0  0  2  1 0.38942690D+02 0.00000000D+00  -5  5  0 0.00000000D+00 0.00000000D+00 0.00000000D+00 0.00000000D+00 0.00000000D+00
  <mgrwgt>
 0.1339641588D-01    2    2    0
 0.116061371377214D+03 0.000000000000000D+00 0.000000000000000D+00 0.116061371377214D+03
 0.116061371377214D+03 0.000000000000000D+00 0.000000000000000D+00 -.116061371377214D+03
 0.131806809694159D+03 0.461010445259568D+00 -.365467138936279D+02 -.203017303375575D+02
 0.100315933060268D+03 -.461010445259568D+00 0.365467138936279D+02 0.203017303375575D+02
 0.000000000000000D+00 0.000000000000000D+00 0.000000000000000D+00 -.000000000000000D+00
 0.134295487796186D+03 0.000000000000000D+00 0.000000000000000D+00 0.134295487796186D+03
 0.140506059325129D+03 0.000000000000000D+00 0.000000000000000D+00 -.140506059325129D+03
 0.137389378392329D+03 -.171339723867426D+02 -.504490637235411D+02 -.203017303375575D+02
 0.979773583682238D+02 -.134216956733304D+02 0.263060684893990D+02 0.203017303375575D+02
 0.394348103607624D+02 0.305556680600729D+02 0.241429952341421D+02 -.621057152894363D+01
-.221684315204D-05 0.000000000000D+00 0.000000000000D+00 0.218580775990D-02 0.000000000000D+00  5 1 21 25 23 1 2 0.21280366D+00 0.19102936D-02 0.18316206D+05 0.18316206D+05 0.18316206D+05 0.12380532D+01  1  2 13  4  5  2       -1 -.437399653175D-01 0.100000000000D+01
0.368616371389D-05 0.000000000000D+00 0.000000000000D+00 0.218580775990D-02 0.390932954353D-06  5 1 21 25 23 1 2 0.24623672D+00 0.18137480D-02 0.18316206D+05 0.18316206D+05 0.18316206D+05 0.12380532D+01  1  2  1  4  5  2       -1 0.571363811942D-01 0.100000000000D+01
  </mgrwgt>
  </event>
  <event>
  5     66 0.49155423E-03 0.13617286E+03 0.75467711E-02 0.10938208E+00
        1 -1    0    0  501    0 0.00000000E+00 0.00000000E+00 0.67374210E+03 0.67374217E+03 0.32000000E+00 0.0000E+00 0.9000E+01
       21 -1    0    0  502  501 0.00000000E+00 0.00000000E+00 -.13124518E+03 0.13124732E+03 0.75000000E+00 0.0000E+00 0.9000E+01
       25  1    1    2    0    0 0.11001010E+03 -.87604827E+02 0.30066975E+03 0.35468878E+03 0.12500000E+03 0.0000E+00 0.9000E+01
       23  1    1    2    0    0 0.10773058E+03 0.76913059E+02 0.11977492E+03 0.20045643E+03 0.91188000E+02 0.0000E+00 0.9000E+01
        1  1    1    2  502    0 -.21774067E+03 0.10691768E+02 0.12205225E+03 0.24984429E+03 0.32000000E+00 0.0000E+00 0.9000E+01
#aMCatNLO 2  0  0  2  1 0.21800302D+03 0.00000000D+00  -5  5  0 0.00000000D+00 0.00000000D+00 0.00000000D+00 0.00000000D+00 0.00000000D+00
  <mgrwgt>
 0.3141339273D-01    1    2    0
 0.144816398567878D+03 0.000000000000000D+00 0.000000000000000D+00 0.144816398567878D+03
 0.144816398567878D+03 0.000000000000000D+00 0.000000000000000D+00 -.144816398567878D+03
 0.157435391873000D+03 -.747846292375526D+01 -.818357603969339D+02 0.490701897974602D+02
 0.132197405262755D+03 0.747846292375526D+01 0.818357603969339D+02 -.490701897974602D+02
 0.000000000000000D+00 -.000000000000000D+00 0.000000000000000D+00 -.000000000000000D+00
 0.250348643864016D+03 0.000000000000000D+00 0.000000000000000D+00 0.250348643864016D+03
 0.353212321258814D+03 0.000000000000000D+00 0.000000000000000D+00 -.353212321258814D+03
 0.194447191950499D+03 0.110010096242930D+03 -.876048266666666D+02 0.490701897974602D+02
 0.168061390409900D+03 0.107730577982678D+03 0.769130589904484D+02 -.490701897974602D+02
 0.241052382762431D+03 -.217740674225608D+03 0.106917676762182D+02 -.102863677394797D+03
0.310855842424D-04 0.000000000000D+00 0.000000000000D+00 0.161021440097D-02 0.871567313269D-07  5 1 21 25 23 1 2 0.10365276D+00 0.20191728D-01 0.80342452D+05 0.80342452D+05 0.80342452D+05 0.11724060D+01  1  2  1  4  5  2       -1 0.314133927261D-01 0.100000000000D+01
  </mgrwgt>
  </event>
  <event>
  4     66 0.49155423E-03 0.54199630E+02 0.75467711E-02 0.11588278E+00
        3 -1    0    0  501    0 0.00000000E+00 0.00000000E+00 0.66534852E+02 0.66536731E+02 0.50000000E+00 0.0000E+00 0.9000E+01
       -3 -1    0    0    0  501 0.00000000E+00 0.00000000E+00 -.44447734E+03 0.44447762E+03 0.50000000E+00 0.0000E+00 0.9000E+01
       25  1    1    2    0    0 -.91308928E+02 0.27766685E+02 -.33849852E+03 0.37324865E+03 0.12500000E+03 0.0000E+00 0.9000E+01
       23  1    1    2    0    0 0.91308928E+02 -.27766685E+02 -.39443963E+02 0.13776569E+03 0.91188000E+02 0.0000E+00 0.9000E+01
#aMCatNLO 1  0  0  1  2 0.79186530D+02 0.00000000D+00  -5  5  0 0.00000000D+00 0.00000000D+00 0.00000000D+00 0.00000000D+00 0.00000000D+00
  <mgrwgt>
 0.2563218246D-01    9    2    0
 0.171970305149662D+03 0.000000000000000D+00 0.000000000000000D+00 0.171970305149662D+03
 0.171970305149662D+03 0.000000000000000D+00 0.000000000000000D+00 -.171970305149662D+03
 0.182596774425330D+03 -.913089277815228D+02 0.277666849691581D+02 -.927807789563491D+02
 0.161343835873995D+03 0.913089277815228D+02 -.277666849691581D+02 0.927807789563491D+02
 0.000000000000000D+00 -.000000000000000D+00 -.000000000000000D+00 0.000000000000000D+00
 0.223229288497174D+03 0.000000000000000D+00 0.000000000000000D+00 0.223229288497174D+03
 0.209994250651759D+03 0.000000000000000D+00 0.000000000000000D+00 -.209994250651759D+03
 0.167221834848384D+03 -.518204810378666D+02 0.323188312183048D+02 -.927807789563491D+02
 0.185716757384830D+03 0.130486042407233D+03 -.232504284409251D+02 0.927807789563491D+02
 0.802849469157196D+02 -.786655613693665D+02 -.906840277737971D+01 0.132350378454146D+02
0.585317590812D-03 0.000000000000D+00 0.000000000000D+00 0.118013007569D-02 0.000000000000D+00  5 3 -3 25 23 21 0 0.10236297D-01 0.68381295D-01 0.20918792D+05 0.20918792D+05 0.20918792D+05 0.12316843D+01  1  2  2  1  5  1        3 0.203795653623D-01 0.100000000000D+01
-.313327044333D-04 0.000000000000D+00 -.224777366638D-05 0.118013007569D-02 0.000000000000D+00  5 3 -3 25 23 21 2 0.10236297D-01 0.68381295D-01 0.20918792D+05 0.20918792D+05 0.20918792D+05 0.12316843D+01  1  2  3  1  5  1        3 -.165500776324D-02 0.100000000000D+01
0.403705652511D-04 0.000000000000D+00 0.000000000000D+00 0.118013007569D-02 0.000000000000D+00  5 3 -3 25 23 21 2 0.10236297D-01 0.68381295D-01 0.20918792D+05 0.20918792D+05 0.20918792D+05 0.12316843D+01  1  2 15  1  5  1        3 0.213239170080D-02 0.100000000000D+01
0.164854561981D-03 0.000000000000D+00 0.000000000000D+00 0.118013007569D-02 0.000000000000D+00  5 3 -3 25 23 21 2 0.14135116D-01 0.68381295D-01 0.35945982D+05 0.35945982D+05 0.35945982D+05 0.12067419D+01  1  2 12  1  5  1        3 0.501244518332D-02 0.100000000000D+01
-.289852174719D-03 0.000000000000D+00 0.000000000000D+00 0.118013007569D-02 0.000000000000D+00  5 3 -3 25 23 21 2 0.10236297D-01 0.68381295D-01 0.20918792D+05 0.20918792D+05 0.20918792D+05 0.12316843D+01  1  2  4  1  5  1        3 -.153101242944D-01 0.100000000000D+01
-.411682816421D-03 0.000000000000D+00 -.262104068352D-03 0.118013007569D-02 0.000000000000D+00  5 3 -3 25 23 21 2 0.16162111D-01 0.68381295D-01 0.20918792D+05 0.20918792D+05 0.20918792D+05 0.12316843D+01  1  2  5  1  5  1        3 -.100506528273D-01 0.100000000000D+01
0.503143932659D-03 0.000000000000D+00 0.236956619986D-03 0.118013007569D-02 0.000000000000D+00  5 3 -3 25 23 21 2 0.10236297D-01 0.68381295D-01 0.20918792D+05 0.20918792D+05 0.20918792D+05 0.12316843D+01  1  2  6  1  5  1        3 0.265762923961D-01 0.100000000000D+01
0.671704133242D-05 0.000000000000D+00 0.000000000000D+00 0.118013007569D-02 0.000000000000D+00  5 21 -3 25 23 -3 2 0.14135116D-01 0.68381295D-01 0.35945982D+05 0.35945982D+05 0.35945982D+05 0.12067419D+01  1  2 12  3  5  1        3 0.441356990167D-02 0.100000000000D+01
-.110122256170D-04 0.000000000000D+00 -.137748741120D-04 0.118013007569D-02 0.000000000000D+00  5 21 -3 25 23 -3 2 0.16162111D-01 0.68381295D-01 0.20918792D+05 0.20918792D+05 0.20918792D+05 0.12316843D+01  1  2  5  3  5  1        3 -.586629719771D-02 0.100000000000D+01
  </mgrwgt>
  </event>
  <event>
  5     66 -.49155423E-03 0.30669483E+03 0.75467711E-02 0.10640545E+00
        1 -1    0    0  501    0 0.00000000E+00 0.00000000E+00 0.31433167E+04 0.31433168E+04 0.32000000E+00 0.0000E+00 0.9000E+01
       -1 -1    0    0    0  502 0.00000000E+00 0.00000000E+00 -.68400524E+02 0.68401272E+02 0.32000000E+00 0.0000E+00 0.9000E+01
       25  1    1    2    0    0 0.28235437E+03 -.16476761E+03 0.25365760E+04 0.25606083E+04 0.12500000E+03 0.0000E+00 0.9000E+01
       23  1    1    2    0    0 -.21706046E+03 0.12461509E+03 0.49731932E+03 0.56416835E+03 0.91188000E+02 0.0000E+00 0.9000E+01
       21  1    1    2  501  502 -.65293913E+02 0.40152527E+02 0.41020921E+02 0.86941354E+02 0.75000000E+00 0.0000E+00 0.9000E+01
#aMCatNLO 2  0  0  2  1 0.76651944D+02 0.00000000D+00  -5  5  0 0.00000000D+00 0.00000000D+00 0.00000000D+00 0.00000000D+00 0.00000000D+00
  <mgrwgt>
 -.1732573092D-01    2    2    0
 0.372099815137432D+03 0.000000000000000D+00 0.000000000000000D+00 0.372099815137432D+03
 0.372099815137432D+03 0.000000000000000D+00 0.000000000000000D+00 -.372099815137432D+03
 0.377010962871609D+03 0.247985507557832D+03 -.143632461107220D+03 0.210677882756936D+03
 0.367188667403255D+03 -.247985507557832D+03 0.143632461107220D+03 -.210677882756936D+03
 0.000000000000000D+00 -.000000000000000D+00 0.000000000000000D+00 -.000000000000000D+00
 0.381839912230083D+03 0.000000000000000D+00 0.000000000000000D+00 0.381839912230083D+03
 0.563076156813596D+03 0.000000000000000D+00 0.000000000000000D+00 -.563076156813596D+03
 0.408512579073261D+03 0.282354371083918D+03 -.164767612436266D+03 0.210677882756936D+03
 0.339624179950419D+03 -.217060458221899D+03 0.124615085188545D+03 -.210677882756936D+03
 0.196779310019999D+03 -.652939128620190D+02 0.401525272477208D+02 -.181236244583513D+03
-.344490853886D-01 0.000000000000D+00 0.000000000000D+00 0.861656686513D-03 0.000000000000D+00  5 1 -1 25 23 21 2 0.47125088D+00 0.10576580D-01 0.12007273D+06 0.12007273D+06 0.12007273D+06 0.11563435D+01  1  2 13  2  5  2       -1 -.164159974722D+00 0.100000000000D+01
0.348785144396D-01 0.000000000000D+00 0.000000000000D+00 0.861656686513D-03 0.108066449388D-05  5 1 -1 25 23 21 2 0.48358636D+00 0.10523197D-01 0.12007273D+06 0.12007273D+06 0.12007273D+06 0.11563435D+01  1  2  1  2  5  2       -1 0.146834243797D+00 0.100000000000D+01
  </mgrwgt>
  </event>
  <event>
  4     66 0.49155423E-03 0.40596486E+02 0.75467711E-02 0.12512173E+00
        1 -1    0    0  501    0 0.00000000E+00 0.00000000E+00 0.13136371E+04 0.13136372E+04 0.32000000E+00 0.0000E+00 0.9000E+01
       -1 -1    0    0    0  501 0.00000000E+00 0.00000000E+00 -.92541045E+01 0.92596356E+01 0.32000000E+00 0.0000E+00 0.9000E+01
       25  1    1    2    0    0 -.60332603E+01 -.15071724E+02 0.83527751E+03 0.84473491E+03 0.12500000E+03 0.0000E+00 0.9000E+01
       23  1    1    2    0    0 0.60332603E+01 0.15071724E+02 0.46910552E+03 0.47816189E+03 0.91188000E+02 0.0000E+00 0.9000E+01
#aMCatNLO 1  0  0  1  2 0.11450169D+02 0.00000000D+00  -5  5  0 0.00000000D+00 0.00000000D+00 0.00000000D+00 0.00000000D+00 0.00000000D+00
  <mgrwgt>
 0.3757418065D+00    9    2    0
 0.110273385676144D+03 0.000000000000000D+00 0.000000000000000D+00 0.110273385676144D+03
 0.110273385676144D+03 0.000000000000000D+00 0.000000000000000D+00 -.110273385676144D+03
 0.126845264310277D+03 -.603326029560957D+01 -.150717242271514D+02 0.141832287216305D+02
 0.937015070420106D+02 0.603326029560957D+01 0.150717242271514D+02 -.141832287216305D+02
 0.000000000000000D+00 0.000000000000000D+00 0.000000000000000D+00 0.000000000000000D+00
 0.116747141008989D+03 0.000000000000000D+00 0.000000000000000D+00 0.116747141008989D+03
 0.115603773866937D+03 0.000000000000000D+00 0.000000000000000D+00 -.115603773866937D+03
 0.127772025870976D+03 -.109468768600968D+02 -.194857000185585D+02 0.141832287216305D+02
 0.930717757641029D+02 0.242890060917005D+01 0.118338736153530D+02 -.141832287216305D+02
 0.115071132408467D+02 0.851797625092677D+01 0.765182640320545D+01 0.114336714205269D+01
0.117572390318D-03 0.000000000000D+00 0.000000000000D+00 0.236898749863D-02 0.000000000000D+00  5 1 -1 25 23 21 0 0.20209845D+00 0.14241369D-02 0.11954326D+05 0.11954326D+05 0.11954326D+05 0.12592183D+01  1  2  2  1  5  1        1 0.121140753992D+00 0.100000000000D+01
-.653122048070D-05 0.000000000000D+00 -.451508936343D-06 0.236898749863D-02 0.000000000000D+00  5 1 -1 25 23 21 2 0.20209845D+00 0.14241369D-02 0.11954326D+05 0.11954326D+05 0.11954326D+05 0.12592183D+01  1  2  3  1  5  1        1 -.106704145077D-01 0.100000000000D+01
0.814791049395D-05 0.000000000000D+00 0.000000000000D+00 0.236898749863D-02 0.000000000000D+00  5 1 -1 25 23 21 2 0.20209845D+00 0.14241369D-02 0.11954326D+05 0.11954326D+05 0.11954326D+05 0.12592183D+01  1  2 15  1  5  1        1 0.133116899972D-01 0.100000000000D+01
0.235476043918D-03 0.000000000000D+00 0.000000000000D+00 0.236898749863D-02 0.000000000000D+00  5 1 -1 25 23 21 2 0.21858931D+00 0.14241369D-02 0.13273032D+05 0.13273032D+05 0.13273032D+05 0.12539243D+01  1  2 12  1  5  1        1 0.325413448343D+00 0.100000000000D+01
-.195106500939D-03 0.000000000000D+00 0.000000000000D+00 0.236898749863D-02 0.000000000000D+00  5 1 -1 25 23 21 2 0.20209845D+00 0.14241369D-02 0.11954326D+05 0.11954326D+05 0.11954326D+05 0.12592183D+01  1  2  4  1  5  1        1 -.318756233129D+00 0.100000000000D+01
-.898262677707D-03 0.000000000000D+00 -.170093061891D-03 0.236898749863D-02 0.000000000000D+00  5 1 -1 25 23 21 2 0.22039617D+00 0.14241369D-02 0.11954326D+05 0.11954326D+05 0.11954326D+05 0.12592183D+01  1  2  5  1  5  1        1 -.122681996636D+01 0.100000000000D+01
0.910220888398D-03 0.000000000000D+00 0.169456186734D-03 0.236898749863D-02 0.000000000000D+00  5 1 -1 25 23 21 2 0.20209845D+00 0.14241369D-02 0.11954326D+05 0.11954326D+05 0.11954326D+05 0.12592183D+01  1  2  6  1  5  1        1 0.148707798205D+01 0.100000000000D+01
0.309092116144D-05 0.000000000000D+00 0.000000000000D+00 0.236898749863D-02 0.000000000000D+00  5 21 -1 25 23 -1 2 0.21858931D+00 0.14241369D-02 0.13273032D+05 0.13273032D+05 0.13273032D+05 0.12539243D+01  1  2 12  3  5  1        1 0.503147025094D-02 0.100000000000D+01
-.124498540586D-04 0.000000000000D+00 -.243868697024D-05 0.236898749863D-02 0.000000000000D+00  5 21 -1 25 23 -1 2 0.22039617D+00 0.14241369D-02 0.11954326D+05 0.11954326D+05 0.11954326D+05 0.12592183D+01  1  2  5  3  5  1        1 -.199869241714D-01 0.100000000000D+01
  </mgrwgt>
  </event>
  <event>
  4     66 0.49155423E-03 0.16845277E+03 0.75467711E-02 0.10347573E+00
        1 -1    0    0  501    0 0.00000000E+00 0.00000000E+00 0.15736607E+03 0.15736640E+03 0.32000000E+00 0.0000E+00 0.9000E+01
       -1 -1    0    0    0  501 0.00000000E+00 0.00000000E+00 -.22527033E+03 0.22527055E+03 0.32000000E+00 0.0000E+00 0.9000E+01
       25  1    1    2    0    0 0.94554721E+02 -.87082152E+02 0.49617343E+02 0.18603972E+03 0.12500000E+03 0.0000E+00 0.9000E+01
       23  1    1    2    0    0 -.94554721E+02 0.87082152E+02 -.11752160E+03 0.19659724E+03 0.91188000E+02 0.0000E+00 0.9000E+01
#aMCatNLO 1  0  0  2  2 0.36248407D+03 0.00000000D+00  -5  5  0 0.00000000D+00 0.00000000D+00 0.00000000D+00 0.00000000D+00 0.00000000D+00
  <mgrwgt>
 0.1491828427D+00    3    2    0
 0.188281738130651D+03 0.000000000000000D+00 0.000000000000000D+00 0.188281738130651D+03
 0.188281738130651D+03 0.000000000000000D+00 0.000000000000000D+00 -.188281738130651D+03
 0.197987603299220D+03 0.945547206625842D+02 -.870821515008269D+02 0.839654378335342D+02
 0.178575872962081D+03 -.945547206625842D+02 0.870821515008269D+02 -.839654378335342D+02
 0.000000000000000D+00 0.000000000000000D+00 0.000000000000000D+00 0.000000000000000D+00
 0.928218061125352D+03 0.000000000000000D+00 0.000000000000000D+00 0.928218061125352D+03
 0.310597586500185D+03 0.000000000000000D+00 0.000000000000000D+00 -.310597586500185D+03
 0.184288497870057D+03 -.595376244195836D+02 -.879904936632216D+02 0.839654378335342D+02
 0.338391859074831D+03 -.302940151814878D+03 0.858537629456168D+02 -.839654378335342D+02
 0.716135290680648D+03 0.362477776234461D+03 0.213673071760484D+01 0.617620474625167D+03
0.933227353556D-03 0.000000000000D+00 0.000000000000D+00 0.123695965779D-02 0.000000000000D+00  5 1 -1 25 23 21 0 0.24210208D-01 0.34657016D-01 0.28376335D+05 0.28376335D+05 0.28376335D+05 0.12174428D+01  1  2  2  2  5  2       -1 0.146099241285D+00 0.100000000000D+01
-.510653034444D-04 0.000000000000D+00 -.358383876206D-05 0.123695965779D-02 0.000000000000D+00  5 1 -1 25 23 21 2 0.24210208D-01 0.34657016D-01 0.28376335D+05 0.28376335D+05 0.28376335D+05 0.12174428D+01  1  2  3  2  5  2       -1 -.118490505908D-01 0.100000000000D+01
0.643545575082D-04 0.000000000000D+00 0.000000000000D+00 0.123695965779D-02 0.000000000000D+00  5 1 -1 25 23 21 2 0.24210208D-01 0.34657016D-01 0.28376335D+05 0.28376335D+05 0.28376335D+05 0.12174428D+01  1  2 15  2  5  2       -1 0.149326520402D-01 0.100000000000D+01
  </mgrwgt>
  </event>
  <event>
  4     66 0.49155423E-03 0.16755310E+03 0.75467711E-02 0.99069802E-01
        1 -1    0    0  501    0 0.00000000E+00 0.00000000E+00 0.60758513E+03 0.60758522E+03 0.32000000E+00 0.0000E+00 0.9000E+01
       -1 -1    0    0    0  501 0.00000000E+00 0.00000000E+00 -.68253707E+02 0.68254457E+02 0.32000000E+00 0.0000E+00 0.9000E+01
       25  1    1    2    0    0 0.61853370E+02 -.11134196E+03 0.47333279E+03 0.50585749E+03 0.12500000E+03 0.0000E+00 0.9000E+01
       23  1    1    2    0    0 -.61853370E+02 0.11134196E+03 0.65998631E+02 0.16998218E+03 0.91188000E+02 0.0000E+00 0.9000E+01
#aMCatNLO 1  0  0  1  2 0.56526758D+03 0.00000000D+00  -5  5  0 0.00000000D+00 0.00000000D+00 0.00000000D+00 0.00000000D+00 0.00000000D+00
  <mgrwgt>
 0.1829992364D+00    3    2    0
 0.203642381627517D+03 0.000000000000000D+00 0.000000000000000D+00 0.203642381627517D+03
 0.203642381627517D+03 0.000000000000000D+00 0.000000000000000D+00 -.203642381627517D+03
 0.212616138216862D+03 0.618533697546593D+02 -.111341956645361D+03 0.115575739541773D+03
 0.194668625038171D+03 -.618533697546593D+02 0.111341956645361D+03 -.115575739541773D+03
 0.000000000000000D+00 -.000000000000000D+00 0.000000000000000D+00 -.000000000000000D+00
 0.413934528146549D+03 0.000000000000000D+00 0.000000000000000D+00 0.413934528146549D+03
 0.156647092885092D+04 0.000000000000000D+00 0.000000000000000D+00 -.156647092885092D+04
 0.540230900172862D+03 0.230843489291521D+03 -.457796851652202D+03 0.115575739541773D+03
 0.156481605790508D+03 0.169686438246994D+02 -.502549018793044D+02 -.115575739541773D+03
 0.128369295103410D+04 -.247812133116220D+03 0.508051753531507D+03 -.115253640070437D+04
0.925247135543D-03 0.000000000000D+00 0.000000000000D+00 0.102909458173D-02 0.000000000000D+00  5 1 -1 25 23 21 0 0.93474700D-01 0.10500635D-01 0.28074042D+05 0.28074042D+05 0.28074042D+05 0.12179345D+01  1  2  2  1  5  1        1 0.178806230323D+00 0.100000000000D+01
-.490245418709D-04 0.000000000000D+00 -.355319262365D-05 0.102909458173D-02 0.000000000000D+00  5 1 -1 25 23 21 2 0.93474700D-01 0.10500635D-01 0.28074042D+05 0.28074042D+05 0.28074042D+05 0.12179345D+01  1  2  3  1  5  1        1 -.140535575396D-01 0.100000000000D+01
0.636514575344D-04 0.000000000000D+00 0.000000000000D+00 0.102909458173D-02 0.000000000000D+00  5 1 -1 25 23 21 2 0.93474700D-01 0.10500635D-01 0.28074042D+05 0.28074042D+05 0.28074042D+05 0.12179345D+01  1  2 15  1  5  1        1 0.182465635945D-01 0.100000000000D+01
  </mgrwgt>
  </event>
  <event>
  5     66 0.49155423E-03 0.19699999E+03 0.75467711E-02 0.11457417E+00
       21 -1    0    0  501  502 0.00000000E+00 0.00000000E+00 0.69151059E+02 0.69155126E+02 0.75000000E+00 0.0000E+00 0.9000E+01
       -1 -1    0    0    0  501 0.00000000E+00 0.00000000E+00 -.74387467E+03 0.74387474E+03 0.32000000E+00 0.0000E+00 0.9000E+01
       25  1    1    2    0    0 0.15424923E+03 0.31076051E+02 -.33933619E+03 0.39437621E+03 0.12500000E+03 0.0000E+00 0.9000E+01
       23  1    1    2    0    0 -.16534759E+03 -.41620310E+02 -.18538287E+03 0.26786962E+03 0.91188000E+02 0.0000E+00 0.9000E+01
       -1  1    1    2    0  502 0.11098364E+02 0.10544259E+02 -.15000456E+03 0.15078403E+03 0.32000000E+00 0.0000E+00 0.9000E+01
#aMCatNLO 2  0  0  1  2 0.15308660D+02 0.00000000D+00  -5  5  0 0.00000000D+00 0.00000000D+00 0.00000000D+00 0.00000000D+00 0.00000000D+00
  <mgrwgt>
 0.2244340413D-01    1    2    0
 0.201869450938779D+03 0.000000000000000D+00 0.000000000000000D+00 0.201869450938779D+03
 0.201869450938779D+03 0.000000000000000D+00 0.000000000000000D+00 -.201869450938779D+03
 0.210922020089295D+03 0.159973734259514D+03 0.365147503214263D+02 -.440247193583248D+02
 0.192816881788263D+03 -.159973734259514D+03 -.365147503214263D+02 0.440247193583248D+02
 0.000000000000000D+00 0.000000000000000D+00 0.000000000000000D+00 -.000000000000000D+00
 0.203159008106403D+03 0.000000000000000D+00 0.000000000000000D+00 0.203159008106403D+03
 0.253206374875117D+03 0.000000000000000D+00 0.000000000000000D+00 -.253206374875117D+03
 0.205722438020617D+03 0.154249228998070D+03 0.310760509728677D+02 -.440247193583248D+02
 0.198306590587384D+03 -.165347592790228D+03 -.416203095890699D+02 0.440247193583248D+02
 0.523363543735198D+02 0.110983637921584D+02 0.105442586162022D+02 -.500473667687142D+02
0.308589260238D-04 0.000000000000D+00 0.000000000000D+00 0.139098276122D-02 0.616801964101D-07  5 21 -1 25 23 -1 2 0.10638917D-01 0.11444230D+00 0.41947805D+05 0.41947805D+05 0.41947805D+05 0.11999090D+01  1  2  1  3  5  1        1 0.224434041275D-01 0.100000000000D+01
  </mgrwgt>
  </event>
</LesHouchesEvents>
