<event>
 5    0  0.2257501E-001  0.2956512E+03  0.7546771E-02  0.1087435E+00
         21   -1    0    0  501  502  0.00000000000E+00  0.00000000000E+00  0.61508656592E+03  0.61508656592E+03  0.00000000000E+00 0. -1.
         21   -1    0    0  502  503 -0.00000000000E+00 -0.00000000000E+00 -0.19740511916E+03  0.19740511916E+03  0.00000000000E+00 0. -1.
         25    1    1    2    0    0  0.14702613932E+03 -0.22398199732E+03  0.44716636960E+03  0.53606658436E+03  0.12500000000E+03 0.  0.
          1    1    1    2  501    0 -0.36154691889E+02  0.59052130069E+02  0.19126818362E+02  0.71834190968E+02  0.00000000000E+00 0.  1.
         -1    1    1    2    0  503 -0.11087144744E+03  0.16492986725E+03 -0.48611741208E+02  0.20459090975E+03  0.00000000000E+00 0. -1.
<mgrwt>
<rscale>  4 0.29565118E+03</rscale>
<asrwt>0</asrwt>
<pdfrwt beam="1">  1       21 0.94628701E-01 0.29565118E+03</pdfrwt>
<pdfrwt beam="2">  1       21 0.30370019E-01 0.29565118E+03</pdfrwt>
<totfact> 0.91566057E+03</totfact>
</mgrwt>
</event>
<event>
 5    0  0.2257501E-001  0.2571797E+03  0.7546771E-02  0.1108850E+00
         21   -1    0    0  503  502  0.00000000000E+00  0.00000000000E+00  0.78395682513E+03  0.78395682513E+03  0.00000000000E+00 0.  1.
         21   -1    0    0  501  503 -0.00000000000E+00 -0.00000000000E+00 -0.17218989179E+04  0.17218989179E+04  0.00000000000E+00 0.  1.
         25    1    1    2    0    0 -0.10213076697E+03  0.20021410196E+03 -0.16931915344E+04  0.17126117343E+04  0.12500000000E+03 0.  0.
          1    1    1    2  501    0  0.99525502151E+02 -0.10314088376E+03  0.39758810327E+03  0.42263420039E+03  0.00000000000E+00 0.  1.
         -1    1    1    2    0  502  0.26052648200E+01 -0.97073218203E+02  0.35766133837E+03  0.37060980837E+03  0.00000000000E+00 0. -1.
<mgrwt>
<rscale>  4 0.25717967E+03</rscale>
<asrwt>0</asrwt>
<pdfrwt beam="1">  1       21 0.12060874E+00 0.25717967E+03</pdfrwt>
<pdfrwt beam="2">  1       21 0.26490753E+00 0.25717967E+03</pdfrwt>
<totfact> 0.25718042E+01</totfact>
</mgrwt>
</event>
<event>
 5    0  0.2257501E-001  0.2742880E+03  0.7546771E-02  0.1098850E+00
         21   -1    0    0  501  502  0.00000000000E+00  0.00000000000E+00  0.14449678666E+04  0.14449678666E+04  0.00000000000E+00 0. -1.
         21   -1    0    0  502  503 -0.00000000000E+00 -0.00000000000E+00 -0.37459670736E+03  0.37459670736E+03  0.00000000000E+00 0.  1.
         25    1    1    2    0    0  0.16301792572E+03  0.18175276498E+03 -0.31054077905E+03  0.41433016683E+03  0.12500000000E+03 0.  0.
          2    1    1    2  501    0 -0.12785699190E+03 -0.12891977973E+03  0.11967195710E+04  0.12104154045E+04  0.00000000000E+00 0. -1.
         -2    1    1    2    0  503 -0.35160933819E+02 -0.52832985257E+02  0.18419236731E+03  0.19481900260E+03  0.00000000000E+00 0.  1.
<mgrwt>
<rscale>  4 0.27428801E+03</rscale>
<asrwt>0</asrwt>
<pdfrwt beam="1">  1       21 0.22230275E+00 0.27428801E+03</pdfrwt>
<pdfrwt beam="2">  1       21 0.57630263E-01 0.27428801E+03</pdfrwt>
<totfact> 0.25081362E+02</totfact>
</mgrwt>
</event>
<event>
 5    0  0.2257501E-001  0.2689105E+03  0.7546771E-02  0.1101905E+00
         21   -1    0    0  501  502  0.00000000000E+00  0.00000000000E+00  0.22601954051E+03  0.22601954051E+03  0.00000000000E+00 0.  1.
         21   -1    0    0  502  503 -0.00000000000E+00 -0.00000000000E+00 -0.30934069653E+03  0.30934069653E+03  0.00000000000E+00 0.  1.
         25    1    1    2    0    0 -0.52991328846E+02  0.23212023316E+03 -0.21780053338E+02  0.26979113087E+03  0.12500000000E+03 0.  0.
          4    1    1    2  501    0  0.42724860320E+02 -0.12674790099E+03  0.15476557850E+02  0.13464756937E+03  0.00000000000E+00 0.  1.
         -4    1    1    2    0  503  0.10266468526E+02 -0.10537233217E+03 -0.77017660529E+02  0.13092153679E+03  0.00000000000E+00 0. -1.
<mgrwt>
<rscale>  4 0.26891055E+03</rscale>
<asrwt>0</asrwt>
<pdfrwt beam="1">  1       21 0.34772237E-01 0.26891055E+03</pdfrwt>
<pdfrwt beam="2">  1       21 0.47590876E-01 0.26891055E+03</pdfrwt>
<totfact> 0.32467028E+04</totfact>
</mgrwt>
</event>
<event>
 5    0  0.2257501E-001  0.2869463E+03  0.7546771E-02  0.1091954E+00
         21   -1    0    0  501  502  0.00000000000E+00  0.00000000000E+00  0.26373485521E+03  0.26373485521E+03  0.00000000000E+00 0. -1.
         21   -1    0    0  502  503 -0.00000000000E+00 -0.00000000000E+00 -0.41047733156E+03  0.41047733156E+03  0.00000000000E+00 0. -1.
         25    1    1    2    0    0  0.28886256095E+02  0.25666864149E+03  0.10550882376E+03  0.30572915989E+03  0.12500000000E+03 0.  0.
          3    1    1    2  501    0 -0.58876386115E+01 -0.18280661251E+03 -0.13224219919E+03  0.22570095505E+03  0.00000000000E+00 0. -1.
         -3    1    1    2    0  503 -0.22998617484E+02 -0.73862028979E+02 -0.12000910092E+03  0.14278207182E+03  0.00000000000E+00 0.  1.
<mgrwt>
<rscale>  4 0.28694635E+03</rscale>
<asrwt>0</asrwt>
<pdfrwt beam="1">  1       21 0.40574593E-01 0.28694635E+03</pdfrwt>
<pdfrwt beam="2">  1       21 0.63150359E-01 0.28694635E+03</pdfrwt>
<totfact> 0.12891856E+04</totfact>
</mgrwt>
</event>
<event>
 5    0  0.2257501E-001  0.2473918E+03  0.7546771E-02  0.1114964E+00
         21   -1    0    0  501  502  0.00000000000E+00  0.00000000000E+00  0.72087007950E+02  0.72087007950E+02  0.00000000000E+00 0. -1.
         21   -1    0    0  502  503 -0.00000000000E+00 -0.00000000000E+00 -0.78206488782E+03  0.78206488782E+03  0.00000000000E+00 0. -1.
         25    1    1    2    0    0  0.19343317107E+03  0.90339868915E+02 -0.29116512662E+03  0.38207304871E+03  0.12500000000E+03 0.  0.
          2    1    1    2  501    0 -0.82401057681E+02 -0.15255251401E+02 -0.16213579727E+03  0.18251211948E+03  0.00000000000E+00 0. -1.
         -2    1    1    2    0  503 -0.11103211339E+03 -0.75084617514E+02 -0.25667695598E+03  0.28956672758E+03  0.00000000000E+00 0.  1.
<mgrwt>
<rscale>  4 0.24739176E+03</rscale>
<asrwt>0</asrwt>
<pdfrwt beam="1">  1       21 0.11090308E-01 0.24739176E+03</pdfrwt>
<pdfrwt beam="2">  1       21 0.12031768E+00 0.24739176E+03</pdfrwt>
<totfact> 0.34431197E+04</totfact>
</mgrwt>
</event>
<event>
 5    0  0.2257501E-001  0.2618180E+03  0.7546771E-02  0.1106056E+00
         21   -1    0    0  503  502  0.00000000000E+00  0.00000000000E+00  0.58415096145E+03  0.58415096145E+03  0.00000000000E+00 0. -1.
         21   -1    0    0  501  503 -0.00000000000E+00 -0.00000000000E+00 -0.10866872906E+03  0.10866872906E+03  0.00000000000E+00 0. -1.
         25    1    1    2    0    0  0.30769788471E+02  0.22798434911E+03  0.22273753484E+03  0.34374504032E+03  0.12500000000E+03 0.  0.
          3    1    1    2  501    0 -0.45492203608E+02 -0.15041130258E+03  0.19899272420E+03  0.25355710367E+03  0.00000000000E+00 0. -1.
         -3    1    1    2    0  502  0.14722415137E+02 -0.77573046526E+02  0.53751973348E+02  0.95517546522E+02  0.00000000000E+00 0.  1.
<mgrwt>
<rscale>  4 0.26181796E+03</rscale>
<asrwt>0</asrwt>
<pdfrwt beam="1">  1       21 0.89869377E-01 0.26181796E+03</pdfrwt>
<pdfrwt beam="2">  1       21 0.16718266E-01 0.26181796E+03</pdfrwt>
<totfact> 0.32774863E+04</totfact>
</mgrwt>
</event>
<event>
 5    0  0.2257501E-001  0.3484964E+03  0.7546771E-02  0.1063234E+00
         21   -1    0    0  501  502  0.00000000000E+00  0.00000000000E+00  0.11467663278E+04  0.11467663278E+04  0.00000000000E+00 0. -1.
         21   -1    0    0  502  503 -0.00000000000E+00 -0.00000000000E+00 -0.15970121786E+03  0.15970121786E+03  0.00000000000E+00 0. -1.
         25    1    1    2    0    0 -0.31834775459E+03 -0.66928628238E+02  0.10748553100E+03  0.36469559019E+03  0.12500000000E+03 0.  0.
          1    1    1    2  501    0  0.14213351050E+03  0.74397549688E+01  0.48688228086E+03  0.50725894785E+03  0.00000000000E+00 0. -1.
         -1    1    1    2    0  503  0.17621424409E+03  0.59488873269E+02  0.39269729811E+03  0.43451300764E+03  0.00000000000E+00 0.  1.
<mgrwt>
<rscale>  4 0.34849639E+03</rscale>
<asrwt>0</asrwt>
<pdfrwt beam="1">  1       21 0.17642558E+00 0.34849639E+03</pdfrwt>
<pdfrwt beam="2">  1       21 0.24569419E-01 0.34849639E+03</pdfrwt>
<totfact> 0.26994758E+03</totfact>
</mgrwt>
</event>
<event>
 5    0  0.2257501E-001  0.3045589E+03  0.7546771E-02  0.1082984E+00
         21   -1    0    0  503  502  0.00000000000E+00  0.00000000000E+00  0.20896553459E+03  0.20896553459E+03  0.00000000000E+00 0.  1.
         21   -1    0    0  501  503 -0.00000000000E+00 -0.00000000000E+00 -0.66295587813E+03  0.66295587813E+03  0.00000000000E+00 0. -1.
         25    1    1    2    0    0 -0.28509777859E+03 -0.56782381001E+01 -0.37059492958E+03  0.48402333371E+03  0.12500000000E+03 0.  0.
          3    1    1    2  501    0  0.26530139901E+02  0.98517616940E+02 -0.40814871357E+02  0.10988822910E+03  0.00000000000E+00 0. -1.
         -3    1    1    2    0  502  0.25856763869E+03 -0.92839378840E+02 -0.42580542608E+02  0.27800984992E+03  0.00000000000E+00 0.  1.
<mgrwt>
<rscale>  4 0.30455892E+03</rscale>
<asrwt>0</asrwt>
<pdfrwt beam="1">  1       21 0.32148544E-01 0.30455892E+03</pdfrwt>
<pdfrwt beam="2">  1       21 0.10199321E+00 0.30455892E+03</pdfrwt>
<totfact> 0.68097053E+03</totfact>
</mgrwt>
</event>
<event>
 5    0  0.2257501E-001  0.2970993E+03  0.7546771E-02  0.1086700E+00
         21   -1    0    0  503  502  0.00000000000E+00  0.00000000000E+00  0.15168785912E+03  0.15168785912E+03  0.00000000000E+00 0. -1.
         21   -1    0    0  501  503 -0.00000000000E+00 -0.00000000000E+00 -0.59645677380E+03  0.59645677380E+03  0.00000000000E+00 0. -1.
         25    1    1    2    0    0  0.16636347636E+03  0.21205236237E+03 -0.32836275488E+03  0.44282062898E+03  0.12500000000E+03 0.  0.
          3    1    1    2  501    0 -0.47013769236E+02 -0.20369332631E+02 -0.45846430609E+02  0.68753904683E+02  0.00000000000E+00 0.  1.
         -3    1    1    2    0  502 -0.11934970712E+03 -0.19168302974E+03 -0.70559729185E+02  0.23657009926E+03  0.00000000000E+00 0. -1.
<mgrwt>
<rscale>  4 0.29709933E+03</rscale>
<asrwt>0</asrwt>
<pdfrwt beam="1">  1       21 0.23336594E-01 0.29709933E+03</pdfrwt>
<pdfrwt beam="2">  1       21 0.91762580E-01 0.29709933E+03</pdfrwt>
<totfact> 0.16413367E+04</totfact>
</mgrwt>
</event>
<event>
 5    0  0.2257501E-001  0.3196150E+03  0.7546771E-02  0.1075827E+00
         21   -1    0    0  501  502  0.00000000000E+00  0.00000000000E+00  0.34664006485E+03  0.34664006485E+03  0.00000000000E+00 0.  1.
         21   -1    0    0  502  503 -0.00000000000E+00 -0.00000000000E+00 -0.10268429186E+04  0.10268429186E+04  0.00000000000E+00 0. -1.
         25    1    1    2    0    0 -0.10106582649E+03  0.27625065022E+03 -0.92893789236E+03  0.98238451275E+03  0.12500000000E+03 0.  0.
          4    1    1    2  501    0  0.10338889927E+03 -0.20031104182E+03  0.17695703246E+03  0.28657908037E+03  0.00000000000E+00 0.  1.
         -4    1    1    2    0  503 -0.23230727828E+01 -0.75939608400E+02  0.71778006145E+02  0.10451939034E+03  0.00000000000E+00 0. -1.
<mgrwt>
<rscale>  4 0.31961496E+03</rscale>
<asrwt>0</asrwt>
<pdfrwt beam="1">  1       21 0.53329242E-01 0.31961496E+03</pdfrwt>
<pdfrwt beam="2">  1       21 0.15797583E+00 0.31961496E+03</pdfrwt>
<totfact> 0.77934256E+02</totfact>
</mgrwt>
</event>
<event>
 5    0  0.2257501E-001  0.3359639E+03  0.7546771E-02  0.1068528E+00
         21   -1    0    0  503  502  0.00000000000E+00  0.00000000000E+00  0.57346220647E+03  0.57346220647E+03  0.00000000000E+00 0. -1.
         21   -1    0    0  501  503 -0.00000000000E+00 -0.00000000000E+00 -0.49945856706E+03  0.49945856706E+03  0.00000000000E+00 0. -1.
         25    1    1    2    0    0  0.73631397920E+02 -0.30302671679E+03 -0.38372420765E+03  0.51001572660E+03  0.12500000000E+03 0.  0.
          3    1    1    2  501    0 -0.64022828597E+02  0.72031722784E+02  0.14010777739E+03  0.17005199485E+03  0.00000000000E+00 0.  1.
         -3    1    1    2    0  502 -0.96085693234E+01  0.23099499401E+03  0.31762006967E+03  0.39285305207E+03  0.00000000000E+00 0. -1.
<mgrwt>
<rscale>  4 0.33596395E+03</rscale>
<asrwt>0</asrwt>
<pdfrwt beam="1">  1       21 0.88224955E-01 0.33596395E+03</pdfrwt>
<pdfrwt beam="2">  1       21 0.76839779E-01 0.33596395E+03</pdfrwt>
<totfact> 0.14957992E+03</totfact>
</mgrwt>
</event>
<event>
 5    0  0.2257501E-001  0.2895569E+03  0.7546771E-02  0.1090581E+00
         21   -1    0    0  503  502  0.00000000000E+00  0.00000000000E+00  0.10185041920E+03  0.10185041920E+03  0.00000000000E+00 0.  1.
         21   -1    0    0  501  503 -0.00000000000E+00 -0.00000000000E+00 -0.76738960751E+03  0.76738960751E+03  0.00000000000E+00 0.  1.
         25    1    1    2    0    0 -0.25665341857E+03  0.48448020679E+02 -0.35970065030E+03  0.46176589934E+03  0.12500000000E+03 0.  0.
          4    1    1    2  501    0  0.94862454201E+02 -0.36232458981E+02 -0.79383494753E+02  0.12889303915E+03  0.00000000000E+00 0.  1.
         -4    1    1    2    0  502  0.16179096437E+03 -0.12215561698E+02 -0.22645504325E+03  0.27858108822E+03  0.00000000000E+00 0. -1.
<mgrwt>
<rscale>  4 0.28955688E+03</rscale>
<asrwt>0</asrwt>
<pdfrwt beam="1">  1       21 0.15669295E-01 0.28955688E+03</pdfrwt>
<pdfrwt beam="2">  1       21 0.11805994E+00 0.28955688E+03</pdfrwt>
<totfact> 0.18904962E+04</totfact>
</mgrwt>
</event>
<event>
 5    0  0.2257501E-001  0.2520913E+03  0.7546771E-02  0.1111990E+00
         21   -1    0    0  501  502  0.00000000000E+00  0.00000000000E+00  0.28747936646E+04  0.28747936646E+04  0.00000000000E+00 0. -1.
         21   -1    0    0  502  503 -0.00000000000E+00 -0.00000000000E+00 -0.21693093423E+02  0.21693093423E+02  0.00000000000E+00 0. -1.
         25    1    1    2    0    0 -0.15466426321E+03  0.15493222571E+03  0.19610713513E+04  0.19772078479E+04  0.12500000000E+03 0.  0.
          2    1    1    2  501    0  0.25563864138E+02 -0.14301646218E+02  0.16635990279E+03  0.16891910931E+03  0.00000000000E+00 0.  1.
         -2    1    1    2    0  503  0.12910039907E+03 -0.14063057949E+03  0.72566931715E+03  0.75035980088E+03  0.00000000000E+00 0. -1.
<mgrwt>
<rscale>  4 0.25209131E+03</rscale>
<asrwt>0</asrwt>
<pdfrwt beam="1">  1       21 0.44227565E+00 0.25209131E+03</pdfrwt>
<pdfrwt beam="2">  1       21 0.33374013E-02 0.25209131E+03</pdfrwt>
<totfact> 0.22964323E+03</totfact>
</mgrwt>
</event>
<event>
 5    0  0.2257501E-001  0.2346615E+03  0.7546771E-02  0.1123401E+00
         21   -1    0    0  503  502  0.00000000000E+00  0.00000000000E+00  0.71048629580E+02  0.71048629580E+02  0.00000000000E+00 0. -1.
         21   -1    0    0  501  503 -0.00000000000E+00 -0.00000000000E+00 -0.14654077435E+04  0.14654077435E+04  0.00000000000E+00 0. -1.
         25    1    1    2    0    0  0.16262577954E+03 -0.12311102709E+03 -0.12576855760E+04  0.12802349304E+04  0.12500000000E+03 0.  0.
          2    1    1    2  501    0 -0.15016961232E+03  0.96196686050E+02 -0.13951740128E+03  0.22642839957E+03  0.00000000000E+00 0. -1.
         -2    1    1    2    0  502 -0.12456167219E+02  0.26914341041E+02  0.28438633327E+01  0.29793043049E+02  0.00000000000E+00 0.  1.
<mgrwt>
<rscale>  4 0.23466149E+03</rscale>
<asrwt>0</asrwt>
<pdfrwt beam="1">  1       21 0.10930560E-01 0.23466149E+03</pdfrwt>
<pdfrwt beam="2">  1       21 0.22544731E+00 0.23466149E+03</pdfrwt>
<totfact> 0.62227169E+03</totfact>
</mgrwt>
</event>
<event>
 5    0  0.2257501E-001  0.4343761E+03  0.7546771E-02  0.1032486E+00
         21   -1    0    0  503  502  0.00000000000E+00  0.00000000000E+00  0.10211609824E+04  0.10211609824E+04  0.00000000000E+00 0.  1.
         21   -1    0    0  501  503 -0.00000000000E+00 -0.00000000000E+00 -0.85474973021E+03  0.85474973021E+03  0.00000000000E+00 0.  1.
         25    1    1    2    0    0 -0.39540943505E+03  0.13458813601E+03 -0.72866549984E+03  0.84914133001E+03  0.12500000000E+03 0.  0.
          2    1    1    2  501    0  0.10664964424E+02 -0.55055285438E+02  0.80804277530E+01  0.56657914130E+02  0.00000000000E+00 0. -1.
         -2    1    1    2    0  502  0.38474447062E+03 -0.79532850572E+02  0.88699632431E+03  0.97011146851E+03  0.00000000000E+00 0.  1.
<mgrwt>
<rscale>  4 0.43437614E+03</rscale>
<asrwt>0</asrwt>
<pdfrwt beam="1">  1       21 0.15710169E+00 0.43437614E+03</pdfrwt>
<pdfrwt beam="2">  1       21 0.13149996E+00 0.43437614E+03</pdfrwt>
<totfact> 0.89492463E+01</totfact>
</mgrwt>
</event>
<event>
 5    0  0.2257501E-001  0.2560043E+03  0.7546771E-02  0.1109568E+00
         21   -1    0    0  503  502  0.00000000000E+00  0.00000000000E+00  0.18462892349E+03  0.18462892349E+03  0.00000000000E+00 0. -1.
         21   -1    0    0  501  503 -0.00000000000E+00 -0.00000000000E+00 -0.33607254247E+03  0.33607254247E+03  0.00000000000E+00 0. -1.
         25    1    1    2    0    0 -0.15931278651E+03  0.15662895927E+03 -0.13798886795E+03  0.29082490008E+03  0.12500000000E+03 0.  0.
          1    1    1    2  501    0  0.69668548014E+01 -0.30613509250E+02 -0.63939100925E+01  0.32040694448E+02  0.00000000000E+00 0.  1.
         -1    1    1    2    0  502  0.15234593171E+03 -0.12601545002E+03 -0.70608409426E+01  0.19783587144E+03  0.00000000000E+00 0. -1.
<mgrwt>
<rscale>  4 0.25600429E+03</rscale>
<asrwt>0</asrwt>
<pdfrwt beam="1">  1       21 0.28404450E-01 0.25600429E+03</pdfrwt>
<pdfrwt beam="2">  1       21 0.51703467E-01 0.25600429E+03</pdfrwt>
<totfact> 0.40887435E+04</totfact>
</mgrwt>
</event>
<event>
 5    0  0.2257501E-001  0.2673696E+03  0.7546771E-02  0.1102795E+00
         21   -1    0    0  503  502  0.00000000000E+00  0.00000000000E+00  0.31728910790E+03  0.31728910790E+03  0.00000000000E+00 0. -1.
         21   -1    0    0  501  503 -0.00000000000E+00 -0.00000000000E+00 -0.11066770739E+04  0.11066770739E+04  0.00000000000E+00 0. -1.
         25    1    1    2    0    0 -0.27617688924E+03 -0.24401969626E+03 -0.58773958685E+03  0.70489865106E+03  0.12500000000E+03 0.  0.
          3    1    1    2  501    0  0.83740951157E+02  0.12539473922E+03 -0.39423949674E+03  0.42209142175E+03  0.00000000000E+00 0.  1.
         -3    1    1    2    0  502  0.19243593809E+03  0.11862495703E+03  0.19259111763E+03  0.29697610895E+03  0.00000000000E+00 0. -1.
<mgrwt>
<rscale>  4 0.26736957E+03</rscale>
<asrwt>0</asrwt>
<pdfrwt beam="1">  1       21 0.48813709E-01 0.26736957E+03</pdfrwt>
<pdfrwt beam="2">  1       21 0.17025801E+00 0.26736957E+03</pdfrwt>
<totfact> 0.79306313E+02</totfact>
</mgrwt>
</event>
<event>
 5    0  0.2257501E-001  0.3516483E+03  0.7546771E-02  0.1061941E+00
         21   -1    0    0  501  502  0.00000000000E+00  0.00000000000E+00  0.16639056419E+03  0.16639056419E+03  0.00000000000E+00 0. -1.
         21   -1    0    0  502  503 -0.00000000000E+00 -0.00000000000E+00 -0.11088367419E+04  0.11088367419E+04  0.00000000000E+00 0. -1.
         25    1    1    2    0    0  0.33003415605E+02  0.32702030903E+03 -0.95497536826E+02  0.36438480690E+03  0.12500000000E+03 0.  0.
          4    1    1    2  501    0  0.58793829937E+00 -0.25890326778E+03 -0.63896813093E+03  0.68942840098E+03  0.00000000000E+00 0. -1.
         -4    1    1    2    0  503 -0.33591353905E+02 -0.68117041257E+02 -0.20798050999E+03  0.22141409825E+03  0.00000000000E+00 0.  1.
<mgrwt>
<rscale>  4 0.35164827E+03</rscale>
<asrwt>0</asrwt>
<pdfrwt beam="1">  1       21 0.25598549E-01 0.35164827E+03</pdfrwt>
<pdfrwt beam="2">  1       21 0.17059027E+00 0.35164827E+03</pdfrwt>
<totfact> 0.27393953E+03</totfact>
</mgrwt>
</event>
<event>
 5    0  0.2257501E-001  0.2247718E+03  0.7546771E-02  0.1130375E+00
         21   -1    0    0  501  502  0.00000000000E+00  0.00000000000E+00  0.37469740513E+03  0.37469740513E+03  0.00000000000E+00 0.  1.
         21   -1    0    0  502  503 -0.00000000000E+00 -0.00000000000E+00 -0.87689632161E+03  0.87689632161E+03  0.00000000000E+00 0. -1.
         25    1    1    2    0    0  0.70459570537E+02  0.26868664705E+03 -0.62612960304E+03  0.69629041727E+03  0.12500000000E+03 0.  0.
          2    1    1    2  501    0  0.39463483216E+02 -0.17998161628E+03  0.28606494755E+03  0.34027033800E+03  0.00000000000E+00 0.  1.
         -2    1    1    2    0  503 -0.10992305375E+03 -0.88705030778E+02 -0.16213426100E+03  0.21503297147E+03  0.00000000000E+00 0. -1.
<mgrwt>
<rscale>  4 0.22477177E+03</rscale>
<asrwt>0</asrwt>
<pdfrwt beam="1">  1       21 0.57645755E-01 0.22477177E+03</pdfrwt>
<pdfrwt beam="2">  1       21 0.13490713E+00 0.22477177E+03</pdfrwt>
<totfact> 0.10769708E+03</totfact>
</mgrwt>
</event>
<event>
 5    0  0.2257501E-001  0.2310803E+03  0.7546771E-02  0.1125882E+00
         21   -1    0    0  501  502  0.00000000000E+00  0.00000000000E+00  0.16747233852E+03  0.16747233852E+03  0.00000000000E+00 0.  1.
         21   -1    0    0  502  503 -0.00000000000E+00 -0.00000000000E+00 -0.46327828960E+03  0.46327828960E+03  0.00000000000E+00 0.  1.
         25    1    1    2    0    0  0.18179751873E+03 -0.10508027938E+03 -0.30341590831E+03  0.38958749511E+03  0.12500000000E+03 0.  0.
          3    1    1    2  501    0 -0.15902142401E+02  0.68340315800E+02  0.12034103489E+02  0.71190564989E+02  0.00000000000E+00 0. -1.
         -3    1    1    2    0  503 -0.16589537632E+03  0.36739963583E+02 -0.44241462571E+01  0.16997256802E+03  0.00000000000E+00 0.  1.
<mgrwt>
<rscale>  4 0.23108033E+03</rscale>
<asrwt>0</asrwt>
<pdfrwt beam="1">  1       21 0.25764975E-01 0.23108033E+03</pdfrwt>
<pdfrwt beam="2">  1       21 0.71273583E-01 0.23108033E+03</pdfrwt>
<totfact> 0.24928637E+04</totfact>
</mgrwt>
</event>
<event>
 5    0  0.2257501E-001  0.2462233E+03  0.7546771E-02  0.1115715E+00
         21   -1    0    0  501  502  0.00000000000E+00  0.00000000000E+00  0.59164798903E+02  0.59164798903E+02  0.00000000000E+00 0. -1.
         21   -1    0    0  502  503 -0.00000000000E+00 -0.00000000000E+00 -0.10463674863E+04  0.10463674863E+04  0.00000000000E+00 0. -1.
         25    1    1    2    0    0  0.20277539256E+03  0.75783586095E+02 -0.39340976661E+03  0.46610863134E+03  0.12500000000E+03 0.  0.
          1    1    1    2  501    0 -0.19272319091E+01 -0.22916581424E+02 -0.11886229797E+03  0.12106663374E+03  0.00000000000E+00 0.  1.
         -1    1    1    2    0  503 -0.20084816065E+03 -0.52867004671E+02 -0.47493062285E+03  0.51835702016E+03  0.00000000000E+00 0. -1.
<mgrwt>
<rscale>  4 0.24622334E+03</rscale>
<asrwt>0</asrwt>
<pdfrwt beam="1">  1       21 0.91022766E-02 0.24622334E+03</pdfrwt>
<pdfrwt beam="2">  1       21 0.16097962E+00 0.24622334E+03</pdfrwt>
<totfact> 0.22938938E+04</totfact>
</mgrwt>
</event>
<event>
 5    0  0.2257501E-001  0.2771036E+03  0.7546771E-02  0.1097281E+00
         21   -1    0    0  503  502  0.00000000000E+00  0.00000000000E+00  0.27668270319E+02  0.27668270319E+02  0.00000000000E+00 0. -1.
         21   -1    0    0  501  503 -0.00000000000E+00 -0.00000000000E+00 -0.25784850058E+04  0.25784850058E+04  0.00000000000E+00 0. -1.
         25    1    1    2    0    0  0.54549263479E+02 -0.24121729669E+03 -0.12485444365E+04  0.12789251801E+04  0.12500000000E+03 0.  0.
          4    1    1    2  501    0 -0.32467238612E+02  0.64097099589E+02 -0.51416659091E+03  0.51916263634E+03  0.00000000000E+00 0.  1.
         -4    1    1    2    0  502 -0.22082024867E+02  0.17712019710E+03 -0.78810570806E+03  0.80806545967E+03  0.00000000000E+00 0. -1.
<mgrwt>
<rscale>  4 0.27710360E+03</rscale>
<asrwt>0</asrwt>
<pdfrwt beam="1">  1       21 0.42566579E-02 0.27710360E+03</pdfrwt>
<pdfrwt beam="2">  1       21 0.39668992E+00 0.27710360E+03</pdfrwt>
<totfact> 0.29209897E+03</totfact>
</mgrwt>
</event>
<event>
 5    0  0.2257501E-001  0.2373289E+03  0.7546771E-02  0.1121585E+00
         21   -1    0    0  503  502  0.00000000000E+00  0.00000000000E+00  0.20514645277E+03  0.20514645277E+03  0.00000000000E+00 0.  1.
         21   -1    0    0  501  503 -0.00000000000E+00 -0.00000000000E+00 -0.24991806258E+03  0.24991806258E+03  0.00000000000E+00 0.  1.
         25    1    1    2    0    0 -0.16034229610E+03 -0.12243513413E+03 -0.29496444699E+02  0.23915487500E+03  0.12500000000E+03 0.  0.
          3    1    1    2  501    0  0.79438756175E+02  0.10633479776E+03 -0.13299559296E+02  0.13339596499E+03  0.00000000000E+00 0.  1.
         -3    1    1    2    0  502  0.80903539922E+02  0.16100336370E+02 -0.19756058208E+01  0.82513675360E+02  0.00000000000E+00 0. -1.
<mgrwt>
<rscale>  4 0.23732892E+03</rscale>
<asrwt>0</asrwt>
<pdfrwt beam="1">  1       21 0.31560993E-01 0.23732892E+03</pdfrwt>
<pdfrwt beam="2">  1       21 0.38448933E-01 0.23732892E+03</pdfrwt>
<totfact> 0.61745838E+04</totfact>
</mgrwt>
</event>
<event>
 5    0  0.2257501E-001  0.2752288E+03  0.7546771E-02  0.1098324E+00
         21   -1    0    0  503  502  0.00000000000E+00  0.00000000000E+00  0.26763391181E+03  0.26763391181E+03  0.00000000000E+00 0. -1.
         21   -1    0    0  501  503 -0.00000000000E+00 -0.00000000000E+00 -0.39135829066E+03  0.39135829066E+03  0.00000000000E+00 0. -1.
         25    1    1    2    0    0  0.12627222173E+03  0.21019323639E+03  0.12793130329E+03  0.30350830131E+03  0.12500000000E+03 0.  0.
          1    1    1    2  501    0 -0.84229642582E+02 -0.11335319265E+03 -0.17573621781E+03  0.22544799228E+03  0.00000000000E+00 0. -1.
         -1    1    1    2    0  502 -0.42042579151E+02 -0.96840043742E+02 -0.75919464329E+02  0.13003590888E+03  0.00000000000E+00 0.  1.
<mgrwt>
<rscale>  4 0.27522876E+03</rscale>
<asrwt>0</asrwt>
<pdfrwt beam="1">  1       21 0.41174448E-01 0.27522876E+03</pdfrwt>
<pdfrwt beam="2">  1       21 0.60208968E-01 0.27522876E+03</pdfrwt>
<totfact> 0.13955064E+04</totfact>
</mgrwt>
</event>
<event>
 5    0  0.2257501E-001  0.3086418E+03  0.7546771E-02  0.1080999E+00
         21   -1    0    0  503  502  0.00000000000E+00  0.00000000000E+00  0.42499542138E+02  0.42499542138E+02  0.00000000000E+00 0. -1.
         21   -1    0    0  501  503 -0.00000000000E+00 -0.00000000000E+00 -0.23226401071E+04  0.23226401071E+04  0.00000000000E+00 0. -1.
         25    1    1    2    0    0 -0.15327914126E+03  0.23693936794E+03 -0.80888310944E+03  0.86576650661E+03  0.12500000000E+03 0.  0.
          4    1    1    2  501    0  0.11881779775E+03 -0.20328709462E+03 -0.10939755084E+04  0.11190289205E+04  0.00000000000E+00 0. -1.
         -4    1    1    2    0  502  0.34461343511E+02 -0.33652273326E+02 -0.37728194709E+03  0.38034422211E+03  0.00000000000E+00 0.  1.
<mgrwt>
<rscale>  4 0.30864180E+03</rscale>
<asrwt>0</asrwt>
<pdfrwt beam="1">  1       21 0.65383912E-02 0.30864180E+03</pdfrwt>
<pdfrwt beam="2">  1       21 0.35732924E+00 0.30864180E+03</pdfrwt>
<totfact> 0.23804608E+03</totfact>
</mgrwt>
</event>
<event>
 5    0  0.2257501E-001  0.2953525E+03  0.7546771E-02  0.1087587E+00
         21   -1    0    0  501  502  0.00000000000E+00  0.00000000000E+00  0.39494397712E+02  0.39494397712E+02  0.00000000000E+00 0.  1.
         21   -1    0    0  502  503 -0.00000000000E+00 -0.00000000000E+00 -0.22762344770E+04  0.22762344770E+04  0.00000000000E+00 0.  1.
         25    1    1    2    0    0 -0.19967117952E+03 -0.17815591006E+03 -0.15200458480E+04  0.15484742453E+04  0.12500000000E+03 0.  0.
          4    1    1    2  501    0  0.14936089469E+03  0.16210383335E+03 -0.55568025739E+03  0.59780170467E+03  0.00000000000E+00 0.  1.
         -4    1    1    2    0  503  0.50310284831E+02  0.16052076707E+02 -0.16101397386E+03  0.16945292474E+03  0.00000000000E+00 0. -1.
<mgrwt>
<rscale>  4 0.29535252E+03</rscale>
<asrwt>0</asrwt>
<pdfrwt beam="1">  1       21 0.60760627E-02 0.29535252E+03</pdfrwt>
<pdfrwt beam="2">  1       21 0.35018983E+00 0.29535252E+03</pdfrwt>
<totfact> 0.30189012E+03</totfact>
</mgrwt>
</event>
<event>
 5    0  0.2257501E-001  0.2778656E+03  0.7546771E-02  0.1096860E+00
         21   -1    0    0  501  502  0.00000000000E+00  0.00000000000E+00  0.50212649174E+03  0.50212649174E+03  0.00000000000E+00 0. -1.
         21   -1    0    0  502  503 -0.00000000000E+00 -0.00000000000E+00 -0.25216197503E+03  0.25216197503E+03  0.00000000000E+00 0.  1.
         25    1    1    2    0    0  0.24761226678E+03  0.42669820859E+02 -0.11320003065E+03  0.30260831980E+03  0.12500000000E+03 0.  0.
          1    1    1    2  501    0 -0.19207204444E+02  0.23425858159E+02  0.50251220585E+02  0.58675997677E+02  0.00000000000E+00 0.  1.
         -1    1    1    2    0  503 -0.22840506234E+03 -0.66095679018E+02  0.31291332678E+03  0.39300414929E+03  0.00000000000E+00 0. -1.
<mgrwt>
<rscale>  4 0.27786559E+03</rscale>
<asrwt>0</asrwt>
<pdfrwt beam="1">  1       21 0.77250229E-01 0.27786559E+03</pdfrwt>
<pdfrwt beam="2">  1       21 0.38794150E-01 0.27786559E+03</pdfrwt>
<totfact> 0.90576379E+03</totfact>
</mgrwt>
</event>
<event>
 5    0  0.2257501E-001  0.3276953E+03  0.7546771E-02  0.1072161E+00
         21   -1    0    0  503  502  0.00000000000E+00  0.00000000000E+00  0.35001981614E+03  0.35001981614E+03  0.00000000000E+00 0. -1.
         21   -1    0    0  501  503 -0.00000000000E+00 -0.00000000000E+00 -0.32841985764E+03  0.32841985764E+03  0.00000000000E+00 0. -1.
         25    1    1    2    0    0  0.64883081518E+02 -0.29588751613E+03  0.12759271694E+03  0.35165912172E+03  0.12500000000E+03 0.  0.
          4    1    1    2  501    0  0.57927374227E+00  0.82975062550E+02 -0.50811435033E+02  0.97298502010E+02  0.00000000000E+00 0.  1.
         -4    1    1    2    0  502 -0.65462355260E+02  0.21291245358E+03 -0.55181323407E+02  0.22948205006E+03  0.00000000000E+00 0. -1.
<mgrwt>
<rscale>  4 0.32769534E+03</rscale>
<asrwt>0</asrwt>
<pdfrwt beam="1">  1       21 0.53849202E-01 0.32769534E+03</pdfrwt>
<pdfrwt beam="2">  1       21 0.50526132E-01 0.32769534E+03</pdfrwt>
<totfact> 0.11331870E+04</totfact>
</mgrwt>
</event>
<event>
 5    0  0.2257501E-001  0.2711130E+03  0.7546771E-02  0.1100644E+00
         21   -1    0    0  503  502  0.00000000000E+00  0.00000000000E+00  0.11031351250E+04  0.11031351250E+04  0.00000000000E+00 0.  1.
         21   -1    0    0  501  503 -0.00000000000E+00 -0.00000000000E+00 -0.67974554112E+02  0.67974554112E+02  0.00000000000E+00 0.  1.
         25    1    1    2    0    0 -0.19445974214E+03  0.14164283065E+03  0.38783513409E+03  0.47320014161E+03  0.12500000000E+03 0.  0.
          3    1    1    2  501    0  0.13165663907E+03 -0.56348872865E+02  0.47024722674E+03  0.49157005639E+03  0.00000000000E+00 0.  1.
         -3    1    1    2    0  502  0.62803103065E+02 -0.85293957781E+02  0.17707821008E+03  0.20633948113E+03  0.00000000000E+00 0. -1.
<mgrwt>
<rscale>  4 0.27111304E+03</rscale>
<asrwt>0</asrwt>
<pdfrwt beam="1">  1       21 0.16971308E+00 0.27111304E+03</pdfrwt>
<pdfrwt beam="2">  1       21 0.10457625E-01 0.27111304E+03</pdfrwt>
<totfact> 0.15287897E+04</totfact>
</mgrwt>
</event>
<event>
 5    0  0.2257501E-001  0.2622407E+03  0.7546771E-02  0.1105804E+00
         21   -1    0    0  503  502  0.00000000000E+00  0.00000000000E+00  0.94284659284E+03  0.94284659284E+03  0.00000000000E+00 0. -1.
         21   -1    0    0  501  503 -0.00000000000E+00 -0.00000000000E+00 -0.17974879874E+03  0.17974879874E+03  0.00000000000E+00 0. -1.
         25    1    1    2    0    0  0.21923344720E+03 -0.21576454713E+03  0.16388081932E+03  0.37026958707E+03  0.12500000000E+03 0.  0.
          1    1    1    2  501    0  0.75075444569E+00  0.18011605497E+03  0.10091601165E+03  0.20646161459E+03  0.00000000000E+00 0.  1.
         -1    1    1    2    0  502 -0.21998420165E+03  0.35648492156E+02  0.49830096313E+03  0.54586418991E+03  0.00000000000E+00 0. -1.
<mgrwt>
<rscale>  4 0.26224069E+03</rscale>
<asrwt>0</asrwt>
<pdfrwt beam="1">  1       21 0.14505332E+00 0.26224069E+03</pdfrwt>
<pdfrwt beam="2">  1       21 0.27653662E-01 0.26224069E+03</pdfrwt>
<totfact> 0.38635593E+03</totfact>
</mgrwt>
</event>
<event>
 5    0  0.2257501E-001  0.2525476E+03  0.7546771E-02  0.1111705E+00
         21   -1    0    0  503  502  0.00000000000E+00  0.00000000000E+00  0.76795160658E+03  0.76795160658E+03  0.00000000000E+00 0. -1.
         21   -1    0    0  501  503 -0.00000000000E+00 -0.00000000000E+00 -0.82048852580E+02  0.82048852580E+02  0.00000000000E+00 0. -1.
         25    1    1    2    0    0  0.10791788188E+03  0.19107340508E+03  0.45683113589E+03  0.52199138123E+03  0.12500000000E+03 0.  0.
          3    1    1    2  501    0 -0.45974382576E+02 -0.12968525997E+03  0.91898416492E+02  0.16546065835E+03  0.00000000000E+00 0.  1.
         -3    1    1    2    0  502 -0.61943499309E+02 -0.61388145111E+02  0.13717320162E+03  0.16254841958E+03  0.00000000000E+00 0. -1.
<mgrwt>
<rscale>  4 0.25254765E+03</rscale>
<asrwt>0</asrwt>
<pdfrwt beam="1">  1       21 0.11814640E+00 0.25254765E+03</pdfrwt>
<pdfrwt beam="2">  1       21 0.12622901E-01 0.25254765E+03</pdfrwt>
<totfact> 0.28481895E+04</totfact>
</mgrwt>
</event>
<event>
 5    0  0.2257501E-001  0.2786818E+03  0.7546771E-02  0.1096411E+00
         21   -1    0    0  501  502  0.00000000000E+00  0.00000000000E+00  0.12318440261E+04  0.12318440261E+04  0.00000000000E+00 0. -1.
         21   -1    0    0  502  503 -0.00000000000E+00 -0.00000000000E+00 -0.42103574398E+03  0.42103574398E+03  0.00000000000E+00 0.  1.
         25    1    1    2    0    0  0.81835857556E+02 -0.23524764662E+03 -0.35826180503E+03  0.45388884517E+03  0.12500000000E+03 0.  0.
          3    1    1    2  501    0 -0.25133000031E+02  0.40243905286E+02  0.42721214478E+03  0.42983887243E+03  0.00000000000E+00 0.  1.
         -3    1    1    2    0  503 -0.56702857526E+02  0.19500374133E+03  0.74185794238E+03  0.76915205249E+03  0.00000000000E+00 0. -1.
<mgrwt>
<rscale>  4 0.27868183E+03</rscale>
<asrwt>0</asrwt>
<pdfrwt beam="1">  1       21 0.18951446E+00 0.27868183E+03</pdfrwt>
<pdfrwt beam="2">  1       21 0.64774730E-01 0.27868183E+03</pdfrwt>
<totfact> 0.31529352E+02</totfact>
</mgrwt>
</event>
<event>
 5    0  0.2257501E-001  0.3758374E+03  0.7546771E-02  0.1052483E+00
         21   -1    0    0  501  502  0.00000000000E+00  0.00000000000E+00  0.23366398597E+03  0.23366398597E+03  0.00000000000E+00 0. -1.
         21   -1    0    0  502  503 -0.00000000000E+00 -0.00000000000E+00 -0.60557489445E+03  0.60557489445E+03  0.00000000000E+00 0. -1.
         25    1    1    2    0    0  0.34162158087E+03  0.94463952408E+02 -0.15377410818E+03  0.40607907994E+03  0.12500000000E+03 0.  0.
          1    1    1    2  501    0 -0.12106447745E+03 -0.18535634341E+02 -0.14155362049E+02  0.12329051754E+03  0.00000000000E+00 0.  1.
         -1    1    1    2    0  503 -0.22055710342E+03 -0.75928318067E+02 -0.20398143825E+03  0.30986928293E+03  0.00000000000E+00 0. -1.
<mgrwt>
<rscale>  4 0.37583739E+03</rscale>
<asrwt>0</asrwt>
<pdfrwt beam="1">  1       21 0.35948306E-01 0.37583739E+03</pdfrwt>
<pdfrwt beam="2">  1       21 0.93165367E-01 0.37583739E+03</pdfrwt>
<totfact> 0.65566047E+03</totfact>
</mgrwt>
</event>
<event>
 5    0  0.2257501E-001  0.3876534E+03  0.7546771E-02  0.1048141E+00
         21   -1    0    0  501  502  0.00000000000E+00  0.00000000000E+00  0.54431780732E+03  0.54431780732E+03  0.00000000000E+00 0. -1.
         21   -1    0    0  502  503 -0.00000000000E+00 -0.00000000000E+00 -0.73775827854E+03  0.73775827854E+03  0.00000000000E+00 0.  1.
         25    1    1    2    0    0 -0.28871807197E+03 -0.22647740806E+03 -0.60868435642E+03  0.72164519481E+03  0.12500000000E+03 0.  0.
          2    1    1    2  501    0  0.81035850487E+02  0.85053405087E+02  0.18779439041E+03  0.22151213025E+03  0.00000000000E+00 0. -1.
         -2    1    1    2    0  503  0.20768222148E+03  0.14142400298E+03  0.22744949480E+03  0.33891876080E+03  0.00000000000E+00 0.  1.
<mgrwt>
<rscale>  4 0.38765338E+03</rscale>
<asrwt>0</asrwt>
<pdfrwt beam="1">  1       21 0.83741201E-01 0.38765338E+03</pdfrwt>
<pdfrwt beam="2">  1       21 0.11350127E+00 0.38765338E+03</pdfrwt>
<totfact> 0.65010558E+02</totfact>
</mgrwt>
</event>
<event>
 5    0  0.2257501E-001  0.2407636E+03  0.7546771E-02  0.1119285E+00
         21   -1    0    0  503  502  0.00000000000E+00  0.00000000000E+00  0.67213277186E+03  0.67213277186E+03  0.00000000000E+00 0.  1.
         21   -1    0    0  501  503 -0.00000000000E+00 -0.00000000000E+00 -0.81253709318E+03  0.81253709318E+03  0.00000000000E+00 0.  1.
         25    1    1    2    0    0  0.11069023962E+03 -0.17711602332E+03 -0.76669521641E+03  0.80440597321E+03  0.12500000000E+03 0.  0.
          3    1    1    2  501    0 -0.54199270373E+02  0.75826042701E+02  0.83232489550E+02  0.12495918124E+03  0.00000000000E+00 0. -1.
         -3    1    1    2    0  502 -0.56490969250E+02  0.10128998061E+03  0.54305840554E+03  0.55530471059E+03  0.00000000000E+00 0.  1.
<mgrwt>
<rscale>  4 0.24076361E+03</rscale>
<asrwt>0</asrwt>
<pdfrwt beam="1">  1       21 0.10340504E+00 0.24076361E+03</pdfrwt>
<pdfrwt beam="2">  1       21 0.12500571E+00 0.24076361E+03</pdfrwt>
<totfact> 0.34340273E+02</totfact>
</mgrwt>
</event>
