<event>
 5    0  0.2947253E-001  0.2370340E+03  0.7546771E-02  0.1121785E+00
          2   -1    0    0  502    0 -0.00000000000E+00  0.00000000000E+00  0.31367962133E+03  0.31367962133E+03  0.00000000000E+00 0.  1.
         21   -1    0    0  503  502  0.00000000000E+00 -0.00000000000E+00 -0.18104937984E+03  0.18104937984E+03  0.00000000000E+00 0. -1.
         25    1    1    2    0    0  0.14797754622E+02  0.20085100090E+03 -0.21875023938E+02  0.23804120394E+03  0.12500000000E+03 0.  0.
         21    1    1    2  503  501 -0.20344670832E+02 -0.49694003749E+02  0.42209402144E+02  0.68301048814E+02  0.00000000000E+00 0.  1.
          2    1    1    2  501    0  0.55469162102E+01 -0.15115699715E+03  0.11229586328E+03  0.18838674841E+03  0.00000000000E+00 0.  1.
<mgrwt>
<rscale>  4 0.23703396E+03</rscale>
<asrwt>0</asrwt>
<pdfrwt beam="1">  1       21 0.27853751E-01 0.23703396E+03</pdfrwt>
<pdfrwt beam="2">  1        2 0.48258403E-01 0.23703396E+03</pdfrwt>
<totfact> 0.15797967E+04</totfact>
</mgrwt>
</event>
<event>
 5    0  0.2947253E-001  0.2314220E+03  0.7546771E-02  0.1125643E+00
         21   -1    0    0  503  502  0.00000000000E+00  0.00000000000E+00  0.55620566462E+02  0.55620566462E+02  0.00000000000E+00 0. -1.
          2   -1    0    0  502    0 -0.00000000000E+00 -0.00000000000E+00 -0.13313426398E+04  0.13313426398E+04  0.00000000000E+00 0. -1.
         25    1    1    2    0    0  0.54937323411E+02 -0.22161627474E+03 -0.41838525346E+03  0.49275054850E+03  0.12500000000E+03 0.  0.
         21    1    1    2  503  501 -0.33205878178E+02  0.16073578047E+03 -0.40052478001E+03  0.43284953606E+03  0.00000000000E+00 0. -1.
          2    1    1    2  501    0 -0.21731445232E+02  0.60880494271E+02 -0.45681203983E+03  0.46136312166E+03  0.00000000000E+00 0. -1.
<mgrwt>
<rscale>  4 0.23142204E+03</rscale>
<asrwt>0</asrwt>
<pdfrwt beam="1">  1       21 0.85570106E-02 0.23142204E+03</pdfrwt>
<pdfrwt beam="2">  1        2 0.20482194E+00 0.23142204E+03</pdfrwt>
<totfact> 0.22841442E+04</totfact>
</mgrwt>
</event>
<event>
 5    0  0.2947253E-001  0.2426649E+03  0.7546771E-02  0.1118030E+00
          1   -1    0    0  502    0 -0.00000000000E+00  0.00000000000E+00  0.54736520964E+03  0.54736520964E+03  0.00000000000E+00 0.  1.
         21   -1    0    0  503  502  0.00000000000E+00 -0.00000000000E+00 -0.11120185610E+03  0.11120185610E+03  0.00000000000E+00 0.  1.
         25    1    1    2    0    0 -0.20791050301E+03 -0.58731918230E+01  0.10879571397E+03  0.26593754722E+03  0.12500000000E+03 0.  0.
         21    1    1    2  503  501  0.28645952741E+02 -0.78225140326E+01  0.17742205301E+02  0.34591446676E+02  0.00000000000E+00 0.  1.
          1    1    1    2  501    0  0.17926455027E+03  0.13695705856E+02  0.30962543426E+03  0.35803807184E+03  0.00000000000E+00 0.  1.
<mgrwt>
<rscale>  4 0.24266494E+03</rscale>
<asrwt>0</asrwt>
<pdfrwt beam="1">  1       21 0.17107978E-01 0.24266494E+03</pdfrwt>
<pdfrwt beam="2">  1        1 0.84210031E-01 0.24266494E+03</pdfrwt>
<totfact> 0.13508557E+04</totfact>
</mgrwt>
</event>
<event>
 5    0  0.2947253E-001  0.4569816E+03  0.7546771E-02  0.1026303E+00
          1   -1    0    0  502    0 -0.00000000000E+00  0.00000000000E+00  0.35846786579E+03  0.35846786579E+03  0.00000000000E+00 0.  1.
         21   -1    0    0  503  502  0.00000000000E+00 -0.00000000000E+00 -0.67808528587E+03  0.67808528587E+03  0.00000000000E+00 0.  1.
         25    1    1    2    0    0  0.29212986603E+03  0.31620372284E+03 -0.36396401812E+03  0.57742485178E+03  0.12500000000E+03 0.  0.
         21    1    1    2  503  501 -0.82678144945E+02 -0.19256535028E+03 -0.10399974328E+02  0.20982194653E+03  0.00000000000E+00 0.  1.
          1    1    1    2  501    0 -0.20945172109E+03 -0.12363837255E+03  0.54746572369E+02  0.24930635335E+03  0.00000000000E+00 0.  1.
<mgrwt>
<rscale>  4 0.45478898E+03</rscale>
<asrwt>0</asrwt>
<pdfrwt beam="1">  1       21 0.10432081E+00 0.45698159E+03</pdfrwt>
<pdfrwt beam="2">  1        1 0.55148903E-01 0.45698159E+03</pdfrwt>
<totfact> 0.51349626E+02</totfact>
</mgrwt>
</event>
<event>
 5    0  0.2947253E-001  0.3764493E+03  0.7546771E-02  0.1052254E+00
          1   -1    0    0  502    0 -0.00000000000E+00  0.00000000000E+00  0.20844091132E+04  0.20844091132E+04  0.00000000000E+00 0. -1.
         21   -1    0    0  503  502  0.00000000000E+00 -0.00000000000E+00 -0.77994008987E+02  0.77994008987E+02  0.00000000000E+00 0.  1.
         25    1    1    2    0    0 -0.29625910367E+03 -0.19575402694E+03  0.58772020183E+03  0.69794636700E+03  0.12500000000E+03 0.  0.
         21    1    1    2  503  501  0.14672996400E+02  0.13844206257E+02  0.32097907803E+02  0.37910876481E+02  0.00000000000E+00 0.  1.
          1    1    1    2  501    0  0.28158610727E+03  0.18190982069E+03  0.13865969946E+04  0.14265458787E+04  0.00000000000E+00 0. -1.
<mgrwt>
<rscale>  4 0.37644933E+03</rscale>
<asrwt>0</asrwt>
<pdfrwt beam="1">  1       21 0.11999080E-01 0.37644933E+03</pdfrwt>
<pdfrwt beam="2">  1        1 0.32067828E+00 0.37644933E+03</pdfrwt>
<totfact> 0.18526083E+03</totfact>
</mgrwt>
</event>
<event>
 5    0  0.2947253E-001  0.2622148E+03  0.7546771E-02  0.1105820E+00
         21   -1    0    0  503  502  0.00000000000E+00  0.00000000000E+00  0.45349143317E+02  0.45349143317E+02  0.00000000000E+00 0.  1.
          2   -1    0    0  502    0 -0.00000000000E+00 -0.00000000000E+00 -0.14580878717E+04  0.14580878717E+04  0.00000000000E+00 0.  1.
         25    1    1    2    0    0 -0.19346274110E+03  0.12531477478E+03 -0.92941054555E+03  0.96569176612E+03  0.12500000000E+03 0.  0.
         21    1    1    2  503  501  0.78258478186E+02 -0.78444074514E+02 -0.24594944188E+03  0.26975728015E+03  0.00000000000E+00 0.  1.
          2    1    1    2  501    0  0.11520426291E+03 -0.46870700268E+02 -0.23737874097E+03  0.26798796876E+03  0.00000000000E+00 0.  1.
<mgrwt>
<rscale>  4 0.26221485E+03</rscale>
<asrwt>0</asrwt>
<pdfrwt beam="1">  1       21 0.69767909E-02 0.26221485E+03</pdfrwt>
<pdfrwt beam="2">  1        2 0.22432122E+00 0.26221485E+03</pdfrwt>
<totfact> 0.27666735E+04</totfact>
</mgrwt>
</event>
<event>
 5    0  0.2947253E-001  0.2006189E+03  0.7546771E-02  0.1149218E+00
          2   -1    0    0  502    0 -0.00000000000E+00  0.00000000000E+00  0.23965672692E+04  0.23965672692E+04  0.00000000000E+00 0. -1.
         21   -1    0    0  503  502  0.00000000000E+00 -0.00000000000E+00 -0.31909888558E+02  0.31909888558E+02  0.00000000000E+00 0. -1.
         25    1    1    2    0    0 -0.13207361168E+02 -0.21027726906E+03  0.66322668880E+03  0.70702588708E+03  0.12500000000E+03 0.  0.
         21    1    1    2  503  501  0.61298903073E+02  0.10692015417E+03  0.51435905028E+03  0.52891843179E+03  0.00000000000E+00 0. -1.
          2    1    1    2  501    0 -0.48091541906E+02  0.10335711490E+03  0.11870716416E+04  0.11925328389E+04  0.00000000000E+00 0. -1.
<mgrwt>
<rscale>  4 0.20061886E+03</rscale>
<asrwt>0</asrwt>
<pdfrwt beam="1">  1       21 0.49092155E-02 0.20061886E+03</pdfrwt>
<pdfrwt beam="2">  1        2 0.36870252E+00 0.20061886E+03</pdfrwt>
<totfact> 0.16487359E+04</totfact>
</mgrwt>
</event>
<event>
 5    0  0.5551147E-001  0.3609356E+03  0.7546771E-02  0.1058214E+00
          2   -1    0    0  502    0 -0.00000000000E+00  0.00000000000E+00  0.80069434206E+03  0.80069434206E+03  0.00000000000E+00 0.  1.
         21   -1    0    0  503  502  0.00000000000E+00 -0.00000000000E+00 -0.42716902244E+03  0.42716902244E+03  0.00000000000E+00 0.  1.
         25    1    1    2    0    0 -0.24975118015E+03  0.22863474713E+03 -0.30016319578E+03  0.46943843439E+03  0.12500000000E+03 0.  0.
         21    1    1    2  503  501  0.66194354287E+01 -0.20515817833E+02  0.15498884604E+02  0.26550539179E+02  0.00000000000E+00 0. -1.
          2    1    1    2  501    0  0.24313174472E+03 -0.20811892929E+03  0.65818963080E+03  0.73187439094E+03  0.00000000000E+00 0.  1.
<mgrwt>
<rscale>  4 0.36093559E+03</rscale>
<asrwt>0</asrwt>
<pdfrwt beam="1">  1       21 0.65718311E-01 0.36093559E+03</pdfrwt>
<pdfrwt beam="2">  1        2 0.12318374E+00 0.36093559E+03</pdfrwt>
<totfact> 0.88757777E+02</totfact>
</mgrwt>
</event>
<event>
 5    0  0.3008898E-001  0.3072527E+03  0.7546771E-02  0.1081670E+00
         21   -1    0    0  503  502  0.00000000000E+00  0.00000000000E+00  0.25615460370E+03  0.25615460370E+03  0.00000000000E+00 0. -1.
          2   -1    0    0  502    0 -0.00000000000E+00 -0.00000000000E+00 -0.41638222097E+03  0.41638222097E+03  0.00000000000E+00 0. -1.
         25    1    1    2    0    0 -0.26527256213E+03  0.10476254171E+03 -0.19309603865E+03  0.36640933736E+03  0.12500000000E+03 0.  0.
         21    1    1    2  503  501  0.22198232565E+02  0.20363119886E+02 -0.35162574140E+01  0.30327912007E+02  0.00000000000E+00 0. -1.
          2    1    1    2  501    0  0.24307432956E+03 -0.12512566160E+03  0.36384678799E+02  0.27579957529E+03  0.00000000000E+00 0. -1.
<mgrwt>
<rscale>  4 0.30725271E+03</rscale>
<asrwt>0</asrwt>
<pdfrwt beam="1">  1       21 0.39408401E-01 0.30725271E+03</pdfrwt>
<pdfrwt beam="2">  1        2 0.64058803E-01 0.30725271E+03</pdfrwt>
<totfact> 0.57483191E+03</totfact>
</mgrwt>
</event>
<event>
 5    0  0.2947253E-001  0.2935744E+03  0.7546771E-02  0.1088498E+00
         21   -1    0    0  503  502  0.00000000000E+00  0.00000000000E+00  0.12187658517E+03  0.12187658517E+03  0.00000000000E+00 0.  1.
          2   -1    0    0  502    0 -0.00000000000E+00 -0.00000000000E+00 -0.29026771796E+04  0.29026771796E+04  0.00000000000E+00 0.  1.
         25    1    1    2    0    0  0.26094262827E+03 -0.54852324517E+02 -0.84386564947E+02  0.30634282283E+03  0.12500000000E+03 0.  0.
         21    1    1    2  503  501 -0.27032941748E+02 -0.59538951353E+02 -0.26731869642E+03  0.27519984034E+03  0.00000000000E+00 0.  1.
          2    1    1    2  501    0 -0.23390968652E+03  0.11439127587E+03 -0.24290953331E+04  0.24430111016E+04  0.00000000000E+00 0.  1.
<mgrwt>
<rscale>  4 0.29357436E+03</rscale>
<asrwt>0</asrwt>
<pdfrwt beam="1">  1       21 0.18750245E-01 0.29357436E+03</pdfrwt>
<pdfrwt beam="2">  1        2 0.44656570E+00 0.29357436E+03</pdfrwt>
<totfact> 0.76155257E+02</totfact>
</mgrwt>
</event>
<event>
 5    0  0.2947253E-001  0.3425749E+03  0.7546771E-02  0.1065705E+00
          2   -1    0    0  502    0 -0.00000000000E+00  0.00000000000E+00  0.21496261492E+04  0.21496261492E+04  0.00000000000E+00 0.  1.
         21   -1    0    0  503  502  0.00000000000E+00 -0.00000000000E+00 -0.57880542902E+02  0.57880542902E+02  0.00000000000E+00 0. -1.
         25    1    1    2    0    0  0.31608637808E+03 -0.42684310827E+02  0.13275561849E+04  0.13710444825E+04  0.12500000000E+03 0.  0.
         21    1    1    2  503  501 -0.27601928642E+02  0.42639811072E+02  0.13680355584E+03  0.14592886227E+03  0.00000000000E+00 0.  1.
          2    1    1    2  501    0 -0.28848444943E+03  0.44499755182E-01  0.62738586557E+03  0.69053334739E+03  0.00000000000E+00 0.  1.
<mgrwt>
<rscale>  4 0.34257488E+03</rscale>
<asrwt>0</asrwt>
<pdfrwt beam="1">  1       21 0.89047006E-02 0.34257488E+03</pdfrwt>
<pdfrwt beam="2">  1        2 0.33071165E+00 0.34257488E+03</pdfrwt>
<totfact> 0.75910660E+03</totfact>
</mgrwt>
</event>
<event>
 5    0  0.2947253E-001  0.3542321E+03  0.7546771E-02  0.1060891E+00
         21   -1    0    0  503  502  0.00000000000E+00  0.00000000000E+00  0.17469081069E+03  0.17469081069E+03  0.00000000000E+00 0. -1.
          2   -1    0    0  502    0 -0.00000000000E+00 -0.00000000000E+00 -0.10641452023E+04  0.10641452023E+04  0.00000000000E+00 0. -1.
         25    1    1    2    0    0 -0.22215116569E+03 -0.24597608648E+03 -0.84673351463E+02  0.36421141111E+03  0.12500000000E+03 0.  0.
         21    1    1    2  503  501  0.11541067520E+03  0.18782434783E+03 -0.49619729616E+03  0.54296350365E+03  0.00000000000E+00 0. -1.
          2    1    1    2  501    0  0.10674049049E+03  0.58151738649E+02 -0.30858374402E+03  0.33166109824E+03  0.00000000000E+00 0. -1.
<mgrwt>
<rscale>  4 0.35423209E+03</rscale>
<asrwt>0</asrwt>
<pdfrwt beam="1">  1       21 0.26875510E-01 0.35423209E+03</pdfrwt>
<pdfrwt beam="2">  1        2 0.16371464E+00 0.35423209E+03</pdfrwt>
<totfact> 0.38247450E+03</totfact>
</mgrwt>
</event>
<event>
 5    0  0.2947253E-001  0.2434921E+03  0.7546771E-02  0.1117488E+00
          1   -1    0    0  502    0 -0.00000000000E+00  0.00000000000E+00  0.53929756846E+03  0.53929756846E+03  0.00000000000E+00 0. -1.
         21   -1    0    0  503  502  0.00000000000E+00 -0.00000000000E+00 -0.16775608176E+04  0.16775608176E+04  0.00000000000E+00 0. -1.
         25    1    1    2    0    0 -0.20872711591E+03 -0.19724343768E+02 -0.16082190368E+04  0.16266374916E+04  0.12500000000E+03 0.  0.
         21    1    1    2  503  501  0.44449210792E+02 -0.58296328241E+02 -0.12734396220E+02  0.74406713901E+02  0.00000000000E+00 0. -1.
          1    1    1    2  501    0  0.16427790512E+03  0.78020672009E+02  0.48269018384E+03  0.51581418063E+03  0.00000000000E+00 0. -1.
<mgrwt>
<rscale>  4 0.24349209E+03</rscale>
<asrwt>0</asrwt>
<pdfrwt beam="1">  1       21 0.25808628E+00 0.24349209E+03</pdfrwt>
<pdfrwt beam="2">  1        1 0.82968858E-01 0.24349209E+03</pdfrwt>
<totfact> 0.25408163E+01</totfact>
</mgrwt>
</event>
<event>
 5    0  0.2947253E-001  0.2240336E+03  0.7546771E-02  0.1130911E+00
         21   -1    0    0  503  502  0.00000000000E+00  0.00000000000E+00  0.27846965592E+03  0.27846965592E+03  0.00000000000E+00 0.  1.
          1   -1    0    0  502    0 -0.00000000000E+00 -0.00000000000E+00 -0.49220125115E+03  0.49220125115E+03  0.00000000000E+00 0.  1.
         25    1    1    2    0    0  0.22576676910E+03  0.40910046617E+02  0.11808434469E+03  0.28672840529E+03  0.12500000000E+03 0.  0.
         21    1    1    2  503  501 -0.77757889129E+02  0.67069162444E+02  0.24992532418E+01  0.10271712681E+03  0.00000000000E+00 0.  1.
          1    1    1    2  501    0 -0.14800887997E+03 -0.10797920906E+03 -0.33431519316E+03  0.38122537497E+03  0.00000000000E+00 0.  1.
<mgrwt>
<rscale>  4 0.22403357E+03</rscale>
<asrwt>0</asrwt>
<pdfrwt beam="1">  1       21 0.42841486E-01 0.22403357E+03</pdfrwt>
<pdfrwt beam="2">  1        1 0.75723268E-01 0.22403357E+03</pdfrwt>
<totfact> 0.26380069E+03</totfact>
</mgrwt>
</event>
<event>
 5    0  0.2947253E-001  0.4355781E+03  0.7546771E-02  0.1032112E+00
          1   -1    0    0  502    0 -0.00000000000E+00  0.00000000000E+00  0.18414663782E+03  0.18414663782E+03  0.00000000000E+00 0.  1.
         21   -1    0    0  503  502  0.00000000000E+00 -0.00000000000E+00 -0.17382875347E+04  0.17382875347E+04  0.00000000000E+00 0.  1.
         25    1    1    2    0    0  0.24990652018E+03 -0.33414072158E+03 -0.13989986398E+04  0.14652390538E+04  0.12500000000E+03 0.  0.
         21    1    1    2  503  501 -0.83355793181E+02  0.62965578042E+02 -0.76227078975E+02  0.12931906218E+03  0.00000000000E+00 0. -1.
          1    1    1    2  501    0 -0.16655072699E+03  0.27117514354E+03 -0.78915178151E+02  0.32787605658E+03  0.00000000000E+00 0.  1.
<mgrwt>
<rscale>  4 0.43557811E+03</rscale>
<asrwt>0</asrwt>
<pdfrwt beam="1">  1       21 0.26742885E+00 0.43557811E+03</pdfrwt>
<pdfrwt beam="2">  1        1 0.28330252E-01 0.43557811E+03</pdfrwt>
<totfact> 0.78523426E+01</totfact>
</mgrwt>
</event>
<event>
 5    0  0.2947253E-001  0.2863387E+03  0.7546771E-02  0.1092276E+00
          2   -1    0    0  502    0 -0.00000000000E+00  0.00000000000E+00  0.18729658749E+03  0.18729658749E+03  0.00000000000E+00 0. -1.
         21   -1    0    0  503  502  0.00000000000E+00 -0.00000000000E+00 -0.47359788360E+03  0.47359788360E+03  0.00000000000E+00 0. -1.
         25    1    1    2    0    0 -0.18323426468E+03  0.17357525032E+03 -0.97980232296E+02  0.29820846601E+03  0.12500000000E+03 0.  0.
         21    1    1    2  503  501 -0.33741252748E+02 -0.21672381840E+02 -0.49312858663E+02  0.63560383110E+02  0.00000000000E+00 0. -1.
          2    1    1    2  501    0  0.21697551743E+03 -0.15190286848E+03 -0.13900820515E+03  0.29912562196E+03  0.00000000000E+00 0. -1.
<mgrwt>
<rscale>  4 0.28633871E+03</rscale>
<asrwt>0</asrwt>
<pdfrwt beam="1">  1       21 0.72861211E-01 0.28633871E+03</pdfrwt>
<pdfrwt beam="2">  1        2 0.28814860E-01 0.28633871E+03</pdfrwt>
<totfact> 0.37250153E+03</totfact>
</mgrwt>
</event>
<event>
 5    0  0.2947253E-001  0.2641129E+03  0.7546771E-02  0.1104697E+00
          2   -1    0    0  502    0 -0.00000000000E+00  0.00000000000E+00  0.64686779936E+03  0.64686779936E+03  0.00000000000E+00 0.  1.
         21   -1    0    0  503  502  0.00000000000E+00 -0.00000000000E+00 -0.10718999949E+03  0.10718999949E+03  0.00000000000E+00 0.  1.
         25    1    1    2    0    0  0.16188496323E+03 -0.17898539420E+03  0.28204538109E+03  0.39168496224E+03  0.12500000000E+03 0.  0.
         21    1    1    2  503  501 -0.28366421032E+02 -0.33535023535E+01  0.23834878101E+02  0.37202167064E+02  0.00000000000E+00 0. -1.
          2    1    1    2  501    0 -0.13351854220E+03  0.18233889655E+03  0.23379754068E+03  0.32517066954E+03  0.00000000000E+00 0.  1.
<mgrwt>
<rscale>  4 0.26411290E+03</rscale>
<asrwt>0</asrwt>
<pdfrwt beam="1">  1       21 0.16490770E-01 0.26411290E+03</pdfrwt>
<pdfrwt beam="2">  1        2 0.99518120E-01 0.26411290E+03</pdfrwt>
<totfact> 0.18934061E+04</totfact>
</mgrwt>
</event>
<event>
 5    0  0.2947253E-001  0.2448323E+03  0.7546771E-02  0.1116615E+00
         21   -1    0    0  503  502  0.00000000000E+00  0.00000000000E+00  0.13348105345E+03  0.13348105345E+03  0.00000000000E+00 0. -1.
          2   -1    0    0  502    0 -0.00000000000E+00 -0.00000000000E+00 -0.31499957405E+04  0.31499957405E+04  0.00000000000E+00 0.  1.
         25    1    1    2    0    0 -0.52578781803E+02 -0.20793320968E+03  0.82542867258E+01  0.24838253005E+03  0.12500000000E+03 0.  0.
         21    1    1    2  503  501  0.53743584336E+02  0.72441928423E+02 -0.62182225328E+03  0.62833042305E+03  0.00000000000E+00 0. -1.
          2    1    1    2  501    0 -0.11648025330E+01  0.13549128126E+03 -0.24029467205E+04  0.24067638408E+04  0.00000000000E+00 0.  1.
<mgrwt>
<rscale>  4 0.24483230E+03</rscale>
<asrwt>0</asrwt>
<pdfrwt beam="1">  1       21 0.20535547E-01 0.24483230E+03</pdfrwt>
<pdfrwt beam="2">  1        2 0.48461472E+00 0.24483230E+03</pdfrwt>
<totfact> 0.47121644E+02</totfact>
</mgrwt>
</event>
<event>
 5    0  0.2947253E-001  0.4169046E+03  0.7546771E-02  0.1038078E+00
         21   -1    0    0  503  502  0.00000000000E+00  0.00000000000E+00  0.33996534428E+03  0.33996534428E+03  0.00000000000E+00 0. -1.
          2   -1    0    0  502    0 -0.00000000000E+00 -0.00000000000E+00 -0.19719620611E+04  0.19719620611E+04  0.00000000000E+00 0.  1.
         25    1    1    2    0    0 -0.26318227293E+03  0.29819379483E+03  0.17953276329E+03  0.45391790134E+03  0.12500000000E+03 0.  0.
         21    1    1    2  503  501  0.34972536474E+02 -0.11387038596E+03 -0.56631805369E+03  0.57871036024E+03  0.00000000000E+00 0. -1.
          2    1    1    2  501    0  0.22820973646E+03 -0.18432340887E+03 -0.12452114264E+04  0.12792991438E+04  0.00000000000E+00 0.  1.
<mgrwt>
<rscale>  4 0.41690460E+03</rscale>
<asrwt>0</asrwt>
<pdfrwt beam="1">  1       21 0.52302360E-01 0.41690460E+03</pdfrwt>
<pdfrwt beam="2">  1        2 0.30337878E+00 0.41690460E+03</pdfrwt>
<totfact> 0.30483301E+02</totfact>
</mgrwt>
</event>
<event>
 5    0  0.2947253E-001  0.2132455E+03  0.7546771E-02  0.1139021E+00
          1   -1    0    0  502    0 -0.00000000000E+00  0.00000000000E+00  0.24966155043E+04  0.24966155043E+04  0.00000000000E+00 0.  1.
         21   -1    0    0  503  502  0.00000000000E+00 -0.00000000000E+00 -0.25537610072E+02  0.25537610072E+02  0.00000000000E+00 0.  1.
         25    1    1    2    0    0 -0.96302731680E+02  0.18556672226E+03  0.12491041002E+04  0.12726332063E+04  0.12500000000E+03 0.  0.
         21    1    1    2  503  501 -0.25213510950E+01 -0.60771952219E+02  0.72786486631E+03  0.73040184214E+03  0.00000000000E+00 0.  1.
          1    1    1    2  501    0  0.98824082775E+02 -0.12479477005E+03  0.49410892762E+03  0.51911806588E+03  0.00000000000E+00 0.  1.
<mgrwt>
<rscale>  4 0.21324553E+03</rscale>
<asrwt>0</asrwt>
<pdfrwt beam="1">  1       21 0.39288651E-02 0.21324553E+03</pdfrwt>
<pdfrwt beam="2">  1        1 0.38409450E+00 0.21324553E+03</pdfrwt>
<totfact> 0.73568135E+03</totfact>
</mgrwt>
</event>
<event>
 5    0  0.2947253E-001  0.2877831E+03  0.7546771E-02  0.1091512E+00
          2   -1    0    0  502    0 -0.00000000000E+00  0.00000000000E+00  0.17098038324E+04  0.17098038324E+04  0.00000000000E+00 0. -1.
         21   -1    0    0  503  502  0.00000000000E+00 -0.00000000000E+00 -0.82822000115E+02  0.82822000115E+02  0.00000000000E+00 0.  1.
         25    1    1    2    0    0  0.27259157490E+03  0.26948387532E+02  0.38486094255E+03  0.48864642370E+03  0.12500000000E+03 0.  0.
         21    1    1    2  503  501 -0.28865223630E+02 -0.34830240128E+02  0.78135942318E+03  0.78266780625E+03  0.00000000000E+00 0. -1.
          2    1    1    2  501    0 -0.24372635127E+03  0.78818525952E+01  0.46076146660E+03  0.52131160260E+03  0.00000000000E+00 0. -1.
<mgrwt>
<rscale>  4 0.28778308E+03</rscale>
<asrwt>0</asrwt>
<pdfrwt beam="1">  1       21 0.12741847E-01 0.28778308E+03</pdfrwt>
<pdfrwt beam="2">  1        2 0.26304672E+00 0.28778308E+03</pdfrwt>
<totfact> 0.69341460E+03</totfact>
</mgrwt>
</event>
<event>
 5    0  0.2947253E-001  0.3216619E+03  0.7546771E-02  0.1074887E+00
         21   -1    0    0  501  502  0.00000000000E+00  0.00000000000E+00  0.67985449890E+03  0.67985449890E+03  0.00000000000E+00 0. -1.
         -4   -1    0    0    0  501 -0.00000000000E+00 -0.00000000000E+00 -0.56894007805E+03  0.56894007805E+03  0.00000000000E+00 0. -1.
         25    1    1    2    0    0  0.25052644714E+03 -0.15836005240E+03  0.59702696956E+03  0.67816488356E+03  0.12500000000E+03 0.  0.
         21    1    1    2  501  501 -0.25561782153E+02  0.16248657037E+02 -0.75362968995E+02  0.81221922275E+02  0.00000000000E+00 0. -1.
         -4    1    1    2    0  502 -0.22496466499E+03  0.14211139536E+03 -0.41074957971E+03  0.48940777111E+03  0.00000000000E+00 0. -1.
<mgrwt>
<rscale>  4 0.32166195E+03</rscale>
<asrwt>0</asrwt>
<pdfrwt beam="1">  1       21 0.10459300E+00 0.32166195E+03</pdfrwt>
<pdfrwt beam="2">  1       -4 0.87529243E-01 0.32166195E+03</pdfrwt>
<totfact> 0.34511643E+01</totfact>
</mgrwt>
</event>
<event>
 5    0  0.3077989E-001  0.3939164E+03  0.7546771E-02  0.1045907E+00
          2   -1    0    0  502    0 -0.00000000000E+00  0.00000000000E+00  0.14560237253E+04  0.14560237253E+04  0.00000000000E+00 0.  1.
         21   -1    0    0  503  502  0.00000000000E+00 -0.00000000000E+00 -0.20212792063E+03  0.20212792063E+03  0.00000000000E+00 0.  1.
         25    1    1    2    0    0 -0.13881904590E+03  0.34680600161E+03  0.54684250940E+02  0.39769397476E+03  0.12500000000E+03 0.  0.
         21    1    1    2  503  501  0.28764244658E+02 -0.14580954547E+02  0.53337548586E+02  0.62328806305E+02  0.00000000000E+00 0. -1.
          2    1    1    2  501    0  0.11005480124E+03 -0.33222504707E+03  0.11458740051E+04  0.11981288649E+04  0.00000000000E+00 0.  1.
<mgrwt>
<rscale>  4 0.39391640E+03</rscale>
<asrwt>0</asrwt>
<pdfrwt beam="1">  1       21 0.31096604E-01 0.39391640E+03</pdfrwt>
<pdfrwt beam="2">  1        2 0.22400364E+00 0.39391640E+03</pdfrwt>
<totfact> 0.16968525E+03</totfact>
</mgrwt>
</event>
<event>
 5    0  0.2947253E-001  0.3178163E+03  0.7546771E-02  0.1076659E+00
          1   -1    0    0  502    0 -0.00000000000E+00  0.00000000000E+00  0.21002482779E+04  0.21002482779E+04  0.00000000000E+00 0. -1.
         21   -1    0    0  503  502  0.00000000000E+00 -0.00000000000E+00 -0.74162533892E+02  0.74162533892E+02  0.00000000000E+00 0. -1.
         25    1    1    2    0    0  0.13882644185E+03 -0.26617484217E+03  0.39943889537E+03  0.51507112003E+03  0.12500000000E+03 0.  0.
         21    1    1    2  503  501  0.14809927680E+02  0.19587139646E+02  0.45321872515E+02  0.51546698494E+02  0.00000000000E+00 0. -1.
          1    1    1    2  501    0 -0.15363636953E+03  0.24658770252E+03  0.15813249761E+04  0.16077929932E+04  0.00000000000E+00 0. -1.
<mgrwt>
<rscale>  4 0.31781631E+03</rscale>
<asrwt>0</asrwt>
<pdfrwt beam="1">  1       21 0.11409622E-01 0.31781631E+03</pdfrwt>
<pdfrwt beam="2">  1        1 0.32311507E+00 0.31781631E+03</pdfrwt>
<totfact> 0.20197716E+03</totfact>
</mgrwt>
</event>
<event>
 5    0  0.2947253E-001  0.2993611E+03  0.7546771E-02  0.1085560E+00
         21   -1    0    0  503  502  0.00000000000E+00  0.00000000000E+00  0.23267841415E+03  0.23267841415E+03  0.00000000000E+00 0.  1.
          1   -1    0    0  502    0 -0.00000000000E+00 -0.00000000000E+00 -0.39772192250E+03  0.39772192250E+03  0.00000000000E+00 0. -1.
         25    1    1    2    0    0  0.20667910558E+03 -0.17655268595E+03 -0.27063706870E+02  0.30040730323E+03  0.12500000000E+03 0.  0.
         21    1    1    2  503  501  0.14840065268E+02  0.17843557546E+02  0.26167859414E+01  0.23355248912E+02  0.00000000000E+00 0. -1.
          1    1    1    2  501    0 -0.22151917085E+03  0.15870912841E+03 -0.14059658743E+03  0.30663778451E+03  0.00000000000E+00 0. -1.
<mgrwt>
<rscale>  4 0.29936106E+03</rscale>
<asrwt>0</asrwt>
<pdfrwt beam="1">  1       21 0.35796679E-01 0.29936106E+03</pdfrwt>
<pdfrwt beam="2">  1        1 0.61187988E-01 0.29936106E+03</pdfrwt>
<totfact> 0.49138425E+03</totfact>
</mgrwt>
</event>
<event>
 5    0  0.2947253E-001  0.2603187E+03  0.7546771E-02  0.1106952E+00
          2   -1    0    0  502    0 -0.00000000000E+00  0.00000000000E+00  0.13018469861E+04  0.13018469861E+04  0.00000000000E+00 0.  1.
         21   -1    0    0  503  502  0.00000000000E+00 -0.00000000000E+00 -0.49921740249E+02  0.49921740249E+02  0.00000000000E+00 0.  1.
         25    1    1    2    0    0 -0.12283991065E+03 -0.19248686344E+03  0.48925695989E+03  0.55420051339E+03  0.12500000000E+03 0.  0.
         21    1    1    2  503  501  0.19990944624E+02  0.68035278621E+02  0.26779700411E+03  0.27702648324E+03  0.00000000000E+00 0.  1.
          2    1    1    2  501    0  0.10284896603E+03  0.12445158482E+03  0.49487128186E+03  0.52054172973E+03  0.00000000000E+00 0.  1.
<mgrwt>
<rscale>  4 0.26031872E+03</rscale>
<asrwt>0</asrwt>
<pdfrwt beam="1">  1       21 0.76802687E-02 0.26031872E+03</pdfrwt>
<pdfrwt beam="2">  1        2 0.20028413E+00 0.26031872E+03</pdfrwt>
<totfact> 0.28487513E+04</totfact>
</mgrwt>
</event>
<event>
 5    0  0.2947253E-001  0.3612193E+03  0.7546771E-02  0.1058102E+00
          2   -1    0    0  502    0 -0.00000000000E+00  0.00000000000E+00  0.10295079411E+04  0.10295079411E+04  0.00000000000E+00 0.  1.
         21   -1    0    0  503  502  0.00000000000E+00 -0.00000000000E+00 -0.12208866797E+03  0.12208866797E+03  0.00000000000E+00 0.  1.
         25    1    1    2    0    0 -0.11366634878E+03 -0.31927158146E+03  0.49914490700E+03  0.61613717609E+03  0.12500000000E+03 0.  0.
         21    1    1    2  503  501  0.38907323166E+02  0.59882564562E+02  0.51395027227E+02  0.87983806227E+02  0.00000000000E+00 0.  1.
          2    1    1    2  501    0  0.74759025611E+02  0.25938901690E+03  0.35687933890E+03  0.44747562674E+03  0.00000000000E+00 0.  1.
<mgrwt>
<rscale>  4 0.36121930E+03</rscale>
<asrwt>0</asrwt>
<pdfrwt beam="1">  1       21 0.18782873E-01 0.36121930E+03</pdfrwt>
<pdfrwt beam="2">  1        2 0.15838583E+00 0.36121930E+03</pdfrwt>
<totfact> 0.79648362E+03</totfact>
</mgrwt>
</event>
<event>
 5    0  0.2947253E-001  0.3790606E+03  0.7546771E-02  0.1051282E+00
         21   -1    0    0  503  502  0.00000000000E+00  0.00000000000E+00  0.42546698685E+02  0.42546698685E+02  0.00000000000E+00 0.  1.
          2   -1    0    0  502    0 -0.00000000000E+00 -0.00000000000E+00 -0.39250038314E+04  0.39250038314E+04  0.00000000000E+00 0.  1.
         25    1    1    2    0    0  0.29439960803E+03 -0.20344726368E+03 -0.11634398449E+04  0.12236336016E+04  0.12500000000E+03 0.  0.
         21    1    1    2  503  501 -0.32674849203E+02  0.19908131248E+02 -0.13894156444E+03  0.14411362804E+03  0.00000000000E+00 0.  1.
          2    1    1    2  501    0 -0.26172475883E+03  0.18353913243E+03 -0.25800757234E+04  0.25998033005E+04  0.00000000000E+00 0.  1.
<mgrwt>
<rscale>  4 0.37906057E+03</rscale>
<asrwt>0</asrwt>
<pdfrwt beam="1">  1       21 0.65456448E-02 0.37906057E+03</pdfrwt>
<pdfrwt beam="2">  1        2 0.60384685E+00 0.37906057E+03</pdfrwt>
<totfact> 0.10367019E+03</totfact>
</mgrwt>
</event>
<event>
 5    0  0.2947253E-001  0.3442711E+03  0.7546771E-02  0.1064991E+00
          2   -1    0    0  502    0 -0.00000000000E+00  0.00000000000E+00  0.42375027420E+03  0.42375027420E+03  0.00000000000E+00 0. -1.
         21   -1    0    0  503  502  0.00000000000E+00 -0.00000000000E+00 -0.39303587087E+03  0.39303587087E+03  0.00000000000E+00 0.  1.
         25    1    1    2    0    0  0.24213893727E+03  0.21039559110E+03 -0.21630149736E+03  0.40658198123E+03  0.12500000000E+03 0.  0.
         21    1    1    2  503  501 -0.93350764379E+02 -0.12354373902E+03  0.12657630529E+03  0.19999745429E+03  0.00000000000E+00 0.  1.
          2    1    1    2  501    0 -0.14878817289E+03 -0.86851852086E+02  0.12043959539E+03  0.21020670955E+03  0.00000000000E+00 0. -1.
<mgrwt>
<rscale>  4 0.34427107E+03</rscale>
<asrwt>0</asrwt>
<pdfrwt beam="1">  1       21 0.60467057E-01 0.34427107E+03</pdfrwt>
<pdfrwt beam="2">  1        2 0.65192350E-01 0.34427107E+03</pdfrwt>
<totfact> 0.22694194E+03</totfact>
</mgrwt>
</event>
<event>
 5    0  0.2947253E-001  0.3257141E+03  0.7546771E-02  0.1073163E+00
          2   -1    0    0  502    0 -0.00000000000E+00  0.00000000000E+00  0.37552401341E+03  0.37552401341E+03  0.00000000000E+00 0.  1.
         21   -1    0    0  503  502  0.00000000000E+00 -0.00000000000E+00 -0.43115111882E+03  0.43115111882E+03  0.00000000000E+00 0. -1.
         25    1    1    2    0    0 -0.18647578516E+03  0.23459044109E+03 -0.26530530375E+03  0.41930632919E+03  0.12500000000E+03 0.  0.
         21    1    1    2  503  501  0.12878678870E+03 -0.71046861466E+02  0.62106945784E+02  0.15965890574E+03  0.00000000000E+00 0.  1.
          2    1    1    2  501    0  0.57688996456E+02 -0.16354357962E+03  0.14757125255E+03  0.22770989730E+03  0.00000000000E+00 0.  1.
<mgrwt>
<rscale>  4 0.32546055E+03</rscale>
<asrwt>0</asrwt>
<pdfrwt beam="1">  1       21 0.66330941E-01 0.32571405E+03</pdfrwt>
<pdfrwt beam="2">  1        2 0.57772925E-01 0.32571405E+03</pdfrwt>
<totfact> 0.21252249E+03</totfact>
</mgrwt>
</event>
<event>
 5    0  0.2947253E-001  0.2847239E+03  0.7546771E-02  0.1093136E+00
         21   -1    0    0  503  502  0.00000000000E+00  0.00000000000E+00  0.53316325261E+02  0.53316325261E+02  0.00000000000E+00 0.  1.
          2   -1    0    0  502    0 -0.00000000000E+00 -0.00000000000E+00 -0.44393276060E+04  0.44393276060E+04  0.00000000000E+00 0.  1.
         25    1    1    2    0    0 -0.26757395139E+02 -0.25596307773E+03 -0.40390661924E+03  0.49497334517E+03  0.12500000000E+03 0.  0.
         21    1    1    2  503  501 -0.85966156987E+02  0.23528504309E+02 -0.75486632558E+03  0.76010982111E+03  0.00000000000E+00 0.  1.
          2    1    1    2  501    0  0.11272355213E+03  0.23243457342E+03 -0.32272383359E+04  0.32375607650E+04  0.00000000000E+00 0.  1.
<mgrwt>
<rscale>  4 0.28472389E+03</rscale>
<asrwt>0</asrwt>
<pdfrwt beam="1">  1       21 0.82025098E-02 0.28472389E+03</pdfrwt>
<pdfrwt beam="2">  1        2 0.68297363E+00 0.28472389E+03</pdfrwt>
<totfact> 0.27704305E+02</totfact>
</mgrwt>
</event>
<event>
 5    0  0.2947253E-001  0.2734293E+03  0.7546771E-02  0.1099333E+00
         21   -1    0    0  503  502  0.00000000000E+00  0.00000000000E+00  0.79253407060E+02  0.79253407060E+02  0.00000000000E+00 0. -1.
          1   -1    0    0  502    0 -0.00000000000E+00 -0.00000000000E+00 -0.14040278913E+04  0.14040278913E+04  0.00000000000E+00 0.  1.
         25    1    1    2    0    0 -0.24111033203E+03  0.31691892315E+02 -0.22152451527E+03  0.35190436075E+03  0.12500000000E+03 0.  0.
         21    1    1    2  503  501  0.29134721094E+02  0.16191308972E+02 -0.15513026354E+03  0.15867069397E+03  0.00000000000E+00 0.  1.
          1    1    1    2  501    0  0.21197561093E+03 -0.47883201287E+02 -0.94811970541E+03  0.97270624362E+03  0.00000000000E+00 0.  1.
<mgrwt>
<rscale>  4 0.27342927E+03</rscale>
<asrwt>0</asrwt>
<pdfrwt beam="1">  1       21 0.12192832E-01 0.27342927E+03</pdfrwt>
<pdfrwt beam="2">  1        1 0.21600428E+00 0.27342927E+03</pdfrwt>
<totfact> 0.52114003E+03</totfact>
</mgrwt>
</event>
<event>
 5    0  0.2947253E-001  0.2995840E+03  0.7546771E-02  0.1085449E+00
         21   -1    0    0  503  502  0.00000000000E+00  0.00000000000E+00  0.23044148900E+03  0.23044148900E+03  0.00000000000E+00 0. -1.
          2   -1    0    0  502    0 -0.00000000000E+00 -0.00000000000E+00 -0.52235694561E+03  0.52235694561E+03  0.00000000000E+00 0. -1.
         25    1    1    2    0    0  0.27143379149E+03  0.21196685851E+02  0.49503716582E+02  0.30364653894E+03  0.12500000000E+03 0.  0.
         21    1    1    2  503  501 -0.46449135796E+02 -0.21115240864E+02 -0.15889260979E+02  0.53440099433E+02  0.00000000000E+00 0. -1.
          2    1    1    2  501    0 -0.22498465570E+03 -0.81444987610E-01 -0.32552991222E+03  0.39571179623E+03  0.00000000000E+00 0. -1.
<mgrwt>
<rscale>  4 0.29958405E+03</rscale>
<asrwt>0</asrwt>
<pdfrwt beam="1">  1       21 0.35452537E-01 0.29958405E+03</pdfrwt>
<pdfrwt beam="2">  1        2 0.80362607E-01 0.29958405E+03</pdfrwt>
<totfact> 0.55341487E+03</totfact>
</mgrwt>
</event>
<event>
 5    0  0.2947253E-001  0.2592920E+03  0.7546771E-02  0.1107569E+00
         21   -1    0    0  503  502  0.00000000000E+00  0.00000000000E+00  0.42813370048E+03  0.42813370048E+03  0.00000000000E+00 0.  1.
          4   -1    0    0  502    0 -0.00000000000E+00 -0.00000000000E+00 -0.33557314423E+03  0.33557314423E+03  0.00000000000E+00 0.  1.
         25    1    1    2    0    0  0.25627104125E+03  0.65812216015E+02  0.27958096240E+03  0.40471793745E+03  0.12500000000E+03 0.  0.
         21    1    1    2  503  501 -0.10296688587E+03  0.47709892412E+01 -0.15662648941E+03  0.18750146429E+03  0.00000000000E+00 0.  1.
          4    1    1    2  501    0 -0.15330415538E+03 -0.70583205256E+02 -0.30393916734E+02  0.17148744297E+03  0.00000000000E+00 0.  1.
<mgrwt>
<rscale>  4 0.25929201E+03</rscale>
<asrwt>0</asrwt>
<pdfrwt beam="1">  1       21 0.65866723E-01 0.25929201E+03</pdfrwt>
<pdfrwt beam="2">  1        4 0.51626638E-01 0.25929201E+03</pdfrwt>
<totfact> 0.32057158E+02</totfact>
</mgrwt>
</event>
<event>
 5    0  0.2947253E-001  0.2399177E+03  0.7546771E-02  0.1119848E+00
          1   -1    0    0  502    0 -0.00000000000E+00  0.00000000000E+00  0.16247158149E+04  0.16247158149E+04  0.00000000000E+00 0. -1.
         21   -1    0    0  503  502  0.00000000000E+00 -0.00000000000E+00 -0.33729730564E+02  0.33729730564E+02  0.00000000000E+00 0. -1.
         25    1    1    2    0    0  0.20477527734E+03 -0.16038572487E+01  0.60109730813E+03  0.64720820484E+03  0.12500000000E+03 0.  0.
         21    1    1    2  503  501 -0.21848090651E+02 -0.72433853240E+01  0.89564105328E+02  0.92474508159E+02  0.00000000000E+00 0. -1.
          1    1    1    2  501    0 -0.18292718669E+03  0.88472425727E+01  0.90032467085E+03  0.91876283244E+03  0.00000000000E+00 0. -1.
<mgrwt>
<rscale>  4 0.23991767E+03</rscale>
<asrwt>0</asrwt>
<pdfrwt beam="1">  1       21 0.51891906E-02 0.23991767E+03</pdfrwt>
<pdfrwt beam="2">  1        1 0.24995622E+00 0.23991767E+03</pdfrwt>
<totfact> 0.16798921E+04</totfact>
</mgrwt>
</event>
<event>
 5    0  0.3530624E-001  0.4235275E+03  0.7546771E-02  0.1035924E+00
          2   -1    0    0  502    0 -0.00000000000E+00  0.00000000000E+00  0.52965468390E+03  0.52965468390E+03  0.00000000000E+00 0.  1.
         21   -1    0    0  503  502  0.00000000000E+00 -0.00000000000E+00 -0.35535596645E+03  0.35535596645E+03  0.00000000000E+00 0.  1.
         25    1    1    2    0    0  0.39300425790E+03 -0.12544031816E+03  0.14663339745E+03  0.45531744245E+03  0.12500000000E+03 0.  0.
         21    1    1    2  503  501 -0.20163610137E+02 -0.18100046705E+02  0.12625813424E+02  0.29893043155E+02  0.00000000000E+00 0. -1.
          2    1    1    2  501    0 -0.37284064776E+03  0.14354036486E+03  0.15039506567E+02  0.39980016474E+03  0.00000000000E+00 0.  1.
<mgrwt>
<rscale>  4 0.42352755E+03</rscale>
<asrwt>0</asrwt>
<pdfrwt beam="1">  1       21 0.54670148E-01 0.42352755E+03</pdfrwt>
<pdfrwt beam="2">  1        2 0.81485336E-01 0.42352755E+03</pdfrwt>
<totfact> 0.21564523E+03</totfact>
</mgrwt>
</event>
<event>
 5    0  0.2947253E-001  0.3079561E+03  0.7546771E-02  0.1081330E+00
         21   -1    0    0  503  502  0.00000000000E+00  0.00000000000E+00  0.31564799553E+03  0.31564799553E+03  0.00000000000E+00 0. -1.
          3   -1    0    0  502    0 -0.00000000000E+00 -0.00000000000E+00 -0.33842147888E+03  0.33842147888E+03  0.00000000000E+00 0. -1.
         25    1    1    2    0    0 -0.11161129007E+03  0.25836963912E+03  0.10865350851E+03  0.32656168698E+03  0.12500000000E+03 0.  0.
         21    1    1    2  503  501  0.84964156180E+02 -0.12205011473E+03 -0.21260944292E+02  0.15022372014E+03  0.00000000000E+00 0. -1.
          3    1    1    2  501    0  0.26647133894E+02 -0.13631952440E+03 -0.11016604756E+03  0.17728406728E+03  0.00000000000E+00 0. -1.
<mgrwt>
<rscale>  4 0.30795609E+03</rscale>
<asrwt>0</asrwt>
<pdfrwt beam="1">  1       21 0.48561230E-01 0.30795609E+03</pdfrwt>
<pdfrwt beam="2">  1        3 0.52064843E-01 0.30795609E+03</pdfrwt>
<totfact> 0.72500493E+02</totfact>
</mgrwt>
</event>
<event>
 5    0  0.2947253E-001  0.2372206E+03  0.7546771E-02  0.1121658E+00
         -2   -1    0    0    0  501 -0.00000000000E+00  0.00000000000E+00  0.14749170764E+03  0.14749170764E+03  0.00000000000E+00 0.  1.
         21   -1    0    0  501  502  0.00000000000E+00 -0.00000000000E+00 -0.53960037629E+03  0.53960037629E+03  0.00000000000E+00 0.  1.
         25    1    1    2    0    0 -0.18023519687E+02 -0.20080781871E+03 -0.41841467810E+03  0.48098281691E+03  0.12500000000E+03 0.  0.
         21    1    1    2  501  501  0.53315410079E+01  0.24373162511E+02 -0.74259883999E+01  0.26031167550E+02  0.00000000000E+00 0. -1.
         -2    1    1    2    0  502  0.12691978679E+02  0.17643465619E+03  0.33731997847E+02  0.18007809947E+03  0.00000000000E+00 0.  1.
<mgrwt>
<rscale>  4 0.23722063E+03</rscale>
<asrwt>0</asrwt>
<pdfrwt beam="1">  1       21 0.83015444E-01 0.23722063E+03</pdfrwt>
<pdfrwt beam="2">  1       -2 0.22691032E-01 0.23722063E+03</pdfrwt>
<totfact> 0.16777061E+03</totfact>
</mgrwt>
</event>
<event>
 5    0  0.2947253E-001  0.4159713E+03  0.7546771E-02  0.1038386E+00
          2   -1    0    0  502    0 -0.00000000000E+00  0.00000000000E+00  0.27879048789E+04  0.27879048789E+04  0.00000000000E+00 0. -1.
         21   -1    0    0  503  502  0.00000000000E+00 -0.00000000000E+00 -0.16106598556E+03  0.16106598556E+03  0.00000000000E+00 0.  1.
         25    1    1    2    0    0  0.45932637119E+02  0.39532547365E+03  0.16244336955E+03  0.44766604247E+03  0.12500000000E+03 0.  0.
         21    1    1    2  503  501  0.32713836196E+02 -0.14817954469E+02  0.13349201460E+03  0.13823850699E+03  0.00000000000E+00 0. -1.
          2    1    1    2  501    0 -0.78646473316E+02 -0.38050751918E+03  0.23309035092E+04  0.23630663150E+04  0.00000000000E+00 0. -1.
<mgrwt>
<rscale>  4 0.41597134E+03</rscale>
<asrwt>0</asrwt>
<pdfrwt beam="1">  1       21 0.24779384E-01 0.41597134E+03</pdfrwt>
<pdfrwt beam="2">  1        2 0.42890841E+00 0.41597134E+03</pdfrwt>
<totfact> 0.49360272E+02</totfact>
</mgrwt>
</event>
<event>
 5    0  0.2947253E-001  0.2671414E+03  0.7546771E-02  0.1102927E+00
         21   -1    0    0  503  502  0.00000000000E+00  0.00000000000E+00  0.60779318489E+02  0.60779318489E+02  0.00000000000E+00 0. -1.
          2   -1    0    0  502    0 -0.00000000000E+00 -0.00000000000E+00 -0.20160546958E+04  0.20160546958E+04  0.00000000000E+00 0.  1.
         25    1    1    2    0    0 -0.30162970996E+02  0.22563316290E+03 -0.32670761039E+03  0.41735235917E+03  0.12500000000E+03 0.  0.
         21    1    1    2  503  501  0.63619609372E+02  0.11463462580E+02 -0.17997169168E+03  0.19122937923E+03  0.00000000000E+00 0.  1.
          2    1    1    2  501    0 -0.33456638376E+02 -0.23709662548E+03 -0.14485960752E+04  0.14682522759E+04  0.00000000000E+00 0.  1.
<mgrwt>
<rscale>  4 0.26714143E+03</rscale>
<asrwt>0</asrwt>
<pdfrwt beam="1">  1       21 0.93506644E-02 0.26714143E+03</pdfrwt>
<pdfrwt beam="2">  1        2 0.31016226E+00 0.26714143E+03</pdfrwt>
<totfact> 0.83849630E+03</totfact>
</mgrwt>
</event>
<event>
 5    0  0.2947253E-001  0.5717610E+03  0.7546771E-02  0.9965789E-01
         21   -1    0    0  503  502  0.00000000000E+00  0.00000000000E+00  0.13706323960E+04  0.13706323960E+04  0.00000000000E+00 0.  1.
          2   -1    0    0  502    0 -0.00000000000E+00 -0.00000000000E+00 -0.26145325804E+03  0.26145325804E+03  0.00000000000E+00 0.  1.
         25    1    1    2    0    0  0.36035471754E+03 -0.42594620504E+03  0.30906097930E+03  0.64994567539E+03  0.12500000000E+03 0.  0.
         21    1    1    2  503  501 -0.49822421510E+02  0.14582026103E+02  0.50474233021E+02  0.72405506485E+02  0.00000000000E+00 0.  1.
          2    1    1    2  501    0 -0.31053229603E+03  0.41136417894E+03  0.74964392567E+03  0.90973447218E+03  0.00000000000E+00 0.  1.
<mgrwt>
<rscale>  4 0.57176104E+03</rscale>
<asrwt>0</asrwt>
<pdfrwt beam="1">  1       21 0.21086652E+00 0.57176104E+03</pdfrwt>
<pdfrwt beam="2">  1        2 0.40223579E-01 0.57176104E+03</pdfrwt>
<totfact> 0.14970675E+02</totfact>
</mgrwt>
</event>
<event>
 5    0  0.2947253E-001  0.3984123E+03  0.7546771E-02  0.1044331E+00
         21   -1    0    0  503  502  0.00000000000E+00  0.00000000000E+00  0.20124289808E+03  0.20124289808E+03  0.00000000000E+00 0. -1.
          1   -1    0    0  502    0 -0.00000000000E+00 -0.00000000000E+00 -0.21980322065E+04  0.21980322065E+04  0.00000000000E+00 0.  1.
         25    1    1    2    0    0  0.24340098951E+03  0.27361394345E+03 -0.89219317583E+02  0.39710668387E+03  0.12500000000E+03 0.  0.
         21    1    1    2  503  501  0.13039538381E+03  0.82652466293E+01 -0.28724460849E+03  0.31556415437E+03  0.00000000000E+00 0. -1.
          1    1    1    2  501    0 -0.37379637332E+03 -0.28187919008E+03 -0.16203253824E+04  0.16866042664E+04  0.00000000000E+00 0.  1.
<mgrwt>
<rscale>  4 0.39841228E+03</rscale>
<asrwt>0</asrwt>
<pdfrwt beam="1">  1       21 0.30960449E-01 0.39841228E+03</pdfrwt>
<pdfrwt beam="2">  1        1 0.33815877E+00 0.39841228E+03</pdfrwt>
<totfact> 0.25689427E+02</totfact>
</mgrwt>
</event>
<event>
 5    0  0.2947253E-001  0.2368357E+03  0.7546771E-02  0.1121919E+00
         21   -1    0    0  503  502  0.00000000000E+00  0.00000000000E+00  0.15099445498E+03  0.15099445498E+03  0.00000000000E+00 0.  1.
          1   -1    0    0  502    0 -0.00000000000E+00 -0.00000000000E+00 -0.47363092485E+03  0.47363092485E+03  0.00000000000E+00 0. -1.
         25    1    1    2    0    0 -0.16940665931E+03  0.10847820432E+03  0.40382866362E+01  0.23687010109E+03  0.12500000000E+03 0.  0.
         21    1    1    2  503  501  0.14781307709E+03 -0.85620349675E+02 -0.23275686698E+03  0.28871319534E+03  0.00000000000E+00 0. -1.
          1    1    1    2  501    0  0.21593582213E+02 -0.22857854645E+02 -0.93917889528E+02  0.99042083404E+02  0.00000000000E+00 0. -1.
<mgrwt>
<rscale>  4 0.23683568E+03</rscale>
<asrwt>0</asrwt>
<pdfrwt beam="1">  1       21 0.23229916E-01 0.23683568E+03</pdfrwt>
<pdfrwt beam="2">  1        1 0.72866297E-01 0.23683568E+03</pdfrwt>
<totfact> 0.92392337E+03</totfact>
</mgrwt>
</event>
<event>
 5    0  0.2947253E-001  0.2492351E+03  0.7546771E-02  0.1113789E+00
          2   -1    0    0  502    0 -0.00000000000E+00  0.00000000000E+00  0.14184638805E+04  0.14184638805E+04  0.00000000000E+00 0. -1.
         21   -1    0    0  503  502  0.00000000000E+00 -0.00000000000E+00 -0.22536888495E+03  0.22536888495E+03  0.00000000000E+00 0. -1.
         25    1    1    2    0    0  0.20742922937E+03  0.32094170196E+00 -0.13028089795E+03  0.27500018285E+03  0.12500000000E+03 0.  0.
         21    1    1    2  503  501  0.47913178262E+01 -0.41310113746E+02  0.17381678852E+02  0.45073328965E+02  0.00000000000E+00 0. -1.
          2    1    1    2  501    0 -0.21222054719E+03  0.40989172045E+02  0.13059942146E+04  0.13237592536E+04  0.00000000000E+00 0. -1.
<mgrwt>
<rscale>  4 0.24923506E+03</rscale>
<asrwt>0</asrwt>
<pdfrwt beam="1">  1       21 0.34672137E-01 0.24923506E+03</pdfrwt>
<pdfrwt beam="2">  1        2 0.21822521E+00 0.24923506E+03</pdfrwt>
<totfact> 0.15087691E+03</totfact>
</mgrwt>
</event>
<event>
 5    0  0.2947253E-001  0.2265440E+03  0.7546771E-02  0.1129096E+00
          1   -1    0    0  502    0 -0.00000000000E+00  0.00000000000E+00  0.34337607685E+03  0.34337607685E+03  0.00000000000E+00 0.  1.
         21   -1    0    0  503  502  0.00000000000E+00 -0.00000000000E+00 -0.63825586497E+03  0.63825586497E+03  0.00000000000E+00 0.  1.
         25    1    1    2    0    0  0.11815878986E+03 -0.17824588755E+03 -0.56123595844E+03  0.61346874175E+03  0.12500000000E+03 0.  0.
         21    1    1    2  503  501 -0.57044427347E+02  0.97652285932E+02  0.39521043085E+02  0.11979961805E+03  0.00000000000E+00 0.  1.
          1    1    1    2  501    0 -0.61114362514E+02  0.80593601614E+02  0.22683512724E+03  0.24836358202E+03  0.00000000000E+00 0.  1.
<mgrwt>
<rscale>  4 0.22654401E+03</rscale>
<asrwt>0</asrwt>
<pdfrwt beam="1">  1       21 0.98193208E-01 0.22654401E+03</pdfrwt>
<pdfrwt beam="2">  1        1 0.52827090E-01 0.22654401E+03</pdfrwt>
<totfact> 0.68043329E+02</totfact>
</mgrwt>
</event>
<event>
 5    0  0.2947253E-001  0.2685570E+03  0.7546771E-02  0.1102108E+00
          2   -1    0    0  502    0 -0.00000000000E+00  0.00000000000E+00  0.14527884838E+04  0.14527884838E+04  0.00000000000E+00 0.  1.
         21   -1    0    0  503  502  0.00000000000E+00 -0.00000000000E+00 -0.14566309051E+03  0.14566309051E+03  0.00000000000E+00 0. -1.
         25    1    1    2    0    0 -0.14768645396E+03  0.18624335151E+03  0.62938857970E+00  0.26855776063E+03  0.12500000000E+03 0.  0.
         21    1    1    2  503  501  0.89349923121E+02 -0.67527302011E+02  0.48095634315E+03  0.49382420890E+03  0.00000000000E+00 0.  1.
          2    1    1    2  501    0  0.58336530839E+02 -0.11871604950E+03  0.82553966158E+03  0.83606960480E+03  0.00000000000E+00 0.  1.
<mgrwt>
<rscale>  4 0.26855702E+03</rscale>
<asrwt>0</asrwt>
<pdfrwt beam="1">  1       21 0.22409707E-01 0.26855702E+03</pdfrwt>
<pdfrwt beam="2">  1        2 0.22350591E+00 0.26855702E+03</pdfrwt>
<totfact> 0.33544728E+03</totfact>
</mgrwt>
</event>
<event>
 5    0  0.2947253E-001  0.2393364E+03  0.7546771E-02  0.1120236E+00
         21   -1    0    0  503  502  0.00000000000E+00  0.00000000000E+00  0.67631263887E+02  0.67631263887E+02  0.00000000000E+00 0. -1.
          1   -1    0    0  502    0 -0.00000000000E+00 -0.00000000000E+00 -0.11736759670E+04  0.11736759670E+04  0.00000000000E+00 0.  1.
         25    1    1    2    0    0  0.16723645059E+03 -0.11699945920E+03 -0.21412694250E+03  0.32114210463E+03  0.12500000000E+03 0.  0.
         21    1    1    2  503  501 -0.68015520928E+02  0.43971725601E+02 -0.17621684961E+03  0.19393813917E+03  0.00000000000E+00 0.  1.
          1    1    1    2  501    0 -0.99220929666E+02  0.73027733601E+02 -0.71570091096E+03  0.72622698705E+03  0.00000000000E+00 0.  1.
<mgrwt>
<rscale>  4 0.23933638E+03</rscale>
<asrwt>0</asrwt>
<pdfrwt beam="1">  1       21 0.10404810E-01 0.23933638E+03</pdfrwt>
<pdfrwt beam="2">  1        1 0.18056553E+00 0.23933638E+03</pdfrwt>
<totfact> 0.10063566E+04</totfact>
</mgrwt>
</event>
<event>
 5    0  0.2947253E-001  0.3227031E+03  0.7546771E-02  0.1074412E+00
          1   -1    0    0  502    0 -0.00000000000E+00  0.00000000000E+00  0.15139471611E+03  0.15139471611E+03  0.00000000000E+00 0.  1.
         21   -1    0    0  503  502  0.00000000000E+00 -0.00000000000E+00 -0.10577086554E+04  0.10577086554E+04  0.00000000000E+00 0. -1.
         25    1    1    2    0    0  0.15588059334E+02 -0.29710155431E+03 -0.82773980965E+03  0.88842023483E+03  0.12500000000E+03 0.  0.
         21    1    1    2  503  501  0.24147528344E+02  0.15512462753E+03 -0.73026437463E+02  0.17314622075E+03  0.00000000000E+00 0. -1.
          1    1    1    2  501    0 -0.39735587679E+02  0.14197692678E+03 -0.55476921598E+01  0.14753691591E+03  0.00000000000E+00 0.  1.
<mgrwt>
<rscale>  4 0.32270315E+03</rscale>
<asrwt>0</asrwt>
<pdfrwt beam="1">  1       21 0.16272441E+00 0.32270315E+03</pdfrwt>
<pdfrwt beam="2">  1        1 0.23291494E-01 0.32270315E+03</pdfrwt>
<totfact> 0.50923847E+02</totfact>
</mgrwt>
</event>
<event>
 5    0  0.2947253E-001  0.2623759E+03  0.7546771E-02  0.1105724E+00
         21   -1    0    0  503  502  0.00000000000E+00  0.00000000000E+00  0.14650047229E+03  0.14650047229E+03  0.00000000000E+00 0.  1.
          1   -1    0    0  502    0 -0.00000000000E+00 -0.00000000000E+00 -0.21297264626E+04  0.21297264626E+04  0.00000000000E+00 0.  1.
         25    1    1    2    0    0 -0.81767662199E+02 -0.21710864059E+03  0.90581649769E+01  0.26368383104E+03  0.12500000000E+03 0.  0.
         21    1    1    2  503  501 -0.41621321377E+02  0.37013364144E+02 -0.22341906479E+03  0.23025725185E+03  0.00000000000E+00 0. -1.
          1    1    1    2  501    0  0.12338898358E+03  0.18009527644E+03 -0.17688650905E+04  0.17822858520E+04  0.00000000000E+00 0.  1.
<mgrwt>
<rscale>  4 0.26237588E+03</rscale>
<asrwt>0</asrwt>
<pdfrwt beam="1">  1       21 0.22538536E-01 0.26237588E+03</pdfrwt>
<pdfrwt beam="2">  1        1 0.32765020E+00 0.26237588E+03</pdfrwt>
<totfact> 0.56212431E+02</totfact>
</mgrwt>
</event>
<event>
 5    0  0.3268344E-001  0.5153638E+03  0.7546771E-02  0.1009845E+00
          2   -1    0    0  502    0 -0.00000000000E+00  0.00000000000E+00  0.23429466585E+03  0.23429466585E+03  0.00000000000E+00 0. -1.
         21   -1    0    0  503  502  0.00000000000E+00 -0.00000000000E+00 -0.13865955958E+04  0.13865955958E+04  0.00000000000E+00 0. -1.
         25    1    1    2    0    0  0.27673853654E+03 -0.41640206407E+03 -0.94096020514E+03  0.10728494788E+04  0.12500000000E+03 0.  0.
         21    1    1    2  503  501 -0.18111297152E+02  0.86190342919E+01 -0.20884622054E+02  0.28956420273E+02  0.00000000000E+00 0.  1.
          2    1    1    2  501    0 -0.25862723939E+03  0.40778302978E+03 -0.19045610272E+03  0.51908436250E+03  0.00000000000E+00 0. -1.
<mgrwt>
<rscale>  4 0.51536385E+03</rscale>
<asrwt>0</asrwt>
<pdfrwt beam="1">  1       21 0.21332240E+00 0.51536385E+03</pdfrwt>
<pdfrwt beam="2">  1        2 0.36045333E-01 0.51536385E+03</pdfrwt>
<totfact> 0.16568281E+02</totfact>
</mgrwt>
</event>
<event>
 5    0  0.2947253E-001  0.2602840E+03  0.7546771E-02  0.1106973E+00
         21   -1    0    0  503  502  0.00000000000E+00  0.00000000000E+00  0.83352250350E+02  0.83352250350E+02  0.00000000000E+00 0.  1.
          1   -1    0    0  502    0 -0.00000000000E+00 -0.00000000000E+00 -0.17919096971E+04  0.17919096971E+04  0.00000000000E+00 0.  1.
         25    1    1    2    0    0  0.22105359541E+03 -0.57079332652E+02 -0.15406544873E+03  0.30246306345E+03  0.12500000000E+03 0.  0.
         21    1    1    2  503  501 -0.46218781420E+02  0.36840102576E+02 -0.27666427459E+03  0.28290721050E+03  0.00000000000E+00 0.  1.
          1    1    1    2  501    0 -0.17483481399E+03  0.20239230076E+02 -0.12778277234E+04  0.12898916735E+04  0.00000000000E+00 0.  1.
<mgrwt>
<rscale>  4 0.26028396E+03</rscale>
<asrwt>0</asrwt>
<pdfrwt beam="1">  1       21 0.12823424E-01 0.26028396E+03</pdfrwt>
<pdfrwt beam="2">  1        1 0.27567839E+00 0.26028396E+03</pdfrwt>
<totfact> 0.26538107E+03</totfact>
</mgrwt>
</event>
<event>
 5    0  0.2947253E-001  0.2559163E+03  0.7546771E-02  0.1109622E+00
          1   -1    0    0  502    0 -0.00000000000E+00  0.00000000000E+00  0.21135755822E+04  0.21135755822E+04  0.00000000000E+00 0. -1.
         21   -1    0    0  503  502  0.00000000000E+00 -0.00000000000E+00 -0.18009757977E+03  0.18009757977E+03  0.00000000000E+00 0.  1.
         25    1    1    2    0    0 -0.22334758286E+03 -0.31537091690E+02 -0.72318061354E+02  0.26783135164E+03  0.12500000000E+03 0.  0.
         21    1    1    2  503  501  0.19228745052E+03  0.59560370620E+02  0.10494878546E+04  0.10686190427E+04  0.00000000000E+00 0. -1.
          1    1    1    2  501    0  0.31060132343E+02 -0.28023278930E+02  0.95630820916E+03  0.95722276764E+03  0.00000000000E+00 0. -1.
<mgrwt>
<rscale>  4 0.25591626E+03</rscale>
<asrwt>0</asrwt>
<pdfrwt beam="1">  1       21 0.27707321E-01 0.25591626E+03</pdfrwt>
<pdfrwt beam="2">  1        1 0.32516546E+00 0.25591626E+03</pdfrwt>
<totfact> 0.38861782E+02</totfact>
</mgrwt>
</event>
<event>
 5    0  0.2947253E-001  0.4339891E+03  0.7546771E-02  0.1032607E+00
          2   -1    0    0  502    0 -0.00000000000E+00  0.00000000000E+00  0.25142666197E+04  0.25142666197E+04  0.00000000000E+00 0.  1.
         21   -1    0    0  503  502  0.00000000000E+00 -0.00000000000E+00 -0.17316945289E+03  0.17316945289E+03  0.00000000000E+00 0.  1.
         25    1    1    2    0    0  0.36612640020E+02 -0.26158525988E+03  0.92081562186E+02  0.30638431371E+03  0.12500000000E+03 0.  0.
         21    1    1    2  503  501 -0.20289610273E+03 -0.17316248134E+03  0.45299936748E+03  0.52570000988E+03  0.00000000000E+00 0.  1.
          2    1    1    2  501    0  0.16628346271E+03  0.43474774122E+03  0.17960162372E+04  0.18553517490E+04  0.00000000000E+00 0.  1.
<mgrwt>
<rscale>  4 0.43398913E+03</rscale>
<asrwt>0</asrwt>
<pdfrwt beam="1">  1       21 0.26641456E-01 0.43398913E+03</pdfrwt>
<pdfrwt beam="2">  1        2 0.38681022E+00 0.43398913E+03</pdfrwt>
<totfact> 0.60906594E+02</totfact>
</mgrwt>
</event>
<event>
 5    0  0.2947253E-001  0.2972883E+03  0.7546771E-02  0.1086604E+00
          2   -1    0    0  502    0 -0.00000000000E+00  0.00000000000E+00  0.12256767889E+04  0.12256767889E+04  0.00000000000E+00 0.  1.
         21   -1    0    0  503  502  0.00000000000E+00 -0.00000000000E+00 -0.15672128291E+03  0.15672128291E+03  0.00000000000E+00 0. -1.
         25    1    1    2    0    0  0.47053102059E+02  0.26559620625E+03  0.19568500512E+02  0.29793164552E+03  0.12500000000E+03 0.  0.
         21    1    1    2  503  501  0.52644722838E+01 -0.21791846064E+02  0.57485084502E+02  0.61701978603E+02  0.00000000000E+00 0.  1.
          2    1    1    2  501    0 -0.52317574343E+02 -0.24380436019E+03  0.99190192093E+03  0.10227644476E+04  0.00000000000E+00 0.  1.
<mgrwt>
<rscale>  4 0.29728831E+03</rscale>
<asrwt>0</asrwt>
<pdfrwt beam="1">  1       21 0.24110967E-01 0.29728831E+03</pdfrwt>
<pdfrwt beam="2">  1        2 0.18856565E+00 0.29728831E+03</pdfrwt>
<totfact> 0.38558773E+03</totfact>
</mgrwt>
</event>
<event>
 5    0  0.2947253E-001  0.3998805E+03  0.7546771E-02  0.1043821E+00
          3   -1    0    0  502    0 -0.00000000000E+00  0.00000000000E+00  0.71504887600E+03  0.71504887600E+03  0.00000000000E+00 0. -1.
         21   -1    0    0  503  502  0.00000000000E+00 -0.00000000000E+00 -0.22814064193E+03  0.22814064193E+03  0.00000000000E+00 0. -1.
         25    1    1    2    0    0 -0.15149376134E+03 -0.34832315791E+03  0.35240682500E+03  0.53300558381E+03  0.12500000000E+03 0.  0.
         21    1    1    2  503  501  0.10250530515E+03  0.29855413548E+03  0.93566110294E+02  0.32923627745E+03  0.00000000000E+00 0. -1.
          3    1    1    2  501    0  0.48988456191E+02  0.49769022434E+02  0.40935298767E+02  0.80947656663E+02  0.00000000000E+00 0. -1.
<mgrwt>
<rscale>  4 0.39988046E+03</rscale>
<asrwt>0</asrwt>
<pdfrwt beam="1">  1       21 0.35098561E-01 0.39988046E+03</pdfrwt>
<pdfrwt beam="2">  1        3 0.11000752E+00 0.39988046E+03</pdfrwt>
<totfact> 0.27097999E+02</totfact>
</mgrwt>
</event>
<event>
 5    0  0.2947253E-001  0.2404102E+03  0.7546771E-02  0.1119520E+00
         21   -1    0    0  503  502  0.00000000000E+00  0.00000000000E+00  0.62947785895E+02  0.62947785895E+02  0.00000000000E+00 0. -1.
          2   -1    0    0  502    0 -0.00000000000E+00 -0.00000000000E+00 -0.11017046222E+04  0.11017046222E+04  0.00000000000E+00 0. -1.
         25    1    1    2    0    0  0.20854558041E+03  0.11515185432E+02 -0.28174023390E+03  0.37232568808E+03  0.12500000000E+03 0.  0.
         21    1    1    2  503  501 -0.13301087129E+02  0.27987622253E+02 -0.61788075401E+02  0.69123022069E+02  0.00000000000E+00 0. -1.
          2    1    1    2  501    0 -0.19524449328E+03 -0.39502807685E+02 -0.69522852700E+03  0.72320369795E+03  0.00000000000E+00 0. -1.
<mgrwt>
<rscale>  4 0.24041023E+03</rscale>
<asrwt>0</asrwt>
<pdfrwt beam="1">  1       21 0.96842746E-02 0.24041023E+03</pdfrwt>
<pdfrwt beam="2">  1        2 0.16949302E+00 0.24041023E+03</pdfrwt>
<totfact> 0.24711136E+04</totfact>
</mgrwt>
</event>
<event>
 5    0  0.2947253E-001  0.4185547E+03  0.7546771E-02  0.1037538E+00
          4   -1    0    0  502    0 -0.00000000000E+00  0.00000000000E+00  0.12534737534E+04  0.12534737534E+04  0.00000000000E+00 0.  1.
         21   -1    0    0  503  502  0.00000000000E+00 -0.00000000000E+00 -0.16942304828E+04  0.16942304828E+04  0.00000000000E+00 0. -1.
         25    1    1    2    0    0  0.31982563098E+03 -0.24874074565E+03 -0.15873520784E+04  0.16430070035E+04  0.12500000000E+03 0.  0.
         21    1    1    2  503  501 -0.26487651977E+02  0.27256215558E+03  0.28958307802E+03  0.39856001234E+03  0.00000000000E+00 0. -1.
          4    1    1    2  501    0 -0.29333797901E+03 -0.23821409935E+02  0.85701227095E+03  0.90613722033E+03  0.00000000000E+00 0.  1.
<mgrwt>
<rscale>  4 0.41855466E+03</rscale>
<asrwt>0</asrwt>
<pdfrwt beam="1">  1       21 0.26065084E+00 0.41855466E+03</pdfrwt>
<pdfrwt beam="2">  1        4 0.19284212E+00 0.41855466E+03</pdfrwt>
<totfact> 0.32384552E-01</totfact>
</mgrwt>
</event>
<event>
 5    0  0.2947253E-001  0.2675818E+03  0.7546771E-02  0.1102672E+00
          2   -1    0    0  502    0 -0.00000000000E+00  0.00000000000E+00  0.29735380096E+04  0.29735380096E+04  0.00000000000E+00 0.  1.
         21   -1    0    0  503  502  0.00000000000E+00 -0.00000000000E+00 -0.46556220514E+02  0.46556220514E+02  0.00000000000E+00 0. -1.
         25    1    1    2    0    0  0.19948227469E+03 -0.12720789270E+03  0.39769997239E+03  0.47933839187E+03  0.12500000000E+03 0.  0.
         21    1    1    2  503  501 -0.61539145128E+02  0.50757205277E+02  0.65221179517E+03  0.65707197934E+03  0.00000000000E+00 0.  1.
          2    1    1    2  501    0 -0.13794312956E+03  0.76450687425E+02  0.18770700216E+04  0.18836838590E+04  0.00000000000E+00 0.  1.
<mgrwt>
<rscale>  4 0.26758181E+03</rscale>
<asrwt>0</asrwt>
<pdfrwt beam="1">  1       21 0.71624978E-02 0.26758181E+03</pdfrwt>
<pdfrwt beam="2">  1        2 0.45746724E+00 0.26758181E+03</pdfrwt>
<totfact> 0.39736125E+03</totfact>
</mgrwt>
</event>
<event>
 5    0  0.2947253E-001  0.2445299E+03  0.7546771E-02  0.1116811E+00
         21   -1    0    0  503  502  0.00000000000E+00  0.00000000000E+00  0.11136061551E+04  0.11136061551E+04  0.00000000000E+00 0. -1.
          2   -1    0    0  502    0 -0.00000000000E+00 -0.00000000000E+00 -0.38453146275E+03  0.38453146275E+03  0.00000000000E+00 0.  1.
         25    1    1    2    0    0  0.11509190144E+03  0.17734536365E+03  0.10556418803E+04  0.10838368435E+04  0.12500000000E+03 0.  0.
         21    1    1    2  503  501 -0.24914924489E+02 -0.23116649066E+02  0.80937829812E+01  0.34937690955E+02  0.00000000000E+00 0. -1.
          2    1    1    2  501    0 -0.90176976946E+02 -0.15422871459E+03 -0.33466097096E+03  0.37936308342E+03  0.00000000000E+00 0.  1.
<mgrwt>
<rscale>  4 0.24452988E+03</rscale>
<asrwt>0</asrwt>
<pdfrwt beam="1">  1       21 0.17132402E+00 0.24452988E+03</pdfrwt>
<pdfrwt beam="2">  1        2 0.59158687E-01 0.24452988E+03</pdfrwt>
<totfact> 0.20883415E+02</totfact>
</mgrwt>
</event>
<event>
 5    0  0.2947253E-001  0.2769191E+03  0.7546771E-02  0.1097384E+00
         21   -1    0    0  503  502  0.00000000000E+00  0.00000000000E+00  0.83603168723E+02  0.83603168723E+02  0.00000000000E+00 0.  1.
          1   -1    0    0  502    0 -0.00000000000E+00 -0.00000000000E+00 -0.19501214426E+04  0.19501214426E+04  0.00000000000E+00 0.  1.
         25    1    1    2    0    0 -0.14345511504E+03  0.20392963659E+03 -0.19374887438E+03  0.33960314050E+03  0.12500000000E+03 0.  0.
         21    1    1    2  503  501  0.22214150432E+02 -0.38345116592E+01 -0.53763145048E+02  0.58297922128E+02  0.00000000000E+00 0.  1.
          1    1    1    2  501    0  0.12124096461E+03 -0.20009512493E+03 -0.16190062544E+04  0.16358235487E+04  0.00000000000E+00 0.  1.
<mgrwt>
<rscale>  4 0.27691913E+03</rscale>
<asrwt>0</asrwt>
<pdfrwt beam="1">  1       21 0.12862027E-01 0.27691913E+03</pdfrwt>
<pdfrwt beam="2">  1        1 0.30001865E+00 0.27691913E+03</pdfrwt>
<totfact> 0.20691228E+03</totfact>
</mgrwt>
</event>
<event>
 5    0  0.2947253E-001  0.2513226E+03  0.7546771E-02  0.1112472E+00
         -1   -1    0    0    0  501 -0.00000000000E+00  0.00000000000E+00  0.10019402519E+04  0.10019402519E+04  0.00000000000E+00 0. -1.
         21   -1    0    0  501  502  0.00000000000E+00 -0.00000000000E+00 -0.22356554266E+03  0.22356554266E+03  0.00000000000E+00 0. -1.
         25    1    1    2    0    0  0.10503618095E+03 -0.20755341953E+03 -0.11147683824E+03  0.28664107649E+03  0.12500000000E+03 0.  0.
         21    1    1    2  501  501  0.25125306402E+02  0.15136948090E+03  0.54008725620E+03  0.56146081349E+03  0.00000000000E+00 0. -1.
         -1    1    1    2    0  502 -0.13016148735E+03  0.56183938633E+02  0.34976429132E+03  0.37740390463E+03  0.00000000000E+00 0. -1.
<mgrwt>
<rscale>  4 0.25132260E+03</rscale>
<asrwt>0</asrwt>
<pdfrwt beam="1">  1       21 0.34394699E-01 0.25132260E+03</pdfrwt>
<pdfrwt beam="2">  1       -1 0.15414465E+00 0.25132260E+03</pdfrwt>
<totfact> 0.26358337E+02</totfact>
</mgrwt>
</event>
<event>
 5    0  0.2947253E-001  0.3088882E+03  0.7546771E-02  0.1080880E+00
          2   -1    0    0  502    0 -0.00000000000E+00  0.00000000000E+00  0.25947344362E+04  0.25947344362E+04  0.00000000000E+00 0.  1.
         21   -1    0    0  503  502  0.00000000000E+00 -0.00000000000E+00 -0.76735318948E+02  0.76735318948E+02  0.00000000000E+00 0.  1.
         25    1    1    2    0    0  0.31815110393E+03  0.29331004278E+02  0.40418612584E+03  0.53016210452E+03  0.12500000000E+03 0.  0.
         21    1    1    2  503  501 -0.42113880245E+02 -0.76084362880E+01  0.10324907462E+03  0.11176689412E+03  0.00000000000E+00 0.  1.
          2    1    1    2  501    0 -0.27603722369E+03 -0.21722567990E+02  0.20105639168E+04  0.20295407565E+04  0.00000000000E+00 0.  1.
<mgrwt>
<rscale>  4 0.30888819E+03</rscale>
<asrwt>0</asrwt>
<pdfrwt beam="1">  1       21 0.11805436E-01 0.30888819E+03</pdfrwt>
<pdfrwt beam="2">  1        2 0.39918985E+00 0.30888819E+03</pdfrwt>
<totfact> 0.26518993E+03</totfact>
</mgrwt>
</event>
<event>
 5    0  0.2947253E-001  0.2746740E+03  0.7546771E-02  0.1098634E+00
         21   -1    0    0  503  502  0.00000000000E+00  0.00000000000E+00  0.23568882246E+03  0.23568882246E+03  0.00000000000E+00 0.  1.
          2   -1    0    0  502    0 -0.00000000000E+00 -0.00000000000E+00 -0.20257323441E+04  0.20257323441E+04  0.00000000000E+00 0. -1.
         25    1    1    2    0    0 -0.13725330426E+03 -0.20244097720E+03  0.14460077284E+03  0.31041134368E+03  0.12500000000E+03 0.  0.
         21    1    1    2  503  501  0.13606550907E+02  0.60522701061E+02 -0.59072602041E+03  0.59397421388E+03  0.00000000000E+00 0.  1.
          2    1    1    2  501    0  0.12364675335E+03  0.14191827614E+03 -0.13439182741E+04  0.13570356090E+04  0.00000000000E+00 0. -1.
<mgrwt>
<rscale>  4 0.27467402E+03</rscale>
<asrwt>0</asrwt>
<pdfrwt beam="1">  1       21 0.36259818E-01 0.27467402E+03</pdfrwt>
<pdfrwt beam="2">  1        2 0.31165114E+00 0.27467402E+03</pdfrwt>
<totfact> 0.65010467E+02</totfact>
</mgrwt>
</event>
<event>
 5    0  0.2947253E-001  0.2867785E+03  0.7546771E-02  0.1092043E+00
         21   -1    0    0  503  502  0.00000000000E+00  0.00000000000E+00  0.65840718535E+02  0.65840718535E+02  0.00000000000E+00 0. -1.
          2   -1    0    0  502    0 -0.00000000000E+00 -0.00000000000E+00 -0.16923833820E+04  0.16923833820E+04  0.00000000000E+00 0.  1.
         25    1    1    2    0    0 -0.98160547082E+02 -0.25495807884E+03 -0.42448520929E+03  0.52004981288E+03  0.12500000000E+03 0.  0.
         21    1    1    2  503  501 -0.60698162833E+01  0.46714169820E+02 -0.40692034292E+03  0.40963791549E+03  0.00000000000E+00 0.  1.
          2    1    1    2  501    0  0.10423036337E+03  0.20824390902E+03 -0.79513711131E+03  0.82853637221E+03  0.00000000000E+00 0.  1.
<mgrwt>
<rscale>  4 0.28677849E+03</rscale>
<asrwt>0</asrwt>
<pdfrwt beam="1">  1       21 0.10129341E-01 0.28677849E+03</pdfrwt>
<pdfrwt beam="2">  1        2 0.26036669E+00 0.28677849E+03</pdfrwt>
<totfact> 0.10703728E+04</totfact>
</mgrwt>
</event>
<event>
 5    0  0.2947253E-001  0.7841244E+03  0.7546771E-02  0.9583285E-01
          2   -1    0    0  502    0 -0.00000000000E+00  0.00000000000E+00  0.19400375814E+04  0.19400375814E+04  0.00000000000E+00 0.  1.
         21   -1    0    0  503  502  0.00000000000E+00 -0.00000000000E+00 -0.37768260117E+03  0.37768260117E+03  0.00000000000E+00 0.  1.
         25    1    1    2    0    0 -0.76685210872E+03 -0.10565940793E+03  0.12512634524E+04  0.14766554421E+04  0.12500000000E+03 0.  0.
         21    1    1    2  503  501  0.98934563760E+02  0.27394777779E+02  0.66422276708E+01  0.10287196384E+03  0.00000000000E+00 0.  1.
          2    1    1    2  501    0  0.66791754496E+03  0.78264630153E+02  0.30444930013E+03  0.73819277669E+03  0.00000000000E+00 0.  1.
<mgrwt>
<rscale>  4 0.78412440E+03</rscale>
<asrwt>0</asrwt>
<pdfrwt beam="1">  1       21 0.58105017E-01 0.78412440E+03</pdfrwt>
<pdfrwt beam="2">  1        2 0.29846732E+00 0.78412440E+03</pdfrwt>
<totfact> 0.22863893E+02</totfact>
</mgrwt>
</event>
<event>
 5    0  0.2947253E-001  0.2470833E+03  0.7546771E-02  0.1115162E+00
          2   -1    0    0  502    0 -0.00000000000E+00  0.00000000000E+00  0.18135973970E+03  0.18135973970E+03  0.00000000000E+00 0. -1.
         21   -1    0    0  503  502  0.00000000000E+00 -0.00000000000E+00 -0.31507639784E+03  0.31507639784E+03  0.00000000000E+00 0. -1.
         25    1    1    2    0    0  0.59696617781E+02  0.20460078357E+03 -0.43225915561E+02  0.25083589573E+03  0.12500000000E+03 0.  0.
         21    1    1    2  503  501 -0.40646917562E+02 -0.88335115836E+02 -0.82487885925E+02  0.12751280689E+03  0.00000000000E+00 0. -1.
          2    1    1    2  501    0 -0.19049700219E+02 -0.11626566773E+03 -0.80028566588E+01  0.11808743492E+03  0.00000000000E+00 0. -1.
<mgrwt>
<rscale>  4 0.24708332E+03</rscale>
<asrwt>0</asrwt>
<pdfrwt beam="1">  1       21 0.48473292E-01 0.24708332E+03</pdfrwt>
<pdfrwt beam="2">  1        2 0.27901498E-01 0.24708332E+03</pdfrwt>
<totfact> 0.93985724E+03</totfact>
</mgrwt>
</event>
<event>
 5    0  0.2947253E-001  0.2507658E+03  0.7546771E-02  0.1112822E+00
          2   -1    0    0  502    0 -0.00000000000E+00  0.00000000000E+00  0.60541324600E+03  0.60541324600E+03  0.00000000000E+00 0.  1.
         21   -1    0    0  503  502  0.00000000000E+00 -0.00000000000E+00 -0.20087460757E+03  0.20087460757E+03  0.00000000000E+00 0.  1.
         25    1    1    2    0    0  0.21207847071E+03  0.47762134929E+02 -0.89044783244E+02  0.26610613051E+03  0.12500000000E+03 0.  0.
         21    1    1    2  503  501 -0.24881292117E+02 -0.31429107739E-01  0.39123831969E+02  0.46365438779E+02  0.00000000000E+00 0. -1.
          2    1    1    2  501    0 -0.18719717859E+03 -0.47730705821E+02  0.45445958971E+03  0.49381628429E+03  0.00000000000E+00 0.  1.
<mgrwt>
<rscale>  4 0.25076583E+03</rscale>
<asrwt>0</asrwt>
<pdfrwt beam="1">  1       21 0.30903786E-01 0.25076583E+03</pdfrwt>
<pdfrwt beam="2">  1        2 0.93140499E-01 0.25076583E+03</pdfrwt>
<totfact> 0.62065444E+03</totfact>
</mgrwt>
</event>
<event>
 5    0  0.2947253E-001  0.2454944E+03  0.7546771E-02  0.1116186E+00
         21   -1    0    0  503  502  0.00000000000E+00  0.00000000000E+00  0.14106361338E+04  0.14106361338E+04  0.00000000000E+00 0.  1.
          2   -1    0    0  502    0 -0.00000000000E+00 -0.00000000000E+00 -0.83040651290E+03  0.83040651290E+03  0.00000000000E+00 0.  1.
         25    1    1    2    0    0  0.11152675441E+03 -0.19049585584E+03  0.13581498084E+04  0.13816377202E+04  0.12500000000E+03 0.  0.
         21    1    1    2  503  501 -0.10029609532E+03  0.80018792862E+02 -0.76777336196E+02  0.14952281866E+03  0.00000000000E+00 0.  1.
          2    1    1    2  501    0 -0.11230659093E+02  0.11047706298E+03 -0.70114285124E+03  0.70988210781E+03  0.00000000000E+00 0.  1.
<mgrwt>
<rscale>  4 0.24549442E+03</rscale>
<asrwt>0</asrwt>
<pdfrwt beam="1">  1       21 0.21702094E+00 0.24549442E+03</pdfrwt>
<pdfrwt beam="2">  1        2 0.12775485E+00 0.24549442E+03</pdfrwt>
<totfact> 0.42529692E+01</totfact>
</mgrwt>
</event>
<event>
 5    0  0.2947253E-001  0.2411272E+03  0.7546771E-02  0.1119044E+00
          2   -1    0    0  502    0 -0.00000000000E+00  0.00000000000E+00  0.13072859074E+04  0.13072859074E+04  0.00000000000E+00 0.  1.
         21   -1    0    0  503  502  0.00000000000E+00 -0.00000000000E+00 -0.36438289843E+03  0.36438289843E+03  0.00000000000E+00 0. -1.
         25    1    1    2    0    0 -0.20142456548E+03 -0.48606449397E+02 -0.30655264773E+03  0.39055597336E+03  0.12500000000E+03 0.  0.
         21    1    1    2  503  501  0.39559914413E+02 -0.70376933293E+02  0.41873227518E+03  0.42644415560E+03  0.00000000000E+00 0.  1.
          2    1    1    2  501    0  0.16186465106E+03  0.11898338269E+03  0.83072338156E+03  0.85466867691E+03  0.00000000000E+00 0.  1.
<mgrwt>
<rscale>  4 0.24112722E+03</rscale>
<asrwt>0</asrwt>
<pdfrwt beam="1">  1       21 0.56058908E-01 0.24112722E+03</pdfrwt>
<pdfrwt beam="2">  1        2 0.20112091E+00 0.24112722E+03</pdfrwt>
<totfact> 0.64718208E+02</totfact>
</mgrwt>
</event>
<event>
 5    0  0.2947253E-001  0.2388052E+03  0.7546771E-02  0.1120591E+00
         21   -1    0    0  503  502  0.00000000000E+00  0.00000000000E+00  0.49520197849E+02  0.49520197849E+02  0.00000000000E+00 0.  1.
          1   -1    0    0  502    0 -0.00000000000E+00 -0.00000000000E+00 -0.10546954010E+04  0.10546954010E+04  0.00000000000E+00 0.  1.
         25    1    1    2    0    0 -0.19049126090E+03 -0.71526170308E+02 -0.43311422096E+03  0.49458653633E+03  0.12500000000E+03 0.  0.
         21    1    1    2  503  501  0.47329527330E+02 -0.58844466434E+01 -0.11748808152E+03  0.12679968521E+03  0.00000000000E+00 0.  1.
          1    1    1    2  501    0  0.14316173357E+03  0.77410616952E+02 -0.45457290072E+03  0.48282937736E+03  0.00000000000E+00 0.  1.
<mgrwt>
<rscale>  4 0.23880518E+03</rscale>
<asrwt>0</asrwt>
<pdfrwt beam="1">  1       21 0.76184924E-02 0.23880518E+03</pdfrwt>
<pdfrwt beam="2">  1        1 0.16226082E+00 0.23880518E+03</pdfrwt>
<totfact> 0.21208656E+04</totfact>
</mgrwt>
</event>
<event>
 5    0  0.2947253E-001  0.4808668E+03  0.7546771E-02  0.1018897E+00
         21   -1    0    0  503  502  0.00000000000E+00  0.00000000000E+00  0.38365908492E+03  0.38365908492E+03  0.00000000000E+00 0. -1.
          1   -1    0    0  502    0 -0.00000000000E+00 -0.00000000000E+00 -0.17695276643E+04  0.17695276643E+04  0.00000000000E+00 0.  1.
         25    1    1    2    0    0  0.45787930031E+03 -0.77165230059E+02  0.18241634679E+03  0.51430404427E+03  0.12500000000E+03 0.  0.
         21    1    1    2  503  501 -0.17619257567E+03  0.36140203805E+02 -0.78883036036E+03  0.80907556846E+03  0.00000000000E+00 0.  1.
          1    1    1    2  501    0 -0.28168672464E+03  0.41025026255E+02 -0.77945456583E+03  0.82980713651E+03  0.00000000000E+00 0.  1.
<mgrwt>
<rscale>  4 0.48086685E+03</rscale>
<asrwt>0</asrwt>
<pdfrwt beam="1">  1       21 0.59024475E-01 0.48086685E+03</pdfrwt>
<pdfrwt beam="2">  1        1 0.27223503E+00 0.48086685E+03</pdfrwt>
<totfact> 0.12478121E+02</totfact>
</mgrwt>
</event>
<event>
 5    0  0.2947253E-001  0.2534997E+03  0.7546771E-02  0.1111113E+00
          1   -1    0    0  502    0 -0.00000000000E+00  0.00000000000E+00  0.60625570296E+02  0.60625570296E+02  0.00000000000E+00 0.  1.
         21   -1    0    0  503  502  0.00000000000E+00 -0.00000000000E+00 -0.11377421380E+04  0.11377421380E+04  0.00000000000E+00 0.  1.
         25    1    1    2    0    0  0.20451101291E+03 -0.70424448454E+02 -0.69114241414E+03  0.73490624842E+03  0.12500000000E+03 0.  0.
         21    1    1    2  503  501  0.13057169429E+02  0.21635346955E+02 -0.86381471833E+02  0.90001869911E+02  0.00000000000E+00 0.  1.
          1    1    1    2  501    0 -0.21756818234E+03  0.48789101498E+02 -0.29959268173E+03  0.37345958996E+03  0.00000000000E+00 0.  1.
<mgrwt>
<rscale>  4 0.25349970E+03</rscale>
<asrwt>0</asrwt>
<pdfrwt beam="1">  1       21 0.17503726E+00 0.25349970E+03</pdfrwt>
<pdfrwt beam="2">  1        1 0.93270103E-02 0.25349970E+03</pdfrwt>
<totfact> 0.14320840E+03</totfact>
</mgrwt>
</event>
<event>
 5    0  0.2947253E-001  0.2421576E+03  0.7546771E-02  0.1118364E+00
          1   -1    0    0  502    0 -0.00000000000E+00  0.00000000000E+00  0.14400284111E+04  0.14400284111E+04  0.00000000000E+00 0. -1.
         21   -1    0    0  503  502  0.00000000000E+00 -0.00000000000E+00 -0.72383614222E+02  0.72383614222E+02  0.00000000000E+00 0.  1.
         25    1    1    2    0    0  0.10425579629E+03 -0.17929312874E+03  0.17100545648E+03  0.29645094573E+03  0.12500000000E+03 0.  0.
         21    1    1    2  503  501 -0.30097619182E+02  0.35177385427E+02  0.15428415940E+03  0.16108046737E+03  0.00000000000E+00 0.  1.
          1    1    1    2  501    0 -0.74158177107E+02  0.14411574332E+03  0.10423551810E+04  0.10548806122E+04  0.00000000000E+00 0. -1.
<mgrwt>
<rscale>  4 0.24215759E+03</rscale>
<asrwt>0</asrwt>
<pdfrwt beam="1">  1       21 0.11135942E-01 0.24215759E+03</pdfrwt>
<pdfrwt beam="2">  1        1 0.22154281E+00 0.24215759E+03</pdfrwt>
<totfact> 0.58606142E+03</totfact>
</mgrwt>
</event>
<event>
 5    0  0.2947253E-001  0.4265897E+03  0.7546771E-02  0.1034943E+00
          2   -1    0    0  502    0 -0.00000000000E+00  0.00000000000E+00  0.66141660349E+03  0.66141660349E+03  0.00000000000E+00 0. -1.
         21   -1    0    0  503  502  0.00000000000E+00 -0.00000000000E+00 -0.37774318734E+03  0.37774318734E+03  0.00000000000E+00 0. -1.
         25    1    1    2    0    0  0.10047782656E+03 -0.39529475387E+03 -0.13067224055E+03  0.44615464866E+03  0.12500000000E+03 0.  0.
         21    1    1    2  503  501  0.49739240829E+01  0.17352513997E+03  0.12740151419E+03  0.21532965412E+03  0.00000000000E+00 0. -1.
          2    1    1    2  501    0 -0.10545175065E+03  0.22176961390E+03  0.28694414251E+03  0.37767548806E+03  0.00000000000E+00 0. -1.
<mgrwt>
<rscale>  4 0.42658966E+03</rscale>
<asrwt>0</asrwt>
<pdfrwt beam="1">  1       21 0.58114337E-01 0.42658966E+03</pdfrwt>
<pdfrwt beam="2">  1        2 0.10175640E+00 0.42658966E+03</pdfrwt>
<totfact> 0.14515616E+03</totfact>
</mgrwt>
</event>
<event>
 5    0  0.2947253E-001  0.4176795E+03  0.7546771E-02  0.1037824E+00
         21   -1    0    0  503  502  0.00000000000E+00  0.00000000000E+00  0.12992511958E+04  0.12992511958E+04  0.00000000000E+00 0.  1.
          3   -1    0    0  502    0 -0.00000000000E+00 -0.00000000000E+00 -0.32920671536E+03  0.32920671536E+03  0.00000000000E+00 0.  1.
         25    1    1    2    0    0  0.15117498048E+03 -0.37254665609E+03  0.82143273250E+03  0.92305017183E+03  0.12500000000E+03 0.  0.
         21    1    1    2  503  501 -0.23727902812E+03 -0.61379513047E+02  0.79464911148E+02  0.25764986689E+03  0.00000000000E+00 0. -1.
          3    1    1    2  501    0  0.86104047636E+02  0.43392616913E+03  0.69146836753E+02  0.44775787242E+03  0.00000000000E+00 0.  1.
<mgrwt>
<rscale>  4 0.41767952E+03</rscale>
<asrwt>0</asrwt>
<pdfrwt beam="1">  1       21 0.19988480E+00 0.41767952E+03</pdfrwt>
<pdfrwt beam="2">  1        3 0.50647188E-01 0.41767952E+03</pdfrwt>
<totfact> 0.23178420E+01</totfact>
</mgrwt>
</event>
<event>
 5    0  0.2947253E-001  0.3248662E+03  0.7546771E-02  0.1073431E+00
         21   -1    0    0  503  502  0.00000000000E+00  0.00000000000E+00  0.33422472284E+03  0.33422472284E+03  0.00000000000E+00 0. -1.
          2   -1    0    0  502    0 -0.00000000000E+00 -0.00000000000E+00 -0.23052732690E+04  0.23052732690E+04  0.00000000000E+00 0.  1.
         25    1    1    2    0    0  0.18603565168E+03  0.23933503201E+03  0.22751666656E+03  0.39909817690E+03  0.12500000000E+03 0.  0.
         21    1    1    2  503  501 -0.71099210499E+02 -0.50308534873E+02 -0.11074587967E+03  0.14089249901E+03  0.00000000000E+00 0.  1.
          2    1    1    2  501    0 -0.11493644118E+03 -0.18902649713E+03 -0.20878193330E+04  0.20995073159E+04  0.00000000000E+00 0.  1.
<mgrwt>
<rscale>  4 0.32486619E+03</rscale>
<asrwt>0</asrwt>
<pdfrwt beam="1">  1       21 0.51419189E-01 0.32486619E+03</pdfrwt>
<pdfrwt beam="2">  1        2 0.35465742E+00 0.32486619E+03</pdfrwt>
<totfact> 0.21830783E+02</totfact>
</mgrwt>
</event>
<event>
 5    0  0.2947253E-001  0.3585954E+03  0.7546771E-02  0.1059141E+00
          2   -1    0    0  502    0 -0.00000000000E+00  0.00000000000E+00  0.22190083463E+04  0.22190083463E+04  0.00000000000E+00 0. -1.
         21   -1    0    0  503  502  0.00000000000E+00 -0.00000000000E+00 -0.61546560049E+02  0.61546560049E+02  0.00000000000E+00 0. -1.
         25    1    1    2    0    0  0.15186692822E+03 -0.29983674000E+03  0.73644607496E+03  0.81911138184E+03  0.12500000000E+03 0.  0.
         21    1    1    2  503  501 -0.19659052691E+01  0.49698787687E+02  0.21184439626E+03  0.21760487703E+03  0.00000000000E+00 0. -1.
          2    1    1    2  501    0 -0.14990102295E+03  0.25013795231E+03  0.12091713151E+04  0.12438386475E+04  0.00000000000E+00 0. -1.
<mgrwt>
<rscale>  4 0.35859536E+03</rscale>
<asrwt>0</asrwt>
<pdfrwt beam="1">  1       21 0.94687033E-02 0.35859536E+03</pdfrwt>
<pdfrwt beam="2">  1        2 0.34138584E+00 0.35859536E+03</pdfrwt>
<totfact> 0.62184608E+03</totfact>
</mgrwt>
</event>
<event>
 5    0  0.2947253E-001  0.5458177E+03  0.7546771E-02  0.1002467E+00
         21   -1    0    0  503  502  0.00000000000E+00  0.00000000000E+00  0.16042621424E+03  0.16042621424E+03  0.00000000000E+00 0.  1.
          2   -1    0    0  502    0 -0.00000000000E+00 -0.00000000000E+00 -0.24346598995E+04  0.24346598995E+04  0.00000000000E+00 0.  1.
         25    1    1    2    0    0 -0.39225638026E+03 -0.43364216047E+03 -0.11058624408E+04  0.12571663888E+04  0.12500000000E+03 0.  0.
         21    1    1    2  503  501  0.15252313355E+03 -0.12689872145E+01 -0.32912864211E+03  0.36275415871E+03  0.00000000000E+00 0.  1.
          2    1    1    2  501    0  0.23973324670E+03  0.43491114768E+03 -0.83924260238E+03  0.97516556625E+03  0.00000000000E+00 0.  1.
<mgrwt>
<rscale>  4 0.54581774E+03</rscale>
<asrwt>0</asrwt>
<pdfrwt beam="1">  1       21 0.24680956E-01 0.54581774E+03</pdfrwt>
<pdfrwt beam="2">  1        2 0.37456306E+00 0.54581774E+03</pdfrwt>
<totfact> 0.75726455E+02</totfact>
</mgrwt>
</event>
<event>
 5    0  0.2947253E-001  0.2427724E+03  0.7546771E-02  0.1117960E+00
         21   -1    0    0  503  502  0.00000000000E+00  0.00000000000E+00  0.12384686697E+03  0.12384686697E+03  0.00000000000E+00 0.  1.
          3   -1    0    0  502    0 -0.00000000000E+00 -0.00000000000E+00 -0.79692186343E+03  0.79692186343E+03  0.00000000000E+00 0.  1.
         25    1    1    2    0    0 -0.30052293727E+02 -0.20916044273E+03 -0.40592884621E+02  0.24884536050E+03  0.12500000000E+03 0.  0.
         21    1    1    2  503  501 -0.13110178910E+02  0.19071285678E+02 -0.25626793097E+02  0.34530034071E+02  0.00000000000E+00 0. -1.
          3    1    1    2  501    0  0.43162472637E+02  0.19008915705E+03 -0.60685531874E+03  0.63739333583E+03  0.00000000000E+00 0.  1.
<mgrwt>
<rscale>  4 0.24277236E+03</rscale>
<asrwt>0</asrwt>
<pdfrwt beam="1">  1       21 0.19053364E-01 0.24277236E+03</pdfrwt>
<pdfrwt beam="2">  1        3 0.12260337E+00 0.24277236E+03</pdfrwt>
<totfact> 0.69953352E+02</totfact>
</mgrwt>
</event>
<event>
 5    0  0.2947253E-001  0.5257980E+03  0.7546771E-02  0.1007256E+00
          2   -1    0    0  502    0 -0.00000000000E+00  0.00000000000E+00  0.93183675057E+03  0.93183675057E+03  0.00000000000E+00 0. -1.
         21   -1    0    0  503  502  0.00000000000E+00 -0.00000000000E+00 -0.64338871355E+03  0.64338871355E+03  0.00000000000E+00 0. -1.
         25    1    1    2    0    0  0.15128414644E+03  0.49995935341E+03 -0.39313479440E+03  0.66560214437E+03  0.12500000000E+03 0.  0.
         21    1    1    2  503  501  0.56226200071E+02 -0.77189878294E+02  0.26204713583E+03  0.27890565480E+03  0.00000000000E+00 0. -1.
          2    1    1    2  501    0 -0.20751034651E+03 -0.42276947512E+03  0.41953569559E+03  0.63071766494E+03  0.00000000000E+00 0. -1.
<mgrwt>
<rscale>  4 0.52579798E+03</rscale>
<asrwt>0</asrwt>
<pdfrwt beam="1">  1       21 0.98982879E-01 0.52579798E+03</pdfrwt>
<pdfrwt beam="2">  1        2 0.14335950E+00 0.52579798E+03</pdfrwt>
<totfact> 0.26730060E+02</totfact>
</mgrwt>
</event>
<event>
 5    0  0.2947253E-001  0.2492790E+03  0.7546771E-02  0.1113761E+00
          1   -1    0    0  502    0 -0.00000000000E+00  0.00000000000E+00  0.14883561714E+03  0.14883561714E+03  0.00000000000E+00 0. -1.
         21   -1    0    0  503  502  0.00000000000E+00 -0.00000000000E+00 -0.40984040687E+03  0.40984040687E+03  0.00000000000E+00 0. -1.
         25    1    1    2    0    0  0.52805088682E+01  0.21560873639E+03 -0.48980409650E+02  0.25404545167E+03  0.12500000000E+03 0.  0.
         21    1    1    2  503  501  0.27298595956E+01 -0.27466429730E+02 -0.12584661825E+02  0.30335303011E+02  0.00000000000E+00 0. -1.
          1    1    1    2  501    0 -0.80103684639E+01 -0.18814230666E+03 -0.19943971826E+03  0.27429526934E+03  0.00000000000E+00 0. -1.
<mgrwt>
<rscale>  4 0.24927898E+03</rscale>
<asrwt>0</asrwt>
<pdfrwt beam="1">  1       21 0.63052370E-01 0.24927898E+03</pdfrwt>
<pdfrwt beam="2">  1        1 0.22897787E-01 0.24927898E+03</pdfrwt>
<totfact> 0.53036019E+03</totfact>
</mgrwt>
</event>
<event>
 5    0  0.2947253E-001  0.2674834E+03  0.7546771E-02  0.1102729E+00
         21   -1    0    0  503  502  0.00000000000E+00  0.00000000000E+00  0.31384866010E+02  0.31384866010E+02  0.00000000000E+00 0. -1.
          2   -1    0    0  502    0 -0.00000000000E+00 -0.00000000000E+00 -0.44219032152E+04  0.44219032152E+04  0.00000000000E+00 0.  1.
         25    1    1    2    0    0 -0.96304048938E+02 -0.21598123419E+03 -0.62862655410E+03  0.68316814027E+03  0.12500000000E+03 0.  0.
         21    1    1    2  503  501  0.26092824684E+02  0.58608327525E+02 -0.57402035235E+03  0.57759426630E+03  0.00000000000E+00 0. -1.
          2    1    1    2  501    0  0.70211224254E+02  0.15737290666E+03 -0.31878714427E+04  0.31925256746E+04  0.00000000000E+00 0.  1.
<mgrwt>
<rscale>  4 0.26748339E+03</rscale>
<asrwt>0</asrwt>
<pdfrwt beam="1">  1       21 0.48284413E-02 0.26748339E+03</pdfrwt>
<pdfrwt beam="2">  1        2 0.68029274E+00 0.26748339E+03</pdfrwt>
<totfact> 0.72742093E+02</totfact>
</mgrwt>
</event>
<event>
 5    0  0.2947253E-001  0.3811165E+03  0.7546771E-02  0.1050522E+00
          1   -1    0    0  502    0 -0.00000000000E+00  0.00000000000E+00  0.14262288788E+04  0.14262288788E+04  0.00000000000E+00 0.  1.
         21   -1    0    0  503  502  0.00000000000E+00 -0.00000000000E+00 -0.16159790097E+03  0.16159790097E+03  0.00000000000E+00 0.  1.
         25    1    1    2    0    0  0.32505651908E+03 -0.15604371367E+03  0.15540054877E+03  0.41205061792E+03  0.12500000000E+03 0.  0.
         21    1    1    2  503  501 -0.15282650511E+02 -0.25306482765E+02  0.60933302815E+02  0.67726249479E+02  0.00000000000E+00 0.  1.
          1    1    1    2  501    0 -0.30977386857E+03  0.18135019643E+03  0.10482971263E+04  0.11080499124E+04  0.00000000000E+00 0.  1.
<mgrwt>
<rscale>  4 0.38111654E+03</rscale>
<asrwt>0</asrwt>
<pdfrwt beam="1">  1       21 0.24861217E-01 0.38111654E+03</pdfrwt>
<pdfrwt beam="2">  1        1 0.21941982E+00 0.38111654E+03</pdfrwt>
<totfact> 0.12879624E+03</totfact>
</mgrwt>
</event>
<event>
 5    0  0.2947253E-001  0.2734455E+03  0.7546771E-02  0.1099324E+00
         21   -1    0    0  501  502  0.00000000000E+00  0.00000000000E+00  0.26589071441E+03  0.26589071441E+03  0.00000000000E+00 0.  1.
         -3   -1    0    0    0  501 -0.00000000000E+00 -0.00000000000E+00 -0.25941950359E+03  0.25941950359E+03  0.00000000000E+00 0. -1.
         25    1    1    2    0    0  0.24383404187E+01 -0.24319022306E+03  0.37551371464E+02  0.27601183959E+03  0.12500000000E+03 0.  0.
         21    1    1    2  501  501 -0.17908526890E+02  0.54805281813E+02 -0.15120393404E+02  0.59606715617E+02  0.00000000000E+00 0. -1.
         -3    1    1    2    0  502  0.15470186471E+02  0.18838494125E+03 -0.15959767244E+02  0.18969166278E+03  0.00000000000E+00 0. -1.
<mgrwt>
<rscale>  4 0.27344548E+03</rscale>
<asrwt>0</asrwt>
<pdfrwt beam="1">  1       21 0.40906263E-01 0.27344548E+03</pdfrwt>
<pdfrwt beam="2">  1       -3 0.39910693E-01 0.27344548E+03</pdfrwt>
<totfact> 0.17636415E+03</totfact>
</mgrwt>
</event>
<event>
 5    0  0.2947253E-001  0.3030791E+03  0.7546771E-02  0.1083711E+00
         21   -1    0    0  503  502  0.00000000000E+00  0.00000000000E+00  0.31320896026E+03  0.31320896026E+03  0.00000000000E+00 0.  1.
          2   -1    0    0  502    0 -0.00000000000E+00 -0.00000000000E+00 -0.61786690707E+03  0.61786690707E+03  0.00000000000E+00 0.  1.
         25    1    1    2    0    0  0.21892179635E+01  0.27609268286E+03  0.18584503825E+03  0.35552122362E+03  0.12500000000E+03 0.  0.
         21    1    1    2  503  501  0.46727143126E+02 -0.48923878837E+02 -0.91135560828E+02  0.11350181616E+03  0.00000000000E+00 0. -1.
          2    1    1    2  501    0 -0.48916361090E+02 -0.22716880402E+03 -0.39936742423E+03  0.46205282754E+03  0.00000000000E+00 0.  1.
<mgrwt>
<rscale>  4 0.30307914E+03</rscale>
<asrwt>0</asrwt>
<pdfrwt beam="1">  1       21 0.48185994E-01 0.30307914E+03</pdfrwt>
<pdfrwt beam="2">  1        2 0.95056446E-01 0.30307914E+03</pdfrwt>
<totfact> 0.24253532E+03</totfact>
</mgrwt>
</event>
<event>
 5    0  0.2947253E-001  0.2457236E+03  0.7546771E-02  0.1116038E+00
          1   -1    0    0  502    0 -0.00000000000E+00  0.00000000000E+00  0.60105591311E+03  0.60105591311E+03  0.00000000000E+00 0. -1.
         21   -1    0    0  503  502  0.00000000000E+00 -0.00000000000E+00 -0.32652290386E+03  0.32652290386E+03  0.00000000000E+00 0. -1.
         25    1    1    2    0    0  0.20451150544E+03 -0.61174537140E+02 -0.25210217563E+03  0.35319652718E+03  0.12500000000E+03 0.  0.
         21    1    1    2  503  501 -0.27156011764E+02 -0.18684656418E+02  0.53679725710E+02  0.62992684597E+02  0.00000000000E+00 0.  1.
          1    1    1    2  501    0 -0.17735549368E+03  0.79859193558E+02  0.47295545918E+03  0.51138960519E+03  0.00000000000E+00 0. -1.
<mgrwt>
<rscale>  4 0.24572365E+03</rscale>
<asrwt>0</asrwt>
<pdfrwt beam="1">  1       21 0.50234293E-01 0.24572365E+03</pdfrwt>
<pdfrwt beam="2">  1        1 0.92470140E-01 0.24572365E+03</pdfrwt>
<totfact> 0.14351389E+03</totfact>
</mgrwt>
</event>
<event>
 5    0  0.2947253E-001  0.2760052E+03  0.7546771E-02  0.1097891E+00
         21   -1    0    0  503  502  0.00000000000E+00  0.00000000000E+00  0.50244868188E+03  0.50244868188E+03  0.00000000000E+00 0. -1.
          1   -1    0    0  502    0 -0.00000000000E+00 -0.00000000000E+00 -0.59919512236E+03  0.59919512236E+03  0.00000000000E+00 0. -1.
         25    1    1    2    0    0  0.24598704348E+03 -0.66500001102E+01  0.43457748018E+03  0.51481689399E+03  0.12500000000E+03 0.  0.
         21    1    1    2  503  501 -0.28887430373E+02  0.51915963599E+01 -0.39449300531E+02  0.49169946296E+02  0.00000000000E+00 0.  1.
          1    1    1    2  501    0 -0.21709961311E+03  0.14584037503E+01 -0.49187462013E+03  0.53765696395E+03  0.00000000000E+00 0. -1.
<mgrwt>
<rscale>  4 0.27600516E+03</rscale>
<asrwt>0</asrwt>
<pdfrwt beam="1">  1       21 0.77299797E-01 0.27600516E+03</pdfrwt>
<pdfrwt beam="2">  1        1 0.92183865E-01 0.27600516E+03</pdfrwt>
<totfact> 0.55644844E+02</totfact>
</mgrwt>
</event>
<event>
 5    0  0.2947253E-001  0.2938415E+03  0.7546771E-02  0.1088360E+00
         21   -1    0    0  501  502  0.00000000000E+00  0.00000000000E+00  0.10714884948E+04  0.10714884948E+04  0.00000000000E+00 0. -1.
         -1   -1    0    0    0  501 -0.00000000000E+00 -0.00000000000E+00 -0.78903076439E+03  0.78903076439E+03  0.00000000000E+00 0. -1.
         25    1    1    2    0    0 -0.26450668126E+03  0.27460125503E+02  0.10232695993E+04  0.10646236498E+04  0.12500000000E+03 0.  0.
         21    1    1    2  501  501  0.14025633314E+03  0.12335582492E+02 -0.52643949796E+03  0.54494270396E+03  0.00000000000E+00 0. -1.
         -1    1    1    2    0  502  0.12425034811E+03 -0.39795707995E+02 -0.21437237085E+03  0.25095290547E+03  0.00000000000E+00 0. -1.
<mgrwt>
<rscale>  4 0.29384153E+03</rscale>
<asrwt>0</asrwt>
<pdfrwt beam="1">  1       21 0.16484438E+00 0.29384153E+03</pdfrwt>
<pdfrwt beam="2">  1       -1 0.12138935E+00 0.29384153E+03</pdfrwt>
<totfact> 0.12936083E+01</totfact>
</mgrwt>
</event>
<event>
 5    0  0.2947253E-001  0.3243499E+03  0.7546771E-02  0.1073665E+00
         21   -1    0    0  503  502  0.00000000000E+00  0.00000000000E+00  0.18985099664E+03  0.18985099664E+03  0.00000000000E+00 0. -1.
          1   -1    0    0  502    0 -0.00000000000E+00 -0.00000000000E+00 -0.78974319153E+03  0.78974319153E+03  0.00000000000E+00 0.  1.
         25    1    1    2    0    0  0.17353328861E+02  0.30623322446E+03 -0.56101574266E+03  0.65149335323E+03  0.12500000000E+03 0.  0.
         21    1    1    2  503  501  0.65525817523E+01 -0.26093145253E+02  0.28280860320E+02  0.39033262959E+02  0.00000000000E+00 0.  1.
          1    1    1    2  501    0 -0.23905910613E+02 -0.28014007921E+03 -0.67157312558E+02  0.28906757198E+03  0.00000000000E+00 0.  1.
<mgrwt>
<rscale>  4 0.32434988E+03</rscale>
<asrwt>0</asrwt>
<pdfrwt beam="1">  1       21 0.29207847E-01 0.32434988E+03</pdfrwt>
<pdfrwt beam="2">  1        1 0.12149895E+00 0.32434988E+03</pdfrwt>
<totfact> 0.28215581E+03</totfact>
</mgrwt>
</event>
<event>
 5    0  0.2947253E-001  0.2509894E+03  0.7546771E-02  0.1112681E+00
         21   -1    0    0  503  502  0.00000000000E+00  0.00000000000E+00  0.32878105005E+02  0.32878105005E+02  0.00000000000E+00 0. -1.
          2   -1    0    0  502    0 -0.00000000000E+00 -0.00000000000E+00 -0.31365859325E+04  0.31365859325E+04  0.00000000000E+00 0. -1.
         25    1    1    2    0    0 -0.19437515707E+03  0.97923248819E+02 -0.54374090182E+03  0.59887380362E+03  0.12500000000E+03 0.  0.
         21    1    1    2  503  501  0.16450151116E+03 -0.43253382491E+02 -0.19771734230E+04  0.19844763408E+04  0.00000000000E+00 0. -1.
          2    1    1    2  501    0  0.29873645913E+02 -0.54669866328E+02 -0.58279350263E+03  0.58611389312E+03  0.00000000000E+00 0. -1.
<mgrwt>
<rscale>  4 0.25098937E+03</rscale>
<asrwt>0</asrwt>
<pdfrwt beam="1">  1       21 0.50581697E-02 0.25098937E+03</pdfrwt>
<pdfrwt beam="2">  1        2 0.48255171E+00 0.25098937E+03</pdfrwt>
<totfact> 0.58262324E+03</totfact>
</mgrwt>
</event>
<event>
 5    0  0.2947253E-001  0.2422709E+03  0.7546771E-02  0.1118289E+00
         -2   -1    0    0    0  501 -0.00000000000E+00  0.00000000000E+00  0.10830086035E+03  0.10830086035E+03  0.00000000000E+00 0. -1.
         21   -1    0    0  501  502  0.00000000000E+00 -0.00000000000E+00 -0.74888456941E+03  0.74888456941E+03  0.00000000000E+00 0. -1.
         25    1    1    2    0    0 -0.20709716472E+03  0.28979620445E+02 -0.56549635058E+03  0.61574359644E+03  0.12500000000E+03 0.  0.
         21    1    1    2  501  501  0.96754537549E+01  0.20197986694E+02 -0.21506746128E+02  0.31050172316E+02  0.00000000000E+00 0.  1.
         -2    1    1    2    0  502  0.19742171096E+03 -0.49177607139E+02 -0.53580612350E+02  0.21039166101E+03  0.00000000000E+00 0. -1.
<mgrwt>
<rscale>  4 0.24227085E+03</rscale>
<asrwt>0</asrwt>
<pdfrwt beam="1">  1       21 0.11521301E+00 0.24227085E+03</pdfrwt>
<pdfrwt beam="2">  1       -2 0.16661671E-01 0.24227085E+03</pdfrwt>
<totfact> 0.13032617E+03</totfact>
</mgrwt>
</event>
<event>
 5    0  0.3890215E-001  0.3308075E+03  0.7546771E-02  0.1070780E+00
         21   -1    0    0  501  502  0.00000000000E+00  0.00000000000E+00  0.68040704251E+03  0.68040704251E+03  0.00000000000E+00 0.  1.
         -1   -1    0    0    0  501 -0.00000000000E+00 -0.00000000000E+00 -0.22054894939E+03  0.22054894939E+03  0.00000000000E+00 0.  1.
         25    1    1    2    0    0  0.10129065980E+03  0.29389297843E+03  0.46630507296E+03  0.57419360985E+03  0.12500000000E+03 0.  0.
         21    1    1    2  501  501  0.15551212510E+02 -0.24567422427E+02  0.14397084885E+02  0.32444945807E+02  0.00000000000E+00 0.  1.
         -1    1    1    2    0  502 -0.11684187231E+03 -0.26932555600E+03 -0.20844064728E+02  0.29431743624E+03  0.00000000000E+00 0.  1.
<mgrwt>
<rscale>  4 0.33080754E+03</rscale>
<asrwt>0</asrwt>
<pdfrwt beam="1">  1       21 0.10467801E+00 0.33080754E+03</pdfrwt>
<pdfrwt beam="2">  1       -1 0.33930608E-01 0.33080754E+03</pdfrwt>
<totfact> 0.52711280E+02</totfact>
</mgrwt>
</event>
<event>
 5    0  0.2947253E-001  0.2796337E+03  0.7546771E-02  0.1095889E+00
         21   -1    0    0  503  502  0.00000000000E+00  0.00000000000E+00  0.24538211963E+04  0.24538211963E+04  0.00000000000E+00 0.  1.
          3   -1    0    0  502    0 -0.00000000000E+00 -0.00000000000E+00 -0.50033342647E+02  0.50033342647E+02  0.00000000000E+00 0.  1.
         25    1    1    2    0    0 -0.18572303580E+03 -0.17169081877E+03  0.19951238174E+04  0.20149726624E+04  0.12500000000E+03 0.  0.
         21    1    1    2  503  501  0.25690278031E+02 -0.81143303510E+01  0.52449395094E+02  0.58964156808E+02  0.00000000000E+00 0.  1.
          3    1    1    2  501    0  0.16003275777E+03  0.17980514912E+03  0.35621464116E+03  0.42991771979E+03  0.00000000000E+00 0.  1.
<mgrwt>
<rscale>  4 0.27963367E+03</rscale>
<asrwt>0</asrwt>
<pdfrwt beam="1">  1       21 0.37751086E+00 0.27963367E+03</pdfrwt>
<pdfrwt beam="2">  1        3 0.76974393E-02 0.27963367E+03</pdfrwt>
<totfact> 0.62123439E+01</totfact>
</mgrwt>
</event>
<event>
 5    0  0.2947253E-001  0.2658722E+03  0.7546771E-02  0.1103666E+00
         21   -1    0    0  501  502  0.00000000000E+00  0.00000000000E+00  0.16534049059E+03  0.16534049059E+03  0.00000000000E+00 0.  1.
         -3   -1    0    0    0  501 -0.00000000000E+00 -0.00000000000E+00 -0.81520792706E+03  0.81520792706E+03  0.00000000000E+00 0. -1.
         25    1    1    2    0    0  0.22898313470E+03 -0.74330632823E+02  0.10450028542E+02  0.27146366617E+03  0.12500000000E+03 0.  0.
         21    1    1    2  501  501 -0.23697378312E+02  0.20469221612E+02 -0.19696965110E+03  0.19944322056E+03  0.00000000000E+00 0. -1.
         -3    1    1    2    0  502 -0.20528575639E+03  0.53861411210E+02 -0.46334781391E+03  0.50964153093E+03  0.00000000000E+00 0. -1.
<mgrwt>
<rscale>  4 0.26587220E+03</rscale>
<asrwt>0</asrwt>
<pdfrwt beam="1">  1       21 0.25436999E-01 0.26587220E+03</pdfrwt>
<pdfrwt beam="2">  1       -3 0.12541660E+00 0.26587220E+03</pdfrwt>
<totfact> 0.38038200E+02</totfact>
</mgrwt>
</event>
<event>
 5    0  0.2947253E-001  0.3234526E+03  0.7546771E-02  0.1074071E+00
         21   -1    0    0  501  502  0.00000000000E+00  0.00000000000E+00  0.55452546584E+03  0.55452546584E+03  0.00000000000E+00 0.  1.
         -1   -1    0    0    0  501 -0.00000000000E+00 -0.00000000000E+00 -0.24282324457E+03  0.24282324457E+03  0.00000000000E+00 0. -1.
         25    1    1    2    0    0  0.10384050935E+03 -0.27966721320E+03  0.34721327681E+03  0.47452993700E+03  0.12500000000E+03 0.  0.
         21    1    1    2  501  501  0.65079189016E+01  0.13131584507E+03 -0.41376899176E+02  0.13783414657E+03  0.00000000000E+00 0. -1.
         -1    1    1    2    0  502 -0.11034842826E+03  0.14835136813E+03  0.58658436363E+01  0.18498462684E+03  0.00000000000E+00 0. -1.
<mgrwt>
<rscale>  4 0.32345263E+03</rscale>
<asrwt>0</asrwt>
<pdfrwt beam="1">  1       21 0.85311610E-01 0.32345263E+03</pdfrwt>
<pdfrwt beam="2">  1       -1 0.37357422E-01 0.32345263E+03</pdfrwt>
<totfact> 0.72555264E+02</totfact>
</mgrwt>
</event>
<event>
 5    0  0.2947253E-001  0.2600402E+03  0.7546771E-02  0.1107119E+00
          1   -1    0    0  502    0 -0.00000000000E+00  0.00000000000E+00  0.10907210442E+04  0.10907210442E+04  0.00000000000E+00 0.  1.
         21   -1    0    0  503  502  0.00000000000E+00 -0.00000000000E+00 -0.16984198961E+03  0.16984198961E+03  0.00000000000E+00 0. -1.
         25    1    1    2    0    0  0.21650800904E+03  0.15782815967E+03  0.67874497968E+01  0.29573047770E+03  0.12500000000E+03 0.  0.
         21    1    1    2  503  501 -0.10039355000E+03 -0.11427245514E+03  0.27923652617E+03  0.31797813829E+03  0.00000000000E+00 0. -1.
          1    1    1    2  501    0 -0.11611445904E+03 -0.43555704529E+02  0.63485507865E+03  0.64685441784E+03  0.00000000000E+00 0.  1.
<mgrwt>
<rscale>  4 0.26004024E+03</rscale>
<asrwt>0</asrwt>
<pdfrwt beam="1">  1       21 0.26129537E-01 0.26004024E+03</pdfrwt>
<pdfrwt beam="2">  1        1 0.16780323E+00 0.26004024E+03</pdfrwt>
<totfact> 0.20863489E+03</totfact>
</mgrwt>
</event>
<event>
 5    0  0.2947253E-001  0.2395556E+03  0.7546771E-02  0.1120089E+00
          1   -1    0    0  502    0 -0.00000000000E+00  0.00000000000E+00  0.13299041322E+04  0.13299041322E+04  0.00000000000E+00 0.  1.
         21   -1    0    0  503  502  0.00000000000E+00 -0.00000000000E+00 -0.43416893243E+03  0.43416893243E+03  0.00000000000E+00 0.  1.
         25    1    1    2    0    0 -0.20444474809E+03 -0.93831131641E+01 -0.39078003876E+03  0.45849725902E+03  0.12500000000E+03 0.  0.
         21    1    1    2  503  501  0.99352983832E+01  0.23400018206E+02  0.10233866063E+03  0.10544890927E+03  0.00000000000E+00 0. -1.
          1    1    1    2  501    0  0.19450944971E+03 -0.14016905042E+02  0.11841765779E+04  0.12001268964E+04  0.00000000000E+00 0.  1.
<mgrwt>
<rscale>  4 0.23955557E+03</rscale>
<asrwt>0</asrwt>
<pdfrwt beam="1">  1       21 0.66795221E-01 0.23955557E+03</pdfrwt>
<pdfrwt beam="2">  1        1 0.20460063E+00 0.23955557E+03</pdfrwt>
<totfact> 0.20916005E+02</totfact>
</mgrwt>
</event>
<event>
 5    0  0.2947253E-001  0.3388304E+03  0.7546771E-02  0.1067295E+00
         -2   -1    0    0    0  501 -0.00000000000E+00  0.00000000000E+00  0.11832120678E+04  0.11832120678E+04  0.00000000000E+00 0. -1.
         21   -1    0    0  501  502  0.00000000000E+00 -0.00000000000E+00 -0.22864176508E+03  0.22864176508E+03  0.00000000000E+00 0.  1.
         25    1    1    2    0    0  0.34841685775E+03 -0.11004239972E+03  0.24392678927E+02  0.38694138999E+03  0.12500000000E+03 0.  0.
         21    1    1    2  501  501 -0.71830423763E+02 -0.25859960708E+02  0.47330438225E+02  0.89824928213E+02  0.00000000000E+00 0.  1.
         -2    1    1    2    0  502 -0.27658643399E+03  0.13590236043E+03  0.88284718556E+03  0.93508751467E+03  0.00000000000E+00 0. -1.
<mgrwt>
<rscale>  4 0.33883044E+03</rscale>
<asrwt>0</asrwt>
<pdfrwt beam="1">  1       21 0.35175657E-01 0.33883044E+03</pdfrwt>
<pdfrwt beam="2">  1       -2 0.18203262E+00 0.33883044E+03</pdfrwt>
<totfact> 0.11478159E+02</totfact>
</mgrwt>
</event>
<event>
 5    0  0.2947253E-001  0.2431656E+03  0.7546771E-02  0.1117702E+00
         -4   -1    0    0    0  501 -0.00000000000E+00  0.00000000000E+00  0.16393020559E+03  0.16393020559E+03  0.00000000000E+00 0.  1.
         21   -1    0    0  501  502  0.00000000000E+00 -0.00000000000E+00 -0.50203549941E+03  0.50203549941E+03  0.00000000000E+00 0. -1.
         25    1    1    2    0    0  0.69843655705E+02 -0.19653588659E+03 -0.37812867095E+03  0.44956732839E+03  0.12500000000E+03 0.  0.
         21    1    1    2  501  501 -0.40842754545E+02  0.58039218027E+02  0.90114441495E+01  0.71539412590E+02  0.00000000000E+00 0.  1.
         -4    1    1    2    0  502 -0.29000901160E+02  0.13849666856E+03  0.31011932982E+02  0.14485896402E+03  0.00000000000E+00 0.  1.
<mgrwt>
<rscale>  4 0.24316556E+03</rscale>
<asrwt>0</asrwt>
<pdfrwt beam="1">  1       21 0.77236230E-01 0.24316556E+03</pdfrwt>
<pdfrwt beam="2">  1       -4 0.25220032E-01 0.24316556E+03</pdfrwt>
<totfact> 0.92044692E+02</totfact>
</mgrwt>
</event>
<event>
 5    0  0.2947253E-001  0.2807312E+03  0.7546771E-02  0.1095290E+00
         21   -1    0    0  501  502  0.00000000000E+00  0.00000000000E+00  0.23708113176E+03  0.23708113176E+03  0.00000000000E+00 0. -1.
         -2   -1    0    0    0  501 -0.00000000000E+00 -0.00000000000E+00 -0.32015566121E+03  0.32015566121E+03  0.00000000000E+00 0. -1.
         25    1    1    2    0    0  0.39432738278E+02 -0.24825406632E+03  0.23627768988E+02  0.28172378984E+03  0.12500000000E+03 0.  0.
         21    1    1    2  501  501 -0.14634941015E+02  0.23468151488E+02 -0.15145898823E+02  0.31533060174E+02  0.00000000000E+00 0.  1.
         -2    1    1    2    0  502 -0.24797797263E+02  0.22478591483E+03 -0.91556399612E+02  0.24397994296E+03  0.00000000000E+00 0. -1.
<mgrwt>
<rscale>  4 0.28073123E+03</rscale>
<asrwt>0</asrwt>
<pdfrwt beam="1">  1       21 0.36474020E-01 0.28073123E+03</pdfrwt>
<pdfrwt beam="2">  1       -2 0.49254717E-01 0.28073123E+03</pdfrwt>
<totfact> 0.22807275E+03</totfact>
</mgrwt>
</event>
<event>
 5    0  0.2947253E-001  0.2236619E+03  0.7546771E-02  0.1131182E+00
          1   -1    0    0  502    0 -0.00000000000E+00  0.00000000000E+00  0.33282161807E+04  0.33282161807E+04  0.00000000000E+00 0. -1.
         21   -1    0    0  503  502  0.00000000000E+00 -0.00000000000E+00 -0.21589263710E+02  0.21589263710E+02  0.00000000000E+00 0.  1.
         25    1    1    2    0    0  0.54544478074E+02 -0.19550916887E+03  0.97911397378E+03  0.10077142992E+04  0.12500000000E+03 0.  0.
         21    1    1    2  503  501  0.29026934263E+02  0.48218768090E+02  0.12576022703E+04  0.12588610260E+04  0.00000000000E+00 0. -1.
          1    1    1    2  501    0 -0.83571412336E+02  0.14729040078E+03  0.10699106729E+04  0.10832301192E+04  0.00000000000E+00 0. -1.
<mgrwt>
<rscale>  4 0.22366191E+03</rscale>
<asrwt>0</asrwt>
<pdfrwt beam="1">  1       21 0.33214278E-02 0.22366191E+03</pdfrwt>
<pdfrwt beam="2">  1        1 0.51203285E+00 0.22366191E+03</pdfrwt>
<totfact> 0.25812581E+03</totfact>
</mgrwt>
</event>
<event>
 5    0  0.2947253E-001  0.3298916E+03  0.7546771E-02  0.1071185E+00
         21   -1    0    0  503  502  0.00000000000E+00  0.00000000000E+00  0.10276499889E+04  0.10276499889E+04  0.00000000000E+00 0. -1.
          3   -1    0    0  502    0 -0.00000000000E+00 -0.00000000000E+00 -0.15071944749E+04  0.15071944749E+04  0.00000000000E+00 0. -1.
         25    1    1    2    0    0 -0.16676709235E+03 -0.25571898886E+03  0.98426136659E+03  0.10380746130E+04  0.12500000000E+03 0.  0.
         21    1    1    2  503  501  0.27798464985E+02  0.13461764883E+02 -0.10001250837E+03  0.10467318472E+03  0.00000000000E+00 0.  1.
          3    1    1    2  501    0  0.13896862737E+03  0.24225722398E+03 -0.13637933442E+04  0.13920966660E+04  0.00000000000E+00 0. -1.
<mgrwt>
<rscale>  4 0.32989159E+03</rscale>
<asrwt>0</asrwt>
<pdfrwt beam="1">  1       21 0.15810000E+00 0.32989159E+03</pdfrwt>
<pdfrwt beam="2">  1        3 0.23187607E+00 0.32989159E+03</pdfrwt>
<totfact> 0.12163252E+00</totfact>
</mgrwt>
</event>
<event>
 5    0  0.2947253E-001  0.2443996E+03  0.7546771E-02  0.1116896E+00
          2   -1    0    0  502    0 -0.00000000000E+00  0.00000000000E+00  0.70384439344E+03  0.70384439344E+03  0.00000000000E+00 0. -1.
         21   -1    0    0  503  502  0.00000000000E+00 -0.00000000000E+00 -0.56692435930E+03  0.56692435930E+03  0.00000000000E+00 0. -1.
         25    1    1    2    0    0 -0.16108617218E+03  0.14454774253E+03 -0.50705716034E+03  0.56530944498E+03  0.12500000000E+03 0.  0.
         21    1    1    2  503  501  0.12279503275E+03  0.13007861871E+02  0.32429885813E+03  0.34701235414E+03  0.00000000000E+00 0. -1.
          2    1    1    2  501    0  0.38291139431E+02 -0.15755560440E+03  0.31967833634E+03  0.35844695363E+03  0.00000000000E+00 0. -1.
<mgrwt>
<rscale>  4 0.24439959E+03</rscale>
<asrwt>0</asrwt>
<pdfrwt beam="1">  1       21 0.87219132E-01 0.24439959E+03</pdfrwt>
<pdfrwt beam="2">  1        2 0.10828375E+00 0.24439959E+03</pdfrwt>
<totfact> 0.57595401E+02</totfact>
</mgrwt>
</event>
<event>
 5    0  0.2947253E-001  0.2568772E+03  0.7546771E-02  0.1109034E+00
         21   -1    0    0  503  502  0.00000000000E+00  0.00000000000E+00  0.16943446552E+03  0.16943446552E+03  0.00000000000E+00 0. -1.
          1   -1    0    0  502    0 -0.00000000000E+00 -0.00000000000E+00 -0.65646162432E+03  0.65646162432E+03  0.00000000000E+00 0. -1.
         25    1    1    2    0    0  0.12671449812E+03 -0.21881860095E+03 -0.48946609112E+02  0.28628467423E+03  0.12500000000E+03 0.  0.
         21    1    1    2  503  501  0.32892430674E+02  0.10876653051E+03 -0.22141879023E+03  0.24887416664E+03  0.00000000000E+00 0.  1.
          1    1    1    2  501    0 -0.15960692879E+03  0.11005207044E+03 -0.21666175946E+03  0.29073724897E+03  0.00000000000E+00 0. -1.
<mgrwt>
<rscale>  4 0.25687722E+03</rscale>
<asrwt>0</asrwt>
<pdfrwt beam="1">  1       21 0.26066840E-01 0.25687722E+03</pdfrwt>
<pdfrwt beam="2">  1        1 0.10099410E+00 0.25687722E+03</pdfrwt>
<totfact> 0.47185658E+03</totfact>
</mgrwt>
</event>
<event>
 5    0  0.2947253E-001  0.2482657E+03  0.7546771E-02  0.1114406E+00
         -1   -1    0    0    0  501 -0.00000000000E+00  0.00000000000E+00  0.13373829784E+03  0.13373829784E+03  0.00000000000E+00 0.  1.
         21   -1    0    0  501  502  0.00000000000E+00 -0.00000000000E+00 -0.56569657818E+03  0.56569657818E+03  0.00000000000E+00 0.  1.
         25    1    1    2    0    0  0.11449538685E+02  0.22639385718E+03 -0.35788902025E+03  0.44169539427E+03  0.12500000000E+03 0.  0.
         21    1    1    2  501  501 -0.23908959280E+02 -0.15861956137E+02 -0.31458124810E+02  0.42577618568E+02  0.00000000000E+00 0.  1.
         -1    1    1    2    0  502  0.12459420596E+02 -0.21053190104E+03 -0.42611135275E+02  0.21516186318E+03  0.00000000000E+00 0.  1.
<mgrwt>
<rscale>  4 0.24826568E+03</rscale>
<asrwt>0</asrwt>
<pdfrwt beam="1">  1       21 0.87030244E-01 0.24826568E+03</pdfrwt>
<pdfrwt beam="2">  1       -1 0.20575122E-01 0.24826568E+03</pdfrwt>
<totfact> 0.19459378E+03</totfact>
</mgrwt>
</event>
<event>
 5    0  0.2947253E-001  0.2367093E+03  0.7546771E-02  0.1122005E+00
         21   -1    0    0  503  502  0.00000000000E+00  0.00000000000E+00  0.93679166605E+03  0.93679166605E+03  0.00000000000E+00 0.  1.
          1   -1    0    0  502    0 -0.00000000000E+00 -0.00000000000E+00 -0.14312006290E+03  0.14312006290E+03  0.00000000000E+00 0. -1.
         25    1    1    2    0    0  0.19621661205E+03  0.10592470945E+03  0.79399350829E+03  0.83412930300E+03  0.12500000000E+03 0.  0.
         21    1    1    2  503  501 -0.25873232794E+02 -0.34523082028E+01  0.35221943067E+02  0.43839797908E+02  0.00000000000E+00 0.  1.
          1    1    1    2  501    0 -0.17034337926E+03 -0.10247240124E+03 -0.35543848208E+02  0.20194262804E+03  0.00000000000E+00 0. -1.
<mgrwt>
<rscale>  4 0.23670926E+03</rscale>
<asrwt>0</asrwt>
<pdfrwt beam="1">  1       21 0.14412179E+00 0.23670926E+03</pdfrwt>
<pdfrwt beam="2">  1        1 0.22018472E-01 0.23670926E+03</pdfrwt>
<totfact> 0.78763408E+02</totfact>
</mgrwt>
</event>
<event>
 5    0  0.2947253E-001  0.2449427E+03  0.7546771E-02  0.1116543E+00
         -1   -1    0    0    0  501 -0.00000000000E+00  0.00000000000E+00  0.38687421561E+03  0.38687421561E+03  0.00000000000E+00 0.  1.
         21   -1    0    0  501  502  0.00000000000E+00 -0.00000000000E+00 -0.13288471840E+04  0.13288471840E+04  0.00000000000E+00 0.  1.
         25    1    1    2    0    0 -0.10966426890E+03 -0.18095448201E+03 -0.12814644824E+04  0.13048168439E+04  0.12500000000E+03 0.  0.
         21    1    1    2  501  501  0.87572991914E+00  0.33810059294E+02  0.12246610136E+02  0.35970355463E+02  0.00000000000E+00 0. -1.
         -1    1    1    2    0  502  0.10878853898E+03  0.14714442272E+03  0.32724490392E+03  0.37493420021E+03  0.00000000000E+00 0.  1.
<mgrwt>
<rscale>  4 0.24494273E+03</rscale>
<asrwt>0</asrwt>
<pdfrwt beam="1">  1       21 0.20443802E+00 0.24494273E+03</pdfrwt>
<pdfrwt beam="2">  1       -1 0.59519112E-01 0.24494273E+03</pdfrwt>
<totfact> 0.32895345E+01</totfact>
</mgrwt>
</event>
<event>
 5    0  0.2947253E-001  0.2658590E+03  0.7546771E-02  0.1103673E+00
         21   -1    0    0  503  502  0.00000000000E+00  0.00000000000E+00  0.99858990145E+02  0.99858990145E+02  0.00000000000E+00 0. -1.
          2   -1    0    0  502    0 -0.00000000000E+00 -0.00000000000E+00 -0.39247333360E+04  0.39247333360E+04  0.00000000000E+00 0.  1.
         25    1    1    2    0    0  0.21836328931E+03  0.98467298506E+02 -0.98052955261E+02  0.28743297833E+03  0.12500000000E+03 0.  0.
         21    1    1    2  503  501 -0.61190238575E+02 -0.66329437956E+02 -0.65950278749E+03  0.66564838041E+03  0.00000000000E+00 0.  1.
          2    1    1    2  501    0 -0.15717305074E+03 -0.32137860550E+02 -0.30673186031E+04  0.30715109675E+04  0.00000000000E+00 0.  1.
<mgrwt>
<rscale>  4 0.26585904E+03</rscale>
<asrwt>0</asrwt>
<pdfrwt beam="1">  1       21 0.15362918E-01 0.26585904E+03</pdfrwt>
<pdfrwt beam="2">  1        2 0.60380528E+00 0.26585904E+03</pdfrwt>
<totfact> 0.24049478E+02</totfact>
</mgrwt>
</event>
<event>
 5    0  0.2947253E-001  0.2634110E+03  0.7546771E-02  0.1105111E+00
          1   -1    0    0  502    0 -0.00000000000E+00  0.00000000000E+00  0.34234205957E+03  0.34234205957E+03  0.00000000000E+00 0. -1.
         21   -1    0    0  503  502  0.00000000000E+00 -0.00000000000E+00 -0.47232262654E+03  0.47232262654E+03  0.00000000000E+00 0. -1.
         25    1    1    2    0    0  0.31404315526E+02 -0.22972621820E+03 -0.38498142200E+03  0.46647193018E+03  0.12500000000E+03 0.  0.
         21    1    1    2  503  501  0.11995903140E+00  0.26871234565E+02  0.10286905570E+02  0.28773217815E+02  0.00000000000E+00 0.  1.
          1    1    1    2  501    0 -0.31524274557E+02  0.20285498363E+03  0.24471394946E+03  0.31941953812E+03  0.00000000000E+00 0. -1.
<mgrwt>
<rscale>  4 0.26341102E+03</rscale>
<asrwt>0</asrwt>
<pdfrwt beam="1">  1       21 0.72665019E-01 0.26341102E+03</pdfrwt>
<pdfrwt beam="2">  1        1 0.52668009E-01 0.26341102E+03</pdfrwt>
<totfact> 0.13446064E+03</totfact>
</mgrwt>
</event>
<event>
 5    0  0.2947253E-001  0.2620994E+03  0.7546771E-02  0.1105888E+00
         21   -1    0    0  503  502  0.00000000000E+00  0.00000000000E+00  0.74094511697E+02  0.74094511697E+02  0.00000000000E+00 0. -1.
          2   -1    0    0  502    0 -0.00000000000E+00 -0.00000000000E+00 -0.39217262903E+04  0.39217262903E+04  0.00000000000E+00 0. -1.
         25    1    1    2    0    0  0.22158808426E+03 -0.69242481661E+02 -0.17862268473E+03  0.31847584500E+03  0.12500000000E+03 0.  0.
         21    1    1    2  503  501 -0.27059293461E+02 -0.11948795770E+02 -0.82722916139E+03  0.82775785381E+03  0.00000000000E+00 0. -1.
          2    1    1    2  501    0 -0.19452879080E+03  0.81191277431E+02 -0.28417799325E+04  0.28495871032E+04  0.00000000000E+00 0. -1.
<mgrwt>
<rscale>  4 0.26209938E+03</rscale>
<asrwt>0</asrwt>
<pdfrwt beam="1">  1       21 0.11399157E-01 0.26209938E+03</pdfrwt>
<pdfrwt beam="2">  1        2 0.60334244E+00 0.26209938E+03</pdfrwt>
<totfact> 0.41678663E+02</totfact>
</mgrwt>
</event>
<event>
 5    0  0.2947253E-001  0.2415882E+03  0.7546771E-02  0.1118739E+00
         21   -1    0    0  503  502  0.00000000000E+00  0.00000000000E+00  0.26942308010E+03  0.26942308010E+03  0.00000000000E+00 0. -1.
          1   -1    0    0  502    0 -0.00000000000E+00 -0.00000000000E+00 -0.43654939923E+03  0.43654939923E+03  0.00000000000E+00 0. -1.
         25    1    1    2    0    0 -0.20331728717E+03 -0.37442670866E+02  0.17816227734E+03  0.30017773057E+03  0.12500000000E+03 0.  0.
         21    1    1    2  503  501  0.36128405475E+02  0.20715866247E+02 -0.10150629361E+03  0.10971753022E+03  0.00000000000E+00 0. -1.
          1    1    1    2  501    0  0.16718888169E+03  0.16726804619E+02 -0.24378230286E+03  0.29607721855E+03  0.00000000000E+00 0. -1.
<mgrwt>
<rscale>  4 0.24158823E+03</rscale>
<asrwt>0</asrwt>
<pdfrwt beam="1">  1       21 0.41449705E-01 0.24158823E+03</pdfrwt>
<pdfrwt beam="2">  1        1 0.67161446E-01 0.24158823E+03</pdfrwt>
<totfact> 0.32836992E+03</totfact>
</mgrwt>
</event>
<event>
 5    0  0.2947253E-001  0.2407956E+03  0.7546771E-02  0.1119264E+00
          1   -1    0    0  502    0 -0.00000000000E+00  0.00000000000E+00  0.18171992270E+03  0.18171992270E+03  0.00000000000E+00 0. -1.
         21   -1    0    0  503  502  0.00000000000E+00 -0.00000000000E+00 -0.58546454780E+03  0.58546454780E+03  0.00000000000E+00 0.  1.
         25    1    1    2    0    0  0.15469442008E+03 -0.13574672675E+03 -0.47990968103E+03  0.53693187591E+03  0.12500000000E+03 0.  0.
         21    1    1    2  503  501 -0.76801895876E+02  0.10914385382E+03  0.60207440683E+02  0.14640986289E+03  0.00000000000E+00 0. -1.
          1    1    1    2  501    0 -0.77892524206E+02  0.26602872932E+02  0.15957615245E+02  0.83842731705E+02  0.00000000000E+00 0. -1.
<mgrwt>
<rscale>  4 0.24079563E+03</rscale>
<asrwt>0</asrwt>
<pdfrwt beam="1">  1       21 0.90071467E-01 0.24079563E+03</pdfrwt>
<pdfrwt beam="2">  1        1 0.27956912E-01 0.24079563E+03</pdfrwt>
<totfact> 0.18468060E+03</totfact>
</mgrwt>
</event>
<event>
 5    0  0.2947253E-001  0.2517516E+03  0.7546771E-02  0.1112203E+00
         21   -1    0    0  501  502  0.00000000000E+00  0.00000000000E+00  0.83735645933E+03  0.83735645933E+03  0.00000000000E+00 0. -1.
         -4   -1    0    0    0  501 -0.00000000000E+00 -0.00000000000E+00 -0.11602062708E+03  0.11602062708E+03  0.00000000000E+00 0. -1.
         25    1    1    2    0    0 -0.16077107993E+03  0.14972066830E+03  0.65726436051E+03  0.70419106658E+03  0.12500000000E+03 0.  0.
         21    1    1    2  501  501 -0.12541919551E+02 -0.21734407745E+02  0.10328963668E+02  0.27136169894E+02  0.00000000000E+00 0.  1.
         -4    1    1    2    0  502  0.17331299948E+03 -0.12798626056E+03  0.53742508076E+02  0.22204984994E+03  0.00000000000E+00 0. -1.
<mgrwt>
<rscale>  4 0.25175155E+03</rscale>
<asrwt>0</asrwt>
<pdfrwt beam="1">  1       21 0.12882407E+00 0.25175155E+03</pdfrwt>
<pdfrwt beam="2">  1       -4 0.17849328E-01 0.25175155E+03</pdfrwt>
<totfact> 0.51017600E+02</totfact>
</mgrwt>
</event>
<event>
 5    0  0.2947253E-001  0.2423520E+03  0.7546771E-02  0.1118236E+00
         21   -1    0    0  503  502  0.00000000000E+00  0.00000000000E+00  0.12456705281E+03  0.12456705281E+03  0.00000000000E+00 0.  1.
          2   -1    0    0  502    0 -0.00000000000E+00 -0.00000000000E+00 -0.12589859323E+04  0.12589859323E+04  0.00000000000E+00 0. -1.
         25    1    1    2    0    0 -0.18352622157E+03  0.10439137854E+03 -0.36819442410E+02  0.24811308965E+03  0.12500000000E+03 0.  0.
         21    1    1    2  503  501  0.53555578359E+02  0.34557661221E+02 -0.91514176033E+02  0.11152253735E+03  0.00000000000E+00 0. -1.
          2    1    1    2  501    0  0.12997064321E+03 -0.13894903976E+03 -0.10060852611E+04  0.10239173582E+04  0.00000000000E+00 0. -1.
<mgrwt>
<rscale>  4 0.24235198E+03</rscale>
<asrwt>0</asrwt>
<pdfrwt beam="1">  1       21 0.19164162E-01 0.24235198E+03</pdfrwt>
<pdfrwt beam="2">  1        2 0.19369015E+00 0.24235198E+03</pdfrwt>
<totfact> 0.58080948E+03</totfact>
</mgrwt>
</event>
<event>
 5    0  0.2947253E-001  0.3340878E+03  0.7546771E-02  0.1069342E+00
          2   -1    0    0  502    0 -0.00000000000E+00  0.00000000000E+00  0.31315027828E+04  0.31315027828E+04  0.00000000000E+00 0. -1.
         21   -1    0    0  503  502  0.00000000000E+00 -0.00000000000E+00 -0.37699482126E+03  0.37699482126E+03  0.00000000000E+00 0.  1.
         25    1    1    2    0    0 -0.27458949853E+03  0.16075903100E+03 -0.28341292606E+03  0.44406164596E+03  0.12500000000E+03 0.  0.
         21    1    1    2  503  501  0.21171195790E+03 -0.24576555027E+02  0.10832554982E+04  0.11040237472E+04  0.00000000000E+00 0. -1.
          2    1    1    2  501    0  0.62877540634E+02 -0.13618247597E+03  0.19546653894E+04  0.19604122109E+04  0.00000000000E+00 0. -1.
<mgrwt>
<rscale>  4 0.33408784E+03</rscale>
<asrwt>0</asrwt>
<pdfrwt beam="1">  1       21 0.57999205E-01 0.33408784E+03</pdfrwt>
<pdfrwt beam="2">  1        2 0.48176964E+00 0.33408784E+03</pdfrwt>
<totfact> 0.56580771E+01</totfact>
</mgrwt>
</event>
<event>
 5    0  0.2947253E-001  0.2279980E+03  0.7546771E-02  0.1128057E+00
         21   -1    0    0  503  502  0.00000000000E+00  0.00000000000E+00  0.46258998797E+02  0.46258998797E+02  0.00000000000E+00 0.  1.
          2   -1    0    0  502    0 -0.00000000000E+00 -0.00000000000E+00 -0.21815990238E+04  0.21815990238E+04  0.00000000000E+00 0. -1.
         25    1    1    2    0    0 -0.27999523928E+01  0.22065602045E+03 -0.38822847856E+03  0.46372758238E+03  0.12500000000E+03 0.  0.
         21    1    1    2  503  501  0.23768449886E+02 -0.35243830637E+02 -0.14248002573E+03  0.14868632936E+03  0.00000000000E+00 0. -1.
          2    1    1    2  501    0 -0.20968497493E+02 -0.18541218982E+03 -0.16046315207E+04  0.16154441109E+04  0.00000000000E+00 0. -1.
<mgrwt>
<rscale>  4 0.22799799E+03</rscale>
<asrwt>0</asrwt>
<pdfrwt beam="1">  1       21 0.71167689E-02 0.22799799E+03</pdfrwt>
<pdfrwt beam="2">  1        2 0.33563062E+00 0.22799799E+03</pdfrwt>
<totfact> 0.11224151E+04</totfact>
</mgrwt>
</event>
<event>
 5    0  0.2947253E-001  0.2443568E+03  0.7546771E-02  0.1116924E+00
         21   -1    0    0  503  502  0.00000000000E+00  0.00000000000E+00  0.25238579321E+03  0.25238579321E+03  0.00000000000E+00 0. -1.
          2   -1    0    0  502    0 -0.00000000000E+00 -0.00000000000E+00 -0.33474704861E+03  0.33474704861E+03  0.00000000000E+00 0. -1.
         25    1    1    2    0    0  0.17653904668E+02  0.20922139020E+03  0.13690664439E+03  0.28009584029E+03  0.12500000000E+03 0.  0.
         21    1    1    2  503  501  0.12636914976E+02 -0.25407176525E+02 -0.34264206764E+02  0.44488786275E+02  0.00000000000E+00 0.  1.
          2    1    1    2  501    0 -0.30290819644E+02 -0.18381421368E+03 -0.18500369303E+03  0.26254821526E+03  0.00000000000E+00 0. -1.
<mgrwt>
<rscale>  4 0.24435681E+03</rscale>
<asrwt>0</asrwt>
<pdfrwt beam="1">  1       21 0.38828584E-01 0.24435681E+03</pdfrwt>
<pdfrwt beam="2">  1        2 0.51499546E-01 0.24435681E+03</pdfrwt>
<totfact> 0.76155028E+03</totfact>
</mgrwt>
</event>
<event>
 5    0  0.2947253E-001  0.2677990E+03  0.7546771E-02  0.1102546E+00
         21   -1    0    0  503  502  0.00000000000E+00  0.00000000000E+00  0.60253585257E+02  0.60253585257E+02  0.00000000000E+00 0.  1.
          2   -1    0    0  502    0 -0.00000000000E+00 -0.00000000000E+00 -0.15979732524E+04  0.15979732524E+04  0.00000000000E+00 0.  1.
         25    1    1    2    0    0 -0.81084468633E+02 -0.22252329906E+03 -0.32301019942E+03  0.41958538893E+03  0.12500000000E+03 0.  0.
         21    1    1    2  503  501  0.23176083295E+02  0.16987803824E+02 -0.13729650248E+03  0.14027132961E+03  0.00000000000E+00 0.  1.
          2    1    1    2  501    0  0.57908385338E+02  0.20553549524E+03 -0.10774129653E+04  0.10983701191E+04  0.00000000000E+00 0.  1.
<mgrwt>
<rscale>  4 0.26779901E+03</rscale>
<asrwt>0</asrwt>
<pdfrwt beam="1">  1       21 0.92697828E-02 0.26779901E+03</pdfrwt>
<pdfrwt beam="2">  1        2 0.24584203E+00 0.26779901E+03</pdfrwt>
<totfact> 0.14131379E+04</totfact>
</mgrwt>
</event>
<event>
 5    0  0.2947253E-001  0.3680851E+03  0.7546771E-02  0.1055428E+00
         21   -1    0    0  503  502  0.00000000000E+00  0.00000000000E+00  0.25013994516E+03  0.25013994516E+03  0.00000000000E+00 0.  1.
          2   -1    0    0  502    0 -0.00000000000E+00 -0.00000000000E+00 -0.61142659106E+03  0.61142659106E+03  0.00000000000E+00 0. -1.
         25    1    1    2    0    0 -0.24615405623E+03 -0.26420159887E+03 -0.10298411466E+03  0.39575880548E+03  0.12500000000E+03 0.  0.
         21    1    1    2  503  501 -0.79377240124E+01  0.40871714587E+02 -0.25330778978E+01  0.41712360271E+02  0.00000000000E+00 0. -1.
          2    1    1    2  501    0  0.25409178024E+03  0.22332988428E+03 -0.25576945334E+03  0.42409537047E+03  0.00000000000E+00 0. -1.
<mgrwt>
<rscale>  4 0.36808509E+03</rscale>
<asrwt>0</asrwt>
<pdfrwt beam="1">  1       21 0.38483068E-01 0.36808509E+03</pdfrwt>
<pdfrwt beam="2">  1        2 0.94065630E-01 0.36808509E+03</pdfrwt>
<totfact> 0.38484418E+03</totfact>
</mgrwt>
</event>
<event>
 5    0  0.2947253E-001  0.4139497E+03  0.7546771E-02  0.1039054E+00
          2   -1    0    0  502    0 -0.00000000000E+00  0.00000000000E+00  0.11278025638E+04  0.11278025638E+04  0.00000000000E+00 0.  1.
         21   -1    0    0  503  502  0.00000000000E+00 -0.00000000000E+00 -0.17488983459E+03  0.17488983459E+03  0.00000000000E+00 0.  1.
         25    1    1    2    0    0 -0.82134173714E+02  0.38598355227E+03  0.23345106302E+03  0.47524070106E+03  0.12500000000E+03 0.  0.
         21    1    1    2  503  501  0.74317038331E+02 -0.22794649227E+03  0.52189923612E+03  0.57433564941E+03  0.00000000000E+00 0.  1.
          2    1    1    2  501    0  0.78171353834E+01 -0.15803706000E+03  0.19756243002E+03  0.25311604788E+03  0.00000000000E+00 0.  1.
<mgrwt>
<rscale>  4 0.41394966E+03</rscale>
<asrwt>0</asrwt>
<pdfrwt beam="1">  1       21 0.26906129E-01 0.41394966E+03</pdfrwt>
<pdfrwt beam="2">  1        2 0.17350808E+00 0.41394966E+03</pdfrwt>
<totfact> 0.34482816E+03</totfact>
</mgrwt>
</event>
<event>
 5    0  0.2947253E-001  0.2882774E+03  0.7546771E-02  0.1091252E+00
         21   -1    0    0  503  502  0.00000000000E+00  0.00000000000E+00  0.92885409179E+02  0.92885409179E+02  0.00000000000E+00 0.  1.
          2   -1    0    0  502    0 -0.00000000000E+00 -0.00000000000E+00 -0.32844839937E+04  0.32844839937E+04  0.00000000000E+00 0.  1.
         25    1    1    2    0    0 -0.35157529724E+02  0.25986431621E+03 -0.15954941394E+03  0.33143103388E+03  0.12500000000E+03 0.  0.
         21    1    1    2  503  501 -0.16093341221E+02 -0.33961537716E+02 -0.15155753906E+03  0.15614758826E+03  0.00000000000E+00 0.  1.
          2    1    1    2  501    0  0.51250870946E+02 -0.22590277849E+03 -0.28804916315E+04  0.28897907807E+04  0.00000000000E+00 0.  1.
<mgrwt>
<rscale>  4 0.28827736E+03</rscale>
<asrwt>0</asrwt>
<pdfrwt beam="1">  1       21 0.14290067E-01 0.28827736E+03</pdfrwt>
<pdfrwt beam="2">  1        2 0.50530510E+00 0.28827736E+03</pdfrwt>
<totfact> 0.74150542E+02</totfact>
</mgrwt>
</event>
<event>
 5    0  0.2947253E-001  0.2339198E+03  0.7546771E-02  0.1123911E+00
          2   -1    0    0  502    0 -0.00000000000E+00  0.00000000000E+00  0.18228720677E+04  0.18228720677E+04  0.00000000000E+00 0.  1.
         21   -1    0    0  503  502  0.00000000000E+00 -0.00000000000E+00 -0.30769868609E+02  0.30769868609E+02  0.00000000000E+00 0. -1.
         25    1    1    2    0    0 -0.20013104255E+03 -0.10549471093E+02  0.66897749510E+03  0.70945021988E+03  0.12500000000E+03 0.  0.
         21    1    1    2  503  501  0.81091803770E+01 -0.21254593587E+02  0.15871735017E+03  0.16033937071E+03  0.00000000000E+00 0.  1.
          2    1    1    2  501    0  0.19202186217E+03  0.31804064679E+02  0.96440735387E+03  0.98385234577E+03  0.00000000000E+00 0.  1.
<mgrwt>
<rscale>  4 0.23391982E+03</rscale>
<asrwt>0</asrwt>
<pdfrwt beam="1">  1       21 0.47338274E-02 0.23391982E+03</pdfrwt>
<pdfrwt beam="2">  1        2 0.28044177E+00 0.23391982E+03</pdfrwt>
<totfact> 0.34767265E+04</totfact>
</mgrwt>
</event>
<event>
 5    0  0.2947253E-001  0.2390613E+03  0.7546771E-02  0.1120420E+00
         21   -1    0    0  503  502  0.00000000000E+00  0.00000000000E+00  0.39501226868E+02  0.39501226868E+02  0.00000000000E+00 0. -1.
          1   -1    0    0  502    0 -0.00000000000E+00 -0.00000000000E+00 -0.17353428946E+04  0.17353428946E+04  0.00000000000E+00 0.  1.
         25    1    1    2    0    0 -0.17332420982E+03  0.10716352727E+03 -0.42867262420E+03  0.49082636647E+03  0.12500000000E+03 0.  0.
         21    1    1    2  503  501  0.23839656904E+02 -0.13274207760E+02 -0.10352524571E+03  0.10706077869E+03  0.00000000000E+00 0.  1.
          1    1    1    2  501    0  0.14948455291E+03 -0.93889319510E+02 -0.11636437978E+04  0.11769569763E+04  0.00000000000E+00 0.  1.
<mgrwt>
<rscale>  4 0.23906130E+03</rscale>
<asrwt>0</asrwt>
<pdfrwt beam="1">  1       21 0.60771127E-02 0.23906130E+03</pdfrwt>
<pdfrwt beam="2">  1        1 0.26697579E+00 0.23906130E+03</pdfrwt>
<totfact> 0.10857902E+04</totfact>
</mgrwt>
</event>
<event>
 5    0  0.2947253E-001  0.2371968E+03  0.7546771E-02  0.1121674E+00
         21   -1    0    0  501  502  0.00000000000E+00  0.00000000000E+00  0.16836883480E+03  0.16836883480E+03  0.00000000000E+00 0. -1.
         -2   -1    0    0    0  501 -0.00000000000E+00 -0.00000000000E+00 -0.40767991776E+03  0.40767991776E+03  0.00000000000E+00 0. -1.
         25    1    1    2    0    0 -0.29627443395E+01 -0.20156527262E+03  0.25910526153E+02  0.23860782122E+03  0.12500000000E+03 0.  0.
         21    1    1    2  501  501  0.39035734501E+01  0.62358223825E+02 -0.45346910757E+02  0.77201867073E+02  0.00000000000E+00 0. -1.
         -2    1    1    2    0  502 -0.94082911053E+00  0.13920704879E+03 -0.21987469836E+03  0.26023906427E+03  0.00000000000E+00 0. -1.
<mgrwt>
<rscale>  4 0.23719683E+03</rscale>
<asrwt>0</asrwt>
<pdfrwt beam="1">  1       21 0.25902897E-01 0.23719683E+03</pdfrwt>
<pdfrwt beam="2">  1       -2 0.62719988E-01 0.23719683E+03</pdfrwt>
<totfact> 0.27522992E+03</totfact>
</mgrwt>
</event>
<event>
 5    0  0.2947253E-001  0.5112240E+03  0.7546771E-02  0.1010890E+00
          1   -1    0    0  502    0 -0.00000000000E+00  0.00000000000E+00  0.13448921078E+04  0.13448921078E+04  0.00000000000E+00 0.  1.
         21   -1    0    0  503  502  0.00000000000E+00 -0.00000000000E+00 -0.25642049264E+03  0.25642049264E+03  0.00000000000E+00 0.  1.
         25    1    1    2    0    0 -0.16286128430E+02 -0.52523475791E+03  0.30031004344E+03  0.61801934523E+03  0.12500000000E+03 0.  0.
         21    1    1    2  503  501 -0.53700016500E+02  0.46646445982E+02  0.17219582613E+02  0.73185358646E+02  0.00000000000E+00 0.  1.
          1    1    1    2  501    0  0.69986144930E+02  0.47858831193E+03  0.77094198912E+03  0.91010789656E+03  0.00000000000E+00 0.  1.
<mgrwt>
<rscale>  4 0.51122396E+03</rscale>
<asrwt>0</asrwt>
<pdfrwt beam="1">  1       21 0.39449307E-01 0.51122396E+03</pdfrwt>
<pdfrwt beam="2">  1        1 0.20690647E+00 0.51122396E+03</pdfrwt>
<totfact> 0.56228979E+02</totfact>
</mgrwt>
</event>
<event>
 5    0  0.2947253E-001  0.4574148E+03  0.7546771E-02  0.1025534E+00
          1   -1    0    0  502    0 -0.00000000000E+00  0.00000000000E+00  0.12783640975E+04  0.12783640975E+04  0.00000000000E+00 0. -1.
         21   -1    0    0  503  502  0.00000000000E+00 -0.00000000000E+00 -0.17011720168E+03  0.17011720168E+03  0.00000000000E+00 0.  1.
         25    1    1    2    0    0  0.25373318023E+03  0.35947564084E+03  0.40349619734E+03  0.60994872274E+03  0.12500000000E+03 0.  0.
         21    1    1    2  503  501 -0.57481338655E+02 -0.38081197145E+02  0.57838514504E+02  0.89997642356E+02  0.00000000000E+00 0. -1.
          1    1    1    2  501    0 -0.19625184157E+03 -0.32139444370E+03  0.64691218399E+03  0.74853493409E+03  0.00000000000E+00 0. -1.
<mgrwt>
<rscale>  4 0.45741476E+03</rscale>
<asrwt>0</asrwt>
<pdfrwt beam="1">  1       21 0.26171878E-01 0.45741476E+03</pdfrwt>
<pdfrwt beam="2">  1        1 0.19667139E+00 0.45741476E+03</pdfrwt>
<totfact> 0.14439256E+03</totfact>
</mgrwt>
</event>
<event>
 5    0  0.2947253E-001  0.3240249E+03  0.7546771E-02  0.1073812E+00
          1   -1    0    0  502    0 -0.00000000000E+00  0.00000000000E+00  0.10372366713E+04  0.10372366713E+04  0.00000000000E+00 0. -1.
         21   -1    0    0  503  502  0.00000000000E+00 -0.00000000000E+00 -0.27691160394E+03  0.27691160394E+03  0.00000000000E+00 0.  1.
         25    1    1    2    0    0  0.40912368457E+02 -0.31796421243E+03 -0.12265659241E+03  0.36530083758E+03  0.12500000000E+03 0.  0.
         21    1    1    2  503  501  0.82902156912E+01  0.25289473438E+02  0.12964200743E+02  0.29603304611E+02  0.00000000000E+00 0. -1.
          1    1    1    2  501    0 -0.49202584148E+02  0.29267473899E+03  0.87001745906E+03  0.91924413308E+03  0.00000000000E+00 0. -1.
<mgrwt>
<rscale>  4 0.32402488E+03</rscale>
<asrwt>0</asrwt>
<pdfrwt beam="1">  1       21 0.42601786E-01 0.32402488E+03</pdfrwt>
<pdfrwt beam="2">  1        1 0.15957487E+00 0.32402488E+03</pdfrwt>
<totfact> 0.84135118E+02</totfact>
</mgrwt>
</event>
<event>
 5    0  0.2947253E-001  0.2471696E+03  0.7546771E-02  0.1115107E+00
         21   -1    0    0  503  502  0.00000000000E+00  0.00000000000E+00  0.13227912632E+03  0.13227912632E+03  0.00000000000E+00 0.  1.
          2   -1    0    0  502    0 -0.00000000000E+00 -0.00000000000E+00 -0.47763489537E+03  0.47763489537E+03  0.00000000000E+00 0. -1.
         25    1    1    2    0    0  0.10543386855E+02 -0.21297102937E+03 -0.68662599243E+02  0.25652948152E+03  0.12500000000E+03 0.  0.
         21    1    1    2  503  501  0.14212486818E+02  0.56944805515E+02 -0.50155764410E+02  0.77203020409E+02  0.00000000000E+00 0. -1.
          2    1    1    2  501    0 -0.24755873672E+02  0.15602622385E+03 -0.22653740540E+03  0.27618151976E+03  0.00000000000E+00 0. -1.
<mgrwt>
<rscale>  4 0.24716962E+03</rscale>
<asrwt>0</asrwt>
<pdfrwt beam="1">  1       21 0.20350635E-01 0.24716962E+03</pdfrwt>
<pdfrwt beam="2">  1        2 0.73482291E-01 0.24716962E+03</pdfrwt>
<totfact> 0.18163738E+04</totfact>
</mgrwt>
</event>
<event>
 5    0  0.2947253E-001  0.2386340E+03  0.7546771E-02  0.1120706E+00
         -4   -1    0    0    0  501 -0.00000000000E+00  0.00000000000E+00  0.45035680408E+03  0.45035680408E+03  0.00000000000E+00 0.  1.
         21   -1    0    0  501  502  0.00000000000E+00 -0.00000000000E+00 -0.15453964098E+04  0.15453964098E+04  0.00000000000E+00 0. -1.
         25    1    1    2    0    0  0.20313020276E+03  0.17139312806E+02 -0.15068595068E+04  0.15257149828E+04  0.12500000000E+03 0.  0.
         21    1    1    2  501  501 -0.24467482552E+02 -0.19502984876E+02  0.14695183836E+02  0.34568374990E+02  0.00000000000E+00 0.  1.
         -4    1    1    2    0  502 -0.17866272020E+03  0.23636720697E+01  0.39712471726E+03  0.43546985613E+03  0.00000000000E+00 0.  1.
<mgrwt>
<rscale>  4 0.23863400E+03</rscale>
<asrwt>0</asrwt>
<pdfrwt beam="1">  1       21 0.23775329E+00 0.23863400E+03</pdfrwt>
<pdfrwt beam="2">  1       -4 0.69285663E-01 0.23863400E+03</pdfrwt>
<totfact> 0.62190138E+00</totfact>
</mgrwt>
</event>
<event>
 5    0  0.2947253E-001  0.2884771E+03  0.7546771E-02  0.1091147E+00
         21   -1    0    0  503  502  0.00000000000E+00  0.00000000000E+00  0.22322775814E+03  0.22322775814E+03  0.00000000000E+00 0.  1.
          2   -1    0    0  502    0 -0.00000000000E+00 -0.00000000000E+00 -0.52815193892E+03  0.52815193892E+03  0.00000000000E+00 0.  1.
         25    1    1    2    0    0  0.80471364208E+02 -0.24722133965E+03  0.63492611870E+02  0.29538169036E+03  0.12500000000E+03 0.  0.
         21    1    1    2  503  501 -0.35298342080E+02  0.28607117452E+02 -0.59425163017E+02  0.74804345610E+02  0.00000000000E+00 0.  1.
          2    1    1    2  501    0 -0.45173022129E+02  0.21861422220E+03 -0.30899162963E+03  0.38119366109E+03  0.00000000000E+00 0.  1.
<mgrwt>
<rscale>  4 0.28847709E+03</rscale>
<asrwt>0</asrwt>
<pdfrwt beam="1">  1       21 0.34342732E-01 0.28847709E+03</pdfrwt>
<pdfrwt beam="2">  1        2 0.81254145E-01 0.28847709E+03</pdfrwt>
<totfact> 0.58390601E+03</totfact>
</mgrwt>
</event>
<event>
 5    0  0.2947253E-001  0.2809226E+03  0.7546771E-02  0.1095186E+00
         21   -1    0    0  503  502  0.00000000000E+00  0.00000000000E+00  0.15891367923E+03  0.15891367923E+03  0.00000000000E+00 0. -1.
          2   -1    0    0  502    0 -0.00000000000E+00 -0.00000000000E+00 -0.11589466948E+04  0.11589466948E+04  0.00000000000E+00 0.  1.
         25    1    1    2    0    0  0.12434374388E+03  0.22156788462E+03 -0.10050463262E+02  0.28333673597E+03  0.12500000000E+03 0.  0.
         21    1    1    2  503  501 -0.70519821324E+02 -0.23280228327E+03 -0.75611379236E+03  0.79427829839E+03  0.00000000000E+00 0.  1.
          2    1    1    2  501    0 -0.53823922551E+02  0.11234398645E+02 -0.23386875998E+03  0.24024533969E+03  0.00000000000E+00 0.  1.
<mgrwt>
<rscale>  4 0.28092259E+03</rscale>
<asrwt>0</asrwt>
<pdfrwt beam="1">  1       21 0.24448259E-01 0.28092259E+03</pdfrwt>
<pdfrwt beam="2">  1        2 0.17829948E+00 0.28092259E+03</pdfrwt>
<totfact> 0.41203140E+03</totfact>
</mgrwt>
</event>
<event>
 5    0  0.2947253E-001  0.2490572E+03  0.7546771E-02  0.1113902E+00
          1   -1    0    0  502    0 -0.00000000000E+00  0.00000000000E+00  0.16514785284E+04  0.16514785284E+04  0.00000000000E+00 0. -1.
         21   -1    0    0  503  502  0.00000000000E+00 -0.00000000000E+00 -0.99796934494E+02  0.99796934494E+02  0.00000000000E+00 0. -1.
         25    1    1    2    0    0 -0.12477845967E+03  0.17826014829E+03  0.84898217020E+02  0.26491329095E+03  0.12500000000E+03 0.  0.
         21    1    1    2  503  501 -0.15705590620E+02 -0.33774159519E+02  0.17173095505E+03  0.17572387530E+03  0.00000000000E+00 0. -1.
          1    1    1    2  501    0  0.14048405029E+03 -0.14448598877E+03  0.12950524219E+04  0.13106382967E+04  0.00000000000E+00 0. -1.
<mgrwt>
<rscale>  4 0.24905721E+03</rscale>
<asrwt>0</asrwt>
<pdfrwt beam="1">  1       21 0.15353376E-01 0.24905721E+03</pdfrwt>
<pdfrwt beam="2">  1        1 0.25407360E+00 0.24905721E+03</pdfrwt>
<totfact> 0.23702475E+03</totfact>
</mgrwt>
</event>
<event>
 5    0  0.2947253E-001  0.2879691E+03  0.7546771E-02  0.1091414E+00
         21   -1    0    0  503  502  0.00000000000E+00  0.00000000000E+00  0.13124770915E+03  0.13124770915E+03  0.00000000000E+00 0. -1.
          2   -1    0    0  502    0 -0.00000000000E+00 -0.00000000000E+00 -0.28278107090E+04  0.28278107090E+04  0.00000000000E+00 0. -1.
         25    1    1    2    0    0 -0.26070206127E+03  0.17932307541E+02 -0.45616294598E+02  0.29324559458E+03  0.12500000000E+03 0.  0.
         21    1    1    2  503  501  0.24060090382E+02  0.38032193529E+01 -0.70337542154E+03  0.70379708443E+03  0.00000000000E+00 0.  1.
          2    1    1    2  501    0  0.23664197089E+03 -0.21735526894E+02 -0.19475712837E+04  0.19620157392E+04  0.00000000000E+00 0. -1.
<mgrwt>
<rscale>  4 0.28796906E+03</rscale>
<asrwt>0</asrwt>
<pdfrwt beam="1">  1       21 0.20191957E-01 0.28796906E+03</pdfrwt>
<pdfrwt beam="2">  1        2 0.43504776E+00 0.28796906E+03</pdfrwt>
<totfact> 0.73435690E+02</totfact>
</mgrwt>
</event>
<event>
 5    0  0.2947253E-001  0.8897993E+03  0.7546771E-02  0.9438423E-01
         21   -1    0    0  503  502  0.00000000000E+00  0.00000000000E+00  0.90748210489E+03  0.90748210489E+03  0.00000000000E+00 0.  1.
          2   -1    0    0  502    0 -0.00000000000E+00 -0.00000000000E+00 -0.12262334060E+04  0.12262334060E+04  0.00000000000E+00 0.  1.
         25    1    1    2    0    0  0.86547382850E+03 -0.19579776370E+03  0.36448709035E+03  0.96739730779E+03  0.12500000000E+03 0.  0.
         21    1    1    2  503  501 -0.39990268955E+02 -0.60638553398E+02 -0.16068121800E+02  0.74393819014E+02  0.00000000000E+00 0.  1.
          2    1    1    2  501    0 -0.82548355954E+03  0.25643631710E+03 -0.66717026961E+03  0.10919243840E+04  0.00000000000E+00 0.  1.
<mgrwt>
<rscale>  4 0.88979928E+03</rscale>
<asrwt>0</asrwt>
<pdfrwt beam="1">  1       21 0.13961263E+00 0.88979928E+03</pdfrwt>
<pdfrwt beam="2">  1        2 0.18865129E+00 0.88979928E+03</pdfrwt>
<totfact> 0.67136761E+01</totfact>
</mgrwt>
</event>
<event>
 5    0  0.2947253E-001  0.3061937E+03  0.7546771E-02  0.1082185E+00
          2   -1    0    0  502    0 -0.00000000000E+00  0.00000000000E+00  0.19461324641E+04  0.19461324641E+04  0.00000000000E+00 0. -1.
         21   -1    0    0  503  502  0.00000000000E+00 -0.00000000000E+00 -0.46288199743E+02  0.46288199743E+02  0.00000000000E+00 0.  1.
         25    1    1    2    0    0 -0.27942150240E+03  0.72962196384E+01  0.95824912165E+03  0.10059801141E+04  0.12500000000E+03 0.  0.
         21    1    1    2  503  501  0.57886102579E+02  0.36012902157E+02  0.20565095014E+03  0.21665650991E+03  0.00000000000E+00 0. -1.
          2    1    1    2  501    0  0.22153539982E+03 -0.43309121795E+02  0.73594419252E+03  0.76978403979E+03  0.00000000000E+00 0. -1.
<mgrwt>
<rscale>  4 0.30619375E+03</rscale>
<asrwt>0</asrwt>
<pdfrwt beam="1">  1       21 0.71212630E-02 0.30619375E+03</pdfrwt>
<pdfrwt beam="2">  1        2 0.29940493E+00 0.30619375E+03</pdfrwt>
<totfact> 0.14569484E+04</totfact>
</mgrwt>
</event>
<event>
 5    0  0.2947253E-001  0.2129100E+03  0.7546771E-02  0.1139282E+00
         21   -1    0    0  503  502  0.00000000000E+00  0.00000000000E+00  0.63126711232E+03  0.63126711232E+03  0.00000000000E+00 0.  1.
          2   -1    0    0  502    0 -0.00000000000E+00 -0.00000000000E+00 -0.18324594341E+03  0.18324594341E+03  0.00000000000E+00 0. -1.
         25    1    1    2    0    0  0.21155925461E+03  0.42433611079E+02  0.48347866085E+03  0.54399866273E+03  0.12500000000E+03 0.  0.
         21    1    1    2  503  501 -0.55531094860E+02  0.20921290884E+02  0.53644495580E+02  0.79994592408E+02  0.00000000000E+00 0. -1.
          2    1    1    2  501    0 -0.15602815975E+03 -0.63354901963E+02 -0.89101987518E+02  0.19051980059E+03  0.00000000000E+00 0. -1.
<mgrwt>
<rscale>  4 0.21291004E+03</rscale>
<asrwt>0</asrwt>
<pdfrwt beam="1">  1       21 0.97118016E-01 0.21291004E+03</pdfrwt>
<pdfrwt beam="2">  1        2 0.28191684E-01 0.21291004E+03</pdfrwt>
<totfact> 0.20163571E+03</totfact>
</mgrwt>
</event>
<event>
 5    0  0.2947253E-001  0.2364251E+03  0.7546771E-02  0.1122197E+00
         21   -1    0    0  503  502  0.00000000000E+00  0.00000000000E+00  0.32167113293E+03  0.32167113293E+03  0.00000000000E+00 0.  1.
          2   -1    0    0  502    0 -0.00000000000E+00 -0.00000000000E+00 -0.15838773564E+04  0.15838773564E+04  0.00000000000E+00 0.  1.
         25    1    1    2    0    0 -0.12833648065E+03  0.15540766285E+03  0.26790577145E+03  0.35779924024E+03  0.12500000000E+03 0.  0.
         21    1    1    2  503  501  0.71141730069E+01 -0.32088630593E+02 -0.68870283259E+02  0.76311254656E+02  0.00000000000E+00 0.  1.
          2    1    1    2  501    0  0.12122230764E+03 -0.12331903226E+03 -0.14612417117E+04  0.14714379945E+04  0.00000000000E+00 0.  1.
<mgrwt>
<rscale>  4 0.23642508E+03</rscale>
<asrwt>0</asrwt>
<pdfrwt beam="1">  1       21 0.49487867E-01 0.23642508E+03</pdfrwt>
<pdfrwt beam="2">  1        2 0.24367344E+00 0.23642508E+03</pdfrwt>
<totfact> 0.59933729E+02</totfact>
</mgrwt>
</event>
<event>
 5    0  0.2947253E-001  0.2481191E+03  0.7546771E-02  0.1114499E+00
         -1   -1    0    0    0  501 -0.00000000000E+00  0.00000000000E+00  0.88550253643E+03  0.88550253643E+03  0.00000000000E+00 0.  1.
         21   -1    0    0  501  502  0.00000000000E+00 -0.00000000000E+00 -0.80209780468E+02  0.80209780468E+02  0.00000000000E+00 0.  1.
         25    1    1    2    0    0 -0.16737298101E+03  0.12336974740E+03  0.27112770206E+03  0.36382556283E+03  0.12500000000E+03 0.  0.
         21    1    1    2  501  501 -0.39642973334E+02 -0.30355796056E+02  0.83164804160E+02  0.97002187295E+02  0.00000000000E+00 0.  1.
         -1    1    1    2    0  502  0.20701595434E+03 -0.93013951345E+02  0.45100024974E+03  0.50488456677E+03  0.00000000000E+00 0.  1.
<mgrwt>
<rscale>  4 0.24811909E+03</rscale>
<asrwt>0</asrwt>
<pdfrwt beam="1">  1       21 0.12339967E-01 0.24811909E+03</pdfrwt>
<pdfrwt beam="2">  1       -1 0.13623115E+00 0.24811909E+03</pdfrwt>
<totfact> 0.25175915E+03</totfact>
</mgrwt>
</event>
<event>
 5    0  0.2947253E-001  0.3988270E+03  0.7546771E-02  0.1044187E+00
         21   -1    0    0  501  502  0.00000000000E+00  0.00000000000E+00  0.79358124552E+03  0.79358124552E+03  0.00000000000E+00 0. -1.
         -2   -1    0    0    0  501 -0.00000000000E+00 -0.00000000000E+00 -0.97592423652E+03  0.97592423652E+03  0.00000000000E+00 0. -1.
         25    1    1    2    0    0 -0.23789157795E+03 -0.19835302871E+03  0.65123454787E+03  0.73189327309E+03  0.12500000000E+03 0.  0.
         21    1    1    2  501  501 -0.45302157556E+02 -0.59131341877E+02  0.39505276455E+02  0.84317660897E+02  0.00000000000E+00 0. -1.
         -2    1    1    2    0  502  0.28319373550E+03  0.25748437059E+03 -0.87308281533E+03  0.95329454805E+03  0.00000000000E+00 0. -1.
<mgrwt>
<rscale>  4 0.39882700E+03</rscale>
<asrwt>0</asrwt>
<pdfrwt beam="1">  1       21 0.12208942E+00 0.39882700E+03</pdfrwt>
<pdfrwt beam="2">  1       -2 0.15014219E+00 0.39882700E+03</pdfrwt>
<totfact> 0.11717565E+01</totfact>
</mgrwt>
</event>
<event>
 5    0  0.2947253E-001  0.3904534E+03  0.7546771E-02  0.1047136E+00
          1   -1    0    0  502    0 -0.00000000000E+00  0.00000000000E+00  0.67886898175E+03  0.67886898175E+03  0.00000000000E+00 0.  1.
         21   -1    0    0  503  502  0.00000000000E+00 -0.00000000000E+00 -0.54740295058E+03  0.54740295058E+03  0.00000000000E+00 0.  1.
         25    1    1    2    0    0 -0.32989571769E+03  0.91286085318E+02 -0.21654593965E+03  0.42388852061E+03  0.12500000000E+03 0.  0.
         21    1    1    2  503  501  0.39271613830E+03 -0.30579647116E+03  0.21416092717E+03  0.54185085566E+03  0.00000000000E+00 0.  1.
          1    1    1    2  501    0 -0.62820420611E+02  0.21451038584E+03  0.13385104366E+03  0.26053255606E+03  0.00000000000E+00 0.  1.
<mgrwt>
<rscale>  4 0.39045337E+03</rscale>
<asrwt>0</asrwt>
<pdfrwt beam="1">  1       21 0.84215838E-01 0.39045337E+03</pdfrwt>
<pdfrwt beam="2">  1        1 0.10444138E+00 0.39045337E+03</pdfrwt>
<totfact> 0.36623966E+02</totfact>
</mgrwt>
</event>
<event>
 5    0  0.2947253E-001  0.2425203E+03  0.7546771E-02  0.1118125E+00
         21   -1    0    0  503  502  0.00000000000E+00  0.00000000000E+00  0.34316950041E+02  0.34316950041E+02  0.00000000000E+00 0. -1.
          2   -1    0    0  502    0 -0.00000000000E+00 -0.00000000000E+00 -0.39843913067E+04  0.39843913067E+04  0.00000000000E+00 0. -1.
         25    1    1    2    0    0  0.20137822686E+03 -0.76292519687E+02 -0.48829297514E+03  0.54811382795E+03  0.12500000000E+03 0.  0.
         21    1    1    2  503  501 -0.32712851925E+02  0.56219954155E+02 -0.54429172243E+03  0.54816447626E+03  0.00000000000E+00 0.  1.
          2    1    1    2  501    0 -0.16866537494E+03  0.20072565533E+02 -0.29174896591E+04  0.29224299525E+04  0.00000000000E+00 0. -1.
<mgrwt>
<rscale>  4 0.24252035E+03</rscale>
<asrwt>0</asrwt>
<pdfrwt beam="1">  1       21 0.52795297E-02 0.24252035E+03</pdfrwt>
<pdfrwt beam="2">  1        2 0.61298340E+00 0.24252035E+03</pdfrwt>
<totfact> 0.14566731E+03</totfact>
</mgrwt>
</event>
<event>
 5    0  0.2947253E-001  0.2701052E+03  0.7546771E-02  0.1101219E+00
         -2   -1    0    0    0  501 -0.00000000000E+00  0.00000000000E+00  0.40663837390E+03  0.40663837390E+03  0.00000000000E+00 0. -1.
         21   -1    0    0  501  502  0.00000000000E+00 -0.00000000000E+00 -0.12082302119E+04  0.12082302119E+04  0.00000000000E+00 0. -1.
         25    1    1    2    0    0 -0.24637505820E+03 -0.96457684173E+01 -0.11238695830E+04  0.11573683725E+04  0.12500000000E+03 0.  0.
         21    1    1    2  501  501  0.11584577155E+03  0.96069301027E+02  0.83870604399E+02  0.17228996392E+03  0.00000000000E+00 0. -1.
         -2    1    1    2    0  502  0.13052928665E+03 -0.86423532610E+02  0.23840714058E+03  0.28521024936E+03  0.00000000000E+00 0. -1.
<mgrwt>
<rscale>  4 0.27010520E+03</rscale>
<asrwt>0</asrwt>
<pdfrwt beam="1">  1       21 0.18588157E+00 0.27010520E+03</pdfrwt>
<pdfrwt beam="2">  1       -2 0.62559751E-01 0.27010520E+03</pdfrwt>
<totfact> 0.30881373E+01</totfact>
</mgrwt>
</event>
<event>
 5    0  0.2947253E-001  0.2593026E+03  0.7546771E-02  0.1107563E+00
          1   -1    0    0  502    0 -0.00000000000E+00  0.00000000000E+00  0.47380188207E+03  0.47380188207E+03  0.00000000000E+00 0. -1.
         21   -1    0    0  503  502  0.00000000000E+00 -0.00000000000E+00 -0.23069285529E+03  0.23069285529E+03  0.00000000000E+00 0. -1.
         25    1    1    2    0    0  0.22718286598E+03 -0.87220806518E+00 -0.10837444060E+03  0.28103884912E+03  0.12500000000E+03 0.  0.
         21    1    1    2  503  501 -0.20397326922E+03  0.19940737843E+01  0.26799619765E+03  0.33679523875E+03  0.00000000000E+00 0. -1.
          1    1    1    2  501    0 -0.23209596752E+02 -0.11218657191E+01  0.83487269720E+02  0.86660649486E+02  0.00000000000E+00 0. -1.
<mgrwt>
<rscale>  4 0.25930256E+03</rscale>
<asrwt>0</asrwt>
<pdfrwt beam="1">  1       21 0.35491208E-01 0.25930256E+03</pdfrwt>
<pdfrwt beam="2">  1        1 0.72892597E-01 0.25930256E+03</pdfrwt>
<totfact> 0.40166178E+03</totfact>
</mgrwt>
</event>
<event>
 5    0  0.2947253E-001  0.2383132E+03  0.7546771E-02  0.1120922E+00
         21   -1    0    0  503  502  0.00000000000E+00  0.00000000000E+00  0.16494658620E+03  0.16494658620E+03  0.00000000000E+00 0.  1.
          2   -1    0    0  502    0 -0.00000000000E+00 -0.00000000000E+00 -0.38951989508E+03  0.38951989508E+03  0.00000000000E+00 0.  1.
         25    1    1    2    0    0  0.17335495166E+03  0.10543353968E+03  0.13786103197E+02  0.23871159837E+03  0.12500000000E+03 0.  0.
         21    1    1    2  503  501 -0.34313903219E+02 -0.32941507981E+01 -0.43283675690E+02  0.55333280807E+02  0.00000000000E+00 0.  1.
          2    1    1    2  501    0 -0.13904104844E+03 -0.10213938888E+03 -0.19507573639E+03  0.26042160210E+03  0.00000000000E+00 0.  1.
<mgrwt>
<rscale>  4 0.23831318E+03</rscale>
<asrwt>0</asrwt>
<pdfrwt beam="1">  1       21 0.25376398E-01 0.23831318E+03</pdfrwt>
<pdfrwt beam="2">  1        2 0.59926138E-01 0.23831318E+03</pdfrwt>
<totfact> 0.14958370E+04</totfact>
</mgrwt>
</event>
<event>
 5    0  0.2947253E-001  0.2092558E+03  0.7546771E-02  0.1142157E+00
          1   -1    0    0  502    0 -0.00000000000E+00  0.00000000000E+00  0.15901852672E+04  0.15901852672E+04  0.00000000000E+00 0.  1.
         21   -1    0    0  503  502  0.00000000000E+00 -0.00000000000E+00 -0.51393345953E+02  0.51393345953E+02  0.00000000000E+00 0.  1.
         25    1    1    2    0    0  0.20905955955E+03 -0.13466144074E+03  0.61799447182E+03  0.67777708006E+03  0.12500000000E+03 0.  0.
         21    1    1    2  503  501 -0.11883563583E+03  0.35575359485E+02  0.64917218824E+03  0.66091757771E+03  0.00000000000E+00 0.  1.
          1    1    1    2  501    0 -0.90223923719E+02  0.99086081250E+02  0.27162526117E+03  0.30288395536E+03  0.00000000000E+00 0.  1.
<mgrwt>
<rscale>  4 0.20925578E+03</rscale>
<asrwt>0</asrwt>
<pdfrwt beam="1">  1       21 0.79066698E-02 0.20925578E+03</pdfrwt>
<pdfrwt beam="2">  1        1 0.24464385E+00 0.20925578E+03</pdfrwt>
<totfact> 0.86397235E+03</totfact>
</mgrwt>
</event>
<event>
 5    0  0.2947253E-001  0.2647341E+03  0.7546771E-02  0.1104332E+00
         21   -1    0    0  503  502  0.00000000000E+00  0.00000000000E+00  0.29817507068E+03  0.29817507068E+03  0.00000000000E+00 0.  1.
          1   -1    0    0  502    0 -0.00000000000E+00 -0.00000000000E+00 -0.45973418105E+03  0.45973418105E+03  0.00000000000E+00 0.  1.
         25    1    1    2    0    0 -0.15867010753E+03  0.19932226667E+03  0.16260695097E+03  0.32706511511E+03  0.12500000000E+03 0.  0.
         21    1    1    2  503  501  0.55008392084E+02 -0.84092916399E+02 -0.42000337163E+02  0.10891083559E+03  0.00000000000E+00 0.  1.
          1    1    1    2  501    0  0.10366171545E+03 -0.11522935027E+03 -0.28216572418E+03  0.32193330104E+03  0.00000000000E+00 0.  1.
<mgrwt>
<rscale>  4 0.26473414E+03</rscale>
<asrwt>0</asrwt>
<pdfrwt beam="1">  1       21 0.45873088E-01 0.26473414E+03</pdfrwt>
<pdfrwt beam="2">  1        1 0.70728335E-01 0.26473414E+03</pdfrwt>
<totfact> 0.24734582E+03</totfact>
</mgrwt>
</event>
<event>
 5    0  0.2947253E-001  0.4199647E+03  0.7546771E-02  0.1037078E+00
         21   -1    0    0  503  502  0.00000000000E+00  0.00000000000E+00  0.34246566433E+03  0.34246566433E+03  0.00000000000E+00 0. -1.
          1   -1    0    0  502    0 -0.00000000000E+00 -0.00000000000E+00 -0.65588929198E+03  0.65588929198E+03  0.00000000000E+00 0.  1.
         25    1    1    2    0    0 -0.36504774349E+03 -0.16828107106E+03  0.67969172435E+02  0.42640729626E+03  0.12500000000E+03 0.  0.
         21    1    1    2  503  501  0.10603926037E+02 -0.18647747007E+02 -0.46703039649E+01  0.21954349340E+02  0.00000000000E+00 0. -1.
          1    1    1    2  501    0  0.35444381745E+03  0.18692881807E+03 -0.37672249612E+03  0.54999331072E+03  0.00000000000E+00 0.  1.
<mgrwt>
<rscale>  4 0.41996469E+03</rscale>
<asrwt>0</asrwt>
<pdfrwt beam="1">  1       21 0.52687025E-01 0.41996469E+03</pdfrwt>
<pdfrwt beam="2">  1        1 0.10090604E+00 0.41996469E+03</pdfrwt>
<totfact> 0.10863093E+03</totfact>
</mgrwt>
</event>
<event>
 5    0  0.2947253E-001  0.3611775E+03  0.7546771E-02  0.1058119E+00
          2   -1    0    0  502    0 -0.00000000000E+00  0.00000000000E+00  0.20351012858E+04  0.20351012858E+04  0.00000000000E+00 0. -1.
         21   -1    0    0  503  502  0.00000000000E+00 -0.00000000000E+00 -0.57277987397E+03  0.57277987397E+03  0.00000000000E+00 0. -1.
         25    1    1    2    0    0  0.15113211053E+03  0.30328739271E+03 -0.49927940330E+03  0.61622161596E+03  0.12500000000E+03 0.  0.
         21    1    1    2  503  501 -0.20144077191E+02 -0.79887760714E+01  0.12274501517E+03  0.12464326350E+03  0.00000000000E+00 0. -1.
          2    1    1    2  501    0 -0.13098803334E+03 -0.29529861664E+03  0.18388558000E+04  0.18670162803E+04  0.00000000000E+00 0. -1.
<mgrwt>
<rscale>  4 0.36117746E+03</rscale>
<asrwt>0</asrwt>
<pdfrwt beam="1">  1       21 0.88119982E-01 0.36117746E+03</pdfrwt>
<pdfrwt beam="2">  1        2 0.31309250E+00 0.36117746E+03</pdfrwt>
<totfact> 0.90141286E+01</totfact>
</mgrwt>
</event>
<event>
 5    0  0.2947253E-001  0.2536498E+03  0.7546771E-02  0.1111020E+00
         21   -1    0    0  501  502  0.00000000000E+00  0.00000000000E+00  0.12268461383E+04  0.12268461383E+04  0.00000000000E+00 0.  1.
         -4   -1    0    0    0  501 -0.00000000000E+00 -0.00000000000E+00 -0.99385675775E+02  0.99385675775E+02  0.00000000000E+00 0.  1.
         25    1    1    2    0    0 -0.22317187539E+03  0.51952091091E+02  0.10146669305E+04  0.10477016205E+04  0.12500000000E+03 0.  0.
         21    1    1    2  501  501  0.51798466533E+02  0.19166549088E+02  0.68095174286E+02  0.87677765141E+02  0.00000000000E+00 0.  1.
         -4    1    1    2    0  502  0.17137340886E+03 -0.71118640179E+02  0.44698357696E+02  0.19085242840E+03  0.00000000000E+00 0.  1.
<mgrwt>
<rscale>  4 0.25364978E+03</rscale>
<asrwt>0</asrwt>
<pdfrwt beam="1">  1       21 0.18874555E+00 0.25364978E+03</pdfrwt>
<pdfrwt beam="2">  1       -4 0.15290105E-01 0.25364978E+03</pdfrwt>
<totfact> 0.23894753E+02</totfact>
</mgrwt>
</event>
<event>
 5    0  0.2947253E-001  0.1908060E+03  0.7546771E-02  0.1157736E+00
          1   -1    0    0  502    0 -0.00000000000E+00  0.00000000000E+00  0.63094222381E+03  0.63094222381E+03  0.00000000000E+00 0. -1.
         21   -1    0    0  503  502  0.00000000000E+00 -0.00000000000E+00 -0.11207126193E+03  0.11207126193E+03  0.00000000000E+00 0.  1.
         25    1    1    2    0    0 -0.85365881901E+02 -0.19069280017E+03  0.98579043241E+02  0.26266690997E+03  0.12500000000E+03 0.  0.
         21    1    1    2  503  501  0.35233591696E+02  0.65799405966E+02  0.60079751162E+02  0.95815156989E+02  0.00000000000E+00 0.  1.
          1    1    1    2  501    0  0.50132290205E+02  0.12489339420E+03  0.36021216748E+03  0.38453141879E+03  0.00000000000E+00 0. -1.
<mgrwt>
<rscale>  4 0.19080598E+03</rscale>
<asrwt>0</asrwt>
<pdfrwt beam="1">  1       21 0.17241733E-01 0.19080598E+03</pdfrwt>
<pdfrwt beam="2">  1        1 0.97068032E-01 0.19080598E+03</pdfrwt>
<totfact> 0.11069844E+04</totfact>
</mgrwt>
</event>
<event>
 5    0  0.2947253E-001  0.2471319E+03  0.7546771E-02  0.1115131E+00
         21   -1    0    0  503  502  0.00000000000E+00  0.00000000000E+00  0.14794936067E+03  0.14794936067E+03  0.00000000000E+00 0. -1.
          2   -1    0    0  502    0 -0.00000000000E+00 -0.00000000000E+00 -0.63057575416E+03  0.63057575416E+03  0.00000000000E+00 0. -1.
         25    1    1    2    0    0  0.21012056812E+03  0.36034939705E+02 -0.69512831654E+00  0.24713286554E+03  0.12500000000E+03 0.  0.
         21    1    1    2  503  501 -0.94725889899E+02 -0.17833434781E+01 -0.14134136101E+03  0.17015744140E+03  0.00000000000E+00 0. -1.
          2    1    1    2  501    0 -0.11539467822E+03 -0.34251596227E+02 -0.34058990417E+03  0.36123480788E+03  0.00000000000E+00 0. -1.
<mgrwt>
<rscale>  4 0.24713189E+03</rscale>
<asrwt>0</asrwt>
<pdfrwt beam="1">  1       21 0.22761440E-01 0.24713189E+03</pdfrwt>
<pdfrwt beam="2">  1        2 0.97011653E-01 0.24713189E+03</pdfrwt>
<totfact> 0.10698627E+04</totfact>
</mgrwt>
</event>
<event>
 5    0  0.2947253E-001  0.3479415E+03  0.7546771E-02  0.1063463E+00
         -3   -1    0    0    0  501 -0.00000000000E+00  0.00000000000E+00  0.11075025199E+04  0.11075025199E+04  0.00000000000E+00 0. -1.
         21   -1    0    0  501  502  0.00000000000E+00 -0.00000000000E+00 -0.15877650322E+03  0.15877650322E+03  0.00000000000E+00 0. -1.
         25    1    1    2    0    0  0.72216185912E+02 -0.32026738346E+03  0.15273071892E+03  0.38306402457E+03  0.12500000000E+03 0.  0.
         21    1    1    2  501  501  0.42286006116E+02  0.16767003884E+02  0.40033644231E+02  0.60596463617E+02  0.00000000000E+00 0.  1.
         -3    1    1    2    0  502 -0.11450219203E+03  0.30350037958E+03  0.75596165350E+03  0.82261853489E+03  0.00000000000E+00 0. -1.
<mgrwt>
<rscale>  4 0.34794155E+03</rscale>
<asrwt>0</asrwt>
<pdfrwt beam="1">  1       21 0.24427155E-01 0.34794155E+03</pdfrwt>
<pdfrwt beam="2">  1       -3 0.17038500E+00 0.34794155E+03</pdfrwt>
<totfact> 0.18663719E+02</totfact>
</mgrwt>
</event>
<event>
 5    0  0.2947253E-001  0.2488522E+03  0.7546771E-02  0.1114032E+00
         21   -1    0    0  503  502  0.00000000000E+00  0.00000000000E+00  0.42883732476E+03  0.42883732476E+03  0.00000000000E+00 0.  1.
          3   -1    0    0  502    0 -0.00000000000E+00 -0.00000000000E+00 -0.82179338105E+03  0.82179338105E+03  0.00000000000E+00 0.  1.
         25    1    1    2    0    0  0.13164245015E+03 -0.17790716352E+03  0.36277010352E+03  0.44295354330E+03  0.12500000000E+03 0.  0.
         21    1    1    2  503  501 -0.94742574827E+02  0.56967222811E+02 -0.13639647599E+03  0.17557169083E+03  0.00000000000E+00 0.  1.
          3    1    1    2  501    0 -0.36899875322E+02  0.12093994070E+03 -0.61932968382E+03  0.63210547167E+03  0.00000000000E+00 0.  1.
<mgrwt>
<rscale>  4 0.24885225E+03</rscale>
<asrwt>0</asrwt>
<pdfrwt beam="1">  1       21 0.65974974E-01 0.24885225E+03</pdfrwt>
<pdfrwt beam="2">  1        3 0.12642975E+00 0.24885225E+03</pdfrwt>
<totfact> 0.53370913E+01</totfact>
</mgrwt>
</event>
<event>
 5    0  0.2947253E-001  0.2979249E+03  0.7546771E-02  0.1086283E+00
         21   -1    0    0  501  502  0.00000000000E+00  0.00000000000E+00  0.12950789234E+03  0.12950789234E+03  0.00000000000E+00 0.  1.
         -2   -1    0    0    0  501 -0.00000000000E+00 -0.00000000000E+00 -0.74216537822E+03  0.74216537822E+03  0.00000000000E+00 0.  1.
         25    1    1    2    0    0 -0.28218580509E+03 -0.61476329670E+01 -0.26820020448E+03  0.40892905457E+03  0.12500000000E+03 0.  0.
         21    1    1    2  501  501  0.19608848990E+02  0.26735611285E+02 -0.56969546595E+01  0.33641568957E+02  0.00000000000E+00 0.  1.
         -2    1    1    2    0  502  0.26257695610E+03 -0.20587978318E+02 -0.33876032674E+03  0.42910264704E+03  0.00000000000E+00 0.  1.
<mgrwt>
<rscale>  4 0.29792491E+03</rscale>
<asrwt>0</asrwt>
<pdfrwt beam="1">  1       21 0.19924291E-01 0.29792491E+03</pdfrwt>
<pdfrwt beam="2">  1       -2 0.11417929E+00 0.29792491E+03</pdfrwt>
<totfact> 0.11689978E+03</totfact>
</mgrwt>
</event>
<event>
 5    0  0.2947253E-001  0.2753955E+03  0.7546771E-02  0.1098231E+00
         21   -1    0    0  503  502  0.00000000000E+00  0.00000000000E+00  0.15692064697E+03  0.15692064697E+03  0.00000000000E+00 0. -1.
          1   -1    0    0  502    0 -0.00000000000E+00 -0.00000000000E+00 -0.58132412099E+03  0.58132412099E+03  0.00000000000E+00 0.  1.
         25    1    1    2    0    0  0.25752243869E+02  0.24403786449E+03 -0.38024609726E+02  0.27800814433E+03  0.12500000000E+03 0.  0.
         21    1    1    2  503  501 -0.19891304182E+02 -0.30418577026E+02 -0.57870756796E+02  0.68337239500E+02  0.00000000000E+00 0.  1.
          1    1    1    2  501    0 -0.58609396877E+01 -0.21361928747E+03 -0.32850810749E+03  0.39189938413E+03  0.00000000000E+00 0.  1.
<mgrwt>
<rscale>  4 0.27539546E+03</rscale>
<asrwt>0</asrwt>
<pdfrwt beam="1">  1       21 0.24141638E-01 0.27539546E+03</pdfrwt>
<pdfrwt beam="2">  1        1 0.89434480E-01 0.27539546E+03</pdfrwt>
<totfact> 0.64592710E+03</totfact>
</mgrwt>
</event>
<event>
 5    0  0.2947253E-001  0.3035247E+03  0.7546771E-02  0.1083492E+00
         21   -1    0    0  503  502  0.00000000000E+00  0.00000000000E+00  0.18861007181E+03  0.18861007181E+03  0.00000000000E+00 0.  1.
          2   -1    0    0  502    0 -0.00000000000E+00 -0.00000000000E+00 -0.46523310475E+03  0.46523310475E+03  0.00000000000E+00 0.  1.
         25    1    1    2    0    0  0.24098150284E+03 -0.13575780154E+03 -0.97237885666E+02  0.31872005239E+03  0.12500000000E+03 0.  0.
         21    1    1    2  503  501 -0.25807215543E+02  0.38787979613E+02 -0.36910643404E+02  0.59438332186E+02  0.00000000000E+00 0.  1.
          2    1    1    2  501    0 -0.21517428729E+03  0.96969821932E+02 -0.14247450387E+03  0.27568479198E+03  0.00000000000E+00 0.  1.
<mgrwt>
<rscale>  4 0.30352474E+03</rscale>
<asrwt>0</asrwt>
<pdfrwt beam="1">  1       21 0.29016935E-01 0.30352474E+03</pdfrwt>
<pdfrwt beam="2">  1        2 0.71574323E-01 0.30352474E+03</pdfrwt>
<totfact> 0.93780853E+03</totfact>
</mgrwt>
</event>
<event>
 5    0  0.2947253E-001  0.3054654E+03  0.7546771E-02  0.1082540E+00
         21   -1    0    0  503  502  0.00000000000E+00  0.00000000000E+00  0.16067787021E+03  0.16067787021E+03  0.00000000000E+00 0. -1.
          2   -1    0    0  502    0 -0.00000000000E+00 -0.00000000000E+00 -0.56432994936E+03  0.56432994936E+03  0.00000000000E+00 0. -1.
         25    1    1    2    0    0  0.42565481739E+02  0.27544920106E+03 -0.26847866308E+03  0.40668154019E+03  0.12500000000E+03 0.  0.
         21    1    1    2  503  501  0.78185756017E+01 -0.81717569331E+02 -0.69775282893E+02  0.10773802191E+03  0.00000000000E+00 0. -1.
          2    1    1    2  501    0 -0.50384057341E+02 -0.19373163173E+03 -0.65398133169E+02  0.21058825748E+03  0.00000000000E+00 0. -1.
<mgrwt>
<rscale>  4 0.30546535E+03</rscale>
<asrwt>0</asrwt>
<pdfrwt beam="1">  1       21 0.24719672E-01 0.30546535E+03</pdfrwt>
<pdfrwt beam="2">  1        2 0.86819994E-01 0.30546535E+03</pdfrwt>
<totfact> 0.10282927E+04</totfact>
</mgrwt>
</event>
<event>
 5    0  0.2947253E-001  0.4286358E+03  0.7546771E-02  0.1034292E+00
          2   -1    0    0  502    0 -0.00000000000E+00  0.00000000000E+00  0.11053523682E+04  0.11053523682E+04  0.00000000000E+00 0. -1.
         21   -1    0    0  503  502  0.00000000000E+00 -0.00000000000E+00 -0.31640385746E+03  0.31640385746E+03  0.00000000000E+00 0. -1.
         25    1    1    2    0    0  0.42444591545E+03  0.25525487117E+02 -0.67755144674E+02  0.44835437464E+03  0.12500000000E+03 0.  0.
         21    1    1    2  503  501 -0.78070604188E+02 -0.48948464953E+02  0.77670159765E+02  0.12051400407E+03  0.00000000000E+00 0. -1.
          2    1    1    2  501    0 -0.34637531126E+03  0.23422977837E+02  0.77903349564E+03  0.85288784694E+03  0.00000000000E+00 0. -1.
<mgrwt>
<rscale>  4 0.42863578E+03</rscale>
<asrwt>0</asrwt>
<pdfrwt beam="1">  1       21 0.48677517E-01 0.42863578E+03</pdfrwt>
<pdfrwt beam="2">  1        2 0.17005421E+00 0.42863578E+03</pdfrwt>
<totfact> 0.10619229E+03</totfact>
</mgrwt>
</event>
<event>
 5    0  0.2947253E-001  0.2650416E+03  0.7546771E-02  0.1104151E+00
         21   -1    0    0  503  502  0.00000000000E+00  0.00000000000E+00  0.25285561640E+03  0.25285561640E+03  0.00000000000E+00 0. -1.
          2   -1    0    0  502    0 -0.00000000000E+00 -0.00000000000E+00 -0.27447580472E+03  0.27447580472E+03  0.00000000000E+00 0. -1.
         25    1    1    2    0    0 -0.19907133444E+03 -0.12244444009E+03 -0.86391137635E+02  0.27876596952E+03  0.12500000000E+03 0.  0.
         21    1    1    2  503  501  0.16787998483E+02  0.20116001019E+02  0.24110577560E+02  0.35606324443E+02  0.00000000000E+00 0.  1.
          2    1    1    2  501    0  0.18228333595E+03  0.10232843907E+03  0.40660371759E+02  0.21295912716E+03  0.00000000000E+00 0. -1.
<mgrwt>
<rscale>  4 0.26504158E+03</rscale>
<asrwt>0</asrwt>
<pdfrwt beam="1">  1       21 0.38900864E-01 0.26504158E+03</pdfrwt>
<pdfrwt beam="2">  1        2 0.42227047E-01 0.26504158E+03</pdfrwt>
<totfact> 0.93640803E+03</totfact>
</mgrwt>
</event>
<event>
 5    0  0.2947253E-001  0.2686238E+03  0.7546771E-02  0.1102070E+00
         21   -1    0    0  503  502  0.00000000000E+00  0.00000000000E+00  0.52574416731E+02  0.52574416731E+02  0.00000000000E+00 0.  1.
          2   -1    0    0  502    0 -0.00000000000E+00 -0.00000000000E+00 -0.12594588300E+04  0.12594588300E+04  0.00000000000E+00 0.  1.
         25    1    1    2    0    0  0.19844585353E+03 -0.13096947292E+03 -0.53396009554E+03  0.59772246340E+03  0.12500000000E+03 0.  0.
         21    1    1    2  503  501 -0.20372608025E+02  0.51733851364E+01 -0.46516247109E+02  0.51044767769E+02  0.00000000000E+00 0.  1.
          2    1    1    2  501    0 -0.17807324551E+03  0.12579608778E+03 -0.62640807063E+03  0.66326601558E+03  0.00000000000E+00 0.  1.
<mgrwt>
<rscale>  4 0.26862383E+03</rscale>
<asrwt>0</asrwt>
<pdfrwt beam="1">  1       21 0.80883717E-02 0.26862383E+03</pdfrwt>
<pdfrwt beam="2">  1        2 0.19376290E+00 0.26862383E+03</pdfrwt>
<totfact> 0.27431417E+04</totfact>
</mgrwt>
</event>
<event>
 5    0  0.2947253E-001  0.2648740E+03  0.7546771E-02  0.1104250E+00
         21   -1    0    0  503  502  0.00000000000E+00  0.00000000000E+00  0.15503618957E+03  0.15503618957E+03  0.00000000000E+00 0. -1.
          1   -1    0    0  502    0 -0.00000000000E+00 -0.00000000000E+00 -0.49400980098E+03  0.49400980098E+03  0.00000000000E+00 0. -1.
         25    1    1    2    0    0 -0.18428007147E+03  0.17154958325E+03 -0.20803793660E+03  0.34970442851E+03  0.12500000000E+03 0.  0.
         21    1    1    2  503  501  0.29283215716E+02 -0.17553653184E+02  0.14265369637E+02  0.37001867976E+02  0.00000000000E+00 0.  1.
          1    1    1    2  501    0  0.15499685576E+03 -0.15399593007E+03 -0.14520104445E+03  0.26233969406E+03  0.00000000000E+00 0. -1.
<mgrwt>
<rscale>  4 0.26487395E+03</rscale>
<asrwt>0</asrwt>
<pdfrwt beam="1">  1       21 0.23851721E-01 0.26487395E+03</pdfrwt>
<pdfrwt beam="2">  1        1 0.76001509E-01 0.26487395E+03</pdfrwt>
<totfact> 0.82607298E+03</totfact>
</mgrwt>
</event>
<event>
 5    0  0.2947253E-001  0.2646419E+03  0.7546771E-02  0.1104386E+00
         21   -1    0    0  503  502  0.00000000000E+00  0.00000000000E+00  0.19927506419E+03  0.19927506419E+03  0.00000000000E+00 0. -1.
          2   -1    0    0  502    0 -0.00000000000E+00 -0.00000000000E+00 -0.12562104951E+04  0.12562104951E+04  0.00000000000E+00 0. -1.
         25    1    1    2    0    0  0.23336679648E+03  0.38381042517E+02  0.89102971863E+02  0.28195302041E+03  0.12500000000E+03 0.  0.
         21    1    1    2  503  501 -0.39174276843E+02 -0.49999703257E+01 -0.77536570188E+02  0.87014615933E+02  0.00000000000E+00 0.  1.
          2    1    1    2  501    0 -0.19419251964E+03 -0.33381072191E+02 -0.10685018326E+04  0.10865179230E+04  0.00000000000E+00 0. -1.
<mgrwt>
<rscale>  4 0.26464193E+03</rscale>
<asrwt>0</asrwt>
<pdfrwt beam="1">  1       21 0.30657701E-01 0.26464193E+03</pdfrwt>
<pdfrwt beam="2">  1        2 0.19326316E+00 0.26464193E+03</pdfrwt>
<totfact> 0.23491317E+03</totfact>
</mgrwt>
</event>
<event>
 5    0  0.2947253E-001  0.2785020E+03  0.7546771E-02  0.1096510E+00
          2   -1    0    0  502    0 -0.00000000000E+00  0.00000000000E+00  0.17265097333E+04  0.17265097333E+04  0.00000000000E+00 0. -1.
         21   -1    0    0  503  502  0.00000000000E+00 -0.00000000000E+00 -0.66713940632E+02  0.66713940632E+02  0.00000000000E+00 0.  1.
         25    1    1    2    0    0 -0.89031950339E+02 -0.23240416489E+03  0.29720008669E+03  0.40729752708E+03  0.12500000000E+03 0.  0.
         21    1    1    2  503  501  0.18950342164E+01  0.49132491088E+02  0.32132727927E+03  0.32506739799E+03  0.00000000000E+00 0.  1.
          2    1    1    2  501    0  0.87136916123E+02  0.18327167380E+03  0.10412684267E+04  0.10608587489E+04  0.00000000000E+00 0. -1.
<mgrwt>
<rscale>  4 0.27850204E+03</rscale>
<asrwt>0</asrwt>
<pdfrwt beam="1">  1       21 0.10263684E-01 0.27850204E+03</pdfrwt>
<pdfrwt beam="2">  1        2 0.26561685E+00 0.27850204E+03</pdfrwt>
<totfact> 0.10053260E+04</totfact>
</mgrwt>
</event>
<event>
 5    0  0.2947253E-001  0.2370635E+03  0.7546771E-02  0.1121765E+00
         21   -1    0    0  503  502  0.00000000000E+00  0.00000000000E+00  0.20414560627E+03  0.20414560627E+03  0.00000000000E+00 0. -1.
          2   -1    0    0  502    0 -0.00000000000E+00 -0.00000000000E+00 -0.36640542210E+03  0.36640542210E+03  0.00000000000E+00 0.  1.
         25    1    1    2    0    0  0.19616008360E+03  0.74888164001E+02  0.55171597626E+02  0.25051131849E+03  0.12500000000E+03 0.  0.
         21    1    1    2  503  501 -0.15419762379E+02 -0.43469316968E+02 -0.19235996346E+02  0.49973734550E+02  0.00000000000E+00 0.  1.
          2    1    1    2  501    0 -0.18074032122E+03 -0.31418847033E+02 -0.19819541711E+03  0.27006597533E+03  0.00000000000E+00 0.  1.
<mgrwt>
<rscale>  4 0.23706350E+03</rscale>
<asrwt>0</asrwt>
<pdfrwt beam="1">  1       21 0.31407016E-01 0.23706350E+03</pdfrwt>
<pdfrwt beam="2">  1        2 0.56370065E-01 0.23706350E+03</pdfrwt>
<totfact> 0.10560649E+04</totfact>
</mgrwt>
</event>
<event>
 5    0  0.2947253E-001  0.2838790E+03  0.7546771E-02  0.1093589E+00
          2   -1    0    0  502    0 -0.00000000000E+00  0.00000000000E+00  0.11839507046E+04  0.11839507046E+04  0.00000000000E+00 0.  1.
         21   -1    0    0  503  502  0.00000000000E+00 -0.00000000000E+00 -0.15030810413E+03  0.15030810413E+03  0.00000000000E+00 0. -1.
         25    1    1    2    0    0  0.25099387451E+03 -0.56493081972E+02  0.32501337386E+02  0.28787276753E+03  0.12500000000E+03 0.  0.
         21    1    1    2  503  501 -0.26865988710E+02 -0.42484847671E+02  0.92319358893E+02  0.10511711401E+03  0.00000000000E+00 0.  1.
          2    1    1    2  501    0 -0.22412788580E+03  0.98977929643E+02  0.90882190416E+03  0.94126892715E+03  0.00000000000E+00 0.  1.
<mgrwt>
<rscale>  4 0.28387904E+03</rscale>
<asrwt>0</asrwt>
<pdfrwt beam="1">  1       21 0.23124324E-01 0.28387904E+03</pdfrwt>
<pdfrwt beam="2">  1        2 0.18214626E+00 0.28387904E+03</pdfrwt>
<totfact> 0.44307279E+03</totfact>
</mgrwt>
</event>
<event>
 5    0  0.2947253E-001  0.2848632E+03  0.7546771E-02  0.1093062E+00
         21   -1    0    0  503  502  0.00000000000E+00  0.00000000000E+00  0.21841546525E+03  0.21841546525E+03  0.00000000000E+00 0. -1.
          2   -1    0    0  502    0 -0.00000000000E+00 -0.00000000000E+00 -0.97901852016E+03  0.97901852016E+03  0.00000000000E+00 0. -1.
         25    1    1    2    0    0 -0.81700140465E+02  0.24258432733E+03  0.93920200659E+02  0.29994678346E+03  0.12500000000E+03 0.  0.
         21    1    1    2  503  501  0.58453718086E+02 -0.19589398828E+03 -0.51686460961E+03  0.55582399775E+03  0.00000000000E+00 0. -1.
          2    1    1    2  501    0  0.23246422380E+02 -0.46690339046E+02 -0.33765864596E+03  0.34166320420E+03  0.00000000000E+00 0. -1.
<mgrwt>
<rscale>  4 0.28486325E+03</rscale>
<asrwt>0</asrwt>
<pdfrwt beam="1">  1       21 0.33602378E-01 0.28486325E+03</pdfrwt>
<pdfrwt beam="2">  1        2 0.15061824E+00 0.28486325E+03</pdfrwt>
<totfact> 0.28301658E+03</totfact>
</mgrwt>
</event>
<event>
 5    0  0.2947253E-001  0.3338951E+03  0.7546771E-02  0.1069426E+00
          2   -1    0    0  502    0 -0.00000000000E+00  0.00000000000E+00  0.10049838132E+04  0.10049838132E+04  0.00000000000E+00 0.  1.
         21   -1    0    0  503  502  0.00000000000E+00 -0.00000000000E+00 -0.79706000607E+03  0.79706000607E+03  0.00000000000E+00 0. -1.
         25    1    1    2    0    0 -0.19918134834E+03 -0.24192199229E+03 -0.71709593527E+03  0.79249671309E+03  0.12500000000E+03 0.  0.
         21    1    1    2  503  501  0.11043812966E+03  0.23190303402E+02  0.97869340148E+02  0.14937462434E+03  0.00000000000E+00 0.  1.
          2    1    1    2  501    0  0.88743218680E+02  0.21873168888E+03  0.82715040228E+03  0.86017248188E+03  0.00000000000E+00 0.  1.
<mgrwt>
<rscale>  4 0.33389509E+03</rscale>
<asrwt>0</asrwt>
<pdfrwt beam="1">  1       21 0.12262462E+00 0.33389509E+03</pdfrwt>
<pdfrwt beam="2">  1        2 0.15461289E+00 0.33389509E+03</pdfrwt>
<totfact> 0.15130135E+02</totfact>
</mgrwt>
</event>
<event>
 5    0  0.2947253E-001  0.2958199E+03  0.7546771E-02  0.1087349E+00
         -3   -1    0    0    0  501 -0.00000000000E+00  0.00000000000E+00  0.75348834712E+03  0.75348834712E+03  0.00000000000E+00 0.  1.
         21   -1    0    0  501  502  0.00000000000E+00 -0.00000000000E+00 -0.24541420197E+03  0.24541420197E+03  0.00000000000E+00 0.  1.
         25    1    1    2    0    0  0.17582699557E+03  0.20240863196E+03 -0.11547653651E+03  0.31755978515E+03  0.12500000000E+03 0.  0.
         21    1    1    2  501  501 -0.38577477790E+02 -0.38560407128E+02  0.75943620488E+02  0.93501659254E+02  0.00000000000E+00 0.  1.
         -3    1    1    2    0  502 -0.13724951778E+03 -0.16384822483E+03  0.54760706117E+03  0.58784110468E+03  0.00000000000E+00 0.  1.
<mgrwt>
<rscale>  4 0.29581986E+03</rscale>
<asrwt>0</asrwt>
<pdfrwt beam="1">  1       21 0.37756031E-01 0.29581986E+03</pdfrwt>
<pdfrwt beam="2">  1       -3 0.11592128E+00 0.29581986E+03</pdfrwt>
<totfact> 0.20958864E+02</totfact>
</mgrwt>
</event>
<event>
 5    0  0.2947253E-001  0.2667928E+03  0.7546771E-02  0.1103129E+00
         21   -1    0    0  503  502  0.00000000000E+00  0.00000000000E+00  0.96053387185E+02  0.96053387185E+02  0.00000000000E+00 0.  1.
          2   -1    0    0  502    0 -0.00000000000E+00 -0.00000000000E+00 -0.12212116102E+04  0.12212116102E+04  0.00000000000E+00 0.  1.
         25    1    1    2    0    0  0.23567937400E+03  0.29350607715E+01 -0.13588924197E+03  0.29940652630E+03  0.12500000000E+03 0.  0.
         21    1    1    2  503  501 -0.31713249103E+02  0.14009444610E+02 -0.15886749567E+03  0.16260650629E+03  0.00000000000E+00 0.  1.
          2    1    1    2  501    0 -0.20396612490E+03 -0.16944505382E+02 -0.83040148542E+03  0.85525196483E+03  0.00000000000E+00 0.  1.
<mgrwt>
<rscale>  4 0.26679277E+03</rscale>
<asrwt>0</asrwt>
<pdfrwt beam="1">  1       21 0.14777443E-01 0.26679277E+03</pdfrwt>
<pdfrwt beam="2">  1        2 0.18787872E+00 0.26679277E+03</pdfrwt>
<totfact> 0.97953278E+03</totfact>
</mgrwt>
</event>
<event>
 5    0  0.2947253E-001  0.2783043E+03  0.7546771E-02  0.1096619E+00
         21   -1    0    0  503  502  0.00000000000E+00  0.00000000000E+00  0.90482400214E+02  0.90482400214E+02  0.00000000000E+00 0. -1.
          2   -1    0    0  502    0 -0.00000000000E+00 -0.00000000000E+00 -0.89525710901E+03  0.89525710901E+03  0.00000000000E+00 0.  1.
         25    1    1    2    0    0  0.24061708139E+03  0.62703268694E+02 -0.25328959977E+03  0.37630958148E+03  0.12500000000E+03 0.  0.
         21    1    1    2  503  501 -0.41337516837E+02  0.38510871684E+01 -0.45693338562E+02  0.61737365991E+02  0.00000000000E+00 0.  1.
          2    1    1    2  501    0 -0.19927956455E+03 -0.66554355862E+02 -0.50579177046E+03  0.54769256176E+03  0.00000000000E+00 0.  1.
<mgrwt>
<rscale>  4 0.27830429E+03</rscale>
<asrwt>0</asrwt>
<pdfrwt beam="1">  1       21 0.13920369E-01 0.27830429E+03</pdfrwt>
<pdfrwt beam="2">  1        2 0.13773187E+00 0.27830429E+03</pdfrwt>
<totfact> 0.17129995E+04</totfact>
</mgrwt>
</event>
<event>
 5    0  0.2947253E-001  0.2363127E+03  0.7546771E-02  0.1122274E+00
         21   -1    0    0  501  502  0.00000000000E+00  0.00000000000E+00  0.11593081163E+03  0.11593081163E+03  0.00000000000E+00 0.  1.
         -1   -1    0    0    0  501 -0.00000000000E+00 -0.00000000000E+00 -0.63831906727E+03  0.63831906727E+03  0.00000000000E+00 0. -1.
         25    1    1    2    0    0  0.13879567148E+02  0.20006511043E+03 -0.52738564571E+02  0.24212609729E+03  0.12500000000E+03 0.  0.
         21    1    1    2  501  501 -0.17261323709E+02 -0.16966100819E+03 -0.36107811934E+03  0.39932470404E+03  0.00000000000E+00 0. -1.
         -1    1    1    2    0  502  0.33817565610E+01 -0.30404102237E+02 -0.10857157174E+03  0.11279907757E+03  0.00000000000E+00 0. -1.
<mgrwt>
<rscale>  4 0.23631270E+03</rscale>
<asrwt>0</asrwt>
<pdfrwt beam="1">  1       21 0.17835510E-01 0.23631270E+03</pdfrwt>
<pdfrwt beam="2">  1       -1 0.98202933E-01 0.23631270E+03</pdfrwt>
<totfact> 0.27799219E+03</totfact>
</mgrwt>
</event>
<event>
 5    0  0.2947253E-001  0.3055003E+03  0.7546771E-02  0.1082523E+00
         21   -1    0    0  501  502  0.00000000000E+00  0.00000000000E+00  0.20507208599E+03  0.20507208599E+03  0.00000000000E+00 0.  1.
         -2   -1    0    0    0  501 -0.00000000000E+00 -0.00000000000E+00 -0.46386214227E+03  0.46386214227E+03  0.00000000000E+00 0.  1.
         25    1    1    2    0    0  0.27692621486E+03 -0.31895652614E+02 -0.21653311896E+03  0.37445567527E+03  0.12500000000E+03 0.  0.
         21    1    1    2  501  501 -0.52973228355E+02  0.10702246848E+02  0.25197863385E+02  0.59629131547E+02  0.00000000000E+00 0. -1.
         -2    1    1    2    0  502 -0.22395298651E+03  0.21193405766E+02 -0.67454800702E+02  0.23484942144E+03  0.00000000000E+00 0.  1.
<mgrwt>
<rscale>  4 0.30550035E+03</rscale>
<asrwt>0</asrwt>
<pdfrwt beam="1">  1       21 0.31549552E-01 0.30550035E+03</pdfrwt>
<pdfrwt beam="2">  1       -2 0.71363406E-01 0.30550035E+03</pdfrwt>
<totfact> 0.14034245E+03</totfact>
</mgrwt>
</event>
<event>
 5    0  0.2947253E-001  0.2622545E+03  0.7546771E-02  0.1105796E+00
         21   -1    0    0  503  502  0.00000000000E+00  0.00000000000E+00  0.91820583501E+03  0.91820583501E+03  0.00000000000E+00 0.  1.
          2   -1    0    0  502    0 -0.00000000000E+00 -0.00000000000E+00 -0.11015871313E+04  0.11015871313E+04  0.00000000000E+00 0.  1.
         25    1    1    2    0    0  0.53639472296E+00  0.23054744959E+03  0.88613523090E+03  0.92412827122E+03  0.12500000000E+03 0.  0.
         21    1    1    2  503  501  0.28464229177E+02 -0.88634843261E+02 -0.41659688065E+03  0.42687153659E+03  0.00000000000E+00 0.  1.
          2    1    1    2  501    0 -0.29000623900E+02 -0.14191260633E+03 -0.65291964653E+03  0.66879315849E+03  0.00000000000E+00 0.  1.
<mgrwt>
<rscale>  4 0.26225448E+03</rscale>
<asrwt>0</asrwt>
<pdfrwt beam="1">  1       21 0.14126244E+00 0.26225448E+03</pdfrwt>
<pdfrwt beam="2">  1        2 0.16947494E+00 0.26225448E+03</pdfrwt>
<totfact> 0.95921147E+01</totfact>
</mgrwt>
</event>
<event>
 5    0  0.2947253E-001  0.2881562E+03  0.7546771E-02  0.1091316E+00
          2   -1    0    0  502    0 -0.00000000000E+00  0.00000000000E+00  0.13742606100E+04  0.13742606100E+04  0.00000000000E+00 0. -1.
         21   -1    0    0  503  502  0.00000000000E+00 -0.00000000000E+00 -0.12072175223E+03  0.12072175223E+03  0.00000000000E+00 0. -1.
         25    1    1    2    0    0  0.15742295384E+03  0.20523227981E+03  0.97714616820E+02  0.30343932081E+03  0.12500000000E+03 0.  0.
         21    1    1    2  503  501 -0.14186129344E+02  0.18639054787E+02  0.78489903843E+02  0.81910473289E+02  0.00000000000E+00 0.  1.
          2    1    1    2  501    0 -0.14323682450E+03 -0.22387133460E+03  0.10773343371E+04  0.11096325682E+04  0.00000000000E+00 0. -1.
<mgrwt>
<rscale>  4 0.28815622E+03</rscale>
<asrwt>0</asrwt>
<pdfrwt beam="1">  1       21 0.18572578E-01 0.28815622E+03</pdfrwt>
<pdfrwt beam="2">  1        2 0.21142470E+00 0.28815622E+03</pdfrwt>
<totfact> 0.52413666E+03</totfact>
</mgrwt>
</event>
<event>
 5    0  0.2947253E-001  0.4069839E+03  0.7546771E-02  0.1041388E+00
         21   -1    0    0  501  502  0.00000000000E+00  0.00000000000E+00  0.15640007509E+03  0.15640007509E+03  0.00000000000E+00 0.  1.
         -4   -1    0    0    0  501 -0.00000000000E+00 -0.00000000000E+00 -0.10606418737E+04  0.10606418737E+04  0.00000000000E+00 0. -1.
         25    1    1    2    0    0 -0.32553177954E+03 -0.20985705914E+03 -0.37600956921E+03  0.55409306158E+03  0.12500000000E+03 0.  0.
         21    1    1    2  501  501  0.22269093313E+02  0.36620524085E+02 -0.22687954162E+02  0.48494520982E+02  0.00000000000E+00 0. -1.
         -4    1    1    2    0  502  0.30326268622E+03  0.17323653505E+03 -0.50554427520E+03  0.61445436618E+03  0.00000000000E+00 0. -1.
<mgrwt>
<rscale>  4 0.40698394E+03</rscale>
<asrwt>0</asrwt>
<pdfrwt beam="1">  1       21 0.24061549E-01 0.40698394E+03</pdfrwt>
<pdfrwt beam="2">  1       -4 0.16317568E+00 0.40698394E+03</pdfrwt>
<totfact> 0.16895973E+02</totfact>
</mgrwt>
</event>
<event>
 5    0  0.2947253E-001  0.2455464E+03  0.7546771E-02  0.1116152E+00
          2   -1    0    0  502    0 -0.00000000000E+00  0.00000000000E+00  0.18534560059E+04  0.18534560059E+04  0.00000000000E+00 0.  1.
         21   -1    0    0  503  502  0.00000000000E+00 -0.00000000000E+00 -0.91707990244E+02  0.91707990244E+02  0.00000000000E+00 0. -1.
         25    1    1    2    0    0 -0.63160910953E+01 -0.21125373669E+03  0.93239611533E+02  0.26265311617E+03  0.12500000000E+03 0.  0.
         21    1    1    2  503  501  0.16416902242E+02  0.64464271141E+02  0.39942874720E+03  0.40493021747E+03  0.00000000000E+00 0.  1.
          2    1    1    2  501    0 -0.10100811147E+02  0.14678946555E+03  0.12690796569E+04  0.12775806625E+04  0.00000000000E+00 0.  1.
<mgrwt>
<rscale>  4 0.24554640E+03</rscale>
<asrwt>0</asrwt>
<pdfrwt beam="1">  1       21 0.14108923E-01 0.24554640E+03</pdfrwt>
<pdfrwt beam="2">  1        2 0.28514705E+00 0.24554640E+03</pdfrwt>
<totfact> 0.49140538E+03</totfact>
</mgrwt>
</event>
<event>
 5    0  0.2947253E-001  0.2507966E+03  0.7546771E-02  0.1112802E+00
         21   -1    0    0  503  502  0.00000000000E+00  0.00000000000E+00  0.26624628382E+03  0.26624628382E+03  0.00000000000E+00 0.  1.
          1   -1    0    0  502    0 -0.00000000000E+00 -0.00000000000E+00 -0.79300494172E+03  0.79300494172E+03  0.00000000000E+00 0.  1.
         25    1    1    2    0    0 -0.18639349480E+01  0.22329658308E+03  0.17879195325E+03  0.31218007755E+03  0.12500000000E+03 0.  0.
         21    1    1    2  503  501 -0.17917291462E+02 -0.61249421319E+02 -0.90590564787E+02  0.11081142258E+03  0.00000000000E+00 0. -1.
          1    1    1    2  501    0  0.19781226410E+02 -0.16204716177E+03 -0.61496004636E+03  0.63625972541E+03  0.00000000000E+00 0.  1.
<mgrwt>
<rscale>  4 0.25079658E+03</rscale>
<asrwt>0</asrwt>
<pdfrwt beam="1">  1       21 0.40960967E-01 0.25079658E+03</pdfrwt>
<pdfrwt beam="2">  1        1 0.12200076E+00 0.25079658E+03</pdfrwt>
<totfact> 0.14590837E+03</totfact>
</mgrwt>
</event>
<event>
 5    0  0.2947253E-001  0.2697993E+03  0.7546771E-02  0.1101395E+00
         -1   -1    0    0    0  501 -0.00000000000E+00  0.00000000000E+00  0.28844454273E+03  0.28844454273E+03  0.00000000000E+00 0.  1.
         21   -1    0    0  501  502  0.00000000000E+00 -0.00000000000E+00 -0.74805189255E+03  0.74805189255E+03  0.00000000000E+00 0. -1.
         25    1    1    2    0    0 -0.18585240052E+03 -0.14632351647E+03 -0.63446625000E+03  0.68856670602E+03  0.12500000000E+03 0.  0.
         21    1    1    2  501  501 -0.19440101282E+02 -0.17853414163E+02 -0.81579942710E+01  0.27626342603E+02  0.00000000000E+00 0. -1.
         -1    1    1    2    0  502  0.20529250181E+03  0.16417693063E+03  0.18301689446E+03  0.32030338666E+03  0.00000000000E+00 0.  1.
<mgrwt>
<rscale>  4 0.26979928E+03</rscale>
<asrwt>0</asrwt>
<pdfrwt beam="1">  1       21 0.11508491E+00 0.26979928E+03</pdfrwt>
<pdfrwt beam="2">  1       -1 0.44376084E-01 0.26979928E+03</pdfrwt>
<totfact> 0.26526138E+02</totfact>
</mgrwt>
</event>
<event>
 5    0  0.2947253E-001  0.3509277E+03  0.7546771E-02  0.1062235E+00
          2   -1    0    0  502    0 -0.00000000000E+00  0.00000000000E+00  0.16310451782E+04  0.16310451782E+04  0.00000000000E+00 0. -1.
         21   -1    0    0  503  502  0.00000000000E+00 -0.00000000000E+00 -0.23936370991E+03  0.23936370991E+03  0.00000000000E+00 0. -1.
         25    1    1    2    0    0 -0.39066611597E+03  0.77265232319E+02  0.35702170667E+02  0.41891475897E+03  0.12500000000E+03 0.  0.
         21    1    1    2  503  501  0.22652096381E+03  0.47092296730E+02  0.31786286583E+03  0.39314912302E+03  0.00000000000E+00 0. -1.
          2    1    1    2  501    0  0.16414515217E+03 -0.12435752905E+03  0.10381164318E+04  0.10583450062E+04  0.00000000000E+00 0. -1.
<mgrwt>
<rscale>  4 0.35092769E+03</rscale>
<asrwt>0</asrwt>
<pdfrwt beam="1">  1       21 0.36825187E-01 0.35092769E+03</pdfrwt>
<pdfrwt beam="2">  1        2 0.25093002E+00 0.35092769E+03</pdfrwt>
<totfact> 0.98544586E+02</totfact>
</mgrwt>
</event>
<event>
 5    0  0.2947253E-001  0.2647295E+03  0.7546771E-02  0.1104335E+00
          1   -1    0    0  502    0 -0.00000000000E+00  0.00000000000E+00  0.14887090565E+04  0.14887090565E+04  0.00000000000E+00 0.  1.
         21   -1    0    0  503  502  0.00000000000E+00 -0.00000000000E+00 -0.76227662817E+02  0.76227662817E+02  0.00000000000E+00 0.  1.
         25    1    1    2    0    0  0.66630687407E+01  0.24158776165E+03  0.11886330686E+04  0.12193779622E+04  0.12500000000E+03 0.  0.
         21    1    1    2  503  501  0.13670608169E+02 -0.31232311472E+02 -0.45387758552E+01  0.34393942691E+02  0.00000000000E+00 0.  1.
          1    1    1    2  501    0 -0.20333676910E+02 -0.21035545018E+03  0.22838710100E+03  0.31116481443E+03  0.00000000000E+00 0.  1.
<mgrwt>
<rscale>  4 0.26472945E+03</rscale>
<asrwt>0</asrwt>
<pdfrwt beam="1">  1       21 0.11727334E-01 0.26472945E+03</pdfrwt>
<pdfrwt beam="2">  1        1 0.22903214E+00 0.26472945E+03</pdfrwt>
<totfact> 0.49205048E+03</totfact>
</mgrwt>
</event>
<event>
 5    0  0.2947253E-001  0.2612531E+03  0.7546771E-02  0.1106393E+00
         21   -1    0    0  503  502  0.00000000000E+00  0.00000000000E+00  0.31190012074E+02  0.31190012074E+02  0.00000000000E+00 0.  1.
          2   -1    0    0  502    0 -0.00000000000E+00 -0.00000000000E+00 -0.32103173555E+04  0.32103173555E+04  0.00000000000E+00 0.  1.
         25    1    1    2    0    0 -0.77489470389E+02  0.21592486269E+03 -0.64284741050E+03  0.69390630314E+03  0.12500000000E+03 0.  0.
         21    1    1    2  503  501  0.31859788035E+02 -0.55124247008E+02 -0.42854706997E+03  0.43325087407E+03  0.00000000000E+00 0. -1.
          2    1    1    2  501    0  0.45629682355E+02 -0.16080061568E+03 -0.21077328629E+04  0.21143501903E+04  0.00000000000E+00 0.  1.
<mgrwt>
<rscale>  4 0.26125307E+03</rscale>
<asrwt>0</asrwt>
<pdfrwt beam="1">  1       21 0.47984629E-02 0.26125307E+03</pdfrwt>
<pdfrwt beam="2">  1        2 0.49389503E+00 0.26125307E+03</pdfrwt>
<totfact> 0.57169905E+03</totfact>
</mgrwt>
</event>
<event>
 5    0  0.2947253E-001  0.2747000E+03  0.7546771E-02  0.1098619E+00
         21   -1    0    0  503  502  0.00000000000E+00  0.00000000000E+00  0.12916066814E+04  0.12916066814E+04  0.00000000000E+00 0.  1.
          1   -1    0    0  502    0 -0.00000000000E+00 -0.00000000000E+00 -0.13311508761E+03  0.13311508761E+03  0.00000000000E+00 0.  1.
         25    1    1    2    0    0 -0.65670908802E+01  0.24452394434E+03  0.11388089246E+04  0.11714716611E+04  0.12500000000E+03 0.  0.
         21    1    1    2  503  501 -0.26600936967E+02 -0.14782001281E+03  0.90977236837E+01  0.15046971327E+03  0.00000000000E+00 0.  1.
          1    1    1    2  501    0  0.33168027847E+02 -0.96703931530E+02  0.10584945474E+02  0.10278039461E+03  0.00000000000E+00 0.  1.
<mgrwt>
<rscale>  4 0.27469999E+03</rscale>
<asrwt>0</asrwt>
<pdfrwt beam="1">  1       21 0.19870871E+00 0.27469999E+03</pdfrwt>
<pdfrwt beam="2">  1        1 0.20479245E-01 0.27469999E+03</pdfrwt>
<totfact> 0.34608017E+02</totfact>
</mgrwt>
</event>
<event>
 5    0  0.2947253E-001  0.3152204E+03  0.7546771E-02  0.1077870E+00
         21   -1    0    0  503  502  0.00000000000E+00  0.00000000000E+00  0.44880864801E+03  0.44880864801E+03  0.00000000000E+00 0. -1.
          2   -1    0    0  502    0 -0.00000000000E+00 -0.00000000000E+00 -0.10375521153E+04  0.10375521153E+04  0.00000000000E+00 0.  1.
         25    1    1    2    0    0 -0.28578886853E+03  0.58628780954E+02  0.35315329264E+03  0.47482087089E+03  0.12500000000E+03 0.  0.
         21    1    1    2  503  501  0.50285579546E+02  0.78909658002E+02 -0.19192077807E+03  0.21351571064E+03  0.00000000000E+00 0.  1.
          2    1    1    2  501    0  0.23550328899E+03 -0.13753843896E+03 -0.74997598188E+03  0.79802418178E+03  0.00000000000E+00 0.  1.
<mgrwt>
<rscale>  4 0.31522044E+03</rscale>
<asrwt>0</asrwt>
<pdfrwt beam="1">  1       21 0.69047485E-01 0.31522044E+03</pdfrwt>
<pdfrwt beam="2">  1        2 0.15962340E+00 0.31522044E+03</pdfrwt>
<totfact> 0.56735943E+02</totfact>
</mgrwt>
</event>
<event>
 5    0  0.2947253E-001  0.2971792E+03  0.7546771E-02  0.1086659E+00
         21   -1    0    0  503  502  0.00000000000E+00  0.00000000000E+00  0.34953055714E+03  0.34953055714E+03  0.00000000000E+00 0.  1.
          2   -1    0    0  502    0 -0.00000000000E+00 -0.00000000000E+00 -0.48127404557E+03  0.48127404557E+03  0.00000000000E+00 0.  1.
         25    1    1    2    0    0 -0.63706849541E+02 -0.27578279688E+03 -0.10464324378E+03  0.32663423305E+03  0.12500000000E+03 0.  0.
         21    1    1    2  503  501  0.13734430056E+03  0.11445460130E+02  0.12874580828E+03  0.18859994327E+03  0.00000000000E+00 0.  1.
          2    1    1    2  501    0 -0.73637451016E+02  0.26433733675E+03 -0.15584605292E+03  0.31557042638E+03  0.00000000000E+00 0.  1.
<mgrwt>
<rscale>  4 0.29717922E+03</rscale>
<asrwt>0</asrwt>
<pdfrwt beam="1">  1       21 0.53773932E-01 0.29717922E+03</pdfrwt>
<pdfrwt beam="2">  1        2 0.74042160E-01 0.29717922E+03</pdfrwt>
<totfact> 0.25670106E+03</totfact>
</mgrwt>
</event>
<event>
 5    0  0.2947253E-001  0.4891731E+03  0.7546771E-02  0.1016644E+00
         21   -1    0    0  503  502  0.00000000000E+00  0.00000000000E+00  0.24533231507E+03  0.24533231507E+03  0.00000000000E+00 0. -1.
          2   -1    0    0  502    0 -0.00000000000E+00 -0.00000000000E+00 -0.13916952190E+04  0.13916952190E+04  0.00000000000E+00 0.  1.
         25    1    1    2    0    0  0.42487514816E+03 -0.20062267460E+03 -0.14985430839E+03  0.50877270252E+03  0.12500000000E+03 0.  0.
         21    1    1    2  503  501  0.28722786774E+02  0.34063799176E+02 -0.10841619961E+03  0.11721524318E+03  0.00000000000E+00 0.  1.
          2    1    1    2  501    0 -0.45359793493E+03  0.16655887543E+03 -0.88809239596E+03  0.10110395884E+04  0.00000000000E+00 0.  1.
<mgrwt>
<rscale>  4 0.48917315E+03</rscale>
<asrwt>0</asrwt>
<pdfrwt beam="1">  1       21 0.37743434E-01 0.48917315E+03</pdfrwt>
<pdfrwt beam="2">  1        2 0.21410695E+00 0.48917315E+03</pdfrwt>
<totfact> 0.12154075E+03</totfact>
</mgrwt>
</event>
<event>
 5    0  0.2947253E-001  0.2457580E+03  0.7546771E-02  0.1116015E+00
         21   -1    0    0  501  502  0.00000000000E+00  0.00000000000E+00  0.53491594007E+03  0.53491594007E+03  0.00000000000E+00 0.  1.
         -4   -1    0    0    0  501 -0.00000000000E+00 -0.00000000000E+00 -0.21290517986E+04  0.21290517986E+04  0.00000000000E+00 0. -1.
         25    1    1    2    0    0  0.20248165969E+03  0.61426242457E+02  0.50007458846E+03  0.55719978445E+03  0.12500000000E+03 0.  0.
         21    1    1    2  501  501 -0.55921525485E+02 -0.51272708333E+02 -0.48924156578E+03  0.49508930237E+03  0.00000000000E+00 0. -1.
         -4    1    1    2    0  502 -0.14656013421E+03 -0.10153534124E+02 -0.16049688812E+04  0.16116786519E+04  0.00000000000E+00 0. -1.
<mgrwt>
<rscale>  4 0.24575802E+03</rscale>
<asrwt>0</asrwt>
<pdfrwt beam="1">  1       21 0.82294758E-01 0.24575802E+03</pdfrwt>
<pdfrwt beam="2">  1       -4 0.32754644E+00 0.24575802E+03</pdfrwt>
<totfact> 0.13194257E+00</totfact>
</mgrwt>
</event>
<event>
 5    0  0.2947253E-001  0.3490146E+03  0.7546771E-02  0.1063020E+00
         21   -1    0    0  503  502  0.00000000000E+00  0.00000000000E+00  0.33889946015E+03  0.33889946015E+03  0.00000000000E+00 0.  1.
          2   -1    0    0  502    0 -0.00000000000E+00 -0.00000000000E+00 -0.89639538506E+03  0.89639538506E+03  0.00000000000E+00 0. -1.
         25    1    1    2    0    0 -0.17321285073E+03 -0.27601353146E+03  0.20507786068E+03  0.40480623778E+03  0.12500000000E+03 0.  0.
         21    1    1    2  503  501  0.18984141344E+02  0.12449850029E+02 -0.39198452927E+02  0.45298069498E+02  0.00000000000E+00 0.  1.
          2    1    1    2  501    0  0.15422870938E+03  0.26356368144E+03 -0.72337533265E+03  0.78519053793E+03  0.00000000000E+00 0. -1.
<mgrwt>
<rscale>  4 0.34901456E+03</rscale>
<asrwt>0</asrwt>
<pdfrwt beam="1">  1       21 0.52138378E-01 0.34901456E+03</pdfrwt>
<pdfrwt beam="2">  1        2 0.13790698E+00 0.34901456E+03</pdfrwt>
<totfact> 0.12681352E+03</totfact>
</mgrwt>
</event>
<event>
 5    0  0.2947253E-001  0.3944727E+03  0.7546771E-02  0.1045711E+00
         21   -1    0    0  503  502  0.00000000000E+00  0.00000000000E+00  0.12462841770E+03  0.12462841770E+03  0.00000000000E+00 0.  1.
          2   -1    0    0  502    0 -0.00000000000E+00 -0.00000000000E+00 -0.21180011944E+04  0.21180011944E+04  0.00000000000E+00 0.  1.
         25    1    1    2    0    0  0.18248712782E+03 -0.34909932462E+03 -0.38858431425E+03  0.56726947701E+03  0.12500000000E+03 0.  0.
         21    1    1    2  503  501  0.70363100431E+02  0.12109929810E+03 -0.43037340992E+03  0.45258952470E+03  0.00000000000E+00 0.  1.
          2    1    1    2  501    0 -0.25285022825E+03  0.22800002652E+03 -0.11744150526E+04  0.12227706104E+04  0.00000000000E+00 0.  1.
<mgrwt>
<rscale>  4 0.39447267E+03</rscale>
<asrwt>0</asrwt>
<pdfrwt beam="1">  1       21 0.19173602E-01 0.39447267E+03</pdfrwt>
<pdfrwt beam="2">  1        2 0.32584635E+00 0.39447267E+03</pdfrwt>
<totfact> 0.19119906E+03</totfact>
</mgrwt>
</event>
<event>
 5    0  0.2947253E-001  0.2892815E+03  0.7546771E-02  0.1090725E+00
         21   -1    0    0  503  502  0.00000000000E+00  0.00000000000E+00  0.19039152179E+03  0.19039152179E+03  0.00000000000E+00 0. -1.
          2   -1    0    0  502    0 -0.00000000000E+00 -0.00000000000E+00 -0.65381220054E+03  0.65381220054E+03  0.00000000000E+00 0. -1.
         25    1    1    2    0    0  0.23925815025E+03  0.10399181439E+03  0.19237653043E+02  0.28992041531E+03  0.12500000000E+03 0.  0.
         21    1    1    2  503  501 -0.46593656418E+02  0.32346656915E+00 -0.44643174820E+02  0.64529733511E+02  0.00000000000E+00 0. -1.
          2    1    1    2  501    0 -0.19266449383E+03 -0.10431528096E+03 -0.43801515698E+03  0.48975357351E+03  0.00000000000E+00 0. -1.
<mgrwt>
<rscale>  4 0.28928145E+03</rscale>
<asrwt>0</asrwt>
<pdfrwt beam="1">  1       21 0.29291003E-01 0.28928145E+03</pdfrwt>
<pdfrwt beam="2">  1        2 0.10058649E+00 0.28928145E+03</pdfrwt>
<totfact> 0.62381988E+03</totfact>
</mgrwt>
</event>
<event>
 5    0  0.2947253E-001  0.2798896E+03  0.7546771E-02  0.1095749E+00
         21   -1    0    0  503  502  0.00000000000E+00  0.00000000000E+00  0.13055664418E+03  0.13055664418E+03  0.00000000000E+00 0.  1.
          1   -1    0    0  502    0 -0.00000000000E+00 -0.00000000000E+00 -0.75585375569E+03  0.75585375569E+03  0.00000000000E+00 0.  1.
         25    1    1    2    0    0 -0.81324459803E+02 -0.23685335290E+03 -0.94233300660E+02  0.29532709577E+03  0.12500000000E+03 0.  0.
         21    1    1    2  503  501  0.25990591473E+02  0.13392887553E+02 -0.64375905021E+02  0.70704578560E+02  0.00000000000E+00 0. -1.
          1    1    1    2  501    0  0.55333868330E+02  0.22346046535E+03 -0.46668790583E+03  0.52037872555E+03  0.00000000000E+00 0.  1.
<mgrwt>
<rscale>  4 0.27988958E+03</rscale>
<asrwt>0</asrwt>
<pdfrwt beam="1">  1       21 0.20085638E-01 0.27988958E+03</pdfrwt>
<pdfrwt beam="2">  1        1 0.11628519E+00 0.27988958E+03</pdfrwt>
<totfact> 0.62697981E+03</totfact>
</mgrwt>
</event>
<event>
 5    0  0.2947253E-001  0.2364516E+03  0.7546771E-02  0.1122179E+00
         21   -1    0    0  501  502  0.00000000000E+00  0.00000000000E+00  0.25217080553E+03  0.25217080553E+03  0.00000000000E+00 0. -1.
         -3   -1    0    0    0  501 -0.00000000000E+00 -0.00000000000E+00 -0.26215607693E+03  0.26215607693E+03  0.00000000000E+00 0. -1.
         25    1    1    2    0    0  0.12963301165E+03 -0.15323070568E+03  0.11987179270E+03  0.26510113836E+03  0.12500000000E+03 0.  0.
         21    1    1    2  501  501 -0.70797741651E+01  0.32037093339E+02  0.99419675055E+00  0.32825096786E+02  0.00000000000E+00 0. -1.
         -3    1    1    2    0  502 -0.12255323748E+03  0.12119361234E+03 -0.13085126085E+03  0.21640064731E+03  0.00000000000E+00 0. -1.
<mgrwt>
<rscale>  4 0.23645162E+03</rscale>
<asrwt>0</asrwt>
<pdfrwt beam="1">  1       21 0.38795508E-01 0.23645162E+03</pdfrwt>
<pdfrwt beam="2">  1       -3 0.40331704E-01 0.23645162E+03</pdfrwt>
<totfact> 0.19282767E+03</totfact>
</mgrwt>
</event>
<event>
 5    0  0.2947253E-001  0.3200791E+03  0.7546771E-02  0.1075613E+00
         21   -1    0    0  503  502  0.00000000000E+00  0.00000000000E+00  0.13777597940E+03  0.13777597940E+03  0.00000000000E+00 0.  1.
          1   -1    0    0  502    0 -0.00000000000E+00 -0.00000000000E+00 -0.70185862921E+03  0.70185862921E+03  0.00000000000E+00 0.  1.
         25    1    1    2    0    0 -0.24352685299E+03  0.16589238712E+03 -0.23846463050E+03  0.39914407453E+03  0.12500000000E+03 0.  0.
         21    1    1    2  503  501  0.19473406691E+02 -0.94801200421E+01 -0.12892984687E+02  0.25205461676E+02  0.00000000000E+00 0. -1.
          1    1    1    2  501    0  0.22405344630E+03 -0.15641226708E+03 -0.31272503463E+03  0.41528507242E+03  0.00000000000E+00 0.  1.
<mgrwt>
<rscale>  4 0.32007907E+03</rscale>
<asrwt>0</asrwt>
<pdfrwt beam="1">  1       21 0.21196305E-01 0.32007907E+03</pdfrwt>
<pdfrwt beam="2">  1        1 0.10797825E+00 0.32007907E+03</pdfrwt>
<totfact> 0.62693395E+03</totfact>
</mgrwt>
</event>
<event>
 5    0  0.2947253E-001  0.5428085E+03  0.7546771E-02  0.1003172E+00
         21   -1    0    0  503  502  0.00000000000E+00  0.00000000000E+00  0.41890325024E+03  0.41890325024E+03  0.00000000000E+00 0.  1.
          2   -1    0    0  502    0 -0.00000000000E+00 -0.00000000000E+00 -0.16232001540E+04  0.16232001540E+04  0.00000000000E+00 0. -1.
         25    1    1    2    0    0  0.53266996481E+03 -0.28045895506E+03 -0.10210241035E+00  0.61483292634E+03  0.12500000000E+03 0.  0.
         21    1    1    2  503  501 -0.35989262227E+03 -0.30298541384E+02 -0.85842504532E+03  0.93130782216E+03  0.00000000000E+00 0. -1.
          2    1    1    2  501    0 -0.17277734254E+03  0.31075749644E+03 -0.34576975598E+03  0.49596265569E+03  0.00000000000E+00 0. -1.
<mgrwt>
<rscale>  4 0.54280849E+03</rscale>
<asrwt>0</asrwt>
<pdfrwt beam="1">  1       21 0.64446654E-01 0.54280849E+03</pdfrwt>
<pdfrwt beam="2">  1        2 0.24972310E+00 0.54280849E+03</pdfrwt>
<totfact> 0.28579411E+02</totfact>
</mgrwt>
</event>
<event>
 5    0  0.2947253E-001  0.2715058E+03  0.7546771E-02  0.1100421E+00
         21   -1    0    0  503  502  0.00000000000E+00  0.00000000000E+00  0.66031975127E+02  0.66031975127E+02  0.00000000000E+00 0. -1.
          2   -1    0    0  502    0 -0.00000000000E+00 -0.00000000000E+00 -0.18783576704E+04  0.18783576704E+04  0.00000000000E+00 0.  1.
         25    1    1    2    0    0 -0.25130641400E+03 -0.32733797873E+02 -0.32069847562E+03  0.42743295089E+03  0.12500000000E+03 0.  0.
         21    1    1    2  503  501  0.54908324903E+02  0.21038206859E+02 -0.15232160490E+03  0.16327707007E+03  0.00000000000E+00 0.  1.
          2    1    1    2  501    0  0.19639808910E+03  0.11695591014E+02 -0.13393056148E+04  0.13536796246E+04  0.00000000000E+00 0.  1.
<mgrwt>
<rscale>  4 0.27150582E+03</rscale>
<asrwt>0</asrwt>
<pdfrwt beam="1">  1       21 0.10158767E-01 0.27150582E+03</pdfrwt>
<pdfrwt beam="2">  1        2 0.28897807E+00 0.27150582E+03</pdfrwt>
<totfact> 0.85369907E+03</totfact>
</mgrwt>
</event>
<event>
 5    0  0.2947253E-001  0.3344872E+03  0.7546771E-02  0.1069169E+00
          4   -1    0    0  502    0 -0.00000000000E+00  0.00000000000E+00  0.17630169176E+04  0.17630169176E+04  0.00000000000E+00 0. -1.
         21   -1    0    0  503  502  0.00000000000E+00 -0.00000000000E+00 -0.14036401192E+03  0.14036401192E+03  0.00000000000E+00 0.  1.
         25    1    1    2    0    0 -0.13514896345E+03 -0.27926947710E+03  0.10313722781E+03  0.35002710027E+03  0.12500000000E+03 0.  0.
         21    1    1    2  503  501  0.54908318773E+02  0.66386044167E+02  0.27379140620E+03  0.28702572086E+03  0.00000000000E+00 0.  1.
          4    1    1    2  501    0  0.80240644682E+02  0.21288343293E+03  0.12457242717E+04  0.12663281084E+04  0.00000000000E+00 0. -1.
<mgrwt>
<rscale>  4 0.33448719E+03</rscale>
<asrwt>0</asrwt>
<pdfrwt beam="1">  1       21 0.21594465E-01 0.33448719E+03</pdfrwt>
<pdfrwt beam="2">  1        4 0.27123336E+00 0.33448719E+03</pdfrwt>
<totfact> 0.43608412E+01</totfact>
</mgrwt>
</event>
<event>
 5    0  0.2947253E-001  0.2396204E+03  0.7546771E-02  0.1120046E+00
          4   -1    0    0  502    0 -0.00000000000E+00  0.00000000000E+00  0.11269222692E+03  0.11269222692E+03  0.00000000000E+00 0.  1.
         21   -1    0    0  503  502  0.00000000000E+00 -0.00000000000E+00 -0.49885195490E+03  0.49885195490E+03  0.00000000000E+00 0.  1.
         25    1    1    2    0    0  0.11865246223E+03 -0.16647676948E+03 -0.29195702551E+03  0.37769938617E+03  0.12500000000E+03 0.  0.
         21    1    1    2  503  501 -0.80166815760E+02  0.96325621053E+02 -0.88907753692E+02  0.15365523840E+03  0.00000000000E+00 0.  1.
          4    1    1    2  501    0 -0.38485646468E+02  0.70151148431E+02 -0.52949487817E+01  0.80189557256E+02  0.00000000000E+00 0.  1.
<mgrwt>
<rscale>  4 0.23962037E+03</rscale>
<asrwt>0</asrwt>
<pdfrwt beam="1">  1       21 0.76746455E-01 0.23962037E+03</pdfrwt>
<pdfrwt beam="2">  1        4 0.17337266E-01 0.23962037E+03</pdfrwt>
<totfact> 0.18536903E+03</totfact>
</mgrwt>
</event>
<event>
 5    0  0.2947253E-001  0.3002882E+03  0.7546771E-02  0.1085097E+00
         21   -1    0    0  503  502  0.00000000000E+00  0.00000000000E+00  0.13509261795E+03  0.13509261795E+03  0.00000000000E+00 0.  1.
          2   -1    0    0  502    0 -0.00000000000E+00 -0.00000000000E+00 -0.13644756109E+04  0.13644756109E+04  0.00000000000E+00 0.  1.
         25    1    1    2    0    0  0.24908206257E+03  0.16910103947E+03 -0.13463158548E+03  0.35268640355E+03  0.12500000000E+03 0.  0.
         21    1    1    2  503  501 -0.20273458309E+03 -0.71472589193E+02 -0.53093788279E+03  0.57280422272E+03  0.00000000000E+00 0.  1.
          2    1    1    2  501    0 -0.46347479478E+02 -0.97628450280E+02 -0.56381352472E+03  0.57407760261E+03  0.00000000000E+00 0.  1.
<mgrwt>
<rscale>  4 0.30028821E+03</rscale>
<asrwt>0</asrwt>
<pdfrwt beam="1">  1       21 0.20783479E-01 0.30028821E+03</pdfrwt>
<pdfrwt beam="2">  1        2 0.20991933E+00 0.30028821E+03</pdfrwt>
<totfact> 0.42780880E+03</totfact>
</mgrwt>
</event>
<event>
 5    0  0.2947253E-001  0.2526530E+03  0.7546771E-02  0.1111640E+00
          1   -1    0    0  502    0 -0.00000000000E+00  0.00000000000E+00  0.39541586803E+03  0.39541586803E+03  0.00000000000E+00 0.  1.
         21   -1    0    0  503  502  0.00000000000E+00 -0.00000000000E+00 -0.65369041241E+03  0.65369041241E+03  0.00000000000E+00 0. -1.
         25    1    1    2    0    0 -0.69968404215E+02  0.20811768522E+03 -0.59380761764E+03  0.64532242736E+03  0.12500000000E+03 0.  0.
         21    1    1    2  503  501  0.20870732286E+02 -0.16891962853E+02  0.33212688454E+02  0.42708413100E+02  0.00000000000E+00 0.  1.
          1    1    1    2  501    0  0.49097671929E+02 -0.19122572236E+03  0.30232038481E+03  0.36107543998E+03  0.00000000000E+00 0.  1.
<mgrwt>
<rscale>  4 0.25265302E+03</rscale>
<asrwt>0</asrwt>
<pdfrwt beam="1">  1       21 0.10056775E+00 0.25265302E+03</pdfrwt>
<pdfrwt beam="2">  1        1 0.60833211E-01 0.25265302E+03</pdfrwt>
<totfact> 0.53020626E+02</totfact>
</mgrwt>
</event>
<event>
 5    0  0.2947253E-001  0.2901265E+03  0.7546771E-02  0.1090283E+00
          4   -1    0    0  502    0 -0.00000000000E+00  0.00000000000E+00  0.38034694227E+03  0.38034694227E+03  0.00000000000E+00 0.  1.
         21   -1    0    0  503  502  0.00000000000E+00 -0.00000000000E+00 -0.42306744746E+03  0.42306744746E+03  0.00000000000E+00 0.  1.
         25    1    1    2    0    0  0.54635309672E+02  0.25605340137E+03 -0.31158102116E+03  0.42574181632E+03  0.12500000000E+03 0.  0.
         21    1    1    2  503  501 -0.35920801654E+02 -0.21550796729E+03  0.20392127020E+03  0.29886095830E+03  0.00000000000E+00 0.  1.
          4    1    1    2  501    0 -0.18714508018E+02 -0.40545434080E+02  0.64939245771E+02  0.78811615111E+02  0.00000000000E+00 0.  1.
<mgrwt>
<rscale>  4 0.29012646E+03</rscale>
<asrwt>0</asrwt>
<pdfrwt beam="1">  1       21 0.65087300E-01 0.29012646E+03</pdfrwt>
<pdfrwt beam="2">  1        4 0.58514914E-01 0.29012646E+03</pdfrwt>
<totfact> 0.25203308E+02</totfact>
</mgrwt>
</event>
<event>
 5    0  0.2947253E-001  0.2565591E+03  0.7546771E-02  0.1109228E+00
         -2   -1    0    0    0  501 -0.00000000000E+00  0.00000000000E+00  0.93253699899E+03  0.93253699899E+03  0.00000000000E+00 0.  1.
         21   -1    0    0  501  502  0.00000000000E+00 -0.00000000000E+00 -0.11203318320E+03  0.11203318320E+03  0.00000000000E+00 0. -1.
         25    1    1    2    0    0  0.16068164742E+03  0.15613762541E+03  0.84317820832E+02  0.27005933569E+03  0.12500000000E+03 0.  0.
         21    1    1    2  501  501 -0.12730737592E+03 -0.85895191226E+02  0.37852452699E+03  0.40849231250E+03  0.00000000000E+00 0. -1.
         -2    1    1    2    0  502 -0.33374271501E+02 -0.70242434184E+02  0.35766146797E+03  0.36601853399E+03  0.00000000000E+00 0.  1.
<mgrwt>
<rscale>  4 0.25655906E+03</rscale>
<asrwt>0</asrwt>
<pdfrwt beam="1">  1       21 0.17235875E-01 0.25655906E+03</pdfrwt>
<pdfrwt beam="2">  1       -2 0.14346723E+00 0.25655906E+03</pdfrwt>
<totfact> 0.87839656E+02</totfact>
</mgrwt>
</event>
<event>
 5    0  0.2947253E-001  0.2452728E+03  0.7546771E-02  0.1116329E+00
         21   -1    0    0  503  502  0.00000000000E+00  0.00000000000E+00  0.27229434072E+02  0.27229434072E+02  0.00000000000E+00 0.  1.
          2   -1    0    0  502    0 -0.00000000000E+00 -0.00000000000E+00 -0.19796366368E+04  0.19796366368E+04  0.00000000000E+00 0.  1.
         25    1    1    2    0    0 -0.12783399989E+03 -0.16790533512E+03 -0.10970836681E+04  0.11241669395E+04  0.12500000000E+03 0.  0.
         21    1    1    2  503  501  0.21570894611E+02  0.93620088800E+01 -0.52928826013E+02  0.57917280044E+02  0.00000000000E+00 0.  1.
          2    1    1    2  501    0  0.10626310528E+03  0.15854332624E+03 -0.80239470858E+03  0.82478185128E+03  0.00000000000E+00 0.  1.
<mgrwt>
<rscale>  4 0.24527277E+03</rscale>
<asrwt>0</asrwt>
<pdfrwt beam="1">  1       21 0.41891426E-02 0.24527277E+03</pdfrwt>
<pdfrwt beam="2">  1        2 0.30455956E+00 0.24527277E+03</pdfrwt>
<totfact> 0.35312837E+04</totfact>
</mgrwt>
</event>
<event>
 5    0  0.2947253E-001  0.2457640E+03  0.7546771E-02  0.1116012E+00
         21   -1    0    0  501  502  0.00000000000E+00  0.00000000000E+00  0.13370635968E+03  0.13370635968E+03  0.00000000000E+00 0. -1.
         -3   -1    0    0    0  501 -0.00000000000E+00 -0.00000000000E+00 -0.10181101289E+04  0.10181101289E+04  0.00000000000E+00 0.  1.
         25    1    1    2    0    0 -0.89485196402E+02  0.19174812584E+03 -0.43200154266E+01  0.24580196637E+03  0.12500000000E+03 0.  0.
         21    1    1    2  501  501  0.17416578445E+02 -0.20149442699E+02 -0.71830540690E+02  0.76609162779E+02  0.00000000000E+00 0.  1.
         -3    1    1    2    0  502  0.72068617957E+02 -0.17159868314E+03 -0.80825321312E+03  0.82940535944E+03  0.00000000000E+00 0.  1.
<mgrwt>
<rscale>  4 0.24576400E+03</rscale>
<asrwt>0</asrwt>
<pdfrwt beam="1">  1       21 0.20570210E-01 0.24576400E+03</pdfrwt>
<pdfrwt beam="2">  1       -3 0.15663232E+00 0.24576400E+03</pdfrwt>
<totfact> 0.32903581E+02</totfact>
</mgrwt>
</event>
<event>
 5    0  0.2947253E-001  0.2395767E+03  0.7546771E-02  0.1120075E+00
         21   -1    0    0  503  502  0.00000000000E+00  0.00000000000E+00  0.10559841680E+03  0.10559841680E+03  0.00000000000E+00 0.  1.
          2   -1    0    0  502    0 -0.00000000000E+00 -0.00000000000E+00 -0.94341503453E+03  0.94341503453E+03  0.00000000000E+00 0.  1.
         25    1    1    2    0    0 -0.18170447157E+03  0.93570707764E+02 -0.65615414918E+02  0.24839962764E+03  0.12500000000E+03 0.  0.
         21    1    1    2  503  501  0.11350111297E+02 -0.23556340056E+02 -0.72253499183E+02  0.76839406085E+02  0.00000000000E+00 0.  1.
          2    1    1    2  501    0  0.17035436027E+03 -0.70014367708E+02 -0.69994770363E+03  0.72377441759E+03  0.00000000000E+00 0.  1.
<mgrwt>
<rscale>  4 0.23957669E+03</rscale>
<asrwt>0</asrwt>
<pdfrwt beam="1">  1       21 0.16245909E-01 0.23957669E+03</pdfrwt>
<pdfrwt beam="2">  1        2 0.14514078E+00 0.23957669E+03</pdfrwt>
<totfact> 0.12115780E+04</totfact>
</mgrwt>
</event>
<event>
 5    0  0.2947253E-001  0.5700687E+03  0.7546771E-02  0.9969527E-01
         21   -1    0    0  503  502  0.00000000000E+00  0.00000000000E+00  0.16926987432E+03  0.16926987432E+03  0.00000000000E+00 0.  1.
          2   -1    0    0  502    0 -0.00000000000E+00 -0.00000000000E+00 -0.19482595756E+04  0.19482595756E+04  0.00000000000E+00 0.  1.
         25    1    1    2    0    0 -0.54499200153E+03 -0.11107200264E+03 -0.73788090117E+03  0.93244114872E+03  0.12500000000E+03 0.  0.
         21    1    1    2  503  501  0.25300089018E+02  0.29129509741E+02 -0.51853161481E+02  0.64632601663E+02  0.00000000000E+00 0. -1.
          2    1    1    2  501    0  0.51969191251E+03  0.81942492899E+02 -0.98925563866E+03  0.11204556996E+04  0.00000000000E+00 0.  1.
<mgrwt>
<rscale>  4 0.57006866E+03</rscale>
<asrwt>0</asrwt>
<pdfrwt beam="1">  1       21 0.26041521E-01 0.57006866E+03</pdfrwt>
<pdfrwt beam="2">  1        2 0.29973222E+00 0.57006866E+03</pdfrwt>
<totfact> 0.12501912E+03</totfact>
</mgrwt>
</event>
<event>
 5    0  0.2947253E-001  0.2400544E+03  0.7546771E-02  0.1119757E+00
          1   -1    0    0  502    0 -0.00000000000E+00  0.00000000000E+00  0.13069772514E+04  0.13069772514E+04  0.00000000000E+00 0.  1.
         21   -1    0    0  503  502  0.00000000000E+00 -0.00000000000E+00 -0.41451298596E+02  0.41451298596E+02  0.00000000000E+00 0. -1.
         25    1    1    2    0    0 -0.11586672010E+03 -0.16904443915E+03  0.53158767249E+03  0.58327658343E+03  0.12500000000E+03 0.  0.
         21    1    1    2  503  501  0.78616219520E+02  0.58508164081E+02  0.28828146294E+03  0.30448303255E+03  0.00000000000E+00 0.  1.
          1    1    1    2  501    0  0.37250500576E+02  0.11053627506E+03  0.44565681740E+03  0.46066893405E+03  0.00000000000E+00 0.  1.
<mgrwt>
<rscale>  4 0.24005441E+03</rscale>
<asrwt>0</asrwt>
<pdfrwt beam="1">  1       21 0.63771238E-02 0.24005441E+03</pdfrwt>
<pdfrwt beam="2">  1        1 0.20107339E+00 0.24005441E+03</pdfrwt>
<totfact> 0.19186309E+04</totfact>
</mgrwt>
</event>
<event>
 5    0  0.3179741E-001  0.2861364E+03  0.7546771E-02  0.1092384E+00
          2   -1    0    0  502    0 -0.00000000000E+00  0.00000000000E+00  0.27600868922E+04  0.27600868922E+04  0.00000000000E+00 0. -1.
         21   -1    0    0  503  502  0.00000000000E+00 -0.00000000000E+00 -0.16028053303E+03  0.16028053303E+03  0.00000000000E+00 0.  1.
         25    1    1    2    0    0 -0.84022316586E+02  0.24350953374E+03 -0.15156059931E+02  0.28672521490E+03  0.12500000000E+03 0.  0.
         21    1    1    2  503  501  0.28378384239E+02  0.53278299104E+01  0.67050542761E+02  0.73003381758E+02  0.00000000000E+00 0. -1.
          2    1    1    2  501    0  0.55643932347E+02 -0.24883736365E+03  0.25479118764E+04  0.25606388286E+04  0.00000000000E+00 0. -1.
<mgrwt>
<rscale>  4 0.28613638E+03</rscale>
<asrwt>0</asrwt>
<pdfrwt beam="1">  1       21 0.24658546E-01 0.28613638E+03</pdfrwt>
<pdfrwt beam="2">  1        2 0.42462872E+00 0.28613638E+03</pdfrwt>
<totfact> 0.54926311E+02</totfact>
</mgrwt>
</event>
<event>
 5    0  0.2947253E-001  0.3011861E+03  0.7546771E-02  0.1084649E+00
          2   -1    0    0  502    0 -0.00000000000E+00  0.00000000000E+00  0.11682851964E+03  0.11682851964E+03  0.00000000000E+00 0. -1.
         21   -1    0    0  503  502  0.00000000000E+00 -0.00000000000E+00 -0.21880438827E+04  0.21880438827E+04  0.00000000000E+00 0.  1.
         25    1    1    2    0    0 -0.19129128315E+03 -0.19910004374E+03 -0.18646178789E+04  0.18890892030E+04  0.12500000000E+03 0.  0.
         21    1    1    2  503  501 -0.32965050261E+02  0.41184848350E+02 -0.11515659749E+03  0.12666462892E+03  0.00000000000E+00 0.  1.
          2    1    1    2  501    0  0.22425633341E+03  0.15791519539E+03 -0.91440886603E+02  0.28911857040E+03  0.00000000000E+00 0. -1.
<mgrwt>
<rscale>  4 0.30118606E+03</rscale>
<asrwt>0</asrwt>
<pdfrwt beam="1">  1       21 0.33662212E+00 0.30118606E+03</pdfrwt>
<pdfrwt beam="2">  1        2 0.17973619E-01 0.30118606E+03</pdfrwt>
<totfact> 0.72251750E+01</totfact>
</mgrwt>
</event>
<event>
 5    0  0.2947253E-001  0.3265111E+03  0.7546771E-02  0.1072691E+00
          2   -1    0    0  502    0 -0.00000000000E+00  0.00000000000E+00  0.23291787709E+04  0.23291787709E+04  0.00000000000E+00 0. -1.
         21   -1    0    0  503  502  0.00000000000E+00 -0.00000000000E+00 -0.81391774435E+02  0.81391774435E+02  0.00000000000E+00 0. -1.
         25    1    1    2    0    0  0.90966929519E+02 -0.28759261845E+03  0.31581357014E+03  0.45425511283E+03  0.12500000000E+03 0.  0.
         21    1    1    2  503  501 -0.27407646330E+02  0.47107686334E+02  0.23689036574E+03  0.24307891428E+03  0.00000000000E+00 0.  1.
          2    1    1    2  501    0 -0.63559283189E+02  0.24048493212E+03  0.16950830606E+04  0.17132365183E+04  0.00000000000E+00 0. -1.
<mgrwt>
<rscale>  4 0.32651110E+03</rscale>
<asrwt>0</asrwt>
<pdfrwt beam="1">  1       21 0.12521813E-01 0.32651110E+03</pdfrwt>
<pdfrwt beam="2">  1        2 0.35833515E+00 0.32651110E+03</pdfrwt>
<totfact> 0.33121976E+03</totfact>
</mgrwt>
</event>
<event>
 5    0  0.3623181E-001  0.2953892E+03  0.7546771E-02  0.1087568E+00
          2   -1    0    0  502    0 -0.00000000000E+00  0.00000000000E+00  0.19604342406E+04  0.19604342406E+04  0.00000000000E+00 0.  1.
         21   -1    0    0  503  502  0.00000000000E+00 -0.00000000000E+00 -0.44395072853E+02  0.44395072853E+02  0.00000000000E+00 0.  1.
         25    1    1    2    0    0 -0.10287123432E+03 -0.24707753225E+03  0.12702066484E+04  0.13041011186E+04  0.12500000000E+03 0.  0.
         21    1    1    2  503  501  0.19350300552E+02  0.12923645526E+02  0.56988170225E+02  0.61555716962E+02  0.00000000000E+00 0. -1.
          2    1    1    2  501    0  0.83520933768E+02  0.23415388673E+03  0.58884434909E+03  0.63917247790E+03  0.00000000000E+00 0.  1.
<mgrwt>
<rscale>  4 0.29538923E+03</rscale>
<asrwt>0</asrwt>
<pdfrwt beam="1">  1       21 0.68300127E-02 0.29538923E+03</pdfrwt>
<pdfrwt beam="2">  1        2 0.30160520E+00 0.29538923E+03</pdfrwt>
<totfact> 0.15442004E+04</totfact>
</mgrwt>
</event>
<event>
 5    0  0.2947253E-001  0.3049764E+03  0.7546771E-02  0.1082779E+00
         21   -1    0    0  503  502  0.00000000000E+00  0.00000000000E+00  0.20786971459E+03  0.20786971459E+03  0.00000000000E+00 0. -1.
          2   -1    0    0  502    0 -0.00000000000E+00 -0.00000000000E+00 -0.10761305559E+04  0.10761305559E+04  0.00000000000E+00 0.  1.
         25    1    1    2    0    0 -0.32369860896E+03  0.53245033856E+02 -0.96312208002E+02  0.36402865887E+03  0.12500000000E+03 0.  0.
         21    1    1    2  503  501  0.87687649450E+02 -0.44049690326E+02 -0.64384068416E+03  0.65127592129E+03  0.00000000000E+00 0.  1.
          2    1    1    2  501    0  0.23601095951E+03 -0.91953435300E+01 -0.12810794911E+03  0.26869569028E+03  0.00000000000E+00 0.  1.
<mgrwt>
<rscale>  4 0.30497645E+03</rscale>
<asrwt>0</asrwt>
<pdfrwt beam="1">  1       21 0.31979956E-01 0.30497645E+03</pdfrwt>
<pdfrwt beam="2">  1        2 0.16555855E+00 0.30497645E+03</pdfrwt>
<totfact> 0.27078662E+03</totfact>
</mgrwt>
</event>
<event>
 5    0  0.2947253E-001  0.3696216E+03  0.7546771E-02  0.1054974E+00
          1   -1    0    0  502    0 -0.00000000000E+00  0.00000000000E+00  0.57390231637E+03  0.57390231637E+03  0.00000000000E+00 0. -1.
         21   -1    0    0  503  502  0.00000000000E+00 -0.00000000000E+00 -0.25554769056E+03  0.25554769056E+03  0.00000000000E+00 0. -1.
         25    1    1    2    0    0  0.68620142152E+02  0.33947020245E+03  0.47592734505E+02  0.37126649545E+03  0.12500000000E+03 0.  0.
         21    1    1    2  503  501 -0.48161586381E+02 -0.18282410308E+03  0.67499061102E+02  0.20074938186E+03  0.00000000000E+00 0. -1.
          1    1    1    2  501    0 -0.20458555771E+02 -0.15664609938E+03  0.20326283019E+03  0.25743412962E+03  0.00000000000E+00 0. -1.
<mgrwt>
<rscale>  4 0.36926654E+03</rscale>
<asrwt>0</asrwt>
<pdfrwt beam="1">  1       21 0.39315030E-01 0.36962160E+03</pdfrwt>
<pdfrwt beam="2">  1        1 0.88292664E-01 0.36962160E+03</pdfrwt>
<totfact> 0.24522438E+03</totfact>
</mgrwt>
</event>
<event>
 5    0  0.2947253E-001  0.2493398E+03  0.7546771E-02  0.1113723E+00
         21   -1    0    0  503  502  0.00000000000E+00  0.00000000000E+00  0.13699342270E+03  0.13699342270E+03  0.00000000000E+00 0.  1.
          1   -1    0    0  502    0 -0.00000000000E+00 -0.00000000000E+00 -0.11192239670E+04  0.11192239670E+04  0.00000000000E+00 0.  1.
         25    1    1    2    0    0 -0.44460652287E+02  0.21111273068E+03 -0.87092375917E-01  0.24933981279E+03  0.12500000000E+03 0.  0.
         21    1    1    2  503  501  0.19419291590E+02 -0.17531102872E+02 -0.96909436754E+02  0.10037871979E+03  0.00000000000E+00 0.  1.
          1    1    1    2  501    0  0.25041360697E+02 -0.19358162781E+03 -0.88523401521E+03  0.90649885717E+03  0.00000000000E+00 0.  1.
<mgrwt>
<rscale>  4 0.24933980E+03</rscale>
<asrwt>0</asrwt>
<pdfrwt beam="1">  1       21 0.21075911E-01 0.24933980E+03</pdfrwt>
<pdfrwt beam="2">  1        1 0.17218830E+00 0.24933980E+03</pdfrwt>
<totfact> 0.30119099E+03</totfact>
</mgrwt>
</event>
<event>
 5    0  0.2947253E-001  0.2384086E+03  0.7546771E-02  0.1120858E+00
         21   -1    0    0  503  502  0.00000000000E+00  0.00000000000E+00  0.37936393604E+02  0.37936393604E+02  0.00000000000E+00 0.  1.
          2   -1    0    0  502    0 -0.00000000000E+00 -0.00000000000E+00 -0.26197505788E+04  0.26197505788E+04  0.00000000000E+00 0. -1.
         25    1    1    2    0    0 -0.19164264644E+03  0.77264305134E+02 -0.43815359886E+03  0.50030016287E+03  0.12500000000E+03 0.  0.
         21    1    1    2  503  501  0.30526383505E+01 -0.43740395929E+02 -0.22831704299E+03  0.23248916740E+03  0.00000000000E+00 0.  1.
          2    1    1    2  501    0  0.18859000809E+03 -0.33523909205E+02 -0.19153435433E+04  0.19248976421E+04  0.00000000000E+00 0. -1.
<mgrwt>
<rscale>  4 0.23840862E+03</rscale>
<asrwt>0</asrwt>
<pdfrwt beam="1">  1       21 0.58363680E-02 0.23840862E+03</pdfrwt>
<pdfrwt beam="2">  1        2 0.40303857E+00 0.23840862E+03</pdfrwt>
<totfact> 0.91323144E+03</totfact>
</mgrwt>
</event>
<event>
 5    0  0.2947253E-001  0.3031156E+03  0.7546771E-02  0.1083693E+00
          1   -1    0    0  502    0 -0.00000000000E+00  0.00000000000E+00  0.66480781732E+03  0.66480781732E+03  0.00000000000E+00 0. -1.
         21   -1    0    0  503  502  0.00000000000E+00 -0.00000000000E+00 -0.51223152791E+03  0.51223152791E+03  0.00000000000E+00 0.  1.
         25    1    1    2    0    0  0.21184817778E+03 -0.17712826029E+03 -0.42946268333E+03  0.52565888882E+03  0.12500000000E+03 0.  0.
         21    1    1    2  503  501 -0.28077339122E+02  0.53845419353E+02  0.64883423015E+02  0.88868018655E+02  0.00000000000E+00 0. -1.
          1    1    1    2  501    0 -0.18377083866E+03  0.12328284094E+03  0.51715554973E+03  0.56251243775E+03  0.00000000000E+00 0. -1.
<mgrwt>
<rscale>  4 0.30311561E+03</rscale>
<asrwt>0</asrwt>
<pdfrwt beam="1">  1       21 0.78804850E-01 0.30311561E+03</pdfrwt>
<pdfrwt beam="2">  1        1 0.10227813E+00 0.30311561E+03</pdfrwt>
<totfact> 0.45433529E+02</totfact>
</mgrwt>
</event>
<event>
 5    0  0.2947253E-001  0.2489447E+03  0.7546771E-02  0.1113974E+00
          2   -1    0    0  502    0 -0.00000000000E+00  0.00000000000E+00  0.58722951391E+03  0.58722951391E+03  0.00000000000E+00 0. -1.
         21   -1    0    0  503  502  0.00000000000E+00 -0.00000000000E+00 -0.45173676126E+03  0.45173676126E+03  0.00000000000E+00 0. -1.
         25    1    1    2    0    0  0.20088392341E+03  0.77421558221E+02 -0.39214575984E+03  0.46449084525E+03  0.12500000000E+03 0.  0.
         21    1    1    2  503  501 -0.29936791109E+02 -0.57956781510E+01  0.27365285777E+02  0.40971456074E+02  0.00000000000E+00 0.  1.
          2    1    1    2  501    0 -0.17094713230E+03 -0.71625880070E+02  0.50027322671E+03  0.53350397384E+03  0.00000000000E+00 0. -1.
<mgrwt>
<rscale>  4 0.24894467E+03</rscale>
<asrwt>0</asrwt>
<pdfrwt beam="1">  1       21 0.69497963E-01 0.24894467E+03</pdfrwt>
<pdfrwt beam="2">  1        2 0.90343003E-01 0.24894467E+03</pdfrwt>
<totfact> 0.11915873E+03</totfact>
</mgrwt>
</event>
<event>
 5    0  0.2947253E-001  0.3139575E+03  0.7546771E-02  0.1078464E+00
          2   -1    0    0  502    0 -0.00000000000E+00  0.00000000000E+00  0.14947269215E+04  0.14947269215E+04  0.00000000000E+00 0.  1.
         21   -1    0    0  503  502  0.00000000000E+00 -0.00000000000E+00 -0.17493818534E+03  0.17493818534E+03  0.00000000000E+00 0.  1.
         25    1    1    2    0    0  0.28534083808E+03 -0.39050502245E+02 -0.26339309831E+01  0.31396858632E+03  0.12500000000E+03 0.  0.
         21    1    1    2  503  501 -0.23893652096E+02  0.16599598320E+02  0.24766606423E+03  0.24936906915E+03  0.00000000000E+00 0.  1.
          2    1    1    2  501    0 -0.26144718599E+03  0.22450903926E+02  0.10747566029E+04  0.11063274514E+04  0.00000000000E+00 0.  1.
<mgrwt>
<rscale>  4 0.31395754E+03</rscale>
<asrwt>0</asrwt>
<pdfrwt beam="1">  1       21 0.26913568E-01 0.31395754E+03</pdfrwt>
<pdfrwt beam="2">  1        2 0.22995798E+00 0.31395754E+03</pdfrwt>
<totfact> 0.22026212E+03</totfact>
</mgrwt>
</event>
<event>
 5    0  0.2947253E-001  0.2401062E+03  0.7546771E-02  0.1119722E+00
         21   -1    0    0  503  502  0.00000000000E+00  0.00000000000E+00  0.99869896392E+02  0.99869896392E+02  0.00000000000E+00 0.  1.
          2   -1    0    0  502    0 -0.00000000000E+00 -0.00000000000E+00 -0.20917728380E+04  0.20917728380E+04  0.00000000000E+00 0. -1.
         25    1    1    2    0    0 -0.10869209146E+03  0.17381599317E+03 -0.58456176696E+02  0.24711959619E+03  0.12500000000E+03 0.  0.
         21    1    1    2  503  501  0.14784664506E+02 -0.27123041483E+02 -0.20366874104E+03  0.20599806251E+03  0.00000000000E+00 0.  1.
          2    1    1    2  501    0  0.93907426959E+02 -0.14669295168E+03 -0.17297780239E+04  0.17385250757E+04  0.00000000000E+00 0. -1.
<mgrwt>
<rscale>  4 0.24010616E+03</rscale>
<asrwt>0</asrwt>
<pdfrwt beam="1">  1       21 0.15364600E-01 0.24010616E+03</pdfrwt>
<pdfrwt beam="2">  1        2 0.32181119E+00 0.24010616E+03</pdfrwt>
<totfact> 0.31612973E+03</totfact>
</mgrwt>
</event>
<event>
 5    0  0.2947253E-001  0.3077885E+03  0.7546771E-02  0.1081411E+00
          2   -1    0    0  502    0 -0.00000000000E+00  0.00000000000E+00  0.18779788749E+04  0.18779788749E+04  0.00000000000E+00 0.  1.
         21   -1    0    0  503  502  0.00000000000E+00 -0.00000000000E+00 -0.70126920593E+02  0.70126920593E+02  0.00000000000E+00 0. -1.
         25    1    1    2    0    0 -0.13604543377E+03  0.24617153794E+03  0.38112226842E+03  0.48988566995E+03  0.12500000000E+03 0.  0.
         21    1    1    2  503  501  0.14110530047E+03 -0.21681225530E+03  0.13693194928E+04  0.13935401441E+04  0.00000000000E+00 0.  1.
          2    1    1    2  501    0 -0.50598667064E+01 -0.29359282635E+02  0.57410193094E+02  0.64679981439E+02  0.00000000000E+00 0.  1.
<mgrwt>
<rscale>  4 0.30778854E+03</rscale>
<asrwt>0</asrwt>
<pdfrwt beam="1">  1       21 0.10788758E-01 0.30778854E+03</pdfrwt>
<pdfrwt beam="2">  1        2 0.28891979E+00 0.30778854E+03</pdfrwt>
<totfact> 0.75855846E+03</totfact>
</mgrwt>
</event>
<event>
 5    0  0.2947253E-001  0.2505113E+03  0.7546771E-02  0.1112982E+00
         21   -1    0    0  503  502  0.00000000000E+00  0.00000000000E+00  0.37951421418E+03  0.37951421418E+03  0.00000000000E+00 0. -1.
          2   -1    0    0  502    0 -0.00000000000E+00 -0.00000000000E+00 -0.30809403274E+04  0.30809403274E+04  0.00000000000E+00 0. -1.
         25    1    1    2    0    0 -0.58563495368E+02  0.20904836788E+03  0.33375073424E+03  0.41730738756E+03  0.12500000000E+03 0.  0.
         21    1    1    2  503  501  0.24205707784E+02 -0.34156023274E+02 -0.56847474215E+03  0.57001410744E+03  0.00000000000E+00 0.  1.
          2    1    1    2  501    0  0.34357787584E+02 -0.17489234460E+03 -0.24667021053E+04  0.24731330466E+04  0.00000000000E+00 0. -1.
<mgrwt>
<rscale>  4 0.25051128E+03</rscale>
<asrwt>0</asrwt>
<pdfrwt beam="1">  1       21 0.58386805E-01 0.25051128E+03</pdfrwt>
<pdfrwt beam="2">  1        2 0.47399080E+00 0.25051128E+03</pdfrwt>
<totfact> 0.63758454E+01</totfact>
</mgrwt>
</event>
<event>
 5    0  0.2947253E-001  0.2934364E+03  0.7546771E-02  0.1088569E+00
          2   -1    0    0  502    0 -0.00000000000E+00  0.00000000000E+00  0.20362194440E+04  0.20362194440E+04  0.00000000000E+00 0. -1.
         21   -1    0    0  503  502  0.00000000000E+00 -0.00000000000E+00 -0.22335486004E+03  0.22335486004E+03  0.00000000000E+00 0. -1.
         25    1    1    2    0    0 -0.16994794626E+03 -0.19966654879E+03 -0.47101155557E+02  0.29426612785E+03  0.12500000000E+03 0.  0.
         21    1    1    2  503  501  0.15380904749E+03 -0.17468139568E+03  0.45286842254E+03  0.50917641463E+03  0.00000000000E+00 0. -1.
          2    1    1    2  501    0  0.16138898772E+02  0.37434794447E+03  0.14070973170E+04  0.14561317615E+04  0.00000000000E+00 0. -1.
<mgrwt>
<rscale>  4 0.29343636E+03</rscale>
<asrwt>0</asrwt>
<pdfrwt beam="1">  1       21 0.34362287E-01 0.29343636E+03</pdfrwt>
<pdfrwt beam="2">  1        2 0.31326452E+00 0.29343636E+03</pdfrwt>
<totfact> 0.70806396E+02</totfact>
</mgrwt>
</event>
<event>
 5    0  0.2947253E-001  0.2530982E+03  0.7546771E-02  0.1111362E+00
         21   -1    0    0  501  502  0.00000000000E+00  0.00000000000E+00  0.33013590452E+03  0.33013590452E+03  0.00000000000E+00 0. -1.
         -1   -1    0    0    0  501 -0.00000000000E+00 -0.00000000000E+00 -0.41723232878E+03  0.41723232878E+03  0.00000000000E+00 0. -1.
         25    1    1    2    0    0 -0.12463935355E+03  0.18138002651E+03  0.24112891071E+03  0.34957378913E+03  0.12500000000E+03 0.  0.
         21    1    1    2  501  501  0.94158192018E+02 -0.10459436155E+03 -0.18492469771E+03  0.23238521772E+03  0.00000000000E+00 0. -1.
         -1    1    1    2    0  502  0.30481161529E+02 -0.76785664965E+02 -0.14330063726E+03  0.16540922644E+03  0.00000000000E+00 0. -1.
<mgrwt>
<rscale>  4 0.25309817E+03</rscale>
<asrwt>0</asrwt>
<pdfrwt beam="1">  1       21 0.50790139E-01 0.25309817E+03</pdfrwt>
<pdfrwt beam="2">  1       -1 0.64189589E-01 0.25309817E+03</pdfrwt>
<totfact> 0.85320591E+02</totfact>
</mgrwt>
</event>
<event>
 5    0  0.2947253E-001  0.2273083E+03  0.7546771E-02  0.1128549E+00
          2   -1    0    0  502    0 -0.00000000000E+00  0.00000000000E+00  0.48412799846E+03  0.48412799846E+03  0.00000000000E+00 0.  1.
         21   -1    0    0  503  502  0.00000000000E+00 -0.00000000000E+00 -0.42353365938E+03  0.42353365938E+03  0.00000000000E+00 0.  1.
         25    1    1    2    0    0 -0.22016052925E+03  0.18759774321E+02 -0.33077452876E+03  0.41696447888E+03  0.12500000000E+03 0.  0.
         21    1    1    2  503  501  0.34058203764E+02  0.90205681654E+01 -0.18431475134E+02  0.39762434147E+02  0.00000000000E+00 0. -1.
          2    1    1    2  501    0  0.18610232549E+03 -0.27780342486E+02  0.40980034297E+03  0.45093474481E+03  0.00000000000E+00 0.  1.
<mgrwt>
<rscale>  4 0.22730830E+03</rscale>
<asrwt>0</asrwt>
<pdfrwt beam="1">  1       21 0.65159024E-01 0.22730830E+03</pdfrwt>
<pdfrwt beam="2">  1        2 0.74481231E-01 0.22730830E+03</pdfrwt>
<totfact> 0.17248264E+03</totfact>
</mgrwt>
</event>
<event>
 5    0  0.2947253E-001  0.2474998E+03  0.7546771E-02  0.1114895E+00
          2   -1    0    0  502    0 -0.00000000000E+00  0.00000000000E+00  0.71517433477E+03  0.71517433477E+03  0.00000000000E+00 0. -1.
         21   -1    0    0  503  502  0.00000000000E+00 -0.00000000000E+00 -0.15034831160E+03  0.15034831160E+03  0.00000000000E+00 0. -1.
         25    1    1    2    0    0 -0.21194690894E+03  0.26639201329E+02 -0.11770683541E+02  0.24777951539E+03  0.12500000000E+03 0.  0.
         21    1    1    2  503  501  0.77173332897E+02 -0.45568638887E+01  0.13566664037E+03  0.15614712815E+03  0.00000000000E+00 0. -1.
          2    1    1    2  501    0  0.13477357604E+03 -0.22082337440E+02  0.44093006634E+03  0.46159600284E+03  0.00000000000E+00 0. -1.
<mgrwt>
<rscale>  4 0.24749978E+03</rscale>
<asrwt>0</asrwt>
<pdfrwt beam="1">  1       21 0.23130510E-01 0.24749978E+03</pdfrwt>
<pdfrwt beam="2">  1        2 0.11002682E+00 0.24749978E+03</pdfrwt>
<totfact> 0.89196047E+03</totfact>
</mgrwt>
</event>
<event>
 5    0  0.2947253E-001  0.3166341E+03  0.7546771E-02  0.1077209E+00
          2   -1    0    0  502    0 -0.00000000000E+00  0.00000000000E+00  0.10760016836E+04  0.10760016836E+04  0.00000000000E+00 0. -1.
         21   -1    0    0  503  502  0.00000000000E+00 -0.00000000000E+00 -0.17805180493E+03  0.17805180493E+03  0.00000000000E+00 0.  1.
         25    1    1    2    0    0  0.23819424709E+03 -0.17032499494E+03  0.14085703149E+02  0.31870128692E+03  0.12500000000E+03 0.  0.
         21    1    1    2  503  501  0.25824017500E+01  0.23389444534E+02  0.82733607790E+02  0.86015026434E+02  0.00000000000E+00 0. -1.
          2    1    1    2  501    0 -0.24077664884E+03  0.14693555041E+03  0.80113056776E+03  0.84933717522E+03  0.00000000000E+00 0. -1.
<mgrwt>
<rscale>  4 0.31663413E+03</rscale>
<asrwt>0</asrwt>
<pdfrwt beam="1">  1       21 0.27392586E-01 0.31663413E+03</pdfrwt>
<pdfrwt beam="2">  1        2 0.16553872E+00 0.31663413E+03</pdfrwt>
<totfact> 0.36606886E+03</totfact>
</mgrwt>
</event>
<event>
 5    0  0.2947253E-001  0.2412443E+03  0.7546771E-02  0.1118967E+00
         -2   -1    0    0    0  501 -0.00000000000E+00  0.00000000000E+00  0.79970310056E+03  0.79970310056E+03  0.00000000000E+00 0. -1.
         21   -1    0    0  501  502  0.00000000000E+00 -0.00000000000E+00 -0.10589909553E+03  0.10589909553E+03  0.00000000000E+00 0.  1.
         25    1    1    2    0    0 -0.13942976858E+03  0.15209593268E+03  0.76578497909E+02  0.25310689332E+03  0.12500000000E+03 0.  0.
         21    1    1    2  501  501  0.33098571220E+02 -0.22870952707E+02  0.76052970268E+02  0.86038655156E+02  0.00000000000E+00 0.  1.
         -2    1    1    2    0  502  0.10633119736E+03 -0.12922497998E+03  0.54117253685E+03  0.56645664761E+03  0.00000000000E+00 0. -1.
<mgrwt>
<rscale>  4 0.24124434E+03</rscale>
<asrwt>0</asrwt>
<pdfrwt beam="1">  1       21 0.16292169E-01 0.24124434E+03</pdfrwt>
<pdfrwt beam="2">  1       -2 0.12303124E+00 0.24124434E+03</pdfrwt>
<totfact> 0.14358907E+03</totfact>
</mgrwt>
</event>
<event>
 5    0  0.2947253E-001  0.2435018E+03  0.7546771E-02  0.1117482E+00
          2   -1    0    0  502    0 -0.00000000000E+00  0.00000000000E+00  0.24254887496E+03  0.24254887496E+03  0.00000000000E+00 0. -1.
         21   -1    0    0  503  502  0.00000000000E+00 -0.00000000000E+00 -0.64237503083E+03  0.64237503083E+03  0.00000000000E+00 0. -1.
         25    1    1    2    0    0 -0.16470757235E+03 -0.13238746164E+03 -0.55414892631E+03  0.60610317350E+03  0.12500000000E+03 0.  0.
         21    1    1    2  503  501  0.28339986676E+02 -0.17522300438E+01 -0.62507577897E+01  0.29073994013E+02  0.00000000000E+00 0. -1.
          2    1    1    2  501    0  0.13636758568E+03  0.13413969169E+03  0.16057352823E+03  0.24974673828E+03  0.00000000000E+00 0. -1.
<mgrwt>
<rscale>  4 0.24350182E+03</rscale>
<asrwt>0</asrwt>
<pdfrwt beam="1">  1       21 0.98826927E-01 0.24350182E+03</pdfrwt>
<pdfrwt beam="2">  1        2 0.37315212E-01 0.24350182E+03</pdfrwt>
<totfact> 0.14065896E+03</totfact>
</mgrwt>
</event>
<event>
 5    0  0.2947253E-001  0.2711327E+03  0.7546771E-02  0.1100633E+00
          2   -1    0    0  502    0 -0.00000000000E+00  0.00000000000E+00  0.40539876790E+03  0.40539876790E+03  0.00000000000E+00 0.  1.
         21   -1    0    0  503  502  0.00000000000E+00 -0.00000000000E+00 -0.26257469473E+03  0.26257469473E+03  0.00000000000E+00 0.  1.
         25    1    1    2    0    0  0.23744190421E+03 -0.38849795075E+02 -0.12455976381E+03  0.29837576847E+03  0.12500000000E+03 0.  0.
         21    1    1    2  503  501 -0.24181523771E+02 -0.22727254501E+02  0.33959188691E+02  0.47481582593E+02  0.00000000000E+00 0.  1.
          2    1    1    2  501    0 -0.21326038044E+03  0.61577049576E+02  0.23342464829E+03  0.32211611156E+03  0.00000000000E+00 0.  1.
<mgrwt>
<rscale>  4 0.27113274E+03</rscale>
<asrwt>0</asrwt>
<pdfrwt beam="1">  1       21 0.40396107E-01 0.27113274E+03</pdfrwt>
<pdfrwt beam="2">  1        2 0.62369041E-01 0.27113274E+03</pdfrwt>
<totfact> 0.56721545E+03</totfact>
</mgrwt>
</event>
<event>
 5    0  0.2947253E-001  0.5300852E+03  0.7546771E-02  0.1006211E+00
          4   -1    0    0  502    0 -0.00000000000E+00  0.00000000000E+00  0.17695804783E+04  0.17695804783E+04  0.00000000000E+00 0.  1.
         21   -1    0    0  503  502  0.00000000000E+00 -0.00000000000E+00 -0.16150964572E+03  0.16150964572E+03  0.00000000000E+00 0. -1.
         25    1    1    2    0    0  0.37974642460E+03  0.34807759242E+03  0.65463269816E+03  0.84233860581E+03  0.12500000000E+03 0.  0.
         21    1    1    2  503  501 -0.72959708783E+01 -0.41601124201E+02  0.59151827745E+02  0.72683034137E+02  0.00000000000E+00 0.  1.
          4    1    1    2  501    0 -0.37245045372E+03 -0.30647646822E+03  0.89428630671E+03  0.10160684841E+04  0.00000000000E+00 0.  1.
<mgrwt>
<rscale>  4 0.53008524E+03</rscale>
<asrwt>0</asrwt>
<pdfrwt beam="1">  1       21 0.24847639E-01 0.53008524E+03</pdfrwt>
<pdfrwt beam="2">  1        4 0.27224314E+00 0.53008524E+03</pdfrwt>
<totfact> 0.31343586E+01</totfact>
</mgrwt>
</event>
<event>
 5    0  0.2947253E-001  0.2695658E+03  0.7546771E-02  0.1101528E+00
         21   -1    0    0  503  502  0.00000000000E+00  0.00000000000E+00  0.31176965819E+03  0.31176965819E+03  0.00000000000E+00 0.  1.
          1   -1    0    0  502    0 -0.00000000000E+00 -0.00000000000E+00 -0.23850752227E+03  0.23850752227E+03  0.00000000000E+00 0.  1.
         25    1    1    2    0    0 -0.22333716746E+03 -0.84624196191E+02  0.12336356046E+03  0.29645288496E+03  0.12500000000E+03 0.  0.
         21    1    1    2  503  501  0.76074910049E+02  0.88103689453E+01 -0.43468298629E+02  0.88059681612E+02  0.00000000000E+00 0.  1.
          1    1    1    2  501    0  0.14726225741E+03  0.75813827246E+02 -0.66331258979E+01  0.16576461389E+03  0.00000000000E+00 0.  1.
<mgrwt>
<rscale>  4 0.26956585E+03</rscale>
<asrwt>0</asrwt>
<pdfrwt beam="1">  1       21 0.47964563E-01 0.26956585E+03</pdfrwt>
<pdfrwt beam="2">  1        1 0.36693465E-01 0.26956585E+03</pdfrwt>
<totfact> 0.51982392E+03</totfact>
</mgrwt>
</event>
<event>
 5    0  0.2947253E-001  0.4726628E+03  0.7546771E-02  0.1021491E+00
          2   -1    0    0  502    0 -0.00000000000E+00  0.00000000000E+00  0.15810213386E+04  0.15810213386E+04  0.00000000000E+00 0.  1.
         21   -1    0    0  503  502  0.00000000000E+00 -0.00000000000E+00 -0.47807952765E+03  0.47807952765E+03  0.00000000000E+00 0.  1.
         25    1    1    2    0    0 -0.27399276663E+03 -0.35839185645E+03 -0.31514204044E+03  0.56431929313E+03  0.12500000000E+03 0.  0.
         21    1    1    2  503  501  0.11379143873E+03  0.12057221669E+03  0.32672488851E+03  0.36638136380E+03  0.00000000000E+00 0. -1.
          2    1    1    2  501    0  0.16020132791E+03  0.23781963976E+03  0.10913589629E+04  0.11284002093E+04  0.00000000000E+00 0.  1.
<mgrwt>
<rscale>  4 0.47152446E+03</rscale>
<asrwt>0</asrwt>
<pdfrwt beam="1">  1       21 0.73550697E-01 0.47266282E+03</pdfrwt>
<pdfrwt beam="2">  1        2 0.24323405E+00 0.47266282E+03</pdfrwt>
<totfact> 0.22854864E+02</totfact>
</mgrwt>
</event>
