<event>
 4    0  0.1264838E-002  0.4426982E+03  0.7546771E-02  0.1029922E+00
         -2   -1    0    0    0  501 -0.00000000000E+00  0.00000000000E+00  0.60715717173E+02  0.60715717173E+02  0.00000000000E+00 0. -1.
          2   -1    0    0  502    0  0.00000000000E+00 -0.00000000000E+00 -0.80696436157E+03  0.80696436157E+03  0.00000000000E+00 0.  1.
         25    1    1    2    0    0 -0.18550183574E+03  0.79863359192E+02 -0.45492324891E+03  0.51319513793E+03  0.12500000000E+03 0.  0.
         21    1    1    2  502  501  0.18550183574E+03 -0.79863359192E+02 -0.29132539549E+03  0.35448494081E+03  0.00000000000E+00 0. -1.
<mgrwt>
<rscale>  3 0.44269818E+03</rscale>
<asrwt>0</asrwt>
<pdfrwt beam="1">  1        2 0.12414836E+00 0.44269818E+03</pdfrwt>
<pdfrwt beam="2">  1       -2 0.93408797E-02 0.44269818E+03</pdfrwt>
<totfact> 0.26069115E+03</totfact>
</mgrwt>
</event>
<event>
 4    0  0.1264838E-002  0.6995011E+03  0.7546771E-02  0.9718086E-01
          3   -1    0    0  502    0  0.00000000000E+00  0.00000000000E+00  0.14403294441E+04  0.14403294441E+04  0.00000000000E+00 0. -1.
         -3   -1    0    0    0  501 -0.00000000000E+00 -0.00000000000E+00 -0.84928797505E+02  0.84928797505E+02  0.00000000000E+00 0.  1.
         25    1    1    2    0    0  0.22803036266E+03  0.96812099692E+02  0.12025930839E+04  0.12341902424E+04  0.12500000000E+03 0.  0.
         21    1    1    2  502  501 -0.22803036266E+03 -0.96812099692E+02  0.15280756265E+03  0.29106799918E+03  0.00000000000E+00 0.  1.
<mgrwt>
<rscale>  3 0.69950110E+03</rscale>
<asrwt>0</asrwt>
<pdfrwt beam="1">  1        3 0.22158913E+00 0.69950110E+03</pdfrwt>
<pdfrwt beam="2">  1       -3 0.13065970E-01 0.69950110E+03</pdfrwt>
<totfact> 0.14120706E+01</totfact>
</mgrwt>
</event>
<event>
 4    0  0.1264838E-002  0.4566490E+03  0.7546771E-02  0.1025758E+00
          2   -1    0    0  502    0  0.00000000000E+00  0.00000000000E+00  0.90258883672E+02  0.90258883672E+02  0.00000000000E+00 0.  1.
         -2   -1    0    0    0  501 -0.00000000000E+00 -0.00000000000E+00 -0.57758400784E+03  0.57758400784E+03  0.00000000000E+00 0. -1.
         25    1    1    2    0    0  0.29971710577E+02  0.20421803330E+03 -0.19636922585E+03  0.31110959712E+03  0.12500000000E+03 0.  0.
         21    1    1    2  502  501 -0.29971710577E+02 -0.20421803330E+03 -0.29095589832E+03  0.35673329439E+03  0.00000000000E+00 0.  1.
<mgrwt>
<rscale>  3 0.45664905E+03</rscale>
<asrwt>0</asrwt>
<pdfrwt beam="1">  1        2 0.13885982E-01 0.45664905E+03</pdfrwt>
<pdfrwt beam="2">  1       -2 0.88859080E-01 0.45664905E+03</pdfrwt>
<totfact> 0.48380267E+02</totfact>
</mgrwt>
</event>
<event>
 4    0  0.1264838E-002  0.6212976E+03  0.7546771E-02  0.9862179E-01
          2   -1    0    0  502    0  0.00000000000E+00  0.00000000000E+00  0.18237791456E+04  0.18237791456E+04  0.00000000000E+00 0. -1.
         -2   -1    0    0    0  501 -0.00000000000E+00 -0.00000000000E+00 -0.52913584730E+02  0.52913584730E+02  0.00000000000E+00 0.  1.
         25    1    1    2    0    0  0.11399653637E+03  0.21625891512E+03  0.14364182919E+04  0.14624245752E+04  0.12500000000E+03 0.  0.
         21    1    1    2  502  501 -0.11399653637E+03 -0.21625891512E+03  0.33444726891E+03  0.41426815513E+03  0.00000000000E+00 0.  1.
<mgrwt>
<rscale>  3 0.62129765E+03</rscale>
<asrwt>0</asrwt>
<pdfrwt beam="1">  1        2 0.28058136E+00 0.62129765E+03</pdfrwt>
<pdfrwt beam="2">  1       -2 0.81405529E-02 0.62129765E+03</pdfrwt>
<totfact> 0.82240807E+02</totfact>
</mgrwt>
</event>
<event>
 4    0  0.1264838E-002  0.6158818E+03  0.7546771E-02  0.9872993E-01
         -1   -1    0    0    0  501 -0.00000000000E+00  0.00000000000E+00  0.67675525375E+02  0.67675525375E+02  0.00000000000E+00 0. -1.
          1   -1    0    0  502    0  0.00000000000E+00 -0.00000000000E+00 -0.14012097527E+04  0.14012097527E+04  0.00000000000E+00 0.  1.
         25    1    1    2    0    0  0.17021666740E+03 -0.21788752264E+03 -0.44721097539E+03  0.54043625238E+03  0.12500000000E+03 0.  0.
         21    1    1    2  502  501 -0.17021666740E+03  0.21788752264E+03 -0.88632325196E+03  0.92844902572E+03  0.00000000000E+00 0.  1.
<mgrwt>
<rscale>  3 0.61588183E+03</rscale>
<asrwt>0</asrwt>
<pdfrwt beam="1">  1        1 0.21557073E+00 0.61588183E+03</pdfrwt>
<pdfrwt beam="2">  1       -1 0.10411619E-01 0.61588183E+03</pdfrwt>
<totfact> 0.46440587E+02</totfact>
</mgrwt>
</event>
<event>
 4    0  0.1264838E-002  0.9807216E+03  0.7546771E-02  0.9329945E-01
          2   -1    0    0  502    0  0.00000000000E+00  0.00000000000E+00  0.24463002080E+04  0.24463002080E+04  0.00000000000E+00 0.  1.
         -2   -1    0    0    0  501 -0.00000000000E+00 -0.00000000000E+00 -0.98292797954E+02  0.98292797954E+02  0.00000000000E+00 0. -1.
         25    1    1    2    0    0  0.38735332053E+03 -0.20323826937E+03  0.17207225062E+04  0.17798481206E+04  0.12500000000E+03 0.  0.
         21    1    1    2  502  501 -0.38735332053E+03  0.20323826937E+03  0.62728490377E+03  0.76474488527E+03  0.00000000000E+00 0. -1.
<mgrwt>
<rscale>  3 0.98072155E+03</rscale>
<asrwt>0</asrwt>
<pdfrwt beam="1">  1        2 0.37635383E+00 0.98072155E+03</pdfrwt>
<pdfrwt beam="2">  1       -2 0.15121971E-01 0.98072155E+03</pdfrwt>
<totfact> 0.13099776E+02</totfact>
</mgrwt>
</event>
<event>
 4    0  0.1264838E-002  0.5009384E+03  0.7546771E-02  0.1013534E+00
          1   -1    0    0  502    0  0.00000000000E+00  0.00000000000E+00  0.31976684578E+04  0.31976684578E+04  0.00000000000E+00 0. -1.
         -1   -1    0    0    0  501 -0.00000000000E+00 -0.00000000000E+00 -0.19618928496E+02  0.19618928496E+02  0.00000000000E+00 0.  1.
         25    1    1    2    0    0  0.11963447994E+03 -0.16506041184E+03  0.24371811899E+04  0.24488843380E+04  0.12500000000E+03 0.  0.
         21    1    1    2  502  501 -0.11963447994E+03  0.16506041184E+03  0.74086833940E+03  0.76840304833E+03  0.00000000000E+00 0.  1.
<mgrwt>
<rscale>  3 0.50093843E+03</rscale>
<asrwt>0</asrwt>
<pdfrwt beam="1">  1        1 0.49194858E+00 0.50093843E+03</pdfrwt>
<pdfrwt beam="2">  1       -1 0.30182992E-02 0.50093843E+03</pdfrwt>
<totfact> 0.18743371E+02</totfact>
</mgrwt>
</event>
<event>
 4    0  0.1264838E-002  0.4464737E+03  0.7546771E-02  0.1028779E+00
         -2   -1    0    0    0  501 -0.00000000000E+00  0.00000000000E+00  0.68242306289E+02  0.68242306289E+02  0.00000000000E+00 0.  1.
          2   -1    0    0  502    0  0.00000000000E+00 -0.00000000000E+00 -0.73026082417E+03  0.73026082417E+03  0.00000000000E+00 0. -1.
         25    1    1    2    0    0  0.99153357959E+02  0.17496408208E+03 -0.43459503229E+03  0.49491581153E+03  0.12500000000E+03 0.  0.
         21    1    1    2  502  501 -0.99153357959E+02 -0.17496408208E+03 -0.22742348559E+03  0.30358731892E+03  0.00000000000E+00 0.  1.
<mgrwt>
<rscale>  3 0.44647366E+03</rscale>
<asrwt>0</asrwt>
<pdfrwt beam="1">  1        2 0.11234782E+00 0.44647366E+03</pdfrwt>
<pdfrwt beam="2">  1       -2 0.10498817E-01 0.44647366E+03</pdfrwt>
<totfact> 0.24546253E+03</totfact>
</mgrwt>
</event>
<event>
 4    0  0.1264838E-002  0.4533894E+03  0.7546771E-02  0.1026716E+00
         -2   -1    0    0    0  501 -0.00000000000E+00  0.00000000000E+00  0.21783753493E+03  0.21783753493E+03  0.00000000000E+00 0. -1.
          2   -1    0    0  502    0  0.00000000000E+00 -0.00000000000E+00 -0.23591194660E+03  0.23591194660E+03  0.00000000000E+00 0.  1.
         25    1    1    2    0    0  0.24831265306E+02  0.20370169996E+03 -0.51756556242E+02  0.24579405082E+03  0.12500000000E+03 0.  0.
         21    1    1    2  502  501 -0.24831265306E+02 -0.20370169996E+03  0.33682144572E+02  0.20795543072E+03  0.00000000000E+00 0. -1.
<mgrwt>
<rscale>  3 0.45338936E+03</rscale>
<asrwt>0</asrwt>
<pdfrwt beam="1">  1        2 0.36294145E-01 0.45338936E+03</pdfrwt>
<pdfrwt beam="2">  1       -2 0.33513467E-01 0.45338936E+03</pdfrwt>
<totfact> 0.11928265E+03</totfact>
</mgrwt>
</event>
<event>
 4    0  0.1264838E-002  0.7963578E+03  0.7546771E-02  0.9565304E-01
          2   -1    0    0  502    0  0.00000000000E+00  0.00000000000E+00  0.80691242193E+03  0.80691242193E+03  0.00000000000E+00 0.  1.
         -2   -1    0    0    0  501 -0.00000000000E+00 -0.00000000000E+00 -0.19648530380E+03  0.19648530380E+03  0.00000000000E+00 0. -1.
         25    1    1    2    0    0 -0.73679045433E+02  0.36936311948E+03  0.43208287845E+03  0.58666713699E+03  0.12500000000E+03 0.  0.
         21    1    1    2  502  501  0.73679045433E+02 -0.36936311948E+03  0.17834423968E+03  0.41673058875E+03  0.00000000000E+00 0. -1.
<mgrwt>
<rscale>  3 0.79635779E+03</rscale>
<asrwt>0</asrwt>
<pdfrwt beam="1">  1        2 0.12414037E+00 0.79635779E+03</pdfrwt>
<pdfrwt beam="2">  1       -2 0.30228509E-01 0.79635779E+03</pdfrwt>
<totfact> 0.34579515E+02</totfact>
</mgrwt>
</event>
<event>
 4    0  0.1264838E-002  0.4429772E+03  0.7546771E-02  0.1029837E+00
         -2   -1    0    0    0  501 -0.00000000000E+00  0.00000000000E+00  0.67705303299E+02  0.67705303299E+02  0.00000000000E+00 0. -1.
          2   -1    0    0  502    0  0.00000000000E+00 -0.00000000000E+00 -0.72456965439E+03  0.72456965439E+03  0.00000000000E+00 0.  1.
         25    1    1    2    0    0 -0.17835144970E+03 -0.90925794284E+02 -0.28580123702E+03  0.37065359402E+03  0.12500000000E+03 0.  0.
         21    1    1    2  502  501  0.17835144970E+03  0.90925794284E+02 -0.37106311407E+03  0.42162136367E+03  0.00000000000E+00 0.  1.
<mgrwt>
<rscale>  3 0.44297724E+03</rscale>
<asrwt>0</asrwt>
<pdfrwt beam="1">  1        2 0.11147224E+00 0.44297724E+03</pdfrwt>
<pdfrwt beam="2">  1       -2 0.10416201E-01 0.44297724E+03</pdfrwt>
<totfact> 0.25105804E+03</totfact>
</mgrwt>
</event>
<event>
 4    0  0.1264838E-002  0.4919287E+03  0.7546771E-02  0.1015907E+00
          1   -1    0    0  502    0  0.00000000000E+00  0.00000000000E+00  0.26388525165E+04  0.26388525165E+04  0.00000000000E+00 0. -1.
         -1   -1    0    0    0  501 -0.00000000000E+00 -0.00000000000E+00 -0.22926049156E+02  0.22926049156E+02  0.00000000000E+00 0.  1.
         25    1    1    2    0    0  0.13576545946E+03 -0.17479948668E+03  0.10522998796E+04  0.10825650821E+04  0.12500000000E+03 0.  0.
         21    1    1    2  502  501 -0.13576545946E+03  0.17479948668E+03  0.15636265878E+04  0.15792134835E+04  0.00000000000E+00 0.  1.
<mgrwt>
<rscale>  3 0.49192870E+03</rscale>
<asrwt>0</asrwt>
<pdfrwt beam="1">  1        1 0.40597707E+00 0.49192870E+03</pdfrwt>
<pdfrwt beam="2">  1       -1 0.35270866E-02 0.49192870E+03</pdfrwt>
<totfact> 0.36759479E+02</totfact>
</mgrwt>
</event>
<event>
 4    0  0.1264838E-002  0.6289657E+03  0.7546771E-02  0.9847069E-01
          2   -1    0    0  502    0  0.00000000000E+00  0.00000000000E+00  0.10515235705E+04  0.10515235705E+04  0.00000000000E+00 0. -1.
         -2   -1    0    0    0  501 -0.00000000000E+00 -0.00000000000E+00 -0.94053484726E+02  0.94053484726E+02  0.00000000000E+00 0.  1.
         25    1    1    2    0    0  0.13249465286E+02  0.29165179494E+03  0.63878405662E+03  0.71337675097E+03  0.12500000000E+03 0.  0.
         21    1    1    2  502  501 -0.13249465286E+02 -0.29165179494E+03  0.31868602915E+03  0.43220030426E+03  0.00000000000E+00 0. -1.
<mgrwt>
<rscale>  3 0.62896568E+03</rscale>
<asrwt>0</asrwt>
<pdfrwt beam="1">  1        2 0.16177285E+00 0.62896568E+03</pdfrwt>
<pdfrwt beam="2">  1       -2 0.14469768E-01 0.62896568E+03</pdfrwt>
<totfact> 0.87716126E+02</totfact>
</mgrwt>
</event>
<event>
 4    0  0.1264838E-002  0.5576626E+03  0.7546771E-02  0.9997357E-01
          2   -1    0    0  502    0  0.00000000000E+00  0.00000000000E+00  0.29804392382E+04  0.29804392382E+04  0.00000000000E+00 0.  1.
         -2   -1    0    0    0  501 -0.00000000000E+00 -0.00000000000E+00 -0.26085716875E+02  0.26085716875E+02  0.00000000000E+00 0. -1.
         25    1    1    2    0    0  0.22823048161E+03 -0.88039803246E+02  0.20982992544E+04  0.21162053116E+04  0.12500000000E+03 0.  0.
         21    1    1    2  502  501 -0.22823048161E+03  0.88039803246E+02  0.85605426688E+03  0.89031964346E+03  0.00000000000E+00 0. -1.
<mgrwt>
<rscale>  3 0.55766260E+03</rscale>
<asrwt>0</asrwt>
<pdfrwt beam="1">  1        2 0.45852884E+00 0.55766260E+03</pdfrwt>
<pdfrwt beam="2">  1       -2 0.40131896E-02 0.55766260E+03</pdfrwt>
<totfact> 0.55918377E+02</totfact>
</mgrwt>
</event>
<event>
 4    0  0.1264838E-002  0.4857204E+03  0.7546771E-02  0.1017575E+00
         -2   -1    0    0    0  501 -0.00000000000E+00  0.00000000000E+00  0.30416876015E+02  0.30416876015E+02  0.00000000000E+00 0. -1.
          2   -1    0    0  502    0  0.00000000000E+00 -0.00000000000E+00 -0.19390906779E+04  0.19390906779E+04  0.00000000000E+00 0.  1.
         25    1    1    2    0    0 -0.56410880805E+01  0.22470725873E+03 -0.11393287985E+04  0.11679984097E+04  0.12500000000E+03 0.  0.
         21    1    1    2  502  501  0.56410880805E+01 -0.22470725873E+03 -0.76934500333E+03  0.80150914415E+03  0.00000000000E+00 0. -1.
<mgrwt>
<rscale>  3 0.48572042E+03</rscale>
<asrwt>0</asrwt>
<pdfrwt beam="1">  1        2 0.29832164E+00 0.48572042E+03</pdfrwt>
<pdfrwt beam="2">  1       -2 0.46795194E-02 0.48572042E+03</pdfrwt>
<totfact> 0.17101009E+03</totfact>
</mgrwt>
</event>
<event>
 4    0  0.1264838E-002  0.4596966E+03  0.7546771E-02  0.1024869E+00
          2   -1    0    0  502    0  0.00000000000E+00  0.00000000000E+00  0.32774008920E+04  0.32774008920E+04  0.00000000000E+00 0.  1.
         -2   -1    0    0    0  501 -0.00000000000E+00 -0.00000000000E+00 -0.16119553379E+02  0.16119553379E+02  0.00000000000E+00 0. -1.
         25    1    1    2    0    0  0.19534953201E+03 -0.82870340945E+02  0.16318317368E+04  0.16503117130E+04  0.12500000000E+03 0.  0.
         21    1    1    2  502  501 -0.19534953201E+03  0.82870340945E+02  0.16294496019E+04  0.16432087323E+04  0.00000000000E+00 0.  1.
<mgrwt>
<rscale>  3 0.45969659E+03</rscale>
<asrwt>0</asrwt>
<pdfrwt beam="1">  1        2 0.50421499E+00 0.45969659E+03</pdfrwt>
<pdfrwt beam="2">  1       -2 0.24799339E-02 0.45969659E+03</pdfrwt>
<totfact> 0.76852744E+02</totfact>
</mgrwt>
</event>
<event>
 4    0  0.1264838E-002  0.4669434E+03  0.7546771E-02  0.1022786E+00
         -1   -1    0    0    0  501 -0.00000000000E+00  0.00000000000E+00  0.74186554985E+02  0.74186554985E+02  0.00000000000E+00 0.  1.
          1   -1    0    0  502    0  0.00000000000E+00 -0.00000000000E+00 -0.73475638055E+03  0.73475638055E+03  0.00000000000E+00 0. -1.
         25    1    1    2    0    0 -0.16133319365E+03 -0.12046901864E+03 -0.21497859061E+03  0.31997183977E+03  0.12500000000E+03 0.  0.
         21    1    1    2  502  501  0.16133319365E+03  0.12046901864E+03 -0.44559123495E+03  0.48897109576E+03  0.00000000000E+00 0. -1.
<mgrwt>
<rscale>  3 0.46694344E+03</rscale>
<asrwt>0</asrwt>
<pdfrwt beam="1">  1        1 0.11303944E+00 0.46694344E+03</pdfrwt>
<pdfrwt beam="2">  1       -1 0.11413317E-01 0.46694344E+03</pdfrwt>
<totfact> 0.13006857E+03</totfact>
</mgrwt>
</event>
<event>
 4    0  0.1264838E-002  0.5737606E+03  0.7546771E-02  0.9961391E-01
          2   -1    0    0  502    0  0.00000000000E+00  0.00000000000E+00  0.53191285449E+03  0.53191285449E+03  0.00000000000E+00 0. -1.
         -2   -1    0    0    0  501 -0.00000000000E+00 -0.00000000000E+00 -0.15472516612E+03  0.15472516612E+03  0.00000000000E+00 0.  1.
         25    1    1    2    0    0 -0.19706077765E+03 -0.13828887449E+03  0.42817076728E+02  0.27461803465E+03  0.12500000000E+03 0.  0.
         21    1    1    2  502  501  0.19706077765E+03  0.13828887449E+03  0.33437061165E+03  0.41201998596E+03  0.00000000000E+00 0.  1.
<mgrwt>
<rscale>  3 0.57376059E+03</rscale>
<asrwt>0</asrwt>
<pdfrwt beam="1">  1        2 0.81832746E-01 0.57376059E+03</pdfrwt>
<pdfrwt beam="2">  1       -2 0.23803872E-01 0.57376059E+03</pdfrwt>
<totfact> 0.90038670E+02</totfact>
</mgrwt>
</event>
<event>
 4    0  0.1264838E-002  0.5497702E+03  0.7546771E-02  0.1001547E+00
         -2   -1    0    0    0  501 -0.00000000000E+00  0.00000000000E+00  0.27465693788E+03  0.27465693788E+03  0.00000000000E+00 0. -1.
          2   -1    0    0  502    0  0.00000000000E+00 -0.00000000000E+00 -0.27511346946E+03  0.27511346946E+03  0.00000000000E+00 0.  1.
         25    1    1    2    0    0  0.17926738589E+03 -0.18734390576E+03 -0.27011818659E+02  0.28911792233E+03  0.12500000000E+03 0.  0.
         21    1    1    2  502  501 -0.17926738589E+03  0.18734390576E+03  0.26555287081E+02  0.26065248500E+03  0.00000000000E+00 0. -1.
<mgrwt>
<rscale>  3 0.54977022E+03</rscale>
<asrwt>0</asrwt>
<pdfrwt beam="1">  1        2 0.42325149E-01 0.54977022E+03</pdfrwt>
<pdfrwt beam="2">  1       -2 0.42254914E-01 0.54977022E+03</pdfrwt>
<totfact> 0.64605290E+02</totfact>
</mgrwt>
</event>
<event>
 4    0  0.1383795E-002  0.5330591E+03  0.7546771E-02  0.1005493E+00
         -1   -1    0    0    0  501 -0.00000000000E+00  0.00000000000E+00  0.36157099750E+02  0.36157099750E+02  0.00000000000E+00 0. -1.
          1   -1    0    0  502    0  0.00000000000E+00 -0.00000000000E+00 -0.19647037815E+04  0.19647037815E+04  0.00000000000E+00 0.  1.
         25    1    1    2    0    0  0.88329789207E+02 -0.18358772310E+03 -0.46139610236E+03  0.51963253074E+03  0.12500000000E+03 0.  0.
         21    1    1    2  502  501 -0.88329789207E+02  0.18358772310E+03 -0.14671505794E+04  0.14812283505E+04  0.00000000000E+00 0.  1.
<mgrwt>
<rscale>  3 0.53305906E+03</rscale>
<asrwt>0</asrwt>
<pdfrwt beam="1">  1        1 0.30226212E+00 0.53305906E+03</pdfrwt>
<pdfrwt beam="2">  1       -1 0.55626308E-02 0.53305906E+03</pdfrwt>
<totfact> 0.51835544E+02</totfact>
</mgrwt>
</event>
<event>
 4    0  0.1264838E-002  0.7814739E+03  0.7546771E-02  0.9587227E-01
         -2   -1    0    0    0  501 -0.00000000000E+00  0.00000000000E+00  0.26453163550E+03  0.26453163550E+03  0.00000000000E+00 0.  1.
          2   -1    0    0  502    0  0.00000000000E+00 -0.00000000000E+00 -0.57715356318E+03  0.57715356318E+03  0.00000000000E+00 0. -1.
         25    1    1    2    0    0  0.22773823442E+03  0.29421339527E+03 -0.73231733757E+02  0.39926696858E+03  0.12500000000E+03 0.  0.
         21    1    1    2  502  501 -0.22773823442E+03 -0.29421339527E+03 -0.23939019392E+03  0.44241823009E+03  0.00000000000E+00 0.  1.
<mgrwt>
<rscale>  3 0.78147393E+03</rscale>
<asrwt>0</asrwt>
<pdfrwt beam="1">  1        2 0.88792855E-01 0.78147393E+03</pdfrwt>
<pdfrwt beam="2">  1       -2 0.40697175E-01 0.78147393E+03</pdfrwt>
<totfact> 0.29907830E+02</totfact>
</mgrwt>
</event>
<event>
 4    0  0.1264838E-002  0.4820832E+03  0.7546771E-02  0.1018564E+00
          2   -1    0    0  502    0  0.00000000000E+00  0.00000000000E+00  0.35509287602E+03  0.35509287602E+03  0.00000000000E+00 0.  1.
         -2   -1    0    0    0  501 -0.00000000000E+00 -0.00000000000E+00 -0.16362209714E+03  0.16362209714E+03  0.00000000000E+00 0. -1.
         25    1    1    2    0    0  0.22327342541E+03 -0.24814622521E+02  0.11205562247E+03  0.28044295412E+03  0.12500000000E+03 0.  0.
         21    1    1    2  502  501 -0.22327342541E+03  0.24814622521E+02  0.79415156405E+02  0.23827201903E+03  0.00000000000E+00 0. -1.
<mgrwt>
<rscale>  3 0.48208315E+03</rscale>
<asrwt>0</asrwt>
<pdfrwt beam="1">  1        2 0.54629673E-01 0.48208315E+03</pdfrwt>
<pdfrwt beam="2">  1       -2 0.25172630E-01 0.48208315E+03</pdfrwt>
<totfact> 0.12854188E+03</totfact>
</mgrwt>
</event>
<event>
 4    0  0.1264838E-002  0.4579885E+03  0.7546771E-02  0.1025366E+00
          2   -1    0    0  502    0  0.00000000000E+00  0.00000000000E+00  0.16780570673E+04  0.16780570673E+04  0.00000000000E+00 0.  1.
         -2   -1    0    0    0  501 -0.00000000000E+00 -0.00000000000E+00 -0.31249454198E+02  0.31249454198E+02  0.00000000000E+00 0. -1.
         25    1    1    2    0    0 -0.17944074641E+03 -0.10004684303E+03  0.69050493366E+03  0.73118425563E+03  0.12500000000E+03 0.  0.
         21    1    1    2  502  501  0.17944074641E+03  0.10004684303E+03  0.95630267942E+03  0.97812226585E+03  0.00000000000E+00 0.  1.
<mgrwt>
<rscale>  3 0.45798850E+03</rscale>
<asrwt>0</asrwt>
<pdfrwt beam="1">  1        2 0.25816256E+00 0.45798850E+03</pdfrwt>
<pdfrwt beam="2">  1       -2 0.48076096E-02 0.45798850E+03</pdfrwt>
<totfact> 0.22679103E+03</totfact>
</mgrwt>
</event>
<event>
 4    0  0.1264838E-002  0.4708704E+03  0.7546771E-02  0.1021675E+00
         -2   -1    0    0    0  501 -0.00000000000E+00  0.00000000000E+00  0.93152713266E+02  0.93152713266E+02  0.00000000000E+00 0.  1.
          2   -1    0    0  502    0  0.00000000000E+00 -0.00000000000E+00 -0.59504160420E+03  0.59504160420E+03  0.00000000000E+00 0. -1.
         25    1    1    2    0    0  0.13455415086E+03  0.17251164599E+03 -0.27628419304E+03  0.37392919496E+03  0.12500000000E+03 0.  0.
         21    1    1    2  502  501 -0.13455415086E+03 -0.17251164599E+03 -0.22560469789E+03  0.31426512251E+03  0.00000000000E+00 0.  1.
<mgrwt>
<rscale>  3 0.47087043E+03</rscale>
<asrwt>0</asrwt>
<pdfrwt beam="1">  1        2 0.91544860E-01 0.47087043E+03</pdfrwt>
<pdfrwt beam="2">  1       -2 0.14331187E-01 0.47087043E+03</pdfrwt>
<totfact> 0.18911368E+03</totfact>
</mgrwt>
</event>
<event>
 4    0  0.1264838E-002  0.5092040E+03  0.7546771E-02  0.1011404E+00
          2   -1    0    0  502    0  0.00000000000E+00  0.00000000000E+00  0.11878943328E+04  0.11878943328E+04  0.00000000000E+00 0. -1.
         -2   -1    0    0    0  501 -0.00000000000E+00 -0.00000000000E+00 -0.54568976947E+02  0.54568976947E+02  0.00000000000E+00 0.  1.
         25    1    1    2    0    0 -0.13528238399E+03 -0.19371739626E+03  0.69267019221E+03  0.74245858349E+03  0.12500000000E+03 0.  0.
         21    1    1    2  502  501  0.13528238399E+03  0.19371739626E+03  0.44065516368E+03  0.50000472629E+03  0.00000000000E+00 0.  1.
<mgrwt>
<rscale>  3 0.50920400E+03</rscale>
<asrwt>0</asrwt>
<pdfrwt beam="1">  1        2 0.18275296E+00 0.50920400E+03</pdfrwt>
<pdfrwt beam="2">  1       -2 0.83952281E-02 0.50920400E+03</pdfrwt>
<totfact> 0.17733410E+03</totfact>
</mgrwt>
</event>
<event>
 4    0  0.1264838E-002  0.5748961E+03  0.7546771E-02  0.9958902E-01
          1   -1    0    0  502    0  0.00000000000E+00  0.00000000000E+00  0.37634121373E+03  0.37634121373E+03  0.00000000000E+00 0.  1.
         -1   -1    0    0    0  501 -0.00000000000E+00 -0.00000000000E+00 -0.21955178544E+03  0.21955178544E+03  0.00000000000E+00 0. -1.
         25    1    1    2    0    0  0.18369682960E+03  0.17806548332E+03 -0.19174945923E+02  0.28538486314E+03  0.12500000000E+03 0.  0.
         21    1    1    2  502  501 -0.18369682960E+03 -0.17806548332E+03  0.17596437421E+03  0.31050813604E+03  0.00000000000E+00 0.  1.
<mgrwt>
<rscale>  3 0.57489611E+03</rscale>
<asrwt>0</asrwt>
<pdfrwt beam="1">  1        1 0.57898648E-01 0.57489611E+03</pdfrwt>
<pdfrwt beam="2">  1       -1 0.33777198E-01 0.57489611E+03</pdfrwt>
<totfact> 0.54357346E+02</totfact>
</mgrwt>
</event>
<event>
 4    0  0.1264838E-002  0.5878519E+03  0.7546771E-02  0.9930935E-01
         -2   -1    0    0    0  501 -0.00000000000E+00  0.00000000000E+00  0.28403802271E+02  0.28403802271E+02  0.00000000000E+00 0.  1.
          2   -1    0    0  502    0  0.00000000000E+00 -0.00000000000E+00 -0.30415809384E+04  0.30415809384E+04  0.00000000000E+00 0. -1.
         25    1    1    2    0    0 -0.35855874370E+02 -0.27803905276E+03 -0.15075804937E+04  0.15385107421E+04  0.12500000000E+03 0.  0.
         21    1    1    2  502  501  0.35855874370E+02  0.27803905276E+03 -0.15055966424E+04  0.15314739985E+04  0.00000000000E+00 0. -1.
<mgrwt>
<rscale>  3 0.58785190E+03</rscale>
<asrwt>0</asrwt>
<pdfrwt beam="1">  1        2 0.46793524E+00 0.58785190E+03</pdfrwt>
<pdfrwt beam="2">  1       -2 0.43698184E-02 0.58785190E+03</pdfrwt>
<totfact> 0.44872111E+02</totfact>
</mgrwt>
</event>
<event>
 4    0  0.1264838E-002  0.5220993E+03  0.7546771E-02  0.1008166E+00
         -2   -1    0    0    0  501 -0.00000000000E+00  0.00000000000E+00  0.21950768378E+02  0.21950768378E+02  0.00000000000E+00 0.  1.
          2   -1    0    0  502    0  0.00000000000E+00 -0.00000000000E+00 -0.31045344705E+04  0.31045344705E+04  0.00000000000E+00 0. -1.
         25    1    1    2    0    0 -0.24509972067E+03  0.65734512765E+01 -0.17554292517E+04  0.17768719540E+04  0.12500000000E+03 0.  0.
         21    1    1    2  502  501  0.24509972067E+03 -0.65734512765E+01 -0.13271544504E+04  0.13496132848E+04  0.00000000000E+00 0. -1.
<mgrwt>
<rscale>  3 0.52209929E+03</rscale>
<asrwt>0</asrwt>
<pdfrwt beam="1">  1        2 0.47762076E+00 0.52209929E+03</pdfrwt>
<pdfrwt beam="2">  1       -2 0.33770408E-02 0.52209929E+03</pdfrwt>
<totfact> 0.61383150E+02</totfact>
</mgrwt>
</event>
<event>
 4    0  0.1264838E-002  0.6508775E+03  0.7546771E-02  0.9805134E-01
         -2   -1    0    0    0  501 -0.00000000000E+00  0.00000000000E+00  0.13945949106E+03  0.13945949106E+03  0.00000000000E+00 0.  1.
          2   -1    0    0  502    0  0.00000000000E+00 -0.00000000000E+00 -0.75943477281E+03  0.75943477281E+03  0.00000000000E+00 0. -1.
         25    1    1    2    0    0 -0.15137989928E+03  0.22107620910E+03 -0.96808440654E+02  0.31110679568E+03  0.12500000000E+03 0.  0.
         21    1    1    2  502  501  0.15137989928E+03 -0.22107620910E+03 -0.52316684110E+03  0.58778746819E+03  0.00000000000E+00 0. -1.
<mgrwt>
<rscale>  3 0.65087752E+03</rscale>
<asrwt>0</asrwt>
<pdfrwt beam="1">  1        2 0.11683612E+00 0.65087752E+03</pdfrwt>
<pdfrwt beam="2">  1       -2 0.21455307E-01 0.65087752E+03</pdfrwt>
<totfact> 0.69954577E+02</totfact>
</mgrwt>
</event>
<event>
 4    0  0.1264838E-002  0.7591168E+03  0.7546771E-02  0.9621155E-01
          2   -1    0    0  502    0  0.00000000000E+00  0.00000000000E+00  0.16953620551E+04  0.16953620551E+04  0.00000000000E+00 0. -1.
         -2   -1    0    0    0  501 -0.00000000000E+00 -0.00000000000E+00 -0.84975701861E+02  0.84975701861E+02  0.00000000000E+00 0.  1.
         25    1    1    2    0    0  0.32008471086E+03  0.14169239402E+03  0.11028028813E+04  0.11637569126E+04  0.12500000000E+03 0.  0.
         21    1    1    2  502  501 -0.32008471086E+03 -0.14169239402E+03  0.50758347202E+03  0.61658084442E+03  0.00000000000E+00 0.  1.
<mgrwt>
<rscale>  3 0.75911680E+03</rscale>
<asrwt>0</asrwt>
<pdfrwt beam="1">  1        2 0.26082491E+00 0.75911680E+03</pdfrwt>
<pdfrwt beam="2">  1       -2 0.13073186E-01 0.75911680E+03</pdfrwt>
<totfact> 0.44237262E+02</totfact>
</mgrwt>
</event>
<event>
 4    0  0.1264838E-002  0.6155961E+03  0.7546771E-02  0.9873567E-01
         -2   -1    0    0    0  501 -0.00000000000E+00  0.00000000000E+00  0.69540770689E+02  0.69540770689E+02  0.00000000000E+00 0. -1.
          2   -1    0    0  502    0  0.00000000000E+00 -0.00000000000E+00 -0.13623610536E+04  0.13623610536E+04  0.00000000000E+00 0.  1.
         25    1    1    2    0    0  0.25098944462E+03  0.13582877302E+03 -0.49832993088E+03  0.58770985775E+03  0.12500000000E+03 0.  0.
         21    1    1    2  502  501 -0.25098944462E+03 -0.13582877302E+03 -0.79449035200E+03  0.84419196650E+03  0.00000000000E+00 0.  1.
<mgrwt>
<rscale>  3 0.61559609E+03</rscale>
<asrwt>0</asrwt>
<pdfrwt beam="1">  1        2 0.20959401E+00 0.61559609E+03</pdfrwt>
<pdfrwt beam="2">  1       -2 0.10698580E-01 0.61559609E+03</pdfrwt>
<totfact> 0.94904601E+02</totfact>
</mgrwt>
</event>
<event>
 4    0  0.1264838E-002  0.6067452E+03  0.7546771E-02  0.9891510E-01
          2   -1    0    0  502    0  0.00000000000E+00  0.00000000000E+00  0.19546115785E+04  0.19546115785E+04  0.00000000000E+00 0.  1.
         -2   -1    0    0    0  501 -0.00000000000E+00 -0.00000000000E+00 -0.47086051574E+02  0.47086051574E+02  0.00000000000E+00 0. -1.
         25    1    1    2    0    0 -0.89909253041E+01 -0.28533430474E+03  0.81683625073E+03  0.87426710032E+03  0.12500000000E+03 0.  0.
         21    1    1    2  502  501  0.89909253041E+01  0.28533430474E+03  0.10906892762E+04  0.11274305297E+04  0.00000000000E+00 0.  1.
<mgrwt>
<rscale>  3 0.60674522E+03</rscale>
<asrwt>0</asrwt>
<pdfrwt beam="1">  1        2 0.30070941E+00 0.60674522E+03</pdfrwt>
<pdfrwt beam="2">  1       -2 0.72440094E-02 0.60674522E+03</pdfrwt>
<totfact> 0.84193287E+02</totfact>
</mgrwt>
</event>
<event>
 4    0  0.1308828E-002  0.5391714E+03  0.7546771E-02  0.1004032E+00
         -2   -1    0    0    0  501 -0.00000000000E+00  0.00000000000E+00  0.51263572496E+02  0.51263572496E+02  0.00000000000E+00 0. -1.
          2   -1    0    0  502    0  0.00000000000E+00 -0.00000000000E+00 -0.14177018342E+04  0.14177018342E+04  0.00000000000E+00 0.  1.
         25    1    1    2    0    0  0.16656457707E+03  0.14319026072E+03 -0.36652671966E+03  0.44521235981E+03  0.12500000000E+03 0.  0.
         21    1    1    2  502  501 -0.16656457707E+03 -0.14319026072E+03 -0.99991154201E+03  0.10237530469E+04  0.00000000000E+00 0.  1.
<mgrwt>
<rscale>  3 0.53917144E+03</rscale>
<asrwt>0</asrwt>
<pdfrwt beam="1">  1        2 0.21810796E+00 0.53917144E+03</pdfrwt>
<pdfrwt beam="2">  1       -2 0.78867039E-02 0.53917144E+03</pdfrwt>
<totfact> 0.14477948E+03</totfact>
</mgrwt>
</event>
<event>
 4    0  0.1264838E-002  0.6768736E+03  0.7546771E-02  0.9757620E-01
          4   -1    0    0  502    0  0.00000000000E+00  0.00000000000E+00  0.32792897635E+03  0.32792897635E+03  0.00000000000E+00 0.  1.
         -4   -1    0    0    0  501 -0.00000000000E+00 -0.00000000000E+00 -0.34928137397E+03  0.34928137397E+03  0.00000000000E+00 0. -1.
         25    1    1    2    0    0  0.26619351467E+03  0.65974230622E+02 -0.18902937222E+03  0.35576493633E+03  0.12500000000E+03 0.  0.
         21    1    1    2  502  501 -0.26619351467E+03 -0.65974230622E+02  0.16767697460E+03  0.32144541398E+03  0.00000000000E+00 0.  1.
<mgrwt>
<rscale>  3 0.67687365E+03</rscale>
<asrwt>0</asrwt>
<pdfrwt beam="1">  1        4 0.50450612E-01 0.67687365E+03</pdfrwt>
<pdfrwt beam="2">  1       -4 0.53735596E-01 0.67687365E+03</pdfrwt>
<totfact> 0.24886384E+01</totfact>
</mgrwt>
</event>
<event>
 4    0  0.1264838E-002  0.4750576E+03  0.7546771E-02  0.1020502E+00
          2   -1    0    0  502    0  0.00000000000E+00  0.00000000000E+00  0.65475003255E+03  0.65475003255E+03  0.00000000000E+00 0. -1.
         -2   -1    0    0    0  501 -0.00000000000E+00 -0.00000000000E+00 -0.86170196923E+02  0.86170196923E+02  0.00000000000E+00 0.  1.
         25    1    1    2    0    0 -0.20809513238E+03 -0.50748157705E+02  0.38938272684E+03  0.46165232328E+03  0.12500000000E+03 0.  0.
         21    1    1    2  502  501  0.20809513238E+03  0.50748157705E+02  0.17919710879E+03  0.27926790619E+03  0.00000000000E+00 0.  1.
<mgrwt>
<rscale>  3 0.47505764E+03</rscale>
<asrwt>0</asrwt>
<pdfrwt beam="1">  1        2 0.10073077E+00 0.47505764E+03</pdfrwt>
<pdfrwt beam="2">  1       -2 0.13256954E-01 0.47505764E+03</pdfrwt>
<totfact> 0.19190100E+03</totfact>
</mgrwt>
</event>
<event>
 4    0  0.1264838E-002  0.6789480E+03  0.7546771E-02  0.9753927E-01
          1   -1    0    0  502    0  0.00000000000E+00  0.00000000000E+00  0.23768071152E+04  0.23768071152E+04  0.00000000000E+00 0. -1.
         -1   -1    0    0    0  501 -0.00000000000E+00 -0.00000000000E+00 -0.48486308628E+02  0.48486308628E+02  0.00000000000E+00 0.  1.
         25    1    1    2    0    0 -0.21120635173E+03  0.22764885150E+03  0.15804831171E+04  0.16155444921E+04  0.12500000000E+03 0.  0.
         21    1    1    2  502  501  0.21120635173E+03 -0.22764885150E+03  0.74783768950E+03  0.80974893173E+03  0.00000000000E+00 0.  1.
<mgrwt>
<rscale>  3 0.67894802E+03</rscale>
<asrwt>0</asrwt>
<pdfrwt beam="1">  1        1 0.36566254E+00 0.67894802E+03</pdfrwt>
<pdfrwt beam="2">  1       -1 0.74594340E-02 0.67894802E+03</pdfrwt>
<totfact> 0.17251067E+02</totfact>
</mgrwt>
</event>
<event>
 4    0  0.1264838E-002  0.4878884E+03  0.7546771E-02  0.1016989E+00
         -2   -1    0    0    0  501 -0.00000000000E+00  0.00000000000E+00  0.37656441751E+02  0.37656441751E+02  0.00000000000E+00 0. -1.
          2   -1    0    0  502    0  0.00000000000E+00 -0.00000000000E+00 -0.15803080580E+04  0.15803080580E+04  0.00000000000E+00 0.  1.
         25    1    1    2    0    0 -0.98745645585E+02  0.20447379326E+03 -0.75626008062E+03  0.79944639857E+03  0.12500000000E+03 0.  0.
         21    1    1    2  502  501  0.98745645585E+02 -0.20447379326E+03 -0.78639153568E+03  0.81851810123E+03  0.00000000000E+00 0. -1.
<mgrwt>
<rscale>  3 0.48788842E+03</rscale>
<asrwt>0</asrwt>
<pdfrwt beam="1">  1        2 0.24312434E+00 0.48788842E+03</pdfrwt>
<pdfrwt beam="2">  1       -2 0.57932982E-02 0.48788842E+03</pdfrwt>
<totfact> 0.19174202E+03</totfact>
</mgrwt>
</event>
<event>
 4    0  0.1264838E-002  0.6836718E+03  0.7546771E-02  0.9745570E-01
          2   -1    0    0  502    0  0.00000000000E+00  0.00000000000E+00  0.95566661796E+03  0.95566661796E+03  0.00000000000E+00 0. -1.
         -2   -1    0    0    0  501 -0.00000000000E+00 -0.00000000000E+00 -0.12227255112E+03  0.12227255112E+03  0.00000000000E+00 0.  1.
         25    1    1    2    0    0 -0.28572889380E+03 -0.89702636904E+02  0.21055380439E+03  0.38684036548E+03  0.12500000000E+03 0.  0.
         21    1    1    2  502  501  0.28572889380E+03  0.89702636904E+02  0.62284026244E+03  0.69109880360E+03  0.00000000000E+00 0. -1.
<mgrwt>
<rscale>  3 0.68367184E+03</rscale>
<asrwt>0</asrwt>
<pdfrwt beam="1">  1        2 0.14702563E+00 0.68367184E+03</pdfrwt>
<pdfrwt beam="2">  1       -2 0.18811162E-01 0.68367184E+03</pdfrwt>
<totfact> 0.64377543E+02</totfact>
</mgrwt>
</event>
<event>
 4    0  0.1264838E-002  0.5252378E+03  0.7546771E-02  0.1007394E+00
          2   -1    0    0  502    0  0.00000000000E+00  0.00000000000E+00  0.11955993118E+04  0.11955993118E+04  0.00000000000E+00 0.  1.
         -2   -1    0    0    0  501 -0.00000000000E+00 -0.00000000000E+00 -0.57685457667E+02  0.57685457667E+02  0.00000000000E+00 0. -1.
         25    1    1    2    0    0 -0.19877854274E+03  0.48378926567E+02  0.26777181586E+03  0.35941643668E+03  0.12500000000E+03 0.  0.
         21    1    1    2  502  501  0.19877854274E+03 -0.48378926567E+02  0.87014203828E+03  0.89386833279E+03  0.00000000000E+00 0.  1.
<mgrwt>
<rscale>  3 0.52523783E+03</rscale>
<asrwt>0</asrwt>
<pdfrwt beam="1">  1        2 0.18393834E+00 0.52523783E+03</pdfrwt>
<pdfrwt beam="2">  1       -2 0.88746867E-02 0.52523783E+03</pdfrwt>
<totfact> 0.16054214E+03</totfact>
</mgrwt>
</event>
<event>
 4    0  0.1264838E-002  0.4514638E+03  0.7546771E-02  0.1027286E+00
          2   -1    0    0  502    0  0.00000000000E+00  0.00000000000E+00  0.13629372773E+03  0.13629372773E+03  0.00000000000E+00 0.  1.
         -2   -1    0    0    0  501 -0.00000000000E+00 -0.00000000000E+00 -0.37386080471E+03  0.37386080471E+03  0.00000000000E+00 0. -1.
         25    1    1    2    0    0 -0.53174008472E+02 -0.19781803641E+03 -0.84382519256E+02  0.25437150049E+03  0.12500000000E+03 0.  0.
         21    1    1    2  502  501  0.53174008472E+02  0.19781803641E+03 -0.15318455773E+03  0.25578303195E+03  0.00000000000E+00 0. -1.
<mgrwt>
<rscale>  3 0.45146376E+03</rscale>
<asrwt>0</asrwt>
<pdfrwt beam="1">  1        2 0.20968266E-01 0.45146376E+03</pdfrwt>
<pdfrwt beam="2">  1       -2 0.57517046E-01 0.45146376E+03</pdfrwt>
<totfact> 0.76424174E+02</totfact>
</mgrwt>
</event>
<event>
 4    0  0.1264838E-002  0.4654656E+03  0.7546771E-02  0.1023208E+00
          1   -1    0    0  502    0  0.00000000000E+00  0.00000000000E+00  0.30779129746E+03  0.30779129746E+03  0.00000000000E+00 0.  1.
         -1   -1    0    0    0  501 -0.00000000000E+00 -0.00000000000E+00 -0.17597815623E+03  0.17597815623E+03  0.00000000000E+00 0. -1.
         25    1    1    2    0    0 -0.19115746540E+03  0.83807412297E+02  0.12823571722E+03  0.27501683240E+03  0.12500000000E+03 0.  0.
         21    1    1    2  502  501  0.19115746540E+03 -0.83807412297E+02  0.35774240055E+01  0.20875262129E+03  0.00000000000E+00 0. -1.
<mgrwt>
<rscale>  3 0.46546555E+03</rscale>
<asrwt>0</asrwt>
<pdfrwt beam="1">  1        1 0.47352507E-01 0.46546555E+03</pdfrwt>
<pdfrwt beam="2">  1       -1 0.27073563E-01 0.46546555E+03</pdfrwt>
<totfact> 0.10362184E+03</totfact>
</mgrwt>
</event>
<event>
 4    0  0.1264838E-002  0.5150072E+03  0.7546771E-02  0.1009934E+00
         -1   -1    0    0    0  501 -0.00000000000E+00  0.00000000000E+00  0.40870078805E+02  0.40870078805E+02  0.00000000000E+00 0. -1.
          1   -1    0    0  502    0  0.00000000000E+00 -0.00000000000E+00 -0.16224119536E+04  0.16224119536E+04  0.00000000000E+00 0.  1.
         25    1    1    2    0    0  0.13447731636E+03  0.16067978995E+03 -0.12305698870E+04  0.12545235710E+04  0.12500000000E+03 0.  0.
         21    1    1    2  502  501 -0.13447731636E+03 -0.16067978995E+03 -0.35097198776E+03  0.40875846133E+03  0.00000000000E+00 0. -1.
<mgrwt>
<rscale>  3 0.51500720E+03</rscale>
<asrwt>0</asrwt>
<pdfrwt beam="1">  1        1 0.24960183E+00 0.51500720E+03</pdfrwt>
<pdfrwt beam="2">  1       -1 0.62877047E-02 0.51500720E+03</pdfrwt>
<totfact> 0.72597268E+02</totfact>
</mgrwt>
</event>
<event>
 4    0  0.1264838E-002  0.5878771E+03  0.7546771E-02  0.9930881E-01
         -2   -1    0    0    0  501 -0.00000000000E+00  0.00000000000E+00  0.11976374293E+03  0.11976374293E+03  0.00000000000E+00 0.  1.
          2   -1    0    0  502    0  0.00000000000E+00 -0.00000000000E+00 -0.72141932589E+03  0.72141932589E+03  0.00000000000E+00 0. -1.
         25    1    1    2    0    0  0.24943958464E+03  0.80042663995E+01 -0.13074090714E+03  0.30822452769E+03  0.12500000000E+03 0.  0.
         21    1    1    2  502  501 -0.24943958464E+03 -0.80042663995E+01 -0.47091467582E+03  0.53295854113E+03  0.00000000000E+00 0. -1.
<mgrwt>
<rscale>  3 0.58787713E+03</rscale>
<asrwt>0</asrwt>
<pdfrwt beam="1">  1        2 0.11098759E+00 0.58787713E+03</pdfrwt>
<pdfrwt beam="2">  1       -2 0.18425191E-01 0.58787713E+03</pdfrwt>
<totfact> 0.97541255E+02</totfact>
</mgrwt>
</event>
<event>
 4    0  0.1264838E-002  0.5376314E+03  0.7546771E-02  0.1004398E+00
         -1   -1    0    0    0  501 -0.00000000000E+00  0.00000000000E+00  0.25705923568E+03  0.25705923568E+03  0.00000000000E+00 0. -1.
          1   -1    0    0  502    0  0.00000000000E+00 -0.00000000000E+00 -0.28110981659E+03  0.28110981659E+03  0.00000000000E+00 0.  1.
         25    1    1    2    0    0 -0.74739408515E+02  0.23401528307E+03 -0.78402275905E+02  0.28656770362E+03  0.12500000000E+03 0.  0.
         21    1    1    2  502  501  0.74739408515E+02 -0.23401528307E+03  0.54351694988E+02  0.25160134865E+03  0.00000000000E+00 0. -1.
<mgrwt>
<rscale>  3 0.53763138E+03</rscale>
<asrwt>0</asrwt>
<pdfrwt beam="1">  1        1 0.43247664E-01 0.53763138E+03</pdfrwt>
<pdfrwt beam="2">  1       -1 0.39547575E-01 0.53763138E+03</pdfrwt>
<totfact> 0.59911112E+02</totfact>
</mgrwt>
</event>
<event>
 4    0  0.1264838E-002  0.6051902E+03  0.7546771E-02  0.9894696E-01
          1   -1    0    0  502    0  0.00000000000E+00  0.00000000000E+00  0.57314593090E+03  0.57314593090E+03  0.00000000000E+00 0.  1.
         -1   -1    0    0    0  501 -0.00000000000E+00 -0.00000000000E+00 -0.15975650930E+03  0.15975650930E+03  0.00000000000E+00 0. -1.
         25    1    1    2    0    0 -0.54374529797E+02 -0.23161788826E+03  0.41566047692E+03  0.49497683555E+03  0.12500000000E+03 0.  0.
         21    1    1    2  502  501  0.54374529797E+02  0.23161788826E+03 -0.22710553240E+01  0.23792560464E+03  0.00000000000E+00 0. -1.
<mgrwt>
<rscale>  3 0.60519020E+03</rscale>
<asrwt>0</asrwt>
<pdfrwt beam="1">  1        1 0.88176296E-01 0.60519020E+03</pdfrwt>
<pdfrwt beam="2">  1       -1 0.24577925E-01 0.60519020E+03</pdfrwt>
<totfact> 0.53280938E+02</totfact>
</mgrwt>
</event>
<event>
 4    0  0.1264838E-002  0.4488422E+03  0.7546771E-02  0.1028068E+00
         -2   -1    0    0    0  501 -0.00000000000E+00  0.00000000000E+00  0.19576555562E+02  0.19576555562E+02  0.00000000000E+00 0. -1.
          2   -1    0    0  502    0  0.00000000000E+00 -0.00000000000E+00 -0.25727110105E+04  0.25727110105E+04  0.00000000000E+00 0.  1.
         25    1    1    2    0    0  0.17617574405E+03 -0.10865621333E+03 -0.13562310506E+04  0.13776181358E+04  0.12500000000E+03 0.  0.
         21    1    1    2  502  501 -0.17617574405E+03  0.10865621333E+03 -0.11969034044E+04  0.12146694303E+04  0.00000000000E+00 0.  1.
<mgrwt>
<rscale>  3 0.44884216E+03</rscale>
<asrwt>0</asrwt>
<pdfrwt beam="1">  1        2 0.39580196E+00 0.44884216E+03</pdfrwt>
<pdfrwt beam="2">  1       -2 0.30117758E-02 0.44884216E+03</pdfrwt>
<totfact> 0.15117478E+03</totfact>
</mgrwt>
</event>
<event>
 4    0  0.1264838E-002  0.1125693E+04  0.7546771E-02  0.9180506E-01
          1   -1    0    0  502    0  0.00000000000E+00  0.00000000000E+00  0.71883749568E+03  0.71883749568E+03  0.00000000000E+00 0.  1.
         -1   -1    0    0    0  501 -0.00000000000E+00 -0.00000000000E+00 -0.44070607437E+03  0.44070607437E+03  0.00000000000E+00 0. -1.
         25    1    1    2    0    0 -0.53428799981E+03  0.98221741366E+02  0.19247175248E+02  0.55776933492E+03  0.12500000000E+03 0.  0.
         21    1    1    2  502  501  0.53428799981E+03 -0.98221741366E+02  0.25888424606E+03  0.60177423514E+03  0.00000000000E+00 0.  1.
<mgrwt>
<rscale>  3 0.11256928E+04</rscale>
<asrwt>0</asrwt>
<pdfrwt beam="1">  1        1 0.11059038E+00 0.11256928E+04</pdfrwt>
<pdfrwt beam="2">  1       -1 0.67800935E-01 0.11256928E+04</pdfrwt>
<totfact> 0.57338304E+01</totfact>
</mgrwt>
</event>
<event>
 4    0  0.1264838E-002  0.7318359E+03  0.7546771E-02  0.9664286E-01
          1   -1    0    0  502    0  0.00000000000E+00  0.00000000000E+00  0.88788188967E+03  0.88788188967E+03  0.00000000000E+00 0. -1.
         -1   -1    0    0    0  501 -0.00000000000E+00 -0.00000000000E+00 -0.15080378888E+03  0.15080378888E+03  0.00000000000E+00 0.  1.
         25    1    1    2    0    0  0.26651382170E+03 -0.22654148572E+03  0.29126340657E+03  0.47202757749E+03  0.12500000000E+03 0.  0.
         21    1    1    2  502  501 -0.26651382170E+03  0.22654148572E+03  0.44581469423E+03  0.56665810106E+03  0.00000000000E+00 0. -1.
<mgrwt>
<rscale>  3 0.73183592E+03</rscale>
<asrwt>0</asrwt>
<pdfrwt beam="1">  1        1 0.13659721E+00 0.73183592E+03</pdfrwt>
<pdfrwt beam="2">  1       -1 0.23200583E-01 0.73183592E+03</pdfrwt>
<totfact> 0.29962899E+02</totfact>
</mgrwt>
</event>
<event>
 4    0  0.1264838E-002  0.5864868E+03  0.7546771E-02  0.9933845E-01
         -2   -1    0    0    0  501 -0.00000000000E+00  0.00000000000E+00  0.55755617936E+02  0.55755617936E+02  0.00000000000E+00 0.  1.
          2   -1    0    0  502    0  0.00000000000E+00 -0.00000000000E+00 -0.15422965200E+04  0.15422965200E+04  0.00000000000E+00 0. -1.
         25    1    1    2    0    0 -0.87499364027E+02 -0.25348436776E+03 -0.99580218396E+03  0.10388250348E+04  0.12500000000E+03 0.  0.
         21    1    1    2  502  501  0.87499364027E+02  0.25348436776E+03 -0.49073871808E+03  0.55922710309E+03  0.00000000000E+00 0.  1.
<mgrwt>
<rscale>  3 0.58648681E+03</rscale>
<asrwt>0</asrwt>
<pdfrwt beam="1">  1        2 0.23727638E+00 0.58648681E+03</pdfrwt>
<pdfrwt beam="2">  1       -2 0.85777878E-02 0.58648681E+03</pdfrwt>
<totfact> 0.10784077E+03</totfact>
</mgrwt>
</event>
<event>
 4    0  0.1264838E-002  0.5680067E+03  0.7546771E-02  0.9974099E-01
         -1   -1    0    0    0  501 -0.00000000000E+00  0.00000000000E+00  0.16275953773E+03  0.16275953773E+03  0.00000000000E+00 0. -1.
          1   -1    0    0  502    0  0.00000000000E+00 -0.00000000000E+00 -0.49556482507E+03  0.49556482507E+03  0.00000000000E+00 0.  1.
         25    1    1    2    0    0  0.26987963349E+03 -0.12726639112E+02 -0.18156812064E+03  0.34869609454E+03  0.12500000000E+03 0.  0.
         21    1    1    2  502  501 -0.26987963349E+03  0.12726639112E+02 -0.15123716670E+03  0.30962826826E+03  0.00000000000E+00 0. -1.
<mgrwt>
<rscale>  3 0.56800670E+03</rscale>
<asrwt>0</asrwt>
<pdfrwt beam="1">  1        1 0.76240742E-01 0.56800670E+03</pdfrwt>
<pdfrwt beam="2">  1       -1 0.25039929E-01 0.56800670E+03</pdfrwt>
<totfact> 0.63216016E+02</totfact>
</mgrwt>
</event>
<event>
 4    0  0.1264838E-002  0.6030263E+03  0.7546771E-02  0.9899147E-01
          1   -1    0    0  502    0  0.00000000000E+00  0.00000000000E+00  0.44163305938E+03  0.44163305938E+03  0.00000000000E+00 0.  1.
         -1   -1    0    0    0  501 -0.00000000000E+00 -0.00000000000E+00 -0.20585002121E+03  0.20585002121E+03  0.00000000000E+00 0. -1.
         25    1    1    2    0    0  0.17565793106E+03 -0.21990902779E+03  0.54627241707E+02  0.31276960336E+03  0.12500000000E+03 0.  0.
         21    1    1    2  502  501 -0.17565793106E+03  0.21990902779E+03  0.18115579647E+03  0.33471347723E+03  0.00000000000E+00 0. -1.
<mgrwt>
<rscale>  3 0.60302628E+03</rscale>
<asrwt>0</asrwt>
<pdfrwt beam="1">  1        1 0.67943547E-01 0.60302628E+03</pdfrwt>
<pdfrwt beam="2">  1       -1 0.31669234E-01 0.60302628E+03</pdfrwt>
<totfact> 0.49234872E+02</totfact>
</mgrwt>
</event>
<event>
 4    0  0.1264838E-002  0.6538609E+03  0.7546771E-02  0.9799561E-01
         -1   -1    0    0    0  501 -0.00000000000E+00  0.00000000000E+00  0.25942550371E+03  0.25942550371E+03  0.00000000000E+00 0. -1.
          1   -1    0    0  502    0  0.00000000000E+00 -0.00000000000E+00 -0.41200075880E+03  0.41200075880E+03  0.00000000000E+00 0.  1.
         25    1    1    2    0    0  0.25845296283E+03 -0.17227566006E+03 -0.13279677113E+03  0.36018997691E+03  0.12500000000E+03 0.  0.
         21    1    1    2  502  501 -0.25845296283E+03  0.17227566006E+03 -0.19778483957E+02  0.31123628560E+03  0.00000000000E+00 0. -1.
<mgrwt>
<rscale>  3 0.65386085E+03</rscale>
<asrwt>0</asrwt>
<pdfrwt beam="1">  1        1 0.63384732E-01 0.65386085E+03</pdfrwt>
<pdfrwt beam="2">  1       -1 0.39911616E-01 0.65386085E+03</pdfrwt>
<totfact> 0.35718116E+02</totfact>
</mgrwt>
</event>
<event>
 4    0  0.1264838E-002  0.6787703E+03  0.7546771E-02  0.9754243E-01
         -2   -1    0    0    0  501 -0.00000000000E+00  0.00000000000E+00  0.63060363396E+02  0.63060363396E+02  0.00000000000E+00 0.  1.
          2   -1    0    0  502    0  0.00000000000E+00 -0.00000000000E+00 -0.18265402962E+04  0.18265402962E+04  0.00000000000E+00 0. -1.
         25    1    1    2    0    0  0.11178103551E+03 -0.29032307435E+03 -0.11998736212E+04  0.12458347379E+04  0.12500000000E+03 0.  0.
         21    1    1    2  502  501 -0.11178103551E+03  0.29032307435E+03 -0.56360631155E+03  0.64376592160E+03  0.00000000000E+00 0.  1.
<mgrwt>
<rscale>  3 0.67877034E+03</rscale>
<asrwt>0</asrwt>
<pdfrwt beam="1">  1        2 0.28100613E+00 0.67877034E+03</pdfrwt>
<pdfrwt beam="2">  1       -2 0.97015968E-02 0.67877034E+03</pdfrwt>
<totfact> 0.61576613E+02</totfact>
</mgrwt>
</event>
<event>
 4    0  0.1264838E-002  0.8544792E+03  0.7546771E-02  0.9484345E-01
         -2   -1    0    0    0  501 -0.00000000000E+00  0.00000000000E+00  0.72988219796E+03  0.72988219796E+03  0.00000000000E+00 0. -1.
          2   -1    0    0  502    0  0.00000000000E+00 -0.00000000000E+00 -0.25008650950E+03  0.25008650950E+03  0.00000000000E+00 0.  1.
         25    1    1    2    0    0 -0.39151904373E+03  0.12519852644E+03  0.33269682797E+03  0.54339121447E+03  0.12500000000E+03 0.  0.
         21    1    1    2  502  501  0.39151904373E+03 -0.12519852644E+03  0.14709886049E+03  0.43657749299E+03  0.00000000000E+00 0.  1.
<mgrwt>
<rscale>  3 0.85447924E+03</rscale>
<asrwt>0</asrwt>
<pdfrwt beam="1">  1        2 0.38474848E-01 0.85447924E+03</pdfrwt>
<pdfrwt beam="2">  1       -2 0.11228957E+00 0.85447924E+03</pdfrwt>
<totfact> 0.84490756E+01</totfact>
</mgrwt>
</event>
<event>
 4    0  0.1264838E-002  0.8058213E+03  0.7546771E-02  0.9551629E-01
          2   -1    0    0  502    0  0.00000000000E+00  0.00000000000E+00  0.19342131238E+04  0.19342131238E+04  0.00000000000E+00 0. -1.
         -2   -1    0    0    0  501 -0.00000000000E+00 -0.00000000000E+00 -0.83929211245E+02  0.83929211245E+02  0.00000000000E+00 0.  1.
         25    1    1    2    0    0 -0.12726898540E+03 -0.37013090067E+03  0.85288881584E+03  0.94669879606E+03  0.12500000000E+03 0.  0.
         21    1    1    2  502  501  0.12726898540E+03  0.37013090067E+03  0.99739509668E+03  0.10714435390E+04  0.00000000000E+00 0. -1.
<mgrwt>
<rscale>  3 0.80582128E+03</rscale>
<asrwt>0</asrwt>
<pdfrwt beam="1">  1        2 0.29757122E+00 0.80582128E+03</pdfrwt>
<pdfrwt beam="2">  1       -2 0.12912188E-01 0.80582128E+03</pdfrwt>
<totfact> 0.33337506E+02</totfact>
</mgrwt>
</event>
<event>
 4    0  0.1264838E-002  0.5638963E+03  0.7546771E-02  0.9983277E-01
         -2   -1    0    0    0  501 -0.00000000000E+00  0.00000000000E+00  0.90977758574E+02  0.90977758574E+02  0.00000000000E+00 0. -1.
          2   -1    0    0  502    0  0.00000000000E+00 -0.00000000000E+00 -0.87378245096E+03  0.87378245096E+03  0.00000000000E+00 0.  1.
         25    1    1    2    0    0  0.21700699622E+03  0.12141381814E+03 -0.23919781684E+03  0.36697949156E+03  0.12500000000E+03 0.  0.
         21    1    1    2  502  501 -0.21700699622E+03 -0.12141381814E+03 -0.54360687554E+03  0.59778071797E+03  0.00000000000E+00 0. -1.
<mgrwt>
<rscale>  3 0.56389633E+03</rscale>
<asrwt>0</asrwt>
<pdfrwt beam="1">  1        2 0.13442807E+00 0.56389633E+03</pdfrwt>
<pdfrwt beam="2">  1       -2 0.13996578E-01 0.56389633E+03</pdfrwt>
<totfact> 0.12100401E+03</totfact>
</mgrwt>
</event>
<event>
 4    0  0.1264838E-002  0.4908188E+03  0.7546771E-02  0.1016204E+00
         -2   -1    0    0    0  501 -0.00000000000E+00  0.00000000000E+00  0.74040790142E+03  0.74040790142E+03  0.00000000000E+00 0. -1.
          2   -1    0    0  502    0  0.00000000000E+00 -0.00000000000E+00 -0.81341328505E+02  0.81341328505E+02  0.00000000000E+00 0.  1.
         25    1    1    2    0    0  0.16629570020E+03 -0.13321877710E+03  0.20820173770E+03  0.32307037323E+03  0.12500000000E+03 0.  0.
         21    1    1    2  502  501 -0.16629570020E+03  0.13321877710E+03  0.45086483522E+03  0.49867885669E+03  0.00000000000E+00 0. -1.
<mgrwt>
<rscale>  3 0.49081875E+03</rscale>
<asrwt>0</asrwt>
<pdfrwt beam="1">  1        2 0.12514051E-01 0.49081875E+03</pdfrwt>
<pdfrwt beam="2">  1       -2 0.11390890E+00 0.49081875E+03</pdfrwt>
<totfact> 0.30630763E+02</totfact>
</mgrwt>
</event>
<event>
 4    0  0.1264838E-002  0.4841800E+03  0.7546771E-02  0.1017993E+00
          2   -1    0    0  502    0  0.00000000000E+00  0.00000000000E+00  0.40021259114E+03  0.40021259114E+03  0.00000000000E+00 0.  1.
         -2   -1    0    0    0  501 -0.00000000000E+00 -0.00000000000E+00 -0.14644108744E+03  0.14644108744E+03  0.00000000000E+00 0. -1.
         25    1    1    2    0    0 -0.10017084511E+03 -0.19636298378E+03  0.19137275899E+03  0.31755495979E+03  0.12500000000E+03 0.  0.
         21    1    1    2  502  501  0.10017084511E+03  0.19636298378E+03  0.62398744721E+02  0.22909871879E+03  0.00000000000E+00 0.  1.
<mgrwt>
<rscale>  3 0.48418000E+03</rscale>
<asrwt>0</asrwt>
<pdfrwt beam="1">  1        2 0.61571167E-01 0.48418000E+03</pdfrwt>
<pdfrwt beam="2">  1       -2 0.22529398E-01 0.48418000E+03</pdfrwt>
<totfact> 0.13713421E+03</totfact>
</mgrwt>
</event>
<event>
 4    0  0.1264838E-002  0.8487000E+03  0.7546771E-02  0.9492083E-01
          1   -1    0    0  502    0  0.00000000000E+00  0.00000000000E+00  0.27374330531E+04  0.27374330531E+04  0.00000000000E+00 0. -1.
         -1   -1    0    0    0  501 -0.00000000000E+00 -0.00000000000E+00 -0.65781675735E+02  0.65781675735E+02  0.00000000000E+00 0.  1.
         25    1    1    2    0    0  0.12374309970E+03 -0.19914972623E+03  0.24963819544E+04  0.25104821908E+04  0.12500000000E+03 0.  0.
         21    1    1    2  502  501 -0.12374309970E+03  0.19914972623E+03  0.17526942295E+03  0.29273253800E+03  0.00000000000E+00 0.  1.
<mgrwt>
<rscale>  3 0.84870003E+03</rscale>
<asrwt>0</asrwt>
<pdfrwt beam="1">  1        1 0.42114346E+00 0.84870003E+03</pdfrwt>
<pdfrwt beam="2">  1       -1 0.10120260E-01 0.84870003E+03</pdfrwt>
<totfact> 0.59322256E+01</totfact>
</mgrwt>
</event>
<event>
 4    0  0.1264838E-002  0.5209096E+03  0.7546771E-02  0.1008461E+00
         -2   -1    0    0    0  501 -0.00000000000E+00  0.00000000000E+00  0.38423435064E+03  0.38423435064E+03  0.00000000000E+00 0.  1.
          2   -1    0    0  502    0  0.00000000000E+00 -0.00000000000E+00 -0.17655031475E+03  0.17655031475E+03  0.00000000000E+00 0. -1.
         25    1    1    2    0    0 -0.20550336890E+03 -0.17606245994E+02  0.25307749560E+03  0.34959238165E+03  0.12500000000E+03 0.  0.
         21    1    1    2  502  501  0.20550336890E+03  0.17606245994E+02 -0.45393459713E+02  0.21119228374E+03  0.00000000000E+00 0. -1.
<mgrwt>
<rscale>  3 0.52090957E+03</rscale>
<asrwt>0</asrwt>
<pdfrwt beam="1">  1        2 0.27161587E-01 0.52090957E+03</pdfrwt>
<pdfrwt beam="2">  1       -2 0.59112977E-01 0.52090957E+03</pdfrwt>
<totfact> 0.53682790E+02</totfact>
</mgrwt>
</event>
<event>
 4    0  0.1264838E-002  0.7613182E+03  0.7546771E-02  0.9617759E-01
         -2   -1    0    0    0  501 -0.00000000000E+00  0.00000000000E+00  0.44068365345E+03  0.44068365345E+03  0.00000000000E+00 0.  1.
          2   -1    0    0  502    0  0.00000000000E+00 -0.00000000000E+00 -0.32881031648E+03  0.32881031648E+03  0.00000000000E+00 0. -1.
         25    1    1    2    0    0 -0.27299029572E+03 -0.23298103163E+03  0.15002672421E+03  0.40857909961E+03  0.12500000000E+03 0.  0.
         21    1    1    2  502  501  0.27299029572E+03  0.23298103163E+03 -0.38153387240E+02  0.36091487032E+03  0.00000000000E+00 0.  1.
<mgrwt>
<rscale>  3 0.76131815E+03</rscale>
<asrwt>0</asrwt>
<pdfrwt beam="1">  1        2 0.50586202E-01 0.76131815E+03</pdfrwt>
<pdfrwt beam="2">  1       -2 0.67797486E-01 0.76131815E+03</pdfrwt>
<totfact> 0.19924850E+02</totfact>
</mgrwt>
</event>
<event>
 4    0  0.1264838E-002  0.7284337E+03  0.7546771E-02  0.9669805E-01
          1   -1    0    0  502    0  0.00000000000E+00  0.00000000000E+00  0.29576441354E+04  0.29576441354E+04  0.00000000000E+00 0. -1.
         -1   -1    0    0    0  501 -0.00000000000E+00 -0.00000000000E+00 -0.44851206476E+02  0.44851206476E+02  0.00000000000E+00 0.  1.
         25    1    1    2    0    0 -0.32383430207E+03  0.10930741476E+03  0.18711567565E+04  0.19062186059E+04  0.12500000000E+03 0.  0.
         21    1    1    2  502  501  0.32383430207E+03 -0.10930741476E+03  0.10416361724E+04  0.10962767360E+04  0.00000000000E+00 0.  1.
<mgrwt>
<rscale>  3 0.72843368E+03</rscale>
<asrwt>0</asrwt>
<pdfrwt beam="1">  1        1 0.45502202E+00 0.72843368E+03</pdfrwt>
<pdfrwt beam="2">  1       -1 0.69001879E-02 0.72843368E+03</pdfrwt>
<totfact> 0.76753771E+01</totfact>
</mgrwt>
</event>
<event>
 4    0  0.1264838E-002  0.5583749E+03  0.7546771E-02  0.9995738E-01
         -3   -1    0    0    0  501 -0.00000000000E+00  0.00000000000E+00  0.17893940820E+03  0.17893940820E+03  0.00000000000E+00 0.  1.
          3   -1    0    0  502    0  0.00000000000E+00 -0.00000000000E+00 -0.43559794799E+03  0.43559794799E+03  0.00000000000E+00 0. -1.
         25    1    1    2    0    0 -0.15712295219E+03  0.18899356034E+03 -0.24439256380E+03  0.36845476411E+03  0.12500000000E+03 0.  0.
         21    1    1    2  502  501  0.15712295219E+03 -0.18899356034E+03 -0.12265975987E+02  0.24608259208E+03  0.00000000000E+00 0.  1.
<mgrwt>
<rscale>  3 0.55837492E+03</rscale>
<asrwt>0</asrwt>
<pdfrwt beam="1">  1        3 0.67015067E-01 0.55837492E+03</pdfrwt>
<pdfrwt beam="2">  1       -3 0.27529140E-01 0.55837492E+03</pdfrwt>
<totfact> 0.71711271E+01</totfact>
</mgrwt>
</event>
<event>
 4    0  0.1264838E-002  0.4654750E+03  0.7546771E-02  0.1023205E+00
          1   -1    0    0  502    0  0.00000000000E+00  0.00000000000E+00  0.80495897349E+02  0.80495897349E+02  0.00000000000E+00 0.  1.
         -1   -1    0    0    0  501 -0.00000000000E+00 -0.00000000000E+00 -0.67291296733E+03  0.67291296733E+03  0.00000000000E+00 0. -1.
         25    1    1    2    0    0 -0.11064171638E+03  0.16793573789E+03 -0.44493393857E+03  0.50401905832E+03  0.12500000000E+03 0.  0.
         21    1    1    2  502  501  0.11064171638E+03 -0.16793573789E+03 -0.14748313142E+03  0.24938980636E+03  0.00000000000E+00 0.  1.
<mgrwt>
<rscale>  3 0.46547495E+03</rscale>
<asrwt>0</asrwt>
<pdfrwt beam="1">  1        1 0.12383984E-01 0.46547495E+03</pdfrwt>
<pdfrwt beam="2">  1       -1 0.10352507E+00 0.46547495E+03</pdfrwt>
<totfact> 0.44748560E+02</totfact>
</mgrwt>
</event>
<event>
 4    0  0.1264838E-002  0.4804588E+03  0.7546771E-02  0.1019009E+00
          2   -1    0    0  502    0  0.00000000000E+00  0.00000000000E+00  0.65231218562E+03  0.65231218562E+03  0.00000000000E+00 0. -1.
         -2   -1    0    0    0  501 -0.00000000000E+00 -0.00000000000E+00 -0.88470154654E+02  0.88470154654E+02  0.00000000000E+00 0.  1.
         25    1    1    2    0    0  0.47275881055E+02 -0.21824636352E+03  0.32751119629E+03  0.41563814528E+03  0.12500000000E+03 0.  0.
         21    1    1    2  502  501 -0.47275881055E+02  0.21824636352E+03  0.23633083468E+03  0.32514419499E+03  0.00000000000E+00 0. -1.
<mgrwt>
<rscale>  3 0.48045878E+03</rscale>
<asrwt>0</asrwt>
<pdfrwt beam="1">  1        2 0.10035572E+00 0.48045878E+03</pdfrwt>
<pdfrwt beam="2">  1       -2 0.13610793E-01 0.48045878E+03</pdfrwt>
<totfact> 0.18454728E+03</totfact>
</mgrwt>
</event>
<event>
 4    0  0.1264838E-002  0.5179355E+03  0.7546771E-02  0.1009201E+00
          2   -1    0    0  502    0  0.00000000000E+00  0.00000000000E+00  0.58705587988E+02  0.58705587988E+02  0.00000000000E+00 0. -1.
         -2   -1    0    0    0  501 -0.00000000000E+00 -0.00000000000E+00 -0.11423834013E+04  0.11423834013E+04  0.00000000000E+00 0.  1.
         25    1    1    2    0    0 -0.54051822253E+02  0.19569485260E+03 -0.88677426351E+03  0.91826557664E+03  0.12500000000E+03 0.  0.
         21    1    1    2  502  501  0.54051822253E+02 -0.19569485260E+03 -0.19690354983E+03  0.28282341268E+03  0.00000000000E+00 0. -1.
<mgrwt>
<rscale>  3 0.51793548E+03</rscale>
<asrwt>0</asrwt>
<pdfrwt beam="1">  1        2 0.90316289E-02 0.51793548E+03</pdfrwt>
<pdfrwt beam="2">  1       -2 0.17575129E+00 0.51793548E+03</pdfrwt>
<totfact> 0.15031781E+02</totfact>
</mgrwt>
</event>
<event>
 4    0  0.1552853E-002  0.6452599E+03  0.7546771E-02  0.9815715E-01
          1   -1    0    0  502    0  0.00000000000E+00  0.00000000000E+00  0.11309161797E+04  0.11309161797E+04  0.00000000000E+00 0. -1.
         -1   -1    0    0    0  501 -0.00000000000E+00 -0.00000000000E+00 -0.92040492737E+02  0.92040492737E+02  0.00000000000E+00 0.  1.
         25    1    1    2    0    0 -0.14734831112E+03  0.14074020372E+03  0.94830112412E+02  0.25717130469E+03  0.12500000000E+03 0.  0.
         21    1    1    2  502  501  0.14734831112E+03 -0.14074020372E+03  0.94404557460E+03  0.96578536780E+03  0.00000000000E+00 0. -1.
<mgrwt>
<rscale>  3 0.64525989E+03</rscale>
<asrwt>0</asrwt>
<pdfrwt beam="1">  1        1 0.17398710E+00 0.64525989E+03</pdfrwt>
<pdfrwt beam="2">  1       -1 0.14160077E-01 0.64525989E+03</pdfrwt>
<totfact> 0.44126491E+02</totfact>
</mgrwt>
</event>
<event>
 4    0  0.1264838E-002  0.5391795E+03  0.7546771E-02  0.1004030E+00
         -2   -1    0    0    0  501 -0.00000000000E+00  0.00000000000E+00  0.22180533949E+03  0.22180533949E+03  0.00000000000E+00 0. -1.
          2   -1    0    0  502    0  0.00000000000E+00 -0.00000000000E+00 -0.32766850954E+03  0.32766850954E+03  0.00000000000E+00 0.  1.
         25    1    1    2    0    0  0.88844226448E+02  0.20725051701E+03  0.65790629564E+02  0.26608171736E+03  0.12500000000E+03 0.  0.
         21    1    1    2  502  501 -0.88844226448E+02 -0.20725051701E+03 -0.17165379961E+03  0.28339213167E+03  0.00000000000E+00 0.  1.
<mgrwt>
<rscale>  3 0.53917947E+03</rscale>
<asrwt>0</asrwt>
<pdfrwt beam="1">  1        2 0.50410539E-01 0.53917947E+03</pdfrwt>
<pdfrwt beam="2">  1       -2 0.34123899E-01 0.53917947E+03</pdfrwt>
<totfact> 0.80339929E+02</totfact>
</mgrwt>
</event>
<event>
 4    0  0.1264838E-002  0.4729752E+03  0.7546771E-02  0.1021084E+00
         -2   -1    0    0    0  501 -0.00000000000E+00  0.00000000000E+00  0.11147182210E+03  0.11147182210E+03  0.00000000000E+00 0.  1.
          2   -1    0    0  502    0  0.00000000000E+00 -0.00000000000E+00 -0.50170861208E+03  0.50170861208E+03  0.00000000000E+00 0. -1.
         25    1    1    2    0    0 -0.20224295796E+03  0.71403259598E+02 -0.27207408669E+03  0.36830686686E+03  0.12500000000E+03 0.  0.
         21    1    1    2  502  501  0.20224295796E+03 -0.71403259598E+02 -0.11816270328E+03  0.24487356732E+03  0.00000000000E+00 0.  1.
<mgrwt>
<rscale>  3 0.47297515E+03</rscale>
<asrwt>0</asrwt>
<pdfrwt beam="1">  1        2 0.77185940E-01 0.47297515E+03</pdfrwt>
<pdfrwt beam="2">  1       -2 0.17149511E-01 0.47297515E+03</pdfrwt>
<totfact> 0.17047960E+03</totfact>
</mgrwt>
</event>
<event>
 4    0  0.1264838E-002  0.5202692E+03  0.7546771E-02  0.1008620E+00
          2   -1    0    0  502    0  0.00000000000E+00  0.00000000000E+00  0.22134975188E+03  0.22134975188E+03  0.00000000000E+00 0. -1.
         -2   -1    0    0    0  501 -0.00000000000E+00 -0.00000000000E+00 -0.30571533968E+03  0.30571533968E+03  0.00000000000E+00 0.  1.
         25    1    1    2    0    0  0.21258440643E+02 -0.22802772571E+03  0.43898790743E+02  0.26457639505E+03  0.12500000000E+03 0.  0.
         21    1    1    2  502  501 -0.21258440643E+02  0.22802772571E+03 -0.12826437855E+03  0.26248869651E+03  0.00000000000E+00 0.  1.
<mgrwt>
<rscale>  3 0.52026922E+03</rscale>
<asrwt>0</asrwt>
<pdfrwt beam="1">  1        2 0.34053808E-01 0.52026922E+03</pdfrwt>
<pdfrwt beam="2">  1       -2 0.47033129E-01 0.52026922E+03</pdfrwt>
<totfact> 0.66496036E+02</totfact>
</mgrwt>
</event>
<event>
 4    0  0.1264838E-002  0.5121164E+03  0.7546771E-02  0.1010664E+00
         -2   -1    0    0    0  501 -0.00000000000E+00  0.00000000000E+00  0.25179275133E+02  0.25179275133E+02  0.00000000000E+00 0.  1.
          2   -1    0    0  502    0  0.00000000000E+00 -0.00000000000E+00 -0.26039589931E+04  0.26039589931E+04  0.00000000000E+00 0. -1.
         25    1    1    2    0    0 -0.86435419636E+02  0.19270721540E+03 -0.77238899167E+03  0.81044241442E+03  0.12500000000E+03 0.  0.
         21    1    1    2  502  501  0.86435419636E+02 -0.19270721540E+03 -0.18063907263E+04  0.18186958538E+04  0.00000000000E+00 0. -1.
<mgrwt>
<rscale>  3 0.51211639E+03</rscale>
<asrwt>0</asrwt>
<pdfrwt beam="1">  1        2 0.40060916E+00 0.51211639E+03</pdfrwt>
<pdfrwt beam="2">  1       -2 0.38737338E-02 0.51211639E+03</pdfrwt>
<totfact> 0.98471364E+02</totfact>
</mgrwt>
</event>
<event>
 4    0  0.1264838E-002  0.7283665E+03  0.7546771E-02  0.9669915E-01
         -2   -1    0    0    0  501 -0.00000000000E+00  0.00000000000E+00  0.30984919464E+03  0.30984919464E+03  0.00000000000E+00 0.  1.
          2   -1    0    0  502    0  0.00000000000E+00 -0.00000000000E+00 -0.42804511727E+03  0.42804511727E+03  0.00000000000E+00 0. -1.
         25    1    1    2    0    0 -0.19381543395E+03 -0.27389073827E+03 -0.17342928942E+03  0.39784830951E+03  0.12500000000E+03 0.  0.
         21    1    1    2  502  501  0.19381543395E+03  0.27389073827E+03  0.55233366789E+02  0.34004600241E+03  0.00000000000E+00 0.  1.
<mgrwt>
<rscale>  3 0.72836649E+03</rscale>
<asrwt>0</asrwt>
<pdfrwt beam="1">  1        2 0.65853095E-01 0.72836649E+03</pdfrwt>
<pdfrwt beam="2">  1       -2 0.47669107E-01 0.72836649E+03</pdfrwt>
<totfact> 0.30971361E+02</totfact>
</mgrwt>
</event>
<event>
 4    0  0.1264838E-002  0.5204711E+03  0.7546771E-02  0.1008570E+00
         -2   -1    0    0    0  501 -0.00000000000E+00  0.00000000000E+00  0.79366764206E+02  0.79366764206E+02  0.00000000000E+00 0. -1.
          2   -1    0    0  502    0  0.00000000000E+00 -0.00000000000E+00 -0.85328581022E+03  0.85328581022E+03  0.00000000000E+00 0.  1.
         25    1    1    2    0    0  0.20903186971E+03  0.91974073835E+02 -0.24918598040E+03  0.36037786508E+03  0.12500000000E+03 0.  0.
         21    1    1    2  502  501 -0.20903186971E+03 -0.91974073835E+02 -0.52473306561E+03  0.57227470934E+03  0.00000000000E+00 0.  1.
<mgrwt>
<rscale>  3 0.52047107E+03</rscale>
<asrwt>0</asrwt>
<pdfrwt beam="1">  1        2 0.13127473E+00 0.52047107E+03</pdfrwt>
<pdfrwt beam="2">  1       -2 0.12210272E-01 0.52047107E+03</pdfrwt>
<totfact> 0.15677843E+03</totfact>
</mgrwt>
</event>
<event>
 4    0  0.1264838E-002  0.8296465E+03  0.7546771E-02  0.9518069E-01
         -2   -1    0    0    0  501 -0.00000000000E+00  0.00000000000E+00  0.70800401729E+03  0.70800401729E+03  0.00000000000E+00 0. -1.
          2   -1    0    0  502    0  0.00000000000E+00 -0.00000000000E+00 -0.24304710526E+03  0.24304710526E+03  0.00000000000E+00 0.  1.
         25    1    1    2    0    0 -0.10174385799E+03  0.25197431841E+03  0.58263181521E+03  0.65492572241E+03  0.12500000000E+03 0.  0.
         21    1    1    2  502  501  0.10174385799E+03 -0.25197431841E+03 -0.11767490317E+03  0.29612540015E+03  0.00000000000E+00 0.  1.
<mgrwt>
<rscale>  3 0.82964650E+03</rscale>
<asrwt>0</asrwt>
<pdfrwt beam="1">  1        2 0.37391863E-01 0.82964650E+03</pdfrwt>
<pdfrwt beam="2">  1       -2 0.10892369E+00 0.82964650E+03</pdfrwt>
<totfact> 0.94019082E+01</totfact>
</mgrwt>
</event>
<event>
 4    0  0.1264838E-002  0.4389968E+03  0.7546771E-02  0.1031055E+00
          2   -1    0    0  502    0  0.00000000000E+00  0.00000000000E+00  0.32368665425E+04  0.32368665425E+04  0.00000000000E+00 0.  1.
         -2   -1    0    0    0  501 -0.00000000000E+00 -0.00000000000E+00 -0.14884628657E+02  0.14884628657E+02  0.00000000000E+00 0. -1.
         25    1    1    2    0    0 -0.13310772789E+03 -0.15154107067E+03  0.17328411338E+04  0.17490127954E+04  0.12500000000E+03 0.  0.
         21    1    1    2  502  501  0.13310772789E+03  0.15154107067E+03  0.14891407800E+04  0.15027383757E+04  0.00000000000E+00 0.  1.
<mgrwt>
<rscale>  3 0.43899684E+03</rscale>
<asrwt>0</asrwt>
<pdfrwt beam="1">  1        2 0.49797891E+00 0.43899684E+03</pdfrwt>
<pdfrwt beam="2">  1       -2 0.22899454E-02 0.43899684E+03</pdfrwt>
<totfact> 0.92146650E+02</totfact>
</mgrwt>
</event>
<event>
 4    0  0.1264838E-002  0.5639682E+03  0.7546771E-02  0.9983116E-01
         -2   -1    0    0    0  501 -0.00000000000E+00  0.00000000000E+00  0.30136897239E+03  0.30136897239E+03  0.00000000000E+00 0.  1.
          2   -1    0    0  502    0  0.00000000000E+00 -0.00000000000E+00 -0.26384612269E+03  0.26384612269E+03  0.00000000000E+00 0. -1.
         25    1    1    2    0    0  0.59257361069E+02 -0.24124530117E+03  0.12082054477E+03  0.30320510255E+03  0.12500000000E+03 0.  0.
         21    1    1    2  502  501 -0.59257361069E+02  0.24124530117E+03 -0.83297695068E+02  0.26200999252E+03  0.00000000000E+00 0. -1.
<mgrwt>
<rscale>  3 0.56396821E+03</rscale>
<asrwt>0</asrwt>
<pdfrwt beam="1">  1        2 0.40591711E-01 0.56396821E+03</pdfrwt>
<pdfrwt beam="2">  1       -2 0.46364457E-01 0.56396821E+03</pdfrwt>
<totfact> 0.56304326E+02</totfact>
</mgrwt>
</event>
<event>
 4    0  0.1264838E-002  0.4926583E+03  0.7546771E-02  0.1015713E+00
         -1   -1    0    0    0  501 -0.00000000000E+00  0.00000000000E+00  0.42482698995E+03  0.42482698995E+03  0.00000000000E+00 0. -1.
          1   -1    0    0  502    0  0.00000000000E+00 -0.00000000000E+00 -0.14283005437E+03  0.14283005437E+03  0.00000000000E+00 0.  1.
         25    1    1    2    0    0  0.18897897950E+03 -0.12847370776E+03  0.11553760091E+03  0.28494295132E+03  0.12500000000E+03 0.  0.
         21    1    1    2  502  501 -0.18897897950E+03  0.12847370776E+03  0.16645933468E+03  0.28271409300E+03  0.00000000000E+00 0.  1.
<mgrwt>
<rscale>  3 0.49265835E+03</rscale>
<asrwt>0</asrwt>
<pdfrwt beam="1">  1        1 0.21973855E-01 0.49265835E+03</pdfrwt>
<pdfrwt beam="2">  1       -1 0.65357998E-01 0.49265835E+03</pdfrwt>
<totfact> 0.55548247E+02</totfact>
</mgrwt>
</event>
<event>
 4    0  0.1264838E-002  0.5534277E+03  0.7546771E-02  0.1000704E+00
          3   -1    0    0  502    0  0.00000000000E+00  0.00000000000E+00  0.40196948735E+03  0.40196948735E+03  0.00000000000E+00 0.  1.
         -3   -1    0    0    0  501 -0.00000000000E+00 -0.00000000000E+00 -0.19048850005E+03  0.19048850005E+03  0.00000000000E+00 0. -1.
         25    1    1    2    0    0 -0.17066832718E+03 -0.11080159803E+03  0.28883118943E+03  0.37477076729E+03  0.12500000000E+03 0.  0.
         21    1    1    2  502  501  0.17066832718E+03  0.11080159803E+03 -0.77350202134E+02  0.21768722011E+03  0.00000000000E+00 0. -1.
<mgrwt>
<rscale>  3 0.55342774E+03</rscale>
<asrwt>0</asrwt>
<pdfrwt beam="1">  1        3 0.61841459E-01 0.55342774E+03</pdfrwt>
<pdfrwt beam="2">  1       -3 0.29305923E-01 0.55342774E+03</pdfrwt>
<totfact> 0.75654316E+01</totfact>
</mgrwt>
</event>
<event>
 4    0  0.1433454E-002  0.5517574E+03  0.7546771E-02  0.1001088E+00
         -2   -1    0    0    0  501 -0.00000000000E+00  0.00000000000E+00  0.68378012317E+02  0.68378012317E+02  0.00000000000E+00 0.  1.
          2   -1    0    0  502    0  0.00000000000E+00 -0.00000000000E+00 -0.11130633464E+04  0.11130633464E+04  0.00000000000E+00 0. -1.
         25    1    1    2    0    0  0.15623809147E+03 -0.13780423793E+03 -0.20993874780E+03  0.32109130640E+03  0.12500000000E+03 0.  0.
         21    1    1    2  502  501 -0.15623809147E+03  0.13780423793E+03 -0.83474658626E+03  0.86035005229E+03  0.00000000000E+00 0. -1.
<mgrwt>
<rscale>  3 0.55175741E+03</rscale>
<asrwt>0</asrwt>
<pdfrwt beam="1">  1        2 0.17124050E+00 0.55175741E+03</pdfrwt>
<pdfrwt beam="2">  1       -2 0.10519695E-01 0.55175741E+03</pdfrwt>
<totfact> 0.13649445E+03</totfact>
</mgrwt>
</event>
<event>
 4    0  0.1264838E-002  0.5789132E+03  0.7546771E-02  0.9950147E-01
          2   -1    0    0  502    0  0.00000000000E+00  0.00000000000E+00  0.40279832475E+03  0.40279832475E+03  0.00000000000E+00 0.  1.
         -2   -1    0    0    0  501 -0.00000000000E+00 -0.00000000000E+00 -0.20800759184E+03  0.20800759184E+03  0.00000000000E+00 0. -1.
         25    1    1    2    0    0  0.25793893797E+03  0.14494840407E+02  0.20429699061E+03  0.35228519199E+03  0.12500000000E+03 0.  0.
         21    1    1    2  502  501 -0.25793893797E+03 -0.14494840407E+02 -0.95062577041E+01  0.25852072461E+03  0.00000000000E+00 0. -1.
<mgrwt>
<rscale>  3 0.57891315E+03</rscale>
<asrwt>0</asrwt>
<pdfrwt beam="1">  1        2 0.61968973E-01 0.57891315E+03</pdfrwt>
<pdfrwt beam="2">  1       -2 0.32001168E-01 0.57891315E+03</pdfrwt>
<totfact> 0.72041190E+02</totfact>
</mgrwt>
</event>
<event>
 4    0  0.1264838E-002  0.5032920E+03  0.7546771E-02  0.1012923E+00
         -1   -1    0    0    0  501 -0.00000000000E+00  0.00000000000E+00  0.18600297521E+03  0.18600297521E+03  0.00000000000E+00 0. -1.
          1   -1    0    0  502    0  0.00000000000E+00 -0.00000000000E+00 -0.34045539192E+03  0.34045539192E+03  0.00000000000E+00 0.  1.
         25    1    1    2    0    0  0.10714326957E+02 -0.23070135573E+03 -0.13340799373E+03  0.29455153222E+03  0.12500000000E+03 0.  0.
         21    1    1    2  502  501 -0.10714326957E+02  0.23070135573E+03 -0.21044422978E+02  0.23190683491E+03  0.00000000000E+00 0.  1.
<mgrwt>
<rscale>  3 0.50329203E+03</rscale>
<asrwt>0</asrwt>
<pdfrwt beam="1">  1        1 0.52377752E-01 0.50329203E+03</pdfrwt>
<pdfrwt beam="2">  1       -1 0.28615843E-01 0.50329203E+03</pdfrwt>
<totfact> 0.82751969E+02</totfact>
</mgrwt>
</event>
<event>
 4    0  0.1264838E-002  0.7777549E+03  0.7546771E-02  0.9592786E-01
          2   -1    0    0  502    0  0.00000000000E+00  0.00000000000E+00  0.45669504915E+03  0.45669504915E+03  0.00000000000E+00 0. -1.
         -2   -1    0    0    0  501 -0.00000000000E+00 -0.00000000000E+00 -0.33113053364E+03  0.33113053364E+03  0.00000000000E+00 0.  1.
         25    1    1    2    0    0  0.30013934616E+03  0.20911778729E+03  0.16416883618E+03  0.41998843180E+03  0.12500000000E+03 0.  0.
         21    1    1    2  502  501 -0.30013934616E+03 -0.20911778729E+03 -0.38604320669E+02  0.36783715099E+03  0.00000000000E+00 0.  1.
<mgrwt>
<rscale>  3 0.77775491E+03</rscale>
<asrwt>0</asrwt>
<pdfrwt beam="1">  1        2 0.70260777E-01 0.77775491E+03</pdfrwt>
<pdfrwt beam="2">  1       -2 0.50943159E-01 0.77775491E+03</pdfrwt>
<totfact> 0.25099692E+02</totfact>
</mgrwt>
</event>
<event>
 4    0  0.1264838E-002  0.4916695E+03  0.7546771E-02  0.1015976E+00
         -1   -1    0    0    0  501 -0.00000000000E+00  0.00000000000E+00  0.47203537555E+03  0.47203537555E+03  0.00000000000E+00 0. -1.
          1   -1    0    0  502    0  0.00000000000E+00 -0.00000000000E+00 -0.12803005174E+03  0.12803005174E+03  0.00000000000E+00 0.  1.
         25    1    1    2    0    0  0.19561710936E+03  0.48563857303E+02  0.48038387174E+02  0.24198592594E+03  0.12500000000E+03 0.  0.
         21    1    1    2  502  501 -0.19561710936E+03 -0.48563857303E+02  0.29596693663E+03  0.35807950135E+03  0.00000000000E+00 0. -1.
<mgrwt>
<rscale>  3 0.49166946E+03</rscale>
<asrwt>0</asrwt>
<pdfrwt beam="1">  1        1 0.19696931E-01 0.49166946E+03</pdfrwt>
<pdfrwt beam="2">  1       -1 0.72620826E-01 0.49166946E+03</pdfrwt>
<totfact> 0.51812458E+02</totfact>
</mgrwt>
</event>
<event>
 4    0  0.1264838E-002  0.6582175E+03  0.7546771E-02  0.9791481E-01
          2   -1    0    0  502    0  0.00000000000E+00  0.00000000000E+00  0.21684251271E+04  0.21684251271E+04  0.00000000000E+00 0. -1.
         -2   -1    0    0    0  501 -0.00000000000E+00 -0.00000000000E+00 -0.49949878484E+02  0.49949878484E+02  0.00000000000E+00 0.  1.
         25    1    1    2    0    0 -0.97004706556E+02 -0.23789718046E+03  0.17246720370E+04  0.17481772270E+04  0.12500000000E+03 0.  0.
         21    1    1    2  502  501  0.97004706556E+02  0.23789718046E+03  0.39380321158E+03  0.47019777862E+03  0.00000000000E+00 0. -1.
<mgrwt>
<rscale>  3 0.65821751E+03</rscale>
<asrwt>0</asrwt>
<pdfrwt beam="1">  1        2 0.33360379E+00 0.65821751E+03</pdfrwt>
<pdfrwt beam="2">  1       -2 0.76845984E-02 0.65821751E+03</pdfrwt>
<totfact> 0.58425697E+02</totfact>
</mgrwt>
</event>
<event>
 4    0  0.1264838E-002  0.6450460E+03  0.7546771E-02  0.9816120E-01
         -2   -1    0    0    0  501 -0.00000000000E+00  0.00000000000E+00  0.22715456645E+03  0.22715456645E+03  0.00000000000E+00 0. -1.
          2   -1    0    0  502    0  0.00000000000E+00 -0.00000000000E+00 -0.45793081435E+03  0.45793081435E+03  0.00000000000E+00 0.  1.
         25    1    1    2    0    0 -0.13521826612E+03  0.22053803221E+03 -0.30193475951E+03  0.41678603880E+03  0.12500000000E+03 0.  0.
         21    1    1    2  502  501  0.13521826612E+03 -0.22053803221E+03  0.71158511603E+02  0.26829934200E+03  0.00000000000E+00 0. -1.
<mgrwt>
<rscale>  3 0.64504597E+03</rscale>
<asrwt>0</asrwt>
<pdfrwt beam="1">  1        2 0.70450894E-01 0.64504597E+03</pdfrwt>
<pdfrwt beam="2">  1       -2 0.34946857E-01 0.64504597E+03</pdfrwt>
<totfact> 0.52747755E+02</totfact>
</mgrwt>
</event>
<event>
 4    0  0.1264838E-002  0.1171114E+04  0.7546771E-02  0.9138523E-01
          2   -1    0    0  502    0  0.00000000000E+00  0.00000000000E+00  0.13354001451E+04  0.13354001451E+04  0.00000000000E+00 0. -1.
         -2   -1    0    0    0  501 -0.00000000000E+00 -0.00000000000E+00 -0.25675963442E+03  0.25675963442E+03  0.00000000000E+00 0.  1.
         25    1    1    2    0    0  0.50820284040E+02 -0.46889270362E+03  0.89129694642E+02  0.49599614036E+03  0.12500000000E+03 0.  0.
         21    1    1    2  502  501 -0.50820284040E+02  0.46889270362E+03  0.98951081604E+03  0.10961636392E+04  0.00000000000E+00 0. -1.
<mgrwt>
<rscale>  3 0.11711137E+04</rscale>
<asrwt>0</asrwt>
<pdfrwt beam="1">  1        2 0.20544617E+00 0.11711137E+04</pdfrwt>
<pdfrwt beam="2">  1       -2 0.39501483E-01 0.11711137E+04</pdfrwt>
<totfact> 0.94404068E+01</totfact>
</mgrwt>
</event>
<event>
 4    0  0.1264838E-002  0.6635449E+03  0.7546771E-02  0.9781690E-01
          2   -1    0    0  502    0  0.00000000000E+00  0.00000000000E+00  0.15988360149E+03  0.15988360149E+03  0.00000000000E+00 0.  1.
         -2   -1    0    0    0  501 -0.00000000000E+00 -0.00000000000E+00 -0.68845673817E+03  0.68845673817E+03  0.00000000000E+00 0. -1.
         25    1    1    2    0    0  0.79890225733E+02  0.24870386093E+03 -0.37357816882E+02  0.29198743995E+03  0.12500000000E+03 0.  0.
         21    1    1    2  502  501 -0.79890225733E+02 -0.24870386093E+03 -0.49121531980E+03  0.55635289971E+03  0.00000000000E+00 0. -1.
<mgrwt>
<rscale>  3 0.66354485E+03</rscale>
<asrwt>0</asrwt>
<pdfrwt beam="1">  1        2 0.24597477E-01 0.66354485E+03</pdfrwt>
<pdfrwt beam="2">  1       -2 0.10591642E+00 0.66354485E+03</pdfrwt>
<totfact> 0.16257760E+02</totfact>
</mgrwt>
</event>
<event>
 4    0  0.1264838E-002  0.7872514E+03  0.7546771E-02  0.9578656E-01
          2   -1    0    0  502    0  0.00000000000E+00  0.00000000000E+00  0.21810256735E+04  0.21810256735E+04  0.00000000000E+00 0. -1.
         -2   -1    0    0    0  501 -0.00000000000E+00 -0.00000000000E+00 -0.71040520882E+02  0.71040520882E+02  0.00000000000E+00 0.  1.
         25    1    1    2    0    0  0.73068878894E+02 -0.36945833025E+03  0.12915848058E+04  0.13511679501E+04  0.12500000000E+03 0.  0.
         21    1    1    2  502  501 -0.73068878894E+02  0.36945833025E+03  0.81840034685E+03  0.90089824430E+03  0.00000000000E+00 0. -1.
<mgrwt>
<rscale>  3 0.78725142E+03</rscale>
<asrwt>0</asrwt>
<pdfrwt beam="1">  1        2 0.33554236E+00 0.78725142E+03</pdfrwt>
<pdfrwt beam="2">  1       -2 0.10929313E-01 0.78725142E+03</pdfrwt>
<totfact> 0.32211532E+02</totfact>
</mgrwt>
</event>
<event>
 4    0  0.1264838E-002  0.5006490E+03  0.7546771E-02  0.1013610E+00
         -2   -1    0    0    0  501 -0.00000000000E+00  0.00000000000E+00  0.23878095952E+02  0.23878095952E+02  0.00000000000E+00 0.  1.
          2   -1    0    0  502    0  0.00000000000E+00 -0.00000000000E+00 -0.26242607114E+04  0.26242607114E+04  0.00000000000E+00 0. -1.
         25    1    1    2    0    0 -0.17174043957E+03 -0.11325288315E+03 -0.78346044054E+03  0.81960737918E+03  0.12500000000E+03 0.  0.
         21    1    1    2  502  501  0.17174043957E+03  0.11325288315E+03 -0.18169221749E+04  0.18285314282E+04  0.00000000000E+00 0. -1.
<mgrwt>
<rscale>  3 0.50064898E+03</rscale>
<asrwt>0</asrwt>
<pdfrwt beam="1">  1        2 0.40373227E+00 0.50064898E+03</pdfrwt>
<pdfrwt beam="2">  1       -2 0.36735545E-02 0.50064898E+03</pdfrwt>
<totfact> 0.10408906E+03</totfact>
</mgrwt>
</event>
<event>
 4    0  0.1264838E-002  0.6060115E+03  0.7546771E-02  0.9893012E-01
         -2   -1    0    0    0  501 -0.00000000000E+00  0.00000000000E+00  0.12225523135E+03  0.12225523135E+03  0.00000000000E+00 0.  1.
          2   -1    0    0  502    0  0.00000000000E+00 -0.00000000000E+00 -0.75099012667E+03  0.75099012667E+03  0.00000000000E+00 0. -1.
         25    1    1    2    0    0 -0.17564219752E+03  0.22513527780E+03 -0.40164191452E+03  0.50840663092E+03  0.12500000000E+03 0.  0.
         21    1    1    2  502  501  0.17564219752E+03 -0.22513527780E+03 -0.22709298080E+03  0.36483872709E+03  0.00000000000E+00 0.  1.
<mgrwt>
<rscale>  3 0.60601146E+03</rscale>
<asrwt>0</asrwt>
<pdfrwt beam="1">  1        2 0.11553694E+00 0.60601146E+03</pdfrwt>
<pdfrwt beam="2">  1       -2 0.18808497E-01 0.60601146E+03</pdfrwt>
<totfact> 0.89405510E+02</totfact>
</mgrwt>
</event>
<event>
 4    0  0.1264838E-002  0.8959481E+03  0.7546771E-02  0.9430661E-01
         -2   -1    0    0    0  501 -0.00000000000E+00  0.00000000000E+00  0.25813093963E+03  0.25813093963E+03  0.00000000000E+00 0.  1.
          2   -1    0    0  502    0  0.00000000000E+00 -0.00000000000E+00 -0.77743772027E+03  0.77743772027E+03  0.00000000000E+00 0. -1.
         25    1    1    2    0    0  0.28993051458E+03 -0.28452174980E+03 -0.71534474333E+02  0.43099247141E+03  0.12500000000E+03 0.  0.
         21    1    1    2  502  501 -0.28993051458E+03  0.28452174980E+03 -0.44777230631E+03  0.60457618849E+03  0.00000000000E+00 0.  1.
<mgrwt>
<rscale>  3 0.89594805E+03</rscale>
<asrwt>0</asrwt>
<pdfrwt beam="1">  1        2 0.11960580E+00 0.89594805E+03</pdfrwt>
<pdfrwt beam="2">  1       -2 0.39712453E-01 0.89594805E+03</pdfrwt>
<totfact> 0.21512633E+02</totfact>
</mgrwt>
</event>
<event>
 4    0  0.1264838E-002  0.4520045E+03  0.7546771E-02  0.1027126E+00
          3   -1    0    0  502    0  0.00000000000E+00  0.00000000000E+00  0.41534553332E+03  0.41534553332E+03  0.00000000000E+00 0. -1.
         -3   -1    0    0    0  501 -0.00000000000E+00 -0.00000000000E+00 -0.12297473868E+03  0.12297473868E+03  0.00000000000E+00 0.  1.
         25    1    1    2    0    0 -0.48872309906E+02 -0.19909791912E+03  0.11070808062E+03  0.26440454456E+03  0.12500000000E+03 0.  0.
         21    1    1    2  502  501  0.48872309906E+02  0.19909791912E+03  0.18166271402E+03  0.27391572744E+03  0.00000000000E+00 0. -1.
<mgrwt>
<rscale>  3 0.45200446E+03</rscale>
<asrwt>0</asrwt>
<pdfrwt beam="1">  1        3 0.63899312E-01 0.45200446E+03</pdfrwt>
<pdfrwt beam="2">  1       -3 0.18919191E-01 0.45200446E+03</pdfrwt>
<totfact> 0.15609450E+02</totfact>
</mgrwt>
</event>
<event>
 4    0  0.1264838E-002  0.6554189E+03  0.7546771E-02  0.9796664E-01
         -2   -1    0    0    0  501 -0.00000000000E+00  0.00000000000E+00  0.64744080379E+02  0.64744080379E+02  0.00000000000E+00 0. -1.
          2   -1    0    0  502    0  0.00000000000E+00 -0.00000000000E+00 -0.16587381977E+04  0.16587381977E+04  0.00000000000E+00 0.  1.
         25    1    1    2    0    0 -0.20285898747E+03 -0.10158421578E+03 -0.24836238973E+03  0.35885930157E+03  0.12500000000E+03 0.  0.
         21    1    1    2  502  501  0.20285898747E+03  0.10158421578E+03 -0.13456317276E+04  0.13646229765E+04  0.00000000000E+00 0.  1.
<mgrwt>
<rscale>  3 0.65541889E+03</rscale>
<asrwt>0</asrwt>
<pdfrwt beam="1">  1        2 0.25519048E+00 0.65541889E+03</pdfrwt>
<pdfrwt beam="2">  1       -2 0.99606283E-02 0.65541889E+03</pdfrwt>
<totfact> 0.72911222E+02</totfact>
</mgrwt>
</event>
<event>
 4    0  0.1264838E-002  0.4981991E+03  0.7546771E-02  0.1014250E+00
         -2   -1    0    0    0  501 -0.00000000000E+00  0.00000000000E+00  0.41308850504E+02  0.41308850504E+02  0.00000000000E+00 0.  1.
          2   -1    0    0  502    0  0.00000000000E+00 -0.00000000000E+00 -0.15021135558E+04  0.15021135558E+04  0.00000000000E+00 0. -1.
         25    1    1    2    0    0  0.19565454038E+03  0.12655538126E+03 -0.81875102879E+03  0.86039247489E+03  0.12500000000E+03 0.  0.
         21    1    1    2  502  501 -0.19565454038E+03 -0.12655538126E+03 -0.64205367651E+03  0.68302993142E+03  0.00000000000E+00 0.  1.
<mgrwt>
<rscale>  3 0.49819909E+03</rscale>
<asrwt>0</asrwt>
<pdfrwt beam="1">  1        2 0.23109437E+00 0.49819909E+03</pdfrwt>
<pdfrwt beam="2">  1       -2 0.63552083E-02 0.49819909E+03</pdfrwt>
<totfact> 0.18303123E+03</totfact>
</mgrwt>
</event>
<event>
 4    0  0.1264838E-002  0.5350141E+03  0.7546771E-02  0.1005023E+00
         -2   -1    0    0    0  501 -0.00000000000E+00  0.00000000000E+00  0.47854913514E+02  0.47854913514E+02  0.00000000000E+00 0.  1.
          2   -1    0    0  502    0  0.00000000000E+00 -0.00000000000E+00 -0.14953537149E+04  0.14953537149E+04  0.00000000000E+00 0. -1.
         25    1    1    2    0    0  0.11758483479E+03  0.21992161467E+03 -0.88457569254E+03  0.92751866062E+03  0.12500000000E+03 0.  0.
         21    1    1    2  502  501 -0.11758483479E+03 -0.21992161467E+03 -0.56292310887E+03  0.61568996781E+03  0.00000000000E+00 0. -1.
<mgrwt>
<rscale>  3 0.53501410E+03</rscale>
<asrwt>0</asrwt>
<pdfrwt beam="1">  1        2 0.23005440E+00 0.53501410E+03</pdfrwt>
<pdfrwt beam="2">  1       -2 0.73622950E-02 0.53501410E+03</pdfrwt>
<totfact> 0.14627229E+03</totfact>
</mgrwt>
</event>
<event>
 4    0  0.1264838E-002  0.5821417E+03  0.7546771E-02  0.9943165E-01
         -2   -1    0    0    0  501 -0.00000000000E+00  0.00000000000E+00  0.62341553619E+02  0.62341553619E+02  0.00000000000E+00 0.  1.
          2   -1    0    0  502    0  0.00000000000E+00 -0.00000000000E+00 -0.13590012342E+04  0.13590012342E+04  0.00000000000E+00 0. -1.
         25    1    1    2    0    0 -0.23268344128E+03  0.91561889729E+01 -0.10474124120E+04  0.10802421860E+04  0.12500000000E+03 0.  0.
         21    1    1    2  502  501  0.23268344128E+03 -0.91561889729E+01 -0.24924726852E+03  0.34110060174E+03  0.00000000000E+00 0. -1.
<mgrwt>
<rscale>  3 0.58214173E+03</rscale>
<asrwt>0</asrwt>
<pdfrwt beam="1">  1        2 0.20907711E+00 0.58214173E+03</pdfrwt>
<pdfrwt beam="2">  1       -2 0.95910085E-02 0.58214173E+03</pdfrwt>
<totfact> 0.11397661E+03</totfact>
</mgrwt>
</event>
<event>
 4    0  0.1264838E-002  0.5225585E+03  0.7546771E-02  0.1008053E+00
         -2   -1    0    0    0  501 -0.00000000000E+00  0.00000000000E+00  0.81155065711E+03  0.81155065711E+03  0.00000000000E+00 0. -1.
          2   -1    0    0  502    0  0.00000000000E+00 -0.00000000000E+00 -0.84119020551E+02  0.84119020551E+02  0.00000000000E+00 0.  1.
         25    1    1    2    0    0  0.22612047983E+03 -0.24847516539E+02  0.54649921398E+03  0.60500765396E+03  0.12500000000E+03 0.  0.
         21    1    1    2  502  501 -0.22612047983E+03  0.24847516539E+02  0.18093242258E+03  0.29066202369E+03  0.00000000000E+00 0.  1.
<mgrwt>
<rscale>  3 0.52255850E+03</rscale>
<asrwt>0</asrwt>
<pdfrwt beam="1">  1        2 0.12941388E-01 0.52255850E+03</pdfrwt>
<pdfrwt beam="2">  1       -2 0.12485394E+00 0.52255850E+03</pdfrwt>
<totfact> 0.23449024E+02</totfact>
</mgrwt>
</event>
<event>
 4    0  0.1451777E-002  0.5557047E+03  0.7546771E-02  0.1000182E+00
          1   -1    0    0  502    0  0.00000000000E+00  0.00000000000E+00  0.70915252092E+03  0.70915252092E+03  0.00000000000E+00 0. -1.
         -1   -1    0    0    0  501 -0.00000000000E+00 -0.00000000000E+00 -0.10886503746E+03  0.10886503746E+03  0.00000000000E+00 0.  1.
         25    1    1    2    0    0 -0.26078431678E+02 -0.20564172498E+03  0.75165179699E+02  0.25346283335E+03  0.12500000000E+03 0.  0.
         21    1    1    2  502  501  0.26078431678E+02  0.20564172498E+03  0.52512230376E+03  0.56455472504E+03  0.00000000000E+00 0. -1.
<mgrwt>
<rscale>  3 0.55570465E+03</rscale>
<asrwt>0</asrwt>
<pdfrwt beam="1">  1        1 0.10910038E+00 0.55570465E+03</pdfrwt>
<pdfrwt beam="2">  1       -1 0.16748468E-01 0.55570465E+03</pdfrwt>
<totfact> 0.74017174E+02</totfact>
</mgrwt>
</event>
<event>
 4    0  0.1264838E-002  0.5183520E+03  0.7546771E-02  0.1009097E+00
          2   -1    0    0  502    0  0.00000000000E+00  0.00000000000E+00  0.29595287915E+04  0.29595287915E+04  0.00000000000E+00 0.  1.
         -2   -1    0    0    0  501 -0.00000000000E+00 -0.00000000000E+00 -0.22696927606E+02  0.22696927606E+02  0.00000000000E+00 0. -1.
         25    1    1    2    0    0  0.65227404389E+02 -0.21371698897E+03  0.21191925646E+04  0.21346034038E+04  0.12500000000E+03 0.  0.
         21    1    1    2  502  501 -0.65227404389E+02  0.21371698897E+03  0.81763929935E+03  0.84762231536E+03  0.00000000000E+00 0. -1.
<mgrwt>
<rscale>  3 0.51835205E+03</rscale>
<asrwt>0</asrwt>
<pdfrwt beam="1">  1        2 0.45531182E+00 0.51835205E+03</pdfrwt>
<pdfrwt beam="2">  1       -2 0.34918374E-02 0.51835205E+03</pdfrwt>
<totfact> 0.71523864E+02</totfact>
</mgrwt>
</event>
<event>
 4    0  0.1264838E-002  0.7200390E+03  0.7546771E-02  0.9683563E-01
         -2   -1    0    0    0  501 -0.00000000000E+00  0.00000000000E+00  0.99082207743E+02  0.99082207743E+02  0.00000000000E+00 0. -1.
          2   -1    0    0  502    0  0.00000000000E+00 -0.00000000000E+00 -0.13081464620E+04  0.13081464620E+04  0.00000000000E+00 0.  1.
         25    1    1    2    0    0 -0.26087176553E+03 -0.15069869560E+03 -0.27778773718E+03  0.42843342754E+03  0.12500000000E+03 0.  0.
         21    1    1    2  502  501  0.26087176553E+03  0.15069869560E+03 -0.93127651709E+03  0.97879524222E+03  0.00000000000E+00 0.  1.
<mgrwt>
<rscale>  3 0.72003900E+03</rscale>
<asrwt>0</asrwt>
<pdfrwt beam="1">  1        2 0.20125331E+00 0.72003900E+03</pdfrwt>
<pdfrwt beam="2">  1       -2 0.15243416E-01 0.72003900E+03</pdfrwt>
<totfact> 0.56328714E+02</totfact>
</mgrwt>
</event>
<event>
 4    0  0.1264838E-002  0.5351232E+03  0.7546771E-02  0.1004997E+00
          1   -1    0    0  502    0  0.00000000000E+00  0.00000000000E+00  0.10604895996E+04  0.10604895996E+04  0.00000000000E+00 0. -1.
         -1   -1    0    0    0  501 -0.00000000000E+00 -0.00000000000E+00 -0.67505815021E+02  0.67505815021E+02  0.00000000000E+00 0.  1.
         25    1    1    2    0    0 -0.20504098495E+03  0.10677025265E+03  0.30709078219E+03  0.40419233153E+03  0.12500000000E+03 0.  0.
         21    1    1    2  502  501  0.20504098495E+03 -0.10677025265E+03  0.68589300237E+03  0.72380308307E+03  0.00000000000E+00 0. -1.
<mgrwt>
<rscale>  3 0.53512322E+03</rscale>
<asrwt>0</asrwt>
<pdfrwt beam="1">  1        1 0.16315223E+00 0.53512322E+03</pdfrwt>
<pdfrwt beam="2">  1       -1 0.10385511E-01 0.53512322E+03</pdfrwt>
<totfact> 0.82038866E+02</totfact>
</mgrwt>
</event>
<event>
 4    0  0.1264838E-002  0.5182830E+03  0.7546771E-02  0.1009114E+00
          3   -1    0    0  502    0  0.00000000000E+00  0.00000000000E+00  0.69201001623E+02  0.69201001623E+02  0.00000000000E+00 0. -1.
         -3   -1    0    0    0  501 -0.00000000000E+00 -0.00000000000E+00 -0.97042413629E+03  0.97042413629E+03  0.00000000000E+00 0.  1.
         25    1    1    2    0    0 -0.35168223362E+02 -0.23479581938E+03 -0.59034986585E+03  0.64846267806E+03  0.12500000000E+03 0.  0.
         21    1    1    2  502  501  0.35168223362E+02  0.23479581938E+03 -0.31087326882E+03  0.39116245985E+03  0.00000000000E+00 0. -1.
<mgrwt>
<rscale>  3 0.51828302E+03</rscale>
<asrwt>0</asrwt>
<pdfrwt beam="1">  1        3 0.10646308E-01 0.51828302E+03</pdfrwt>
<pdfrwt beam="2">  1       -3 0.14929602E+00 0.51828302E+03</pdfrwt>
<totfact> 0.59414873E+01</totfact>
</mgrwt>
</event>
<event>
 4    0  0.1264838E-002  0.1005163E+04  0.7546771E-02  0.9302900E-01
         -2   -1    0    0    0  501 -0.00000000000E+00  0.00000000000E+00  0.45802525183E+03  0.45802525183E+03  0.00000000000E+00 0.  1.
          2   -1    0    0  502    0  0.00000000000E+00 -0.00000000000E+00 -0.55147222490E+03  0.55147222490E+03  0.00000000000E+00 0. -1.
         25    1    1    2    0    0 -0.66238650917E+02  0.28543508671E+03  0.35299041214E+03  0.47548709621E+03  0.12500000000E+03 0.  0.
         21    1    1    2  502  501  0.66238650917E+02 -0.28543508671E+03 -0.44643738520E+03  0.53401038052E+03  0.00000000000E+00 0. -1.
<mgrwt>
<rscale>  3 0.10051631E+04</rscale>
<asrwt>0</asrwt>
<pdfrwt beam="1">  1        2 0.84841881E-01 0.10051631E+04</pdfrwt>
<pdfrwt beam="2">  1       -2 0.70465423E-01 0.10051631E+04</pdfrwt>
<totfact> 0.10043259E+02</totfact>
</mgrwt>
</event>
<event>
 4    0  0.1264838E-002  0.5772954E+03  0.7546771E-02  0.9953664E-01
         -2   -1    0    0    0  501 -0.00000000000E+00  0.00000000000E+00  0.19393946918E+03  0.19393946918E+03  0.00000000000E+00 0.  1.
          2   -1    0    0  502    0  0.00000000000E+00 -0.00000000000E+00 -0.42960564570E+03  0.42960564570E+03  0.00000000000E+00 0. -1.
         25    1    1    2    0    0  0.12062450002E+03  0.19277148505E+03  0.43892909802E+02  0.26317808226E+03  0.12500000000E+03 0.  0.
         21    1    1    2  502  501 -0.12062450002E+03 -0.19277148505E+03 -0.27955908632E+03  0.36036703262E+03  0.00000000000E+00 0. -1.
<mgrwt>
<rscale>  3 0.57729539E+03</rscale>
<asrwt>0</asrwt>
<pdfrwt beam="1">  1        2 0.66093176E-01 0.57729539E+03</pdfrwt>
<pdfrwt beam="2">  1       -2 0.29836842E-01 0.57729539E+03</pdfrwt>
<totfact> 0.76320249E+02</totfact>
</mgrwt>
</event>
<event>
 4    0  0.1264838E-002  0.4704310E+03  0.7546771E-02  0.1021799E+00
         -1   -1    0    0    0  501 -0.00000000000E+00  0.00000000000E+00  0.10171964443E+03  0.10171964443E+03  0.00000000000E+00 0.  1.
          1   -1    0    0  502    0  0.00000000000E+00 -0.00000000000E+00 -0.54391002818E+03  0.54391002818E+03  0.00000000000E+00 0. -1.
         25    1    1    2    0    0  0.17928407219E+03  0.11247690358E+03 -0.31182332252E+03  0.39705492926E+03  0.12500000000E+03 0.  0.
         21    1    1    2  502  501 -0.17928407219E+03 -0.11247690358E+03 -0.13036706123E+03  0.24857474336E+03  0.00000000000E+00 0.  1.
<mgrwt>
<rscale>  3 0.47043101E+03</rscale>
<asrwt>0</asrwt>
<pdfrwt beam="1">  1        1 0.83678466E-01 0.47043101E+03</pdfrwt>
<pdfrwt beam="2">  1       -1 0.15649176E-01 0.47043101E+03</pdfrwt>
<totfact> 0.12124082E+03</totfact>
</mgrwt>
</event>
<event>
 4    0  0.1264838E-002  0.4756623E+03  0.7546771E-02  0.1020334E+00
         -2   -1    0    0    0  501 -0.00000000000E+00  0.00000000000E+00  0.49099692448E+02  0.49099692448E+02  0.00000000000E+00 0.  1.
          2   -1    0    0  502    0  0.00000000000E+00 -0.00000000000E+00 -0.11520164312E+04  0.11520164312E+04  0.00000000000E+00 0. -1.
         25    1    1    2    0    0  0.20104615790E+03 -0.91834887230E+02 -0.55684023305E+03  0.61200428860E+03  0.12500000000E+03 0.  0.
         21    1    1    2  502  501 -0.20104615790E+03  0.91834887230E+02 -0.54607650569E+03  0.58911183504E+03  0.00000000000E+00 0.  1.
<mgrwt>
<rscale>  3 0.47566229E+03</rscale>
<asrwt>0</asrwt>
<pdfrwt beam="1">  1        2 0.17723328E+00 0.47566229E+03</pdfrwt>
<pdfrwt beam="2">  1       -2 0.75537994E-02 0.47566229E+03</pdfrwt>
<totfact> 0.22024861E+03</totfact>
</mgrwt>
</event>
<event>
 4    0  0.1264838E-002  0.4713084E+03  0.7546771E-02  0.1021552E+00
          2   -1    0    0  502    0  0.00000000000E+00  0.00000000000E+00  0.23290895543E+04  0.23290895543E+04  0.00000000000E+00 0.  1.
         -2   -1    0    0    0  501 -0.00000000000E+00 -0.00000000000E+00 -0.23843183282E+02  0.23843183282E+02  0.00000000000E+00 0. -1.
         25    1    1    2    0    0  0.11916403596E+02  0.21614438271E+03  0.10655252226E+04  0.10944539254E+04  0.12500000000E+03 0.  0.
         21    1    1    2  502  501 -0.11916403596E+02 -0.21614438271E+03  0.12397211484E+04  0.12584788122E+04  0.00000000000E+00 0. -1.
<mgrwt>
<rscale>  3 0.47130843E+03</rscale>
<asrwt>0</asrwt>
<pdfrwt beam="1">  1        2 0.35832129E+00 0.47130843E+03</pdfrwt>
<pdfrwt beam="2">  1       -2 0.36681839E-02 0.47130843E+03</pdfrwt>
<totfact> 0.15280734E+03</totfact>
</mgrwt>
</event>
<event>
 4    0  0.1264838E-002  0.4856531E+03  0.7546771E-02  0.1017593E+00
          2   -1    0    0  502    0  0.00000000000E+00  0.00000000000E+00  0.43431818822E+03  0.43431818822E+03  0.00000000000E+00 0.  1.
         -2   -1    0    0    0  501 -0.00000000000E+00 -0.00000000000E+00 -0.13576391932E+03  0.13576391932E+03  0.00000000000E+00 0. -1.
         25    1    1    2    0    0 -0.65886614334E+02 -0.20948611949E+03  0.92913782110E+02  0.26922750809E+03  0.12500000000E+03 0.  0.
         21    1    1    2  502  501  0.65886614334E+02  0.20948611949E+03  0.20564048679E+03  0.30085459945E+03  0.00000000000E+00 0.  1.
<mgrwt>
<rscale>  3 0.48565313E+03</rscale>
<asrwt>0</asrwt>
<pdfrwt beam="1">  1        2 0.66818182E-01 0.48565313E+03</pdfrwt>
<pdfrwt beam="2">  1       -2 0.20886757E-01 0.48565313E+03</pdfrwt>
<totfact> 0.14294660E+03</totfact>
</mgrwt>
</event>
<event>
 4    0  0.1264838E-002  0.4808599E+03  0.7546771E-02  0.1018899E+00
          1   -1    0    0  502    0  0.00000000000E+00  0.00000000000E+00  0.10326062785E+03  0.10326062785E+03  0.00000000000E+00 0. -1.
         -1   -1    0    0    0  501 -0.00000000000E+00 -0.00000000000E+00 -0.55981231207E+03  0.55981231207E+03  0.00000000000E+00 0.  1.
         25    1    1    2    0    0 -0.11270541215E+02  0.21407956454E+03 -0.15326890562E+03  0.29167352037E+03  0.12500000000E+03 0.  0.
         21    1    1    2  502  501  0.11270541215E+02 -0.21407956454E+03 -0.30328277859E+03  0.37139941955E+03  0.00000000000E+00 0.  1.
<mgrwt>
<rscale>  3 0.48085994E+03</rscale>
<asrwt>0</asrwt>
<pdfrwt beam="1">  1        1 0.15886251E-01 0.48085994E+03</pdfrwt>
<pdfrwt beam="2">  1       -1 0.86124969E-01 0.48085994E+03</pdfrwt>
<totfact> 0.48157685E+02</totfact>
</mgrwt>
</event>
<event>
 4    0  0.1264838E-002  0.7505935E+03  0.7546771E-02  0.9634420E-01
          2   -1    0    0  502    0  0.00000000000E+00  0.00000000000E+00  0.28114964042E+04  0.28114964042E+04  0.00000000000E+00 0. -1.
         -2   -1    0    0    0  501 -0.00000000000E+00 -0.00000000000E+00 -0.50097042468E+02  0.50097042468E+02  0.00000000000E+00 0.  1.
         25    1    1    2    0    0  0.30732598456E+03 -0.19711258641E+02  0.67282694132E+03  0.75043912976E+03  0.12500000000E+03 0.  0.
         21    1    1    2  502  501 -0.30732598456E+03  0.19711258641E+02  0.20885724204E+04  0.21111543169E+04  0.00000000000E+00 0. -1.
<mgrwt>
<rscale>  3 0.75059351E+03</rscale>
<asrwt>0</asrwt>
<pdfrwt beam="1">  1        2 0.43253779E+00 0.75059351E+03</pdfrwt>
<pdfrwt beam="2">  1       -2 0.77072395E-02 0.75059351E+03</pdfrwt>
<totfact> 0.24914402E+02</totfact>
</mgrwt>
</event>
<event>
 4    0  0.1264838E-002  0.5115103E+03  0.7546771E-02  0.1010817E+00
         -1   -1    0    0    0  501 -0.00000000000E+00  0.00000000000E+00  0.12725852896E+03  0.12725852896E+03  0.00000000000E+00 0.  1.
          1   -1    0    0  502    0  0.00000000000E+00 -0.00000000000E+00 -0.51399862747E+03  0.51399862747E+03  0.00000000000E+00 0. -1.
         25    1    1    2    0    0  0.16651602989E+03  0.16741016072E+03 -0.14777357461E+03  0.30531259305E+03  0.12500000000E+03 0.  0.
         21    1    1    2  502  501 -0.16651602989E+03 -0.16741016072E+03 -0.23896652390E+03  0.33594456339E+03  0.00000000000E+00 0.  1.
<mgrwt>
<rscale>  3 0.51151035E+03</rscale>
<asrwt>0</asrwt>
<pdfrwt beam="1">  1        1 0.79076712E-01 0.51151035E+03</pdfrwt>
<pdfrwt beam="2">  1       -1 0.19578235E-01 0.51151035E+03</pdfrwt>
<totfact> 0.90867266E+02</totfact>
</mgrwt>
</event>
<event>
 4    0  0.1264838E-002  0.4530034E+03  0.7546771E-02  0.1026830E+00
          1   -1    0    0  502    0  0.00000000000E+00  0.00000000000E+00  0.30637530895E+03  0.30637530895E+03  0.00000000000E+00 0.  1.
         -1   -1    0    0    0  501 -0.00000000000E+00 -0.00000000000E+00 -0.16745152456E+03  0.16745152456E+03  0.00000000000E+00 0. -1.
         25    1    1    2    0    0 -0.20209499986E+03 -0.54192551470E+02  0.71662814603E+02  0.25404680789E+03  0.12500000000E+03 0.  0.
         21    1    1    2  502  501  0.20209499986E+03  0.54192551470E+02  0.67260969782E+02  0.21978002562E+03  0.00000000000E+00 0. -1.
<mgrwt>
<rscale>  3 0.45300337E+03</rscale>
<asrwt>0</asrwt>
<pdfrwt beam="1">  1        1 0.47134663E-01 0.45300337E+03</pdfrwt>
<pdfrwt beam="2">  1       -1 0.25761773E-01 0.45300337E+03</pdfrwt>
<totfact> 0.11340647E+03</totfact>
</mgrwt>
</event>
<event>
 4    0  0.1264838E-002  0.4754657E+03  0.7546771E-02  0.1020389E+00
         -2   -1    0    0    0  501 -0.00000000000E+00  0.00000000000E+00  0.92386257269E+02  0.92386257269E+02  0.00000000000E+00 0. -1.
          2   -1    0    0  502    0  0.00000000000E+00 -0.00000000000E+00 -0.61174579162E+03  0.61174579162E+03  0.00000000000E+00 0.  1.
         25    1    1    2    0    0 -0.83572585590E+02 -0.20404529910E+03 -0.24970424519E+03  0.35580341653E+03  0.12500000000E+03 0.  0.
         21    1    1    2  502  501  0.83572585590E+02  0.20404529910E+03 -0.26965528916E+03  0.34832863236E+03  0.00000000000E+00 0.  1.
<mgrwt>
<rscale>  3 0.47546568E+03</rscale>
<asrwt>0</asrwt>
<pdfrwt beam="1">  1        2 0.94114740E-01 0.47546568E+03</pdfrwt>
<pdfrwt beam="2">  1       -2 0.14213270E-01 0.47546568E+03</pdfrwt>
<totfact> 0.18553019E+03</totfact>
</mgrwt>
</event>
<event>
 4    0  0.1264838E-002  0.4971365E+03  0.7546771E-02  0.1014529E+00
         -2   -1    0    0    0  501 -0.00000000000E+00  0.00000000000E+00  0.10991515014E+03  0.10991515014E+03  0.00000000000E+00 0.  1.
          2   -1    0    0  502    0  0.00000000000E+00 -0.00000000000E+00 -0.56212600773E+03  0.56212600773E+03  0.00000000000E+00 0. -1.
         25    1    1    2    0    0 -0.23078207355E+03  0.14929099101E+02 -0.27710878328E+03  0.38196534037E+03  0.12500000000E+03 0.  0.
         21    1    1    2  502  501  0.23078207355E+03 -0.14929099101E+02 -0.17510207431E+03  0.29007581751E+03  0.00000000000E+00 0.  1.
<mgrwt>
<rscale>  3 0.49713646E+03</rscale>
<asrwt>0</asrwt>
<pdfrwt beam="1">  1        2 0.86480925E-01 0.49713646E+03</pdfrwt>
<pdfrwt beam="2">  1       -2 0.16910023E-01 0.49713646E+03</pdfrwt>
<totfact> 0.15309518E+03</totfact>
</mgrwt>
</event>
<event>
 4    0  0.1264838E-002  0.5267180E+03  0.7546771E-02  0.1007031E+00
          1   -1    0    0  502    0  0.00000000000E+00  0.00000000000E+00  0.64288329319E+03  0.64288329319E+03  0.00000000000E+00 0.  1.
         -1   -1    0    0    0  501 -0.00000000000E+00 -0.00000000000E+00 -0.10788576060E+03  0.10788576060E+03  0.00000000000E+00 0. -1.
         25    1    1    2    0    0  0.39437776388E+02  0.23073928334E+03  0.16356925725E+03  0.31173042360E+03  0.12500000000E+03 0.  0.
         21    1    1    2  502  501 -0.39437776388E+02 -0.23073928334E+03  0.37142827534E+03  0.43903863019E+03  0.00000000000E+00 0.  1.
<mgrwt>
<rscale>  3 0.52671796E+03</rscale>
<asrwt>0</asrwt>
<pdfrwt beam="1">  1        1 0.98905120E-01 0.52671796E+03</pdfrwt>
<pdfrwt beam="2">  1       -1 0.16597810E-01 0.52671796E+03</pdfrwt>
<totfact> 0.86907956E+02</totfact>
</mgrwt>
</event>
<event>
 4    0  0.1264838E-002  0.6627708E+03  0.7546771E-02  0.9783106E-01
         -2   -1    0    0    0  501 -0.00000000000E+00  0.00000000000E+00  0.30650266370E+02  0.30650266370E+02  0.00000000000E+00 0. -1.
          2   -1    0    0  502    0  0.00000000000E+00 -0.00000000000E+00 -0.35828815648E+04  0.35828815648E+04  0.00000000000E+00 0.  1.
         25    1    1    2    0    0  0.21705965334E+02  0.27002846866E+03 -0.91473519960E+03  0.96216007411E+03  0.12500000000E+03 0.  0.
         21    1    1    2  502  501 -0.21705965334E+02 -0.27002846866E+03 -0.26374960988E+04  0.26513717571E+04  0.00000000000E+00 0.  1.
<mgrwt>
<rscale>  3 0.66277077E+03</rscale>
<asrwt>0</asrwt>
<pdfrwt beam="1">  1        2 0.55121258E+00 0.66277077E+03</pdfrwt>
<pdfrwt beam="2">  1       -2 0.47154253E-02 0.66277077E+03</pdfrwt>
<totfact> 0.17560656E+02</totfact>
</mgrwt>
</event>
<event>
 4    0  0.1264838E-002  0.5630977E+03  0.7546771E-02  0.9985070E-01
          1   -1    0    0  502    0  0.00000000000E+00  0.00000000000E+00  0.71326191025E+03  0.71326191025E+03  0.00000000000E+00 0. -1.
         -1   -1    0    0    0  501 -0.00000000000E+00 -0.00000000000E+00 -0.11113694137E+03  0.11113694137E+03  0.00000000000E+00 0.  1.
         25    1    1    2    0    0  0.19564241936E+03 -0.42706843203E+02  0.57594573259E+03  0.62244543342E+03  0.12500000000E+03 0.  0.
         21    1    1    2  502  501 -0.19564241936E+03  0.42706843203E+02  0.26179236294E+02  0.20195341819E+03  0.00000000000E+00 0.  1.
<mgrwt>
<rscale>  3 0.56309767E+03</rscale>
<asrwt>0</asrwt>
<pdfrwt beam="1">  1        1 0.10973260E+00 0.56309767E+03</pdfrwt>
<pdfrwt beam="2">  1       -1 0.17097991E-01 0.56309767E+03</pdfrwt>
<totfact> 0.70927142E+02</totfact>
</mgrwt>
</event>
<event>
 4    0  0.1264838E-002  0.4682124E+03  0.7546771E-02  0.1022426E+00
         -1   -1    0    0    0  501 -0.00000000000E+00  0.00000000000E+00  0.78475281791E+02  0.78475281791E+02  0.00000000000E+00 0. -1.
          1   -1    0    0  502    0  0.00000000000E+00 -0.00000000000E+00 -0.69838189918E+03  0.69838189918E+03  0.00000000000E+00 0.  1.
         25    1    1    2    0    0  0.72809288015E+02 -0.20387997706E+03 -0.29872059026E+03  0.38952179466E+03  0.12500000000E+03 0.  0.
         21    1    1    2  502  501 -0.72809288015E+02  0.20387997706E+03 -0.32118602713E+03  0.38733538631E+03  0.00000000000E+00 0. -1.
<mgrwt>
<rscale>  3 0.46821241E+03</rscale>
<asrwt>0</asrwt>
<pdfrwt beam="1">  1        1 0.10744337E+00 0.46821241E+03</pdfrwt>
<pdfrwt beam="2">  1       -1 0.12073120E-01 0.46821241E+03</pdfrwt>
<totfact> 0.12842366E+03</totfact>
</mgrwt>
</event>
<event>
 4    0  0.1264838E-002  0.4608846E+03  0.7546771E-02  0.1024525E+00
          1   -1    0    0  502    0  0.00000000000E+00  0.00000000000E+00  0.10767123655E+04  0.10767123655E+04  0.00000000000E+00 0.  1.
         -1   -1    0    0    0  501 -0.00000000000E+00 -0.00000000000E+00 -0.49320182546E+02  0.49320182546E+02  0.00000000000E+00 0. -1.
         25    1    1    2    0    0  0.16699113477E+03  0.13301282862E+03  0.55196235251E+03  0.60486849005E+03  0.12500000000E+03 0.  0.
         21    1    1    2  502  501 -0.16699113477E+03 -0.13301282862E+03  0.47542983045E+03  0.52116405800E+03  0.00000000000E+00 0.  1.
<mgrwt>
<rscale>  3 0.46088459E+03</rscale>
<asrwt>0</asrwt>
<pdfrwt beam="1">  1        1 0.16564804E+00 0.46088459E+03</pdfrwt>
<pdfrwt beam="2">  1       -1 0.75877212E-02 0.46088459E+03</pdfrwt>
<totfact> 0.13056827E+03</totfact>
</mgrwt>
</event>
<event>
 4    0  0.1264838E-002  0.8996863E+03  0.7546771E-02  0.9425974E-01
         -1   -1    0    0    0  501 -0.00000000000E+00  0.00000000000E+00  0.47536811483E+03  0.47536811483E+03  0.00000000000E+00 0.  1.
          1   -1    0    0  502    0  0.00000000000E+00 -0.00000000000E+00 -0.42568876525E+03  0.42568876525E+03  0.00000000000E+00 0. -1.
         25    1    1    2    0    0 -0.94633605092E+02 -0.42993342607E+03 -0.34212428664E+01  0.45764066140E+03  0.12500000000E+03 0.  0.
         21    1    1    2  502  501  0.94633605092E+02  0.42993342607E+03  0.53100592445E+02  0.44341621867E+03  0.00000000000E+00 0. -1.
<mgrwt>
<rscale>  3 0.89968631E+03</rscale>
<asrwt>0</asrwt>
<pdfrwt beam="1">  1        1 0.65490580E-01 0.89968631E+03</pdfrwt>
<pdfrwt beam="2">  1       -1 0.73133556E-01 0.89968631E+03</pdfrwt>
<totfact> 0.10489428E+02</totfact>
</mgrwt>
</event>
<event>
 4    0  0.1264838E-002  0.5509981E+03  0.7546771E-02  0.1001263E+00
          2   -1    0    0  502    0  0.00000000000E+00  0.00000000000E+00  0.17283454691E+04  0.17283454691E+04  0.00000000000E+00 0.  1.
         -2   -1    0    0    0  501 -0.00000000000E+00 -0.00000000000E+00 -0.43914667351E+02  0.43914667351E+02  0.00000000000E+00 0. -1.
         25    1    1    2    0    0 -0.21592866979E+03 -0.73459389071E+01  0.13583807151E+04  0.13811235717E+04  0.12500000000E+03 0.  0.
         21    1    1    2  502  501  0.21592866979E+03  0.73459389071E+01  0.32605008668E+03  0.39113656475E+03  0.00000000000E+00 0. -1.
<mgrwt>
<rscale>  3 0.55099806E+03</rscale>
<asrwt>0</asrwt>
<pdfrwt beam="1">  1        2 0.26589925E+00 0.55099806E+03</pdfrwt>
<pdfrwt beam="2">  1       -2 0.67561040E-02 0.55099806E+03</pdfrwt>
<totfact> 0.12497454E+03</totfact>
</mgrwt>
</event>
<event>
 4    0  0.1264838E-002  0.5766351E+03  0.7546771E-02  0.9955103E-01
          1   -1    0    0  502    0  0.00000000000E+00  0.00000000000E+00  0.56900810309E+02  0.56900810309E+02  0.00000000000E+00 0. -1.
         -1   -1    0    0    0  501 -0.00000000000E+00 -0.00000000000E+00 -0.14609108339E+04  0.14609108339E+04  0.00000000000E+00 0.  1.
         25    1    1    2    0    0 -0.20222146792E+03  0.13237332809E+03 -0.39097272308E+03  0.47634114904E+03  0.12500000000E+03 0.  0.
         21    1    1    2  502  501  0.20222146792E+03 -0.13237332809E+03 -0.10130373005E+04  0.10414704951E+04  0.00000000000E+00 0.  1.
<mgrwt>
<rscale>  3 0.57663510E+03</rscale>
<asrwt>0</asrwt>
<pdfrwt beam="1">  1        1 0.87539731E-02 0.57663510E+03</pdfrwt>
<pdfrwt beam="2">  1       -1 0.22475545E+00 0.57663510E+03</pdfrwt>
<totfact> 0.85744546E+01</totfact>
</mgrwt>
</event>
<event>
 4    0  0.1264838E-002  0.5249637E+03  0.7546771E-02  0.1007461E+00
          1   -1    0    0  502    0  0.00000000000E+00  0.00000000000E+00  0.14945226186E+04  0.14945226186E+04  0.00000000000E+00 0. -1.
         -1   -1    0    0    0  501 -0.00000000000E+00 -0.00000000000E+00 -0.46099481638E+02  0.46099481638E+02  0.00000000000E+00 0.  1.
         25    1    1    2    0    0  0.90509796398E+02 -0.22329732935E+03  0.93262790065E+03  0.97132565168E+03  0.12500000000E+03 0.  0.
         21    1    1    2  502  501 -0.90509796398E+02  0.22329732935E+03  0.51579523631E+03  0.56929644856E+03  0.00000000000E+00 0. -1.
<mgrwt>
<rscale>  3 0.52496369E+03</rscale>
<asrwt>0</asrwt>
<pdfrwt beam="1">  1        1 0.22992652E+00 0.52496369E+03</pdfrwt>
<pdfrwt beam="2">  1       -1 0.70922291E-02 0.52496369E+03</pdfrwt>
<totfact> 0.73475356E+02</totfact>
</mgrwt>
</event>
<event>
 4    0  0.1264838E-002  0.5567590E+03  0.7546771E-02  0.9999415E-01
         -1   -1    0    0    0  501 -0.00000000000E+00  0.00000000000E+00  0.66392706470E+02  0.66392706470E+02  0.00000000000E+00 0. -1.
          1   -1    0    0  502    0  0.00000000000E+00 -0.00000000000E+00 -0.11672239808E+04  0.11672239808E+04  0.00000000000E+00 0.  1.
         25    1    1    2    0    0  0.25274223853E+02  0.23486161762E+03 -0.31523834455E+03  0.41327833200E+03  0.12500000000E+03 0.  0.
         21    1    1    2  502  501 -0.25274223853E+02 -0.23486161762E+03 -0.78559292981E+03  0.82033835531E+03  0.00000000000E+00 0. -1.
<mgrwt>
<rscale>  3 0.55675905E+03</rscale>
<asrwt>0</asrwt>
<pdfrwt beam="1">  1        1 0.17957292E+00 0.55675905E+03</pdfrwt>
<pdfrwt beam="2">  1       -1 0.10214262E-01 0.55675905E+03</pdfrwt>
<totfact> 0.70219064E+02</totfact>
</mgrwt>
</event>
<event>
 4    0  0.1264838E-002  0.7754073E+03  0.7546771E-02  0.9596312E-01
          2   -1    0    0  502    0  0.00000000000E+00  0.00000000000E+00  0.10121349668E+04  0.10121349668E+04  0.00000000000E+00 0. -1.
         -2   -1    0    0    0  501 -0.00000000000E+00 -0.00000000000E+00 -0.14851192172E+03  0.14851192172E+03  0.00000000000E+00 0.  1.
         25    1    1    2    0    0 -0.21400957404E+03 -0.28346562493E+03  0.25105281386E+03  0.45255427701E+03  0.12500000000E+03 0.  0.
         21    1    1    2  502  501  0.21400957404E+03  0.28346562493E+03  0.61257023124E+03  0.70809261152E+03  0.00000000000E+00 0. -1.
<mgrwt>
<rscale>  3 0.77540727E+03</rscale>
<asrwt>0</asrwt>
<pdfrwt beam="1">  1        2 0.15571307E+00 0.77540727E+03</pdfrwt>
<pdfrwt beam="2">  1       -2 0.22847989E-01 0.77540727E+03</pdfrwt>
<totfact> 0.41927257E+02</totfact>
</mgrwt>
</event>
<event>
 4    0  0.1264838E-002  0.7515523E+03  0.7546771E-02  0.9632918E-01
          2   -1    0    0  502    0  0.00000000000E+00  0.00000000000E+00  0.33052673647E+03  0.33052673647E+03  0.00000000000E+00 0.  1.
         -2   -1    0    0    0  501 -0.00000000000E+00 -0.00000000000E+00 -0.42722026324E+03  0.42722026324E+03  0.00000000000E+00 0. -1.
         25    1    1    2    0    0  0.65827100046E+02 -0.28815969702E+03  0.16687462008E+03  0.36171999795E+03  0.12500000000E+03 0.  0.
         21    1    1    2  502  501 -0.65827100046E+02  0.28815969702E+03 -0.26356814685E+03  0.39602700176E+03  0.00000000000E+00 0. -1.
<mgrwt>
<rscale>  3 0.75155231E+03</rscale>
<asrwt>0</asrwt>
<pdfrwt beam="1">  1        2 0.50850267E-01 0.75155231E+03</pdfrwt>
<pdfrwt beam="2">  1       -2 0.65726194E-01 0.75155231E+03</pdfrwt>
<totfact> 0.21189758E+02</totfact>
</mgrwt>
</event>
<event>
 4    0  0.1264838E-002  0.4741538E+03  0.7546771E-02  0.1020754E+00
         -2   -1    0    0    0  501 -0.00000000000E+00  0.00000000000E+00  0.98467866404E+02  0.98467866404E+02  0.00000000000E+00 0.  1.
          2   -1    0    0  502    0  0.00000000000E+00 -0.00000000000E+00 -0.57079990568E+03  0.57079990568E+03  0.00000000000E+00 0. -1.
         25    1    1    2    0    0 -0.12570231620E+03 -0.17456099843E+03 -0.32161051611E+03  0.40660907336E+03  0.12500000000E+03 0.  0.
         21    1    1    2  502  501  0.12570231620E+03  0.17456099843E+03 -0.15072152317E+03  0.26265869873E+03  0.00000000000E+00 0.  1.
<mgrwt>
<rscale>  3 0.47415377E+03</rscale>
<asrwt>0</asrwt>
<pdfrwt beam="1">  1        2 0.87815373E-01 0.47415377E+03</pdfrwt>
<pdfrwt beam="2">  1       -2 0.15148902E-01 0.47415377E+03</pdfrwt>
<totfact> 0.18102754E+03</totfact>
</mgrwt>
</event>
<event>
 4    0  0.1264838E-002  0.4626345E+03  0.7546771E-02  0.1024020E+00
         -2   -1    0    0    0  501 -0.00000000000E+00  0.00000000000E+00  0.48287030456E+03  0.48287030456E+03  0.00000000000E+00 0. -1.
          2   -1    0    0  502    0  0.00000000000E+00 -0.00000000000E+00 -0.11081167292E+03  0.11081167292E+03  0.00000000000E+00 0.  1.
         25    1    1    2    0    0  0.13852559896E+03  0.14620089526E+03  0.29405250183E+03  0.37769818265E+03  0.12500000000E+03 0.  0.
         21    1    1    2  502  501 -0.13852559896E+03 -0.14620089526E+03  0.78006129810E+02  0.21598379483E+03  0.00000000000E+00 0.  1.
<mgrwt>
<rscale>  3 0.46263448E+03</rscale>
<asrwt>0</asrwt>
<pdfrwt beam="1">  1        2 0.17047950E-01 0.46263448E+03</pdfrwt>
<pdfrwt beam="2">  1       -2 0.74287738E-01 0.46263448E+03</pdfrwt>
<totfact> 0.56442477E+02</totfact>
</mgrwt>
</event>
<event>
 4    0  0.1264838E-002  0.4617244E+03  0.7546771E-02  0.1024282E+00
          2   -1    0    0  502    0  0.00000000000E+00  0.00000000000E+00  0.91094343370E+03  0.91094343370E+03  0.00000000000E+00 0. -1.
         -2   -1    0    0    0  501 -0.00000000000E+00 -0.00000000000E+00 -0.58507855860E+02  0.58507855860E+02  0.00000000000E+00 0.  1.
         25    1    1    2    0    0  0.18087841036E+03  0.11267650371E+03  0.49719114639E+03  0.55519098504E+03  0.12500000000E+03 0.  0.
         21    1    1    2  502  501 -0.18087841036E+03 -0.11267650371E+03  0.35524443146E+03  0.41426030452E+03  0.00000000000E+00 0. -1.
<mgrwt>
<rscale>  3 0.46172436E+03</rscale>
<asrwt>0</asrwt>
<pdfrwt beam="1">  1        2 0.14014513E+00 0.46172436E+03</pdfrwt>
<pdfrwt beam="2">  1       -2 0.90012092E-02 0.46172436E+03</pdfrwt>
<totfact> 0.23519177E+03</totfact>
</mgrwt>
</event>
<event>
 4    0  0.1455784E-002  0.8841819E+03  0.7546771E-02  0.9445574E-01
          1   -1    0    0  502    0  0.00000000000E+00  0.00000000000E+00  0.41145453531E+03  0.41145453531E+03  0.00000000000E+00 0.  1.
         -1   -1    0    0    0  501 -0.00000000000E+00 -0.00000000000E+00 -0.47500853638E+03  0.47500853638E+03  0.00000000000E+00 0. -1.
         25    1    1    2    0    0  0.78334836773E+02  0.23822831511E+03 -0.38662364217E+03  0.47748499186E+03  0.12500000000E+03 0.  0.
         21    1    1    2  502  501 -0.78334836773E+02 -0.23822831511E+03  0.32306964110E+03  0.40897807982E+03  0.00000000000E+00 0.  1.
<mgrwt>
<rscale>  3 0.88418192E+03</rscale>
<asrwt>0</asrwt>
<pdfrwt beam="1">  1        1 0.63300697E-01 0.88418192E+03</pdfrwt>
<pdfrwt beam="2">  1       -1 0.73078237E-01 0.88418192E+03</pdfrwt>
<totfact> 0.11004631E+02</totfact>
</mgrwt>
</event>
<event>
 4    0  0.1264838E-002  0.6623911E+03  0.7546771E-02  0.9783802E-01
         -1   -1    0    0    0  501 -0.00000000000E+00  0.00000000000E+00  0.85561458515E+02  0.85561458515E+02  0.00000000000E+00 0.  1.
          1   -1    0    0  502    0  0.00000000000E+00 -0.00000000000E+00 -0.12820080294E+04  0.12820080294E+04  0.00000000000E+00 0. -1.
         25    1    1    2    0    0  0.20719960162E+03  0.23466040508E+03 -0.75042789981E+03  0.82265680173E+03  0.12500000000E+03 0.  0.
         21    1    1    2  502  501 -0.20719960162E+03 -0.23466040508E+03 -0.44601867112E+03  0.54491268623E+03  0.00000000000E+00 0. -1.
<mgrwt>
<rscale>  3 0.66239105E+03</rscale>
<asrwt>0</asrwt>
<pdfrwt beam="1">  1        1 0.19723201E+00 0.66239105E+03</pdfrwt>
<pdfrwt beam="2">  1       -1 0.13163301E-01 0.66239105E+03</pdfrwt>
<totfact> 0.38594178E+02</totfact>
</mgrwt>
</event>
<event>
 4    0  0.1264838E-002  0.4607462E+03  0.7546771E-02  0.1024565E+00
          1   -1    0    0  502    0  0.00000000000E+00  0.00000000000E+00  0.21213667756E+03  0.21213667756E+03  0.00000000000E+00 0.  1.
         -1   -1    0    0    0  501 -0.00000000000E+00 -0.00000000000E+00 -0.25017727190E+03  0.25017727190E+03  0.00000000000E+00 0. -1.
         25    1    1    2    0    0  0.20032276535E+03  0.59516942159E+02  0.23031954839E+02  0.24459547761E+03  0.12500000000E+03 0.  0.
         21    1    1    2  502  501 -0.20032276535E+03 -0.59516942159E+02 -0.61072549183E+02  0.21771847185E+03  0.00000000000E+00 0. -1.
<mgrwt>
<rscale>  3 0.46074624E+03</rscale>
<asrwt>0</asrwt>
<pdfrwt beam="1">  1        1 0.32636412E-01 0.46074624E+03</pdfrwt>
<pdfrwt beam="2">  1       -1 0.38488811E-01 0.46074624E+03</pdfrwt>
<totfact> 0.90306942E+02</totfact>
</mgrwt>
</event>
<event>
 4    0  0.1264838E-002  0.5091992E+03  0.7546771E-02  0.1011405E+00
          2   -1    0    0  502    0  0.00000000000E+00  0.00000000000E+00  0.14495277748E+04  0.14495277748E+04  0.00000000000E+00 0.  1.
         -2   -1    0    0    0  501 -0.00000000000E+00 -0.00000000000E+00 -0.44718676199E+02  0.44718676199E+02  0.00000000000E+00 0. -1.
         25    1    1    2    0    0  0.90026636913E+02  0.21291370312E+03  0.92579014050E+03  0.96236657495E+03  0.12500000000E+03 0.  0.
         21    1    1    2  502  501 -0.90026636913E+02 -0.21291370312E+03  0.47901895813E+03  0.53187987608E+03  0.00000000000E+00 0. -1.
<mgrwt>
<rscale>  3 0.50919923E+03</rscale>
<asrwt>0</asrwt>
<pdfrwt beam="1">  1        2 0.22300424E+00 0.50919923E+03</pdfrwt>
<pdfrwt beam="2">  1       -2 0.68797975E-02 0.50919923E+03</pdfrwt>
<totfact> 0.17269482E+03</totfact>
</mgrwt>
</event>
<event>
 4    0  0.1264838E-002  0.9131216E+03  0.7546771E-02  0.9409326E-01
          1   -1    0    0  502    0  0.00000000000E+00  0.00000000000E+00  0.17050195886E+04  0.17050195886E+04  0.00000000000E+00 0. -1.
         -1   -1    0    0    0  501 -0.00000000000E+00 -0.00000000000E+00 -0.12225534033E+03  0.12225534033E+03  0.00000000000E+00 0.  1.
         25    1    1    2    0    0  0.22436878232E+03  0.34563739667E+03  0.11579897064E+04  0.12354641721E+04  0.12500000000E+03 0.  0.
         21    1    1    2  502  501 -0.22436878232E+03 -0.34563739667E+03  0.42477454184E+03  0.59181075679E+03  0.00000000000E+00 0.  1.
<mgrwt>
<rscale>  3 0.91312157E+03</rscale>
<asrwt>0</asrwt>
<pdfrwt beam="1">  1        1 0.26231069E+00 0.91312157E+03</pdfrwt>
<pdfrwt beam="2">  1       -1 0.18808515E-01 0.91312157E+03</pdfrwt>
<totfact> 0.10827850E+02</totfact>
</mgrwt>
</event>
<event>
 4    0  0.1264838E-002  0.4651374E+03  0.7546771E-02  0.1023302E+00
         -1   -1    0    0    0  501 -0.00000000000E+00  0.00000000000E+00  0.77768303996E+02  0.77768303996E+02  0.00000000000E+00 0.  1.
          1   -1    0    0  502    0  0.00000000000E+00 -0.00000000000E+00 -0.69550455365E+03  0.69550455365E+03  0.00000000000E+00 0. -1.
         25    1    1    2    0    0  0.12390021916E+03 -0.17525601481E+03 -0.36804539463E+03  0.44401390467E+03  0.12500000000E+03 0.  0.
         21    1    1    2  502  501 -0.12390021916E+03  0.17525601481E+03 -0.24969085502E+03  0.32925895298E+03  0.00000000000E+00 0.  1.
<mgrwt>
<rscale>  3 0.46513744E+03</rscale>
<asrwt>0</asrwt>
<pdfrwt beam="1">  1        1 0.10700070E+00 0.46513744E+03</pdfrwt>
<pdfrwt beam="2">  1       -1 0.11964354E-01 0.46513744E+03</pdfrwt>
<totfact> 0.13108645E+03</totfact>
</mgrwt>
</event>
<event>
 4    0  0.1264838E-002  0.4741390E+03  0.7546771E-02  0.1020758E+00
         -2   -1    0    0    0  501 -0.00000000000E+00  0.00000000000E+00  0.16778958252E+02  0.16778958252E+02  0.00000000000E+00 0.  1.
          2   -1    0    0  502    0  0.00000000000E+00 -0.00000000000E+00 -0.33495493195E+04  0.33495493195E+04  0.00000000000E+00 0. -1.
         25    1    1    2    0    0  0.88427391638E+02  0.18940212733E+03 -0.22826523271E+04  0.22956086809E+04  0.12500000000E+03 0.  0.
         21    1    1    2  502  501 -0.88427391638E+02 -0.18940212733E+03 -0.10501180342E+04  0.10707195969E+04  0.00000000000E+00 0. -1.
<mgrwt>
<rscale>  3 0.47413900E+03</rscale>
<asrwt>0</asrwt>
<pdfrwt beam="1">  1        2 0.51531527E+00 0.47413900E+03</pdfrwt>
<pdfrwt beam="2">  1       -2 0.25813783E-02 0.47413900E+03</pdfrwt>
<totfact> 0.64888794E+02</totfact>
</mgrwt>
</event>
<event>
 4    0  0.1264838E-002  0.5938367E+03  0.7546771E-02  0.9918276E-01
          2   -1    0    0  502    0  0.00000000000E+00  0.00000000000E+00  0.68969313931E+03  0.68969313931E+03  0.00000000000E+00 0. -1.
         -2   -1    0    0    0  501 -0.00000000000E+00 -0.00000000000E+00 -0.12782570178E+03  0.12782570178E+03  0.00000000000E+00 0.  1.
         25    1    1    2    0    0  0.52377326181E+02 -0.23648202123E+03  0.89866737767E+02  0.28699853871E+03  0.12500000000E+03 0.  0.
         21    1    1    2  502  501 -0.52377326181E+02  0.23648202123E+03  0.47200069977E+03  0.53052030239E+03  0.00000000000E+00 0. -1.
<mgrwt>
<rscale>  3 0.59383671E+03</rscale>
<asrwt>0</asrwt>
<pdfrwt beam="1">  1        2 0.10610663E+00 0.59383671E+03</pdfrwt>
<pdfrwt beam="2">  1       -2 0.19665493E-01 0.59383671E+03</pdfrwt>
<totfact> 0.92189965E+02</totfact>
</mgrwt>
</event>
<event>
 4    0  0.1264838E-002  0.5335417E+03  0.7546771E-02  0.1005377E+00
          2   -1    0    0  502    0  0.00000000000E+00  0.00000000000E+00  0.38954708775E+04  0.38954708775E+04  0.00000000000E+00 0.  1.
         -2   -1    0    0    0  501 -0.00000000000E+00 -0.00000000000E+00 -0.18269086479E+02  0.18269086479E+02  0.00000000000E+00 0. -1.
         25    1    1    2    0    0  0.20977136399E+03 -0.14306127218E+02  0.30656545750E+04  0.30753978057E+04  0.12500000000E+03 0.  0.
         21    1    1    2  502  501 -0.20977136399E+03  0.14306127218E+02  0.81154721606E+03  0.83834215826E+03  0.00000000000E+00 0. -1.
<mgrwt>
<rscale>  3 0.53354173E+03</rscale>
<asrwt>0</asrwt>
<pdfrwt beam="1">  1        2 0.59930255E+00 0.53354173E+03</pdfrwt>
<pdfrwt beam="2">  1       -2 0.28106318E-02 0.53354173E+03</pdfrwt>
<totfact> 0.23495626E+02</totfact>
</mgrwt>
</event>
<event>
 4    0  0.1264838E-002  0.1128541E+04  0.7546771E-02  0.9177812E-01
         -2   -1    0    0    0  501 -0.00000000000E+00  0.00000000000E+00  0.53595051269E+03  0.53595051269E+03  0.00000000000E+00 0.  1.
          2   -1    0    0  502    0  0.00000000000E+00 -0.00000000000E+00 -0.59408657236E+03  0.59408657236E+03  0.00000000000E+00 0. -1.
         25    1    1    2    0    0  0.20369378462E+03 -0.33742313171E+02 -0.54780475974E+03  0.59861904111E+03  0.12500000000E+03 0.  0.
         21    1    1    2  502  501 -0.20369378462E+03  0.33742313171E+02  0.48966870007E+03  0.53141804393E+03  0.00000000000E+00 0.  1.
<mgrwt>
<rscale>  3 0.11285407E+04</rscale>
<asrwt>0</asrwt>
<pdfrwt beam="1">  1        2 0.91397934E-01 0.11285407E+04</pdfrwt>
<pdfrwt beam="2">  1       -2 0.82453925E-01 0.11285407E+04</pdfrwt>
<totfact> 0.64271803E+01</totfact>
</mgrwt>
</event>
<event>
 4    0  0.1264838E-002  0.4885068E+03  0.7546771E-02  0.1016823E+00
         -3   -1    0    0    0  501 -0.00000000000E+00  0.00000000000E+00  0.72394765659E+02  0.72394765659E+02  0.00000000000E+00 0. -1.
          3   -1    0    0  502    0  0.00000000000E+00 -0.00000000000E+00 -0.82408877234E+03  0.82408877234E+03  0.00000000000E+00 0.  1.
         25    1    1    2    0    0  0.80925373467E+01  0.22444645166E+03 -0.32565726505E+03  0.41487269506E+03  0.12500000000E+03 0.  0.
         21    1    1    2  502  501 -0.80925373467E+01 -0.22444645166E+03 -0.42603674163E+03  0.48161084295E+03  0.00000000000E+00 0. -1.
<mgrwt>
<rscale>  3 0.48850676E+03</rscale>
<asrwt>0</asrwt>
<pdfrwt beam="1">  1        3 0.12678289E+00 0.48850676E+03</pdfrwt>
<pdfrwt beam="2">  1       -3 0.11137656E-01 0.48850676E+03</pdfrwt>
<totfact> 0.83003115E+01</totfact>
</mgrwt>
</event>
<event>
 4    0  0.1319081E-002  0.5282821E+03  0.7546771E-02  0.1006650E+00
          1   -1    0    0  502    0  0.00000000000E+00  0.00000000000E+00  0.11629528175E+04  0.11629528175E+04  0.00000000000E+00 0. -1.
         -1   -1    0    0    0  501 -0.00000000000E+00 -0.00000000000E+00 -0.59994262420E+02  0.59994262420E+02  0.00000000000E+00 0.  1.
         25    1    1    2    0    0  0.19507894389E+03 -0.88425022623E+02  0.28678450832E+03  0.37913735399E+03  0.12500000000E+03 0.  0.
         21    1    1    2  502  501 -0.19507894389E+03  0.88425022623E+02  0.81617404680E+03  0.84380972597E+03  0.00000000000E+00 0. -1.
<mgrwt>
<rscale>  3 0.52828211E+03</rscale>
<asrwt>0</asrwt>
<pdfrwt beam="1">  1        1 0.17891580E+00 0.52828211E+03</pdfrwt>
<pdfrwt beam="2">  1       -1 0.92298874E-02 0.52828211E+03</pdfrwt>
<totfact> 0.83037645E+02</totfact>
</mgrwt>
</event>
<event>
 4    0  0.1264838E-002  0.5034507E+03  0.7546771E-02  0.1012882E+00
          1   -1    0    0  502    0  0.00000000000E+00  0.00000000000E+00  0.19588861382E+03  0.19588861382E+03  0.00000000000E+00 0.  1.
         -1   -1    0    0    0  501 -0.00000000000E+00 -0.00000000000E+00 -0.32347798278E+03  0.32347798278E+03  0.00000000000E+00 0. -1.
         25    1    1    2    0    0 -0.17263896088E+03 -0.13458772901E+03  0.23824423940E+02  0.25320085069E+03  0.12500000000E+03 0.  0.
         21    1    1    2  502  501  0.17263896088E+03  0.13458772901E+03 -0.15141379290E+03  0.26616574591E+03  0.00000000000E+00 0. -1.
<mgrwt>
<rscale>  3 0.50345071E+03</rscale>
<asrwt>0</asrwt>
<pdfrwt beam="1">  1        1 0.30136710E-01 0.50345071E+03</pdfrwt>
<pdfrwt beam="2">  1       -1 0.49765843E-01 0.50345071E+03</pdfrwt>
<totfact> 0.62457437E+02</totfact>
</mgrwt>
</event>
<event>
 4    0  0.1264838E-002  0.5705923E+03  0.7546771E-02  0.9968369E-01
         -2   -1    0    0    0  501 -0.00000000000E+00  0.00000000000E+00  0.14059180147E+03  0.14059180147E+03  0.00000000000E+00 0. -1.
          2   -1    0    0  502    0  0.00000000000E+00 -0.00000000000E+00 -0.57893769513E+03  0.57893769513E+03  0.00000000000E+00 0.  1.
         25    1    1    2    0    0 -0.20517282731E+03 -0.12268489087E+03 -0.67115503159E+02  0.27798734194E+03  0.12500000000E+03 0.  0.
         21    1    1    2  502  501  0.20517282731E+03  0.12268489087E+03 -0.37123039049E+03  0.44154215466E+03  0.00000000000E+00 0.  1.
<mgrwt>
<rscale>  3 0.57059230E+03</rscale>
<asrwt>0</asrwt>
<pdfrwt beam="1">  1        2 0.89067337E-01 0.57059230E+03</pdfrwt>
<pdfrwt beam="2">  1       -2 0.21629508E-01 0.57059230E+03</pdfrwt>
<totfact> 0.96578105E+02</totfact>
</mgrwt>
</event>
<event>
 4    0  0.1264838E-002  0.5963959E+03  0.7546771E-02  0.9912912E-01
         -2   -1    0    0    0  501 -0.00000000000E+00  0.00000000000E+00  0.48652261202E+03  0.48652261202E+03  0.00000000000E+00 0.  1.
          2   -1    0    0  502    0  0.00000000000E+00 -0.00000000000E+00 -0.18277057982E+03  0.18277057982E+03  0.00000000000E+00 0. -1.
         25    1    1    2    0    0  0.16836708059E+03 -0.11308832217E+03 -0.66303698173E+02  0.24730067292E+03  0.12500000000E+03 0.  0.
         21    1    1    2  502  501 -0.16836708059E+03  0.11308832217E+03  0.37005573038E+03  0.42199251892E+03  0.00000000000E+00 0.  1.
<mgrwt>
<rscale>  3 0.59639591E+03</rscale>
<asrwt>0</asrwt>
<pdfrwt beam="1">  1        2 0.28118551E-01 0.59639591E+03</pdfrwt>
<pdfrwt beam="2">  1       -2 0.74849632E-01 0.59639591E+03</pdfrwt>
<totfact> 0.31052686E+02</totfact>
</mgrwt>
</event>
<event>
 4    0  0.1264838E-002  0.4857059E+03  0.7546771E-02  0.1017579E+00
         -2   -1    0    0    0  501 -0.00000000000E+00  0.00000000000E+00  0.27874386084E+02  0.27874386084E+02  0.00000000000E+00 0. -1.
          2   -1    0    0  502    0  0.00000000000E+00 -0.00000000000E+00 -0.21158337451E+04  0.21158337451E+04  0.00000000000E+00 0.  1.
         25    1    1    2    0    0  0.20252684959E+03  0.10101902897E+03 -0.10504244695E+04  0.10817756399E+04  0.12500000000E+03 0.  0.
         21    1    1    2  502  501 -0.20252684959E+03 -0.10101902897E+03 -0.10375348895E+04  0.10619324913E+04  0.00000000000E+00 0.  1.
<mgrwt>
<rscale>  3 0.48570595E+03</rscale>
<asrwt>0</asrwt>
<pdfrwt beam="1">  1        2 0.32551290E+00 0.48570595E+03</pdfrwt>
<pdfrwt beam="2">  1       -2 0.42883668E-02 0.48570595E+03</pdfrwt>
<totfact> 0.15707481E+03</totfact>
</mgrwt>
</event>
<event>
 4    0  0.1264838E-002  0.4866511E+03  0.7546771E-02  0.1017323E+00
         -2   -1    0    0    0  501 -0.00000000000E+00  0.00000000000E+00  0.82977588134E+02  0.82977588134E+02  0.00000000000E+00 0. -1.
          2   -1    0    0  502    0  0.00000000000E+00 -0.00000000000E+00 -0.71353384983E+03  0.71353384983E+03  0.00000000000E+00 0.  1.
         25    1    1    2    0    0 -0.10972140515E+03 -0.18773853776E+03 -0.22790677890E+03  0.33889680609E+03  0.12500000000E+03 0.  0.
         21    1    1    2  502  501  0.10972140515E+03  0.18773853776E+03 -0.40264948280E+03  0.45761463188E+03  0.00000000000E+00 0. -1.
<mgrwt>
<rscale>  3 0.48665108E+03</rscale>
<asrwt>0</asrwt>
<pdfrwt beam="1">  1        2 0.10977444E+00 0.48665108E+03</pdfrwt>
<pdfrwt beam="2">  1       -2 0.12765783E-01 0.48665108E+03</pdfrwt>
<totfact> 0.18370649E+03</totfact>
</mgrwt>
</event>
<event>
 4    0  0.1264838E-002  0.5646552E+03  0.7546771E-02  0.9981576E-01
         -1   -1    0    0    0  501 -0.00000000000E+00  0.00000000000E+00  0.48999327459E+02  0.48999327459E+02  0.00000000000E+00 0.  1.
          1   -1    0    0  502    0  0.00000000000E+00 -0.00000000000E+00 -0.16267341175E+04  0.16267341175E+04  0.00000000000E+00 0. -1.
         25    1    1    2    0    0 -0.26310591667E+03  0.15963136085E+02 -0.97909145430E+03  0.10216284163E+04  0.12500000000E+03 0.  0.
         21    1    1    2  502  501  0.26310591667E+03 -0.15963136085E+02 -0.59864333578E+03  0.65410502871E+03  0.00000000000E+00 0.  1.
<mgrwt>
<rscale>  3 0.56465521E+03</rscale>
<asrwt>0</asrwt>
<pdfrwt beam="1">  1        1 0.25026678E+00 0.56465521E+03</pdfrwt>
<pdfrwt beam="2">  1       -1 0.75383582E-02 0.56465521E+03</pdfrwt>
<totfact> 0.54307311E+02</totfact>
</mgrwt>
</event>
<event>
 4    0  0.1264838E-002  0.8153216E+03  0.7546771E-02  0.9538101E-01
          2   -1    0    0  502    0  0.00000000000E+00  0.00000000000E+00  0.17737742367E+04  0.17737742367E+04  0.00000000000E+00 0.  1.
         -2   -1    0    0    0  501 -0.00000000000E+00 -0.00000000000E+00 -0.93691362967E+02  0.93691362967E+02  0.00000000000E+00 0. -1.
         25    1    1    2    0    0  0.30095292808E+03  0.25986737097E+03  0.81615185117E+03  0.91642378820E+03  0.12500000000E+03 0.  0.
         21    1    1    2  502  501 -0.30095292808E+03 -0.25986737097E+03  0.86393102260E+03  0.95104181150E+03  0.00000000000E+00 0.  1.
<mgrwt>
<rscale>  3 0.81532160E+03</rscale>
<asrwt>0</asrwt>
<pdfrwt beam="1">  1        2 0.27288832E+00 0.81532160E+03</pdfrwt>
<pdfrwt beam="2">  1       -2 0.14414057E-01 0.81532160E+03</pdfrwt>
<totfact> 0.33897227E+02</totfact>
</mgrwt>
</event>
<event>
 4    0  0.1264838E-002  0.1561559E+04  0.7546771E-02  0.8844518E-01
          1   -1    0    0  502    0  0.00000000000E+00  0.00000000000E+00  0.56456415290E+03  0.56456415290E+03  0.00000000000E+00 0.  1.
         -1   -1    0    0    0  501 -0.00000000000E+00 -0.00000000000E+00 -0.10798001449E+04  0.10798001449E+04  0.00000000000E+00 0. -1.
         25    1    1    2    0    0 -0.42515510403E+03  0.64527471886E+03 -0.18713321378E+03  0.80484791419E+03  0.12500000000E+03 0.  0.
         21    1    1    2  502  501  0.42515510403E+03 -0.64527471886E+03 -0.32810277824E+03  0.83951638362E+03  0.00000000000E+00 0. -1.
<mgrwt>
<rscale>  3 0.15615588E+04</rscale>
<asrwt>0</asrwt>
<pdfrwt beam="1">  1        1 0.86856025E-01 0.15615588E+04</pdfrwt>
<pdfrwt beam="2">  1       -1 0.16612310E+00 0.15615588E+04</pdfrwt>
<totfact> 0.94568873E+00</totfact>
</mgrwt>
</event>
<event>
 4    0  0.1264838E-002  0.4925023E+03  0.7546771E-02  0.1015755E+00
          1   -1    0    0  502    0  0.00000000000E+00  0.00000000000E+00  0.16540727944E+03  0.16540727944E+03  0.00000000000E+00 0.  1.
         -1   -1    0    0    0  501 -0.00000000000E+00 -0.00000000000E+00 -0.36660802707E+03  0.36660802707E+03  0.00000000000E+00 0. -1.
         25    1    1    2    0    0 -0.14558897049E+03 -0.15703081211E+03 -0.19889353973E+03  0.31786548165E+03  0.12500000000E+03 0.  0.
         21    1    1    2  502  501  0.14558897049E+03  0.15703081211E+03 -0.23072079035E+01  0.21414982486E+03  0.00000000000E+00 0. -1.
<mgrwt>
<rscale>  3 0.49250233E+03</rscale>
<asrwt>0</asrwt>
<pdfrwt beam="1">  1        1 0.25447274E-01 0.49250233E+03</pdfrwt>
<pdfrwt beam="2">  1       -1 0.56401235E-01 0.49250233E+03</pdfrwt>
<totfact> 0.61262295E+02</totfact>
</mgrwt>
</event>
<event>
 4    0  0.1264838E-002  0.4878235E+03  0.7546771E-02  0.1017007E+00
         -2   -1    0    0    0  501 -0.00000000000E+00  0.00000000000E+00  0.14211686315E+03  0.14211686315E+03  0.00000000000E+00 0. -1.
          2   -1    0    0  502    0  0.00000000000E+00 -0.00000000000E+00 -0.41861980617E+03  0.41861980617E+03  0.00000000000E+00 0.  1.
         25    1    1    2    0    0 -0.18868767489E+03 -0.11833125064E+03 -0.20283269773E+03  0.32614632728E+03  0.12500000000E+03 0.  0.
         21    1    1    2  502  501  0.18868767489E+03  0.11833125064E+03 -0.73670245292E+02  0.23459034203E+03  0.00000000000E+00 0. -1.
<mgrwt>
<rscale>  3 0.48782347E+03</rscale>
<asrwt>0</asrwt>
<pdfrwt beam="1">  1        2 0.64403047E-01 0.48782347E+03</pdfrwt>
<pdfrwt beam="2">  1       -2 0.21864133E-01 0.48782347E+03</pdfrwt>
<totfact> 0.13750121E+03</totfact>
</mgrwt>
</event>
<event>
 4    0  0.1264838E-002  0.4808525E+03  0.7546771E-02  0.1018901E+00
         -2   -1    0    0    0  501 -0.00000000000E+00  0.00000000000E+00  0.38519544892E+03  0.38519544892E+03  0.00000000000E+00 0.  1.
          2   -1    0    0  502    0  0.00000000000E+00 -0.00000000000E+00 -0.15006610892E+03  0.15006610892E+03  0.00000000000E+00 0. -1.
         25    1    1    2    0    0  0.18550049861E+03  0.12525531137E+03  0.11156486573E+03  0.27959085692E+03  0.12500000000E+03 0.  0.
         21    1    1    2  502  501 -0.18550049861E+03 -0.12525531137E+03  0.12356447426E+03  0.25567070092E+03  0.00000000000E+00 0.  1.
<mgrwt>
<rscale>  3 0.48085250E+03</rscale>
<asrwt>0</asrwt>
<pdfrwt beam="1">  1        2 0.23087094E-01 0.48085250E+03</pdfrwt>
<pdfrwt beam="2">  1       -2 0.59260838E-01 0.48085250E+03</pdfrwt>
<totfact> 0.64281105E+02</totfact>
</mgrwt>
</event>
<event>
 4    0  0.1264838E-002  0.5059397E+03  0.7546771E-02  0.1012240E+00
         -1   -1    0    0    0  501 -0.00000000000E+00  0.00000000000E+00  0.46082571018E+03  0.46082571018E+03  0.00000000000E+00 0.  1.
          1   -1    0    0  502    0  0.00000000000E+00 -0.00000000000E+00 -0.13886756893E+03  0.13886756893E+03  0.00000000000E+00 0. -1.
         25    1    1    2    0    0 -0.14815477666E+03  0.18564998160E+03  0.17315651739E+03  0.31941185487E+03  0.12500000000E+03 0.  0.
         21    1    1    2  502  501  0.14815477666E+03 -0.18564998160E+03  0.14880162386E+03  0.28028142425E+03  0.00000000000E+00 0. -1.
<mgrwt>
<rscale>  3 0.50593970E+03</rscale>
<asrwt>0</asrwt>
<pdfrwt beam="1">  1        1 0.21364242E-01 0.50593970E+03</pdfrwt>
<pdfrwt beam="2">  1       -1 0.70896263E-01 0.50593970E+03</pdfrwt>
<totfact> 0.48902826E+02</totfact>
</mgrwt>
</event>
<event>
 4    0  0.1264838E-002  0.6057369E+03  0.7546771E-02  0.9893575E-01
          2   -1    0    0  502    0  0.00000000000E+00  0.00000000000E+00  0.45772306041E+03  0.45772306041E+03  0.00000000000E+00 0. -1.
         -2   -1    0    0    0  501 -0.00000000000E+00 -0.00000000000E+00 -0.20040348919E+03  0.20040348919E+03  0.00000000000E+00 0.  1.
         25    1    1    2    0    0 -0.13804691301E+03 -0.22446188361E+03  0.26642863337E+01  0.29167136611E+03  0.12500000000E+03 0.  0.
         21    1    1    2  502  501  0.13804691301E+03  0.22446188361E+03  0.25465528489E+03  0.36645518349E+03  0.00000000000E+00 0. -1.
<mgrwt>
<rscale>  3 0.60573690E+03</rscale>
<asrwt>0</asrwt>
<pdfrwt beam="1">  1        2 0.70418932E-01 0.60573690E+03</pdfrwt>
<pdfrwt beam="2">  1       -2 0.30831306E-01 0.60573690E+03</pdfrwt>
<totfact> 0.66825838E+02</totfact>
</mgrwt>
</event>
<event>
 4    0  0.1264838E-002  0.5145039E+03  0.7546771E-02  0.1010061E+00
         -2   -1    0    0    0  501 -0.00000000000E+00  0.00000000000E+00  0.86574940459E+02  0.86574940459E+02  0.00000000000E+00 0.  1.
          2   -1    0    0  502    0  0.00000000000E+00 -0.00000000000E+00 -0.76440777604E+03  0.76440777604E+03  0.00000000000E+00 0. -1.
         25    1    1    2    0    0 -0.17685618637E+03  0.16421981637E+03 -0.38988083783E+03  0.47526658461E+03  0.12500000000E+03 0.  0.
         21    1    1    2  502  501  0.17685618637E+03 -0.16421981637E+03 -0.28795199775E+03  0.37571613188E+03  0.00000000000E+00 0. -1.
<mgrwt>
<rscale>  3 0.51450387E+03</rscale>
<asrwt>0</asrwt>
<pdfrwt beam="1">  1        2 0.11760119E+00 0.51450387E+03</pdfrwt>
<pdfrwt beam="2">  1       -2 0.13319222E-01 0.51450387E+03</pdfrwt>
<totfact> 0.15692675E+03</totfact>
</mgrwt>
</event>
<event>
 4    0  0.1264838E-002  0.5233786E+03  0.7546771E-02  0.1007851E+00
          1   -1    0    0  502    0  0.00000000000E+00  0.00000000000E+00  0.13497194836E+04  0.13497194836E+04  0.00000000000E+00 0.  1.
         -1   -1    0    0    0  501 -0.00000000000E+00 -0.00000000000E+00 -0.50737422663E+02  0.50737422663E+02  0.00000000000E+00 0. -1.
         25    1    1    2    0    0 -0.85464068699E+02  0.21559526466E+03  0.91210382201E+03  0.94939128251E+03  0.12500000000E+03 0.  0.
         21    1    1    2  502  501  0.85464068699E+02 -0.21559526466E+03  0.38687823896E+03  0.45106562379E+03  0.00000000000E+00 0. -1.
<mgrwt>
<rscale>  3 0.52337859E+03</rscale>
<asrwt>0</asrwt>
<pdfrwt beam="1">  1        1 0.20764912E+00 0.52337859E+03</pdfrwt>
<pdfrwt beam="2">  1       -1 0.78057583E-02 0.52337859E+03</pdfrwt>
<totfact> 0.79586643E+02</totfact>
</mgrwt>
</event>
<event>
 4    0  0.1264838E-002  0.4972849E+03  0.7546771E-02  0.1014490E+00
         -2   -1    0    0    0  501 -0.00000000000E+00  0.00000000000E+00  0.50398540319E+02  0.50398540319E+02  0.00000000000E+00 0.  1.
          2   -1    0    0  502    0  0.00000000000E+00 -0.00000000000E+00 -0.12266838972E+04  0.12266838972E+04  0.00000000000E+00 0. -1.
         25    1    1    2    0    0  0.13154096602E+03 -0.19212465694E+03 -0.60856557694E+03  0.66346964587E+03  0.12500000000E+03 0.  0.
         21    1    1    2  502  501 -0.13154096602E+03  0.19212465694E+03 -0.56771977995E+03  0.61361279166E+03  0.00000000000E+00 0. -1.
<mgrwt>
<rscale>  3 0.49728494E+03</rscale>
<asrwt>0</asrwt>
<pdfrwt beam="1">  1        2 0.18872059E+00 0.49728494E+03</pdfrwt>
<pdfrwt beam="2">  1       -2 0.77536221E-02 0.49728494E+03</pdfrwt>
<totfact> 0.19106962E+03</totfact>
</mgrwt>
</event>
<event>
 4    0  0.1264838E-002  0.5210000E+03  0.7546771E-02  0.1008438E+00
          1   -1    0    0  502    0  0.00000000000E+00  0.00000000000E+00  0.10401857146E+04  0.10401857146E+04  0.00000000000E+00 0.  1.
         -1   -1    0    0    0  501 -0.00000000000E+00 -0.00000000000E+00 -0.65238602398E+02  0.65238602398E+02  0.00000000000E+00 0. -1.
         25    1    1    2    0    0  0.19021513756E+03 -0.66500963530E+02  0.81309521481E+03  0.84696694448E+03  0.12500000000E+03 0.  0.
         21    1    1    2  502  501 -0.19021513756E+03  0.66500963530E+02  0.16185189735E+03  0.25845737247E+03  0.00000000000E+00 0. -1.
<mgrwt>
<rscale>  3 0.52100005E+03</rscale>
<asrwt>0</asrwt>
<pdfrwt beam="1">  1        1 0.16002856E+00 0.52100005E+03</pdfrwt>
<pdfrwt beam="2">  1       -1 0.10036709E-01 0.52100005E+03</pdfrwt>
<totfact> 0.89718206E+02</totfact>
</mgrwt>
</event>
<event>
 4    0  0.1264838E-002  0.5125951E+03  0.7546771E-02  0.1010543E+00
          1   -1    0    0  502    0  0.00000000000E+00  0.00000000000E+00  0.13072172131E+03  0.13072172131E+03  0.00000000000E+00 0.  1.
         -1   -1    0    0    0  501 -0.00000000000E+00 -0.00000000000E+00 -0.50250586056E+03  0.50250586056E+03  0.00000000000E+00 0. -1.
         25    1    1    2    0    0  0.17053206561E+03 -0.16680849032E+03 -0.15411806919E+03  0.31029604750E+03  0.12500000000E+03 0.  0.
         21    1    1    2  502  501 -0.17053206561E+03  0.16680849032E+03 -0.21766607006E+03  0.32293153438E+03  0.00000000000E+00 0.  1.
<mgrwt>
<rscale>  3 0.51259509E+03</rscale>
<asrwt>0</asrwt>
<pdfrwt beam="1">  1        1 0.20111034E-01 0.51259509E+03</pdfrwt>
<pdfrwt beam="2">  1       -1 0.77308594E-01 0.51259509E+03</pdfrwt>
<totfact> 0.44278186E+02</totfact>
</mgrwt>
</event>
<event>
 4    0  0.1736523E-002  0.7834278E+03  0.7546771E-02  0.9584319E-01
          2   -1    0    0  502    0  0.00000000000E+00  0.00000000000E+00  0.21278279411E+04  0.21278279411E+04  0.00000000000E+00 0. -1.
         -2   -1    0    0    0  501 -0.00000000000E+00 -0.00000000000E+00 -0.72110984506E+02  0.72110984506E+02  0.00000000000E+00 0.  1.
         25    1    1    2    0    0 -0.21424883948E+01 -0.20520901732E+03  0.15013595777E+03  0.28333926107E+03  0.12500000000E+03 0.  0.
         21    1    1    2  502  501  0.21424883948E+01  0.20520901732E+03  0.19055809988E+04  0.19165996645E+04  0.00000000000E+00 0. -1.
<mgrwt>
<rscale>  3 0.78342777E+03</rscale>
<asrwt>0</asrwt>
<pdfrwt beam="1">  1        2 0.32735810E+00 0.78342777E+03</pdfrwt>
<pdfrwt beam="2">  1       -2 0.11093999E-01 0.78342777E+03</pdfrwt>
<totfact> 0.33631787E+02</totfact>
</mgrwt>
</event>
<event>
 4    0  0.1264838E-002  0.6190695E+03  0.7546771E-02  0.9866614E-01
         -2   -1    0    0    0  501 -0.00000000000E+00  0.00000000000E+00  0.15970686288E+03  0.15970686288E+03  0.00000000000E+00 0.  1.
          2   -1    0    0  502    0  0.00000000000E+00 -0.00000000000E+00 -0.59992254328E+03  0.59992254328E+03  0.00000000000E+00 0. -1.
         25    1    1    2    0    0  0.17529382084E+03 -0.19230978504E+03 -0.40454353793E+03  0.49698234489E+03  0.12500000000E+03 0.  0.
         21    1    1    2  502  501 -0.17529382084E+03  0.19230978504E+03 -0.35672142474E+02  0.26264706127E+03  0.00000000000E+00 0.  1.
<mgrwt>
<rscale>  3 0.61906945E+03</rscale>
<asrwt>0</asrwt>
<pdfrwt beam="1">  1        2 0.92295774E-01 0.61906945E+03</pdfrwt>
<pdfrwt beam="2">  1       -2 0.24570287E-01 0.61906945E+03</pdfrwt>
<totfact> 0.73750181E+02</totfact>
</mgrwt>
</event>
<event>
 4    0  0.1264838E-002  0.6675199E+03  0.7546771E-02  0.9774449E-01
          2   -1    0    0  502    0  0.00000000000E+00  0.00000000000E+00  0.64952396057E+03  0.64952396057E+03  0.00000000000E+00 0.  1.
         -2   -1    0    0    0  501 -0.00000000000E+00 -0.00000000000E+00 -0.17150361572E+03  0.17150361572E+03  0.00000000000E+00 0. -1.
         25    1    1    2    0    0  0.24985344148E+03 -0.59127088152E+01  0.49722460670E+03  0.57036743583E+03  0.12500000000E+03 0.  0.
         21    1    1    2  502  501 -0.24985344148E+03  0.59127088152E+01 -0.19204261846E+02  0.25066014046E+03  0.00000000000E+00 0. -1.
<mgrwt>
<rscale>  3 0.66751991E+03</rscale>
<asrwt>0</asrwt>
<pdfrwt beam="1">  1        2 0.99926762E-01 0.66751991E+03</pdfrwt>
<pdfrwt beam="2">  1       -2 0.26385172E-01 0.66751991E+03</pdfrwt>
<totfact> 0.58823349E+02</totfact>
</mgrwt>
</event>
<event>
 4    0  0.1264838E-002  0.5882024E+03  0.7546771E-02  0.9930189E-01
          2   -1    0    0  502    0  0.00000000000E+00  0.00000000000E+00  0.27270060134E+04  0.27270060134E+04  0.00000000000E+00 0. -1.
         -2   -1    0    0    0  501 -0.00000000000E+00 -0.00000000000E+00 -0.31718120927E+02  0.31718120927E+02  0.00000000000E+00 0.  1.
         25    1    1    2    0    0 -0.19135989981E+03  0.19497401937E+03  0.11036153732E+04  0.11437768014E+04  0.12500000000E+03 0.  0.
         21    1    1    2  502  501  0.19135989981E+03 -0.19497401937E+03  0.15916725193E+04  0.16149473329E+04  0.00000000000E+00 0.  1.
<mgrwt>
<rscale>  3 0.58820237E+03</rscale>
<asrwt>0</asrwt>
<pdfrwt beam="1">  1        2 0.41953920E+00 0.58820237E+03</pdfrwt>
<pdfrwt beam="2">  1       -2 0.48797131E-02 0.58820237E+03</pdfrwt>
<totfact> 0.58239699E+02</totfact>
</mgrwt>
</event>
<event>
 4    0  0.1264838E-002  0.5525673E+03  0.7546771E-02  0.1000901E+00
          2   -1    0    0  502    0  0.00000000000E+00  0.00000000000E+00  0.32798292080E+03  0.32798292080E+03  0.00000000000E+00 0. -1.
         -2   -1    0    0    0  501 -0.00000000000E+00 -0.00000000000E+00 -0.23273362727E+03  0.23273362727E+03  0.00000000000E+00 0.  1.
         25    1    1    2    0    0  0.21372895603E+03 -0.64420077757E+02 -0.89406228340E+02  0.27101381280E+03  0.12500000000E+03 0.  0.
         21    1    1    2  502  501 -0.21372895603E+03  0.64420077757E+02  0.18465552187E+03  0.28970273527E+03  0.00000000000E+00 0. -1.
<mgrwt>
<rscale>  3 0.55256730E+03</rscale>
<asrwt>0</asrwt>
<pdfrwt beam="1">  1        2 0.50458911E-01 0.55256730E+03</pdfrwt>
<pdfrwt beam="2">  1       -2 0.35805173E-01 0.55256730E+03</pdfrwt>
<totfact> 0.73264080E+02</totfact>
</mgrwt>
</event>
<event>
 4    0  0.1264838E-002  0.5345726E+03  0.7546771E-02  0.1005129E+00
         -2   -1    0    0    0  501 -0.00000000000E+00  0.00000000000E+00  0.68377520859E+02  0.68377520859E+02  0.00000000000E+00 0. -1.
          2   -1    0    0  502    0  0.00000000000E+00 -0.00000000000E+00 -0.10448167148E+04  0.10448167148E+04  0.00000000000E+00 0.  1.
         25    1    1    2    0    0  0.72445589109E+02  0.19522152400E+03 -0.81294663692E+03  0.84844978714E+03  0.12500000000E+03 0.  0.
         21    1    1    2  502  501 -0.72445589109E+02 -0.19522152400E+03 -0.16349255699E+03  0.26474444849E+03  0.00000000000E+00 0. -1.
<mgrwt>
<rscale>  3 0.53457264E+03</rscale>
<asrwt>0</asrwt>
<pdfrwt beam="1">  1        2 0.16074100E+00 0.53457264E+03</pdfrwt>
<pdfrwt beam="2">  1       -2 0.10519620E-01 0.53457264E+03</pdfrwt>
<totfact> 0.15027906E+03</totfact>
</mgrwt>
</event>
<event>
 4    0  0.1264838E-002  0.6266523E+03  0.7546771E-02  0.9851603E-01
         -2   -1    0    0    0  501 -0.00000000000E+00  0.00000000000E+00  0.53309521580E+02  0.53309521580E+02  0.00000000000E+00 0. -1.
          2   -1    0    0  502    0  0.00000000000E+00 -0.00000000000E+00 -0.18415710687E+04  0.18415710687E+04  0.00000000000E+00 0.  1.
         25    1    1    2    0    0 -0.14173267684E+03 -0.24508686511E+03 -0.62192432611E+03  0.69467300980E+03  0.12500000000E+03 0.  0.
         21    1    1    2  502  501  0.14173267684E+03  0.24508686511E+03 -0.11663372210E+04  0.12002075804E+04  0.00000000000E+00 0.  1.
<mgrwt>
<rscale>  3 0.62665229E+03</rscale>
<asrwt>0</asrwt>
<pdfrwt beam="1">  1        2 0.28331855E+00 0.62665229E+03</pdfrwt>
<pdfrwt beam="2">  1       -2 0.82014670E-02 0.62665229E+03</pdfrwt>
<totfact> 0.79457311E+02</totfact>
</mgrwt>
</event>
<event>
 4    0  0.1264838E-002  0.4833023E+03  0.7546771E-02  0.1018232E+00
         -1   -1    0    0    0  501 -0.00000000000E+00  0.00000000000E+00  0.71964134190E+02  0.71964134190E+02  0.00000000000E+00 0.  1.
          1   -1    0    0  502    0  0.00000000000E+00 -0.00000000000E+00 -0.81144964358E+03  0.81144964358E+03  0.00000000000E+00 0. -1.
         25    1    1    2    0    0 -0.21658201252E+03  0.53756441651E+02 -0.45360841852E+03  0.52075245609E+03  0.12500000000E+03 0.  0.
         21    1    1    2  502  501  0.21658201252E+03 -0.53756441651E+02 -0.28587709087E+03  0.36266132169E+03  0.00000000000E+00 0.  1.
<mgrwt>
<rscale>  3 0.48330227E+03</rscale>
<asrwt>0</asrwt>
<pdfrwt beam="1">  1        1 0.12483841E+00 0.48330227E+03</pdfrwt>
<pdfrwt beam="2">  1       -1 0.11071405E-01 0.48330227E+03</pdfrwt>
<totfact> 0.11698747E+03</totfact>
</mgrwt>
</event>
<event>
 4    0  0.1264838E-002  0.5659509E+03  0.7546771E-02  0.9978679E-01
          1   -1    0    0  502    0  0.00000000000E+00  0.00000000000E+00  0.40156985455E+03  0.40156985455E+03  0.00000000000E+00 0. -1.
         -1   -1    0    0    0  501 -0.00000000000E+00 -0.00000000000E+00 -0.19940518642E+03  0.19940518642E+03  0.00000000000E+00 0.  1.
         25    1    1    2    0    0 -0.19932236203E+03 -0.81122532363E+02  0.27770713288E+03  0.37290283039E+03  0.12500000000E+03 0.  0.
         21    1    1    2  502  501  0.19932236203E+03  0.81122532363E+02 -0.75542464748E+02  0.22807221058E+03  0.00000000000E+00 0.  1.
<mgrwt>
<rscale>  3 0.56595092E+03</rscale>
<asrwt>0</asrwt>
<pdfrwt beam="1">  1        1 0.61779978E-01 0.56595092E+03</pdfrwt>
<pdfrwt beam="2">  1       -1 0.30677721E-01 0.56595092E+03</pdfrwt>
<totfact> 0.59095909E+02</totfact>
</mgrwt>
</event>
<event>
 4    0  0.1264838E-002  0.6035175E+03  0.7546771E-02  0.9898135E-01
          1   -1    0    0  502    0  0.00000000000E+00  0.00000000000E+00  0.46765921227E+03  0.46765921227E+03  0.00000000000E+00 0. -1.
         -1   -1    0    0    0  501 -0.00000000000E+00 -0.00000000000E+00 -0.19471086332E+03  0.19471086332E+03  0.00000000000E+00 0.  1.
         25    1    1    2    0    0  0.11054528882E+03 -0.25246219788E+03  0.23709700965E+03  0.38444429275E+03  0.12500000000E+03 0.  0.
         21    1    1    2  502  501 -0.11054528882E+03  0.25246219788E+03  0.35851339304E+02  0.27792578284E+03  0.00000000000E+00 0.  1.
<mgrwt>
<rscale>  3 0.60351745E+03</rscale>
<asrwt>0</asrwt>
<pdfrwt beam="1">  1        1 0.71947571E-01 0.60351745E+03</pdfrwt>
<pdfrwt beam="2">  1       -1 0.29955518E-01 0.60351745E+03</pdfrwt>
<totfact> 0.50231431E+02</totfact>
</mgrwt>
</event>
<event>
 4    0  0.1264838E-002  0.5153933E+03  0.7546771E-02  0.1009837E+00
          1   -1    0    0  502    0  0.00000000000E+00  0.00000000000E+00  0.53655710701E+03  0.53655710701E+03  0.00000000000E+00 0.  1.
         -1   -1    0    0    0  501 -0.00000000000E+00 -0.00000000000E+00 -0.12376607849E+03  0.12376607849E+03  0.00000000000E+00 0. -1.
         25    1    1    2    0    0  0.19324035096E+03  0.74748249207E+02  0.57004500665E+02  0.24860339316E+03  0.12500000000E+03 0.  0.
         21    1    1    2  502  501 -0.19324035096E+03 -0.74748249207E+02  0.35578652785E+03  0.41171979233E+03  0.00000000000E+00 0.  1.
<mgrwt>
<rscale>  3 0.51539332E+03</rscale>
<asrwt>0</asrwt>
<pdfrwt beam="1">  1        1 0.82547246E-01 0.51539332E+03</pdfrwt>
<pdfrwt beam="2">  1       -1 0.19040935E-01 0.51539332E+03</pdfrwt>
<totfact> 0.89674451E+02</totfact>
</mgrwt>
</event>
<event>
 4    0  0.1549903E-002  0.5692262E+03  0.7546771E-02  0.9971392E-01
         -1   -1    0    0    0  501 -0.00000000000E+00  0.00000000000E+00  0.25902730424E+03  0.25902730424E+03  0.00000000000E+00 0.  1.
          1   -1    0    0  502    0  0.00000000000E+00 -0.00000000000E+00 -0.31272621284E+03  0.31272621284E+03  0.00000000000E+00 0. -1.
         25    1    1    2    0    0  0.10887947380E+03  0.17645799981E+03  0.14695225519E+03  0.28321746207E+03  0.12500000000E+03 0.  0.
         21    1    1    2  502  501 -0.10887947380E+03 -0.17645799981E+03 -0.20065116379E+03  0.28853605502E+03  0.00000000000E+00 0. -1.
<mgrwt>
<rscale>  3 0.56922624E+03</rscale>
<asrwt>0</asrwt>
<pdfrwt beam="1">  1        1 0.48111725E-01 0.56922624E+03</pdfrwt>
<pdfrwt beam="2">  1       -1 0.39850354E-01 0.56922624E+03</pdfrwt>
<totfact> 0.51479212E+02</totfact>
</mgrwt>
</event>
<event>
 4    0  0.1264838E-002  0.5198198E+03  0.7546771E-02  0.1008731E+00
          2   -1    0    0  502    0  0.00000000000E+00  0.00000000000E+00  0.80062949498E+03  0.80062949498E+03  0.00000000000E+00 0.  1.
         -2   -1    0    0    0  501 -0.00000000000E+00 -0.00000000000E+00 -0.84375065575E+02  0.84375065575E+02  0.00000000000E+00 0. -1.
         25    1    1    2    0    0  0.12190026624E+03 -0.21202662456E+03  0.39979693126E+03  0.48505417293E+03  0.12500000000E+03 0.  0.
         21    1    1    2  502  501 -0.12190026624E+03  0.21202662456E+03  0.31645749814E+03  0.39995038762E+03  0.00000000000E+00 0.  1.
<mgrwt>
<rscale>  3 0.51981984E+03</rscale>
<asrwt>0</asrwt>
<pdfrwt beam="1">  1        2 0.12317376E+00 0.51981984E+03</pdfrwt>
<pdfrwt beam="2">  1       -2 0.12980780E-01 0.51981984E+03</pdfrwt>
<totfact> 0.15421600E+03</totfact>
</mgrwt>
</event>
<event>
 4    0  0.1264838E-002  0.7096691E+03  0.7546771E-02  0.9700838E-01
          2   -1    0    0  502    0  0.00000000000E+00  0.00000000000E+00  0.17456577630E+03  0.17456577630E+03  0.00000000000E+00 0.  1.
         -2   -1    0    0    0  501 -0.00000000000E+00 -0.00000000000E+00 -0.72126148439E+03  0.72126148439E+03  0.00000000000E+00 0. -1.
         25    1    1    2    0    0 -0.22691809953E+03  0.20549392759E+03 -0.47939885520E+03  0.58238118148E+03  0.12500000000E+03 0.  0.
         21    1    1    2  502  501  0.22691809953E+03 -0.20549392759E+03 -0.67296852890E+02  0.31344607922E+03  0.00000000000E+00 0.  1.
<mgrwt>
<rscale>  3 0.70966914E+03</rscale>
<asrwt>0</asrwt>
<pdfrwt beam="1">  1        2 0.26856273E-01 0.70966914E+03</pdfrwt>
<pdfrwt beam="2">  1       -2 0.11096330E+00 0.70966914E+03</pdfrwt>
<totfact> 0.13119821E+02</totfact>
</mgrwt>
</event>
<event>
 4    0  0.1264838E-002  0.5136725E+03  0.7546771E-02  0.1010271E+00
          1   -1    0    0  502    0  0.00000000000E+00  0.00000000000E+00  0.21909126056E+03  0.21909126056E+03  0.00000000000E+00 0. -1.
         -1   -1    0    0    0  501 -0.00000000000E+00 -0.00000000000E+00 -0.30108393077E+03  0.30108393077E+03  0.00000000000E+00 0.  1.
         25    1    1    2    0    0  0.24148357268E+03 -0.74811319276E+01 -0.39718233536E+02  0.27490511324E+03  0.12500000000E+03 0.  0.
         21    1    1    2  502  501 -0.24148357268E+03  0.74811319276E+01 -0.42274436674E+02  0.24527007809E+03  0.00000000000E+00 0.  1.
<mgrwt>
<rscale>  3 0.51367249E+03</rscale>
<asrwt>0</asrwt>
<pdfrwt beam="1">  1        1 0.33706348E-01 0.51367249E+03</pdfrwt>
<pdfrwt beam="2">  1       -1 0.46320605E-01 0.51367249E+03</pdfrwt>
<totfact> 0.61818605E+02</totfact>
</mgrwt>
</event>
<event>
 4    0  0.1264838E-002  0.1007444E+04  0.7546771E-02  0.9300418E-01
         -2   -1    0    0    0  501 -0.00000000000E+00  0.00000000000E+00  0.32762285985E+03  0.32762285985E+03  0.00000000000E+00 0.  1.
          2   -1    0    0  502    0  0.00000000000E+00 -0.00000000000E+00 -0.77447513562E+03  0.77447513562E+03  0.00000000000E+00 0. -1.
         25    1    1    2    0    0  0.16029217661E+03 -0.15577709564E+03 -0.71120900721E+03  0.75591225506E+03  0.12500000000E+03 0.  0.
         21    1    1    2  502  501 -0.16029217661E+03  0.15577709564E+03  0.26435673144E+03  0.34618574042E+03  0.00000000000E+00 0.  1.
<mgrwt>
<rscale>  3 0.10074438E+04</rscale>
<asrwt>0</asrwt>
<pdfrwt beam="1">  1        2 0.11915002E+00 0.10074438E+04</pdfrwt>
<pdfrwt beam="2">  1       -2 0.50403518E-01 0.10074438E+04</pdfrwt>
<totfact> 0.13359324E+02</totfact>
</mgrwt>
</event>
<event>
 4    0  0.1264838E-002  0.8407541E+03  0.7546771E-02  0.9502831E-01
         -2   -1    0    0    0  501 -0.00000000000E+00  0.00000000000E+00  0.45284116677E+03  0.45284116677E+03  0.00000000000E+00 0.  1.
          2   -1    0    0  502    0  0.00000000000E+00 -0.00000000000E+00 -0.39024026772E+03  0.39024026772E+03  0.00000000000E+00 0. -1.
         25    1    1    2    0    0  0.13689058895E+03 -0.18398785628E+03 -0.31012674303E+03  0.40545549859E+03  0.12500000000E+03 0.  0.
         21    1    1    2  502  501 -0.13689058895E+03  0.18398785628E+03  0.37272764208E+03  0.43762593590E+03  0.00000000000E+00 0.  1.
<mgrwt>
<rscale>  3 0.84075409E+03</rscale>
<asrwt>0</asrwt>
<pdfrwt beam="1">  1        2 0.60036964E-01 0.84075409E+03</pdfrwt>
<pdfrwt beam="2">  1       -2 0.69667872E-01 0.84075409E+03</pdfrwt>
<totfact> 0.15457224E+02</totfact>
</mgrwt>
</event>
<event>
 4    0  0.1264838E-002  0.6301562E+03  0.7546771E-02  0.9844744E-01
          2   -1    0    0  502    0  0.00000000000E+00  0.00000000000E+00  0.38403458675E+03  0.38403458675E+03  0.00000000000E+00 0. -1.
         -2   -1    0    0    0  501 -0.00000000000E+00 -0.00000000000E+00 -0.25850327415E+03  0.25850327415E+03  0.00000000000E+00 0.  1.
         25    1    1    2    0    0 -0.19717152116E+03  0.83889042338E+02 -0.15274400218E+03  0.29132406420E+03  0.12500000000E+03 0.  0.
         21    1    1    2  502  501  0.19717152116E+03 -0.83889042338E+02  0.27827531478E+03  0.35121379670E+03  0.00000000000E+00 0. -1.
<mgrwt>
<rscale>  3 0.63015616E+03</rscale>
<asrwt>0</asrwt>
<pdfrwt beam="1">  1        2 0.59082244E-01 0.63015616E+03</pdfrwt>
<pdfrwt beam="2">  1       -2 0.39769734E-01 0.63015616E+03</pdfrwt>
<totfact> 0.50197315E+02</totfact>
</mgrwt>
</event>
